Protein in INSANE! Membrane UpperLeaflet>POPC=1.0 LowerLeaflet>POPC=1.0
248719
    1AU     AUC    1  38.533  24.781   7.533
    1AU     AUC    2  38.784  24.773   7.365
    1AU     AUC    3  38.792  24.783   7.686
    1AU     AUC    4  38.268  24.769   7.384
    1AU     AUC    5  38.281  24.803   7.701
    1AU     AUC    6  38.384  25.037   7.514
    1AU     AUC    7  38.703  25.036   7.510
    1AU     AUC    8  38.370  24.526   7.560
    1AU     AUC    9  38.685  24.521   7.541
    1AU     AUC   10  38.536  24.642   7.802
    1AU     AUC   11  38.550  24.961   7.779
    1AU     AUC   12  38.523  24.606   7.285
    1AU     AUC   13  38.528  24.921   7.262
    1AU     AUC   14  39.037  24.778   7.197
    1AU     AUC   15  39.042  24.768   7.520
    1AU     AUC   16  39.048  24.766   7.843
    1AU     AUC   17  38.010  24.740   7.232
    1AU     AUC   18  38.008  24.789   7.556
    1AU     AUC   19  38.037  24.840   7.874
    1AU     AUC   20  38.231  25.290   7.480
    1AU     AUC   21  38.571  25.296   7.478
    1AU     AUC   22  38.887  25.292   7.489
    1AU     AUC   23  38.211  24.269   7.593
    1AU     AUC   24  38.531  24.261   7.557
    1AU     AUC   25  38.848  24.259   7.547
    1AU     AUC   26  38.539  24.503   8.070
    1AU     AUC   27  38.545  24.827   8.063
    1AU     AUC   28  38.576  25.147   8.022
    1AU     AUC   29  38.530  24.435   7.037
    1AU     AUC   30  38.516  24.746   7.009
    1AU     AUC   31  38.519  25.055   6.992
    1AU     AUC   32  38.790  24.629   7.960
    1AU     AUC   33  38.819  24.953   7.942
    1AU     AUC   34  38.791  24.613   7.104
    1AU     AUC   35  38.779  24.930   7.090
    1AU     AUC   36  38.286  24.674   7.982
    1AU     AUC   37  38.294  25.000   7.950
    1AU     AUC   38  38.258  24.577   7.140
    1AU     AUC   39  38.256  24.895   7.100
    1AU     AUC   40  38.963  25.030   7.349
    1AU     AUC   41  38.968  25.043   7.672
    1AU     AUC   42  38.109  25.033   7.348
    1AU     AUC   43  38.123  25.079   7.676
    1AU     AUC   44  38.936  24.503   7.365
    1AU     AUC   45  38.948  24.511   7.695
    1AU     AUC   46  38.094  24.506   7.424
    1AU     AUC   47  38.114  24.541   7.748
    1AU     AUC   48  38.402  25.221   7.769
    1AU     AUC   49  38.743  25.218   7.757
    1AU     AUC   50  38.374  24.381   7.835
    1AU     AUC   51  38.692  24.367   7.811
    1AU     AUC   52  38.367  25.182   7.238
    1AU     AUC   53  38.706  25.190   7.239
    1AU     AUC   54  38.359  24.338   7.307
    1AU     AUC   55  38.694  24.349   7.282
    1AU    AUSL   56  38.965  24.731   8.154
    1AU    AUSL   57  38.845  24.385   8.141
    1AU     AUL   58  39.232  24.536   8.274
    1AU    AUSL   59  38.647  24.650   8.288
    1AU    AUSL   60  38.432  25.020   8.278
    1AU     AUL   61  38.700  24.924   8.564
    1AU    AUSL   62  38.768  25.024   8.231
    1AU    AUSL   63  39.125  25.012   8.012
    1AU     AUL   64  39.095  24.933   8.409
    1AU    AUSL   65  38.952  24.836   6.893
    1AU    AUSL   66  38.833  25.183   6.911
    1AU     AUL   67  39.213  25.004   6.757
    1AU    AUSL   68  38.741  24.588   6.802
    1AU    AUSL   69  39.094  24.531   7.026
    1AU     AUL   70  39.103  24.607   6.655
    1AU    AUSL   71  38.610  24.900   6.772
    1AU    AUSL   72  38.397  24.557   6.822
    1AU     AUL   73  38.612  24.471   6.555
    1AU    AUSL   74  38.111  24.950   8.168
    1AU    AUSL   75  38.291  25.288   8.044
    1AU     AUL   76  38.256  25.308   8.377
    1AU    AUSL   77  38.299  24.682   8.267
    1AU    AUSL   78  38.034  24.563   8.053
    1AU     AUL   79  37.840  24.758   8.210
    1AU    AUSL   80  38.080  24.614   6.920
    1AU    AUSL   81  38.217  24.299   7.030
    1AU     AUL   82  38.310  24.260   6.706
    1AU    AUSL   83  38.261  24.882   6.816
    1AU    AUSL   84  37.992  25.012   7.045
    1AU     AUL   85  37.822  24.799   6.889
    1AU    AUSL   86  39.204  25.206   7.434
    1AU    AUSL   87  39.105  25.063   7.108
    1AU     AUL   88  39.446  25.010   7.072
    1AU    AUSL   89  39.296  24.880   7.356
    1AU    AUSL   90  39.285  24.624   7.671
    1AU     AUL   91  39.610  24.716   7.504
    1AU    AUSL   92  39.185  24.958   7.673
    1AU    AUSL   93  39.089  25.307   7.754
    1AU     AUL   94  39.410  25.020   7.781
    1AU    AUSL   95  37.941  25.266   7.492
    1AU    AUSL   96  37.972  25.154   7.930
    1AU     AUL   97  37.656  25.310   7.701
    1AU    AUSL   98  37.816  24.923   7.323
    1AU    AUSL   99  38.079  25.327   7.179
    1AU     AUL  100  37.704  25.227   7.200
    1AU    AUSL  101  37.809  24.969   7.698
    1AU    AUSL  102  37.761  24.619   7.451
    1AU     AUL  103  37.526  24.992   7.487
    1AU    AUSL  104  39.149  24.313   7.593
    1AU    AUSL  105  39.101  24.481   7.931
    1AU     AUL  106  39.439  24.525   7.919
    1AU    AUSL  107  39.156  24.564   7.360
    1AU    AUSL  108  39.028  24.238   7.252
    1AU     AUL  109  39.382  24.478   7.255
    1AU    AUSL  110  37.913  24.344   7.624
    1AU    AUSL  111  37.919  24.466   7.181
    1AU     AUL  112  37.701  24.233   7.400
    1AU    AUSL  113  37.812  24.645   7.799
    1AU    AUSL  114  38.089  24.243   7.912
    1AU     AUL  115  37.766  24.320   7.951
    1AU    AUSL  116  38.595  25.455   7.938
    1AU    AUSL  117  38.129  25.426   7.752
    1AU     AUL  118  38.333  25.655   8.017
    1AU    AUSL  119  38.447  25.402   7.622
    1AU    AUSL  120  38.686  25.543   7.332
    1AU     AUL  121  38.437  25.716   7.629
    1AU    AUSL  122  38.807  25.511   7.646
    1AU    AUSL  123  38.876  25.265   8.026
    1AU     AUL  124  38.928  25.596   7.960
    1AU    AUSL  125  38.572  24.190   7.989
    1AU    AUSL  126  38.912  24.191   7.851
    1AU     AUL  127  38.706  24.104   8.263
    1AU    AUSL  128  38.332  24.070   7.760
    1AU    AUSL  129  38.318  24.357   8.159
    1AU     AUL  130  38.296  23.981   8.100
    1AU    AUSL  131  38.653  24.028   7.680
    1AU    AUSL  132  38.389  24.043   7.413
    1AU     AUL  133  38.198  23.840   7.600
    1AU    AUSL  134  38.549  25.341   7.080
    1AU    AUSL  135  38.956  25.360   7.221
    1AU     AUL  136  38.744  25.540   6.935
    1AU    AUSL  137  38.334  25.511   7.311
    1AU    AUSL  138  38.274  25.197   6.919
    1AU     AUL  139  38.343  25.516   6.917
    1AU    AUSL  140  38.517  24.138   7.102
    1AU    AUSL  141  38.069  24.179   7.334
    1AU     AUL  142  38.225  23.922   7.102
    1AU    AUSL  143  38.752  24.065   7.357
    1AU    AUSL  144  38.810  24.319   6.991
    1AU     AUL  145  38.783  24.015   6.972
    1AU       S  146  39.198  24.006   8.281
    1AU     LIG  147  39.183  23.530   8.351
    1AU     LIG  148  39.185  23.084   8.526
    1AU     LIG  149  39.427  22.720   8.676
    1AU       S  150  38.939  24.464   8.685
    1AU     LIG  151  39.118  24.690   9.059
    1AU     LIG  152  39.327  24.800   9.459
    1AU     LIG  153  39.304  24.720   9.917
    1AU       S  154  38.602  24.430   8.677
    1AU     LIG  155  38.585  24.583   9.111
    1AU     LIG  156  38.862  24.558   9.498
    1AU     LIG  157  39.233  24.298   9.616
    1AU       S  158  38.229  24.944   8.749
    1AU     LIG  159  38.144  24.863   9.180
    1AU     LIG  160  37.819  24.729   9.468
    1AU     LIG  161  37.615  24.760   9.897
    1AU       S  162  38.795  25.428   8.522
    1AU     LIG  163  38.993  25.682   8.841
    1AU     LIG  164  39.342  25.570   9.079
    1AU     LIG  165  39.581  25.189   9.161
    1AU       S  166  39.449  25.274   8.229
    1AU     LIG  167  39.616  25.387   8.663
    1AU     LIG  168  39.808  25.721   8.920
    1AU     LIG  169  39.921  26.163   9.044
    1AU       S  170  38.897  25.080   6.372
    1AU     LIG  171  39.036  25.080   5.911
    1AU     LIG  172  39.270  24.777   5.659
    1AU     LIG  173  39.406  24.363   5.486
    1AU       S  174  39.191  25.520   6.718
    1AU     LIG  175  39.267  25.941   6.524
    1AU     LIG  176  39.415  26.198   6.174
    1AU     LIG  177  39.755  26.472   6.048
    1AU       S  178  39.406  24.204   6.828
    1AU     LIG  179  39.665  23.984   6.515
    1AU     LIG  180  39.665  23.563   6.313
    1AU     LIG  181  39.614  23.164   6.085
    1AU       S  182  38.807  24.836   6.288
    1AU     LIG  183  38.866  24.572   5.923
    1AU     LIG  184  38.870  24.344   5.512
    1AU     LIG  185  39.087  24.153   5.137
    1AU       S  186  38.173  24.642   6.356
    1AU     LIG  187  38.122  24.679   5.929
    1AU     LIG  188  38.286  24.552   5.540
    1AU     LIG  189  38.238  24.606   5.095
    1AU       S  190  38.596  25.033   6.385
    1AU     LIG  191  38.522  24.991   5.898
    1AU     LIG  192  38.762  24.851   5.505
    1AU     LIG  193  39.086  24.697   5.190
    1AU       S  194  37.975  24.963   8.645
    1AU     LIG  195  37.687  24.807   8.928
    1AU     LIG  196  37.508  24.459   9.139
    1AU     LIG  197  37.445  24.378   9.587
    1AU       S  198  37.855  25.603   8.195
    1AU     LIG  199  37.532  25.824   8.435
    1AU     LIG  200  37.430  25.689   8.843
    1AU     LIG  201  37.379  25.792   9.265
    1AU       S  202  37.862  24.322   8.470
    1AU     LIG  203  37.394  24.214   8.459
    1AU     LIG  204  37.045  23.901   8.440
    1AU     LIG  205  36.844  23.661   8.778
    1AU       S  206  38.165  24.689   8.658
    1AU     LIG  207  38.014  24.414   8.982
    1AU     LIG  208  37.902  24.222   9.371
    1AU     LIG  209  37.961  24.351   9.805
    1AU       S  210  37.934  24.558   6.466
    1AU     LIG  211  37.795  24.313   6.111
    1AU     LIG  212  37.746  24.437   5.667
    1AU     LIG  213  37.811  24.762   5.354
    1AU       S  214  37.831  24.114   6.763
    1AU     LIG  215  37.692  23.766   6.481
    1AU     LIG  216  37.515  23.442   6.200
    1AU     LIG  217  37.107  23.258   6.084
    1AU       S  218  37.767  25.224   6.642
    1AU     LIG  219  37.420  25.495   6.711
    1AU     LIG  220  37.349  25.903   6.583
    1AU     LIG  221  37.163  25.878   6.165
    1AU       S  222  38.115  24.895   6.441
    1AU     LIG  223  37.882  25.095   6.138
    1AU     LIG  224  37.980  25.123   5.697
    1AU     LIG  225  38.308  25.046   5.397
    1AU       S  226  39.378  25.493   6.932
    1AU     LIG  227  39.700  25.715   6.686
    1AU     LIG  228  39.811  25.890   6.268
    1AU     LIG  229  40.066  26.069   5.921
    1AU       S  230  39.516  25.467   7.421
    1AU     LIG  231  39.927  25.730   7.357
    1AU     LIG  232  40.369  25.811   7.542
    1AU     LIG  233  40.703  25.906   7.888
    1AU       S  234  39.750  25.225   7.408
    1AU     LIG  235  40.230  25.302   7.400
    1AU     LIG  236  40.681  25.178   7.296
    1AU     LIG  237  41.070  25.330   7.064
    1AU       S  238  39.645  24.176   7.629
    1AU     LIG  239  39.895  23.968   7.908
    1AU     LIG  240  40.308  23.899   8.053
    1AU     LIG  241  40.673  24.106   7.837
    1AU       S  242  39.427  25.505   8.016
    1AU     LIG  243  39.777  25.690   8.262
    1AU     LIG  244  39.835  26.073   8.538
    1AU     LIG  245  39.676  26.478   8.715
    1AU       S  246  39.673  25.383   7.610
    1AU     LIG  247  40.052  25.504   7.837
    1AU     LIG  248  40.524  25.406   7.840
    1AU     LIG  249  40.990  25.450   7.970
    1AU       S  250  37.733  25.339   8.223
    1AU     LIG  251  37.369  25.343   8.444
    1AU     LIG  252  37.025  25.608   8.546
    1AU     LIG  253  36.926  25.684   8.999
    1AU       S  254  37.817  25.730   7.416
    1AU     LIG  255  37.787  26.182   7.399
    1AU     LIG  256  37.528  26.080   7.072
    1AU     LIG  257  37.184  25.763   7.078
    1AU       S  258  37.369  24.693   7.100
    1AU     LIG  259  36.980  24.579   6.920
    1AU     LIG  260  36.705  24.920   7.018
    1AU     LIG  261  36.764  25.331   7.264
    1AU       S  262  37.854  25.637   6.913
    1AU     LIG  263  37.919  26.029   6.718
    1AU     LIG  264  37.621  26.334   6.623
    1AU     LIG  265  37.302  26.347   6.273
    1AU       S  266  37.311  24.529   7.578
    1AU     LIG  267  36.895  24.593   7.427
    1AU     LIG  268  36.545  24.463   7.187
    1AU     LIG  269  36.193  24.321   6.978
    1AU       S  270  37.399  25.005   8.027
    1AU     LIG  271  36.965  25.114   8.249
    1AU     LIG  272  36.715  25.439   8.110
    1AU     LIG  273  36.901  25.730   7.793
    1AU       S  274  39.379  23.976   7.563
    1AU     LIG  275  39.640  23.596   7.593
    1AU     LIG  276  40.048  23.492   7.776
    1AU     LIG  277  40.462  23.648   7.653
    1AU       S  278  39.380  24.035   8.063
    1AU     LIG  279  39.619  23.603   8.101
    1AU     LIG  280  39.943  23.389   8.342
    1AU     LIG  281  39.749  23.160   8.726
    1AU       S  282  39.580  24.064   7.414
    1AU     LIG  283  40.011  23.892   7.409
    1AU     LIG  284  40.406  24.087   7.386
    1AU     LIG  285  40.769  23.875   7.309
    1AU       S  286  39.292  23.974   7.031
    1AU     LIG  287  39.458  23.611   6.813
    1AU     LIG  288  39.440  23.187   6.656
    1AU     LIG  289  39.474  22.791   6.429
    1AU       S  290  37.637  24.280   6.885
    1AU     LIG  291  37.423  24.211   6.482
    1AU     LIG  292  37.195  23.847   6.313
    1AU     LIG  293  36.796  23.623   6.397
    1AU       S  294  37.321  24.326   7.723
    1AU     LIG  295  37.138  23.917   7.674
    1AU     LIG  296  36.923  23.832   7.271
    1AU     LIG  297  36.508  23.933   7.093
    1AU       S  298  37.864  24.044   8.355
    1AU     LIG  299  37.473  23.821   8.121
    1AU     LIG  300  37.107  23.531   8.086
    1AU     LIG  301  37.070  23.319   8.465
    1AU       S  302  37.344  24.577   7.808
    1AU     LIG  303  36.922  24.744   7.911
    1AU     LIG  304  36.552  24.526   7.832
    1AU     LIG  305  36.659  24.150   7.594
    1AU       S  306  37.844  25.763   7.907
    1AU     LIG  307  37.615  26.152   8.043
    1AU     LIG  308  37.312  26.303   8.395
    1AU     LIG  309  37.363  26.210   8.869
    1AU       S  310  38.694  26.035   7.951
    1AU     LIG  311  38.691  26.472   8.143
    1AU     LIG  312  38.532  26.716   8.505
    1AU     LIG  313  38.106  26.792   8.647
    1AU       S  314  38.677  26.210   7.694
    1AU     LIG  315  38.260  26.278   7.579
    1AU     LIG  316  37.976  26.488   7.827
    1AU     LIG  317  38.185  26.720   8.135
    1AU       S  318  38.640  25.972   7.228
    1AU     LIG  319  38.629  26.425   7.231
    1AU     LIG  320  38.872  26.743   7.068
    1AU     LIG  321  38.672  27.109   6.964
    1AU       S  322  39.251  25.452   8.314
    1AU     LIG  323  39.375  25.829   8.542
    1AU     LIG  324  39.422  26.062   8.924
    1AU     LIG  325  39.565  25.959   9.355
    1AU       S  326  38.916  25.996   7.636
    1AU     LIG  327  39.034  26.516   7.588
    1AU     LIG  328  38.943  26.857   7.908
    1AU     LIG  329  38.845  27.074   8.316
    1AU       S  330  38.719  23.649   8.050
    1AU     LIG  331  38.808  23.233   8.183
    1AU     LIG  332  38.668  22.847   8.394
    1AU     LIG  333  38.312  22.653   8.653
    1AU       S  334  39.148  23.903   7.989
    1AU     LIG  335  39.206  23.488   7.829
    1AU     LIG  336  39.278  23.102   8.029
    1AU     LIG  337  39.632  23.011   8.250
    1AU       S  338  38.504  23.551   7.877
    1AU     LIG  339  38.399  23.105   7.910
    1AU     LIG  340  38.183  22.836   8.207
    1AU     LIG  341  38.051  22.400   8.260
    1AU       S  342  38.111  24.205   8.534
    1AU     LIG  343  37.719  24.010   8.830
    1AU     LIG  344  37.400  23.655   8.724
    1AU     LIG  345  37.191  23.287   8.953
    1AU       S  346  38.564  23.571   7.359
    1AU     LIG  347  38.408  23.159   7.377
    1AU     LIG  348  38.454  22.851   7.057
    1AU     LIG  349  38.757  22.574   7.106
    1AU       S  350  38.748  23.657   7.804
    1AU     LIG  351  38.839  23.197   7.657
    1AU     LIG  352  38.878  22.804   7.913
    1AU     LIG  353  39.113  22.598   8.269
    1AU       S  354  38.474  25.972   7.043
    1AU     LIG  355  38.455  26.242   6.705
    1AU     LIG  356  38.738  26.569   6.568
    1AU     LIG  357  38.819  26.772   6.166
    1AU       S  358  39.221  25.673   7.076
    1AU     LIG  359  39.465  26.075   6.979
    1AU     LIG  360  39.705  26.269   6.613
    1AU     LIG  361  40.123  26.309   6.390
    1AU       S  362  38.239  25.941   7.204
    1AU     LIG  363  38.113  26.370   7.061
    1AU     LIG  364  38.349  26.710   6.880
    1AU     LIG  365  38.369  26.958   6.508
    1AU       S  366  37.968  25.379   6.615
    1AU     LIG  367  37.738  25.666   6.334
    1AU     LIG  368  37.761  26.107   6.195
    1AU     LIG  369  38.057  26.448   6.382
    1AU       S  370  37.727  23.979   6.971
    1AU     LIG  371  37.317  23.827   6.838
    1AU     LIG  372  37.219  23.425   6.637
    1AU     LIG  373  37.367  23.025   6.478
    1AU       S  374  38.641  23.571   7.129
    1AU     LIG  375  38.967  23.447   6.794
    1AU     LIG  376  38.957  23.035   6.574
    1AU     LIG  377  38.701  22.676   6.626
    1AU       S  378  38.889  23.670   7.341
    1AU     LIG  379  39.172  23.378   7.286
    1AU     LIG  380  39.014  23.026   7.084
    1AU     LIG  381  39.218  22.694   6.867
    1AU       S  382  39.202  24.082   6.724
    1AU     LIG  383  39.193  23.795   6.399
    1AU     LIG  384  39.176  23.379   6.262
    1AU     LIG  385  39.127  22.954   6.091
    2AU     AUC  386  17.684  39.516   7.523
    2AU     AUC  387  17.940  39.503   7.364
    2AU     AUC  388  17.935  39.517   7.687
    2AU     AUC  389  17.426  39.505   7.364
    2AU     AUC  390  17.425  39.541   7.681
    2AU     AUC  391  17.538  39.773   7.497
    2AU     AUC  392  17.855  39.768   7.505
    2AU     AUC  393  17.520  39.262   7.544
    2AU     AUC  394  17.836  39.254   7.540
    2AU     AUC  395  17.674  39.379   7.793
    2AU     AUC  396  17.691  39.698   7.768
    2AU     AUC  397  17.684  39.337   7.276
    2AU     AUC  398  17.689  39.652   7.251
    2AU     AUC  399  18.199  39.503   7.206
    2AU     AUC  400  18.192  39.497   7.529
    2AU     AUC  401  18.184  39.500   7.854
    2AU     AUC  402  17.174  39.485   7.204
    2AU     AUC  403  17.163  39.536   7.525
    2AU     AUC  404  17.172  39.577   7.842
    2AU     AUC  405  17.388  40.029   7.459
    2AU     AUC  406  17.726  40.029   7.465
    2AU     AUC  407  18.041  40.021   7.487
    2AU     AUC  408  17.355  39.009   7.567
    2AU     AUC  409  17.683  38.998   7.552
    2AU     AUC  410  17.999  38.994   7.557
    2AU     AUC  411  17.667  39.242   8.064
    2AU     AUC  412  17.675  39.565   8.053
    2AU     AUC  413  17.708  39.884   8.012
    2AU     AUC  414  17.699  39.160   7.029
    2AU     AUC  415  17.681  39.471   7.001
    2AU     AUC  416  17.687  39.784   6.982
    2AU     AUC  417  17.922  39.367   7.963
    2AU     AUC  418  17.953  39.689   7.942
    2AU     AUC  419  17.958  39.340   7.105
    2AU     AUC  420  17.945  39.656   7.089
    2AU     AUC  421  17.416  39.413   7.960
    2AU     AUC  422  17.429  39.737   7.929
    2AU     AUC  423  17.425  39.306   7.120
    2AU     AUC  424  17.419  39.628   7.082
    2AU     AUC  425  18.120  39.757   7.353
    2AU     AUC  426  18.111  39.774   7.676
    2AU     AUC  427  17.269  39.775   7.321
    2AU     AUC  428  17.270  39.818   7.650
    2AU     AUC  429  18.094  39.233   7.373
    2AU     AUC  430  18.091  39.246   7.705
    2AU     AUC  431  17.256  39.243   7.398
    2AU     AUC  432  17.250  39.279   7.712
    2AU     AUC  433  17.546  39.958   7.752
    2AU     AUC  434  17.885  39.952   7.751
    2AU     AUC  435  17.510  39.122   7.819
    2AU     AUC  436  17.830  39.105   7.814
    2AU     AUC  437  17.531  39.916   7.220
    2AU     AUC  438  17.868  39.920   7.232
    2AU     AUC  439  17.523  39.068   7.296
    2AU     AUC  440  17.859  39.080   7.283
    2AU    AUSL  441  18.090  39.472   8.164
    2AU    AUSL  442  17.970  39.129   8.150
    2AU     AUL  443  18.354  39.283   8.295
    2AU    AUSL  444  17.768  39.393   8.288
    2AU    AUSL  445  17.555  39.756   8.263
    2AU     AUL  446  17.812  39.672   8.563
    2AU    AUSL  447  17.893  39.766   8.230
    2AU    AUSL  448  18.255  39.749   8.022
    2AU     AUL  449  18.217  39.680   8.418
    2AU    AUSL  450  18.122  39.555   6.895
    2AU    AUSL  451  18.006  39.907   6.911
    2AU     AUL  452  18.376  39.737   6.756
    2AU    AUSL  453  17.907  39.307   6.802
    2AU    AUSL  454  18.267  39.260   7.039
    2AU     AUL  455  18.266  39.321   6.661
    2AU    AUSL  456  17.783  39.618   6.772
    2AU    AUSL  457  17.559  39.277   6.807
    2AU     AUL  458  17.779  39.153   6.582
    2AU    AUSL  459  17.239  39.691   8.140
    2AU    AUSL  460  17.422  40.022   8.026
    2AU     AUL  461  17.385  40.050   8.356
    2AU    AUSL  462  17.421  39.419   8.246
    2AU    AUSL  463  17.163  39.306   8.021
    2AU     AUL  464  16.967  39.495   8.178
    2AU    AUSL  465  17.241  39.352   6.900
    2AU    AUSL  466  17.392  39.017   7.014
    2AU     AUL  467  17.369  39.015   6.666
    2AU    AUSL  468  17.432  39.609   6.804
    2AU    AUSL  469  17.149  39.745   7.008
    2AU     AUL  470  16.981  39.476   6.865
    2AU    AUSL  471  18.358  39.927   7.444
    2AU    AUSL  472  18.269  39.784   7.116
    2AU     AUL  473  18.594  39.696   7.076
    2AU    AUSL  474  18.453  39.604   7.375
    2AU    AUSL  475  18.427  39.355   7.692
    2AU     AUL  476  18.758  39.441   7.542
    2AU    AUSL  477  18.324  39.685   7.685
    2AU    AUSL  478  18.232  40.037   7.758
    2AU     AUL  479  18.540  39.734   7.806
    2AU    AUSL  480  17.105  40.014   7.471
    2AU    AUSL  481  17.106  39.889   7.891
    2AU     AUL  482  16.795  40.042   7.648
    2AU    AUSL  483  16.971  39.701   7.290
    2AU    AUSL  484  17.246  40.062   7.154
    2AU     AUL  485  16.880  40.004   7.188
    2AU    AUSL  486  16.947  39.702   7.659
    2AU    AUSL  487  16.944  39.389   7.411
    2AU     AUL  488  16.656  39.674   7.431
    2AU    AUSL  489  18.297  39.044   7.614
    2AU    AUSL  490  18.235  39.222   7.950
    2AU     AUL  491  18.577  39.273   7.942
    2AU    AUSL  492  18.314  39.290   7.376
    2AU    AUSL  493  18.194  38.966   7.267
    2AU     AUL  494  18.546  39.202   7.283
    2AU    AUSL  495  17.028  39.083   7.539
    2AU    AUSL  496  17.109  39.183   7.163
    2AU     AUL  497  16.788  39.291   7.174
    2AU    AUSL  498  16.953  39.374   7.756
    2AU    AUSL  499  17.212  38.992   7.860
    2AU     AUL  500  16.904  39.062   7.911
    2AU    AUSL  501  17.729  40.191   7.924
    2AU    AUSL  502  17.280  40.167   7.735
    2AU     AUL  503  17.467  40.394   8.014
    2AU    AUSL  504  17.597  40.137   7.602
    2AU    AUSL  505  17.850  40.273   7.321
    2AU     AUL  506  17.590  40.450   7.612
    2AU    AUSL  507  17.956  40.242   7.642
    2AU    AUSL  508  18.007  40.001   8.022
    2AU     AUL  509  18.059  40.323   7.966
    2AU    AUSL  510  17.702  38.928   7.991
    2AU    AUSL  511  18.048  38.933   7.867
    2AU     AUL  512  17.824  38.856   8.274
    2AU    AUSL  513  17.477  38.822   7.744
    2AU    AUSL  514  17.432  39.095   8.131
    2AU     AUL  515  17.402  38.723   8.061
    2AU    AUSL  516  17.799  38.766   7.687
    2AU    AUSL  517  17.555  38.770   7.406
    2AU     AUL  518  17.350  38.579   7.603
    2AU    AUSL  519  17.719  40.074   7.062
    2AU    AUSL  520  18.121  40.084   7.223
    2AU     AUL  521  17.929  40.266   6.925
    2AU    AUSL  522  17.500  40.247   7.286
    2AU    AUSL  523  17.444  39.926   6.902
    2AU     AUL  524  17.510  40.246   6.892
    2AU    AUSL  525  17.695  38.870   7.103
    2AU    AUSL  526  17.242  38.898   7.328
    2AU     AUL  527  17.420  38.647   7.083
    2AU    AUSL  528  17.917  38.799   7.369
    2AU    AUSL  529  17.988  39.045   6.996
    2AU     AUL  530  17.962  38.737   6.981
    2AU       S  531  18.313  38.746   8.312
    2AU     LIG  532  18.387  38.251   8.334
    2AU     LIG  533  18.498  37.763   8.341
    2AU     LIG  534  18.661  37.347   8.529
    2AU       S  535  18.051  39.215   8.697
    2AU     LIG  536  18.243  39.421   9.082
    2AU     LIG  537  18.483  39.490   9.477
    2AU     LIG  538  18.619  39.594   9.912
    2AU       S  539  17.715  39.180   8.684
    2AU     LIG  540  17.754  39.219   9.150
    2AU     LIG  541  18.064  39.171   9.522
    2AU     LIG  542  18.420  39.099   9.840
    2AU       S  543  17.331  39.683   8.717
    2AU     LIG  544  17.342  39.565   9.130
    2AU     LIG  545  17.001  39.510   9.392
    2AU     LIG  546  16.794  39.689   9.773
    2AU       S  547  17.929  40.172   8.517
    2AU     LIG  548  18.142  40.402   8.855
    2AU     LIG  549  18.500  40.286   9.090
    2AU     LIG  550  18.677  39.860   9.139
    2AU       S  551  18.578  40.015   8.231
    2AU     LIG  552  18.740  40.106   8.662
    2AU     LIG  553  18.955  40.431   8.888
    2AU     LIG  554  19.249  40.727   9.106
    2AU       S  555  18.072  39.748   6.358
    2AU     LIG  556  18.197  39.745   5.915
    2AU     LIG  557  18.434  39.445   5.672
    2AU     LIG  558  18.430  39.065   5.429
    2AU       S  559  18.403  40.252   6.771
    2AU     LIG  560  18.660  40.577   6.590
    2AU     LIG  561  18.773  40.648   6.139
    2AU     LIG  562  19.091  40.896   5.911
    2AU       S  563  18.592  38.947   6.844
    2AU     LIG  564  18.671  38.949   6.363
    2AU     LIG  565  18.724  38.592   6.090
    2AU     LIG  566  18.777  38.184   6.303
    2AU       S  567  17.938  39.515   6.284
    2AU     LIG  568  18.019  39.246   5.927
    2AU     LIG  569  17.915  39.081   5.515
    2AU     LIG  570  18.029  39.003   5.072
    2AU       S  571  17.424  39.413   6.311
    2AU     LIG  572  17.393  39.381   5.841
    2AU     LIG  573  17.440  39.272   5.400
    2AU     LIG  574  17.242  39.336   4.988
    2AU       S  575  17.799  39.766   6.404
    2AU     LIG  576  17.651  39.793   5.973
    2AU     LIG  577  17.819  39.586   5.595
    2AU     LIG  578  18.134  39.483   5.257
    2AU       S  579  17.083  39.714   8.611
    2AU     LIG  580  16.838  39.455   8.864
    2AU     LIG  581  16.694  39.152   9.126
    2AU     LIG  582  16.576  39.265   9.543
    2AU       S  583  16.977  40.316   8.169
    2AU     LIG  584  16.824  40.635   8.434
    2AU     LIG  585  16.579  40.620   8.812
    2AU     LIG  586  16.216  40.636   9.077
    2AU       S  587  16.971  39.063   8.443
    2AU     LIG  588  16.501  38.943   8.353
    2AU     LIG  589  16.197  38.593   8.292
    2AU     LIG  590  16.037  38.182   8.477
    2AU       S  591  17.280  39.423   8.630
    2AU     LIG  592  17.201  39.104   8.979
    2AU     LIG  593  17.082  39.001   9.423
    2AU     LIG  594  17.004  39.213   9.827
    2AU       S  595  17.142  39.400   6.395
    2AU     LIG  596  16.988  39.143   6.064
    2AU     LIG  597  16.956  39.182   5.615
    2AU     LIG  598  16.996  39.562   5.402
    2AU       S  599  16.978  38.730   6.849
    2AU     LIG  600  16.736  38.381   6.699
    2AU     LIG  601  16.500  38.216   6.355
    2AU     LIG  602  16.256  38.123   5.960
    2AU       S  603  16.934  39.926   6.639
    2AU     LIG  604  16.590  40.211   6.594
    2AU     LIG  605  16.423  40.477   6.254
    2AU     LIG  606  16.362  40.839   5.944
    2AU       S  607  17.315  39.659   6.421
    2AU     LIG  608  17.091  39.760   6.047
    2AU     LIG  609  17.230  39.930   5.665
    2AU     LIG  610  17.452  39.776   5.293
    2AU       S  611  18.581  40.193   6.978
    2AU     LIG  612  19.016  40.294   6.849
    2AU     LIG  613  19.162  40.477   6.443
    2AU     LIG  614  19.296  40.427   5.998
    2AU       S  615  18.681  40.181   7.464
    2AU     LIG  616  19.109  40.404   7.457
    2AU     LIG  617  19.568  40.292   7.565
    2AU     LIG  618  20.028  40.389   7.501
    2AU       S  619  18.894  39.937   7.394
    2AU     LIG  620  19.315  40.025   7.193
    2AU     LIG  621  19.749  40.185   7.093
    2AU     LIG  622  20.116  40.476   7.007
    2AU       S  623  18.787  38.899   7.686
    2AU     LIG  624  19.137  38.760   7.881
    2AU     LIG  625  19.558  38.788   7.782
    2AU     LIG  626  19.950  38.725   7.622
    2AU       S  627  18.566  40.239   7.997
    2AU     LIG  628  18.905  40.424   8.270
    2AU     LIG  629  18.965  40.813   8.541
    2AU     LIG  630  18.988  41.107   8.889
    2AU       S  631  18.845  40.049   7.627
    2AU     LIG  632  19.245  39.925   7.791
    2AU     LIG  633  19.670  39.798   7.917
    2AU     LIG  634  20.035  40.084   7.952
    2AU       S  635  16.834  40.054   8.179
    2AU     LIG  636  16.565  40.195   8.515
    2AU     LIG  637  16.151  40.401   8.559
    2AU     LIG  638  15.933  40.794   8.669
    2AU       S  639  16.995  40.486   7.391
    2AU     LIG  640  16.731  40.843   7.367
    2AU     LIG  641  16.482  40.869   6.988
    2AU     LIG  642  16.249  40.572   6.739
    2AU       S  643  16.537  39.732   6.926
    2AU     LIG  644  16.131  39.541   6.973
    2AU     LIG  645  15.866  39.864   7.076
    2AU     LIG  646  15.912  40.303   7.252
    2AU       S  647  17.022  40.374   6.864
    2AU     LIG  648  16.811  40.686   6.619
    2AU     LIG  649  16.506  40.944   6.445
    2AU     LIG  650  16.268  41.277   6.263
    2AU       S  651  16.466  39.170   7.536
    2AU     LIG  652  16.081  39.446   7.487
    2AU     LIG  653  15.686  39.421   7.292
    2AU     LIG  654  15.503  39.035   7.153
    2AU       S  655  16.533  39.691   7.943
    2AU     LIG  656  16.255  40.007   8.157
    2AU     LIG  657  15.811  40.120   8.117
    2AU     LIG  658  15.570  40.164   7.725
    2AU       S  659  18.532  38.711   7.602
    2AU     LIG  660  18.796  38.310   7.593
    2AU     LIG  661  19.222  38.242   7.733
    2AU     LIG  662  19.627  38.338   7.498
    2AU       S  663  18.501  38.793   8.103
    2AU     LIG  664  18.781  38.443   8.080
    2AU     LIG  665  18.889  38.148   8.421
    2AU     LIG  666  18.861  38.069   8.893
    2AU       S  667  18.745  38.799   7.462
    2AU     LIG  668  19.172  38.631   7.385
    2AU     LIG  669  19.596  38.799   7.249
    2AU     LIG  670  19.950  38.590   7.028
    2AU       S  671  18.474  38.699   7.063
    2AU     LIG  672  18.546  38.266   6.860
    2AU     LIG  673  18.510  37.785   6.892
    2AU     LIG  674  18.341  37.382   6.696
    2AU       S  675  16.834  38.843   6.965
    2AU     LIG  676  16.501  38.822   6.623
    2AU     LIG  677  16.214  38.636   6.302
    2AU     LIG  678  15.946  38.564   5.939
    2AU       S  679  16.607  38.925   7.522
    2AU     LIG  680  16.264  38.772   7.777
    2AU     LIG  681  15.889  38.942   7.577
    2AU     LIG  682  15.489  38.753   7.636
    2AU       S  683  16.988  38.804   8.328
    2AU     LIG  684  16.690  38.502   8.120
    2AU     LIG  685  16.431  38.138   8.143
    2AU     LIG  686  16.349  37.767   8.402
    2AU       S  687  16.491  39.234   7.703
    2AU     LIG  688  16.146  39.255   7.970
    2AU     LIG  689  15.746  39.068   8.045
    2AU     LIG  690  15.603  38.644   8.130
    2AU       S  691  16.974  40.485   7.887
    2AU     LIG  692  16.603  40.786   7.987
    2AU     LIG  693  16.355  40.842   8.388
    2AU     LIG  694  16.352  41.076   8.802
    2AU       S  695  17.843  40.767   7.922
    2AU     LIG  696  18.019  41.072   8.182
    2AU     LIG  697  17.803  41.418   8.367
    2AU     LIG  698  17.463  41.720   8.265
    2AU       S  699  17.847  40.952   7.668
    2AU     LIG  700  17.429  41.109   7.770
    2AU     LIG  701  17.324  41.547   7.791
    2AU     LIG  702  17.664  41.868   7.798
    2AU       S  703  17.813  40.710   7.216
    2AU     LIG  704  17.577  41.148   7.270
    2AU     LIG  705  17.476  41.596   7.295
    2AU     LIG  706  17.732  41.940   7.150
    2AU       S  707  18.390  40.192   8.310
    2AU     LIG  708  18.504  40.563   8.543
    2AU     LIG  709  18.580  40.778   8.928
    2AU     LIG  710  18.780  40.686   9.332
    2AU       S  711  18.083  40.709   7.633
    2AU     LIG  712  18.289  41.155   7.743
    2AU     LIG  713  18.063  41.536   7.926
    2AU     LIG  714  17.971  41.890   8.243
    2AU       S  715  17.847  38.397   8.070
    2AU     LIG  716  17.997  37.982   8.162
    2AU     LIG  717  17.933  37.630   8.448
    2AU     LIG  718  17.677  37.222   8.535
    2AU       S  719  18.276  38.656   8.024
    2AU     LIG  720  18.343  38.299   7.820
    2AU     LIG  721  18.432  37.935   7.854
    2AU     LIG  722  18.827  37.928   7.961
    2AU       S  723  17.645  38.297   7.897
    2AU     LIG  724  17.462  37.892   7.816
    2AU     LIG  725  17.172  37.621   8.030
    2AU     LIG  726  17.167  37.198   8.166
    2AU       S  727  17.231  38.943   8.504
    2AU     LIG  728  16.860  38.703   8.785
    2AU     LIG  729  16.560  38.325   8.639
    2AU     LIG  730  16.308  37.975   8.879
    2AU       S  731  17.717  38.308   7.365
    2AU     LIG  732  17.543  37.901   7.305
    2AU     LIG  733  17.391  37.601   7.013
    2AU     LIG  734  17.563  37.176   7.015
    2AU       S  735  17.876  38.411   7.818
    2AU     LIG  736  17.966  38.000   7.647
    2AU     LIG  737  17.940  37.645   7.793
    2AU     LIG  738  17.653  37.449   8.065
    2AU       S  739  17.669  40.700   7.001
    2AU     LIG  740  17.618  41.075   6.770
    2AU     LIG  741  17.739  41.513   6.841
    2AU     LIG  742  17.902  41.935   6.674
    2AU       S  743  18.399  40.386   7.110
    2AU     LIG  744  18.784  40.645   7.136
    2AU     LIG  745  19.064  40.813   6.828
    2AU     LIG  746  18.995  40.985   6.440
    2AU       S  747  17.431  40.671   7.182
    2AU     LIG  748  17.152  40.941   6.986
    2AU     LIG  749  17.219  41.389   6.890
    2AU     LIG  750  17.332  41.832   6.822
    2AU       S  751  17.131  40.107   6.593
    2AU     LIG  752  16.928  40.239   6.208
    2AU     LIG  753  16.840  40.628   5.998
    2AU     LIG  754  16.807  41.082   6.004
    2AU       S  755  16.893  38.662   7.185
    2AU     LIG  756  16.412  38.627   7.103
    2AU     LIG  757  16.175  38.387   6.762
    2AU     LIG  758  15.985  38.170   6.388
    2AU       S  759  17.833  38.302   7.174
    2AU     LIG  760  18.070  38.037   6.904
    2AU     LIG  761  17.974  37.716   6.569
    2AU     LIG  762  17.604  37.426   6.570
    2AU       S  763  18.071  38.410   7.367
    2AU     LIG  764  18.382  38.104   7.337
    2AU     LIG  765  18.209  37.711   7.318
    2AU     LIG  766  17.904  37.558   7.037
    2AU       S  767  18.397  38.804   6.763
    2AU     LIG  768  18.353  38.521   6.445
    2AU     LIG  769  18.293  38.088   6.430
    2AU     LIG  770  18.541  37.716   6.379
    3AU     AUC  771  10.576  17.647   7.531
    3AU     AUC  772  10.826  17.639   7.365
    3AU     AUC  773  10.832  17.651   7.687
    3AU     AUC  774  10.312  17.634   7.381
    3AU     AUC  775  10.322  17.667   7.698
    3AU     AUC  776  10.426  17.903   7.513
    3AU     AUC  777  10.743  17.903   7.510
    3AU     AUC  778  10.417  17.390   7.554
    3AU     AUC  779  10.732  17.388   7.541
    3AU     AUC  780  10.577  17.507   7.800
    3AU     AUC  781  10.590  17.827   7.778
    3AU     AUC  782  10.569  17.470   7.282
    3AU     AUC  783  10.569  17.786   7.261
    3AU     AUC  784  11.079  17.644   7.201
    3AU     AUC  785  11.083  17.640   7.524
    3AU     AUC  786  11.086  17.638   7.848
    3AU     AUC  787  10.052  17.613   7.233
    3AU     AUC  788  10.054  17.660   7.551
    3AU     AUC  789  10.075  17.699   7.866
    3AU     AUC  790  10.273  18.158   7.485
    3AU     AUC  791  10.612  18.161   7.476
    3AU     AUC  792  10.927  18.160   7.485
    3AU     AUC  793  10.258  17.135   7.578
    3AU     AUC  794  10.585  17.128   7.553
    3AU     AUC  795  10.902  17.130   7.551
    3AU     AUC  796  10.578  17.364   8.069
    3AU     AUC  797  10.583  17.690   8.062
    3AU     AUC  798  10.612  18.010   8.024
    3AU     AUC  799  10.576  17.295   7.033
    3AU     AUC  800  10.552  17.605   7.008
    3AU     AUC  801  10.556  17.919   6.991
    3AU     AUC  802  10.829  17.497   7.963
    3AU     AUC  803  10.857  17.821   7.943
    3AU     AUC  804  10.836  17.476   7.104
    3AU     AUC  805  10.818  17.790   7.089
    3AU     AUC  806  10.325  17.534   7.975
    3AU     AUC  807  10.331  17.859   7.949
    3AU     AUC  808  10.303  17.437   7.135
    3AU     AUC  809  10.293  17.763   7.104
    3AU     AUC  810  11.003  17.896   7.347
    3AU     AUC  811  11.005  17.913   7.673
    3AU     AUC  812  10.150  17.904   7.349
    3AU     AUC  813  10.164  17.943   7.677
    3AU     AUC  814  10.984  17.372   7.370
    3AU     AUC  815  10.992  17.382   7.701
    3AU     AUC  816  10.147  17.369   7.416
    3AU     AUC  817  10.152  17.401   7.730
    3AU     AUC  818  10.442  18.084   7.771
    3AU     AUC  819  10.782  18.085   7.757
    3AU     AUC  820  10.418  17.245   7.826
    3AU     AUC  821  10.737  17.234   7.812
    3AU     AUC  822  10.408  18.049   7.239
    3AU     AUC  823  10.746  18.054   7.235
    3AU     AUC  824  10.415  17.199   7.302
    3AU     AUC  825  10.750  17.216   7.282
    3AU    AUSL  826  10.999  17.604   8.159
    3AU    AUSL  827  10.884  17.255   8.144
    3AU     AUL  828  11.267  17.415   8.284
    3AU    AUSL  829  10.684  17.515   8.291
    3AU    AUSL  830  10.464  17.873   8.279
    3AU     AUL  831  10.729  17.790   8.568
    3AU    AUSL  832  10.800  17.895   8.235
    3AU    AUSL  833  11.165  17.882   8.015
    3AU     AUL  834  11.128  17.806   8.413
    3AU    AUSL  835  10.984  17.685   6.891
    3AU    AUSL  836  10.872  18.033   6.906
    3AU     AUL  837  11.256  17.819   6.764
    3AU    AUSL  838  10.763  17.440   6.802
    3AU    AUSL  839  11.155  17.405   7.035
    3AU     AUL  840  11.116  17.429   6.658
    3AU    AUSL  841  10.644  17.754   6.774
    3AU    AUSL  842  10.415  17.410   6.814
    3AU     AUL  843  10.628  17.302   6.570
    3AU    AUSL  844  10.144  17.804   8.164
    3AU    AUSL  845  10.327  18.141   8.053
    3AU     AUL  846  10.281  18.154   8.387
    3AU    AUSL  847  10.335  17.536   8.261
    3AU    AUSL  848  10.078  17.425   8.040
    3AU     AUL  849   9.877  17.606   8.202
    3AU    AUSL  850  10.106  17.497   6.932
    3AU    AUSL  851  10.273  17.144   7.026
    3AU     AUL  852  10.178  17.169   6.688
    3AU    AUSL  853  10.296  17.748   6.824
    3AU    AUSL  854  10.017  17.876   7.042
    3AU     AUL  855   9.844  17.605   6.900
    3AU    AUSL  856  11.240  18.075   7.428
    3AU    AUSL  857  11.144  17.918   7.102
    3AU     AUL  858  11.490  17.864   7.076
    3AU    AUSL  859  11.339  17.752   7.364
    3AU    AUSL  860  11.326  17.502   7.683
    3AU     AUL  861  11.651  17.597   7.531
    3AU    AUSL  862  11.220  17.835   7.676
    3AU    AUSL  863  11.127  18.179   7.752
    3AU     AUL  864  11.450  17.896   7.776
    3AU    AUSL  865   9.990  18.141   7.511
    3AU    AUSL  866  10.006  18.011   7.925
    3AU     AUL  867   9.682  18.161   7.695
    3AU    AUSL  868   9.850  17.825   7.329
    3AU    AUSL  869  10.117  18.194   7.189
    3AU     AUL  870   9.751  18.127   7.240
    3AU    AUSL  871   9.840  17.825   7.696
    3AU    AUSL  872   9.830  17.509   7.439
    3AU     AUL  873   9.541  17.788   7.481
    3AU    AUSL  874  11.201  17.188   7.604
    3AU    AUSL  875  11.143  17.356   7.941
    3AU     AUL  876  11.483  17.414   7.930
    3AU    AUSL  877  11.199  17.438   7.372
    3AU    AUSL  878  11.091  17.112   7.261
    3AU     AUL  879  11.433  17.369   7.279
    3AU    AUSL  880   9.928  17.205   7.562
    3AU    AUSL  881   9.991  17.303   7.186
    3AU     AUL  882   9.667  17.395   7.206
    3AU    AUSL  883   9.856  17.497   7.783
    3AU    AUSL  884  10.125  17.111   7.873
    3AU     AUL  885   9.827  17.191   7.932
    3AU    AUSL  886  10.628  18.318   7.938
    3AU    AUSL  887  10.177  18.292   7.768
    3AU     AUL  888  10.372  18.505   8.061
    3AU    AUSL  889  10.486  18.262   7.619
    3AU    AUSL  890  10.731  18.405   7.328
    3AU     AUL  891  10.474  18.573   7.629
    3AU    AUSL  892  10.841  18.380   7.648
    3AU    AUSL  893  10.913  18.131   8.026
    3AU     AUL  894  10.965  18.460   7.962
    3AU    AUSL  895  10.616  17.050   7.989
    3AU    AUSL  896  10.959  17.063   7.857
    3AU     AUL  897  10.747  16.977   8.268
    3AU    AUSL  898  10.387  16.942   7.746
    3AU    AUSL  899  10.349  17.213   8.141
    3AU     AUL  900  10.318  16.839   8.066
    3AU    AUSL  901  10.710  16.896   7.678
    3AU    AUSL  902  10.460  16.903   7.406
    3AU     AUL  903  10.270  16.696   7.594
    3AU    AUSL  904  10.589  18.208   7.072
    3AU    AUSL  905  10.998  18.220   7.208
    3AU     AUL  906  10.786  18.398   6.929
    3AU    AUSL  907  10.378  18.379   7.309
    3AU    AUSL  908  10.305  18.065   6.927
    3AU     AUL  909  10.362  18.391   6.923
    3AU    AUSL  910  10.586  17.006   7.096
    3AU    AUSL  911  10.139  17.023   7.346
    3AU     AUL  912  10.317  16.777   7.093
    3AU    AUSL  913  10.817  16.936   7.357
    3AU    AUSL  914  10.877  17.190   6.996
    3AU     AUL  915  10.862  16.888   6.968
    3AU       S  916  11.237  16.879   8.290
    3AU     LIG  917  11.251  16.395   8.321
    3AU     LIG  918  11.294  15.958   8.485
    3AU     LIG  919  11.544  15.640   8.733
    3AU       S  920  10.974  17.332   8.690
    3AU     LIG  921  11.177  17.490   9.086
    3AU     LIG  922  11.443  17.583   9.462
    3AU     LIG  923  11.501  17.724   9.901
    3AU       S  924  10.639  17.295   8.688
    3AU     LIG  925  10.698  17.278   9.166
    3AU     LIG  926  11.033  17.234   9.532
    3AU     LIG  927  11.294  17.223   9.941
    3AU       S  928  10.256  17.778   8.753
    3AU     LIG  929  10.144  17.680   9.196
    3AU     LIG  930   9.852  17.623   9.556
    3AU     LIG  931   9.661  17.576   9.995
    3AU       S  932  10.821  18.295   8.520
    3AU     LIG  933  11.084  18.521   8.810
    3AU     LIG  934  11.460  18.426   9.023
    3AU     LIG  935  11.724  18.062   9.124
    3AU       S  936  11.485  18.144   8.225
    3AU     LIG  937  11.714  18.237   8.612
    3AU     LIG  938  11.936  18.553   8.859
    3AU     LIG  939  12.111  18.972   9.012
    3AU       S  940  10.947  17.911   6.378
    3AU     LIG  941  11.083  17.940   5.943
    3AU     LIG  942  11.354  17.675   5.691
    3AU     LIG  943  11.312  17.344   5.395
    3AU       S  944  11.206  18.326   6.665
    3AU     LIG  945  11.428  18.679   6.445
    3AU     LIG  946  11.636  18.895   6.081
    3AU     LIG  947  12.042  19.009   5.897
    3AU       S  948  11.494  17.102   6.856
    3AU     LIG  949  11.745  17.111   6.474
    3AU     LIG  950  11.799  16.752   6.209
    3AU     LIG  951  11.754  16.318   6.357
    3AU       S  952  10.824  17.664   6.290
    3AU     LIG  953  10.915  17.445   5.899
    3AU     LIG  954  10.825  17.213   5.512
    3AU     LIG  955  10.982  17.092   5.082
    3AU       S  956  10.259  17.566   6.336
    3AU     LIG  957  10.203  17.450   5.916
    3AU     LIG  958  10.328  17.390   5.499
    3AU     LIG  959  10.295  17.191   5.068
    3AU       S  960  10.657  17.895   6.401
    3AU     LIG  961  10.508  17.860   5.955
    3AU     LIG  962  10.741  17.794   5.572
    3AU     LIG  963  11.097  17.800   5.256
    3AU       S  964   9.998  17.805   8.644
    3AU     LIG  965   9.740  17.548   8.893
    3AU     LIG  966   9.688  17.255   9.221
    3AU     LIG  967   9.656  17.151   9.674
    3AU       S  968   9.881  18.437   8.208
    3AU     LIG  969   9.664  18.606   8.565
    3AU     LIG  970   9.360  18.497   8.887
    3AU     LIG  971   8.993  18.640   9.167
    3AU       S  972   9.893  17.170   8.461
    3AU     LIG  973   9.416  17.140   8.336
    3AU     LIG  974   9.081  16.832   8.225
    3AU     LIG  975   9.020  16.417   8.433
    3AU       S  976  10.196  17.533   8.648
    3AU     LIG  977  10.158  17.223   8.983
    3AU     LIG  978  10.149  17.194   9.448
    3AU     LIG  979  10.095  17.310   9.901
    3AU       S  980   9.979  17.571   6.417
    3AU     LIG  981   9.798  17.237   6.142
    3AU     LIG  982   9.807  17.199   5.667
    3AU     LIG  983   9.869  17.427   5.262
    3AU       S  984   9.854  16.820   6.901
    3AU     LIG  985   9.782  16.513   6.567
    3AU     LIG  986   9.574  16.497   6.147
    3AU     LIG  987   9.217  16.247   5.978
    3AU       S  988   9.779  18.059   6.695
    3AU     LIG  989   9.403  18.322   6.687
    3AU     LIG  990   9.234  18.643   6.397
    3AU     LIG  991   9.211  18.766   5.978
    3AU       S  992  10.166  17.819   6.447
    3AU     LIG  993   9.980  17.916   6.045
    3AU     LIG  994  10.012  17.814   5.605
    3AU     LIG  995  10.316  17.875   5.281
    3AU       S  996  11.402  18.319   6.876
    3AU     LIG  997  11.774  18.331   6.600
    3AU     LIG  998  11.958  18.493   6.206
    3AU     LIG  999  12.358  18.636   6.025
    3AU       S 1000  11.551  18.330   7.386
    3AU     LIG 1001  11.955  18.593   7.329
    3AU     LIG 1002  12.303  18.638   7.623
    3AU     LIG 1003  12.677  18.634   7.884
    3AU       S 1004  11.789  18.096   7.405
    3AU     LIG 1005  12.258  18.154   7.410
    3AU     LIG 1006  12.681  18.341   7.410
    3AU     LIG 1007  13.015  18.522   7.111
    3AU       S 1008  11.697  17.046   7.670
    3AU     LIG 1009  12.042  16.812   7.860
    3AU     LIG 1010  12.501  16.891   7.889
    3AU     LIG 1011  12.883  16.658   7.745
    3AU       S 1012  11.466  18.377   8.027
    3AU     LIG 1013  11.851  18.566   8.226
    3AU     LIG 1014  11.948  18.946   8.510
    3AU     LIG 1015  11.859  19.346   8.752
    3AU       S 1016  11.693  18.276   7.604
    3AU     LIG 1017  12.057  18.236   7.875
    3AU     LIG 1018  12.518  18.135   7.878
    3AU     LIG 1019  12.979  18.207   7.965
    3AU       S 1020   9.734  18.172   8.223
    3AU     LIG 1021   9.298  18.304   8.361
    3AU     LIG 1022   8.915  18.476   8.618
    3AU     LIG 1023   8.610  18.823   8.751
    3AU       S 1024   9.872  18.616   7.432
    3AU     LIG 1025   9.823  19.074   7.332
    3AU     LIG 1026   9.436  19.151   7.099
    3AU     LIG 1027   9.278  18.774   6.897
    3AU       S 1028   9.393  17.854   6.989
    3AU     LIG 1029   8.937  17.817   6.842
    3AU     LIG 1030   8.639  18.123   6.918
    3AU     LIG 1031   8.828  18.368   7.268
    3AU       S 1032   9.869  18.503   6.917
    3AU     LIG 1033   9.728  18.725   6.571
    3AU     LIG 1034   9.499  19.072   6.515
    3AU     LIG 1035   9.227  19.222   6.204
    3AU       S 1036   9.372  17.287   7.597
    3AU     LIG 1037   8.955  17.462   7.499
    3AU     LIG 1038   8.703  17.432   7.123
    3AU     LIG 1039   8.349  17.147   7.117
    3AU       S 1040   9.427  17.800   7.994
    3AU     LIG 1041   8.973  17.886   8.136
    3AU     LIG 1042   8.837  18.319   8.133
    3AU     LIG 1043   9.147  18.602   7.926
    3AU       S 1044  11.445  16.871   7.581
    3AU     LIG 1045  11.610  16.481   7.456
    3AU     LIG 1046  11.979  16.332   7.663
    3AU     LIG 1047  12.171  16.324   8.068
    3AU       S 1048  11.421  16.926   8.083
    3AU     LIG 1049  11.663  16.524   8.032
    3AU     LIG 1050  11.735  16.186   8.345
    3AU     LIG 1051  11.679  16.134   8.814
    3AU       S 1052  11.666  16.979   7.440
    3AU     LIG 1053  12.026  16.735   7.324
    3AU     LIG 1054  12.463  16.743   7.408
    3AU     LIG 1055  12.866  16.840   7.236
    3AU       S 1056  11.371  16.856   7.070
    3AU     LIG 1057  11.536  16.458   6.929
    3AU     LIG 1058  11.468  16.069   6.708
    3AU     LIG 1059  11.450  15.626   6.609
    3AU       S 1060   9.695  16.934   7.020
    3AU     LIG 1061   9.395  16.836   6.641
    3AU     LIG 1062   9.086  16.708   6.293
    3AU     LIG 1063   8.801  16.325   6.260
    3AU       S 1064   9.496  17.042   7.580
    3AU     LIG 1065   9.071  16.898   7.703
    3AU     LIG 1066   8.738  16.991   7.417
    3AU     LIG 1067   8.621  16.671   7.100
    3AU       S 1068   9.899  16.915   8.336
    3AU     LIG 1069   9.565  16.720   8.058
    3AU     LIG 1070   9.328  16.395   8.020
    3AU     LIG 1071   9.354  16.058   8.284
    3AU       S 1072   9.390  17.344   7.766
    3AU     LIG 1073   9.035  17.355   8.005
    3AU     LIG 1074   8.659  17.165   7.909
    3AU     LIG 1075   8.368  16.990   8.179
    3AU       S 1076   9.888  18.597   7.923
    3AU     LIG 1077   9.568  18.853   8.110
    3AU     LIG 1078   9.229  18.818   8.383
    3AU     LIG 1079   9.117  18.927   8.776
    3AU       S 1080  10.716  18.891   7.960
    3AU     LIG 1081  10.834  19.296   8.139
    3AU     LIG 1082  10.635  19.663   8.326
    3AU     LIG 1083  10.382  20.027   8.406
    3AU       S 1084  10.641  19.083   7.703
    3AU     LIG 1085  10.334  19.236   8.015
    3AU     LIG 1086  10.150  19.620   8.133
    3AU     LIG 1087  10.274  19.946   7.900
    3AU       S 1088  10.695  18.842   7.234
    3AU     LIG 1089  10.567  19.320   7.256
    3AU     LIG 1090  10.758  19.727   7.100
    3AU     LIG 1091  10.976  19.965   6.776
    3AU       S 1092  11.285  18.323   8.324
    3AU     LIG 1093  11.475  18.693   8.535
    3AU     LIG 1094  11.584  18.919   8.908
    3AU     LIG 1095  11.734  18.771   9.318
    3AU       S 1096  10.926  18.876   7.664
    3AU     LIG 1097  11.024  19.380   7.656
    3AU     LIG 1098  10.727  19.715   7.826
    3AU     LIG 1099  10.721  20.163   8.030
    3AU       S 1100  10.770  16.523   8.053
    3AU     LIG 1101  10.866  16.101   8.158
    3AU     LIG 1102  10.785  15.909   8.558
    3AU     LIG 1103  10.671  15.518   8.762
    3AU       S 1104  11.199  16.774   7.991
    3AU     LIG 1105  11.263  16.331   7.802
    3AU     LIG 1106  11.307  15.899   7.958
    3AU     LIG 1107  11.533  15.588   8.222
    3AU       S 1108  10.575  16.425   7.882
    3AU     LIG 1109  10.396  16.027   7.860
    3AU     LIG 1110  10.136  15.702   8.041
    3AU     LIG 1111  10.289  15.449   8.404
    3AU       S 1112  10.164  17.057   8.510
    3AU     LIG 1113   9.875  16.780   8.803
    3AU     LIG 1114   9.565  16.459   8.600
    3AU     LIG 1115   9.289  16.135   8.786
    3AU       S 1116  10.647  16.441   7.350
    3AU     LIG 1117  10.395  16.087   7.324
    3AU     LIG 1118  10.462  15.762   7.035
    3AU     LIG 1119  10.556  15.358   6.950
    3AU       S 1120  10.811  16.527   7.801
    3AU     LIG 1121  10.860  16.079   7.618
    3AU     LIG 1122  10.820  15.711   7.837
    3AU     LIG 1123  10.803  15.514   8.243
    3AU       S 1124  10.548  18.837   7.029
    3AU     LIG 1125  10.658  19.182   6.773
    3AU     LIG 1126  10.760  19.563   6.578
    3AU     LIG 1127  10.726  19.962   6.342
    3AU       S 1128  11.277  18.504   7.015
    3AU     LIG 1129  11.673  18.748   6.900
    3AU     LIG 1130  11.928  18.899   6.525
    3AU     LIG 1131  12.332  19.064   6.330
    3AU       S 1132  10.310  18.826   7.216
    3AU     LIG 1133  10.159  19.170   6.942
    3AU     LIG 1134  10.296  19.594   6.819
    3AU     LIG 1135  10.457  20.026   6.780
    3AU       S 1136   9.968  18.248   6.640
    3AU     LIG 1137   9.704  18.304   6.265
    3AU     LIG 1138   9.702  18.625   5.987
    3AU     LIG 1139   9.679  19.056   6.011
    3AU       S 1140   9.795  16.778   7.240
    3AU     LIG 1141   9.323  16.662   7.252
    3AU     LIG 1142   9.090  16.468   6.908
    3AU     LIG 1143   9.288  16.319   6.520
    3AU       S 1144  10.739  16.439   7.129
    3AU     LIG 1145  11.026  16.320   6.764
    3AU     LIG 1146  11.012  15.900   6.523
    3AU     LIG 1147  10.717  15.524   6.464
    3AU       S 1148  10.983  16.549   7.346
    3AU     LIG 1149  11.210  16.203   7.254
    3AU     LIG 1150  10.966  15.909   7.053
    3AU     LIG 1151  11.026  15.517   6.865
    3AU       S 1152  11.312  16.941   6.773
    3AU     LIG 1153  11.353  16.636   6.472
    3AU     LIG 1154  11.255  16.264   6.250
    3AU     LIG 1155  11.481  15.881   6.168
    4AU     AUC 1156  44.864  10.908   7.525
    4AU     AUC 1157   0.115  10.891   7.359
    4AU     AUC 1158   0.122  10.908   7.681
    4AU     AUC 1159  44.600  10.901   7.375
    4AU     AUC 1160  44.612  10.938   7.692
    4AU     AUC 1161  44.721  11.168   7.502
    4AU     AUC 1162   0.039  11.159   7.499
    4AU     AUC 1163  44.697  10.657   7.554
    4AU     AUC 1164   0.013  10.645   7.540
    4AU     AUC 1165  44.862  10.773   7.797
    4AU     AUC 1166  44.884  11.091   7.769
    4AU     AUC 1167  44.853  10.728   7.280
    4AU     AUC 1168  44.861  11.043   7.253
    4AU     AUC 1169   0.368  10.887   7.194
    4AU     AUC 1170   0.373  10.885   7.517
    4AU     AUC 1171   0.378  10.890   7.840
    4AU     AUC 1172  44.340  10.883   7.225
    4AU     AUC 1173  44.343  10.936   7.545
    4AU     AUC 1174  44.367  10.982   7.862
    4AU     AUC 1175  44.575  11.428   7.467
    4AU     AUC 1176  44.913  11.421   7.461
    4AU     AUC 1177   0.226  11.411   7.471
    4AU     AUC 1178  44.528  10.407   7.584
    4AU     AUC 1179  44.858  10.390   7.559
    4AU     AUC 1180   0.174  10.382   7.554
    4AU     AUC 1181  44.860  10.636   8.069
    4AU     AUC 1182  44.875  10.961   8.055
    4AU     AUC 1183  44.913  11.278   8.011
    4AU     AUC 1184  44.858  10.550   7.034
    4AU     AUC 1185  44.843  10.861   7.004
    4AU     AUC 1186  44.852  11.173   6.982
    4AU     AUC 1187   0.116  10.759   7.959
    4AU     AUC 1188   0.152  11.080   7.934
    4AU     AUC 1189   0.122  10.725   7.101
    4AU     AUC 1190   0.111  11.041   7.082
    4AU     AUC 1191  44.611  10.811   7.971
    4AU     AUC 1192  44.629  11.136   7.939
    4AU     AUC 1193  44.587  10.700   7.132
    4AU     AUC 1194  44.585  11.023   7.094
    4AU     AUC 1195   0.298  11.144   7.338
    4AU     AUC 1196   0.302  11.164   7.662
    4AU     AUC 1197  44.446  11.173   7.337
    4AU     AUC 1198  44.462  11.220   7.665
    4AU     AUC 1199   0.266  10.620   7.367
    4AU     AUC 1200   0.274  10.635   7.698
    4AU     AUC 1201  44.424  10.642   7.416
    4AU     AUC 1202  44.432  10.678   7.730
    4AU     AUC 1203  44.742  11.354   7.755
    4AU     AUC 1204   0.081  11.343   7.742
    4AU     AUC 1205  44.694  10.517   7.828
    4AU     AUC 1206   0.014  10.497   7.814
    4AU     AUC 1207  44.706  11.310   7.225
    4AU     AUC 1208   0.044  11.308   7.224
    4AU     AUC 1209  44.689  10.463   7.306
    4AU     AUC 1210   0.026  10.468   7.284
    4AU    AUSL 1211   0.292  10.863   8.153
    4AU    AUSL 1212   0.164  10.520   8.146
    4AU     AUL 1213   0.552  10.663   8.281
    4AU    AUSL 1214  44.972  10.789   8.287
    4AU    AUSL 1215  44.765  11.152   8.266
    4AU     AUL 1216   0.021  11.070   8.561
    4AU    AUSL 1217   0.103  11.159   8.226
    4AU    AUSL 1218   0.463  11.134   8.001
    4AU     AUL 1219   0.434  11.069   8.399
    4AU    AUSL 1220   0.279  10.934   6.887
    4AU    AUSL 1221   0.171  11.285   6.897
    4AU     AUL 1222   0.548  11.078   6.751
    4AU    AUSL 1223   0.056  10.692   6.799
    4AU    AUSL 1224   0.434  10.643   7.030
    4AU     AUL 1225   0.410  10.693   6.650
    4AU    AUSL 1226  44.939  11.007   6.768
    4AU    AUSL 1227  44.710  10.667   6.814
    4AU     AUL 1228  44.922  10.556   6.567
    4AU    AUSL 1229  44.444  11.092   8.156
    4AU    AUSL 1230  44.632  11.423   8.035
    4AU     AUL 1231  44.613  11.449   8.367
    4AU    AUSL 1232  44.624  10.818   8.258
    4AU    AUSL 1233  44.360  10.708   8.039
    4AU     AUL 1234  44.173  10.895   8.203
    4AU    AUSL 1235  44.396  10.751   6.918
    4AU    AUSL 1236  44.550  10.407   7.029
    4AU     AUL 1237  44.503  10.414   6.680
    4AU    AUSL 1238  44.590  11.003   6.817
    4AU    AUSL 1239  44.312  11.143   7.030
    4AU     AUL 1240  44.138  10.879   6.893
    4AU    AUSL 1241   0.539  11.318   7.417
    4AU    AUSL 1242   0.440  11.165   7.095
    4AU     AUL 1243   0.780  11.097   7.062
    4AU    AUSL 1244   0.628  10.990   7.351
    4AU    AUSL 1245   0.615  10.743   7.675
    4AU     AUL 1246   0.942  10.836   7.511
    4AU    AUSL 1247   0.518  11.077   7.665
    4AU    AUSL 1248   0.426  11.428   7.737
    4AU     AUL 1249   0.747  11.138   7.762
    4AU    AUSL 1250  44.292  11.418   7.491
    4AU    AUSL 1251  44.312  11.300   7.914
    4AU     AUL 1252  43.995  11.459   7.681
    4AU    AUSL 1253  44.146  11.102   7.320
    4AU    AUSL 1254  44.420  11.461   7.169
    4AU     AUL 1255  44.051  11.403   7.215
    4AU    AUSL 1256  44.142  11.113   7.691
    4AU    AUSL 1257  44.108  10.792   7.438
    4AU     AUL 1258  43.844  11.110   7.487
    4AU    AUSL 1259   0.473  10.432   7.605
    4AU    AUSL 1260   0.425  10.608   7.937
    4AU     AUL 1261   0.764  10.646   7.928
    4AU    AUSL 1262   0.487  10.676   7.365
    4AU    AUSL 1263   0.361  10.352   7.262
    4AU     AUL 1264   0.719  10.581   7.272
    4AU    AUSL 1265  44.197  10.483   7.571
    4AU    AUSL 1266  44.271  10.583   7.183
    4AU     AUL 1267  43.937  10.633   7.226
    4AU    AUSL 1268  44.140  10.785   7.784
    4AU    AUSL 1269  44.397  10.391   7.881
    4AU     AUL 1270  44.095  10.470   7.940
    4AU    AUSL 1271  44.934  11.581   7.917
    4AU    AUSL 1272  44.483  11.571   7.746
    4AU     AUL 1273  44.691  11.792   8.021
    4AU    AUSL 1274  44.792  11.530   7.599
    4AU    AUSL 1275   0.034  11.661   7.311
    4AU     AUL 1276  44.779  11.844   7.606
    4AU    AUSL 1277   0.150  11.634   7.629
    4AU    AUSL 1278   0.214  11.387   8.009
    4AU     AUL 1279   0.255  11.712   7.958
    4AU    AUSL 1280  44.888  10.321   7.996
    4AU    AUSL 1281   0.231  10.320   7.863
    4AU     AUL 1282   0.016  10.247   8.274
    4AU    AUSL 1283  44.654  10.212   7.757
    4AU    AUSL 1284  44.626  10.493   8.145
    4AU     AUL 1285  44.588  10.120   8.079
    4AU    AUSL 1286  44.976  10.155   7.691
    4AU    AUSL 1287  44.724  10.171   7.418
    4AU     AUL 1288  44.530   9.967   7.606
    4AU    AUSL 1289  44.891  11.461   7.059
    4AU    AUSL 1290   0.297  11.469   7.199
    4AU     AUL 1291   0.090  11.647   6.912
    4AU    AUSL 1292  44.683  11.643   7.288
    4AU    AUSL 1293  44.606  11.321   6.911
    4AU     AUL 1294  44.678  11.643   6.899
    4AU    AUSL 1295  44.856  10.260   7.106
    4AU    AUSL 1296  44.403  10.299   7.349
    4AU     AUL 1297  44.581  10.040   7.117
    4AU    AUSL 1298   0.083  10.186   7.370
    4AU    AUSL 1299   0.149  10.434   6.994
    4AU     AUL 1300   0.126  10.127   6.988
    4AU       S 1301   0.503  10.133   8.300
    4AU     LIG 1302   0.444   9.653   8.352
    4AU     LIG 1303   0.577   9.230   8.535
    4AU     LIG 1304   0.980   9.148   8.770
    4AU       S 1305   0.258  10.615   8.693
    4AU     LIG 1306   0.406  10.829   9.094
    4AU     LIG 1307   0.648  10.871   9.505
    4AU     LIG 1308   0.927  10.775   9.881
    4AU       S 1309  44.922  10.578   8.681
    4AU     LIG 1310  44.909  10.642   9.137
    4AU     LIG 1311   0.197  10.595   9.515
    4AU     LIG 1312   0.547  10.419   9.781
    4AU       S 1313  44.544  11.085   8.730
    4AU     LIG 1314  44.496  10.985   9.154
    4AU     LIG 1315  44.166  10.830   9.414
    4AU     LIG 1316  43.886  10.931   9.777
    4AU       S 1317   0.169  11.562   8.509
    4AU     LIG 1318   0.222  11.659   8.958
    4AU     LIG 1319   0.534  11.551   9.268
    4AU     LIG 1320   0.959  11.466   9.142
    4AU       S 1321   0.796  11.400   8.199
    4AU     LIG 1322   1.005  11.520   8.605
    4AU     LIG 1323   1.175  11.853   8.866
    4AU     LIG 1324   1.470  12.212   8.911
    4AU       S 1325   0.237  11.155   6.363
    4AU     LIG 1326   0.377  11.216   5.926
    4AU     LIG 1327   0.596  10.976   5.597
    4AU     LIG 1328   0.673  10.565   5.380
    4AU       S 1329   0.526  11.587   6.681
    4AU     LIG 1330   0.639  11.988   6.502
    4AU     LIG 1331   0.849  12.204   6.158
    4AU     LIG 1332   1.237  12.293   5.933
    4AU       S 1333   0.753  10.326   6.831
    4AU     LIG 1334   0.955  10.011   6.522
    4AU     LIG 1335   0.930   9.571   6.368
    4AU     LIG 1336   1.026   9.110   6.447
    4AU       S 1337   0.102  10.919   6.278
    4AU     LIG 1338   0.282  10.700   5.926
    4AU     LIG 1339   0.170  10.493   5.529
    4AU     LIG 1340   0.251  10.374   5.092
    4AU       S 1341  44.551  10.815   6.329
    4AU     LIG 1342  44.518  10.821   5.888
    4AU     LIG 1343  44.658  10.659   5.486
    4AU     LIG 1344  44.498  10.747   5.070
    4AU       S 1345  44.946  11.155   6.395
    4AU     LIG 1346  44.848  11.202   5.941
    4AU     LIG 1347   0.051  10.994   5.580
    4AU     LIG 1348   0.296  10.877   5.188
    4AU       S 1349  44.293  11.131   8.625
    4AU     LIG 1350  44.041  10.879   8.883
    4AU     LIG 1351  43.884  10.530   9.087
    4AU     LIG 1352  43.756  10.506   9.520
    4AU       S 1353  44.207  11.740   8.192
    4AU     LIG 1354  43.834  11.962   8.358
    4AU     LIG 1355  43.681  11.934   8.800
    4AU     LIG 1356  43.517  11.844   9.241
    4AU       S 1357  44.175  10.466   8.470
    4AU     LIG 1358  43.708  10.343   8.466
    4AU     LIG 1359  43.424   9.964   8.451
    4AU     LIG 1360  43.185   9.720   8.768
    4AU       S 1361  44.487  10.829   8.648
    4AU     LIG 1362  44.401  10.514   8.992
    4AU     LIG 1363  44.257  10.323   9.395
    4AU     LIG 1364  44.246  10.507   9.827
    4AU       S 1365  44.270  10.805   6.413
    4AU     LIG 1366  44.156  10.453   6.129
    4AU     LIG 1367  44.181  10.485   5.670
    4AU     LIG 1368  44.198  10.901   5.473
    4AU       S 1369  44.147  10.081   6.874
    4AU     LIG 1370  43.980   9.801   6.553
    4AU     LIG 1371  43.852   9.914   6.115
    4AU     LIG 1372  43.535  10.067   5.805
    4AU       S 1373  44.071  11.331   6.671
    4AU     LIG 1374  43.749  11.682   6.670
    4AU     LIG 1375  43.676  12.034   6.387
    4AU     LIG 1376  43.619  12.122   5.945
    4AU       S 1377  44.459  11.058   6.445
    4AU     LIG 1378  44.261  11.235   6.109
    4AU     LIG 1379  44.383  11.336   5.696
    4AU     LIG 1380  44.633  11.175   5.359
    4AU       S 1381   0.720  11.574   6.901
    4AU     LIG 1382   1.042  11.682   6.599
    4AU     LIG 1383   1.196  11.824   6.204
    4AU     LIG 1384   1.598  11.935   6.062
    4AU       S 1385   0.838  11.580   7.402
    4AU     LIG 1386   1.108  11.958   7.394
    4AU     LIG 1387   1.534  12.067   7.495
    4AU     LIG 1388   1.852  11.788   7.638
    4AU       S 1389   1.072  11.352   7.374
    4AU     LIG 1390   1.499  11.550   7.330
    4AU     LIG 1391   1.929  11.337   7.388
    4AU     LIG 1392   2.303  11.134   7.168
    4AU       S 1393   0.968  10.283   7.654
    4AU     LIG 1394   1.243  10.039   7.900
    4AU     LIG 1395   1.699  10.045   7.958
    4AU     LIG 1396   1.966  10.271   7.636
    4AU       S 1397   0.759  11.635   7.968
    4AU     LIG 1398   1.113  11.826   8.162
    4AU     LIG 1399   1.177  12.167   8.458
    4AU     LIG 1400   0.975  12.341   8.845
    4AU       S 1401   1.021  11.493   7.583
    4AU     LIG 1402   1.419  11.490   7.831
    4AU     LIG 1403   1.883  11.364   7.904
    4AU     LIG 1404   2.272  11.635   7.921
    4AU       S 1405  44.079  11.484   8.205
    4AU     LIG 1406  43.781  11.475   8.497
    4AU     LIG 1407  43.375  11.651   8.442
    4AU     LIG 1408  43.196  11.790   8.810
    4AU       S 1409  44.179  11.893   7.405
    4AU     LIG 1410  43.971  12.218   7.165
    4AU     LIG 1411  43.652  12.155   6.885
    4AU     LIG 1412  43.268  11.925   6.733
    4AU       S 1413  43.685  11.102   6.999
    4AU     LIG 1414  43.259  10.887   6.973
    4AU     LIG 1415  42.898  11.148   6.980
    4AU     LIG 1416  43.013  11.551   7.207
    4AU       S 1417  44.193  11.775   6.893
    4AU     LIG 1418  44.125  12.132   6.644
    4AU     LIG 1419  43.879  12.501   6.579
    4AU     LIG 1420  43.573  12.521   6.259
    4AU       S 1421  43.624  10.647   7.616
    4AU     LIG 1422  43.179  10.747   7.471
    4AU     LIG 1423  42.809  10.639   7.204
    4AU     LIG 1424  42.578  10.372   6.890
    4AU       S 1425  43.753  11.141   8.016
    4AU     LIG 1426  43.433  11.132   8.362
    4AU     LIG 1427  43.059  11.276   8.189
    4AU     LIG 1428  43.136  11.361   7.743
    4AU       S 1429   0.697  10.076   7.587
    4AU     LIG 1430   0.983   9.672   7.635
    4AU     LIG 1431   1.436   9.596   7.737
    4AU     LIG 1432   1.752   9.819   7.515
    4AU       S 1433   0.695  10.160   8.084
    4AU     LIG 1434   0.921   9.726   8.150
    4AU     LIG 1435   1.312   9.453   8.239
    4AU     LIG 1436   1.471   9.104   8.566
    4AU       S 1437   0.887  10.159   7.453
    4AU     LIG 1438   1.277   9.971   7.342
    4AU     LIG 1439   1.645  10.174   7.178
    4AU     LIG 1440   2.085  10.114   7.162
    4AU       S 1441   0.639  10.094   7.040
    4AU     LIG 1442   0.813   9.695   6.911
    4AU     LIG 1443   0.617   9.330   6.691
    4AU     LIG 1444   0.500   8.978   6.409
    4AU       S 1445  44.015  10.244   6.933
    4AU     LIG 1446  43.766  10.256   6.540
    4AU     LIG 1447  43.409  10.047   6.336
    4AU     LIG 1448  43.059  10.102   6.037
    4AU       S 1449  43.708  10.386   7.630
    4AU     LIG 1450  43.280  10.375   7.866
    4AU     LIG 1451  42.911  10.338   7.623
    4AU     LIG 1452  42.853  10.048   7.256
    4AU       S 1453  44.175  10.202   8.351
    4AU     LIG 1454  43.815   9.982   8.098
    4AU     LIG 1455  43.549   9.599   8.075
    4AU     LIG 1456  43.448   9.408   8.451
    4AU       S 1457  43.674  10.694   7.795
    4AU     LIG 1458  43.308  10.901   7.930
    4AU     LIG 1459  42.920  10.765   7.986
    4AU     LIG 1460  42.657  10.416   8.082
    4AU       S 1461  44.206  11.900   7.898
    4AU     LIG 1462  43.847  12.205   7.854
    4AU     LIG 1463  43.433  12.102   8.039
    4AU     LIG 1464  43.332  12.165   8.480
    4AU       S 1465   0.059  12.161   7.905
    4AU     LIG 1466   0.012  12.492   8.201
    4AU     LIG 1467  44.711  12.687   8.487
    4AU     LIG 1468  44.476  13.073   8.568
    4AU       S 1469  44.994  12.338   7.683
    4AU     LIG 1470  44.669  12.696   7.719
    4AU     LIG 1471  44.455  13.037   7.976
    4AU     LIG 1472  44.583  13.413   8.216
    4AU       S 1473   0.012  12.091   7.203
    4AU     LIG 1474   0.024  12.560   7.249
    4AU     LIG 1475  44.968  12.993   7.257
    4AU     LIG 1476   0.273  13.290   7.052
    4AU       S 1477   0.616  11.578   8.272
    4AU     LIG 1478   0.712  11.928   8.524
    4AU     LIG 1479   0.677  11.934   8.960
    4AU     LIG 1480   0.932  11.958   9.334
    4AU       S 1481   0.273  12.092   7.615
    4AU     LIG 1482   0.441  12.532   7.591
    4AU     LIG 1483   0.156  12.801   7.816
    4AU     LIG 1484  44.934  13.013   8.169
    4AU       S 1485   0.022   9.781   8.081
    4AU     LIG 1486   0.102   9.308   8.172
    4AU     LIG 1487   0.103   8.866   8.381
    4AU     LIG 1488  44.973   8.479   8.680
    4AU       S 1489   0.457  10.038   8.012
    4AU     LIG 1490   0.529   9.645   7.836
    4AU     LIG 1491   0.633   9.277   8.037
    4AU     LIG 1492   1.002   9.054   8.270
    4AU       S 1493  44.826   9.692   7.905
    4AU     LIG 1494  44.684   9.291   7.835
    4AU     LIG 1495  44.710   8.900   8.026
    4AU     LIG 1496  44.689   8.532   8.264
    4AU       S 1497  44.430  10.347   8.520
    4AU     LIG 1498  44.081  10.119   8.831
    4AU     LIG 1499  43.753   9.752   8.794
    4AU     LIG 1500  43.652   9.295   8.917
    4AU       S 1501  44.901   9.689   7.380
    4AU     LIG 1502  44.776   9.273   7.324
    4AU     LIG 1503  44.769   8.966   7.004
    4AU     LIG 1504  44.753   8.628   6.702
    4AU       S 1505   0.062   9.788   7.830
    4AU     LIG 1506   0.171   9.342   7.667
    4AU     LIG 1507   0.218   8.912   7.857
    4AU     LIG 1508  44.961   8.523   7.790
    4AU       S 1509  44.855  12.096   6.993
    4AU     LIG 1510  44.866  12.500   6.775
    4AU     LIG 1511   0.140  12.877   6.770
    4AU     LIG 1512   0.294  13.295   6.549
    4AU       S 1513   0.576  11.767   7.026
    4AU     LIG 1514   0.940  12.073   6.913
    4AU     LIG 1515   1.227  12.223   6.540
    4AU     LIG 1516   1.593  12.409   6.281
    4AU       S 1517  44.622  12.081   7.181
    4AU     LIG 1518  44.404  12.434   6.996
    4AU     LIG 1519  44.534  12.863   6.972
    4AU     LIG 1520  44.786  13.239   6.825
    4AU       S 1521  44.281  11.505   6.620
    4AU     LIG 1522  44.082  11.703   6.277
    4AU     LIG 1523  44.120  12.056   6.019
    4AU     LIG 1524  44.037  12.485   6.070
    4AU       S 1525  44.054  10.071   7.197
    4AU     LIG 1526  43.678   9.846   6.985
    4AU     LIG 1527  43.476   9.633   6.636
    4AU     LIG 1528  43.716   9.438   6.277
    4AU       S 1529  44.969   9.688   7.139
    4AU     LIG 1530   0.107   9.375   6.796
    4AU     LIG 1531  44.989   9.050   6.472
    4AU     LIG 1532   0.009   8.606   6.264
    4AU       S 1533   0.222   9.791   7.369
    4AU     LIG 1534   0.426   9.484   7.187
    4AU     LIG 1535   0.232   9.092   7.209
    4AU     LIG 1536   0.254   8.847   6.849
    4AU       S 1537   0.545  10.187   6.740
    4AU     LIG 1538   0.454   9.793   6.551
    4AU     LIG 1539   0.430   9.463   6.236
    4AU     LIG 1540   0.742   9.198   6.007
    5AU     AUC 1541  27.010   5.012   7.518
    5AU     AUC 1542  27.260   4.997   7.352
    5AU     AUC 1543  27.266   5.010   7.674
    5AU     AUC 1544  26.746   5.004   7.367
    5AU     AUC 1545  26.757   5.040   7.684
    5AU     AUC 1546  26.864   5.272   7.496
    5AU     AUC 1547  27.181   5.264   7.495
    5AU     AUC 1548  26.845   4.759   7.544
    5AU     AUC 1549  27.160   4.749   7.530
    5AU     AUC 1550  27.009   4.875   7.788
    5AU     AUC 1551  27.027   5.194   7.763
    5AU     AUC 1552  27.000   4.833   7.271
    5AU     AUC 1553  27.006   5.150   7.247
    5AU     AUC 1554  27.515   4.996   7.186
    5AU     AUC 1555  27.517   4.990   7.509
    5AU     AUC 1556  27.521   4.991   7.833
    5AU     AUC 1557  26.488   4.986   7.215
    5AU     AUC 1558  26.489   5.037   7.536
    5AU     AUC 1559  26.512   5.082   7.852
    5AU     AUC 1560  26.715   5.530   7.463
    5AU     AUC 1561  27.053   5.526   7.461
    5AU     AUC 1562  27.368   5.514   7.473
    5AU     AUC 1563  26.680   4.505   7.573
    5AU     AUC 1564  27.005   4.491   7.547
    5AU     AUC 1565  27.320   4.485   7.541
    5AU     AUC 1566  27.008   4.737   8.058
    5AU     AUC 1567  27.020   5.062   8.048
    5AU     AUC 1568  27.054   5.380   8.006
    5AU     AUC 1569  27.007   4.658   7.023
    5AU     AUC 1570  26.991   4.969   6.997
    5AU     AUC 1571  26.997   5.282   6.978
    5AU     AUC 1572  27.261   4.860   7.950
    5AU     AUC 1573  27.295   5.182   7.928
    5AU     AUC 1574  27.269   4.835   7.092
    5AU     AUC 1575  27.258   5.151   7.077
    5AU     AUC 1576  26.760   4.913   7.963
    5AU     AUC 1577  26.771   5.237   7.931
    5AU     AUC 1578  26.736   4.806   7.123
    5AU     AUC 1579  26.732   5.128   7.086
    5AU     AUC 1580  27.442   5.250   7.335
    5AU     AUC 1581  27.445   5.267   7.659
    5AU     AUC 1582  26.588   5.275   7.329
    5AU     AUC 1583  26.603   5.319   7.657
    5AU     AUC 1584  27.411   4.726   7.356
    5AU     AUC 1585  27.419   4.737   7.687
    5AU     AUC 1586  26.576   4.742   7.406
    5AU     AUC 1587  26.583   4.779   7.721
    5AU     AUC 1588  26.882   5.457   7.751
    5AU     AUC 1589  27.222   5.446   7.741
    5AU     AUC 1590  26.844   4.617   7.818
    5AU     AUC 1591  27.161   4.597   7.803
    5AU     AUC 1592  26.848   5.416   7.222
    5AU     AUC 1593  27.186   5.415   7.223
    5AU     AUC 1594  26.837   4.566   7.295
    5AU     AUC 1595  27.172   4.574   7.273
    5AU    AUSL 1596  27.436   4.963   8.144
    5AU    AUSL 1597  27.311   4.619   8.134
    5AU     AUL 1598  27.702   4.777   8.266
    5AU    AUSL 1599  27.118   4.886   8.278
    5AU    AUSL 1600  26.910   5.258   8.260
    5AU     AUL 1601  27.170   5.161   8.554
    5AU    AUSL 1602  27.246   5.257   8.221
    5AU    AUSL 1603  27.604   5.238   7.998
    5AU     AUL 1604  27.578   5.167   8.394
    5AU    AUSL 1605  27.430   5.048   6.878
    5AU    AUSL 1606  27.315   5.399   6.898
    5AU     AUL 1607  27.688   5.219   6.739
    5AU    AUSL 1608  27.210   4.805   6.790
    5AU    AUSL 1609  27.577   4.750   7.019
    5AU     AUL 1610  27.571   4.807   6.643
    5AU    AUSL 1611  27.086   5.117   6.765
    5AU    AUSL 1612  26.863   4.778   6.807
    5AU     AUL 1613  27.074   4.656   6.570
    5AU    AUSL 1614  26.590   5.196   8.146
    5AU    AUSL 1615  26.768   5.524   8.024
    5AU     AUL 1616  26.758   5.560   8.350
    5AU    AUSL 1617  26.771   4.923   8.251
    5AU    AUSL 1618  26.514   4.814   8.033
    5AU     AUL 1619  26.317   4.999   8.190
    5AU    AUSL 1620  26.546   4.852   6.904
    5AU    AUSL 1621  26.699   4.516   7.017
    5AU     AUL 1622  26.677   4.514   6.668
    5AU    AUSL 1623  26.736   5.111   6.810
    5AU    AUSL 1624  26.460   5.248   7.022
    5AU     AUL 1625  26.282   4.985   6.890
    5AU    AUSL 1626  27.682   5.422   7.418
    5AU    AUSL 1627  27.585   5.276   7.094
    5AU     AUL 1628  27.919   5.204   7.054
    5AU    AUSL 1629  27.776   5.096   7.348
    5AU    AUSL 1630  27.757   4.844   7.665
    5AU     AUL 1631  28.087   4.928   7.506
    5AU    AUSL 1632  27.659   5.178   7.661
    5AU    AUSL 1633  27.571   5.529   7.738
    5AU     AUL 1634  27.884   5.233   7.769
    5AU    AUSL 1635  26.430   5.515   7.482
    5AU    AUSL 1636  26.446   5.393   7.903
    5AU     AUL 1637  26.127   5.546   7.668
    5AU    AUSL 1638  26.283   5.197   7.306
    5AU    AUSL 1639  26.564   5.566   7.163
    5AU     AUL 1640  26.198   5.507   7.203
    5AU    AUSL 1641  26.279   5.208   7.675
    5AU    AUSL 1642  26.268   4.886   7.434
    5AU     AUL 1643  25.976   5.157   7.470
    5AU    AUSL 1644  27.619   4.535   7.589
    5AU    AUSL 1645  27.571   4.709   7.927
    5AU     AUL 1646  27.915   4.752   7.908
    5AU    AUSL 1647  27.630   4.784   7.354
    5AU    AUSL 1648  27.504   4.460   7.247
    5AU     AUL 1649  27.859   4.700   7.256
    5AU    AUSL 1650  26.354   4.579   7.563
    5AU    AUSL 1651  26.417   4.690   7.171
    5AU     AUL 1652  26.080   4.757   7.228
    5AU    AUSL 1653  26.290   4.883   7.779
    5AU    AUSL 1654  26.556   4.494   7.874
    5AU     AUL 1655  26.270   4.576   7.933
    5AU    AUSL 1656  27.075   5.686   7.921
    5AU    AUSL 1657  26.614   5.669   7.738
    5AU     AUL 1658  26.815   5.897   8.003
    5AU    AUSL 1659  26.930   5.640   7.604
    5AU    AUSL 1660  27.174   5.767   7.315
    5AU     AUL 1661  26.931   5.957   7.613
    5AU    AUSL 1662  27.294   5.734   7.631
    5AU    AUSL 1663  27.354   5.489   8.008
    5AU     AUL 1664  27.406   5.809   7.959
    5AU    AUSL 1665  27.034   4.420   7.981
    5AU    AUSL 1666  27.378   4.421   7.848
    5AU     AUL 1667  27.161   4.345   8.258
    5AU    AUSL 1668  26.802   4.304   7.746
    5AU    AUSL 1669  26.779   4.595   8.139
    5AU     AUL 1670  26.734   4.218   8.074
    5AU    AUSL 1671  27.124   4.254   7.676
    5AU    AUSL 1672  26.871   4.270   7.405
    5AU     AUL 1673  26.682   4.060   7.588
    5AU    AUSL 1674  27.031   5.571   7.060
    5AU    AUSL 1675  27.438   5.577   7.204
    5AU     AUL 1676  27.228   5.756   6.912
    5AU    AUSL 1677  26.822   5.749   7.292
    5AU    AUSL 1678  26.753   5.430   6.904
    5AU     AUL 1679  26.814   5.756   6.902
    5AU    AUSL 1680  27.002   4.366   7.095
    5AU    AUSL 1681  26.554   4.402   7.333
    5AU     AUL 1682  26.729   4.140   7.098
    5AU    AUSL 1683  27.230   4.288   7.354
    5AU    AUSL 1684  27.293   4.542   6.980
    5AU     AUL 1685  27.263   4.238   6.964
    5AU       S 1686  27.652   4.251   8.293
    5AU     LIG 1687  27.624   3.784   8.340
    5AU     LIG 1688  27.852   3.395   8.264
    5AU     LIG 1689  28.173   3.230   8.559
    5AU       S 1690  27.406   4.697   8.674
    5AU     LIG 1691  27.570   4.935   9.042
    5AU     LIG 1692  27.826   4.990   9.414
    5AU     LIG 1693  27.946   4.782   9.805
    5AU       S 1694  27.066   4.672   8.674
    5AU     LIG 1695  27.090   4.747   9.137
    5AU     LIG 1696  27.414   4.659   9.495
    5AU     LIG 1697  27.676   4.321   9.716
    5AU       S 1698  26.694   5.204   8.722
    5AU     LIG 1699  26.666   5.112   9.150
    5AU     LIG 1700  26.325   4.942   9.395
    5AU     LIG 1701  26.017   5.024   9.732
    5AU       S 1702  27.300   5.658   8.509
    5AU     LIG 1703  27.505   5.884   8.849
    5AU     LIG 1704  27.877   5.767   9.057
    5AU     LIG 1705  28.080   5.358   9.088
    5AU       S 1706  27.943   5.504   8.199
    5AU     LIG 1707  28.140   5.626   8.616
    5AU     LIG 1708  28.319   5.963   8.876
    5AU     LIG 1709  28.606   6.324   8.985
    5AU       S 1710  27.376   5.254   6.348
    5AU     LIG 1711  27.554   5.202   5.913
    5AU     LIG 1712  27.783   4.846   5.727
    5AU     LIG 1713  27.878   4.385   5.646
    5AU       S 1714  27.690   5.733   6.735
    5AU     LIG 1715  27.719   6.031   6.428
    5AU     LIG 1716  27.985   6.065   6.091
    5AU     LIG 1717  28.289   6.365   5.973
    5AU       S 1718  27.893   4.414   6.838
    5AU     LIG 1719  28.176   4.148   6.572
    5AU     LIG 1720  28.121   4.105   6.111
    5AU     LIG 1721  27.819   3.873   5.860
    5AU       S 1722  27.239   5.021   6.277
    5AU     LIG 1723  27.259   4.763   5.918
    5AU     LIG 1724  27.377   4.617   5.509
    5AU     LIG 1725  27.324   4.783   5.102
    5AU       S 1726  26.711   4.919   6.318
    5AU     LIG 1727  26.743   4.907   5.857
    5AU     LIG 1728  26.853   4.724   5.452
    5AU     LIG 1729  26.554   4.763   5.098
    5AU       S 1730  27.093   5.265   6.390
    5AU     LIG 1731  27.023   5.312   5.924
    5AU     LIG 1732  27.201   5.111   5.546
    5AU     LIG 1733  27.613   5.150   5.344
    5AU       S 1734  26.444   5.241   8.608
    5AU     LIG 1735  26.206   5.034   8.888
    5AU     LIG 1736  26.052   4.673   9.014
    5AU     LIG 1737  25.897   4.620   9.414
    5AU       S 1738  26.333   5.821   8.193
    5AU     LIG 1739  26.040   6.106   8.419
    5AU     LIG 1740  25.880   6.139   8.857
    5AU     LIG 1741  25.466   6.128   9.075
    5AU       S 1742  26.332   4.580   8.469
    5AU     LIG 1743  25.861   4.529   8.538
    5AU     LIG 1744  25.479   4.236   8.399
    5AU     LIG 1745  25.324   3.775   8.338
    5AU       S 1746  26.638   4.945   8.639
    5AU     LIG 1747  26.574   4.647   8.978
    5AU     LIG 1748  26.392   4.437   9.337
    5AU     LIG 1749  26.285   4.570   9.771
    5AU       S 1750  26.425   4.895   6.412
    5AU     LIG 1751  26.361   4.614   6.048
    5AU     LIG 1752  26.349   4.677   5.590
    5AU     LIG 1753  26.230   5.050   5.369
    5AU       S 1754  26.292   4.222   6.861
    5AU     LIG 1755  26.172   3.938   6.543
    5AU     LIG 1756  25.930   4.001   6.158
    5AU     LIG 1757  25.557   3.956   5.889
    5AU       S 1758  26.231   5.427   6.653
    5AU     LIG 1759  25.873   5.714   6.653
    5AU     LIG 1760  25.671   6.040   6.386
    5AU     LIG 1761  25.638   6.413   6.145
    5AU       S 1762  26.610   5.156   6.435
    5AU     LIG 1763  26.383   5.299   6.099
    5AU     LIG 1764  26.499   5.368   5.684
    5AU     LIG 1765  26.737   5.205   5.345
    5AU       S 1766  27.882   5.693   6.933
    5AU     LIG 1767  28.168   5.798   6.551
    5AU     LIG 1768  28.471   5.925   6.202
    5AU     LIG 1769  28.754   6.147   5.900
    5AU       S 1770  28.000   5.698   7.431
    5AU     LIG 1771  28.381   6.010   7.595
    5AU     LIG 1772  28.868   6.073   7.594
    5AU     LIG 1773  29.301   5.982   7.783
    5AU       S 1774  28.220   5.436   7.378
    5AU     LIG 1775  28.661   5.600   7.445
    5AU     LIG 1776  29.117   5.624   7.452
    5AU     LIG 1777  29.435   5.657   7.119
    5AU       S 1778  28.099   4.369   7.647
    5AU     LIG 1779  28.415   4.206   7.884
    5AU     LIG 1780  28.846   4.316   7.807
    5AU     LIG 1781  29.247   4.451   7.979
    5AU       S 1782  27.916   5.735   7.972
    5AU     LIG 1783  28.253   5.972   8.220
    5AU     LIG 1784  28.295   6.346   8.537
    5AU     LIG 1785  28.227   6.655   8.894
    5AU       S 1786  28.158   5.572   7.571
    5AU     LIG 1787  28.432   5.591   7.911
    5AU     LIG 1788  28.874   5.680   7.930
    5AU     LIG 1789  29.272   5.478   7.935
    5AU       S 1790  26.194   5.560   8.201
    5AU     LIG 1791  25.848   5.637   8.478
    5AU     LIG 1792  25.534   5.962   8.537
    5AU     LIG 1793  25.147   6.135   8.670
    5AU       S 1794  26.311   5.996   7.402
    5AU     LIG 1795  26.077   6.434   7.435
    5AU     LIG 1796  25.762   6.526   7.122
    5AU     LIG 1797  25.692   6.142   6.890
    5AU       S 1798  25.826   5.228   6.981
    5AU     LIG 1799  25.367   5.119   7.128
    5AU     LIG 1800  24.954   5.332   7.247
    5AU     LIG 1801  24.888   5.808   7.241
    5AU       S 1802  26.325   5.874   6.868
    5AU     LIG 1803  26.131   6.183   6.588
    5AU     LIG 1804  25.842   6.538   6.600
    5AU     LIG 1805  25.466   6.764   6.476
    5AU       S 1806  25.805   4.673   7.637
    5AU     LIG 1807  25.386   4.783   7.545
    5AU     LIG 1808  25.008   4.795   7.347
    5AU     LIG 1809  24.849   4.507   7.044
    5AU       S 1810  25.875   5.212   7.985
    5AU     LIG 1811  25.489   5.410   8.174
    5AU     LIG 1812  25.193   5.780   8.209
    5AU     LIG 1813  25.089   6.238   8.165
    5AU       S 1814  27.842   4.193   7.565
    5AU     LIG 1815  28.079   3.807   7.506
    5AU     LIG 1816  28.431   3.704   7.781
    5AU     LIG 1817  28.801   3.847   8.023
    5AU       S 1818  27.834   4.273   8.076
    5AU     LIG 1819  28.073   3.877   8.098
    5AU     LIG 1820  28.396   3.619   8.297
    5AU     LIG 1821  28.594   3.569   8.739
    5AU       S 1822  28.067   4.296   7.418
    5AU     LIG 1823  28.491   4.079   7.392
    5AU     LIG 1824  28.933   4.154   7.325
    5AU     LIG 1825  29.281   3.925   7.182
    5AU       S 1826  27.770   4.194   7.044
    5AU     LIG 1827  27.933   3.813   6.898
    5AU     LIG 1828  27.906   3.409   6.727
    5AU     LIG 1829  27.967   3.134   6.340
    5AU       S 1830  26.154   4.377   6.918
    5AU     LIG 1831  25.846   4.329   6.568
    5AU     LIG 1832  25.457   4.192   6.353
    5AU     LIG 1833  25.240   3.799   6.278
    5AU       S 1834  25.910   4.429   7.611
    5AU     LIG 1835  25.490   4.302   7.770
    5AU     LIG 1836  25.148   4.258   7.485
    5AU     LIG 1837  25.025   3.838   7.273
    5AU       S 1838  26.320   4.324   8.354
    5AU     LIG 1839  25.896   4.247   8.118
    5AU     LIG 1840  25.710   3.894   8.031
    5AU     LIG 1841  25.814   3.590   8.360
    5AU       S 1842  25.827   4.743   7.801
    5AU     LIG 1843  25.473   4.726   8.060
    5AU     LIG 1844  25.068   4.586   7.900
    5AU     LIG 1845  24.828   4.210   7.905
    5AU       S 1846  26.317   5.983   7.902
    5AU     LIG 1847  25.926   6.266   7.932
    5AU     LIG 1848  25.594   6.393   8.250
    5AU     LIG 1849  25.523   6.490   8.700
    5AU       S 1850  27.209   6.259   7.923
    5AU     LIG 1851  27.373   6.651   8.125
    5AU     LIG 1852  27.276   6.983   8.419
    5AU     LIG 1853  26.999   7.344   8.410
    5AU       S 1854  27.268   6.423   7.685
    5AU     LIG 1855  26.943   6.714   7.807
    5AU     LIG 1856  26.754   7.074   8.005
    5AU     LIG 1857  26.884   7.511   7.935
    5AU       S 1858  27.157   6.200   7.214
    5AU     LIG 1859  27.027   6.650   7.294
    5AU     LIG 1860  27.215   6.995   7.069
    5AU     LIG 1861  27.299   7.307   6.738
    5AU       S 1862  27.755   5.676   8.286
    5AU     LIG 1863  27.856   6.047   8.523
    5AU     LIG 1864  27.898   6.263   8.911
    5AU     LIG 1865  28.169   6.295   9.287
    5AU       S 1866  27.456   6.169   7.600
    5AU     LIG 1867  27.547   6.573   7.319
    5AU     LIG 1868  27.390   6.922   7.561
    5AU     LIG 1869  27.246   7.135   7.926
    5AU       S 1870  27.175   3.883   8.060
    5AU     LIG 1871  27.331   3.434   8.118
    5AU     LIG 1872  27.404   3.008   8.308
    5AU     LIG 1873  27.142   2.597   8.368
    5AU       S 1874  27.609   4.139   7.993
    5AU     LIG 1875  27.691   3.715   7.819
    5AU     LIG 1876  28.009   3.393   7.772
    5AU     LIG 1877  28.279   3.162   8.046
    5AU       S 1878  26.974   3.781   7.886
    5AU     LIG 1879  26.889   3.309   7.821
    5AU     LIG 1880  26.860   2.859   7.984
    5AU     LIG 1881  26.622   2.537   8.238
    5AU       S 1882  26.593   4.457   8.517
    5AU     LIG 1883  26.269   4.243   8.836
    5AU     LIG 1884  25.890   4.027   8.660
    5AU     LIG 1885  25.552   3.749   8.807
    5AU       S 1886  27.050   3.784   7.357
    5AU     LIG 1887  27.004   3.321   7.244
    5AU     LIG 1888  26.999   3.001   6.908
    5AU     LIG 1889  26.914   2.535   6.867
    5AU       S 1890  27.224   3.882   7.804
    5AU     LIG 1891  27.329   3.435   7.618
    5AU     LIG 1892  27.315   3.006   7.806
    5AU     LIG 1893  27.474   2.612   7.989
    5AU       S 1894  27.002   6.203   7.010
    5AU     LIG 1895  26.887   6.593   6.810
    5AU     LIG 1896  27.149   6.867   6.539
    5AU     LIG 1897  27.432   7.147   6.260
    5AU       S 1898  27.703   5.881   7.076
    5AU     LIG 1899  27.972   6.190   6.853
    5AU     LIG 1900  28.239   6.306   6.489
    5AU     LIG 1901  28.671   6.426   6.332
    5AU       S 1902  26.765   6.188   7.189
    5AU     LIG 1903  26.395   6.399   7.024
    5AU     LIG 1904  26.390   6.852   7.001
    5AU     LIG 1905  26.744   7.093   6.802
    5AU       S 1906  26.437   5.608   6.601
    5AU     LIG 1907  26.182   5.769   6.250
    5AU     LIG 1908  26.059   6.146   6.034
    5AU     LIG 1909  26.104   6.609   6.053
    5AU       S 1910  26.199   4.190   7.181
    5AU     LIG 1911  25.825   3.982   6.977
    5AU     LIG 1912  25.674   3.800   6.590
    5AU     LIG 1913  25.696   3.546   6.206
    5AU       S 1914  27.145   3.794   7.133
    5AU     LIG 1915  27.415   3.612   6.778
    5AU     LIG 1916  27.352   3.196   6.536
    5AU     LIG 1917  27.078   2.808   6.437
    5AU       S 1918  27.381   3.899   7.343
    5AU     LIG 1919  27.631   3.572   7.246
    5AU     LIG 1920  27.506   3.183   7.044
    5AU     LIG 1921  27.724   2.930   6.747
    5AU       S 1922  27.691   4.286   6.727
    5AU     LIG 1923  27.729   3.947   6.433
    5AU     LIG 1924  27.646   3.552   6.296
    5AU     LIG 1925  27.520   3.247   6.022
    6AU     AUC 1926  23.225  20.505   7.526
    6AU     AUC 1927  23.477  20.490   7.362
    6AU     AUC 1928  23.482  20.500   7.684
    6AU     AUC 1929  22.961  20.501   7.373
    6AU     AUC 1930  22.971  20.533   7.690
    6AU     AUC 1931  23.083  20.765   7.507
    6AU     AUC 1932  23.402  20.756   7.508
    6AU     AUC 1933  23.055  20.253   7.548
    6AU     AUC 1934  23.371  20.240   7.535
    6AU     AUC 1935  23.221  20.366   7.795
    6AU     AUC 1936  23.244  20.684   7.773
    6AU     AUC 1937  23.213  20.330   7.277
    6AU     AUC 1938  23.226  20.647   7.258
    6AU     AUC 1939  23.733  20.488   7.198
    6AU     AUC 1940  23.734  20.476   7.519
    6AU     AUC 1941  23.736  20.476   7.844
    6AU     AUC 1942  22.702  20.483   7.217
    6AU     AUC 1943  22.699  20.527   7.540
    6AU     AUC 1944  22.726  20.574   7.859
    6AU     AUC 1945  22.937  21.026   7.475
    6AU     AUC 1946  23.277  21.020   7.476
    6AU     AUC 1947  23.593  21.005   7.491
    6AU     AUC 1948  22.889  20.002   7.576
    6AU     AUC 1949  23.213  19.986   7.549
    6AU     AUC 1950  23.528  19.975   7.545
    6AU     AUC 1951  23.219  20.228   8.065
    6AU     AUC 1952  23.232  20.551   8.057
    6AU     AUC 1953  23.271  20.868   8.019
    6AU     AUC 1954  23.222  20.159   7.028
    6AU     AUC 1955  23.213  20.474   7.006
    6AU     AUC 1956  23.223  20.786   6.991
    6AU     AUC 1957  23.473  20.348   7.958
    6AU     AUC 1958  23.510  20.669   7.940
    6AU     AUC 1959  23.485  20.331   7.100
    6AU     AUC 1960  23.480  20.650   7.091
    6AU     AUC 1961  22.970  20.404   7.970
    6AU     AUC 1962  22.986  20.728   7.941
    6AU     AUC 1963  22.950  20.310   7.127
    6AU     AUC 1964  22.953  20.631   7.093
    6AU     AUC 1965  23.664  20.741   7.351
    6AU     AUC 1966  23.665  20.753   7.673
    6AU     AUC 1967  22.809  20.772   7.338
    6AU     AUC 1968  22.822  20.814   7.667
    6AU     AUC 1969  23.623  20.216   7.362
    6AU     AUC 1970  23.631  20.225   7.695
    6AU     AUC 1971  22.778  20.241   7.407
    6AU     AUC 1972  22.796  20.274   7.730
    6AU     AUC 1973  23.102  20.947   7.764
    6AU     AUC 1974  23.443  20.935   7.756
    6AU     AUC 1975  23.054  20.110   7.824
    6AU     AUC 1976  23.372  20.089   7.808
    6AU     AUC 1977  23.073  20.915   7.235
    6AU     AUC 1978  23.412  20.912   7.239
    6AU     AUC 1979  23.045  20.065   7.295
    6AU     AUC 1980  23.382  20.067   7.275
    6AU    AUSL 1981  23.645  20.448   8.155
    6AU    AUSL 1982  23.521  20.109   8.143
    6AU     AUL 1983  23.916  20.267   8.273
    6AU    AUSL 1984  23.326  20.374   8.287
    6AU    AUSL 1985  23.121  20.743   8.271
    6AU     AUL 1986  23.378  20.648   8.566
    6AU    AUSL 1987  23.457  20.744   8.233
    6AU    AUSL 1988  23.818  20.720   8.012
    6AU     AUL 1989  23.782  20.647   8.410
    6AU    AUSL 1990  23.651  20.555   6.895
    6AU    AUSL 1991  23.542  20.903   6.916
    6AU     AUL 1992  23.907  20.736   6.750
    6AU    AUSL 1993  23.438  20.311   6.800
    6AU    AUSL 1994  23.788  20.247   7.023
    6AU     AUL 1995  23.793  20.354   6.648
    6AU    AUSL 1996  23.314  20.624   6.774
    6AU    AUSL 1997  23.093  20.293   6.813
    6AU     AUL 1998  23.312  20.171   6.574
    6AU    AUSL 1999  22.800  20.685   8.155
    6AU    AUSL 2000  22.987  21.013   8.038
    6AU     AUL 2001  22.966  21.041   8.368
    6AU    AUSL 2002  22.978  20.411   8.256
    6AU    AUSL 2003  22.716  20.300   8.035
    6AU     AUL 2004  22.526  20.492   8.191
    6AU    AUSL 2005  22.775  20.358   6.902
    6AU    AUSL 2006  22.912  20.028   7.014
    6AU     AUL 2007  22.958  20.020   6.669
    6AU    AUSL 2008  22.964  20.623   6.815
    6AU    AUSL 2009  22.686  20.756   7.033
    6AU     AUL 2010  22.521  20.516   6.872
    6AU    AUSL 2011  23.909  20.907   7.437
    6AU    AUSL 2012  23.810  20.773   7.112
    6AU     AUL 2013  24.137  20.697   7.066
    6AU    AUSL 2014  23.995  20.578   7.360
    6AU    AUSL 2015  23.968  20.324   7.672
    6AU     AUL 2016  24.299  20.387   7.511
    6AU    AUSL 2017  23.883  20.660   7.676
    6AU    AUSL 2018  23.791  21.014   7.755
    6AU     AUL 2019  24.104  20.717   7.788
    6AU    AUSL 2020  22.650  21.010   7.489
    6AU    AUSL 2021  22.668  20.891   7.916
    6AU     AUL 2022  22.356  21.052   7.681
    6AU    AUSL 2023  22.509  20.682   7.313
    6AU    AUSL 2024  22.789  21.070   7.177
    6AU     AUL 2025  22.414  20.995   7.206
    6AU    AUSL 2026  22.505  20.707   7.686
    6AU    AUSL 2027  22.447  20.369   7.424
    6AU     AUL 2028  22.217  20.723   7.489
    6AU    AUSL 2029  23.824  20.019   7.595
    6AU    AUSL 2030  23.784  20.196   7.937
    6AU     AUL 2031  24.131  20.224   7.907
    6AU    AUSL 2032  23.844  20.266   7.358
    6AU    AUSL 2033  23.714  19.948   7.248
    6AU     AUL 2034  24.075  20.165   7.265
    6AU    AUSL 2035  22.583  20.075   7.599
    6AU    AUSL 2036  22.613  20.204   7.156
    6AU     AUL 2037  22.355  20.019   7.345
    6AU    AUSL 2038  22.496  20.379   7.776
    6AU    AUSL 2039  22.764  19.981   7.891
    6AU     AUL 2040  22.448  20.057   7.936
    6AU    AUSL 2041  23.296  21.175   7.938
    6AU    AUSL 2042  22.836  21.163   7.749
    6AU     AUL 2043  23.036  21.381   8.025
    6AU    AUSL 2044  23.153  21.124   7.619
    6AU    AUSL 2045  23.404  21.261   7.334
    6AU     AUL 2046  23.151  21.437   7.632
    6AU    AUSL 2047  23.514  21.228   7.652
    6AU    AUSL 2048  23.573  20.977   8.024
    6AU     AUL 2049  23.631  21.302   7.970
    6AU    AUSL 2050  23.246  19.914   7.985
    6AU    AUSL 2051  23.587  19.911   7.858
    6AU     AUL 2052  23.361  19.837   8.265
    6AU    AUSL 2053  23.013  19.806   7.748
    6AU    AUSL 2054  22.991  20.086   8.145
    6AU     AUL 2055  22.954  19.708   8.078
    6AU    AUSL 2056  23.333  19.749   7.679
    6AU    AUSL 2057  23.067  19.770   7.404
    6AU     AUL 2058  22.879  19.567   7.608
    6AU    AUSL 2059  23.261  21.072   7.076
    6AU    AUSL 2060  23.669  21.072   7.225
    6AU     AUL 2061  23.468  21.253   6.929
    6AU    AUSL 2062  23.051  21.248   7.309
    6AU    AUSL 2063  22.979  20.939   6.918
    6AU     AUL 2064  23.051  21.266   6.924
    6AU    AUSL 2065  23.208  19.859   7.093
    6AU    AUSL 2066  22.748  19.912   7.318
    6AU     AUL 2067  22.915  19.654   7.094
    6AU    AUSL 2068  23.433  19.779   7.357
    6AU    AUSL 2069  23.499  20.034   6.979
    6AU     AUL 2070  23.498  19.715   6.990
    6AU       S 2071  23.851  19.744   8.320
    6AU     LIG 2072  23.882  19.268   8.391
    6AU     LIG 2073  24.030  18.807   8.370
    6AU     LIG 2074  24.328  18.471   8.509
    6AU       S 2075  23.617  20.180   8.679
    6AU     LIG 2076  23.828  20.414   9.033
    6AU     LIG 2077  24.119  20.445   9.395
    6AU     LIG 2078  24.236  20.241   9.806
    6AU       S 2079  23.271  20.159   8.682
    6AU     LIG 2080  23.336  20.233   9.139
    6AU     LIG 2081  23.684  20.141   9.468
    6AU     LIG 2082  23.898  19.838   9.776
    6AU       S 2083  22.899  20.679   8.733
    6AU     LIG 2084  22.906  20.583   9.166
    6AU     LIG 2085  22.580  20.487   9.467
    6AU     LIG 2086  22.392  20.521   9.905
    6AU       S 2087  23.513  21.145   8.523
    6AU     LIG 2088  23.747  21.262   8.899
    6AU     LIG 2089  24.129  21.159   9.114
    6AU     LIG 2090  24.442  20.825   9.107
    6AU       S 2091  24.148  20.976   8.224
    6AU     LIG 2092  24.332  21.038   8.643
    6AU     LIG 2093  24.557  21.338   8.881
    6AU     LIG 2094  24.830  21.708   8.985
    6AU       S 2095  23.592  20.774   6.358
    6AU     LIG 2096  23.839  20.678   5.974
    6AU     LIG 2097  24.125  20.328   5.904
    6AU     LIG 2098  24.042  19.911   5.751
    6AU       S 2099  23.937  21.249   6.763
    6AU     LIG 2100  24.060  21.616   6.532
    6AU     LIG 2101  24.207  21.895   6.211
    6AU     LIG 2102  24.601  22.068   6.120
    6AU       S 2103  24.095  19.965   6.787
    6AU     LIG 2104  24.186  19.967   6.311
    6AU     LIG 2105  24.321  19.607   6.077
    6AU     LIG 2106  24.535  19.216   6.166
    6AU       S 2107  23.459  20.534   6.274
    6AU     LIG 2108  23.632  20.195   5.999
    6AU     LIG 2109  23.548  19.988   5.601
    6AU     LIG 2110  23.672  20.034   5.157
    6AU       S 2111  22.938  20.430   6.327
    6AU     LIG 2112  22.961  20.341   5.887
    6AU     LIG 2113  23.058  20.130   5.501
    6AU     LIG 2114  22.860  20.167   5.099
    6AU       S 2115  23.316  20.783   6.408
    6AU     LIG 2116  23.158  20.795   5.974
    6AU     LIG 2117  23.393  20.527   5.673
    6AU     LIG 2118  23.807  20.416   5.506
    6AU       S 2119  22.645  20.718   8.619
    6AU     LIG 2120  22.423  20.529   8.946
    6AU     LIG 2121  22.272  20.184   9.169
    6AU     LIG 2122  22.244  20.121   9.616
    6AU       S 2123  22.554  21.324   8.202
    6AU     LIG 2124  22.232  21.537   8.458
    6AU     LIG 2125  22.031  21.494   8.865
    6AU     LIG 2126  21.821  21.749   9.196
    6AU       S 2127  22.540  20.067   8.460
    6AU     LIG 2128  22.066  19.986   8.433
    6AU     LIG 2129  21.710  19.680   8.311
    6AU     LIG 2130  21.523  19.284   8.492
    6AU       S 2131  22.838  20.429   8.644
    6AU     LIG 2132  22.767  20.138   8.980
    6AU     LIG 2133  22.698  19.977   9.389
    6AU     LIG 2134  22.730  20.130   9.816
    6AU       S 2135  22.663  20.374   6.410
    6AU     LIG 2136  22.497  20.186   6.023
    6AU     LIG 2137  22.549  20.248   5.549
    6AU     LIG 2138  22.524  20.548   5.186
    6AU       S 2139  22.524  19.784   6.766
    6AU     LIG 2140  22.427  19.486   6.418
    6AU     LIG 2141  22.150  19.277   6.107
    6AU     LIG 2142  21.710  19.205   5.977
    6AU       S 2143  22.448  20.965   6.661
    6AU     LIG 2144  22.113  21.309   6.688
    6AU     LIG 2145  21.934  21.700   6.527
    6AU     LIG 2146  22.002  22.037   6.204
    6AU       S 2147  22.832  20.673   6.438
    6AU     LIG 2148  22.623  20.784   6.078
    6AU     LIG 2149  22.704  20.739   5.644
    6AU     LIG 2150  23.009  20.617   5.336
    6AU       S 2151  24.116  21.195   6.967
    6AU     LIG 2152  24.474  21.376   6.735
    6AU     LIG 2153  24.551  21.519   6.288
    6AU     LIG 2154  24.848  21.653   5.935
    6AU       S 2155  24.227  21.148   7.445
    6AU     LIG 2156  24.514  21.504   7.363
    6AU     LIG 2157  24.969  21.517   7.414
    6AU     LIG 2158  25.318  21.289   7.644
    6AU       S 2159  24.445  20.888   7.409
    6AU     LIG 2160  24.745  21.092   7.174
    6AU     LIG 2161  25.183  21.141   7.139
    6AU     LIG 2162  25.509  21.297   6.835
    6AU       S 2163  24.298  19.830   7.648
    6AU     LIG 2164  24.664  19.684   7.852
    6AU     LIG 2165  25.064  19.921   7.834
    6AU     LIG 2166  25.250  20.177   7.511
    6AU       S 2167  24.135  21.210   7.998
    6AU     LIG 2168  24.439  21.410   8.301
    6AU     LIG 2169  24.467  21.767   8.602
    6AU     LIG 2170  24.432  22.046   8.980
    6AU       S 2171  24.404  21.051   7.608
    6AU     LIG 2172  24.872  21.036   7.691
    6AU     LIG 2173  25.272  20.896   7.947
    6AU     LIG 2174  25.552  21.064   8.283
    6AU       S 2175  22.427  21.069   8.215
    6AU     LIG 2176  22.092  21.048   8.497
    6AU     LIG 2177  21.726  21.319   8.485
    6AU     LIG 2178  21.547  21.676   8.728
    6AU       S 2179  22.536  21.491   7.407
    6AU     LIG 2180  22.239  21.844   7.261
    6AU     LIG 2181  21.860  21.853   7.020
    6AU     LIG 2182  21.687  21.418   7.009
    6AU       S 2183  22.045  20.628   7.026
    6AU     LIG 2184  21.573  20.630   6.973
    6AU     LIG 2185  21.212  20.903   7.018
    6AU     LIG 2186  21.235  21.282   7.281
    6AU       S 2187  22.566  21.388   6.902
    6AU     LIG 2188  22.460  21.733   6.636
    6AU     LIG 2189  22.208  22.106   6.694
    6AU     LIG 2190  21.753  22.206   6.616
    6AU       S 2191  21.979  20.277   7.586
    6AU     LIG 2192  21.577  20.329   7.390
    6AU     LIG 2193  21.169  20.368   7.215
    6AU     LIG 2194  20.841  20.072   7.232
    6AU       S 2195  22.101  20.745   8.010
    6AU     LIG 2196  21.721  20.764   8.269
    6AU     LIG 2197  21.373  21.031   8.176
    6AU     LIG 2198  21.403  21.279   7.781
    6AU       S 2199  24.034  19.666   7.592
    6AU     LIG 2200  24.361  19.313   7.647
    6AU     LIG 2201  24.709  19.147   7.895
    6AU     LIG 2202  25.098  19.396   7.830
    6AU       S 2203  24.042  19.757   8.098
    6AU     LIG 2204  24.325  19.381   8.158
    6AU     LIG 2205  24.528  19.038   8.430
    6AU     LIG 2206  24.707  18.725   8.762
    6AU       S 2207  24.204  19.716   7.405
    6AU     LIG 2208  24.651  19.630   7.325
    6AU     LIG 2209  25.119  19.534   7.282
    6AU     LIG 2210  25.537  19.589   7.039
    6AU       S 2211  24.013  19.727   6.957
    6AU     LIG 2212  24.270  19.510   6.633
    6AU     LIG 2213  24.052  19.169   6.595
    6AU     LIG 2214  23.814  18.856   6.513
    6AU       S 2215  22.364  19.981   6.832
    6AU     LIG 2216  22.155  19.923   6.423
    6AU     LIG 2217  21.817  19.637   6.276
    6AU     LIG 2218  21.395  19.435   6.318
    6AU       S 2219  22.004  20.042   7.711
    6AU     LIG 2220  21.559  19.926   7.729
    6AU     LIG 2221  21.295  19.859   7.353
    6AU     LIG 2222  21.027  19.618   7.046
    6AU       S 2223  22.547  19.807   8.360
    6AU     LIG 2224  22.193  19.558   8.170
    6AU     LIG 2225  21.883  19.216   8.123
    6AU     LIG 2226  21.823  18.843   8.386
    6AU       S 2227  22.016  20.308   7.811
    6AU     LIG 2228  21.544  20.445   7.877
    6AU     LIG 2229  21.130  20.237   7.723
    6AU     LIG 2230  21.023  19.777   7.767
    6AU       S 2231  22.545  21.485   7.908
    6AU     LIG 2232  22.082  21.618   7.969
    6AU     LIG 2233  21.820  21.835   8.308
    6AU     LIG 2234  21.975  21.987   8.719
    6AU       S 2235  23.408  21.747   7.954
    6AU     LIG 2236  23.595  22.023   8.227
    6AU     LIG 2237  23.374  22.320   8.466
    6AU     LIG 2238  22.992  22.560   8.390
    6AU       S 2239  23.356  21.938   7.700
    6AU     LIG 2240  23.180  22.283   7.951
    6AU     LIG 2241  23.127  22.759   7.933
    6AU     LIG 2242  22.965  23.197   7.826
    6AU       S 2243  23.417  21.678   7.241
    6AU     LIG 2244  23.555  22.130   7.269
    6AU     LIG 2245  23.469  22.493   6.991
    6AU     LIG 2246  23.184  22.652   6.650
    6AU       S 2247  23.966  21.152   8.306
    6AU     LIG 2248  24.003  21.520   8.542
    6AU     LIG 2249  24.109  21.647   8.959
    6AU     LIG 2250  24.413  21.612   9.304
    6AU       S 2251  23.628  21.716   7.675
    6AU     LIG 2252  23.771  22.184   7.768
    6AU     LIG 2253  23.608  22.520   8.053
    6AU     LIG 2254  23.459  22.821   8.374
    6AU       S 2255  23.391  19.375   8.065
    6AU     LIG 2256  23.560  18.949   8.151
    6AU     LIG 2257  23.515  18.534   8.348
    6AU     LIG 2258  23.322  18.104   8.512
    6AU       S 2259  23.816  19.637   8.031
    6AU     LIG 2260  23.916  19.246   7.879
    6AU     LIG 2261  24.181  18.908   7.900
    6AU     LIG 2262  24.545  18.668   8.093
    6AU       S 2263  23.194  19.284   7.885
    6AU     LIG 2264  23.123  18.840   7.873
    6AU     LIG 2265  23.084  18.418   8.062
    6AU     LIG 2266  22.859  18.056   8.226
    6AU       S 2267  22.799  19.943   8.522
    6AU     LIG 2268  22.419  19.781   8.838
    6AU     LIG 2269  22.057  19.516   8.686
    6AU     LIG 2270  21.871  19.119   8.842
    6AU       S 2271  23.226  19.280   7.368
    6AU     LIG 2272  23.209  18.808   7.345
    6AU     LIG 2273  23.195  18.361   7.235
    6AU     LIG 2274  23.202  18.050   6.887
    6AU       S 2275  23.440  19.386   7.813
    6AU     LIG 2276  23.575  18.963   7.650
    6AU     LIG 2277  23.530  18.532   7.821
    6AU     LIG 2278  23.506  18.121   8.042
    6AU       S 2279  23.259  21.706   7.034
    6AU     LIG 2280  23.025  21.886   6.675
    6AU     LIG 2281  23.039  22.224   6.370
    6AU     LIG 2282  23.143  22.602   6.137
    6AU       S 2283  23.941  21.384   7.109
    6AU     LIG 2284  24.233  21.747   6.999
    6AU     LIG 2285  24.515  21.908   6.646
    6AU     LIG 2286  24.930  21.819   6.453
    6AU       S 2287  23.023  21.697   7.216
    6AU     LIG 2288  22.693  21.955   7.048
    6AU     LIG 2289  22.740  22.329   6.788
    6AU     LIG 2290  22.684  22.607   6.440
    6AU       S 2291  22.673  21.126   6.621
    6AU     LIG 2292  22.440  21.305   6.275
    6AU     LIG 2293  22.398  21.720   6.115
    6AU     LIG 2294  22.530  22.132   6.286
    6AU       S 2295  22.414  19.674   6.987
    6AU     LIG 2296  22.033  19.517   6.744
    6AU     LIG 2297  21.827  19.159   6.499
    6AU     LIG 2298  21.871  18.779   6.211
    6AU       S 2299  23.287  19.288   7.126
    6AU     LIG 2300  23.441  19.145   6.718
    6AU     LIG 2301  23.328  18.781   6.447
    6AU     LIG 2302  23.452  18.364   6.540
    6AU       S 2303  23.529  19.357   7.344
    6AU     LIG 2304  23.939  19.214   7.339
    6AU     LIG 2305  23.931  18.900   7.032
    6AU     LIG 2306  23.540  18.680   6.942
    6AU       S 2307  23.859  19.827   6.673
    6AU     LIG 2308  23.853  19.573   6.302
    6AU     LIG 2309  23.989  19.205   6.090
    6AU     LIG 2310  23.838  18.798   5.999
    7AU     AUC 2311   0.332  35.046   7.527
    7AU     AUC 2312   0.583  35.032   7.361
    7AU     AUC 2313   0.587  35.047   7.684
    7AU     AUC 2314   0.070  35.036   7.376
    7AU     AUC 2315   0.079  35.073   7.693
    7AU     AUC 2316   0.184  35.303   7.504
    7AU     AUC 2317   0.501  35.298   7.503
    7AU     AUC 2318   0.168  34.793   7.556
    7AU     AUC 2319   0.482  34.783   7.540
    7AU     AUC 2320   0.331  34.911   7.799
    7AU     AUC 2321   0.347  35.230   7.772
    7AU     AUC 2322   0.324  34.867   7.281
    7AU     AUC 2323   0.330  35.183   7.254
    7AU     AUC 2324   0.838  35.032   7.197
    7AU     AUC 2325   0.839  35.027   7.519
    7AU     AUC 2326   0.842  35.031   7.843
    7AU     AUC 2327  44.815  35.009   7.222
    7AU     AUC 2328  44.808  35.059   7.544
    7AU     AUC 2329  44.835  35.115   7.861
    7AU     AUC 2330   0.033  35.559   7.467
    7AU     AUC 2331   0.371  35.559   7.467
    7AU     AUC 2332   0.685  35.551   7.480
    7AU     AUC 2333   0.009  34.539   7.591
    7AU     AUC 2334   0.326  34.526   7.559
    7AU     AUC 2335   0.641  34.520   7.552
    7AU     AUC 2336   0.330  34.776   8.069
    7AU     AUC 2337   0.340  35.101   8.058
    7AU     AUC 2338   0.372  35.418   8.015
    7AU     AUC 2339   0.334  34.693   7.034
    7AU     AUC 2340   0.321  35.004   7.003
    7AU     AUC 2341   0.323  35.315   6.982
    7AU     AUC 2342   0.582  34.898   7.960
    7AU     AUC 2343   0.614  35.221   7.938
    7AU     AUC 2344   0.595  34.869   7.103
    7AU     AUC 2345   0.582  35.186   7.085
    7AU     AUC 2346   0.080  34.948   7.976
    7AU     AUC 2347   0.090  35.273   7.941
    7AU     AUC 2348   0.062  34.841   7.133
    7AU     AUC 2349   0.061  35.159   7.090
    7AU     AUC 2350   0.762  35.286   7.344
    7AU     AUC 2351   0.763  35.304   7.667
    7AU     AUC 2352  44.912  35.302   7.336
    7AU     AUC 2353  44.924  35.351   7.664
    7AU     AUC 2354   0.734  34.761   7.368
    7AU     AUC 2355   0.741  34.775   7.698
    7AU     AUC 2356  44.896  34.776   7.417
    7AU     AUC 2357  44.912  34.816   7.742
    7AU     AUC 2358   0.200  35.490   7.759
    7AU     AUC 2359   0.541  35.483   7.748
    7AU     AUC 2360   0.166  34.652   7.834
    7AU     AUC 2361   0.483  34.635   7.813
    7AU     AUC 2362   0.169  35.447   7.226
    7AU     AUC 2363   0.506  35.448   7.230
    7AU     AUC 2364   0.160  34.601   7.304
    7AU     AUC 2365   0.494  34.606   7.284
    7AU    AUSL 2366   0.756  35.004   8.154
    7AU    AUSL 2367   0.632  34.658   8.145
    7AU     AUL 2368   1.023  34.821   8.276
    7AU    AUSL 2369   0.438  34.927   8.287
    7AU    AUSL 2370   0.225  35.298   8.269
    7AU     AUL 2371   0.479  35.206   8.564
    7AU    AUSL 2372   0.563  35.298   8.231
    7AU    AUSL 2373   0.923  35.280   8.006
    7AU     AUL 2374   0.898  35.214   8.401
    7AU    AUSL 2375   0.758  35.087   6.891
    7AU    AUSL 2376   0.637  35.435   6.904
    7AU     AUL 2377   1.012  35.257   6.746
    7AU    AUSL 2378   0.548  34.838   6.800
    7AU    AUSL 2379   0.900  34.784   7.032
    7AU     AUL 2380   0.910  34.856   6.658
    7AU    AUSL 2381   0.419  35.152   6.766
    7AU    AUSL 2382   0.203  34.816   6.814
    7AU     AUL 2383   0.418  34.722   6.552
    7AU    AUSL 2384  44.903  35.226   8.158
    7AU    AUSL 2385   0.086  35.563   8.037
    7AU     AUL 2386   0.045  35.578   8.373
    7AU    AUSL 2387   0.091  34.962   8.258
    7AU    AUSL 2388  44.826  34.842   8.046
    7AU     AUL 2389  44.629  35.044   8.178
    7AU    AUSL 2390  44.887  34.877   6.912
    7AU    AUSL 2391   0.023  34.563   7.026
    7AU     AUL 2392   0.108  34.518   6.701
    7AU    AUSL 2393   0.070  35.145   6.807
    7AU    AUSL 2394  44.799  35.279   7.032
    7AU     AUL 2395  44.638  35.063   6.878
    7AU    AUSL 2396   0.997  35.459   7.426
    7AU    AUSL 2397   0.907  35.316   7.103
    7AU     AUL 2398   1.237  35.233   7.060
    7AU    AUSL 2399   1.096  35.135   7.357
    7AU    AUSL 2400   1.081  34.885   7.676
    7AU     AUL 2401   1.410  34.979   7.516
    7AU    AUSL 2402   0.978  35.216   7.669
    7AU    AUSL 2403   0.885  35.568   7.745
    7AU     AUL 2404   1.204  35.274   7.775
    7AU    AUSL 2405  44.746  35.538   7.479
    7AU    AUSL 2406  44.769  35.429   7.915
    7AU     AUL 2407  44.459  35.584   7.678
    7AU    AUSL 2408  44.621  35.194   7.309
    7AU    AUSL 2409  44.882  35.595   7.165
    7AU     AUL 2410  44.510  35.498   7.185
    7AU    AUSL 2411  44.611  35.242   7.682
    7AU    AUSL 2412  44.560  34.891   7.437
    7AU     AUL 2413  44.332  35.267   7.470
    7AU    AUSL 2414   0.943  34.574   7.605
    7AU    AUSL 2415   0.891  34.749   7.937
    7AU     AUL 2416   1.232  34.801   7.926
    7AU    AUSL 2417   0.954  34.820   7.366
    7AU    AUSL 2418   0.828  34.494   7.263
    7AU     AUL 2419   1.185  34.731   7.274
    7AU    AUSL 2420  44.717  34.622   7.618
    7AU    AUSL 2421  44.725  34.734   7.176
    7AU     AUL 2422  44.513  34.498   7.410
    7AU    AUSL 2423  44.607  34.919   7.787
    7AU    AUSL 2424  44.882  34.524   7.912
    7AU     AUL 2425  44.560  34.589   7.938
    7AU    AUSL 2426   0.392  35.722   7.922
    7AU    AUSL 2427  44.933  35.699   7.741
    7AU     AUL 2428   0.137  35.931   8.012
    7AU    AUSL 2429   0.248  35.663   7.607
    7AU    AUSL 2430   0.488  35.801   7.321
    7AU     AUL 2431   0.229  35.975   7.615
    7AU    AUSL 2432   0.609  35.773   7.636
    7AU    AUSL 2433   0.671  35.530   8.017
    7AU     AUL 2434   0.718  35.853   7.963
    7AU    AUSL 2435   0.355  34.459   7.992
    7AU    AUSL 2436   0.697  34.459   7.858
    7AU     AUL 2437   0.483  34.377   8.265
    7AU    AUSL 2438   0.118  34.337   7.763
    7AU    AUSL 2439   0.107  34.635   8.161
    7AU     AUL 2440   0.065  34.260   8.110
    7AU    AUSL 2441   0.440  34.292   7.686
    7AU    AUSL 2442   0.185  34.307   7.414
    7AU     AUL 2443  44.987  34.108   7.598
    7AU    AUSL 2444   0.351  35.603   7.068
    7AU    AUSL 2445   0.751  35.613   7.212
    7AU     AUL 2446   0.543  35.784   6.912
    7AU    AUSL 2447   0.137  35.779   7.298
    7AU    AUSL 2448   0.078  35.463   6.904
    7AU     AUL 2449   0.134  35.794   6.912
    7AU    AUSL 2450   0.319  34.395   7.102
    7AU    AUSL 2451  44.871  34.448   7.331
    7AU     AUL 2452   0.018  34.188   7.100
    7AU    AUSL 2453   0.550  34.321   7.366
    7AU    AUSL 2454   0.615  34.572   6.994
    7AU     AUL 2455   0.600  34.263   6.990
    7AU       S 2456   0.976  34.294   8.304
    7AU     LIG 2457   1.082  33.833   8.342
    7AU     LIG 2458   1.104  33.470   8.603
    7AU     LIG 2459   1.419  33.144   8.721
    7AU       S 2460   0.729  34.745   8.683
    7AU     LIG 2461   0.875  34.971   9.060
    7AU     LIG 2462   1.066  35.063   9.479
    7AU     LIG 2463   1.302  34.984   9.882
    7AU       S 2464   0.401  34.708   8.670
    7AU     LIG 2465   0.327  34.835   9.085
    7AU     LIG 2466   0.594  34.795   9.463
    7AU     LIG 2467   0.887  34.667   9.786
    7AU       S 2468   0.004  35.233   8.754
    7AU     LIG 2469  44.680  35.338   9.093
    7AU     LIG 2470  44.499  35.111   9.432
    7AU     LIG 2471  44.412  35.118   9.896
    7AU       S 2472   0.620  35.701   8.517
    7AU     LIG 2473   0.734  35.921   8.915
    7AU     LIG 2474   0.994  35.841   9.278
    7AU     LIG 2475   1.399  35.634   9.259
    7AU       S 2476   1.255  35.556   8.195
    7AU     LIG 2477   1.510  35.720   8.543
    7AU     LIG 2478   1.585  35.977   8.897
    7AU     LIG 2479   1.768  36.371   9.027
    7AU       S 2480   0.701  35.326   6.359
    7AU     LIG 2481   0.871  35.312   5.908
    7AU     LIG 2482   1.192  35.025   5.720
    7AU     LIG 2483   1.218  34.579   5.592
    7AU       S 2484   1.008  35.777   6.740
    7AU     LIG 2485   1.163  36.184   6.620
    7AU     LIG 2486   1.205  36.313   6.190
    7AU     LIG 2487   1.528  36.269   5.862
    7AU       S 2488   1.214  34.460   6.845
    7AU     LIG 2489   1.484  34.293   6.520
    7AU     LIG 2490   1.537  33.964   6.220
    7AU     LIG 2491   1.423  33.536   6.198
    7AU       S 2492   0.620  35.079   6.280
    7AU     LIG 2493   0.748  34.811   5.925
    7AU     LIG 2494   0.693  34.534   5.564
    7AU     LIG 2495   0.934  34.449   5.175
    7AU       S 2496  44.988  34.905   6.343
    7AU     LIG 2497  44.917  34.911   5.897
    7AU     LIG 2498   0.013  34.794   5.471
    7AU     LIG 2499   0.238  34.966   5.108
    7AU       S 2500   0.410  35.286   6.389
    7AU     LIG 2501   0.289  35.259   5.940
    7AU     LIG 2502   0.472  35.059   5.569
    7AU     LIG 2503   0.859  34.962   5.331
    7AU       S 2504  44.762  35.195   8.627
    7AU     LIG 2505  44.321  35.128   8.782
    7AU     LIG 2506  44.133  34.894   9.129
    7AU     LIG 2507  44.144  34.780   9.600
    7AU       S 2508  44.650  35.870   8.190
    7AU     LIG 2509  44.578  36.111   8.586
    7AU     LIG 2510  44.554  36.015   9.027
    7AU     LIG 2511  44.338  36.265   9.341
    7AU       S 2512  44.648  34.633   8.471
    7AU     LIG 2513  44.217  34.642   8.643
    7AU     LIG 2514  43.818  34.422   8.681
    7AU     LIG 2515  43.510  34.119   8.850
    7AU       S 2516  44.969  34.976   8.653
    7AU     LIG 2517  44.680  34.812   8.959
    7AU     LIG 2518  44.544  34.601   9.319
    7AU     LIG 2519  44.643  34.675   9.766
    7AU       S 2520  44.745  34.820   6.456
    7AU     LIG 2521  44.510  34.679   6.123
    7AU     LIG 2522  44.432  34.887   5.736
    7AU     LIG 2523  44.569  35.046   5.327
    7AU       S 2524  44.620  34.398   6.765
    7AU     LIG 2525  44.427  34.167   6.443
    7AU     LIG 2526  44.471  34.175   6.011
    7AU     LIG 2527  44.707  34.442   5.694
    7AU       S 2528  44.566  35.484   6.634
    7AU     LIG 2529  44.224  35.767   6.646
    7AU     LIG 2530  44.225  36.149   6.444
    7AU     LIG 2531  44.082  36.265   6.049
    7AU       S 2532  44.919  35.159   6.425
    7AU     LIG 2533  44.564  35.220   6.154
    7AU     LIG 2534  44.663  35.352   5.745
    7AU     LIG 2535   0.021  35.304   5.462
    7AU       S 2536   1.178  35.725   6.945
    7AU     LIG 2537   1.528  35.800   6.699
    7AU     LIG 2538   1.601  35.990   6.314
    7AU     LIG 2539   1.980  36.165   6.111
    7AU       S 2540   1.296  35.734   7.429
    7AU     LIG 2541   1.504  36.091   7.635
    7AU     LIG 2542   1.966  36.098   7.727
    7AU     LIG 2543   2.256  36.163   7.387
    7AU       S 2544   1.526  35.498   7.366
    7AU     LIG 2545   1.893  35.789   7.324
    7AU     LIG 2546   2.374  35.688   7.274
    7AU     LIG 2547   2.770  35.460   7.149
    7AU       S 2548   1.438  34.427   7.669
    7AU     LIG 2549   1.810  34.303   7.917
    7AU     LIG 2550   2.228  34.219   8.051
    7AU     LIG 2551   2.622  34.138   7.923
    7AU       S 2552   1.227  35.780   7.962
    7AU     LIG 2553   1.525  36.079   8.154
    7AU     LIG 2554   1.543  36.351   8.531
    7AU     LIG 2555   1.410  36.676   8.815
    7AU       S 2556   1.473  35.610   7.564
    7AU     LIG 2557   1.770  35.658   7.856
    7AU     LIG 2558   2.234  35.676   7.775
    7AU     LIG 2559   2.615  35.656   8.000
    7AU       S 2560  44.508  35.618   8.205
    7AU     LIG 2561  44.507  35.614   8.650
    7AU     LIG 2562  44.236  35.612   8.934
    7AU     LIG 2563  43.862  35.711   8.861
    7AU       S 2564  44.617  36.001   7.400
    7AU     LIG 2565  44.575  36.407   7.261
    7AU     LIG 2566  44.362  36.442   6.887
    7AU     LIG 2567  43.948  36.255   6.866
    7AU       S 2568  44.177  34.991   7.069
    7AU     LIG 2569  43.833  34.720   6.986
    7AU     LIG 2570  43.468  34.970   7.019
    7AU     LIG 2571  43.405  35.455   6.858
    7AU       S 2572  44.644  35.907   6.890
    7AU     LIG 2573  44.722  36.238   6.574
    7AU     LIG 2574  44.530  36.630   6.405
    7AU     LIG 2575  44.263  36.774   6.050
    7AU       S 2576  44.110  34.805   7.535
    7AU     LIG 2577  43.681  34.708   7.484
    7AU     LIG 2578  43.301  34.848   7.518
    7AU     LIG 2579  42.949  34.789   7.228
    7AU       S 2580  44.199  35.283   7.997
    7AU     LIG 2581  44.056  35.389   8.418
    7AU     LIG 2582  43.664  35.295   8.270
    7AU     LIG 2583  43.387  35.572   7.977
    7AU       S 2584   1.170  34.236   7.587
    7AU     LIG 2585   1.317  33.811   7.467
    7AU     LIG 2586   1.615  33.624   7.705
    7AU     LIG 2587   1.996  33.805   7.835
    7AU       S 2588   1.150  34.320   8.088
    7AU     LIG 2589   1.428  33.985   7.997
    7AU     LIG 2590   1.760  33.805   8.281
    7AU     LIG 2591   1.884  33.416   8.567
    7AU       S 2592   1.373  34.317   7.446
    7AU     LIG 2593   1.753  34.075   7.462
    7AU     LIG 2594   2.193  34.224   7.511
    7AU     LIG 2595   2.380  34.527   7.172
    7AU       S 2596   1.107  34.237   7.047
    7AU     LIG 2597   1.432  33.953   6.972
    7AU     LIG 2598   1.391  33.544   6.764
    7AU     LIG 2599   1.180  33.221   6.512
    7AU       S 2600  44.436  34.561   6.903
    7AU     LIG 2601  44.214  34.664   6.548
    7AU     LIG 2602  44.030  34.421   6.219
    7AU     LIG 2603  43.621  34.227   6.248
    7AU       S 2604  44.124  34.625   7.706
    7AU     LIG 2605  43.900  34.274   7.745
    7AU     LIG 2606  43.666  34.187   7.372
    7AU     LIG 2607  43.379  34.002   7.033
    7AU       S 2608  44.643  34.382   8.382
    7AU     LIG 2609  44.177  34.253   8.265
    7AU     LIG 2610  44.124  33.816   8.121
    7AU     LIG 2611  44.294  33.617   8.493
    7AU       S 2612  44.137  34.855   7.783
    7AU     LIG 2613  43.963  34.725   8.195
    7AU     LIG 2614  43.635  34.411   8.200
    7AU     LIG 2615  43.416  34.412   7.818
    7AU       S 2616  44.648  36.023   7.894
    7AU     LIG 2617  44.596  36.377   8.158
    7AU     LIG 2618  44.256  36.621   8.266
    7AU     LIG 2619  44.012  36.632   8.644
    7AU       S 2620   0.519  36.296   7.886
    7AU     LIG 2621   0.757  36.608   8.070
    7AU     LIG 2622   0.512  36.863   8.346
    7AU     LIG 2623   0.118  37.104   8.463
    7AU       S 2624   0.436  36.471   7.649
    7AU     LIG 2625   0.166  36.652   7.970
    7AU     LIG 2626   0.044  37.048   7.934
    7AU     LIG 2627  44.901  37.386   8.092
    7AU       S 2628   0.477  36.216   7.213
    7AU     LIG 2629   0.811  36.492   7.088
    7AU     LIG 2630   0.887  36.944   7.030
    7AU     LIG 2631   0.771  37.369   6.948
    7AU       S 2632   1.072  35.725   8.283
    7AU     LIG 2633   1.117  36.066   8.572
    7AU     LIG 2634   1.167  36.243   8.993
    7AU     LIG 2635   1.412  36.151   9.382
    7AU       S 2636   0.743  36.236   7.617
    7AU     LIG 2637   0.836  36.708   7.548
    7AU     LIG 2638   0.533  36.978   7.806
    7AU     LIG 2639   0.454  37.301   8.110
    7AU       S 2640   0.496  33.914   8.066
    7AU     LIG 2641   0.711  33.508   8.182
    7AU     LIG 2642   0.570  33.101   8.338
    7AU     LIG 2643   0.420  32.777   8.644
    7AU       S 2644   0.922  34.179   8.008
    7AU     LIG 2645   0.981  33.787   7.829
    7AU     LIG 2646   1.204  33.475   7.965
    7AU     LIG 2647   1.477  33.391   8.254
    7AU       S 2648   0.267  33.822   7.907
    7AU     LIG 2649   0.212  33.350   8.038
    7AU     LIG 2650   0.109  32.913   8.242
    7AU     LIG 2651   0.220  32.452   8.295
    7AU       S 2652  44.904  34.502   8.549
    7AU     LIG 2653  44.542  34.320   8.862
    7AU     LIG 2654  44.176  34.027   8.795
    7AU     LIG 2655  44.212  33.613   9.034
    7AU       S 2656   0.348  33.827   7.368
    7AU     LIG 2657   0.293  33.374   7.296
    7AU     LIG 2658   0.475  33.057   7.069
    7AU     LIG 2659   0.208  32.771   6.877
    7AU       S 2660   0.517  33.931   7.819
    7AU     LIG 2661   0.580  33.484   7.693
    7AU     LIG 2662   0.426  33.038   7.670
    7AU     LIG 2663   0.354  32.662   7.428
    7AU       S 2664   0.327  36.235   7.036
    7AU     LIG 2665   0.499  36.409   6.685
    7AU     LIG 2666   0.790  36.719   6.585
    7AU     LIG 2667   0.813  37.170   6.479
    7AU       S 2668   1.008  35.936   7.082
    7AU     LIG 2669   1.433  36.121   7.083
    7AU     LIG 2670   1.672  36.311   6.749
    7AU     LIG 2671   1.666  36.494   6.333
    7AU       S 2672   0.076  36.229   7.201
    7AU     LIG 2673   0.017  36.623   6.962
    7AU     LIG 2674   0.343  36.896   6.784
    7AU     LIG 2675   0.320  37.313   6.669
    7AU       S 2676  44.770  35.639   6.600
    7AU     LIG 2677  44.536  35.783   6.223
    7AU     LIG 2678  44.582  36.205   6.050
    7AU     LIG 2679  44.842  36.576   5.995
    7AU       S 2680  44.521  34.264   6.970
    7AU     LIG 2681  44.112  34.182   6.835
    7AU     LIG 2682  44.201  33.747   6.731
    7AU     LIG 2683  44.333  33.400   6.463
    7AU       S 2684   0.417  33.830   7.130
    7AU     LIG 2685   0.601  33.510   6.828
    7AU     LIG 2686   0.564  33.199   6.490
    7AU     LIG 2687   0.448  32.741   6.407
    7AU       S 2688   0.677  33.903   7.355
    7AU     LIG 2689   0.994  33.682   7.092
    7AU     LIG 2690   1.013  33.214   6.997
    7AU     LIG 2691   0.873  32.869   6.700
    7AU       S 2692   1.012  34.332   6.731
    7AU     LIG 2693   1.105  33.924   6.565
    7AU     LIG 2694   0.890  33.604   6.332
    7AU     LIG 2695   0.969  33.272   6.025
    8AU     AUC 2696  18.734   9.668   7.515
    8AU     AUC 2697  18.988   9.652   7.353
    8AU     AUC 2698  18.988   9.668   7.675
    8AU     AUC 2699  18.472   9.660   7.361
    8AU     AUC 2700  18.478   9.695   7.678
    8AU     AUC 2701  18.590   9.926   7.492
    8AU     AUC 2702  18.908   9.920   7.494
    8AU     AUC 2703  18.568   9.415   7.538
    8AU     AUC 2704  18.884   9.405   7.529
    8AU     AUC 2705  18.728   9.531   7.785
    8AU     AUC 2706  18.748   9.850   7.760
    8AU     AUC 2707  18.728   9.489   7.268
    8AU     AUC 2708  18.736   9.805   7.244
    8AU     AUC 2709  19.245   9.649   7.192
    8AU     AUC 2710  19.242   9.647   7.515
    8AU     AUC 2711  19.240   9.651   7.839
    8AU     AUC 2712  18.214   9.644   7.207
    8AU     AUC 2713  18.212   9.691   7.528
    8AU     AUC 2714  18.231   9.733   7.845
    8AU     AUC 2715  18.442  10.185   7.458
    8AU     AUC 2716  18.782  10.181   7.455
    8AU     AUC 2717  19.096  10.171   7.470
    8AU     AUC 2718  18.402   9.163   7.562
    8AU     AUC 2719  18.730   9.148   7.542
    8AU     AUC 2720  19.044   9.141   7.543
    8AU     AUC 2721  18.724   9.394   8.055
    8AU     AUC 2722  18.736   9.719   8.045
    8AU     AUC 2723  18.772  10.038   8.003
    8AU     AUC 2724  18.739   9.314   7.019
    8AU     AUC 2725  18.724   9.626   6.994
    8AU     AUC 2726  18.731   9.938   6.974
    8AU     AUC 2727  18.978   9.519   7.952
    8AU     AUC 2728  19.013   9.841   7.929
    8AU     AUC 2729  19.001   9.488   7.093
    8AU     AUC 2730  18.990   9.803   7.076
    8AU     AUC 2731  18.474   9.566   7.956
    8AU     AUC 2732  18.490   9.892   7.926
    8AU     AUC 2733  18.465   9.464   7.115
    8AU     AUC 2734  18.462   9.788   7.081
    8AU     AUC 2735  19.171   9.905   7.337
    8AU     AUC 2736  19.167   9.925   7.660
    8AU     AUC 2737  18.317   9.932   7.324
    8AU     AUC 2738  18.327   9.974   7.652
    8AU     AUC 2739  19.138   9.381   7.362
    8AU     AUC 2740  19.140   9.396   7.693
    8AU     AUC 2741  18.298   9.400   7.395
    8AU     AUC 2742  18.302   9.433   7.711
    8AU     AUC 2743  18.605  10.111   7.748
    8AU     AUC 2744  18.945  10.104   7.739
    8AU     AUC 2745  18.565   9.273   7.811
    8AU     AUC 2746  18.881   9.256   7.802
    8AU     AUC 2747  18.579  10.072   7.217
    8AU     AUC 2748  18.918  10.068   7.219
    8AU     AUC 2749  18.564   9.224   7.286
    8AU     AUC 2750  18.901   9.229   7.273
    8AU    AUSL 2751  19.149   9.625   8.149
    8AU    AUSL 2752  19.024   9.281   8.139
    8AU     AUL 2753  19.413   9.439   8.277
    8AU    AUSL 2754  18.829   9.549   8.278
    8AU    AUSL 2755  18.622   9.909   8.257
    8AU     AUL 2756  18.880   9.830   8.553
    8AU    AUSL 2757  18.959   9.922   8.219
    8AU    AUSL 2758  19.320   9.899   8.003
    8AU     AUL 2759  19.287   9.834   8.398
    8AU    AUSL 2760  19.164   9.694   6.881
    8AU    AUSL 2761  19.052  10.046   6.895
    8AU     AUL 2762  19.430   9.851   6.749
    8AU    AUSL 2763  18.942   9.452   6.787
    8AU    AUSL 2764  19.317   9.403   7.029
    8AU     AUL 2765  19.303   9.441   6.652
    8AU    AUSL 2766  18.824   9.767   6.762
    8AU    AUSL 2767  18.594   9.441   6.803
    8AU     AUL 2768  18.795   9.309   6.567
    8AU    AUSL 2769  18.302   9.848   8.139
    8AU    AUSL 2770  18.489  10.178   8.025
    8AU     AUL 2771  18.462  10.203   8.356
    8AU    AUSL 2772  18.481   9.575   8.241
    8AU    AUSL 2773  18.219   9.456   8.025
    8AU     AUL 2774  18.028   9.657   8.171
    8AU    AUSL 2775  18.277   9.523   6.896
    8AU    AUSL 2776  18.432   9.173   7.002
    8AU     AUL 2777  18.392   9.199   6.651
    8AU    AUSL 2778  18.474   9.775   6.803
    8AU    AUSL 2779  18.189   9.907   7.016
    8AU     AUL 2780  18.017   9.646   6.869
    8AU    AUSL 2781  19.410  10.077   7.422
    8AU    AUSL 2782  19.318   9.925   7.097
    8AU     AUL 2783  19.655   9.852   7.066
    8AU    AUSL 2784  19.503   9.751   7.357
    8AU    AUSL 2785  19.480   9.503   7.676
    8AU     AUL 2786  19.814   9.593   7.523
    8AU    AUSL 2787  19.381   9.836   7.667
    8AU    AUSL 2788  19.291  10.188   7.738
    8AU     AUL 2789  19.604   9.891   7.776
    8AU    AUSL 2790  18.159  10.172   7.479
    8AU    AUSL 2791  18.170  10.051   7.895
    8AU     AUL 2792  17.854  10.203   7.656
    8AU    AUSL 2793  18.016   9.858   7.302
    8AU    AUSL 2794  18.292  10.224   7.161
    8AU     AUL 2795  17.925  10.164   7.200
    8AU    AUSL 2796  18.003   9.859   7.674
    8AU    AUSL 2797  17.983   9.544   7.417
    8AU     AUL 2798  17.709   9.842   7.462
    8AU    AUSL 2799  19.339   9.195   7.604
    8AU    AUSL 2800  19.288   9.371   7.936
    8AU     AUL 2801  19.631   9.419   7.925
    8AU    AUSL 2802  19.354   9.440   7.365
    8AU    AUSL 2803  19.237   9.113   7.259
    8AU     AUL 2804  19.591   9.354   7.280
    8AU    AUSL 2805  18.071   9.234   7.546
    8AU    AUSL 2806  18.147   9.348   7.154
    8AU     AUL 2807  17.807   9.382   7.209
    8AU    AUSL 2808  18.008   9.527   7.764
    8AU    AUSL 2809  18.276   9.150   7.860
    8AU     AUL 2810  17.972   9.187   7.904
    8AU    AUSL 2811  18.793  10.344   7.912
    8AU    AUSL 2812  18.344  10.326   7.736
    8AU     AUL 2813  18.540  10.547   8.019
    8AU    AUSL 2814  18.655  10.282   7.594
    8AU    AUSL 2815  18.907  10.421   7.306
    8AU     AUL 2816  18.645  10.591   7.601
    8AU    AUSL 2817  19.013  10.396   7.627
    8AU    AUSL 2818  19.073  10.153   8.007
    8AU     AUL 2819  19.126  10.479   7.944
    8AU    AUSL 2820  18.753   9.076   7.977
    8AU    AUSL 2821  19.096   9.081   7.855
    8AU     AUL 2822  18.870   9.007   8.262
    8AU    AUSL 2823  18.526   8.962   7.737
    8AU    AUSL 2824  18.495   9.249   8.131
    8AU     AUL 2825  18.451   8.875   8.062
    8AU    AUSL 2826  18.850   8.914   7.669
    8AU    AUSL 2827  18.599   8.933   7.396
    8AU     AUL 2828  18.415   8.716   7.571
    8AU    AUSL 2829  18.768  10.224   7.052
    8AU    AUSL 2830  19.172  10.229   7.199
    8AU     AUL 2831  18.966  10.403   6.901
    8AU    AUSL 2832  18.556  10.403   7.283
    8AU    AUSL 2833  18.482  10.091   6.904
    8AU     AUL 2834  18.550  10.412   6.899
    8AU    AUSL 2835  18.734   9.023   7.084
    8AU    AUSL 2836  18.278   9.061   7.318
    8AU     AUL 2837  18.457   8.804   7.100
    8AU    AUSL 2838  18.956   8.940   7.347
    8AU    AUSL 2839  19.032   9.200   6.990
    8AU     AUL 2840  19.009   8.902   6.960
    8AU       S 2841  19.360   8.909   8.308
    8AU     LIG 2842  19.441   8.430   8.337
    8AU     LIG 2843  19.549   7.976   8.358
    8AU     LIG 2844  19.958   7.790   8.507
    8AU       S 2845  19.116   9.370   8.682
    8AU     LIG 2846  19.300   9.616   9.047
    8AU     LIG 2847  19.541   9.683   9.443
    8AU     LIG 2848  19.722   9.538   9.852
    8AU       S 2849  18.775   9.340   8.672
    8AU     LIG 2850  18.831   9.386   9.132
    8AU     LIG 2851  19.153   9.330   9.479
    8AU     LIG 2852  19.380   9.147   9.852
    8AU       S 2853  18.399   9.835   8.717
    8AU     LIG 2854  18.413   9.711   9.140
    8AU     LIG 2855  18.114   9.739   9.462
    8AU     LIG 2856  18.002   9.875   9.886
    8AU       S 2857  19.006  10.329   8.501
    8AU     LIG 2858  19.182  10.568   8.851
    8AU     LIG 2859  19.523  10.440   9.103
    8AU     LIG 2860  19.759  10.047   9.105
    8AU       S 2861  19.650  10.169   8.201
    8AU     LIG 2862  19.817  10.260   8.622
    8AU     LIG 2863  19.970  10.558   8.890
    8AU     LIG 2864  20.291  10.841   9.018
    8AU       S 2865  19.128   9.896   6.351
    8AU     LIG 2866  19.228   9.882   5.886
    8AU     LIG 2867  19.458   9.577   5.632
    8AU     LIG 2868  19.515   9.129   5.518
    8AU       S 2869  19.424  10.362   6.712
    8AU     LIG 2870  19.506  10.773   6.577
    8AU     LIG 2871  19.740  10.892   6.221
    8AU     LIG 2872  20.100  11.110   6.074
    8AU       S 2873  19.645   9.075   6.860
    8AU     LIG 2874  19.968   8.790   6.674
    8AU     LIG 2875  20.013   8.402   6.422
    8AU     LIG 2876  19.816   8.045   6.150
    8AU       S 2877  18.992   9.660   6.277
    8AU     LIG 2878  18.895   9.477   5.869
    8AU     LIG 2879  19.035   9.382   5.433
    8AU     LIG 2880  19.383   9.418   5.107
    8AU       S 2881  18.456   9.600   6.310
    8AU     LIG 2882  18.361   9.605   5.883
    8AU     LIG 2883  18.508   9.464   5.505
    8AU     LIG 2884  18.349   9.423   5.095
    8AU       S 2885  18.852   9.910   6.395
    8AU     LIG 2886  18.704   9.962   5.975
    8AU     LIG 2887  18.829   9.871   5.547
    8AU     LIG 2888  19.201   9.875   5.290
    8AU       S 2889  18.144   9.875   8.603
    8AU     LIG 2890  17.915   9.785   8.956
    8AU     LIG 2891  17.731   9.481   9.226
    8AU     LIG 2892  17.696   9.495   9.675
    8AU       S 2893  18.052  10.480   8.186
    8AU     LIG 2894  17.756  10.687   8.486
    8AU     LIG 2895  17.601  10.665   8.915
    8AU     LIG 2896  17.223  10.726   9.173
    8AU       S 2897  18.033   9.230   8.441
    8AU     LIG 2898  17.563   9.143   8.456
    8AU     LIG 2899  17.227   8.791   8.450
    8AU     LIG 2900  17.022   8.365   8.593
    8AU       S 2901  18.333   9.590   8.628
    8AU     LIG 2902  18.150   9.324   8.947
    8AU     LIG 2903  18.155   9.228   9.391
    8AU     LIG 2904  18.184   9.376   9.835
    8AU       S 2905  18.168   9.602   6.390
    8AU     LIG 2906  18.048   9.253   6.115
    8AU     LIG 2907  18.018   9.278   5.660
    8AU     LIG 2908  18.015   9.675   5.465
    8AU       S 2909  18.055   8.834   6.808
    8AU     LIG 2910  18.149   8.434   6.511
    8AU     LIG 2911  17.890   8.179   6.186
    8AU     LIG 2912  17.423   8.232   6.095
    8AU       S 2913  17.948  10.101   6.657
    8AU     LIG 2914  17.601  10.442   6.706
    8AU     LIG 2915  17.462  10.802   6.455
    8AU     LIG 2916  17.383  11.053   6.067
    8AU       S 2917  18.357   9.843   6.428
    8AU     LIG 2918  18.183  10.054   6.094
    8AU     LIG 2919  18.301  10.077   5.655
    8AU     LIG 2920  18.414   9.913   5.256
    8AU       S 2921  19.614  10.336   6.927
    8AU     LIG 2922  19.928  10.483   6.607
    8AU     LIG 2923  20.196  10.636   6.261
    8AU     LIG 2924  20.533  10.807   5.990
    8AU       S 2925  19.716  10.354   7.435
    8AU     LIG 2926  19.975  10.692   7.685
    8AU     LIG 2927  20.431  10.742   7.651
    8AU     LIG 2928  20.811  10.638   7.383
    8AU       S 2929  19.940  10.108   7.383
    8AU     LIG 2930  20.374  10.289   7.391
    8AU     LIG 2931  20.801  10.134   7.315
    8AU     LIG 2932  21.101  10.326   7.033
    8AU       S 2933  19.824   9.034   7.672
    8AU     LIG 2934  20.190   8.818   7.732
    8AU     LIG 2935  20.572   9.004   7.857
    8AU     LIG 2936  20.817   9.139   7.534
    8AU       S 2937  19.633  10.394   7.973
    8AU     LIG 2938  19.960  10.617   8.232
    8AU     LIG 2939  20.011  10.961   8.573
    8AU     LIG 2940  19.997  11.256   8.953
    8AU       S 2941  19.896  10.220   7.591
    8AU     LIG 2942  20.246  10.296   7.884
    8AU     LIG 2943  20.726  10.338   7.808
    8AU     LIG 2944  21.066  10.660   7.848
    8AU       S 2945  17.914  10.224   8.189
    8AU     LIG 2946  17.643  10.193   8.541
    8AU     LIG 2947  17.270  10.451   8.597
    8AU     LIG 2948  16.912  10.688   8.702
    8AU       S 2949  18.052  10.651   7.392
    8AU     LIG 2950  17.841  10.968   7.105
    8AU     LIG 2951  17.403  10.992   6.935
    8AU     LIG 2952  17.075  10.688   6.829
    8AU       S 2953  17.558   9.875   6.975
    8AU     LIG 2954  17.083   9.837   7.097
    8AU     LIG 2955  16.719  10.131   7.151
    8AU     LIG 2956  16.697  10.587   7.295
    8AU       S 2957  18.066  10.540   6.877
    8AU     LIG 2958  17.971  10.892   6.612
    8AU     LIG 2959  17.693  11.243   6.585
    8AU     LIG 2960  17.237  11.302   6.505
    8AU       S 2961  17.506   9.378   7.613
    8AU     LIG 2962  17.095   9.531   7.523
    8AU     LIG 2963  16.682   9.573   7.413
    8AU     LIG 2964  16.477   9.400   7.062
    8AU       S 2965  17.593   9.884   7.977
    8AU     LIG 2966  17.257  10.140   8.188
    8AU     LIG 2967  16.900  10.463   8.198
    8AU     LIG 2968  16.537  10.523   7.891
    8AU       S 2969  19.565   8.843   7.591
    8AU     LIG 2970  19.825   8.451   7.530
    8AU     LIG 2971  20.220   8.310   7.670
    8AU     LIG 2972  20.631   8.544   7.673
    8AU       S 2973  19.544   8.942   8.094
    8AU     LIG 2974  19.828   8.606   8.023
    8AU     LIG 2975  19.952   8.295   8.316
    8AU     LIG 2976  19.789   8.224   8.745
    8AU       S 2977  19.763   8.940   7.463
    8AU     LIG 2978  20.039   8.763   7.194
    8AU     LIG 2979  20.460   8.816   7.272
    8AU     LIG 2980  20.848   8.666   7.179
    8AU       S 2981  19.512   8.841   7.062
    8AU     LIG 2982  19.699   8.448   6.936
    8AU     LIG 2983  19.654   8.102   6.638
    8AU     LIG 2984  19.692   7.646   6.582
    8AU       S 2985  17.912   9.033   6.869
    8AU     LIG 2986  17.706   8.921   6.457
    8AU     LIG 2987  17.332   8.674   6.366
    8AU     LIG 2988  17.135   8.295   6.560
    8AU       S 2989  17.578   9.127   7.600
    8AU     LIG 2990  17.114   9.022   7.640
    8AU     LIG 2991  16.717   9.040   7.387
    8AU     LIG 2992  16.344   8.888   7.142
    8AU       S 2993  18.058   8.990   8.352
    8AU     LIG 2994  17.722   8.689   8.288
    8AU     LIG 2995  17.432   8.335   8.282
    8AU     LIG 2996  17.307   7.933   8.454
    8AU       S 2997  17.548   9.424   7.790
    8AU     LIG 2998  17.161   9.425   8.015
    8AU     LIG 2999  16.743   9.313   7.866
    8AU     LIG 3000  16.596   8.906   7.864
    8AU       S 3001  18.050  10.637   7.892
    8AU     LIG 3002  17.594  10.738   8.007
    8AU     LIG 3003  17.263  10.889   8.326
    8AU     LIG 3004  17.262  11.055   8.766
    8AU       S 3005  18.901  10.919   7.894
    8AU     LIG 3006  19.092  11.100   8.240
    8AU     LIG 3007  18.851  11.338   8.523
    8AU     LIG 3008  18.708  11.768   8.533
    8AU       S 3009  18.819  11.100   7.628
    8AU     LIG 3010  18.628  11.326   7.992
    8AU     LIG 3011  18.537  11.761   8.042
    8AU     LIG 3012  18.807  12.113   8.062
    8AU       S 3013  18.899  10.839   7.196
    8AU     LIG 3014  18.908  11.318   7.168
    8AU     LIG 3015  19.183  11.688   7.252
    8AU     LIG 3016  19.533  11.887   6.977
    8AU       S 3017  19.461  10.343   8.282
    8AU     LIG 3018  19.549  10.706   8.524
    8AU     LIG 3019  19.597  10.919   8.912
    8AU     LIG 3020  19.837  10.862   9.297
    8AU       S 3021  19.111  10.883   7.629
    8AU     LIG 3022  19.206  11.348   7.781
    8AU     LIG 3023  19.037  11.608   8.124
    8AU     LIG 3024  19.251  11.661   8.542
    8AU       S 3025  18.895   8.546   8.059
    8AU     LIG 3026  19.083   8.122   8.122
    8AU     LIG 3027  19.103   7.701   8.292
    8AU     LIG 3028  18.804   7.356   8.415
    8AU       S 3029  19.321   8.800   8.013
    8AU     LIG 3030  19.411   8.398   7.820
    8AU     LIG 3031  19.719   8.099   7.894
    8AU     LIG 3032  20.122   7.899   8.018
    8AU       S 3033  18.707   8.457   7.887
    8AU     LIG 3034  18.597   8.053   7.869
    8AU     LIG 3035  18.703   7.650   7.961
    8AU     LIG 3036  18.440   7.280   8.059
    8AU       S 3037  18.300   9.105   8.514
    8AU     LIG 3038  17.902   8.883   8.799
    8AU     LIG 3039  17.557   8.534   8.762
    8AU     LIG 3040  17.363   8.122   8.925
    8AU       S 3041  18.774   8.426   7.336
    8AU     LIG 3042  18.966   7.984   7.129
    8AU     LIG 3043  18.774   7.631   6.881
    8AU     LIG 3044  18.870   7.258   6.586
    8AU       S 3045  18.944   8.546   7.789
    8AU     LIG 3046  19.038   8.100   7.624
    8AU     LIG 3047  19.225   7.701   7.781
    8AU     LIG 3048  19.068   7.295   7.975
    8AU       S 3049  18.743  10.855   6.995
    8AU     LIG 3050  18.468  11.113   6.743
    8AU     LIG 3051  18.688  11.480   6.649
    8AU     LIG 3052  19.071  11.685   6.756
    8AU       S 3053  19.444  10.524   7.055
    8AU     LIG 3054  19.814  10.812   6.996
    8AU     LIG 3055  20.059  10.991   6.631
    8AU     LIG 3056  20.496  11.019   6.462
    8AU       S 3057  18.516  10.856   7.190
    8AU     LIG 3058  18.393  11.312   7.210
    8AU     LIG 3059  18.247  11.593   6.866
    8AU     LIG 3060  18.275  11.733   6.414
    8AU       S 3061  18.162  10.276   6.608
    8AU     LIG 3062  17.909  10.478   6.294
    8AU     LIG 3063  17.865  10.873   6.094
    8AU     LIG 3064  17.840  11.327   6.095
    8AU       S 3065  17.933   8.844   7.135
    8AU     LIG 3066  17.578   8.651   6.897
    8AU     LIG 3067  17.648   8.354   6.601
    8AU     LIG 3068  17.541   7.949   6.507
    8AU       S 3069  18.844   8.460   7.095
    8AU     LIG 3070  19.197   8.308   6.818
    8AU     LIG 3071  19.145   7.906   6.614
    8AU     LIG 3072  18.790   7.725   6.361
    8AU       S 3073  19.084   8.536   7.320
    8AU     LIG 3074  19.410   8.234   7.299
    8AU     LIG 3075  19.460   7.870   7.033
    8AU     LIG 3076  19.284   7.471   6.841
    8AU       S 3077  19.456   8.930   6.758
    8AU     LIG 3078  19.506   8.578   6.475
    8AU     LIG 3079  19.322   8.214   6.252
    8AU     LIG 3080  19.378   7.747   6.168
    9AU     AUC 3081  27.216  32.843   7.538
    9AU     AUC 3082  27.467  32.831   7.370
    9AU     AUC 3083  27.474  32.839   7.691
    9AU     AUC 3084  26.950  32.836   7.388
    9AU     AUC 3085  26.963  32.868   7.706
    9AU     AUC 3086  27.069  33.100   7.520
    9AU     AUC 3087  27.387  33.093   7.517
    9AU     AUC 3088  27.049  32.590   7.562
    9AU     AUC 3089  27.365  32.580   7.544
    9AU     AUC 3090  27.217  32.701   7.806
    9AU     AUC 3091  27.235  33.020   7.785
    9AU     AUC 3092  27.204  32.670   7.289
    9AU     AUC 3093  27.211  32.984   7.268
    9AU     AUC 3094  27.722  32.835   7.201
    9AU     AUC 3095  27.725  32.822   7.523
    9AU     AUC 3096  27.731  32.817   7.847
    9AU     AUC 3097  26.691  32.813   7.234
    9AU     AUC 3098  26.691  32.860   7.559
    9AU     AUC 3099  26.721  32.908   7.878
    9AU     AUC 3100  26.919  33.358   7.491
    9AU     AUC 3101  27.257  33.355   7.486
    9AU     AUC 3102  27.572  33.344   7.495
    9AU     AUC 3103  26.889  32.336   7.591
    9AU     AUC 3104  27.208  32.323   7.558
    9AU     AUC 3105  27.525  32.317   7.549
    9AU     AUC 3106  27.218  32.559   8.074
    9AU     AUC 3107  27.230  32.884   8.068
    9AU     AUC 3108  27.264  33.202   8.031
    9AU     AUC 3109  27.210  32.501   7.041
    9AU     AUC 3110  27.199  32.811   7.015
    9AU     AUC 3111  27.201  33.121   6.999
    9AU     AUC 3112  27.471  32.684   7.965
    9AU     AUC 3113  27.505  33.005   7.948
    9AU     AUC 3114  27.475  32.676   7.109
    9AU     AUC 3115  27.465  32.989   7.096
    9AU     AUC 3116  26.966  32.736   7.986
    9AU     AUC 3117  26.981  33.062   7.958
    9AU     AUC 3118  26.939  32.646   7.142
    9AU     AUC 3119  26.937  32.964   7.105
    9AU     AUC 3120  27.648  33.085   7.354
    9AU     AUC 3121  27.653  33.095   7.678
    9AU     AUC 3122  26.794  33.104   7.355
    9AU     AUC 3123  26.811  33.148   7.684
    9AU     AUC 3124  27.617  32.560   7.369
    9AU     AUC 3125  27.628  32.566   7.699
    9AU     AUC 3126  26.775  32.577   7.423
    9AU     AUC 3127  26.795  32.609   7.749
    9AU     AUC 3128  27.090  33.282   7.778
    9AU     AUC 3129  27.430  33.272   7.763
    9AU     AUC 3130  27.051  32.443   7.836
    9AU     AUC 3131  27.369  32.425   7.814
    9AU     AUC 3132  27.050  33.248   7.246
    9AU     AUC 3133  27.388  33.249   7.246
    9AU     AUC 3134  27.038  32.404   7.309
    9AU     AUC 3135  27.373  32.412   7.286
    9AU    AUSL 3136  27.648  32.784   8.161
    9AU    AUSL 3137  27.522  32.439   8.145
    9AU     AUL 3138  27.910  32.584   8.281
    9AU    AUSL 3139  27.328  32.706   8.294
    9AU    AUSL 3140  27.120  33.074   8.285
    9AU     AUL 3141  27.381  32.980   8.574
    9AU    AUSL 3142  27.457  33.077   8.242
    9AU    AUSL 3143  27.814  33.060   8.013
    9AU     AUL 3144  27.795  32.989   8.407
    9AU    AUSL 3145  27.644  32.895   6.894
    9AU    AUSL 3146  27.516  33.241   6.920
    9AU     AUL 3147  27.892  33.094   6.756
    9AU    AUSL 3148  27.425  32.652   6.810
    9AU    AUSL 3149  27.779  32.590   7.031
    9AU     AUL 3150  27.786  32.665   6.656
    9AU    AUSL 3151  27.298  32.961   6.783
    9AU    AUSL 3152  27.081  32.625   6.823
    9AU     AUL 3153  27.311  32.500   6.591
    9AU    AUSL 3154  26.797  33.013   8.176
    9AU    AUSL 3155  26.982  33.352   8.059
    9AU     AUL 3156  26.952  33.360   8.397
    9AU    AUSL 3157  26.979  32.739   8.268
    9AU    AUSL 3158  26.710  32.629   8.052
    9AU     AUL 3159  26.522  32.831   8.209
    9AU    AUSL 3160  26.764  32.684   6.921
    9AU    AUSL 3161  26.896  32.369   7.031
    9AU     AUL 3162  26.975  32.329   6.705
    9AU    AUSL 3163  26.949  32.953   6.822
    9AU    AUSL 3164  26.669  33.083   7.049
    9AU     AUL 3165  26.518  32.858   6.872
    9AU    AUSL 3166  27.887  33.259   7.439
    9AU    AUSL 3167  27.789  33.121   7.114
    9AU     AUL 3168  28.124  33.078   7.070
    9AU    AUSL 3169  27.984  32.933   7.356
    9AU    AUSL 3170  27.967  32.674   7.677
    9AU     AUL 3171  28.292  32.759   7.509
    9AU    AUSL 3172  27.868  33.007   7.672
    9AU    AUSL 3173  27.775  33.356   7.760
    9AU     AUL 3174  28.093  33.063   7.782
    9AU    AUSL 3175  26.632  33.342   7.506
    9AU    AUSL 3176  26.661  33.223   7.941
    9AU     AUL 3177  26.350  33.392   7.717
    9AU    AUSL 3178  26.503  33.004   7.334
    9AU    AUSL 3179  26.763  33.397   7.191
    9AU     AUL 3180  26.391  33.312   7.216
    9AU    AUSL 3181  26.496  33.045   7.707
    9AU    AUSL 3182  26.440  32.695   7.446
    9AU     AUL 3183  26.215  33.075   7.499
    9AU    AUSL 3184  27.828  32.365   7.597
    9AU    AUSL 3185  27.780  32.534   7.937
    9AU     AUL 3186  28.123  32.578   7.920
    9AU    AUSL 3187  27.839  32.619   7.365
    9AU    AUSL 3188  27.706  32.296   7.256
    9AU     AUL 3189  28.066  32.528   7.265
    9AU    AUSL 3190  26.597  32.423   7.620
    9AU    AUSL 3191  26.601  32.538   7.183
    9AU     AUL 3192  26.389  32.299   7.414
    9AU    AUSL 3193  26.491  32.718   7.797
    9AU    AUSL 3194  26.762  32.308   7.908
    9AU     AUL 3195  26.439  32.391   7.939
    9AU    AUSL 3196  27.286  33.507   7.943
    9AU    AUSL 3197  26.824  33.495   7.767
    9AU     AUL 3198  27.040  33.724   8.031
    9AU    AUSL 3199  27.137  33.463   7.629
    9AU    AUSL 3200  27.372  33.597   7.342
    9AU     AUL 3201  27.136  33.780   7.646
    9AU    AUSL 3202  27.501  33.562   7.654
    9AU    AUSL 3203  27.565  33.311   8.031
    9AU     AUL 3204  27.602  33.634   7.989
    9AU    AUSL 3205  27.247  32.245   7.992
    9AU    AUSL 3206  27.586  32.247   7.854
    9AU     AUL 3207  27.379  32.160   8.267
    9AU    AUSL 3208  27.009  32.136   7.758
    9AU    AUSL 3209  26.991  32.415   8.157
    9AU     AUL 3210  26.962  32.036   8.092
    9AU    AUSL 3211  27.328  32.087   7.679
    9AU    AUSL 3212  27.063  32.103   7.411
    9AU     AUL 3213  26.877  31.898   7.606
    9AU    AUSL 3214  27.228  33.404   7.089
    9AU    AUSL 3215  27.636  33.414   7.228
    9AU     AUL 3216  27.413  33.577   6.931
    9AU    AUSL 3217  27.021  33.581   7.324
    9AU    AUSL 3218  26.952  33.269   6.925
    9AU     AUL 3219  27.004  33.599   6.940
    9AU    AUSL 3220  27.193  32.207   7.105
    9AU    AUSL 3221  26.748  32.247   7.333
    9AU     AUL 3222  26.900  31.990   7.093
    9AU    AUSL 3223  27.427  32.129   7.356
    9AU    AUSL 3224  27.490  32.384   6.999
    9AU     AUL 3225  27.448  32.090   6.960
    9AU       S 3226  27.868  32.048   8.284
    9AU     LIG 3227  28.027  31.572   8.291
    9AU     LIG 3228  28.264  31.145   8.355
    9AU     LIG 3229  28.686  31.040   8.572
    9AU       S 3230  27.618  32.521   8.692
    9AU     LIG 3231  27.762  32.741   9.086
    9AU     LIG 3232  27.966  32.896   9.481
    9AU     LIG 3233  28.170  32.880   9.902
    9AU       S 3234  27.281  32.486   8.687
    9AU     LIG 3235  27.275  32.554   9.156
    9AU     LIG 3236  27.572  32.543   9.544
    9AU     LIG 3237  27.968  32.410   9.778
    9AU       S 3238  26.911  32.983   8.758
    9AU     LIG 3239  26.851  32.877   9.192
    9AU     LIG 3240  26.528  32.800   9.496
    9AU     LIG 3241  26.381  32.806   9.949
    9AU       S 3242  27.526  33.475   8.534
    9AU     LIG 3243  27.537  33.625   8.973
    9AU     LIG 3244  27.854  33.553   9.293
    9AU     LIG 3245  28.271  33.440   9.146
    9AU       S 3246  28.155  33.333   8.208
    9AU     LIG 3247  28.372  33.494   8.596
    9AU     LIG 3248  28.511  33.817   8.872
    9AU     LIG 3249  28.698  34.154   9.128
    9AU       S 3250  27.582  33.094   6.361
    9AU     LIG 3251  27.762  33.010   5.933
    9AU     LIG 3252  27.952  32.627   5.788
    9AU     LIG 3253  27.973  32.295   5.482
    9AU       S 3254  27.873  33.614   6.767
    9AU     LIG 3255  27.775  34.021   6.569
    9AU     LIG 3256  27.972  34.265   6.227
    9AU     LIG 3257  28.401  34.192   6.122
    9AU       S 3258  28.083  32.258   6.838
    9AU     LIG 3259  28.317  32.089   6.492
    9AU     LIG 3260  28.352  31.695   6.309
    9AU     LIG 3261  28.476  31.275   6.380
    9AU       S 3262  27.443  32.868   6.292
    9AU     LIG 3263  27.429  32.604   5.928
    9AU     LIG 3264  27.471  32.439   5.507
    9AU     LIG 3265  27.648  32.411   5.084
    9AU       S 3266  26.917  32.729   6.348
    9AU     LIG 3267  26.795  32.734   5.922
    9AU     LIG 3268  26.984  32.636   5.540
    9AU     LIG 3269  26.842  32.546   5.122
    9AU       S 3270  27.296  33.105   6.406
    9AU     LIG 3271  27.157  33.088   5.948
    9AU     LIG 3272  27.389  32.962   5.563
    9AU     LIG 3273  27.780  32.837   5.354
    9AU       S 3274  26.656  33.013   8.654
    9AU     LIG 3275  26.405  32.764   8.927
    9AU     LIG 3276  26.290  32.438   9.205
    9AU     LIG 3277  26.281  32.370   9.665
    9AU       S 3278  26.562  33.665   8.218
    9AU     LIG 3279  26.239  33.962   8.343
    9AU     LIG 3280  26.038  33.980   8.738
    9AU     LIG 3281  25.640  34.009   8.969
    9AU       S 3282  26.523  32.392   8.461
    9AU     LIG 3283  26.039  32.308   8.442
    9AU     LIG 3284  25.661  32.013   8.340
    9AU     LIG 3285  25.444  31.631   8.524
    9AU       S 3286  26.845  32.737   8.656
    9AU     LIG 3287  26.786  32.423   8.982
    9AU     LIG 3288  26.750  32.316   9.403
    9AU     LIG 3289  26.774  32.473   9.808
    9AU       S 3290  26.646  32.648   6.437
    9AU     LIG 3291  26.487  32.350   6.111
    9AU     LIG 3292  26.487  32.397   5.655
    9AU     LIG 3293  26.504  32.802   5.445
    9AU       S 3294  26.492  32.205   6.776
    9AU     LIG 3295  26.415  31.949   6.426
    9AU     LIG 3296  26.344  31.804   6.014
    9AU     LIG 3297  26.160  31.429   5.845
    9AU       S 3298  26.427  33.296   6.666
    9AU     LIG 3299  26.057  33.566   6.730
    9AU     LIG 3300  25.795  33.827   6.490
    9AU     LIG 3301  25.878  34.040   6.089
    9AU       S 3302  26.817  32.975   6.442
    9AU     LIG 3303  26.528  33.115   6.175
    9AU     LIG 3304  26.623  33.206   5.762
    9AU     LIG 3305  26.930  33.156   5.448
    9AU       S 3306  28.063  33.573   6.959
    9AU     LIG 3307  28.306  33.737   6.565
    9AU     LIG 3308  28.596  33.722   6.190
    9AU     LIG 3309  28.868  34.011   5.935
    9AU       S 3310  28.192  33.529   7.445
    9AU     LIG 3311  28.447  33.881   7.660
    9AU     LIG 3312  28.862  33.824   7.833
    9AU     LIG 3313  29.282  33.715   7.676
    9AU       S 3314  28.437  33.266   7.411
    9AU     LIG 3315  28.897  33.395   7.497
    9AU     LIG 3316  29.353  33.330   7.347
    9AU     LIG 3317  29.639  33.594   7.100
    9AU       S 3318  28.330  32.214   7.645
    9AU     LIG 3319  28.768  32.065   7.789
    9AU     LIG 3320  29.245  32.046   7.834
    9AU     LIG 3321  29.695  31.918   7.792
    9AU       S 3322  28.113  33.567   7.975
    9AU     LIG 3323  28.446  33.809   8.172
    9AU     LIG 3324  28.510  34.142   8.471
    9AU     LIG 3325  28.280  34.286   8.847
    9AU       S 3326  28.368  33.404   7.584
    9AU     LIG 3327  28.622  33.381   7.941
    9AU     LIG 3328  29.077  33.361   7.995
    9AU     LIG 3329  29.487  33.254   7.834
    9AU       S 3330  26.413  33.406   8.245
    9AU     LIG 3331  25.993  33.518   8.426
    9AU     LIG 3332  25.628  33.817   8.452
    9AU     LIG 3333  25.246  34.074   8.592
    9AU       S 3334  26.518  33.816   7.424
    9AU     LIG 3335  26.324  34.142   7.162
    9AU     LIG 3336  25.931  34.032   6.961
    9AU     LIG 3337  25.599  33.718   6.971
    9AU       S 3338  26.059  32.824   7.085
    9AU     LIG 3339  25.668  32.687   6.959
    9AU     LIG 3340  25.306  32.896   7.056
    9AU     LIG 3341  25.187  33.335   7.102
    9AU       S 3342  26.516  33.717   6.905
    9AU     LIG 3343  26.283  34.025   6.598
    9AU     LIG 3344  25.905  34.326   6.526
    9AU     LIG 3345  25.674  34.554   6.185
    9AU       S 3346  25.985  32.609   7.537
    9AU     LIG 3347  25.796  32.286   7.255
    9AU     LIG 3348  25.406  32.250   7.029
    9AU     LIG 3349  25.015  32.474   6.997
    9AU       S 3350  26.083  33.076   8.027
    9AU     LIG 3351  25.669  33.114   8.284
    9AU     LIG 3352  25.312  33.384   8.414
    9AU     LIG 3353  25.150  33.760   8.182
    9AU       S 3354  28.053  32.018   7.564
    9AU     LIG 3355  28.313  31.615   7.476
    9AU     LIG 3356  28.722  31.561   7.696
    9AU     LIG 3357  29.081  31.547   8.009
    9AU       S 3358  28.041  32.097   8.068
    9AU     LIG 3359  28.350  31.812   7.962
    9AU     LIG 3360  28.561  31.562   8.261
    9AU     LIG 3361  28.420  31.485   8.703
    9AU       S 3362  28.254  32.111   7.424
    9AU     LIG 3363  28.659  31.930   7.304
    9AU     LIG 3364  29.071  32.082   7.347
    9AU     LIG 3365  29.375  32.402   7.161
    9AU       S 3366  27.957  32.031   7.044
    9AU     LIG 3367  28.157  31.698   6.840
    9AU     LIG 3368  28.125  31.268   6.814
    9AU     LIG 3369  28.076  30.984   6.514
    9AU       S 3370  26.293  32.362   6.910
    9AU     LIG 3371  26.120  32.386   6.486
    9AU     LIG 3372  25.949  32.084   6.187
    9AU     LIG 3373  25.595  31.780   6.122
    9AU       S 3374  25.999  32.427   7.708
    9AU     LIG 3375  25.707  32.120   7.781
    9AU     LIG 3376  25.405  31.976   7.469
    9AU     LIG 3377  25.021  31.966   7.204
    9AU       S 3378  26.527  32.118   8.346
    9AU     LIG 3379  26.127  31.930   8.112
    9AU     LIG 3380  25.819  31.596   8.085
    9AU     LIG 3381  25.824  31.310   8.417
    9AU       S 3382  26.025  32.658   7.783
    9AU     LIG 3383  25.630  32.746   7.927
    9AU     LIG 3384  25.436  32.437   8.142
    9AU     LIG 3385  25.216  32.157   7.906
    9AU       S 3386  26.549  33.834   7.922
    9AU     LIG 3387  26.177  34.138   7.838
    9AU     LIG 3388  25.820  34.214   8.134
    9AU     LIG 3389  25.700  34.320   8.557
    9AU       S 3390  27.438  34.091   7.921
    9AU     LIG 3391  27.649  34.279   8.284
    9AU     LIG 3392  27.385  34.500   8.589
    9AU     LIG 3393  27.136  34.880   8.705
    9AU       S 3394  27.441  34.250   7.684
    9AU     LIG 3395  27.044  34.527   7.674
    9AU     LIG 3396  26.897  34.862   7.968
    9AU     LIG 3397  27.226  35.097   8.254
    9AU       S 3398  27.373  34.016   7.239
    9AU     LIG 3399  27.293  34.478   7.233
    9AU     LIG 3400  27.542  34.681   6.962
    9AU     LIG 3401  27.808  34.536   6.634
    9AU       S 3402  27.974  33.500   8.285
    9AU     LIG 3403  28.041  33.885   8.489
    9AU     LIG 3404  27.997  33.872   8.916
    9AU     LIG 3405  28.229  33.942   9.293
    9AU       S 3406  27.677  33.987   7.621
    9AU     LIG 3407  27.784  34.384   7.352
    9AU     LIG 3408  27.580  34.713   7.600
    9AU     LIG 3409  27.387  34.656   8.037
    9AU       S 3410  27.395  31.705   8.047
    9AU     LIG 3411  27.614  31.296   8.104
    9AU     LIG 3412  27.448  30.933   8.352
    9AU     LIG 3413  27.195  30.537   8.463
    9AU       S 3414  27.819  31.956   7.991
    9AU     LIG 3415  27.919  31.565   7.786
    9AU     LIG 3416  28.287  31.313   7.880
    9AU     LIG 3417  28.723  31.140   8.028
    9AU       S 3418  27.191  31.613   7.876
    9AU     LIG 3419  27.167  31.158   7.917
    9AU     LIG 3420  27.231  30.709   7.948
    9AU     LIG 3421  26.953  30.380   8.013
    9AU       S 3422  26.775  32.263   8.519
    9AU     LIG 3423  26.397  32.086   8.823
    9AU     LIG 3424  26.024  31.812   8.673
    9AU     LIG 3425  25.780  31.465   8.899
    9AU       S 3426  27.228  31.631   7.341
    9AU     LIG 3427  27.120  31.228   7.082
    9AU     LIG 3428  27.293  30.867   6.896
    9AU     LIG 3429  27.341  30.403   6.848
    9AU       S 3430  27.433  31.713   7.787
    9AU     LIG 3431  27.526  31.296   7.577
    9AU     LIG 3432  27.649  30.899   7.716
    9AU     LIG 3433  27.784  30.663   8.074
    9AU       S 3434  27.228  34.030   7.039
    9AU     LIG 3435  27.316  34.302   6.708
    9AU     LIG 3436  27.338  34.701   6.489
    9AU     LIG 3437  27.315  35.119   6.629
    9AU       S 3438  27.871  33.740   7.122
    9AU     LIG 3439  28.045  34.123   6.992
    9AU     LIG 3440  28.267  34.243   6.635
    9AU     LIG 3441  28.702  34.063   6.558
    9AU       S 3442  26.984  34.030   7.232
    9AU     LIG 3443  26.840  34.368   6.989
    9AU     LIG 3444  27.017  34.773   6.906
    9AU     LIG 3445  26.919  35.213   6.936
    9AU       S 3446  26.645  33.444   6.621
    9AU     LIG 3447  26.375  33.622   6.282
    9AU     LIG 3448  26.380  34.014   6.055
    9AU     LIG 3449  26.199  34.441   6.104
    9AU       S 3450  26.394  32.056   6.976
    9AU     LIG 3451  26.009  31.932   6.731
    9AU     LIG 3452  25.993  31.603   6.389
    9AU     LIG 3453  25.763  31.282   6.133
    9AU       S 3454  27.357  31.647   7.142
    9AU     LIG 3455  27.622  31.458   6.789
    9AU     LIG 3456  27.576  31.074   6.520
    9AU     LIG 3457  27.532  30.612   6.379
    9AU       S 3458  27.582  31.746   7.329
    9AU     LIG 3459  27.877  31.458   7.238
    9AU     LIG 3460  27.720  31.057   7.096
    9AU     LIG 3461  27.755  30.698   6.826
    9AU       S 3462  27.881  32.139   6.738
    9AU     LIG 3463  27.852  31.828   6.443
    9AU     LIG 3464  27.918  31.416   6.329
    9AU     LIG 3465  27.846  31.027   6.063
   10AU     AUC 3466  16.757  29.218   7.513
   10AU     AUC 3467  17.008  29.211   7.348
   10AU     AUC 3468  17.012  29.221   7.670
   10AU     AUC 3469  16.496  29.205   7.361
   10AU     AUC 3470  16.503  29.237   7.678
   10AU     AUC 3471  16.607  29.473   7.494
   10AU     AUC 3472  16.924  29.474   7.493
   10AU     AUC 3473  16.598  28.960   7.535
   10AU     AUC 3474  16.913  28.958   7.522
   10AU     AUC 3475  16.757  29.077   7.782
   10AU     AUC 3476  16.769  29.397   7.760
   10AU     AUC 3477  16.753  29.042   7.263
   10AU     AUC 3478  16.753  29.358   7.243
   10AU     AUC 3479  17.261  29.219   7.184
   10AU     AUC 3480  17.263  29.209   7.507
   10AU     AUC 3481  17.266  29.206   7.831
   10AU     AUC 3482  16.241  29.184   7.207
   10AU     AUC 3483  16.237  29.229   7.530
   10AU     AUC 3484  16.255  29.268   7.847
   10AU     AUC 3485  16.454  29.728   7.464
   10AU     AUC 3486  16.792  29.733   7.461
   10AU     AUC 3487  17.107  29.731   7.471
   10AU     AUC 3488  16.438  28.704   7.558
   10AU     AUC 3489  16.765  28.699   7.536
   10AU     AUC 3490  17.081  28.701   7.532
   10AU     AUC 3491  16.758  28.936   8.051
   10AU     AUC 3492  16.763  29.262   8.044
   10AU     AUC 3493  16.792  29.581   8.005
   10AU     AUC 3494  16.766  28.867   7.013
   10AU     AUC 3495  16.742  29.181   6.990
   10AU     AUC 3496  16.743  29.494   6.975
   10AU     AUC 3497  17.008  29.067   7.945
   10AU     AUC 3498  17.037  29.390   7.926
   10AU     AUC 3499  17.021  29.051   7.086
   10AU     AUC 3500  17.003  29.367   7.073
   10AU     AUC 3501  16.504  29.106   7.956
   10AU     AUC 3502  16.511  29.431   7.929
   10AU     AUC 3503  16.492  29.010   7.112
   10AU     AUC 3504  16.480  29.333   7.081
   10AU     AUC 3505  17.185  29.469   7.333
   10AU     AUC 3506  17.185  29.482   7.657
   10AU     AUC 3507  16.334  29.473   7.327
   10AU     AUC 3508  16.343  29.512   7.656
   10AU     AUC 3509  17.165  28.944   7.350
   10AU     AUC 3510  17.171  28.952   7.683
   10AU     AUC 3511  16.331  28.939   7.395
   10AU     AUC 3512  16.333  28.971   7.711
   10AU     AUC 3513  16.620  29.654   7.752
   10AU     AUC 3514  16.961  29.655   7.741
   10AU     AUC 3515  16.598  28.815   7.807
   10AU     AUC 3516  16.916  28.804   7.795
   10AU     AUC 3517  16.592  29.621   7.220
   10AU     AUC 3518  16.929  29.629   7.221
   10AU     AUC 3519  16.598  28.770   7.281
   10AU     AUC 3520  16.933  28.787   7.261
   10AU    AUSL 3521  17.180  29.172   8.142
   10AU    AUSL 3522  17.062  28.826   8.127
   10AU     AUL 3523  17.447  28.985   8.266
   10AU    AUSL 3524  16.863  29.088   8.273
   10AU    AUSL 3525  16.647  29.450   8.259
   10AU     AUL 3526  16.912  29.367   8.550
   10AU    AUSL 3527  16.983  29.464   8.216
   10AU    AUSL 3528  17.344  29.450   7.997
   10AU     AUL 3529  17.312  29.378   8.394
   10AU    AUSL 3530  17.171  29.270   6.876
   10AU    AUSL 3531  17.058  29.616   6.894
   10AU     AUL 3532  17.434  29.412   6.740
   10AU    AUSL 3533  16.960  29.021   6.783
   10AU    AUSL 3534  17.333  28.982   7.014
   10AU     AUL 3535  17.308  29.030   6.636
   10AU    AUSL 3536  16.833  29.334   6.756
   10AU    AUSL 3537  16.617  28.990   6.797
   10AU     AUL 3538  16.829  28.891   6.545
   10AU    AUSL 3539  16.327  29.382   8.144
   10AU    AUSL 3540  16.502  29.713   8.028
   10AU     AUL 3541  16.476  29.741   8.359
   10AU    AUSL 3542  16.515  29.113   8.242
   10AU    AUSL 3543  16.254  28.995   8.025
   10AU     AUL 3544  16.061  29.185   8.184
   10AU    AUSL 3545  16.299  29.056   6.893
   10AU    AUSL 3546  16.466  28.717   7.003
   10AU     AUL 3547  16.446  28.727   6.650
   10AU    AUSL 3548  16.484  29.320   6.806
   10AU    AUSL 3549  16.207  29.449   7.019
   10AU     AUL 3550  16.034  29.186   6.886
   10AU    AUSL 3551  17.420  29.642   7.415
   10AU    AUSL 3552  17.329  29.497   7.090
   10AU     AUL 3553  17.661  29.411   7.050
   10AU    AUSL 3554  17.521  29.322   7.348
   10AU    AUSL 3555  17.506  29.068   7.665
   10AU     AUL 3556  17.830  29.163   7.513
   10AU    AUSL 3557  17.397  29.398   7.658
   10AU    AUSL 3558  17.307  29.745   7.735
   10AU     AUL 3559  17.624  29.450   7.761
   10AU    AUSL 3560  16.170  29.708   7.483
   10AU    AUSL 3561  16.183  29.579   7.901
   10AU     AUL 3562  15.862  29.723   7.663
   10AU    AUSL 3563  16.033  29.392   7.303
   10AU    AUSL 3564  16.304  29.765   7.165
   10AU     AUL 3565  15.938  29.696   7.208
   10AU    AUSL 3566  16.023  29.388   7.673
   10AU    AUSL 3567  16.019  29.078   7.421
   10AU     AUL 3568  15.726  29.353   7.459
   10AU    AUSL 3569  17.377  28.758   7.584
   10AU    AUSL 3570  17.322  28.923   7.923
   10AU     AUL 3571  17.660  28.980   7.914
   10AU    AUSL 3572  17.378  29.011   7.353
   10AU    AUSL 3573  17.272  28.687   7.238
   10AU     AUL 3574  17.611  28.945   7.254
   10AU    AUSL 3575  16.109  28.770   7.543
   10AU    AUSL 3576  16.182  28.887   7.159
   10AU     AUL 3577  15.848  28.963   7.198
   10AU    AUSL 3578  16.036  29.059   7.766
   10AU    AUSL 3579  16.309  28.687   7.857
   10AU     AUL 3580  16.003  28.738   7.917
   10AU    AUSL 3581  16.807  29.888   7.925
   10AU    AUSL 3582  16.350  29.860   7.743
   10AU     AUL 3583  16.538  30.082   8.022
   10AU    AUSL 3584  16.665  29.834   7.605
   10AU    AUSL 3585  16.910  29.979   7.317
   10AU     AUL 3586  16.645  30.143   7.616
   10AU    AUSL 3587  17.022  29.948   7.636
   10AU    AUSL 3588  17.093  29.699   8.006
   10AU     AUL 3589  17.145  30.024   7.953
   10AU    AUSL 3590  16.792  28.619   7.972
   10AU    AUSL 3591  17.138  28.632   7.840
   10AU     AUL 3592  16.928  28.549   8.251
   10AU    AUSL 3593  16.563  28.505   7.729
   10AU    AUSL 3594  16.531  28.788   8.125
   10AU     AUL 3595  16.488  28.413   8.054
   10AU    AUSL 3596  16.888  28.466   7.661
   10AU    AUSL 3597  16.641  28.481   7.388
   10AU     AUL 3598  16.453  28.262   7.558
   10AU    AUSL 3599  16.775  29.784   7.058
   10AU    AUSL 3600  17.181  29.797   7.200
   10AU     AUL 3601  16.977  29.981   6.920
   10AU    AUSL 3602  16.560  29.950   7.293
   10AU    AUSL 3603  16.496  29.637   6.904
   10AU     AUL 3604  16.557  29.963   6.904
   10AU    AUSL 3605  16.773  28.569   7.076
   10AU    AUSL 3606  16.316  28.598   7.315
   10AU     AUL 3607  16.494  28.341   7.088
   10AU    AUSL 3608  17.001  28.507   7.342
   10AU    AUSL 3609  17.059  28.760   6.970
   10AU     AUL 3610  17.058  28.451   6.959
   10AU       S 3611  17.420  28.457   8.277
   10AU     LIG 3612  17.463  28.018   8.443
   10AU     LIG 3613  17.566  27.625   8.777
   10AU     LIG 3614  17.770  27.223   8.995
   10AU       S 3615  17.153  28.909   8.674
   10AU     LIG 3616  17.331  29.154   9.041
   10AU     LIG 3617  17.595  29.199   9.427
   10AU     LIG 3618  17.876  29.107   9.798
   10AU       S 3619  16.816  28.873   8.663
   10AU     LIG 3620  16.828  28.974   9.112
   10AU     LIG 3621  17.155  28.889   9.457
   10AU     LIG 3622  17.547  28.709   9.667
   10AU       S 3623  16.438  29.373   8.727
   10AU     LIG 3624  16.356  29.307   9.162
   10AU     LIG 3625  16.026  29.127   9.436
   10AU     LIG 3626  15.795  29.153   9.849
   10AU       S 3627  17.030  29.868   8.501
   10AU     LIG 3628  17.218  30.052   8.867
   10AU     LIG 3629  17.484  29.858   9.161
   10AU     LIG 3630  17.849  29.605   9.152
   10AU       S 3631  17.671  29.708   8.196
   10AU     LIG 3632  17.849  29.740   8.619
   10AU     LIG 3633  18.054  30.020   8.887
   10AU     LIG 3634  18.174  30.429   9.064
   10AU       S 3635  17.126  29.512   6.357
   10AU     LIG 3636  17.464  29.394   6.065
   10AU     LIG 3637  17.677  28.999   6.032
   10AU     LIG 3638  17.601  28.610   5.808
   10AU       S 3639  17.413  29.923   6.680
   10AU     LIG 3640  17.598  30.215   6.368
   10AU     LIG 3641  17.823  30.408   6.007
   10AU     LIG 3642  18.118  30.753   5.956
   10AU       S 3643  17.682  28.698   6.815
   10AU     LIG 3644  17.834  28.626   6.370
   10AU     LIG 3645  17.901  28.272   6.091
   10AU     LIG 3646  17.918  27.838   6.220
   10AU       S 3647  17.008  29.263   6.268
   10AU     LIG 3648  17.166  28.952   5.970
   10AU     LIG 3649  17.132  28.775   5.549
   10AU     LIG 3650  17.162  28.978   5.136
   10AU       S 3651  16.445  29.140   6.315
   10AU     LIG 3652  16.386  29.194   5.885
   10AU     LIG 3653  16.545  28.974   5.542
   10AU     LIG 3654  16.334  29.029   5.165
   10AU       S 3655  16.833  29.489   6.387
   10AU     LIG 3656  16.761  29.529   5.925
   10AU     LIG 3657  16.993  29.287   5.608
   10AU     LIG 3658  17.449  29.178   5.581
   10AU       S 3659  16.184  29.400   8.618
   10AU     LIG 3660  15.926  29.175   8.880
   10AU     LIG 3661  15.753  28.842   9.079
   10AU     LIG 3662  15.612  28.792   9.503
   10AU       S 3663  16.055  30.001   8.191
   10AU     LIG 3664  15.847  30.288   8.478
   10AU     LIG 3665  15.692  30.171   8.895
   10AU     LIG 3666  15.383  30.246   9.236
   10AU       S 3667  16.095  28.761   8.454
   10AU     LIG 3668  15.656  28.760   8.572
   10AU     LIG 3669  15.258  28.516   8.530
   10AU     LIG 3670  15.105  28.229   8.803
   10AU       S 3671  16.382  29.126   8.636
   10AU     LIG 3672  16.307  28.839   8.984
   10AU     LIG 3673  16.123  28.628   9.360
   10AU     LIG 3674  16.011  28.677   9.819
   10AU       S 3675  16.165  29.101   6.404
   10AU     LIG 3676  16.066  28.820   6.040
   10AU     LIG 3677  16.017  28.935   5.596
   10AU     LIG 3678  16.039  29.362   5.461
   10AU       S 3679  16.067  28.417   6.828
   10AU     LIG 3680  15.880  28.137   6.526
   10AU     LIG 3681  15.703  28.204   6.112
   10AU     LIG 3682  15.275  28.135   5.955
   10AU       S 3683  15.970  29.627   6.651
   10AU     LIG 3684  15.616  29.904   6.712
   10AU     LIG 3685  15.560  30.324   6.588
   10AU     LIG 3686  15.473  30.473   6.178
   10AU       S 3687  16.351  29.366   6.430
   10AU     LIG 3688  16.126  29.583   6.131
   10AU     LIG 3689  16.291  29.705   5.740
   10AU     LIG 3690  16.534  29.473   5.431
   10AU       S 3691  17.614  29.890   6.903
   10AU     LIG 3692  17.939  29.883   6.566
   10AU     LIG 3693  18.107  29.996   6.150
   10AU     LIG 3694  18.400  30.308   5.952
   10AU       S 3695  17.729  29.917   7.420
   10AU     LIG 3696  18.028  30.217   7.702
   10AU     LIG 3697  18.476  30.182   7.774
   10AU     LIG 3698  18.800  30.101   7.474
   10AU       S 3699  17.958  29.665   7.358
   10AU     LIG 3700  18.393  29.802   7.364
   10AU     LIG 3701  18.810  29.608   7.300
   10AU     LIG 3702  19.074  29.891   7.081
   10AU       S 3703  17.871  28.615   7.648
   10AU     LIG 3704  18.157  28.483   7.949
   10AU     LIG 3705  18.603  28.546   7.911
   10AU     LIG 3706  18.908  28.362   7.642
   10AU       S 3707  17.655  29.941   7.961
   10AU     LIG 3708  18.013  30.085   8.222
   10AU     LIG 3709  18.083  30.411   8.543
   10AU     LIG 3710  17.858  30.739   8.783
   10AU       S 3711  17.904  29.777   7.553
   10AU     LIG 3712  18.219  29.726   7.844
   10AU     LIG 3713  18.676  29.700   7.806
   10AU     LIG 3714  18.901  29.984   8.053
   10AU       S 3715  15.910  29.741   8.198
   10AU     LIG 3716  15.552  29.883   8.470
   10AU     LIG 3717  15.209  30.049   8.753
   10AU     LIG 3718  14.910  30.167   9.065
   10AU       S 3719  16.049  30.186   7.404
   10AU     LIG 3720  15.806  30.557   7.224
   10AU     LIG 3721  15.410  30.417   7.071
   10AU     LIG 3722  15.276  29.970   7.112
   10AU       S 3723  15.575  29.419   6.972
   10AU     LIG 3724  15.121  29.354   7.119
   10AU     LIG 3725  14.830  29.694   7.046
   10AU     LIG 3726  14.843  30.153   6.920
   10AU       S 3727  16.065  30.064   6.880
   10AU     LIG 3728  16.059  30.456   6.730
   10AU     LIG 3729  15.764  30.769   6.748
   10AU     LIG 3730  15.351  30.812   6.532
   10AU       S 3731  15.549  28.854   7.583
   10AU     LIG 3732  15.173  28.784   7.332
   10AU     LIG 3733  14.731  28.949   7.259
   10AU     LIG 3734  14.423  28.845   6.947
   10AU       S 3735  15.617  29.371   7.973
   10AU     LIG 3736  15.294  29.491   8.283
   10AU     LIG 3737  15.064  29.893   8.277
   10AU     LIG 3738  14.964  30.005   7.869
   10AU       S 3739  17.614  28.442   7.555
   10AU     LIG 3740  17.785  28.105   7.320
   10AU     LIG 3741  18.109  28.108   7.600
   10AU     LIG 3742  18.488  28.040   7.839
   10AU       S 3743  17.602  28.488   8.060
   10AU     LIG 3744  17.842  28.069   8.055
   10AU     LIG 3745  17.989  27.881   8.429
   10AU     LIG 3746  17.821  28.100   8.809
   10AU       S 3747  17.845  28.568   7.438
   10AU     LIG 3748  18.190  28.432   7.202
   10AU     LIG 3749  18.623  28.295   7.224
   10AU     LIG 3750  19.025  28.543   7.150
   10AU       S 3751  17.577  28.463   7.028
   10AU     LIG 3752  17.894  28.207   6.830
   10AU     LIG 3753  17.762  27.789   6.788
   10AU     LIG 3754  17.583  27.554   6.476
   10AU       S 3755  15.942  28.594   6.876
   10AU     LIG 3756  15.776  28.636   6.443
   10AU     LIG 3757  15.356  28.551   6.304
   10AU     LIG 3758  14.990  28.413   6.559
   10AU       S 3759  15.672  28.619   7.553
   10AU     LIG 3760  15.300  28.421   7.705
   10AU     LIG 3761  15.016  28.241   7.381
   10AU     LIG 3762  14.725  28.452   7.135
   10AU       S 3763  16.092  28.518   8.354
   10AU     LIG 3764  15.657  28.375   8.236
   10AU     LIG 3765  15.411  28.035   8.356
   10AU     LIG 3766  15.552  27.594   8.359
   10AU       S 3767  15.573  28.919   7.743
   10AU     LIG 3768  15.369  28.798   8.111
   10AU     LIG 3769  14.970  28.618   8.092
   10AU     LIG 3770  14.818  28.625   7.658
   10AU       S 3771  16.042  30.159   7.904
   10AU     LIG 3772  15.574  30.176   8.030
   10AU     LIG 3773  15.322  30.350   8.365
   10AU     LIG 3774  15.374  30.558   8.781
   10AU       S 3775  16.902  30.455   7.949
   10AU     LIG 3776  17.081  30.856   8.073
   10AU     LIG 3777  16.933  31.200   8.303
   10AU     LIG 3778  16.754  31.485   8.605
   10AU       S 3779  16.886  30.603   7.694
   10AU     LIG 3780  16.579  30.863   7.792
   10AU     LIG 3781  16.473  31.195   8.029
   10AU     LIG 3782  16.658  31.571   8.094
   10AU       S 3783  16.866  30.412   7.224
   10AU     LIG 3784  16.719  30.865   7.291
   10AU     LIG 3785  16.905  31.206   7.070
   10AU     LIG 3786  17.255  31.257   6.758
   10AU       S 3787  17.491  29.888   8.281
   10AU     LIG 3788  17.618  30.202   8.574
   10AU     LIG 3789  17.661  30.317   9.009
   10AU     LIG 3790  17.880  30.123   9.376
   10AU       S 3791  17.133  30.423   7.635
   10AU     LIG 3792  17.183  30.934   7.531
   10AU     LIG 3793  16.960  31.269   7.781
   10AU     LIG 3794  17.160  31.627   8.057
   10AU       S 3795  16.934  28.094   8.043
   10AU     LIG 3796  17.139  27.708   8.146
   10AU     LIG 3797  17.137  27.317   8.395
   10AU     LIG 3798  16.854  26.984   8.625
   10AU       S 3799  17.379  28.344   7.983
   10AU     LIG 3800  17.483  27.976   7.720
   10AU     LIG 3801  17.579  27.608   7.893
   10AU     LIG 3802  17.613  27.573   8.287
   10AU       S 3803  16.750  27.994   7.862
   10AU     LIG 3804  16.682  27.561   7.935
   10AU     LIG 3805  16.353  27.328   8.170
   10AU     LIG 3806  16.329  26.923   8.366
   10AU       S 3807  16.356  28.642   8.512
   10AU     LIG 3808  16.009  28.453   8.841
   10AU     LIG 3809  15.619  28.205   8.787
   10AU     LIG 3810  15.339  27.781   8.806
   10AU       S 3811  16.849  28.008   7.342
   10AU     LIG 3812  16.652  27.626   7.385
   10AU     LIG 3813  16.629  27.388   7.011
   10AU     LIG 3814  16.407  27.064   6.803
   10AU       S 3815  16.997  28.095   7.796
   10AU     LIG 3816  17.097  27.656   7.638
   10AU     LIG 3817  17.114  27.249   7.860
   10AU     LIG 3818  16.791  27.071   8.127
   10AU       S 3819  16.723  30.415   7.017
   10AU     LIG 3820  16.679  30.789   6.780
   10AU     LIG 3821  16.739  31.173   6.571
   10AU     LIG 3822  16.650  31.475   6.226
   10AU       S 3823  17.471  30.081   7.026
   10AU     LIG 3824  17.838  30.332   6.811
   10AU     LIG 3825  18.128  30.439   6.432
   10AU     LIG 3826  18.521  30.701   6.285
   10AU       S 3827  16.484  30.391   7.197
   10AU     LIG 3828  16.262  30.766   7.072
   10AU     LIG 3829  16.402  31.191   6.989
   10AU     LIG 3830  16.414  31.562   6.694
   10AU       S 3831  16.178  29.809   6.609
   10AU     LIG 3832  15.954  30.083   6.342
   10AU     LIG 3833  15.975  30.524   6.227
   10AU     LIG 3834  15.805  30.937   6.269
   10AU       S 3835  15.946  28.401   7.121
   10AU     LIG 3836  15.510  28.365   6.811
   10AU     LIG 3837  15.363  28.077   6.475
   10AU     LIG 3838  15.552  27.715   6.280
   10AU       S 3839  16.922  28.002   7.107
   10AU     LIG 3840  17.212  27.830   6.734
   10AU     LIG 3841  17.095  27.546   6.357
   10AU     LIG 3842  16.822  27.169   6.425
   10AU       S 3843  17.166  28.120   7.338
   10AU     LIG 3844  17.396  27.789   7.235
   10AU     LIG 3845  17.140  27.494   7.118
   10AU     LIG 3846  17.194  27.282   6.771
   10AU       S 3847  17.484  28.530   6.725
   10AU     LIG 3848  17.544  28.156   6.460
   10AU     LIG 3849  17.422  27.891   6.112
   10AU     LIG 3850  17.512  27.473   5.940
   11POPC   NC3 3851   2.447   6.353   9.766
   11POPC   PO4 3852   3.059   6.698   9.588
   11POPC   GL1 3853   3.007   6.564   9.140
   11POPC   GL2 3854   2.946   6.862   9.056
   11POPC   C1A 3855   2.808   6.459   8.721
   11POPC   D2A 3856   2.710   6.673   8.331
   11POPC   C3A 3857   3.061   6.580   8.082
   11POPC   C4A 3858   2.848   6.409   7.725
   11POPC   C1B 3859   3.038   6.935   8.658
   11POPC   C2B 3860   3.108   7.154   8.323
   11POPC   C3B 3861   2.912   7.071   7.985
   11POPC   C4B 3862   2.554   6.876   7.806
   12POPC   NC3 3863   4.513  18.832   9.431
   12POPC   PO4 3864   4.046  19.336   9.646
   12POPC   GL1 3865   4.237  19.261   9.234
   12POPC   GL2 3866   3.944  19.363   9.086
   12POPC   C1A 3867   4.188  18.928   8.865
   12POPC   D2A 3868   4.291  18.664   8.490
   12POPC   C3A 3869   4.238  18.808   8.062
   12POPC   C4A 3870   3.903  18.918   7.795
   12POPC   C1B 3871   4.161  19.394   8.683
   12POPC   C2B 3872   4.343  19.300   8.283
   12POPC   C3B 3873   4.276  19.307   7.843
   12POPC   C4B 3874   3.930  19.358   7.520
   13POPC   NC3 3875   5.755  18.338   9.446
   13POPC   PO4 3876   6.389  18.483   9.649
   13POPC   GL1 3877   6.249  18.427   9.178
   13POPC   GL2 3878   6.078  18.115   9.097
   13POPC   C1A 3879   6.110  18.458   8.696
   13POPC   D2A 3880   6.220  18.620   8.243
   13POPC   C3A 3881   6.027  18.519   7.809
   13POPC   C4A 3882   6.144  18.545   7.354
   13POPC   C1B 3883   5.884  17.961   8.687
   13POPC   C2B 3884   5.657  18.129   8.320
   13POPC   C3B 3885   5.682  18.139   7.880
   13POPC   C4B 3886   5.731  18.245   7.462
   14POPC   NC3 3887   4.633  11.617   9.540
   14POPC   PO4 3888   4.432  10.983   9.640
   14POPC   GL1 3889   4.432  11.215   9.263
   14POPC   GL2 3890   4.611  10.935   9.117
   14POPC   C1A 3891   4.182  11.443   8.902
   14POPC   D2A 3892   3.933  11.396   8.517
   14POPC   C3A 3893   4.080  11.361   8.089
   14POPC   C4A 3894   4.252  11.527   7.693
   14POPC   C1B 3895   4.671  11.272   8.824
   14POPC   C2B 3896   4.488  11.507   8.474
   14POPC   C3B 3897   4.589  11.422   8.068
   14POPC   C4B 3898   4.555  11.098   7.793
   15POPC   NC3 3899  39.448   2.670   9.432
   15POPC   PO4 3900  38.816   2.626   9.721
   15POPC   GL1 3901  38.950   2.703   9.275
   15POPC   GL2 3902  39.099   3.034   9.248
   15POPC   C1A 3903  39.146   2.671   8.845
   15POPC   D2A 3904  39.225   2.361   8.550
   15POPC   C3A 3905  39.253   2.576   8.179
   15POPC   C4A 3906  39.353   2.611   7.776
   15POPC   C1B 3907  39.084   3.193   8.817
   15POPC   C2B 3908  39.191   3.031   8.423
   15POPC   C3B 3909  39.048   3.027   7.997
   15POPC   C4B 3910  38.989   2.923   7.569
   16POPC   NC3 3911  29.859   9.494   9.621
   16POPC   PO4 3912  29.649  10.149   9.608
   16POPC   GL1 3913  29.850   9.888   9.267
   16POPC   GL2 3914  29.691   9.559   9.163
   16POPC   C1A 3915  29.768   9.949   8.822
   16POPC   D2A 3916  29.678  10.071   8.403
   16POPC   C3A 3917  29.948   9.817   8.169
   16POPC   C4A 3918  30.026   9.853   7.756
   16POPC   C1B 3919  30.034   9.455   8.891
   16POPC   C2B 3920  30.176   9.462   8.474
   16POPC   C3B 3921  30.050   9.332   8.077
   16POPC   C4B 3922  30.200   9.402   7.715
   17POPC   NC3 3923  13.215  14.556   9.300
   17POPC   PO4 3924  12.732  14.623   9.793
   17POPC   GL1 3925  12.693  14.479   9.314
   17POPC   GL2 3926  12.707  14.108   9.203
   17POPC   C1A 3927  12.765  14.504   8.832
   17POPC   D2A 3928  12.857  14.593   8.384
   17POPC   C3A 3929  13.158  14.397   8.071
   17POPC   C4A 3930  13.150  14.270   7.627
   17POPC   C1B 3931  12.792  14.006   8.739
   17POPC   C2B 3932  12.637  14.115   8.288
   17POPC   C3B 3933  12.679  14.082   7.812
   17POPC   C4B 3934  12.697  14.130   7.324
   18POPC   NC3 3935   2.917  40.252   9.322
   18POPC   PO4 3936   2.824  39.571   9.371
   18POPC   GL1 3937   2.624  39.845   9.066
   18POPC   GL2 3938   2.434  40.156   9.124
   18POPC   C1A 3939   2.583  40.023   8.644
   18POPC   D2A 3940   2.384  39.992   8.258
   18POPC   C3A 3941   2.600  39.764   7.972
   18POPC   C4A 3942   3.024  39.870   7.862
   18POPC   C1B 3943   2.489  40.502   8.795
   18POPC   C2B 3944   2.677  40.522   8.384
   18POPC   C3B 3945   2.815  40.315   8.018
   18POPC   C4B 3946   2.627  40.147   7.643
   19POPC   NC3 3947  40.044   2.371   9.472
   19POPC   PO4 3948  40.265   2.977   9.486
   19POPC   GL1 3949  40.031   2.875   9.176
   19POPC   GL2 3950  40.253   2.618   9.074
   19POPC   C1A 3951  39.803   2.656   8.857
   19POPC   D2A 3952  39.602   2.724   8.503
   19POPC   C3A 3953  39.771   2.648   8.095
   19POPC   C4A 3954  39.711   2.981   7.812
   19POPC   C1B 3955  40.545   2.376   8.826
   19POPC   C2B 3956  40.616   2.423   8.375
   19POPC   C3B 3957  40.309   2.674   8.150
   19POPC   C4B 3958  40.172   2.729   7.738
   20POPC   NC3 3959  23.879  23.095   9.514
   20POPC   PO4 3960  23.367  23.114   9.217
   20POPC   GL1 3961  23.708  23.269   8.984
   20POPC   GL2 3962  24.008  23.073   9.028
   20POPC   C1A 3963  23.647  23.342   8.532
   20POPC   D2A 3964  23.347  23.272   8.170
   20POPC   C3A 3965  23.570  23.007   7.891
   20POPC   C4A 3966  23.966  23.149   7.813
   20POPC   C1B 3967  23.911  22.895   8.644
   20POPC   C2B 3968  23.959  22.852   8.210
   20POPC   C3B 3969  24.021  22.643   7.786
   20POPC   C4B 3970  24.017  22.421   7.368
   21POPC   NC3 3971  26.623  39.532   9.827
   21POPC   PO4 3972  26.708  38.814   9.654
   21POPC   GL1 3973  26.613  39.014   9.240
   21POPC   GL2 3974  26.778  39.372   9.217
   21POPC   C1A 3975  26.496  39.017   8.807
   21POPC   D2A 3976  26.718  39.171   8.456
   21POPC   C3A 3977  26.690  39.124   8.031
   21POPC   C4A 3978  27.064  39.384   7.953
   21POPC   C1B 3979  26.638  39.543   8.808
   21POPC   C2B 3980  26.446  39.602   8.404
   21POPC   C3B 3981  26.385  39.524   7.987
   21POPC   C4B 3982  26.670  39.488   7.637
   22POPC   NC3 3983   1.761   2.770   9.587
   22POPC   PO4 3984   1.072   2.679   9.522
   22POPC   GL1 3985   1.217   2.758   9.110
   22POPC   GL2 3986   1.583   2.682   9.112
   22POPC   C1A 3987   1.013   2.856   8.720
   22POPC   D2A 3988   1.233   2.975   8.366
   22POPC   C3A 3989   1.093   2.801   8.020
   22POPC   C4A 3990   1.096   3.032   7.652
   22POPC   C1B 3991   1.514   2.625   8.687
   22POPC   C2B 3992   1.740   2.838   8.380
   22POPC   C3B 3993   1.609   2.934   7.970
   22POPC   C4B 3994   1.452   2.676   7.634
   23POPC   NC3 3995   7.809  16.827   9.942
   23POPC   PO4 3996   7.425  16.548   9.447
   23POPC   GL1 3997   7.321  16.703   9.091
   23POPC   GL2 3998   7.442  17.015   9.100
   23POPC   C1A 3999   7.133  16.648   8.719
   23POPC   D2A 4000   7.157  16.429   8.372
   23POPC   C3A 4001   7.124  16.695   8.080
   23POPC   C4A 4002   7.347  16.866   7.773
   23POPC   C1B 4003   7.666  16.818   8.743
   23POPC   C2B 4004   7.545  16.814   8.342
   23POPC   C3B 4005   7.654  16.561   8.016
   23POPC   C4B 4006   7.845  16.530   7.629
   24POPC   NC3 4007  31.830   4.621   9.474
   24POPC   PO4 4008  32.451   4.302   9.520
   24POPC   GL1 4009  32.284   4.540   9.195
   24POPC   GL2 4010  32.421   4.845   9.222
   24POPC   C1A 4011  32.038   4.451   8.824
   24POPC   D2A 4012  32.197   4.287   8.459
   24POPC   C3A 4013  32.031   4.312   8.061
   24POPC   C4A 4014  32.263   4.191   7.699
   24POPC   C1B 4015  32.158   4.947   8.853
   24POPC   C2B 4016  32.309   4.795   8.458
   24POPC   C3B 4017  32.073   4.830   8.094
   24POPC   C4B 4018  32.167   4.710   7.684
   25POPC   NC3 4019   4.870   9.845   9.718
   25POPC   PO4 4020   5.421   9.665   9.581
   25POPC   GL1 4021   5.183   9.639   9.207
   25POPC   GL2 4022   5.419   9.364   9.108
   25POPC   C1A 4023   4.955   9.782   8.794
   25POPC   D2A 4024   4.772   9.918   8.371
   25POPC   C3A 4025   5.048   9.797   8.063
   25POPC   C4A 4026   5.035   9.618   7.654
   25POPC   C1B 4027   5.380   9.325   8.691
   25POPC   C2B 4028   5.282   9.488   8.361
   25POPC   C3B 4029   5.433   9.457   7.939
   25POPC   C4B 4030   5.715   9.464   7.585
   26POPC   NC3 4031  27.020  17.393   9.277
   26POPC   PO4 4032  26.700  17.862   9.642
   26POPC   GL1 4033  26.652  17.713   9.194
   26POPC   GL2 4034  26.493  17.410   9.060
   26POPC   C1A 4035  26.744  17.753   8.746
   26POPC   D2A 4036  26.939  17.720   8.343
   26POPC   C3A 4037  26.720  17.448   8.020
   26POPC   C4A 4038  26.662  17.676   7.638
   26POPC   C1B 4039  26.763  17.195   8.729
   26POPC   C2B 4040  27.117  17.249   8.433
   26POPC   C3B 4041  27.224  17.456   8.007
   26POPC   C4B 4042  27.077  17.391   7.575
   27POPC   NC3 4043  11.331  35.530   9.407
   27POPC   PO4 4044  11.420  34.856   9.559
   27POPC   GL1 4045  11.362  35.061   9.204
   27POPC   GL2 4046  11.709  35.188   9.237
   27POPC   C1A 4047  11.243  35.293   8.807
   27POPC   D2A 4048  11.296  35.549   8.445
   27POPC   C3A 4049  11.266  35.278   8.073
   27POPC   C4A 4050  11.107  35.417   7.687
   27POPC   C1B 4051  11.695  34.984   8.835
   27POPC   C2B 4052  11.610  34.718   8.490
   27POPC   C3B 4053  11.511  34.800   8.078
   27POPC   C4B 4054  11.622  35.081   7.740
   28POPC   NC3 4055  34.627  24.721   9.567
   28POPC   PO4 4056  34.417  24.092   9.404
   28POPC   GL1 4057  34.640  24.354   9.119
   28POPC   GL2 4058  34.743  24.720   9.093
   28POPC   C1A 4059  34.488  24.489   8.711
   28POPC   D2A 4060  34.537  24.495   8.292
   28POPC   C3A 4061  34.221  24.373   8.092
   28POPC   C4A 4062  34.193  24.515   7.749
   28POPC   C1B 4063  34.937  24.958   8.774
   28POPC   C2B 4064  35.040  24.821   8.367
   28POPC   C3B 4065  34.795  24.827   8.007
   28POPC   C4B 4066  34.781  24.558   7.632
   29POPC   NC3 4067  32.759  19.153   9.652
   29POPC   PO4 4068  33.322  18.757   9.521
   29POPC   GL1 4069  32.981  18.923   9.244
   29POPC   GL2 4070  32.575  18.936   9.233
   29POPC   C1A 4071  33.038  18.728   8.862
   29POPC   D2A 4072  33.383  18.803   8.577
   29POPC   C3A 4073  33.260  18.833   8.159
   29POPC   C4A 4074  33.091  18.704   7.775
   29POPC   C1B 4075  32.699  19.110   8.843
   29POPC   C2B 4076  32.929  19.076   8.478
   29POPC   C3B 4077  32.837  19.122   8.050
   29POPC   C4B 4078  32.882  19.124   7.598
   30POPC   NC3 4079  39.436   9.733   9.563
   30POPC   PO4 4080  38.787   9.766   9.650
   30POPC   GL1 4081  39.034   9.755   9.250
   30POPC   GL2 4082  39.242  10.065   9.215
   30POPC   C1A 4083  39.067   9.466   8.868
   30POPC   D2A 4084  39.063   9.581   8.429
   30POPC   C3A 4085  39.382   9.444   8.140
   30POPC   C4A 4086  39.304   9.683   7.785
   30POPC   C1B 4087  39.341   9.907   8.791
   30POPC   C2B 4088  39.534   9.888   8.364
   30POPC   C3B 4089  39.561  10.115   7.983
   30POPC   C4B 4090  39.362  10.134   7.551
   31POPC   NC3 4091  28.156  39.412   9.641
   31POPC   PO4 4092  28.668  38.922   9.702
   31POPC   GL1 4093  28.398  39.142   9.305
   31POPC   GL2 4094  28.417  39.496   9.203
   31POPC   C1A 4095  28.309  39.169   8.832
   31POPC   D2A 4096  28.427  39.515   8.529
   31POPC   C3A 4097  28.505  39.382   8.098
   31POPC   C4A 4098  28.361  39.060   7.823
   31POPC   C1B 4099  28.047  39.605   8.944
   31POPC   C2B 4100  27.935  39.652   8.505
   31POPC   C3B 4101  27.977  39.370   8.165
   31POPC   C4B 4102  27.939  39.382   7.733
   32POPC   NC3 4103  20.165  20.824   9.497
   32POPC   PO4 4104  19.538  20.550   9.593
   32POPC   GL1 4105  19.771  20.642   9.222
   32POPC   GL2 4106  19.996  20.364   9.310
   32POPC   C1A 4107  19.684  20.747   8.755
   32POPC   D2A 4108  19.716  20.977   8.347
   32POPC   C3A 4109  19.615  20.743   7.970
   32POPC   C4A 4110  19.869  20.743   7.581
   32POPC   C1B 4111  20.094  20.456   8.872
   32POPC   C2B 4112  20.141  20.436   8.421
   32POPC   C3B 4113  20.112  20.586   8.004
   32POPC   C4B 4114  20.239  20.401   7.620
   33POPC   NC3 4115  30.213   4.630   9.480
   33POPC   PO4 4116  30.705   4.175   9.424
   33POPC   GL1 4117  30.763   4.436   9.047
   33POPC   GL2 4118  30.452   4.572   9.009
   33POPC   C1A 4119  30.883   4.399   8.605
   33POPC   D2A 4120  31.138   4.473   8.260
   33POPC   C3A 4121  31.071   4.214   7.912
   33POPC   C4A 4122  31.032   3.786   7.980
   33POPC   C1B 4123  30.459   4.172   8.727
   33POPC   C2B 4124  30.561   4.130   8.265
   33POPC   C3B 4125  30.562   4.158   7.803
   33POPC   C4B 4126  30.408   4.102   7.326
   34POPC   NC3 4127  38.166  29.348   9.485
   34POPC   PO4 4128  38.599  28.867   9.535
   34POPC   GL1 4129  38.492  29.093   9.156
   34POPC   GL2 4130  38.642  29.391   9.054
   34POPC   C1A 4131  38.557  28.992   8.714
   34POPC   D2A 4132  38.508  28.924   8.260
   34POPC   C3A 4133  38.777  29.095   7.954
   34POPC   C4A 4134  38.412  29.222   7.755
   34POPC   C1B 4135  38.475  29.532   8.671
   34POPC   C2B 4136  38.515  29.467   8.225
   34POPC   C3B 4137  38.670  29.641   7.806
   34POPC   C4B 4138  38.769  29.367   7.425
   35POPC   NC3 4139  30.355  13.574   9.433
   35POPC   PO4 4140  29.792  13.852   9.488
   35POPC   GL1 4141  30.007  13.855   9.166
   35POPC   GL2 4142  29.951  13.477   9.144
   35POPC   C1A 4143  30.138  13.771   8.784
   35POPC   D2A 4144  29.924  13.629   8.447
   35POPC   C3A 4145  30.106  13.730   8.077
   35POPC   C4A 4146  29.957  13.871   7.740
   35POPC   C1B 4147  29.706  13.316   8.826
   35POPC   C2B 4148  29.705  13.161   8.403
   35POPC   C3B 4149  29.545  13.181   7.987
   35POPC   C4B 4150  29.729  13.416   7.622
   36POPC   NC3 4151  24.285  16.037   9.446
   36POPC   PO4 4152  24.932  16.100   9.624
   36POPC   GL1 4153  24.764  16.081   9.188
   36POPC   GL2 4154  24.539  16.335   9.115
   36POPC   C1A 4155  24.624  15.984   8.753
   36POPC   D2A 4156  24.272  15.791   8.501
   36POPC   C3A 4157  24.484  15.787   8.109
   36POPC   C4A 4158  24.699  15.780   7.726
   36POPC   C1B 4159  24.207  16.272   8.758
   36POPC   C2B 4160  24.342  16.260   8.302
   36POPC   C3B 4161  24.317  16.186   7.848
   36POPC   C4B 4162  24.505  16.128   7.423
   37POPC   NC3 4163  22.200  32.717   9.619
   37POPC   PO4 4164  21.682  32.565   9.229
   37POPC   GL1 4165  22.053  32.801   9.138
   37POPC   GL2 4166  21.964  33.115   9.114
   37POPC   C1A 4167  22.352  32.929   8.800
   37POPC   D2A 4168  22.563  32.760   8.429
   37POPC   C3A 4169  22.462  32.909   8.001
   37POPC   C4A 4170  22.357  32.687   7.632
   37POPC   C1B 4171  21.825  32.968   8.704
   37POPC   C2B 4172  22.070  32.934   8.353
   37POPC   C3B 4173  22.033  32.628   8.047
   37POPC   C4B 4174  21.751  32.727   7.731
   38POPC   NC3 4175   9.572  43.474   9.412
   38POPC   PO4 4176  10.039  43.156   9.730
   38POPC   GL1 4177   9.933  43.213   9.192
   38POPC   GL2 4178   9.880  42.893   9.008
   38POPC   C1A 4179   9.568  43.272   8.794
   38POPC   D2A 4180   9.414  43.140   8.350
   38POPC   C3A 4181   9.459  43.363   7.945
   38POPC   C4A 4182   9.452  43.102   7.549
   38POPC   C1B 4183  10.032  43.190   8.676
   38POPC   C2B 4184   9.913  43.336   8.262
   38POPC   C3B 4185   9.926  43.142   7.841
   38POPC   C4B 4186   9.948  43.020   7.403
   39POPC   NC3 4187  44.342  42.764   9.388
   39POPC   PO4 4188  44.445  43.423   9.469
   39POPC   GL1 4189  44.653  43.351   9.094
   39POPC   GL2 4190  44.793  43.024   9.203
   39POPC   C1A 4191  44.466  43.301   8.692
   39POPC   D2A 4192  44.542  42.970   8.403
   39POPC   C3A 4193  44.509  43.147   8.018
   39POPC   C4A 4194  44.556  42.878   7.687
   39POPC   C1B 4195  44.904  43.030   8.764
   39POPC   C2B 4196   0.074  42.925   8.331
   39POPC   C3B 4197   0.005  42.983   7.880
   39POPC   C4B 4198  44.941  43.014   7.389
   40POPC   NC3 4199  37.789  40.508   9.317
   40POPC   PO4 4200  37.577  41.045   9.679
   40POPC   GL1 4201  37.561  41.010   9.213
   40POPC   GL2 4202  37.828  41.125   9.051
   40POPC   C1A 4203  37.447  40.928   8.770
   40POPC   D2A 4204  37.307  40.670   8.409
   40POPC   C3A 4205  37.453  40.709   7.995
   40POPC   C4A 4206  37.800  40.485   7.826
   40POPC   C1B 4207  37.993  40.842   8.720
   40POPC   C2B 4208  37.970  40.666   8.319
   40POPC   C3B 4209  38.179  40.779   7.975
   40POPC   C4B 4210  38.067  40.860   7.575
   41POPC   NC3 4211  15.510  39.890   9.748
   41POPC   PO4 4212  14.907  40.144   9.607
   41POPC   GL1 4213  14.918  39.994   9.178
   41POPC   GL2 4214  14.757  40.300   9.095
   41POPC   C1A 4215  15.178  39.826   8.792
   41POPC   D2A 4216  15.334  40.028   8.389
   41POPC   C3A 4217  15.254  39.838   7.980
   41POPC   C4A 4218  15.103  39.982   7.573
   41POPC   C1B 4219  15.064  40.325   8.785
   41POPC   C2B 4220  14.910  40.319   8.381
   41POPC   C3B 4221  15.031  40.305   7.968
   41POPC   C4B 4222  14.725  40.318   7.614
   42POPC   NC3 4223   3.397   2.297   9.331
   42POPC   PO4 4224   3.754   1.810   9.553
   42POPC   GL1 4225   3.757   1.908   9.124
   42POPC   GL2 4226   3.787   2.249   8.990
   42POPC   C1A 4227   3.599   1.790   8.706
   42POPC   D2A 4228   3.309   1.905   8.384
   42POPC   C3A 4229   3.496   1.972   8.006
   42POPC   C4A 4230   3.797   2.108   7.741
   42POPC   C1B 4231   3.489   2.292   8.697
   42POPC   C2B 4232   3.628   2.333   8.333
   42POPC   C3B 4233   3.441   2.493   8.027
   42POPC   C4B 4234   3.304   2.329   7.665
   43POPC   NC3 4235  34.934  39.362   9.235
   43POPC   PO4 4236  35.599  39.418   9.529
   43POPC   GL1 4237  35.429  39.174   9.206
   43POPC   GL2 4238  35.648  39.314   9.028
   43POPC   C1A 4239  35.277  39.106   8.757
   43POPC   D2A 4240  35.306  39.471   8.483
   43POPC   C3A 4241  35.338  39.441   8.035
   43POPC   C4A 4242  35.184  39.188   7.705
   43POPC   C1B 4243  35.772  38.997   8.770
   43POPC   C2B 4244  35.617  39.012   8.367
   43POPC   C3B 4245  35.652  39.043   7.951
   43POPC   C4B 4246  35.712  39.345   7.652
   44POPC   NC3 4247  34.753  18.486   9.382
   44POPC   PO4 4248  34.258  17.939   9.413
   44POPC   GL1 4249  34.394  18.158   9.053
   44POPC   GL2 4250  34.689  18.252   8.939
   44POPC   C1A 4251  34.249  18.231   8.633
   44POPC   D2A 4252  34.464  18.244   8.236
   44POPC   C3A 4253  34.291  18.142   7.830
   44POPC   C4A 4254  34.262  18.068   7.376
   44POPC   C1B 4255  34.906  18.136   8.585
   44POPC   C2B 4256  34.954  18.128   8.126
   44POPC   C3B 4257  34.795  18.397   7.838
   44POPC   C4B 4258  34.861  18.748   7.515
   45POPC   NC3 4259  39.464  11.595   9.511
   45POPC   PO4 4260  38.999  12.120   9.666
   45POPC   GL1 4261  39.102  12.082   9.211
   45POPC   GL2 4262  39.090  11.756   9.177
   45POPC   C1A 4263  39.133  12.103   8.730
   45POPC   D2A 4264  39.243  12.276   8.330
   45POPC   C3A 4265  39.042  12.093   7.991
   45POPC   C4A 4266  39.218  11.804   7.726
   45POPC   C1B 4267  39.476  11.777   8.897
   45POPC   C2B 4268  39.569  11.918   8.477
   45POPC   C3B 4269  39.603  12.047   8.039
   45POPC   C4B 4270  39.892  11.873   7.728
   46POPC   NC3 4271  32.821  10.941   9.684
   46POPC   PO4 4272  33.203  11.521   9.732
   46POPC   GL1 4273  32.871  11.407   9.395
   46POPC   GL2 4274  33.035  11.121   9.251
   46POPC   C1A 4275  32.680  11.389   8.946
   46POPC   D2A 4276  32.843  11.471   8.509
   46POPC   C3A 4277  32.679  11.615   8.127
   46POPC   C4A 4278  32.899  11.552   7.749
   46POPC   C1B 4279  33.148  11.213   8.841
   46POPC   C2B 4280  33.057  11.019   8.438
   46POPC   C3B 4281  32.862  11.127   8.084
   46POPC   C4B 4282  33.043  11.041   7.723
   47POPC   NC3 4283  21.702   7.400   9.458
   47POPC   PO4 4284  21.197   7.838   9.536
   47POPC   GL1 4285  21.321   7.583   9.156
   47POPC   GL2 4286  21.327   7.209   9.160
   47POPC   C1A 4287  21.423   7.679   8.733
   47POPC   D2A 4288  21.343   7.510   8.322
   47POPC   C3A 4289  21.033   7.724   8.060
   47POPC   C4A 4290  21.127   7.873   7.619
   47POPC   C1B 4291  21.647   7.238   8.813
   47POPC   C2B 4292  21.784   7.236   8.390
   47POPC   C3B 4293  21.573   7.136   8.008
   47POPC   C4B 4294  21.352   7.447   7.802
   48POPC   NC3 4295  41.733  22.097   9.485
   48POPC   PO4 4296  41.143  22.540   9.297
   48POPC   GL1 4297  41.514  22.377   9.107
   48POPC   GL2 4298  41.473  22.036   9.070
   48POPC   C1A 4299  41.613  22.297   8.670
   48POPC   D2A 4300  41.376  22.165   8.369
   48POPC   C3A 4301  41.313  22.437   8.060
   48POPC   C4A 4302  41.507  22.256   7.715
   48POPC   C1B 4303  41.447  21.783   8.736
   48POPC   C2B 4304  41.379  21.627   8.377
   48POPC   C3B 4305  41.464  21.817   8.012
   48POPC   C4B 4306  41.543  21.740   7.627
   49POPC   NC3 4307  21.782  36.624   9.494
   49POPC   PO4 4308  21.095  36.972   9.463
   49POPC   GL1 4309  21.256  36.964   9.106
   49POPC   GL2 4310  21.402  36.648   9.147
   49POPC   C1A 4311  21.482  37.046   8.745
   49POPC   D2A 4312  21.699  37.082   8.371
   49POPC   C3A 4313  21.586  36.780   8.028
   49POPC   C4A 4314  21.504  36.625   7.607
   49POPC   C1B 4315  21.148  36.617   8.767
   49POPC   C2B 4316  21.179  36.768   8.341
   49POPC   C3B 4317  21.095  36.675   7.893
   49POPC   C4B 4318  21.038  36.649   7.412
   50POPC   NC3 4319  25.834   1.264   9.590
   50POPC   PO4 4320  26.239   0.720   9.358
   50POPC   GL1 4321  26.316   1.063   9.082
   50POPC   GL2 4322  25.982   1.151   9.128
   50POPC   C1A 4323  26.167   1.123   8.664
   50POPC   D2A 4324  25.905   1.037   8.310
   50POPC   C3A 4325  26.067   1.273   7.949
   50POPC   C4A 4326  25.768   1.187   7.628
   50POPC   C1B 4327  25.602   1.228   8.901
   50POPC   C2B 4328  25.535   1.386   8.505
   50POPC   C3B 4329  25.591   1.395   8.079
   50POPC   C4B 4330  25.580   1.650   7.720
   51POPC   NC3 4331  25.554  18.697   9.462
   51POPC   PO4 4332  25.049  18.293   9.593
   51POPC   GL1 4333  25.235  18.160   9.223
   51POPC   GL2 4334  24.950  17.935   9.164
   51POPC   C1A 4335  25.479  18.323   8.863
   51POPC   D2A 4336  25.291  18.324   8.456
   51POPC   C3A 4337  25.557  18.262   8.140
   51POPC   C4A 4338  25.535  18.354   7.746
   51POPC   C1B 4339  24.943  18.264   8.821
   51POPC   C2B 4340  24.790  18.272   8.386
   51POPC   C3B 4341  24.950  18.382   7.971
   51POPC   C4B 4342  25.082  18.331   7.536
   52POPC   NC3 4343   9.075  36.952   9.529
   52POPC   PO4 4344   8.645  36.458   9.386
   52POPC   GL1 4345   8.898  36.683   9.080
   52POPC   GL2 4346   8.789  37.026   9.092
   52POPC   C1A 4347   8.901  36.784   8.618
   52POPC   D2A 4348   8.888  36.608   8.203
   52POPC   C3A 4349   9.214  36.725   7.934
   52POPC   C4A 4350   9.262  36.957   7.578
   52POPC   C1B 4351   8.552  37.141   8.735
   52POPC   C2B 4352   8.765  37.206   8.322
   52POPC   C3B 4353   8.891  37.135   7.896
   52POPC   C4B 4354   8.862  37.190   7.404
   53POPC   NC3 4355  32.444  20.685   9.298
   53POPC   PO4 4356  31.922  20.295   9.552
   53POPC   GL1 4357  31.993  20.474   9.114
   53POPC   GL2 4358  32.042  20.839   9.026
   53POPC   C1A 4359  32.153  20.353   8.648
   53POPC   D2A 4360  32.009  20.190   8.231
   53POPC   C3A 4361  32.239  20.358   7.861
   53POPC   C4A 4362  32.259  20.430   7.405
   53POPC   C1B 4363  32.291  20.845   8.623
   53POPC   C2B 4364  32.404  20.753   8.187
   53POPC   C3B 4365  32.749  20.500   7.985
   53POPC   C4B 4366  32.818  20.369   7.565
   54POPC   NC3 4367   0.647   3.402   9.320
   54POPC   PO4 4368  45.000   3.731   9.465
   54POPC   GL1 4369   0.210   3.684   9.107
   54POPC   GL2 4370   0.072   3.371   9.001
   54POPC   C1A 4371   0.219   3.706   8.654
   54POPC   D2A 4372  44.999   3.472   8.332
   54POPC   C3A 4373   0.235   3.540   7.935
   54POPC   C4A 4374   0.651   3.711   7.811
   54POPC   C1B 4375   0.288   3.125   8.644
   54POPC   C2B 4376   0.622   2.967   8.330
   54POPC   C3B 4377   0.640   3.182   7.944
   54POPC   C4B 4378   0.346   3.142   7.625
   55POPC   NC3 4379  22.372   4.111   9.585
   55POPC   PO4 4380  21.942   4.614   9.519
   55POPC   GL1 4381  22.184   4.397   9.224
   55POPC   GL2 4382  22.020   4.073   9.162
   55POPC   C1A 4383  22.411   4.503   8.884
   55POPC   D2A 4384  22.273   4.343   8.480
   55POPC   C3A 4385  22.370   4.376   8.047
   55POPC   C4A 4386  22.594   4.339   7.665
   55POPC   C1B 4387  21.883   4.381   8.820
   55POPC   C2B 4388  21.782   4.392   8.359
   55POPC   C3B 4389  21.832   4.135   7.990
   55POPC   C4B 4390  22.099   4.187   7.628
   56POPC   NC3 4391   5.484  34.126   9.295
   56POPC   PO4 4392   6.070  34.377   9.396
   56POPC   GL1 4393   5.961  34.647   9.064
   56POPC   GL2 4394   5.804  34.332   8.956
   56POPC   C1A 4395   5.872  34.686   8.623
   56POPC   D2A 4396   6.003  34.318   8.374
   56POPC   C3A 4397   6.034  34.404   7.967
   56POPC   C4A 4398   5.880  34.688   7.710
   56POPC   C1B 4399   5.536  34.326   8.611
   56POPC   C2B 4400   5.586  34.582   8.192
   56POPC   C3B 4401   5.398  34.473   7.798
   56POPC   C4B 4402   5.309  34.133   7.505
   57POPC   NC3 4403   1.442  16.165   9.506
   57POPC   PO4 4404   0.720  15.987   9.556
   57POPC   GL1 4405   1.081  15.962   9.199
   57POPC   GL2 4406   1.450  15.859   9.085
   57POPC   C1A 4407   1.108  16.175   8.778
   57POPC   D2A 4408   0.966  15.976   8.380
   57POPC   C3A 4409   1.087  16.121   7.969
   57POPC   C4A 4410   0.985  15.926   7.560
   57POPC   C1B 4411   1.372  15.759   8.658
   57POPC   C2B 4412   1.472  16.013   8.296
   57POPC   C3B 4413   1.492  15.808   7.918
   57POPC   C4B 4414   1.477  15.789   7.492
   58POPC   NC3 4415  40.635  19.857   9.428
   58POPC   PO4 4416  41.187  19.485   9.313
   58POPC   GL1 4417  40.832  19.593   9.037
   58POPC   GL2 4418  40.641  19.915   8.942
   58POPC   C1A 4419  40.825  19.584   8.591
   58POPC   D2A 4420  41.118  19.695   8.255
   58POPC   C3A 4421  40.842  19.751   7.913
   58POPC   C4A 4422  40.781  19.711   7.483
   58POPC   C1B 4423  40.905  20.130   8.672
   58POPC   C2B 4424  40.902  20.206   8.228
   58POPC   C3B 4425  40.819  20.262   7.808
   58POPC   C4B 4426  40.482  20.110   7.627
   59POPC   NC3 4427  41.479  29.687   9.321
   59POPC   PO4 4428  41.364  30.314   9.458
   59POPC   GL1 4429  41.589  30.145   9.124
   59POPC   GL2 4430  41.915  30.018   9.225
   59POPC   C1A 4431  41.494  29.954   8.740
   59POPC   D2A 4432  41.284  30.038   8.389
   59POPC   C3A 4433  41.493  30.011   8.022
   59POPC   C4A 4434  41.565  29.672   7.757
   59POPC   C1B 4435  41.981  29.812   8.818
   59POPC   C2B 4436  41.833  29.810   8.387
   59POPC   C3B 4437  41.973  29.871   7.974
   59POPC   C4B 4438  41.932  30.293   7.822
   60POPC   NC3 4439  25.920  35.564   9.444
   60POPC   PO4 4440  26.414  35.044   9.413
   60POPC   GL1 4441  26.138  35.245   9.072
   60POPC   GL2 4442  26.201  35.608   9.044
   60POPC   C1A 4443  26.157  35.115   8.626
   60POPC   D2A 4444  26.344  34.956   8.241
   60POPC   C3A 4445  26.076  35.087   7.909
   60POPC   C4A 4446  25.823  35.061   7.536
   60POPC   C1B 4447  26.069  35.620   8.633
   60POPC   C2B 4448  25.906  35.487   8.252
   60POPC   C3B 4449  25.898  35.563   7.818
   60POPC   C4B 4450  26.200  35.455   7.538
   61POPC   NC3 4451  14.065  40.825   9.422
   61POPC   PO4 4452  14.632  41.104   9.549
   61POPC   GL1 4453  14.499  40.914   9.159
   61POPC   GL2 4454  14.261  41.187   9.122
   61POPC   C1A 4455  14.207  40.714   8.810
   61POPC   D2A 4456  13.963  40.540   8.441
   61POPC   C3A 4457  14.097  40.673   8.029
   61POPC   C4A 4458  14.302  40.659   7.612
   61POPC   C1B 4459  14.446  41.168   8.737
   61POPC   C2B 4460  14.338  41.109   8.369
   61POPC   C3B 4461  14.432  41.070   7.971
   61POPC   C4B 4462  14.324  41.166   7.586
   62POPC   NC3 4463  37.281   1.388   9.831
   62POPC   PO4 4464  36.716   1.336   9.518
   62POPC   GL1 4465  36.742   1.092   9.132
   62POPC   GL2 4466  36.624   0.736   9.199
   62POPC   C1A 4467  36.973   1.201   8.727
   62POPC   D2A 4468  37.310   1.240   8.417
   62POPC   C3A 4469  37.201   1.365   7.976
   62POPC   C4A 4470  36.793   1.472   7.776
   62POPC   C1B 4471  36.899   0.706   8.827
   62POPC   C2B 4472  36.819   0.819   8.391
   62POPC   C3B 4473  36.728   1.003   7.971
   62POPC   C4B 4474  36.601   1.020   7.508
   63POPC   NC3 4475  22.662  33.561   9.561
   63POPC   PO4 4476  23.201  33.978   9.643
   63POPC   GL1 4477  23.062  33.996   9.179
   63POPC   GL2 4478  22.818  33.721   9.121
   63POPC   C1A 4479  23.140  33.783   8.749
   63POPC   D2A 4480  22.946  33.580   8.406
   63POPC   C3A 4481  22.998  33.771   7.992
   63POPC   C4A 4482  23.278  33.645   7.667
   63POPC   C1B 4483  22.690  34.033   8.812
   63POPC   C2B 4484  22.723  34.036   8.362
   63POPC   C3B 4485  22.672  34.193   7.920
   63POPC   C4B 4486  22.522  34.031   7.533
   64POPC   NC3 4487   6.864   7.063   9.499
   64POPC   PO4 4488   6.492   6.517   9.554
   64POPC   GL1 4489   6.775   6.570   9.220
   64POPC   GL2 4490   6.620   6.863   9.118
   64POPC   C1A 4491   6.811   6.572   8.761
   64POPC   D2A 4492   6.763   6.317   8.391
   64POPC   C3A 4493   6.743   6.611   8.076
   64POPC   C4A 4494   6.799   6.599   7.660
   64POPC   C1B 4495   6.320   6.909   8.832
   64POPC   C2B 4496   6.404   6.777   8.455
   64POPC   C3B 4497   6.294   6.922   8.072
   64POPC   C4B 4498   6.520   7.032   7.726
   65POPC   NC3 4499  38.173   1.724   9.529
   65POPC   PO4 4500  38.838   1.979   9.537
   65POPC   GL1 4501  38.543   1.874   9.172
   65POPC   GL2 4502  38.373   2.174   9.073
   65POPC   C1A 4503  38.481   1.881   8.691
   65POPC   D2A 4504  38.363   2.233   8.397
   65POPC   C3A 4505  38.455   2.036   8.019
   65POPC   C4A 4506  38.733   1.847   7.741
   65POPC   C1B 4507  38.038   2.116   8.780
   65POPC   C2B 4508  37.996   1.884   8.443
   65POPC   C3B 4509  37.963   1.920   8.006
   65POPC   C4B 4510  38.165   1.867   7.614
   66POPC   NC3 4511  33.216  27.634   9.565
   66POPC   PO4 4512  32.666  27.774   9.404
   66POPC   GL1 4513  32.933  27.610   9.093
   66POPC   GL2 4514  33.260  27.427   9.077
   66POPC   C1A 4515  32.828  27.645   8.675
   66POPC   D2A 4516  32.671  27.387   8.387
   66POPC   C3A 4517  32.820  27.536   7.992
   66POPC   C4A 4518  33.114  27.784   7.761
   66POPC   C1B 4519  33.327  27.758   8.765
   66POPC   C2B 4520  33.214  27.740   8.312
   66POPC   C3B 4521  33.391  27.444   8.005
   66POPC   C4B 4522  33.588  27.511   7.635
   67POPC   NC3 4523  15.917  23.578   9.500
   67POPC   PO4 4524  16.280  24.043   9.325
   67POPC   GL1 4525  16.008  23.843   9.057
   67POPC   GL2 4526  15.652  23.818   9.117
   67POPC   C1A 4527  16.043  23.698   8.658
   67POPC   D2A 4528  16.299  23.457   8.385
   67POPC   C3A 4529  16.134  23.560   8.002
   67POPC   C4A 4530  15.953  23.946   7.842
   67POPC   C1B 4531  15.571  23.516   8.779
   67POPC   C2B 4532  15.632  23.633   8.344
   67POPC   C3B 4533  15.482  23.895   8.039
   67POPC   C4B 4534  15.515  23.674   7.701
   68POPC   NC3 4535  31.715  25.971   9.387
   68POPC   PO4 4536  31.151  26.035   9.708
   68POPC   GL1 4537  31.229  26.004   9.177
   68POPC   GL2 4538  31.262  25.762   8.990
   68POPC   C1A 4539  31.456  26.101   8.710
   68POPC   D2A 4540  31.667  25.921   8.355
   68POPC   C3A 4541  31.518  26.210   8.059
   68POPC   C4A 4542  31.614  26.326   7.661
   68POPC   C1B 4543  31.138  25.607   8.647
   68POPC   C2B 4544  31.191  25.788   8.298
   68POPC   C3B 4545  31.403  25.721   7.933
   68POPC   C4B 4546  31.254  25.979   7.604
   69POPC   NC3 4547  18.900  16.931   9.645
   69POPC   PO4 4548  18.917  16.242   9.523
   69POPC   GL1 4549  18.945  16.582   9.154
   69POPC   GL2 4550  19.199  16.806   9.130
   69POPC   C1A 4551  18.910  16.817   8.721
   69POPC   D2A 4552  18.618  16.811   8.386
   69POPC   C3A 4553  18.738  17.145   8.149
   69POPC   C4A 4554  18.961  16.986   7.811
   69POPC   C1B 4555  19.417  16.733   8.700
   69POPC   C2B 4556  19.414  16.934   8.249
   69POPC   C3B 4557  19.399  16.726   7.861
   69POPC   C4B 4558  19.378  16.379   7.562
   70POPC   NC3 4559   1.991   7.174   9.425
   70POPC   PO4 4560   2.632   7.597   9.495
   70POPC   GL1 4561   2.253   7.574   9.190
   70POPC   GL2 4562   1.897   7.576   9.080
   70POPC   C1A 4563   2.209   7.434   8.717
   70POPC   D2A 4564   2.332   7.205   8.320
   70POPC   C3A 4565   2.066   7.206   7.939
   70POPC   C4A 4566   1.988   7.577   7.692
   70POPC   C1B 4567   1.679   7.463   8.743
   70POPC   C2B 4568   1.835   7.445   8.339
   70POPC   C3B 4569   1.595   7.497   7.991
   70POPC   C4B 4570   1.616   7.227   7.668
   71POPC   NC3 4571  34.915  16.921   9.458
   71POPC   PO4 4572  35.604  16.625   9.429
   71POPC   GL1 4573  35.308  16.681   9.110
   71POPC   GL2 4574  35.283  17.025   9.104
   71POPC   C1A 4575  35.407  16.760   8.679
   71POPC   D2A 4576  35.305  16.946   8.313
   71POPC   C3A 4577  35.214  16.572   8.098
   71POPC   C4A 4578  35.570  16.584   7.820
   71POPC   C1B 4579  35.066  17.149   8.735
   71POPC   C2B 4580  34.940  17.328   8.348
   71POPC   C3B 4581  35.148  17.311   7.979
   71POPC   C4B 4582  35.213  16.954   7.781
   72POPC   NC3 4583  37.861  42.235   9.578
   72POPC   PO4 4584  37.316  42.655   9.515
   72POPC   GL1 4585  37.584  42.515   9.216
   72POPC   GL2 4586  37.963  42.632   9.253
   72POPC   C1A 4587  37.436  42.379   8.824
   72POPC   D2A 4588  37.278  42.420   8.401
   72POPC   C3A 4589  37.601  42.419   8.108
   72POPC   C4A 4590  37.554  42.086   7.820
   72POPC   C1B 4591  37.956  42.300   8.939
   72POPC   C2B 4592  37.846  42.251   8.528
   72POPC   C3B 4593  37.967  42.067   8.158
   72POPC   C4B 4594  38.013  42.302   7.785
   73POPC   NC3 4595   7.897  41.663   9.552
   73POPC   PO4 4596   8.412  41.299   9.430
   73POPC   GL1 4597   8.175  41.481   9.161
   73POPC   GL2 4598   8.259  41.818   9.201
   73POPC   C1A 4599   7.996  41.555   8.802
   73POPC   D2A 4600   8.216  41.611   8.440
   73POPC   C3A 4601   8.065  41.439   8.063
   73POPC   C4A 4602   8.098  41.369   7.630
   73POPC   C1B 4603   8.497  41.924   8.829
   73POPC   C2B 4604   8.435  42.084   8.459
   73POPC   C3B 4605   8.554  41.848   8.131
   73POPC   C4B 4606   8.383  41.754   7.769
   74POPC   NC3 4607  14.241  22.722   9.458
   74POPC   PO4 4608  14.724  23.236   9.446
   74POPC   GL1 4609  14.535  23.007   9.121
   74POPC   GL2 4610  14.642  22.641   9.095
   74POPC   C1A 4611  14.584  23.007   8.672
   74POPC   D2A 4612  14.498  22.706   8.328
   74POPC   C3A 4613  14.480  22.957   7.985
   74POPC   C4A 4614  14.766  23.232   7.813
   74POPC   C1B 4615  14.274  22.640   8.808
   74POPC   C2B 4616  14.065  22.900   8.486
   74POPC   C3B 4617  13.984  22.753   8.125
   74POPC   C4B 4618  14.006  22.924   7.771
   75POPC   NC3 4619  30.234  38.912   9.362
   75POPC   PO4 4620  29.546  39.176   9.574
   75POPC   GL1 4621  29.778  39.164   9.169
   75POPC   GL2 4622  29.754  39.513   9.026
   75POPC   C1A 4623  29.794  39.083   8.711
   75POPC   D2A 4624  30.072  39.048   8.348
   75POPC   C3A 4625  29.886  39.109   7.963
   75POPC   C4A 4626  29.913  38.965   7.557
   75POPC   C1B 4627  30.066  39.525   8.685
   75POPC   C2B 4628  29.988  39.534   8.278
   75POPC   C3B 4629  30.127  39.560   7.859
   75POPC   C4B 4630  30.030  39.562   7.417
   76POPC   NC3 4631  35.440  10.548   9.551
   76POPC   PO4 4632  34.790  10.343   9.484
   76POPC   GL1 4633  35.075  10.544   9.165
   76POPC   GL2 4634  35.448  10.413   9.077
   76POPC   C1A 4635  35.188  10.696   8.759
   76POPC   D2A 4636  35.472  10.572   8.465
   76POPC   C3A 4637  35.363  10.751   8.081
   76POPC   C4A 4638  35.312  10.564   7.703
   76POPC   C1B 4639  35.736  10.224   8.801
   76POPC   C2B 4640  35.896  10.262   8.410
   76POPC   C3B 4641  35.578  10.242   8.078
   76POPC   C4B 4642  35.746  10.242   7.721
   77POPC   NC3 4643  41.845   8.987   9.313
   77POPC   PO4 4644  41.243   8.690   9.417
   77POPC   GL1 4645  41.361   8.918   9.098
   77POPC   GL2 4646  41.420   9.235   9.218
   77POPC   C1A 4647  41.585   8.993   8.741
   77POPC   D2A 4648  41.822   8.751   8.482
   77POPC   C3A 4649  41.727   8.909   8.095
   77POPC   C4A 4650  41.699   9.040   7.719
   77POPC   C1B 4651  41.234   9.353   8.867
   77POPC   C2B 4652  41.378   9.380   8.477
   77POPC   C3B 4653  41.264   9.298   8.099
   77POPC   C4B 4654  41.280   9.343   7.661
   78POPC   NC3 4655  31.335  38.730   9.577
   78POPC   PO4 4656  31.761  38.147   9.593
   78POPC   GL1 4657  31.766  38.358   9.207
   78POPC   GL2 4658  31.439  38.426   9.178
   78POPC   C1A 4659  31.690  38.285   8.764
   78POPC   D2A 4660  31.411  38.414   8.452
   78POPC   C3A 4661  31.417  38.307   8.028
   78POPC   C4A 4662  31.664  38.599   7.756
   78POPC   C1B 4663  31.279  38.714   8.871
   78POPC   C2B 4664  31.174  38.875   8.466
   78POPC   C3B 4665  31.270  38.789   8.062
   78POPC   C4B 4666  31.237  38.936   7.694
   79POPC   NC3 4667  29.139  25.086   9.580
   79POPC   PO4 4668  29.690  25.481   9.600
   79POPC   GL1 4669  29.296  25.526   9.276
   79POPC   GL2 4670  29.126  25.207   9.106
   79POPC   C1A 4671  29.102  25.615   8.834
   79POPC   D2A 4672  29.226  25.339   8.491
   79POPC   C3A 4673  29.143  25.444   8.061
   79POPC   C4A 4674  29.320  25.331   7.665
   79POPC   C1B 4675  28.998  24.943   8.791
   79POPC   C2B 4676  28.812  24.931   8.402
   79POPC   C3B 4677  29.062  24.943   8.053
   79POPC   C4B 4678  28.967  24.979   7.667
   80POPC   NC3 4679   8.650  21.501   9.504
   80POPC   PO4 4680   8.077  21.191   9.664
   80POPC   GL1 4681   8.285  21.221   9.252
   80POPC   GL2 4682   7.981  21.351   9.108
   80POPC   C1A 4683   8.359  21.261   8.805
   80POPC   D2A 4684   8.069  21.228   8.450
   80POPC   C3A 4685   8.210  21.361   8.076
   80POPC   C4A 4686   8.230  21.189   7.663
   80POPC   C1B 4687   7.874  21.619   8.730
   80POPC   C2B 4688   7.661  21.738   8.330
   80POPC   C3B 4689   7.740  21.681   7.894
   80POPC   C4B 4690   7.839  21.437   7.514
   81POPC   NC3 4691   5.353  43.579   9.674
   81POPC   PO4 4692   4.979  44.112   9.635
   81POPC   GL1 4693   5.162  43.884   9.290
   81POPC   GL2 4694   5.020  43.620   9.267
   81POPC   C1A 4695   5.260  43.903   8.840
   81POPC   D2A 4696   5.114  43.630   8.464
   81POPC   C3A 4697   5.034  43.782   8.054
   81POPC   C4A 4698   5.257  44.047   7.794
   81POPC   C1B 4699   4.801  43.680   8.883
   81POPC   C2B 4700   4.587  43.650   8.475
   81POPC   C3B 4701   4.569  43.505   8.037
   81POPC   C4B 4702   4.806  43.447   7.655
   82POPC   NC3 4703  17.231   0.685   9.540
   82POPC   PO4 4704  17.868   0.290   9.635
   82POPC   GL1 4705  17.633   0.488   9.298
   82POPC   GL2 4706  17.307   0.311   9.198
   82POPC   C1A 4707  17.596   0.547   8.850
   82POPC   D2A 4708  17.687   0.344   8.463
   82POPC   C3A 4709  17.510   0.475   8.122
   82POPC   C4A 4710  17.448   0.499   7.722
   82POPC   C1B 4711  17.121   0.024   8.898
   82POPC   C2B 4712  17.220   0.113   8.451
   82POPC   C3B 4713  17.076   0.243   8.040
   82POPC   C4B 4714  17.149   0.069   7.668
   83POPC   NC3 4715  18.278  24.126   9.472
   83POPC   PO4 4716  18.206  23.437   9.591
   83POPC   GL1 4717  18.132  23.675   9.255
   83POPC   GL2 4718  18.447  23.796   9.145
   83POPC   C1A 4719  17.950  23.801   8.873
   83POPC   D2A 4720  18.192  23.853   8.503
   83POPC   C3A 4721  18.075  23.736   8.085
   83POPC   C4A 4722  18.072  23.653   7.665
   83POPC   C1B 4723  18.631  23.776   8.771
   83POPC   C2B 4724  18.676  23.948   8.386
   83POPC   C3B 4725  18.590  23.712   8.073
   83POPC   C4B 4726  18.571  23.562   7.704
   84POPC   NC3 4727   1.503  22.982   9.513
   84POPC   PO4 4728   0.974  22.544   9.438
   84POPC   GL1 4729   1.110  22.811   9.061
   84POPC   GL2 4730   1.304  23.139   9.071
   84POPC   C1A 4731   1.231  22.900   8.616
   84POPC   D2A 4732   1.557  22.939   8.304
   84POPC   C3A 4733   1.490  22.847   7.869
   84POPC   C4A 4734   1.077  22.783   7.642
   84POPC   C1B 4735   1.005  23.346   8.775
   84POPC   C2B 4736   0.839  23.211   8.371
   84POPC   C3B 4737   1.139  23.170   8.024
   84POPC   C4B 4738   1.222  23.252   7.548
   85POPC   NC3 4739  17.751  23.500   9.649
   85POPC   PO4 4740  17.140  23.763   9.533
   85POPC   GL1 4741  17.468  23.632   9.194
   85POPC   GL2 4742  17.740  23.356   9.181
   85POPC   C1A 4743  17.454  23.767   8.740
   85POPC   D2A 4744  17.705  23.982   8.405
   85POPC   C3A 4745  17.592  23.876   7.977
   85POPC   C4A 4746  17.257  23.898   7.674
   85POPC   C1B 4747  17.687  23.318   8.795
   85POPC   C2B 4748  17.818  23.461   8.432
   85POPC   C3B 4749  17.743  23.338   8.018
   85POPC   C4B 4750  17.589  23.491   7.645
   86POPC   NC3 4751  35.510  37.469   9.522
   86POPC   PO4 4752  35.061  38.002   9.411
   86POPC   GL1 4753  35.269  37.721   9.152
   86POPC   GL2 4754  35.574  37.877   9.213
   86POPC   C1A 4755  35.610  37.539   8.851
   86POPC   D2A 4756  35.880  37.740   8.571
   86POPC   C3A 4757  35.678  37.935   8.223
   86POPC   C4A 4758  35.517  37.688   7.889
   86POPC   C1B 4759  35.401  37.990   8.757
   86POPC   C2B 4760  35.236  37.728   8.396
   86POPC   C3B 4761  34.974  37.700   8.014
   86POPC   C4B 4762  35.098  37.822   7.588
   87POPC   NC3 4763  11.883   3.518   9.652
   87POPC   PO4 4764  12.118   2.936   9.726
   87POPC   GL1 4765  12.147   3.277   9.285
   87POPC   GL2 4766  12.133   3.623   9.226
   87POPC   C1A 4767  12.272   3.272   8.838
   87POPC   D2A 4768  12.410   3.184   8.417
   87POPC   C3A 4769  12.085   3.184   8.111
   87POPC   C4A 4770  12.052   3.319   7.688
   87POPC   C1B 4771  11.948   3.691   8.832
   87POPC   C2B 4772  12.188   3.651   8.445
   87POPC   C3B 4773  12.204   3.681   8.007
   87POPC   C4B 4774  11.911   3.832   7.699
   88POPC   NC3 4775  21.710  29.438   9.500
   88POPC   PO4 4776  22.227  29.087   9.412
   88POPC   GL1 4777  21.953  29.167   9.118
   88POPC   GL2 4778  21.803  28.857   9.160
   88POPC   C1A 4779  22.114  29.321   8.722
   88POPC   D2A 4780  22.138  29.492   8.314
   88POPC   C3A 4781  22.221  29.223   7.992
   88POPC   C4A 4782  22.453  28.933   7.738
   88POPC   C1B 4783  21.683  28.998   8.732
   88POPC   C2B 4784  21.817  29.091   8.313
   88POPC   C3B 4785  21.841  28.895   7.902
   88POPC   C4B 4786  22.001  28.967   7.463
   89POPC   NC3 4787  42.040  25.354   9.798
   89POPC   PO4 4788  42.587  25.459   9.344
   89POPC   GL1 4789  42.486  25.181   9.012
   89POPC   GL2 4790  42.165  24.995   9.008
   89POPC   C1A 4791  42.317  25.288   8.606
   89POPC   D2A 4792  42.457  25.547   8.266
   89POPC   C3A 4793  42.195  25.439   7.921
   89POPC   C4A 4794  42.118  25.441   7.470
   89POPC   C1B 4795  42.507  24.749   8.793
   89POPC   C2B 4796  42.479  24.827   8.407
   89POPC   C3B 4797  42.426  24.988   8.042
   89POPC   C4B 4798  42.104  24.970   7.730
   90POPC   NC3 4799  18.803  43.551   9.475
   90POPC   PO4 4800  19.014  44.154   9.576
   90POPC   GL1 4801  19.016  43.935   9.216
   90POPC   GL2 4802  18.721  44.110   9.170
   90POPC   C1A 4803  19.250  43.941   8.823
   90POPC   D2A 4804  19.332  44.208   8.457
   90POPC   C3A 4805  19.249  43.936   8.128
   90POPC   C4A 4806  19.244  43.838   7.704
   90POPC   C1B 4807  18.705  43.815   8.827
   90POPC   C2B 4808  18.853  43.751   8.418
   90POPC   C3B 4809  18.797  43.715   7.979
   90POPC   C4B 4810  18.658  44.064   7.719
   91POPC   NC3 4811  18.677  35.757   9.536
   91POPC   PO4 4812  19.211  35.353   9.577
   91POPC   GL1 4813  19.124  35.445   9.198
   91POPC   GL2 4814  18.787  35.373   9.207
   91POPC   C1A 4815  19.337  35.590   8.851
   91POPC   D2A 4816  19.413  35.665   8.433
   91POPC   C3A 4817  19.362  35.329   8.134
   91POPC   C4A 4818  19.088  35.271   7.755
   91POPC   C1B 4819  18.894  35.321   8.745
   91POPC   C2B 4820  18.903  35.517   8.318
   91POPC   C3B 4821  18.671  35.522   7.904
   91POPC   C4B 4822  18.567  35.147   7.680
   92POPC   NC3 4823  11.992  44.765   9.830
   92POPC   PO4 4824  12.305  44.400   9.483
   92POPC   GL1 4825  12.225  44.564   9.115
   92POPC   GL2 4826  12.081  44.906   9.219
   92POPC   C1A 4827  12.213  44.385   8.700
   92POPC   D2A 4828  12.146  44.169   8.334
   92POPC   C3A 4829  12.297  44.422   8.019
   92POPC   C4A 4830  12.227  44.541   7.608
   92POPC   C1B 4831  11.886  44.791   8.807
   92POPC   C2B 4832  12.009  44.730   8.360
   92POPC   C3B 4833  11.911  44.794   7.933
   92POPC   C4B 4834  11.776  44.858   7.505
   93POPC   NC3 4835  34.884  43.806   9.641
   93POPC   PO4 4836  35.114  44.460   9.500
   93POPC   GL1 4837  34.940  44.162   9.175
   93POPC   GL2 4838  34.868  43.796   9.142
   93POPC   C1A 4839  34.608  44.117   8.846
   93POPC   D2A 4840  34.341  43.929   8.520
   93POPC   C3A 4841  34.537  44.027   8.106
   93POPC   C4A 4842  34.491  44.093   7.674
   93POPC   C1B 4843  34.694  43.581   8.804
   93POPC   C2B 4844  34.816  43.748   8.448
   93POPC   C3B 4845  34.681  43.533   8.106
   93POPC   C4B 4846  34.815  43.627   7.730
   94POPC   NC3 4847  13.715  43.377   9.380
   94POPC   PO4 4848  13.237  42.991   9.514
   94POPC   GL1 4849  13.521  42.917   9.158
   94POPC   GL2 4850  13.815  42.700   9.081
   94POPC   C1A 4851  13.600  43.049   8.727
   94POPC   D2A 4852  13.543  42.887   8.303
   94POPC   C3A 4853  13.570  43.209   7.980
   94POPC   C4A 4854  13.886  43.267   7.667
   94POPC   C1B 4855  14.039  42.713   8.740
   94POPC   C2B 4856  14.005  42.622   8.304
   94POPC   C3B 4857  13.906  42.833   7.913
   94POPC   C4B 4858  13.955  42.824   7.434
   95POPC   NC3 4859  12.520  12.669   9.462
   95POPC   PO4 4860  13.005  13.092   9.613
   95POPC   GL1 4861  12.914  12.947   9.209
   95POPC   GL2 4862  12.600  13.133   9.240
   95POPC   C1A 4863  12.975  12.759   8.788
   95POPC   D2A 4864  13.189  12.874   8.413
   95POPC   C3A 4865  12.911  12.810   8.070
   95POPC   C4A 4866  12.792  12.633   7.667
   95POPC   C1B 4867  12.531  13.016   8.830
   95POPC   C2B 4868  12.745  13.119   8.469
   95POPC   C3B 4869  12.587  13.207   8.091
   95POPC   C4B 4870  12.716  13.154   7.696
   96POPC   NC3 4871  25.809  37.922   9.915
   96POPC   PO4 4872  25.476  37.407   9.573
   96POPC   GL1 4873  25.302  37.561   9.195
   96POPC   GL2 4874  25.610  37.376   9.088
   96POPC   C1A 4875  25.394  37.735   8.799
   96POPC   D2A 4876  25.167  37.792   8.435
   96POPC   C3A 4877  25.327  37.807   8.060
   96POPC   C4A 4878  25.135  37.621   7.753
   96POPC   C1B 4879  25.655  37.259   8.700
   96POPC   C2B 4880  25.591  37.455   8.334
   96POPC   C3B 4881  25.576  37.380   7.905
   96POPC   C4B 4882  25.807  37.487   7.531
   97POPC   NC3 4883  12.396   5.176   9.751
   97POPC   PO4 4884  13.000   5.318   9.617
   97POPC   GL1 4885  12.970   5.181   9.213
   97POPC   GL2 4886  12.621   5.221   9.271
   97POPC   C1A 4887  13.065   5.077   8.780
   97POPC   D2A 4888  13.179   4.895   8.369
   97POPC   C3A 4889  13.185   5.215   8.048
   97POPC   C4A 4890  12.995   5.186   7.653
   97POPC   C1B 4891  12.614   5.317   8.815
   97POPC   C2B 4892  12.653   5.033   8.452
   97POPC   C3B 4893  12.685   5.098   8.056
   97POPC   C4B 4894  12.538   4.942   7.701
   98POPC   NC3 4895   0.153  41.751   9.538
   98POPC   PO4 4896   0.597  41.294   9.678
   98POPC   GL1 4897   0.395  41.402   9.255
   98POPC   GL2 4898   0.628  41.632   9.093
   98POPC   C1A 4899   0.233  41.469   8.815
   98POPC   D2A 4900   0.519  41.469   8.440
   98POPC   C3A 4901   0.373  41.376   8.014
   98POPC   C4A 4902   0.152  41.605   7.676
   98POPC   C1B 4903   0.599  41.893   8.744
   98POPC   C2B 4904   0.650  41.951   8.309
   98POPC   C3B 4905   0.662  41.802   7.897
   98POPC   C4B 4906   0.797  41.455   7.694
   99POPC   NC3 4907  18.019  14.227   9.909
   99POPC   PO4 4908  18.244  14.607   9.346
   99POPC   GL1 4909  18.233  14.347   9.052
   99POPC   GL2 4910  18.511  14.109   9.226
   99POPC   C1A 4911  18.157  14.629   8.681
   99POPC   D2A 4912  18.095  14.923   8.335
   99POPC   C3A 4913  18.027  14.638   7.996
   99POPC   C4A 4914  17.954  14.538   7.566
   99POPC   C1B 4915  18.624  14.199   8.787
   99POPC   C2B 4916  18.432  14.314   8.394
   99POPC   C3B 4917  18.546  14.452   8.014
   99POPC   C4B 4918  18.507  14.266   7.616
  100POPC   NC3 4919  29.529   5.148   9.994
  100POPC   PO4 4920  29.174   4.624   9.751
  100POPC   GL1 4921  29.294   4.816   9.271
  100POPC   GL2 4922  29.554   5.103   9.175
  100POPC   C1A 4923  29.206   4.939   8.788
  100POPC   D2A 4924  29.462   4.910   8.345
  100POPC   C3A 4925  29.185   4.975   7.977
  100POPC   C4A 4926  28.878   5.203   7.695
  100POPC   C1B 4927  29.618   5.231   8.740
  100POPC   C2B 4928  29.749   5.347   8.339
  100POPC   C3B 4929  29.693   5.186   7.917
  100POPC   C4B 4930  29.618   4.764   7.789
  101POPC   NC3 4931  23.590  39.679   9.424
  101POPC   PO4 4932  23.940  40.209   9.398
  101POPC   GL1 4933  23.869  39.933   9.087
  101POPC   GL2 4934  23.500  40.003   9.041
  101POPC   C1A 4935  24.006  39.817   8.702
  101POPC   D2A 4936  23.824  39.949   8.353
  101POPC   C3A 4937  23.859  39.735   7.990
  101POPC   C4A 4938  23.737  39.973   7.610
  101POPC   C1B 4939  23.480  39.734   8.696
  101POPC   C2B 4940  23.423  39.634   8.262
  101POPC   C3B 4941  23.397  39.981   7.983
  101POPC   C4B 4942  23.241  40.033   7.540
  102POPC   NC3 4943  14.857  32.903   9.557
  102POPC   PO4 4944  14.205  33.097   9.683
  102POPC   GL1 4945  14.218  33.153   9.240
  102POPC   GL2 4946  14.551  33.055   9.184
  102POPC   C1A 4947  14.244  33.070   8.774
  102POPC   D2A 4948  14.605  33.029   8.498
  102POPC   C3A 4949  14.576  33.145   8.104
  102POPC   C4A 4950  14.447  33.005   7.720
  102POPC   C1B 4951  14.783  32.780   8.895
  102POPC   C2B 4952  14.777  32.541   8.515
  102POPC   C3B 4953  14.662  32.611   8.099
  102POPC   C4B 4954  14.422  32.496   7.748
  103POPC   NC3 4955   4.131  22.880   9.514
  103POPC   PO4 4956   4.610  23.225   9.680
  103POPC   GL1 4957   4.522  22.814   9.222
  103POPC   GL2 4958   4.148  22.712   9.063
  103POPC   C1A 4959   4.421  22.865   8.699
  103POPC   D2A 4960   4.610  22.720   8.322
  103POPC   C3A 4961   4.411  22.900   7.974
  103POPC   C4A 4962   4.328  23.182   7.627
  103POPC   C1B 4963   3.945  22.610   8.701
  103POPC   C2B 4964   4.080  22.702   8.305
  103POPC   C3B 4965   4.049  22.499   7.917
  103POPC   C4B 4966   3.798  22.570   7.565
  104POPC   NC3 4967   6.631  18.778   9.399
  104POPC   PO4 4968   6.563  19.458   9.530
  104POPC   GL1 4969   6.706  19.244   9.168
  104POPC   GL2 4970   6.993  19.437   9.141
  104POPC   C1A 4971   6.600  19.018   8.773
  104POPC   D2A 4972   6.504  19.118   8.347
  104POPC   C3A 4973   6.619  18.865   8.025
  104POPC   C4A 4974   6.414  18.853   7.678
  104POPC   C1B 4975   7.039  19.281   8.766
  104POPC   C2B 4976   6.930  19.421   8.367
  104POPC   C3B 4977   6.774  19.381   7.964
  104POPC   C4B 4978   6.888  19.140   7.637
  105POPC   NC3 4979  44.892  26.865   9.754
  105POPC   PO4 4980   0.478  27.142   9.566
  105POPC   GL1 4981   0.456  26.867   9.181
  105POPC   GL2 4982   0.711  26.596   9.083
  105POPC   C1A 4983   0.324  26.808   8.750
  105POPC   D2A 4984   0.075  26.978   8.438
  105POPC   C3A 4985   0.287  26.887   8.074
  105POPC   C4A 4986   0.280  26.727   7.679
  105POPC   C1B 4987   0.813  26.965   8.822
  105POPC   C2B 4988   0.624  27.167   8.458
  105POPC   C3B 4989   0.873  27.296   8.108
  105POPC   C4B 4990   0.937  27.466   7.711
  106POPC   NC3 4991  42.588   0.132   9.866
  106POPC   PO4 4992  42.153   0.494   9.630
  106POPC   GL1 4993  42.463   0.276   9.339
  106POPC   GL2 4994  42.218   0.293   9.093
  106POPC   C1A 4995  42.618   0.082   8.915
  106POPC   D2A 4996  42.385   0.073   8.493
  106POPC   C3A 4997  42.601  44.976   8.094
  106POPC   C4A 4998  42.553   0.230   7.709
  106POPC   C1B 4999  42.093   0.626   8.764
  106POPC   C2B 5000  42.232   0.578   8.377
  106POPC   C3B 5001  42.204   0.333   8.041
  106POPC   C4B 5002  42.172   0.588   7.672
  107POPC   NC3 5003  21.808   0.149   9.653
  107POPC   PO4 5004  22.344   0.401   9.534
  107POPC   GL1 5005  22.299   0.525   9.124
  107POPC   GL2 5006  22.030   0.297   9.118
  107POPC   C1A 5007  22.210   0.476   8.678
  107POPC   D2A 5008  22.264   0.347   8.251
  107POPC   C3A 5009  22.334   0.457   7.815
  107POPC   C4A 5010  22.536   0.520   7.413
  107POPC   C1B 5011  21.893   0.061   8.747
  107POPC   C2B 5012  22.003  44.922   8.347
  107POPC   C3B 5013  21.996   0.066   7.915
  107POPC   C4B 5014  22.060   0.173   7.468
  108POPC   NC3 5015  22.214  31.066   9.537
  108POPC   PO4 5016  22.058  31.716   9.603
  108POPC   GL1 5017  22.282  31.563   9.250
  108POPC   GL2 5018  22.011  31.367   9.191
  108POPC   C1A 5019  22.416  31.495   8.800
  108POPC   D2A 5020  22.484  31.235   8.401
  108POPC   C3A 5021  22.379  31.412   7.973
  108POPC   C4A 5022  22.291  31.759   7.668
  108POPC   C1B 5023  21.878  31.400   8.812
  108POPC   C2B 5024  21.932  31.275   8.444
  108POPC   C3B 5025  21.786  31.326   8.065
  108POPC   C4B 5026  21.923  31.413   7.666
  109POPC   NC3 5027  28.623  13.527   9.499
  109POPC   PO4 5028  28.016  13.758   9.548
  109POPC   GL1 5029  28.211  13.749   9.140
  109POPC   GL2 5030  28.064  13.449   9.006
  109POPC   C1A 5031  28.558  13.565   8.856
  109POPC   D2A 5032  28.575  13.280   8.484
  109POPC   C3A 5033  28.637  13.453   8.060
  109POPC   C4A 5034  28.653  13.765   7.765
  109POPC   C1B 5035  28.161  13.718   8.615
  109POPC   C2B 5036  28.321  13.843   8.225
  109POPC   C3B 5037  28.146  13.729   7.819
  109POPC   C4B 5038  28.102  13.965   7.399
  110POPC   NC3 5039  36.095  16.577   9.567
  110POPC   PO4 5040  36.457  17.095   9.199
  110POPC   GL1 5041  36.100  16.878   9.147
  110POPC   GL2 5042  36.204  16.561   9.092
  110POPC   C1A 5043  35.893  16.843   8.777
  110POPC   D2A 5044  35.927  16.582   8.412
  110POPC   C3A 5045  36.043  16.754   8.011
  110POPC   C4A 5046  35.941  16.871   7.577
  110POPC   C1B 5047  36.368  16.636   8.716
  110POPC   C2B 5048  36.450  16.583   8.318
  110POPC   C3B 5049  36.445  16.440   7.920
  110POPC   C4B 5050  36.427  16.755   7.613
  111POPC   NC3 5051  36.851  42.843   9.603
  111POPC   PO4 5052  37.181  43.531   9.582
  111POPC   GL1 5053  36.935  43.267   9.266
  111POPC   GL2 5054  37.034  42.920   9.149
  111POPC   C1A 5055  37.002  43.334   8.829
  111POPC   D2A 5056  36.818  43.339   8.437
  111POPC   C3A 5057  37.062  43.290   8.078
  111POPC   C4A 5058  36.933  43.198   7.674
  111POPC   C1B 5059  37.252  42.889   8.806
  111POPC   C2B 5060  37.110  42.901   8.430
  111POPC   C3B 5061  37.368  42.875   8.080
  111POPC   C4B 5062  37.327  42.902   7.667
  112POPC   NC3 5063  22.684  18.152   9.640
  112POPC   PO4 5064  22.070  18.556   9.584
  112POPC   GL1 5065  22.081  18.190   9.264
  112POPC   GL2 5066  21.756  18.105   9.087
  112POPC   C1A 5067  22.289  18.015   8.863
  112POPC   D2A 5068  22.151  18.031   8.400
  112POPC   C3A 5069  22.420  17.965   7.970
  112POPC   C4A 5070  22.292  17.966   7.502
  112POPC   C1B 5071  21.656  18.336   8.671
  112POPC   C2B 5072  21.649  18.393   8.202
  112POPC   C3B 5073  21.894  18.626   7.886
  112POPC   C4B 5074  21.933  18.817   7.473
  113POPC   NC3 5075  16.332  24.487   9.452
  113POPC   PO4 5076  15.632  24.498   9.592
  113POPC   GL1 5077  15.841  24.329   9.237
  113POPC   GL2 5078  15.980  24.616   9.106
  113POPC   C1A 5079  15.764  24.235   8.804
  113POPC   D2A 5080  15.846  24.108   8.380
  113POPC   C3A 5081  15.868  24.408   8.048
  113POPC   C4A 5082  15.544  24.320   7.749
  113POPC   C1B 5083  16.256  24.480   8.775
  113POPC   C2B 5084  16.345  24.262   8.361
  113POPC   C3B 5085  16.356  24.300   7.899
  113POPC   C4B 5086  16.185  24.594   7.598
  114POPC   NC3 5087  19.675  21.696   9.515
  114POPC   PO4 5088  20.171  21.250   9.668
  114POPC   GL1 5089  19.945  21.196   9.234
  114POPC   GL2 5090  19.812  21.504   9.082
  114POPC   C1A 5091  19.998  21.187   8.757
  114POPC   D2A 5092  19.811  21.482   8.444
  114POPC   C3A 5093  19.963  21.379   8.076
  114POPC   C4A 5094  20.138  21.108   7.806
  114POPC   C1B 5095  19.552  21.713   8.806
  114POPC   C2B 5096  19.413  21.911   8.446
  114POPC   C3B 5097  19.418  21.889   8.011
  114POPC   C4B 5098  19.710  21.677   7.763
  115POPC   NC3 5099   4.528  40.565   9.688
  115POPC   PO4 5100   4.058  40.928   9.762
  115POPC   GL1 5101   4.244  40.840   9.286
  115POPC   GL2 5102   4.429  40.565   9.187
  115POPC   C1A 5103   4.487  40.957   8.869
  115POPC   D2A 5104   4.511  41.251   8.507
  115POPC   C3A 5105   4.517  41.107   8.071
  115POPC   C4A 5106   4.374  41.003   7.650
  115POPC   C1B 5107   4.286  40.455   8.763
  115POPC   C2B 5108   4.400  40.436   8.324
  115POPC   C3B 5109   4.206  40.603   7.959
  115POPC   C4B 5110   4.197  40.502   7.512
  116POPC   NC3 5111  34.282  29.796   9.330
  116POPC   PO4 5112  33.705  29.883   9.801
  116POPC   GL1 5113  33.717  29.859   9.338
  116POPC   GL2 5114  33.901  30.160   9.253
  116POPC   C1A 5115  33.530  29.863   8.900
  116POPC   D2A 5116  33.532  30.187   8.532
  116POPC   C3A 5117  33.776  30.130   8.140
  116POPC   C4A 5118  33.812  30.340   7.723
  116POPC   C1B 5119  33.961  30.110   8.817
  116POPC   C2B 5120  34.030  29.799   8.500
  116POPC   C3B 5121  34.264  29.839   8.114
  116POPC   C4B 5122  34.198  30.024   7.725
  117POPC   NC3 5123  18.107  21.274   9.539
  117POPC   PO4 5124  18.717  21.086   9.440
  117POPC   GL1 5125  18.446  21.352   9.119
  117POPC   GL2 5126  18.051  21.401   9.066
  117POPC   C1A 5127  18.413  21.553   8.728
  117POPC   D2A 5128  18.320  21.357   8.335
  117POPC   C3A 5129  18.324  21.597   7.975
  117POPC   C4A 5130  18.208  21.413   7.610
  117POPC   C1B 5131  17.784  21.098   8.840
  117POPC   C2B 5132  17.785  21.140   8.378
  117POPC   C3B 5133  18.005  21.082   7.948
  117POPC   C4B 5134  17.903  21.050   7.437
  118POPC   NC3 5135  44.163  43.682   9.744
  118POPC   PO4 5136  43.825  43.137   9.496
  118POPC   GL1 5137  43.826  43.272   9.111
  118POPC   GL2 5138  44.174  43.166   9.101
  118POPC   C1A 5139  43.915  43.302   8.689
  118POPC   D2A 5140  44.072  43.167   8.351
  118POPC   C3A 5141  43.885  43.309   8.011
  118POPC   C4A 5142  43.898  43.145   7.626
  118POPC   C1B 5143  44.171  42.859   8.764
  118POPC   C2B 5144  44.102  42.672   8.365
  118POPC   C3B 5145  44.109  42.815   7.942
  118POPC   C4B 5146  44.125  42.728   7.474
  119POPC   NC3 5147  31.887  39.293   9.491
  119POPC   PO4 5148  31.229  39.161   9.463
  119POPC   GL1 5149  31.485  39.232   9.156
  119POPC   GL2 5150  31.660  38.910   9.186
  119POPC   C1A 5151  31.303  39.435   8.784
  119POPC   D2A 5152  31.003  39.385   8.448
  119POPC   C3A 5153  31.292  39.299   8.139
  119POPC   C4A 5154  31.444  39.388   7.753
  119POPC   C1B 5155  31.676  39.039   8.739
  119POPC   C2B 5156  31.681  38.850   8.365
  119POPC   C3B 5157  31.742  39.041   8.002
  119POPC   C4B 5158  31.824  39.095   7.588
  120POPC   NC3 5159  27.465  10.475   9.572
  120POPC   PO4 5160  28.090  10.882   9.513
  120POPC   GL1 5161  27.781  10.710   9.221
  120POPC   GL2 5162  28.007  10.429   9.246
  120POPC   C1A 5163  27.473  10.768   8.810
  120POPC   D2A 5164  27.386  10.869   8.335
  120POPC   C3A 5165  27.395  10.490   8.024
  120POPC   C4A 5166  27.440  10.445   7.539
  120POPC   C1B 5167  28.085  10.619   8.846
  120POPC   C2B 5168  27.855  10.673   8.482
  120POPC   C3B 5169  27.855  10.714   8.069
  120POPC   C4B 5170  27.903  10.589   7.702
  121POPC   NC3 5171  42.381  33.198   9.549
  121POPC   PO4 5172  42.358  33.859   9.601
  121POPC   GL1 5173  42.469  33.822   9.185
  121POPC   GL2 5174  42.240  33.532   9.175
  121POPC   C1A 5175  42.516  34.016   8.753
  121POPC   D2A 5176  42.650  34.187   8.325
  121POPC   C3A 5177  42.593  33.893   7.959
  121POPC   C4A 5178  42.203  33.839   7.729
  121POPC   C1B 5179  42.270  33.554   8.750
  121POPC   C2B 5180  42.330  33.685   8.345
  121POPC   C3B 5181  42.212  33.420   7.987
  121POPC   C4B 5182  42.357  33.354   7.521
  122POPC   NC3 5183   3.049  20.169   9.472
  122POPC   PO4 5184   2.431  19.811   9.587
  122POPC   GL1 5185   2.734  19.811   9.224
  122POPC   GL2 5186   2.980  19.543   9.250
  122POPC   C1A 5187   2.900  19.972   8.801
  122POPC   D2A 5188   3.002  19.954   8.336
  122POPC   C3A 5189   2.664  20.019   8.064
  122POPC   C4A 5190   2.698  19.648   7.854
  122POPC   C1B 5191   3.103  19.484   8.820
  122POPC   C2B 5192   3.198  19.340   8.396
  122POPC   C3B 5193   3.207  19.563   7.993
  122POPC   C4B 5194   3.148  19.577   7.529
  123POPC   NC3 5195  32.526  12.357   9.560
  123POPC   PO4 5196  32.262  13.048   9.453
  123POPC   GL1 5197  32.239  13.063   9.049
  123POPC   GL2 5198  31.955  13.233   9.060
  123POPC   C1A 5199  32.184  12.808   8.698
  123POPC   D2A 5200  32.195  12.617   8.294
  123POPC   C3A 5201  32.423  12.726   7.937
  123POPC   C4A 5202  32.212  12.498   7.631
  123POPC   C1B 5203  32.003  13.357   8.647
  123POPC   C2B 5204  31.954  13.069   8.285
  123POPC   C3B 5205  31.940  12.922   7.870
  123POPC   C4B 5206  32.052  13.097   7.470
  124POPC   NC3 5207  33.636  37.520   9.726
  124POPC   PO4 5208  34.236  37.714   9.626
  124POPC   GL1 5209  33.972  37.664   9.250
  124POPC   GL2 5210  33.611  37.691   9.223
  124POPC   C1A 5211  33.910  37.689   8.800
  124POPC   D2A 5212  34.123  37.721   8.386
  124POPC   C3A 5213  33.988  37.584   7.971
  124POPC   C4A 5214  33.684  37.802   7.741
  124POPC   C1B 5215  33.360  37.595   8.819
  124POPC   C2B 5216  33.219  37.334   8.426
  124POPC   C3B 5217  33.435  37.208   8.041
  124POPC   C4B 5218  33.656  37.318   7.646
  125POPC   NC3 5219  43.639  12.713   9.353
  125POPC   PO4 5220  44.136  13.040   9.547
  125POPC   GL1 5221  43.953  13.204   9.125
  125POPC   GL2 5222  43.595  13.233   9.098
  125POPC   C1A 5223  43.959  13.177   8.625
  125POPC   D2A 5224  44.083  12.850   8.298
  125POPC   C3A 5225  44.006  12.761   7.845
  125POPC   C4A 5226  44.213  12.592   7.455
  125POPC   C1B 5227  43.439  13.113   8.669
  125POPC   C2B 5228  43.586  13.029   8.264
  125POPC   C3B 5229  43.609  13.103   7.848
  125POPC   C4B 5230  43.384  12.947   7.542
  126POPC   NC3 5231  12.289  22.946   9.343
  126POPC   PO4 5232  11.855  23.275   9.746
  126POPC   GL1 5233  11.932  23.221   9.200
  126POPC   GL2 5234  11.937  22.844   9.003
  126POPC   C1A 5235  11.798  23.258   8.757
  126POPC   D2A 5236  11.783  22.927   8.487
  126POPC   C3A 5237  12.055  22.985   8.144
  126POPC   C4A 5238  11.813  22.977   7.767
  126POPC   C1B 5239  12.270  22.961   8.692
  126POPC   C2B 5240  12.494  22.798   8.361
  126POPC   C3B 5241  12.375  22.567   8.047
  126POPC   C4B 5242  12.305  22.779   7.697
  127POPC   NC3 5243  43.881  29.165   9.608
  127POPC   PO4 5244  43.804  28.528   9.438
  127POPC   GL1 5245  43.883  28.945   9.141
  127POPC   GL2 5246  43.802  29.343   9.132
  127POPC   C1A 5247  43.973  29.123   8.706
  127POPC   D2A 5248  43.770  29.132   8.295
  127POPC   C3A 5249  43.922  29.130   7.863
  127POPC   C4A 5250  44.017  28.943   7.474
  127POPC   C1B 5251  43.659  29.542   8.720
  127POPC   C2B 5252  43.729  29.655   8.273
  127POPC   C3B 5253  43.518  29.460   7.903
  127POPC   C4B 5254  43.598  29.267   7.467
  128POPC   NC3 5255  24.178   7.182   9.717
  128POPC   PO4 5256  23.597   7.142   9.482
  128POPC   GL1 5257  23.722   7.339   9.169
  128POPC   GL2 5258  24.061   7.258   9.191
  128POPC   C1A 5259  23.510   7.440   8.813
  128POPC   D2A 5260  23.689   7.564   8.427
  128POPC   C3A 5261  23.562   7.438   8.050
  128POPC   C4A 5262  23.557   7.650   7.681
  128POPC   C1B 5263  24.021   7.570   8.826
  128POPC   C2B 5264  24.184   7.649   8.407
  128POPC   C3B 5265  24.132   7.334   8.121
  128POPC   C4B 5266  23.940   7.317   7.727
  129POPC   NC3 5267  25.977  10.716   9.487
  129POPC   PO4 5268  26.127  10.056   9.621
  129POPC   GL1 5269  26.218  10.315   9.280
  129POPC   GL2 5270  25.848  10.377   9.152
  129POPC   C1A 5271  26.265  10.270   8.851
  129POPC   D2A 5272  26.052  10.354   8.469
  129POPC   C3A 5273  26.168  10.158   8.121
  129POPC   C4A 5274  26.032  10.268   7.668
  129POPC   C1B 5275  25.868  10.682   8.821
  129POPC   C2B 5276  25.719  10.731   8.400
  129POPC   C3B 5277  25.953  10.656   7.993
  129POPC   C4B 5278  25.825  10.797   7.547
  130POPC   NC3 5279  16.328   0.381   9.556
  130POPC   PO4 5280  16.993   0.256   9.589
  130POPC   GL1 5281  16.760   0.554   9.314
  130POPC   GL2 5282  16.961   0.727   9.109
  130POPC   C1A 5283  16.556   0.498   8.907
  130POPC   D2A 5284  16.651   0.470   8.477
  130POPC   C3A 5285  16.530   0.408   8.068
  130POPC   C4A 5286  16.631   0.194   7.707
  130POPC   C1B 5287  17.078   0.518   8.755
  130POPC   C2B 5288  17.102   0.680   8.339
  130POPC   C3B 5289  16.947   0.721   7.908
  130POPC   C4B 5290  16.969   0.514   7.508
  131POPC   NC3 5291  44.947  38.735   9.401
  131POPC   PO4 5292  44.448  38.307   9.563
  131POPC   GL1 5293  44.601  38.392   9.146
  131POPC   GL2 5294  44.935  38.330   9.101
  131POPC   C1A 5295  44.440  38.526   8.722
  131POPC   D2A 5296  44.646  38.493   8.286
  131POPC   C3A 5297  44.369  38.651   8.017
  131POPC   C4A 5298  44.362  38.853   7.662
  131POPC   C1B 5299  44.903  38.341   8.695
  131POPC   C2B 5300   0.026  38.116   8.345
  131POPC   C3B 5301   0.025  38.266   7.967
  131POPC   C4B 5302  44.876  38.669   7.819
  132POPC   NC3 5303   4.904  40.390   9.269
  132POPC   PO4 5304   4.682  40.973   9.500
  132POPC   GL1 5305   5.049  40.922   9.206
  132POPC   GL2 5306   5.322  40.675   9.250
  132POPC   C1A 5307   5.107  40.818   8.761
  132POPC   D2A 5308   4.753  40.788   8.453
  132POPC   C3A 5309   4.796  40.649   8.033
  132POPC   C4A 5310   4.880  40.940   7.725
  132POPC   C1B 5311   5.572  40.579   8.900
  132POPC   C2B 5312   5.688  40.751   8.517
  132POPC   C3B 5313   5.593  40.604   8.121
  132POPC   C4B 5314   5.276  40.621   7.806
  133POPC   NC3 5315  33.468  29.239   9.490
  133POPC   PO4 5316  34.154  29.359   9.500
  133POPC   GL1 5317  33.852  29.407   9.134
  133POPC   GL2 5318  33.736  29.058   9.092
  133POPC   C1A 5319  33.719  29.362   8.671
  133POPC   D2A 5320  33.880  29.027   8.367
  133POPC   C3A 5321  33.946  29.068   7.876
  133POPC   C4A 5322  33.963  28.744   7.491
  133POPC   C1B 5323  33.335  29.043   8.844
  133POPC   C2B 5324  33.238  29.210   8.423
  133POPC   C3B 5325  33.455  29.090   8.060
  133POPC   C4B 5326  33.510  28.859   7.695
  134POPC   NC3 5327  38.509  10.108   9.562
  134POPC   PO4 5328  38.227   9.419   9.459
  134POPC   GL1 5329  38.194   9.678   9.118
  134POPC   GL2 5330  38.544   9.735   9.142
  134POPC   C1A 5331  38.323   9.807   8.691
  134POPC   D2A 5332  38.460   9.563   8.333
  134POPC   C3A 5333  38.319   9.751   7.951
  134POPC   C4A 5334  38.096  10.033   7.709
  134POPC   C1B 5335  38.813   9.889   8.777
  134POPC   C2B 5336  38.736   9.977   8.313
  134POPC   C3B 5337  38.822   9.722   7.949
  134POPC   C4B 5338  38.701   9.285   7.961
  135POPC   NC3 5339  29.431   8.537   9.555
  135POPC   PO4 5340  28.895   8.074   9.439
  135POPC   GL1 5341  29.112   8.387   9.180
  135POPC   GL2 5342  29.462   8.258   9.129
  135POPC   C1A 5343  29.242   8.526   8.763
  135POPC   D2A 5344  29.052   8.323   8.429
  135POPC   C3A 5345  29.041   8.402   8.000
  135POPC   C4A 5346  28.903   8.439   7.581
  135POPC   C1B 5347  29.305   7.881   8.897
  135POPC   C2B 5348  29.380   7.668   8.498
  135POPC   C3B 5349  29.232   7.899   8.116
  135POPC   C4B 5350  29.132   7.941   7.696
  136POPC   NC3 5351  13.610  18.559  10.067
  136POPC   PO4 5352  13.888  18.099   9.642
  136POPC   GL1 5353  13.803  18.001   9.215
  136POPC   GL2 5354  13.756  18.364   9.091
  136POPC   C1A 5355  13.640  17.967   8.796
  136POPC   D2A 5356  13.799  18.226   8.450
  136POPC   C3A 5357  13.511  18.314   8.145
  136POPC   C4A 5358  13.470  18.035   7.836
  136POPC   C1B 5359  14.032  18.554   8.768
  136POPC   C2B 5360  14.177  18.570   8.335
  136POPC   C3B 5361  13.961  18.575   7.939
  136POPC   C4B 5362  13.606  18.530   7.688
  137POPC   NC3 5363  16.432  36.470   9.501
  137POPC   PO4 5364  16.999  36.835   9.589
  137POPC   GL1 5365  16.837  36.866   9.191
  137POPC   GL2 5366  17.083  37.071   9.075
  137POPC   C1A 5367  16.766  36.651   8.791
  137POPC   D2A 5368  16.928  36.527   8.372
  137POPC   C3A 5369  16.751  36.692   7.974
  137POPC   C4A 5370  16.543  36.803   7.606
  137POPC   C1B 5371  17.020  37.073   8.647
  137POPC   C2B 5372  16.690  37.003   8.360
  137POPC   C3B 5373  16.667  37.183   7.942
  137POPC   C4B 5374  17.030  37.075   7.680
  138POPC   NC3 5375  11.492  25.647   9.260
  138POPC   PO4 5376  11.335  26.167   9.612
  138POPC   GL1 5377  11.178  26.027   9.159
  138POPC   GL2 5378  11.118  25.672   8.948
  138POPC   C1A 5379  11.274  26.082   8.707
  138POPC   D2A 5380  11.147  25.962   8.297
  138POPC   C3A 5381  11.294  26.247   7.965
  138POPC   C4A 5382  11.122  26.257   7.536
  138POPC   C1B 5383  11.395  25.580   8.586
  138POPC   C2B 5384  11.604  25.714   8.192
  138POPC   C3B 5385  11.520  25.829   7.753
  138POPC   C4B 5386  11.753  25.840   7.340
  139POPC   NC3 5387   2.037  10.036   9.641
  139POPC   PO4 5388   2.018   9.433   9.471
  139POPC   GL1 5389   2.218   9.665   9.129
  139POPC   GL2 5390   2.265  10.034   9.176
  139POPC   C1A 5391   2.109   9.563   8.699
  139POPC   D2A 5392   1.830   9.437   8.365
  139POPC   C3A 5393   1.954   9.573   7.968
  139POPC   C4A 5394   1.903   9.355   7.610
  139POPC   C1B 5395   2.045  10.059   8.791
  139POPC   C2B 5396   2.040   9.953   8.350
  139POPC   C3B 5397   2.237   9.992   7.946
  139POPC   C4B 5398   2.250   9.785   7.532
  140POPC   NC3 5399   8.406  30.405   9.531
  140POPC   PO4 5400   7.978  30.945   9.511
  140POPC   GL1 5401   8.297  30.828   9.243
  140POPC   GL2 5402   8.012  30.611   9.116
  140POPC   C1A 5403   8.434  30.700   8.831
  140POPC   D2A 5404   8.327  30.601   8.411
  140POPC   C3A 5405   8.483  30.825   8.045
  140POPC   C4A 5406   8.411  30.685   7.623
  140POPC   C1B 5407   8.033  31.022   8.858
  140POPC   C2B 5408   8.024  31.027   8.426
  140POPC   C3B 5409   7.950  30.745   8.068
  140POPC   C4B 5410   7.927  30.828   7.637
  141POPC   NC3 5411  28.172  42.109   9.254
  141POPC   PO4 5412  28.600  42.578   9.440
  141POPC   GL1 5413  28.476  42.477   9.026
  141POPC   GL2 5414  28.641  42.138   9.043
  141POPC   C1A 5415  28.235  42.415   8.617
  141POPC   D2A 5416  28.046  42.073   8.303
  141POPC   C3A 5417  28.205  42.156   7.888
  141POPC   C4A 5418  28.336  42.551   7.762
  141POPC   C1B 5419  28.756  42.243   8.640
  141POPC   C2B 5420  29.008  42.211   8.263
  141POPC   C3B 5421  28.786  42.349   7.915
  141POPC   C4B 5422  28.668  42.050   7.629
  142POPC   NC3 5423  25.421  32.936   9.950
  142POPC   PO4 5424  24.896  32.972   9.576
  142POPC   GL1 5425  24.919  32.879   9.130
  142POPC   GL2 5426  24.967  32.514   9.124
  142POPC   C1A 5427  24.864  33.080   8.697
  142POPC   D2A 5428  24.805  33.284   8.271
  142POPC   C3A 5429  25.162  33.234   7.951
  142POPC   C4A 5430  25.375  33.063   7.564
  142POPC   C1B 5431  25.125  32.634   8.695
  142POPC   C2B 5432  25.112  32.832   8.273
  142POPC   C3B 5433  25.119  32.687   7.837
  142POPC   C4B 5434  25.393  32.521   7.495
  143POPC   NC3 5435  26.206  36.605   9.523
  143POPC   PO4 5436  26.308  35.930   9.486
  143POPC   GL1 5437  25.939  36.038   9.199
  143POPC   GL2 5438  25.809  36.388   9.163
  143POPC   C1A 5439  25.820  36.050   8.757
  143POPC   D2A 5440  25.994  36.035   8.313
  143POPC   C3A 5441  25.741  36.037   7.918
  143POPC   C4A 5442  25.882  35.989   7.473
  143POPC   C1B 5443  26.116  36.459   8.848
  143POPC   C2B 5444  26.332  36.429   8.467
  143POPC   C3B 5445  26.459  36.366   8.053
  143POPC   C4B 5446  26.168  36.293   7.759
  144POPC   NC3 5447  23.733  35.766   9.528
  144POPC   PO4 5448  23.909  36.453   9.451
  144POPC   GL1 5449  23.803  36.289   9.064
  144POPC   GL2 5450  23.586  36.028   9.105
  144POPC   C1A 5451  23.740  36.311   8.626
  144POPC   D2A 5452  23.826  36.578   8.275
  144POPC   C3A 5453  23.684  36.401   7.884
  144POPC   C4A 5454  23.677  35.963   7.756
  144POPC   C1B 5455  23.681  35.808   8.747
  144POPC   C2B 5456  23.589  35.881   8.328
  144POPC   C3B 5457  23.304  36.098   8.096
  144POPC   C4B 5458  23.170  36.323   7.758
  145POPC   NC3 5459  44.573  16.030   9.933
  145POPC   PO4 5460  44.606  16.700   9.826
  145POPC   GL1 5461  44.650  16.742   9.337
  145POPC   GL2 5462  44.939  16.573   9.176
  145POPC   C1A 5463  44.618  16.830   8.853
  145POPC   D2A 5464  44.753  17.012   8.431
  145POPC   C3A 5465  44.729  16.805   8.049
  145POPC   C4A 5466  44.891  16.888   7.653
  145POPC   C1B 5467  44.829  16.355   8.780
  145POPC   C2B 5468  44.608  16.418   8.403
  145POPC   C3B 5469  44.763  16.286   7.977
  145POPC   C4B 5470  44.526  16.509   7.669
  146POPC   NC3 5471   6.207  38.651   9.553
  146POPC   PO4 5472   5.562  38.399   9.609
  146POPC   GL1 5473   5.763  38.555   9.214
  146POPC   GL2 5474   6.025  38.791   9.090
  146POPC   C1A 5475   5.753  38.417   8.785
  146POPC   D2A 5476   5.650  38.473   8.343
  146POPC   C3A 5477   5.800  38.258   7.957
  146POPC   C4A 5478   5.700  38.442   7.562
  146POPC   C1B 5479   6.250  38.595   8.717
  146POPC   C2B 5480   6.180  38.524   8.250
  146POPC   C3B 5481   6.092  38.668   7.836
  146POPC   C4B 5482   6.143  38.602   7.380
  147POPC   NC3 5483  30.326  35.882   9.631
  147POPC   PO4 5484  30.891  35.513   9.427
  147POPC   GL1 5485  30.505  35.508   9.248
  147POPC   GL2 5486  30.592  35.239   9.024
  147POPC   C1A 5487  30.426  35.666   8.820
  147POPC   D2A 5488  30.686  35.427   8.501
  147POPC   C3A 5489  30.526  35.135   8.203
  147POPC   C4A 5490  30.541  35.172   7.756
  147POPC   C1B 5491  30.984  35.161   8.813
  147POPC   C2B 5492  31.051  35.075   8.365
  147POPC   C3B 5493  30.962  35.341   7.988
  147POPC   C4B 5494  31.002  35.241   7.511
  148POPC   NC3 5495  41.562   6.820   9.475
  148POPC   PO4 5496  41.670   6.052   9.468
  148POPC   GL1 5497  41.571   6.285   9.080
  148POPC   GL2 5498  41.719   6.613   9.051
  148POPC   C1A 5499  41.596   6.423   8.619
  148POPC   D2A 5500  41.226   6.511   8.513
  148POPC   C3A 5501  41.193   6.559   8.108
  148POPC   C4A 5502  41.419   6.589   7.783
  148POPC   C1B 5503  41.848   6.863   8.677
  148POPC   C2B 5504  41.707   6.802   8.237
  148POPC   C3B 5505  41.894   6.743   7.816
  148POPC   C4B 5506  41.706   6.694   7.379
  149POPC   NC3 5507  31.835  23.413   9.628
  149POPC   PO4 5508  31.402  23.886   9.697
  149POPC   GL1 5509  31.606  23.832   9.294
  149POPC   GL2 5510  31.567  23.509   9.216
  149POPC   C1A 5511  31.560  23.911   8.843
  149POPC   D2A 5512  31.666  23.947   8.405
  149POPC   C3A 5513  31.340  23.949   8.084
  149POPC   C4A 5514  31.483  23.855   7.678
  149POPC   C1B 5515  31.509  23.387   8.839
  149POPC   C2B 5516  31.410  23.333   8.449
  149POPC   C3B 5517  31.603  23.477   8.107
  149POPC   C4B 5518  31.468  23.361   7.720
  150POPC   NC3 5519  30.276  41.141   9.548
  150POPC   PO4 5520  29.728  41.536   9.695
  150POPC   GL1 5521  29.802  41.372   9.298
  150POPC   GL2 5522  30.111  41.529   9.206
  150POPC   C1A 5523  29.760  41.385   8.844
  150POPC   D2A 5524  29.707  41.688   8.492
  150POPC   C3A 5525  29.810  41.552   8.077
  150POPC   C4A 5526  29.802  41.293   7.716
  150POPC   C1B 5527  30.131  41.757   8.800
  150POPC   C2B 5528  30.199  41.931   8.427
  150POPC   C3B 5529  30.278  41.787   8.028
  150POPC   C4B 5530  30.134  41.654   7.653
  151POPC   NC3 5531  22.103  14.395   9.515
  151POPC   PO4 5532  22.682  14.793   9.382
  151POPC   GL1 5533  22.366  14.554   9.090
  151POPC   GL2 5534  21.995  14.661   9.085
  151POPC   C1A 5535  22.293  14.266   8.735
  151POPC   D2A 5536  21.986  14.109   8.436
  151POPC   C3A 5537  22.161  14.186   8.071
  151POPC   C4A 5538  22.086  14.361   7.687
  151POPC   C1B 5539  21.855  14.522   8.707
  151POPC   C2B 5540  21.992  14.607   8.305
  151POPC   C3B 5541  21.809  14.719   7.947
  151POPC   C4B 5542  21.399  14.852   7.841
  152POPC   NC3 5543  32.878  20.825   9.750
  152POPC   PO4 5544  32.601  20.290   9.456
  152POPC   GL1 5545  32.957  20.561   9.282
  152POPC   GL2 5546  32.889  20.921   9.207
  152POPC   C1A 5547  33.146  20.443   8.883
  152POPC   D2A 5548  33.052  20.310   8.465
  152POPC   C3A 5549  33.382  20.414   8.200
  152POPC   C4A 5550  33.307  20.515   7.782
  152POPC   C1B 5551  33.052  20.958   8.818
  152POPC   C2B 5552  32.839  20.810   8.473
  152POPC   C3B 5553  33.071  20.851   8.125
  152POPC   C4B 5554  33.035  20.923   7.706
  153POPC   NC3 5555  35.220   6.823   9.529
  153POPC   PO4 5556  35.844   6.963   9.235
  153POPC   GL1 5557  35.455   6.807   9.046
  153POPC   GL2 5558  35.129   6.626   9.065
  153POPC   C1A 5559  35.456   6.552   8.673
  153POPC   D2A 5560  35.464   6.265   8.317
  153POPC   C3A 5561  35.512   6.457   7.900
  153POPC   C4A 5562  35.334   6.421   7.478
  153POPC   C1B 5563  34.953   6.685   8.661
  153POPC   C2B 5564  35.187   6.729   8.261
  153POPC   C3B 5565  35.141   6.800   7.826
  153POPC   C4B 5566  34.847   7.087   7.690
  154POPC   NC3 5567  20.451  34.262   9.543
  154POPC   PO4 5568  20.749  33.647   9.523
  154POPC   GL1 5569  20.639  33.652   9.121
  154POPC   GL2 5570  20.445  33.949   9.111
  154POPC   C1A 5571  20.753  33.801   8.699
  154POPC   D2A 5572  20.871  34.038   8.309
  154POPC   C3A 5573  20.756  33.710   7.978
  154POPC   C4A 5574  20.700  33.467   7.585
  154POPC   C1B 5575  20.237  33.934   8.713
  154POPC   C2B 5576  20.379  33.969   8.307
  154POPC   C3B 5577  20.492  34.135   7.916
  154POPC   C4B 5578  20.287  34.151   7.527
  155POPC   NC3 5579  19.641   5.103   9.586
  155POPC   PO4 5580  20.172   5.038   9.225
  155POPC   GL1 5581  19.838   4.928   8.992
  155POPC   GL2 5582  19.683   5.222   9.093
  155POPC   C1A 5583  19.793   4.979   8.541
  155POPC   D2A 5584  20.075   5.198   8.258
  155POPC   C3A 5585  20.024   4.909   7.952
  155POPC   C4A 5586  19.678   4.803   7.699
  155POPC   C1B 5587  19.850   5.438   8.740
  155POPC   C2B 5588  19.667   5.507   8.387
  155POPC   C3B 5589  19.595   5.219   8.057
  155POPC   C4B 5590  19.857   5.305   7.706
  156POPC   NC3 5591  20.463  31.236   9.551
  156POPC   PO4 5592  20.817  30.626   9.723
  156POPC   GL1 5593  20.657  30.768   9.285
  156POPC   GL2 5594  20.360  30.779   9.361
  156POPC   C1A 5595  20.779  30.662   8.846
  156POPC   D2A 5596  20.727  30.412   8.470
  156POPC   C3A 5597  20.759  30.674   8.115
  156POPC   C4A 5598  20.808  30.467   7.734
  156POPC   C1B 5599  20.312  30.915   8.919
  156POPC   C2B 5600  20.417  30.859   8.501
  156POPC   C3B 5601  20.309  31.002   8.093
  156POPC   C4B 5602  20.459  30.850   7.714
  157POPC   NC3 5603  13.489  11.327   9.683
  157POPC   PO4 5604  13.435  11.934   9.687
  157POPC   GL1 5605  13.398  11.629   9.263
  157POPC   GL2 5606  13.541  11.281   9.193
  157POPC   C1A 5607  13.476  11.590   8.803
  157POPC   D2A 5608  13.810  11.317   8.615
  157POPC   C3A 5609  13.805  11.266   8.182
  157POPC   C4A 5610  13.651  11.512   7.851
  157POPC   C1B 5611  13.460  11.014   8.849
  157POPC   C2B 5612  13.505  10.878   8.438
  157POPC   C3B 5613  13.379  11.021   8.038
  157POPC   C4B 5614  13.664  11.031   7.691
  158POPC   NC3 5615  31.325  28.062   9.742
  158POPC   PO4 5616  31.134  28.602   9.380
  158POPC   GL1 5617  31.471  28.588   9.050
  158POPC   GL2 5618  31.834  28.702   9.109
  158POPC   C1A 5619  31.486  28.293   8.695
  158POPC   D2A 5620  31.151  28.159   8.411
  158POPC   C3A 5621  31.207  28.380   8.030
  158POPC   C4A 5622  31.305  28.340   7.625
  158POPC   C1B 5623  31.975  28.464   8.765
  158POPC   C2B 5624  31.947  28.253   8.394
  158POPC   C3B 5625  31.727  28.289   8.016
  158POPC   C4B 5626  31.730  28.618   7.711
  159POPC   NC3 5627  43.362  33.011   9.615
  159POPC   PO4 5628  42.680  32.841   9.546
  159POPC   GL1 5629  42.999  32.931   9.207
  159POPC   GL2 5630  43.289  33.192   9.164
  159POPC   C1A 5631  42.976  33.112   8.777
  159POPC   D2A 5632  42.998  33.213   8.341
  159POPC   C3A 5633  42.895  32.821   8.093
  159POPC   C4A 5634  43.119  32.601   7.762
  159POPC   C1B 5635  43.480  33.212   8.772
  159POPC   C2B 5636  43.456  33.014   8.396
  159POPC   C3B 5637  43.359  33.014   7.964
  159POPC   C4B 5638  43.565  32.955   7.549
  160POPC   NC3 5639  28.846   1.632   9.366
  160POPC   PO4 5640  29.546   1.566   9.424
  160POPC   GL1 5641  29.197   1.272   9.243
  160POPC   GL2 5642  29.148   1.476   8.983
  160POPC   C1A 5643  29.125   0.984   8.866
  160POPC   D2A 5644  29.038   1.159   8.471
  160POPC   C3A 5645  29.158   0.990   8.064
  160POPC   C4A 5646  29.374   0.792   7.737
  160POPC   C1B 5647  28.891   1.609   8.667
  160POPC   C2B 5648  28.929   1.596   8.222
  160POPC   C3B 5649  28.883   1.380   7.880
  160POPC   C4B 5650  29.093   1.181   7.572
  161POPC   NC3 5651   5.949  41.250   9.579
  161POPC   PO4 5652   5.633  41.809   9.576
  161POPC   GL1 5653   5.796  41.566   9.200
  161POPC   GL2 5654   6.175  41.587   9.255
  161POPC   C1A 5655   5.639  41.635   8.773
  161POPC   D2A 5656   5.779  41.491   8.386
  161POPC   C3A 5657   5.606  41.499   7.985
  161POPC   C4A 5658   5.609  41.809   7.683
  161POPC   C1B 5659   6.272  41.487   8.835
  161POPC   C2B 5660   6.247  41.646   8.430
  161POPC   C3B 5661   6.166  41.442   8.019
  161POPC   C4B 5662   6.107  41.141   7.709
  162POPC   NC3 5663  26.628  41.914   9.492
  162POPC   PO4 5664  27.047  41.290   9.504
  162POPC   GL1 5665  26.748  41.504   9.234
  162POPC   GL2 5666  26.924  41.788   9.105
  162POPC   C1A 5667  26.576  41.497   8.815
  162POPC   D2A 5668  26.736  41.290   8.456
  162POPC   C3A 5669  26.766  41.403   8.039
  162POPC   C4A 5670  26.524  41.460   7.669
  162POPC   C1B 5671  27.054  41.589   8.739
  162POPC   C2B 5672  27.262  41.435   8.386
  162POPC   C3B 5673  27.214  41.625   7.992
  162POPC   C4B 5674  27.052  41.453   7.613
  163POPC   NC3 5675  32.883  37.516   9.459
  163POPC   PO4 5676  33.398  37.914   9.636
  163POPC   GL1 5677  33.149  37.926   9.212
  163POPC   GL2 5678  32.836  37.785   9.047
  163POPC   C1A 5679  33.118  38.085   8.775
  163POPC   D2A 5680  32.919  37.881   8.394
  163POPC   C3A 5681  33.237  37.747   8.085
  163POPC   C4A 5682  33.197  37.554   7.690
  163POPC   C1B 5683  32.851  37.474   8.745
  163POPC   C2B 5684  32.650  37.285   8.414
  163POPC   C3B 5685  32.810  37.438   8.038
  163POPC   C4B 5686  32.665  37.571   7.668
  164POPC   NC3 5687  24.753  33.364   9.341
  164POPC   PO4 5688  24.244  32.901   9.436
  164POPC   GL1 5689  24.420  32.962   9.048
  164POPC   GL2 5690  24.486  32.621   8.972
  164POPC   C1A 5691  24.359  33.149   8.634
  164POPC   D2A 5692  24.263  33.450   8.325
  164POPC   C3A 5693  24.357  33.288   7.913
  164POPC   C4A 5694  24.706  32.993   7.841
  164POPC   C1B 5695  24.106  32.713   8.710
  164POPC   C2B 5696  24.134  32.842   8.281
  164POPC   C3B 5697  24.226  32.778   7.861
  164POPC   C4B 5698  24.191  32.700   7.465
  165POPC   NC3 5699  33.620  19.159   9.530
  165POPC   PO4 5700  34.276  18.833   9.621
  165POPC   GL1 5701  33.950  18.882   9.204
  165POPC   GL2 5702  33.550  18.914   9.089
  165POPC   C1A 5703  33.897  18.794   8.721
  165POPC   D2A 5704  33.806  18.670   8.267
  165POPC   C3A 5705  34.050  18.916   7.967
  165POPC   C4A 5706  34.160  19.368   7.953
  165POPC   C1B 5707  33.249  19.217   8.877
  165POPC   C2B 5708  33.348  19.344   8.437
  165POPC   C3B 5709  33.625  19.192   8.100
  165POPC   C4B 5710  33.592  18.906   7.752
  166POPC   NC3 5711  18.549  44.263   9.642
  166POPC   PO4 5712  18.346  43.576   9.552
  166POPC   GL1 5713  18.314  43.794   9.195
  166POPC   GL2 5714  18.194  44.103   9.268
  166POPC   C1A 5715  18.191  43.702   8.799
  166POPC   D2A 5716  18.399  43.459   8.492
  166POPC   C3A 5717  18.290  43.660   8.111
  166POPC   C4A 5718  18.361  43.565   7.695
  166POPC   C1B 5719  18.381  44.229   8.843
  166POPC   C2B 5720  18.412  44.045   8.457
  166POPC   C3B 5721  18.339  44.200   8.066
  166POPC   C4B 5722  18.211  44.322   7.627
  167POPC   NC3 5723  32.582  17.731   9.433
  167POPC   PO4 5724  32.036  17.233   9.540
  167POPC   GL1 5725  32.242  17.262   9.151
  167POPC   GL2 5726  32.223  17.621   9.088
  167POPC   C1A 5727  32.361  17.328   8.707
  167POPC   D2A 5728  32.609  17.494   8.394
  167POPC   C3A 5729  32.378  17.397   8.030
  167POPC   C4A 5730  32.478  17.445   7.598
  167POPC   C1B 5731  32.547  17.827   8.787
  167POPC   C2B 5732  32.603  18.019   8.387
  167POPC   C3B 5733  32.585  17.855   7.963
  167POPC   C4B 5734  32.592  17.922   7.499
  168POPC   NC3 5735  17.880  37.062   9.515
  168POPC   PO4 5736  18.574  37.119   9.394
  168POPC   GL1 5737  18.242  36.935   9.159
  168POPC   GL2 5738  17.965  37.144   9.023
  168POPC   C1A 5739  18.290  36.757   8.788
  168POPC   D2A 5740  18.486  36.879   8.379
  168POPC   C3A 5741  18.330  36.790   7.970
  168POPC   C4A 5742  18.385  36.983   7.525
  168POPC   C1B 5743  18.188  37.232   8.652
  168POPC   C2B 5744  18.223  37.291   8.203
  168POPC   C3B 5745  18.028  37.161   7.850
  168POPC   C4B 5746  17.891  37.274   7.456
  169POPC   NC3 5747  31.493  40.109   9.486
  169POPC   PO4 5748  31.238  40.647   9.543
  169POPC   GL1 5749  31.281  40.394   9.089
  169POPC   GL2 5750  31.324  39.999   9.037
  169POPC   C1A 5751  31.234  40.245   8.610
  169POPC   D2A 5752  31.258  39.819   8.387
  169POPC   C3A 5753  31.366  39.857   7.950
  169POPC   C4A 5754  31.238  40.236   7.758
  169POPC   C1B 5755  31.648  39.841   8.742
  169POPC   C2B 5756  31.761  39.941   8.302
  169POPC   C3B 5757  31.876  40.022   7.868
  169POPC   C4B 5758  32.117  39.943   7.495
  170POPC   NC3 5759  31.105  10.783   9.923
  170POPC   PO4 5760  30.618  10.354   9.578
  170POPC   GL1 5761  30.771  10.460   9.207
  170POPC   GL2 5762  31.026  10.204   9.188
  170POPC   C1A 5763  30.755  10.665   8.799
  170POPC   D2A 5764  31.027  10.753   8.440
  170POPC   C3A 5765  30.835  10.742   8.033
  170POPC   C4A 5766  30.480  10.554   7.823
  170POPC   C1B 5767  30.812  10.151   8.794
  170POPC   C2B 5768  30.753  10.314   8.375
  170POPC   C3B 5769  30.828  10.168   7.958
  170POPC   C4B 5770  30.799  10.197   7.507
  171POPC   NC3 5771  19.931  18.606   9.523
  171POPC   PO4 5772  19.454  18.111   9.563
  171POPC   GL1 5773  19.606  18.311   9.206
  171POPC   GL2 5774  19.976  18.308   9.113
  171POPC   C1A 5775  19.576  18.277   8.766
  171POPC   D2A 5776  19.443  18.426   8.353
  171POPC   C3A 5777  19.689  18.257   8.046
  171POPC   C4A 5778  19.613  18.243   7.637
  171POPC   C1B 5779  20.076  18.031   8.770
  171POPC   C2B 5780  20.023  17.878   8.346
  171POPC   C3B 5781  20.097  17.958   7.903
  171POPC   C4B 5782  20.112  18.249   7.552
  172POPC   NC3 5783  23.231  27.331   9.504
  172POPC   PO4 5784  22.966  27.963   9.619
  172POPC   GL1 5785  22.924  27.662   9.255
  172POPC   GL2 5786  22.688  27.881   9.136
  172POPC   C1A 5787  23.112  27.414   8.857
  172POPC   D2A 5788  23.302  27.341   8.413
  172POPC   C3A 5789  23.086  27.205   8.042
  172POPC   C4A 5790  23.028  27.422   7.662
  172POPC   C1B 5791  22.841  27.878   8.773
  172POPC   C2B 5792  22.829  28.042   8.421
  172POPC   C3B 5793  22.982  27.772   8.146
  172POPC   C4B 5794  22.799  27.857   7.780
  173POPC   NC3 5795  30.390   8.257   9.590
  173POPC   PO4 5796  30.999   7.991   9.666
  173POPC   GL1 5797  30.807   7.925   9.261
  173POPC   GL2 5798  31.140   7.811   9.175
  173POPC   C1A 5799  30.634   7.896   8.812
  173POPC   D2A 5800  30.605   8.230   8.473
  173POPC   C3A 5801  30.553   8.085   8.056
  173POPC   C4A 5802  30.695   8.022   7.649
  173POPC   C1B 5803  31.133   8.000   8.768
  173POPC   C2B 5804  31.023   7.923   8.323
  173POPC   C3B 5805  31.130   7.964   7.888
  173POPC   C4B 5806  31.179   7.956   7.420
  174POPC   NC3 5807  31.322  32.168   9.789
  174POPC   PO4 5808  31.667  32.613   9.404
  174POPC   GL1 5809  31.619  32.182   9.258
  174POPC   GL2 5810  31.261  32.046   9.254
  174POPC   C1A 5811  31.690  32.192   8.820
  174POPC   D2A 5812  31.501  32.538   8.564
  174POPC   C3A 5813  31.627  32.544   8.143
  174POPC   C4A 5814  31.456  32.594   7.743
  174POPC   C1B 5815  31.173  32.041   8.823
  174POPC   C2B 5816  31.403  32.039   8.410
  174POPC   C3B 5817  31.266  32.182   8.027
  174POPC   C4B 5818  31.299  32.088   7.613
  175POPC   NC3 5819  11.061   1.782   9.496
  175POPC   PO4 5820  11.289   2.384   9.638
  175POPC   GL1 5821  11.200   2.258   9.224
  175POPC   GL2 5822  11.491   2.127   9.135
  175POPC   C1A 5823  11.114   2.022   8.816
  175POPC   D2A 5824  11.282   1.753   8.461
  175POPC   C3A 5825  11.101   1.784   8.047
  175POPC   C4A 5826  11.042   2.017   7.670
  175POPC   C1B 5827  11.630   1.821   8.831
  175POPC   C2B 5828  11.820   1.876   8.433
  175POPC   C3B 5829  11.623   1.710   8.083
  175POPC   C4B 5830  11.521   1.881   7.707
  176POPC   NC3 5831  11.834   0.558   9.584
  176POPC   PO4 5832  12.500   0.381   9.499
  176POPC   GL1 5833  12.309   0.679   9.216
  176POPC   GL2 5834  12.052   0.458   9.125
  176POPC   C1A 5835  12.139   0.837   8.804
  176POPC   D2A 5836  11.886   0.859   8.425
  176POPC   C3A 5837  12.034   0.758   8.009
  176POPC   C4A 5838  11.932   0.804   7.568
  176POPC   C1B 5839  11.863   0.390   8.714
  176POPC   C2B 5840  11.847   0.251   8.296
  176POPC   C3B 5841  12.162   0.254   7.989
  176POPC   C4B 5842  12.298   0.054   7.629
  177POPC   NC3 5843  24.848  30.686   9.405
  177POPC   PO4 5844  25.450  30.934   9.574
  177POPC   GL1 5845  25.300  30.735   9.168
  177POPC   GL2 5846  25.336  30.358   9.206
  177POPC   C1A 5847  25.060  30.769   8.756
  177POPC   D2A 5848  24.911  30.803   8.307
  177POPC   C3A 5849  25.154  30.852   7.958
  177POPC   C4A 5850  25.093  31.263   7.771
  177POPC   C1B 5851  25.531  30.464   8.785
  177POPC   C2B 5852  25.672  30.408   8.333
  177POPC   C3B 5853  25.498  30.442   7.884
  177POPC   C4B 5854  25.533  30.408   7.375
  178POPC   NC3 5855  36.589  13.313   9.616
  178POPC   PO4 5856  37.053  13.954   9.648
  178POPC   GL1 5857  36.809  13.707   9.333
  178POPC   GL2 5858  36.995  13.425   9.224
  178POPC   C1A 5859  36.643  13.614   8.897
  178POPC   D2A 5860  36.502  13.719   8.483
  178POPC   C3A 5861  36.775  13.724   8.114
  178POPC   C4A 5862  36.625  13.570   7.737
  178POPC   C1B 5863  36.943  13.209   8.846
  178POPC   C2B 5864  36.911  13.367   8.460
  178POPC   C3B 5865  37.068  13.250   8.065
  178POPC   C4B 5866  36.819  13.117   7.759
  179POPC   NC3 5867  30.768  28.943   9.417
  179POPC   PO4 5868  30.379  29.521   9.580
  179POPC   GL1 5869  30.672  29.397   9.168
  179POPC   GL2 5870  30.654  29.046   8.932
  179POPC   C1A 5871  30.902  29.468   8.796
  179POPC   D2A 5872  30.766  29.191   8.465
  179POPC   C3A 5873  30.618  29.395   8.136
  179POPC   C4A 5874  30.902  29.355   7.838
  179POPC   C1B 5875  30.567  28.710   8.580
  179POPC   C2B 5876  30.285  28.643   8.168
  179POPC   C3B 5877  30.353  28.755   7.750
  179POPC   C4B 5878  30.444  29.221   7.640
  180POPC   NC3 5879  41.764   3.408   9.611
  180POPC   PO4 5880  41.165   3.318   9.372
  180POPC   GL1 5881  41.480   3.601   9.189
  180POPC   GL2 5882  41.825   3.662   9.182
  180POPC   C1A 5883  41.474   3.768   8.793
  180POPC   D2A 5884  41.332   3.695   8.388
  180POPC   C3A 5885  41.604   3.479   8.132
  180POPC   C4A 5886  41.393   3.575   7.769
  180POPC   C1B 5887  41.916   3.974   8.868
  180POPC   C2B 5888  41.881   3.823   8.474
  180POPC   C3B 5889  41.901   3.902   8.083
  180POPC   C4B 5890  41.805   3.868   7.691
  181POPC   NC3 5891  10.615  31.612   9.838
  181POPC   PO4 5892  10.118  31.249   9.753
  181POPC   GL1 5893  10.244  31.663   9.407
  181POPC   GL2 5894  10.600  31.640   9.236
  181POPC   C1A 5895  10.254  31.744   8.893
  181POPC   D2A 5896  10.407  31.400   8.605
  181POPC   C3A 5897  10.453  31.344   8.149
  181POPC   C4A 5898  10.453  31.233   7.714
  181POPC   C1B 5899  10.747  31.821   8.829
  181POPC   C2B 5900  10.647  31.794   8.321
  181POPC   C3B 5901  10.632  31.716   7.803
  181POPC   C4B 5902  10.564  31.580   7.319
  182POPC   NC3 5903   7.408   8.539   9.471
  182POPC   PO4 5904   7.412   9.217   9.509
  182POPC   GL1 5905   7.201   8.975   9.216
  182POPC   GL2 5906   7.544   8.891   9.093
  182POPC   C1A 5907   7.135   8.862   8.787
  182POPC   D2A 5908   7.510   8.936   8.505
  182POPC   C3A 5909   7.426   9.004   8.057
  182POPC   C4A 5910   7.226   8.768   7.718
  182POPC   C1B 5911   7.879   8.735   8.849
  182POPC   C2B 5912   8.013   8.855   8.468
  182POPC   C3B 5913   7.898   8.792   8.058
  182POPC   C4B 5914   7.724   8.835   7.678
  183POPC   NC3 5915  40.584  14.912   9.423
  183POPC   PO4 5916  41.013  15.489   9.430
  183POPC   GL1 5917  40.863  15.226   9.124
  183POPC   GL2 5918  40.555  15.380   8.994
  183POPC   C1A 5919  40.949  15.207   8.700
  183POPC   D2A 5920  41.105  15.466   8.396
  183POPC   C3A 5921  40.949  15.334   8.007
  183POPC   C4A 5922  41.150  15.132   7.677
  183POPC   C1B 5923  40.464  15.000   8.728
  183POPC   C2B 5924  40.587  14.832   8.289
  183POPC   C3B 5925  40.647  14.904   7.815
  183POPC   C4B 5926  40.409  14.936   7.413
  184POPC   NC3 5927  40.679  43.548   9.627
  184POPC   PO4 5928  40.796  42.891   9.760
  184POPC   GL1 5929  40.837  43.088   9.330
  184POPC   GL2 5930  40.531  43.070   9.115
  184POPC   C1A 5931  40.962  43.161   8.882
  184POPC   D2A 5932  40.777  42.991   8.502
  184POPC   C3A 5933  40.992  43.128   8.103
  184POPC   C4A 5934  41.045  43.243   7.647
  184POPC   C1B 5935  40.492  43.354   8.725
  184POPC   C2B 5936  40.623  43.455   8.295
  184POPC   C3B 5937  40.574  43.350   7.850
  184POPC   C4B 5938  40.589  43.389   7.390
  185POPC   NC3 5939   6.689   1.397   9.408
  185POPC   PO4 5940   6.901   0.694   9.485
  185POPC   GL1 5941   6.760   0.918   9.161
  185POPC   GL2 5942   7.028   1.111   9.147
  185POPC   C1A 5943   6.573   1.081   8.789
  185POPC   D2A 5944   6.343   0.956   8.384
  185POPC   C3A 5945   6.448   1.209   8.057
  185POPC   C4A 5946   6.626   1.142   7.693
  185POPC   C1B 5947   7.093   1.173   8.731
  185POPC   C2B 5948   6.866   1.099   8.361
  185POPC   C3B 5949   7.039   1.035   7.980
  185POPC   C4B 5950   7.128   1.199   7.584
  186POPC   NC3 5951  26.888  13.426   9.399
  186POPC   PO4 5952  27.158  13.983   9.585
  186POPC   GL1 5953  27.027  13.874   9.167
  186POPC   GL2 5954  26.675  13.863   9.202
  186POPC   C1A 5955  26.969  13.676   8.740
  186POPC   D2A 5956  26.645  13.432   8.450
  186POPC   C3A 5957  26.729  13.508   7.995
  186POPC   C4A 5958  27.160  13.532   7.811
  186POPC   C1B 5959  26.465  13.747   8.828
  186POPC   C2B 5960  26.479  13.916   8.409
  186POPC   C3B 5961  26.302  13.849   8.023
  186POPC   C4B 5962  26.387  13.719   7.636
  187POPC   NC3 5963  24.534  13.054   9.451
  187POPC   PO4 5964  24.336  13.672   9.753
  187POPC   GL1 5965  24.499  13.563   9.315
  187POPC   GL2 5966  24.271  13.347   9.123
  187POPC   C1A 5967  24.662  13.686   8.883
  187POPC   D2A 5968  24.749  13.497   8.456
  187POPC   C3A 5969  24.591  13.693   8.075
  187POPC   C4A 5970  24.208  13.662   7.843
  187POPC   C1B 5971  24.437  13.186   8.747
  187POPC   C2B 5972  24.396  13.081   8.309
  187POPC   C3B 5973  24.198  13.124   7.900
  187POPC   C4B 5974  24.328  13.299   7.498
  188POPC   NC3 5975  36.253  44.353   9.415
  188POPC   PO4 5976  35.859  44.916   9.572
  188POPC   GL1 5977  36.086  44.948   9.154
  188POPC   GL2 5978  36.322  44.695   9.026
  188POPC   C1A 5979  35.994  44.944   8.709
  188POPC   D2A 5980  35.939  44.581   8.443
  188POPC   C3A 5981  36.165  44.732   8.111
  188POPC   C4A 5982  35.860  44.949   7.879
  188POPC   C1B 5983  36.337  44.331   8.705
  188POPC   C2B 5984  36.279  44.230   8.259
  188POPC   C3B 5985  35.995  44.329   7.883
  188POPC   C4B 5986  36.220  44.550   7.514
  189POPC   NC3 5987  28.508  44.816   9.576
  189POPC   PO4 5988  28.240  44.228   9.332
  189POPC   GL1 5989  28.478  44.505   9.089
  189POPC   GL2 5990  28.438  44.883   9.092
  189POPC   C1A 5991  28.386  44.635   8.660
  189POPC   D2A 5992  28.080  44.723   8.362
  189POPC   C3A 5993  28.258  44.591   7.960
  189POPC   C4A 5994  28.705  44.537   7.825
  189POPC   C1B 5995  28.137   0.075   8.791
  189POPC   C2B 5996  28.243   0.209   8.383
  189POPC   C3B 5997  28.062   0.094   8.014
  189POPC   C4B 5998  28.415   0.044   7.772
  190POPC   NC3 5999  12.119  31.268   9.443
  190POPC   PO4 6000  11.697  31.796   9.518
  190POPC   GL1 6001  11.810  31.544   9.158
  190POPC   GL2 6002  11.860  31.160   9.031
  190POPC   C1A 6003  11.950  31.586   8.739
  190POPC   D2A 6004  11.981  31.384   8.347
  190POPC   C3A 6005  12.011  31.606   7.956
  190POPC   C4A 6006  11.773  31.470   7.616
  190POPC   C1B 6007  12.294  31.205   8.798
  190POPC   C2B 6008  12.494  31.335   8.394
  190POPC   C3B 6009  12.322  31.206   7.981
  190POPC   C4B 6010  12.174  31.159   7.557
  191POPC   NC3 6011  44.344  41.860   9.711
  191POPC   PO4 6012  44.676  42.451   9.479
  191POPC   GL1 6013  44.683  42.519   9.082
  191POPC   GL2 6014   0.028  42.584   9.009
  191POPC   C1A 6015  44.381  42.395   8.788
  191POPC   D2A 6016  44.365  42.250   8.400
  191POPC   C3A 6017  44.511  42.529   8.073
  191POPC   C4A 6018  44.452  42.375   7.641
  191POPC   C1B 6019  44.837  42.544   8.610
  191POPC   C2B 6020  44.883  42.280   8.322
  191POPC   C3B 6021  44.997  42.445   7.932
  191POPC   C4B 6022  44.970  42.521   7.506
  192POPC   NC3 6023  28.034  18.846   9.395
  192POPC   PO4 6024  28.634  19.174   9.531
  192POPC   GL1 6025  28.421  19.131   9.152
  192POPC   GL2 6026  28.427  18.780   9.093
  192POPC   C1A 6027  28.404  19.278   8.727
  192POPC   D2A 6028  28.662  19.367   8.383
  192POPC   C3A 6029  28.404  19.320   8.052
  192POPC   C4A 6030  28.522  19.044   7.731
  192POPC   C1B 6031  28.125  18.857   8.750
  192POPC   C2B 6032  28.158  18.953   8.337
  192POPC   C3B 6033  28.053  18.892   7.893
  192POPC   C4B 6034  28.056  18.860   7.416
  193POPC   NC3 6035  33.991   7.547   9.968
  193POPC   PO4 6036  33.482   7.456   9.535
  193POPC   GL1 6037  33.547   7.562   9.091
  193POPC   GL2 6038  33.913   7.460   9.053
  193POPC   C1A 6039  33.610   7.504   8.636
  193POPC   D2A 6040  33.517   7.183   8.344
  193POPC   C3A 6041  33.785   7.141   8.008
  193POPC   C4A 6042  33.851   7.450   7.686
  193POPC   C1B 6043  34.263   7.603   8.841
  193POPC   C2B 6044  34.184   7.476   8.459
  193POPC   C3B 6045  33.917   7.624   8.168
  193POPC   C4B 6046  34.208   7.773   7.875
  194POPC   NC3 6047  30.104   1.772   9.514
  194POPC   PO4 6048  29.795   2.397   9.513
  194POPC   GL1 6049  29.876   2.080   9.181
  194POPC   GL2 6050  30.244   2.006   9.093
  194POPC   C1A 6051  29.868   1.950   8.762
  194POPC   D2A 6052  30.136   2.107   8.459
  194POPC   C3A 6053  29.958   2.333   8.111
  194POPC   C4A 6054  29.917   2.226   7.673
  194POPC   C1B 6055  30.300   1.660   8.764
  194POPC   C2B 6056  30.126   1.609   8.337
  194POPC   C3B 6057  30.135   1.865   7.962
  194POPC   C4B 6058  30.188   1.801   7.497
  195POPC   NC3 6059  27.954  29.640   9.335
  195POPC   PO4 6060  28.600  29.303   9.501
  195POPC   GL1 6061  28.492  29.131   9.104
  195POPC   GL2 6062  28.213  28.900   9.113
  195POPC   C1A 6063  28.310  29.239   8.710
  195POPC   D2A 6064  28.146  29.330   8.315
  195POPC   C3A 6065  28.444  29.404   7.959
  195POPC   C4A 6066  28.347  29.562   7.497
  195POPC   C1B 6067  28.050  28.796   8.731
  195POPC   C2B 6068  27.875  28.864   8.344
  195POPC   C3B 6069  27.994  28.998   7.967
  195POPC   C4B 6070  28.203  29.104   7.614
  196POPC   NC3 6071  31.181  11.530   9.616
  196POPC   PO4 6072  31.485  10.915   9.650
  196POPC   GL1 6073  31.382  11.237   9.228
  196POPC   GL2 6074  31.591  11.557   9.201
  196POPC   C1A 6075  31.392  11.401   8.741
  196POPC   D2A 6076  31.273  11.211   8.342
  196POPC   C3A 6077  31.366  11.413   7.962
  196POPC   C4A 6078  31.588  11.204   7.599
  196POPC   C1B 6079  31.832  11.672   8.814
  196POPC   C2B 6080  31.761  11.672   8.405
  196POPC   C3B 6081  31.674  11.915   8.076
  196POPC   C4B 6082  31.648  11.749   7.688
  197POPC   NC3 6083  24.501   6.246   9.579
  197POPC   PO4 6084  24.326   5.599   9.728
  197POPC   GL1 6085  24.232   5.859   9.306
  197POPC   GL2 6086  24.219   5.587   9.056
  197POPC   C1A 6087  24.249   6.019   8.817
  197POPC   D2A 6088  24.326   6.119   8.340
  197POPC   C3A 6089  24.688   5.892   8.194
  197POPC   C4A 6090  24.898   5.857   7.776
  197POPC   C1B 6091  24.021   5.605   8.652
  197POPC   C2B 6092  24.239   5.617   8.286
  197POPC   C3B 6093  24.273   5.822   7.896
  197POPC   C4B 6094  24.005   5.906   7.570
  198POPC   NC3 6095  22.755  30.851   9.729
  198POPC   PO4 6096  23.221  30.422   9.653
  198POPC   GL1 6097  22.994  30.666   9.308
  198POPC   GL2 6098  22.651  30.570   9.193
  198POPC   C1A 6099  23.071  30.626   8.858
  198POPC   D2A 6100  23.332  30.626   8.486
  198POPC   C3A 6101  23.072  30.542   8.155
  198POPC   C4A 6102  23.093  30.689   7.748
  198POPC   C1B 6103  22.583  30.674   8.734
  198POPC   C2B 6104  22.607  30.730   8.290
  198POPC   C3B 6105  22.641  30.848   7.914
  198POPC   C4B 6106  22.657  30.660   7.510
  199POPC   NC3 6107   7.799  28.219   9.444
  199POPC   PO4 6108   7.208  28.503   9.448
  199POPC   GL1 6109   7.380  28.168   9.133
  199POPC   GL2 6110   7.734  28.069   8.969
  199POPC   C1A 6111   7.305  28.183   8.691
  199POPC   D2A 6112   7.469  28.338   8.308
  199POPC   C3A 6113   7.224  28.534   8.006
  199POPC   C4A 6114   7.170  28.330   7.637
  199POPC   C1B 6115   7.804  28.455   8.705
  199POPC   C2B 6116   7.929  28.567   8.269
  199POPC   C3B 6117   7.786  28.485   7.839
  199POPC   C4B 6118   7.766  28.645   7.419
  200POPC   NC3 6119   6.281   3.506   9.256
  200POPC   PO4 6120   5.711   3.304   9.410
  200POPC   GL1 6121   5.784   3.477   9.041
  200POPC   GL2 6122   6.036   3.242   8.908
  200POPC   C1A 6123   5.608   3.792   8.733
  200POPC   D2A 6124   5.488   3.932   8.310
  200POPC   C3A 6125   5.655   3.665   7.984
  200POPC   C4A 6126   5.796   3.498   7.601
  200POPC   C1B 6127   5.870   3.378   8.541
  200POPC   C2B 6128   6.015   3.714   8.358
  200POPC   C3B 6129   6.176   3.680   7.966
  200POPC   C4B 6130   6.283   3.660   7.553
  201POPC   NC3 6131  44.521   3.873   9.511
  201POPC   PO4 6132  44.791   4.565   9.565
  201POPC   GL1 6133  44.582   4.329   9.206
  201POPC   GL2 6134  44.753   3.998   9.080
  201POPC   C1A 6135  44.465   4.515   8.769
  201POPC   D2A 6136  44.607   4.716   8.358
  201POPC   C3A 6137  44.876   4.513   8.038
  201POPC   C4A 6138  44.909   4.406   7.603
  201POPC   C1B 6139  44.355   4.016   8.835
  201POPC   C2B 6140  44.288   4.150   8.411
  201POPC   C3B 6141  44.512   4.119   8.008
  201POPC   C4B 6142  44.470   4.110   7.552
  202POPC   NC3 6143  10.926  24.824   9.309
  202POPC   PO4 6144  11.467  24.436   9.540
  202POPC   GL1 6145  11.288  24.441   9.117
  202POPC   GL2 6146  11.315  24.733   8.950
  202POPC   C1A 6147  11.157  24.361   8.658
  202POPC   D2A 6148  11.264  24.643   8.292
  202POPC   C3A 6149  11.214  24.450   7.860
  202POPC   C4A 6150  11.291  24.278   7.424
  202POPC   C1B 6151  11.638  24.571   8.681
  202POPC   C2B 6152  11.817  24.761   8.302
  202POPC   C3B 6153  11.590  24.828   7.927
  202POPC   C4B 6154  11.498  24.743   7.525
  203POPC   NC3 6155  42.501  36.521   9.246
  203POPC   PO4 6156  42.136  36.976   9.622
  203POPC   GL1 6157  42.205  37.129   9.185
  203POPC   GL2 6158  42.550  37.299   9.161
  203POPC   C1A 6159  42.099  37.017   8.749
  203POPC   D2A 6160  42.326  37.166   8.377
  203POPC   C3A 6161  42.114  37.041   8.020
  203POPC   C4A 6162  41.986  36.642   7.785
  203POPC   C1B 6163  42.626  37.034   8.795
  203POPC   C2B 6164  42.483  36.678   8.530
  203POPC   C3B 6165  42.410  36.646   8.086
  203POPC   C4B 6166  42.489  36.898   7.682
  204POPC   NC3 6167   8.508  44.828   9.574
  204POPC   PO4 6168   7.975  44.418   9.524
  204POPC   GL1 6169   8.273  44.527   9.191
  204POPC   GL2 6170   8.221  44.891   9.153
  204POPC   C1A 6171   8.419  44.636   8.771
  204POPC   D2A 6172   8.480  44.425   8.399
  204POPC   C3A 6173   8.536  44.539   7.981
  204POPC   C4A 6174   8.484  44.784   7.631
  204POPC   C1B 6175   7.908  44.721   8.845
  204POPC   C2B 6176   7.993  44.611   8.407
  204POPC   C3B 6177   8.058  44.718   7.975
  204POPC   C4B 6178   7.804   0.012   7.794
  205POPC   NC3 6179  44.051  24.488   9.457
  205POPC   PO4 6180  43.326  24.244   9.394
  205POPC   GL1 6181  43.679  24.274   9.182
  205POPC   GL2 6182  43.725  24.599   9.089
  205POPC   C1A 6183  43.925  24.212   8.827
  205POPC   D2A 6184  43.942  24.128   8.425
  205POPC   C3A 6185  44.278  24.319   8.250
  205POPC   C4A 6186  44.356  24.122   7.873
  205POPC   C1B 6187  43.714  24.698   8.664
  205POPC   C2B 6188  43.571  24.515   8.276
  205POPC   C3B 6189  43.842  24.351   7.957
  205POPC   C4B 6190  44.150  24.568   7.776
  206POPC   NC3 6191  27.194  36.765   9.526
  206POPC   PO4 6192  27.752  37.250   9.471
  206POPC   GL1 6193  27.680  37.137   9.098
  206POPC   GL2 6194  27.464  36.865   9.118
  206POPC   C1A 6195  27.739  36.990   8.674
  206POPC   D2A 6196  27.577  36.772   8.325
  206POPC   C3A 6197  27.826  36.757   7.989
  206POPC   C4A 6198  27.985  37.159   7.846
  206POPC   C1B 6199  27.243  37.172   8.828
  206POPC   C2B 6200  27.371  37.276   8.389
  206POPC   C3B 6201  27.469  37.141   7.963
  206POPC   C4B 6202  27.331  36.741   7.842
  207POPC   NC3 6203  44.939  32.499   9.267
  207POPC   PO4 6204   0.280  31.989   9.468
  207POPC   GL1 6205   0.474  32.218   9.101
  207POPC   GL2 6206   0.828  32.366   9.213
  207POPC   C1A 6207   0.498  32.000   8.698
  207POPC   D2A 6208   0.441  31.755   8.309
  207POPC   C3A 6209   0.512  32.097   8.007
  207POPC   C4A 6210   0.205  32.350   7.803
  207POPC   C1B 6211   0.822  32.481   8.790
  207POPC   C2B 6212   0.720  32.414   8.383
  207POPC   C3B 6213   0.617  32.638   8.006
  207POPC   C4B 6214   0.825  32.469   7.663
  208POPC   NC3 6215  31.864  33.016   9.580
  208POPC   PO4 6216  32.535  32.856   9.528
  208POPC   GL1 6217  32.340  32.907   9.135
  208POPC   GL2 6218  32.045  33.111   9.106
  208POPC   C1A 6219  32.336  33.007   8.698
  208POPC   D2A 6220  32.466  33.302   8.405
  208POPC   C3A 6221  32.394  33.206   7.977
  208POPC   C4A 6222  32.378  32.904   7.669
  208POPC   C1B 6223  31.892  32.783   8.827
  208POPC   C2B 6224  32.045  32.608   8.461
  208POPC   C3B 6225  32.054  32.819   8.064
  208POPC   C4B 6226  31.939  32.672   7.671
  209POPC   NC3 6227  21.759  39.942   9.755
  209POPC   PO4 6228  22.440  39.786   9.647
  209POPC   GL1 6229  22.251  39.992   9.295
  209POPC   GL2 6230  22.527  39.891   9.111
  209POPC   C1A 6231  22.130  40.015   8.819
  209POPC   D2A 6232  22.363  40.050   8.408
  209POPC   C3A 6233  22.139  40.240   8.054
  209POPC   C4A 6234  21.987  40.019   7.727
  209POPC   C1B 6235  22.507  39.646   8.742
  209POPC   C2B 6236  22.236  39.522   8.415
  209POPC   C3B 6237  22.272  39.686   8.015
  209POPC   C4B 6238  22.527  40.001   7.857
  210POPC   NC3 6239  25.176  24.087   9.425
  210POPC   PO4 6240  24.920  24.722   9.521
  210POPC   GL1 6241  25.046  24.568   9.127
  210POPC   GL2 6242  25.337  24.709   8.974
  210POPC   C1A 6243  25.026  24.373   8.716
  210POPC   D2A 6244  25.276  24.066   8.471
  210POPC   C3A 6245  25.279  24.179   8.043
  210POPC   C4A 6246  25.221  24.514   7.789
  210POPC   C1B 6247  25.529  24.498   8.626
  210POPC   C2B 6248  25.573  24.629   8.203
  210POPC   C3B 6249  25.690  24.689   7.782
  210POPC   C4B 6250  25.620  24.324   7.537
  211POPC   NC3 6251   8.667  43.187   9.391
  211POPC   PO4 6252   9.345  43.036   9.378
  211POPC   GL1 6253   9.145  43.315   9.114
  211POPC   GL2 6254   9.032  43.618   9.279
  211POPC   C1A 6255   9.052  43.213   8.696
  211POPC   D2A 6256   8.889  43.008   8.318
  211POPC   C3A 6257   9.114  42.958   7.922
  211POPC   C4A 6258   8.919  43.077   7.527
  211POPC   C1B 6259   8.805  43.647   8.847
  211POPC   C2B 6260   8.887  43.579   8.377
  211POPC   C3B 6261   8.842  43.395   7.965
  211POPC   C4B 6262   8.640  43.514   7.570
  212POPC   NC3 6263  13.174  25.940   9.601
  212POPC   PO4 6264  12.557  25.921   9.623
  212POPC   GL1 6265  12.803  26.038   9.220
  212POPC   GL2 6266  13.105  25.848   9.121
  212POPC   C1A 6267  12.981  26.198   8.793
  212POPC   D2A 6268  13.094  25.963   8.433
  212POPC   C3A 6269  12.897  26.169   8.084
  212POPC   C4A 6270  12.995  26.278   7.666
  212POPC   C1B 6271  12.774  25.697   8.839
  212POPC   C2B 6272  12.809  25.507   8.444
  212POPC   C3B 6273  12.892  25.655   8.047
  212POPC   C4B 6274  12.773  25.815   7.689
  213POPC   NC3 6275  14.610   0.252   9.344
  213POPC   PO4 6276  14.049   0.518   9.542
  213POPC   GL1 6277  14.223   0.484   9.108
  213POPC   GL2 6278  14.593   0.634   9.023
  213POPC   C1A 6279  14.360   0.294   8.727
  213POPC   D2A 6280  14.535   0.592   8.436
  213POPC   C3A 6281  14.321   0.526   8.067
  213POPC   C4A 6282  14.437   0.555   7.653
  213POPC   C1B 6283  14.855   0.321   8.756
  213POPC   C2B 6284  14.734   0.121   8.367
  213POPC   C3B 6285  14.766   0.267   7.955
  213POPC   C4B 6286  14.618   0.097   7.581
  214POPC   NC3 6287  30.961   4.633   9.466
  214POPC   PO4 6288  31.564   4.221   9.457
  214POPC   GL1 6289  31.265   4.333   9.170
  214POPC   GL2 6290  31.305   4.686   9.092
  214POPC   C1A 6291  31.358   4.304   8.744
  214POPC   D2A 6292  31.653   4.282   8.432
  214POPC   C3A 6293  31.507   3.979   8.120
  214POPC   C4A 6294  31.470   3.961   7.667
  214POPC   C1B 6295  31.609   4.761   8.730
  214POPC   C2B 6296  31.549   4.761   8.259
  214POPC   C3B 6297  31.545   4.441   7.940
  214POPC   C4B 6298  31.805   4.358   7.604
  215POPC   NC3 6299  41.046   0.565   9.468
  215POPC   PO4 6300  40.704  44.980   9.538
  215POPC   GL1 6301  40.783   0.199   9.177
  215POPC   GL2 6302  40.628   0.519   9.143
  215POPC   C1A 6303  41.101   0.274   8.871
  215POPC   D2A 6304  41.211   0.313   8.444
  215POPC   C3A 6305  40.920   0.191   8.074
  215POPC   C4A 6306  40.763   0.146   7.619
  215POPC   C1B 6307  40.606   0.358   8.703
  215POPC   C2B 6308  40.386   0.434   8.308
  215POPC   C3B 6309  40.506   0.479   7.894
  215POPC   C4B 6310  40.945   0.604   7.765
  216POPC   NC3 6311   6.631  26.774   9.638
  216POPC   PO4 6312   6.606  26.190   9.516
  216POPC   GL1 6313   6.676  26.484   9.221
  216POPC   GL2 6314   6.323  26.655   9.241
  216POPC   C1A 6315   6.748  26.814   8.950
  216POPC   D2A 6316   6.660  26.785   8.529
  216POPC   C3A 6317   6.418  26.575   8.195
  216POPC   C4A 6318   6.665  26.784   7.905
  216POPC   C1B 6319   6.239  26.911   8.872
  216POPC   C2B 6320   6.167  26.956   8.434
  216POPC   C3B 6321   6.292  27.115   8.027
  216POPC   C4B 6322   6.355  26.997   7.556
  217POPC   NC3 6323  32.219  39.002   9.956
  217POPC   PO4 6324  32.351  39.367   9.475
  217POPC   GL1 6325  32.421  39.091   9.148
  217POPC   GL2 6326  32.090  39.173   9.048
  217POPC   C1A 6327  32.432  39.041   8.713
  217POPC   D2A 6328  32.146  39.049   8.402
  217POPC   C3A 6329  32.378  39.102   8.039
  217POPC   C4A 6330  32.316  38.930   7.653
  217POPC   C1B 6331  32.022  39.455   8.728
  217POPC   C2B 6332  31.741  39.428   8.378
  217POPC   C3B 6333  31.890  39.525   7.967
  217POPC   C4B 6334  32.288  39.532   7.752
  218POPC   NC3 6335  12.659  44.161   9.336
  218POPC   PO4 6336  13.082  44.629   9.522
  218POPC   GL1 6337  12.932  44.578   9.159
  218POPC   GL2 6338  13.164  44.323   9.107
  218POPC   C1A 6339  12.670  44.599   8.831
  218POPC   D2A 6340  12.713  44.480   8.428
  218POPC   C3A 6341  12.902  44.816   8.199
  218POPC   C4A 6342  12.644  44.772   7.846
  218POPC   C1B 6343  13.184  44.526   8.705
  218POPC   C2B 6344  13.207  44.354   8.324
  218POPC   C3B 6345  13.064  44.421   7.922
  218POPC   C4B 6346  13.110  44.793   7.680
  219POPC   NC3 6347   5.165  28.141   9.343
  219POPC   PO4 6348   4.936  27.545   9.610
  219POPC   GL1 6349   4.858  27.524   9.179
  219POPC   GL2 6350   5.187  27.549   9.046
  219POPC   C1A 6351   4.798  27.396   8.736
  219POPC   D2A 6352   5.021  27.570   8.385
  219POPC   C3A 6353   4.899  27.359   8.028
  219POPC   C4A 6354   4.995  27.470   7.642
  219POPC   C1B 6355   5.083  27.890   8.771
  219POPC   C2B 6356   5.328  28.026   8.419
  219POPC   C3B 6357   5.534  27.733   8.145
  219POPC   C4B 6358   5.551  27.649   7.705
  220POPC   NC3 6359  17.316  25.453   9.760
  220POPC   PO4 6360  17.862  25.613   9.281
  220POPC   GL1 6361  17.751  25.282   9.020
  220POPC   GL2 6362  17.396  25.188   9.090
  220POPC   C1A 6363  17.657  25.255   8.622
  220POPC   D2A 6364  17.397  25.429   8.329
  220POPC   C3A 6365  17.716  25.312   8.098
  220POPC   C4A 6366  17.765  25.029   7.872
  220POPC   C1B 6367  17.261  24.950   8.685
  220POPC   C2B 6368  17.408  24.895   8.232
  220POPC   C3B 6369  17.348  24.753   7.778
  220POPC   C4B 6370  17.380  24.678   7.314
  221POPC   NC3 6371  17.855  36.067   9.430
  221POPC   PO4 6372  17.192  36.051   9.630
  221POPC   GL1 6373  17.341  36.061   9.221
  221POPC   GL2 6374  17.486  35.744   9.193
  221POPC   C1A 6375  17.564  36.189   8.842
  221POPC   D2A 6376  17.720  36.380   8.478
  221POPC   C3A 6377  17.500  36.329   8.152
  221POPC   C4A 6378  17.583  36.405   7.748
  221POPC   C1B 6379  17.671  35.673   8.768
  221POPC   C2B 6380  17.622  35.890   8.382
  221POPC   C3B 6381  17.757  35.914   7.966
  221POPC   C4B 6382  17.600  35.929   7.568
  222POPC   NC3 6383  36.338   0.055   9.587
  222POPC   PO4 6384  36.042   0.696   9.550
  222POPC   GL1 6385  36.138   0.463   9.218
  222POPC   GL2 6386  35.793   0.370   9.173
  222POPC   C1A 6387  36.132   0.450   8.774
  222POPC   D2A 6388  36.361   0.563   8.418
  222POPC   C3A 6389  36.287   0.235   8.132
  222POPC   C4A 6390  36.346   0.029   7.731
  222POPC   C1B 6391  35.771   0.780   8.925
  222POPC   C2B 6392  35.856   0.837   8.509
  222POPC   C3B 6393  35.941   0.673   8.131
  222POPC   C4B 6394  36.012   0.423   7.753
  223POPC   NC3 6395  40.720  32.124   9.441
  223POPC   PO4 6396  41.022  31.471   9.394
  223POPC   GL1 6397  40.887  31.650   9.092
  223POPC   GL2 6398  40.547  31.719   9.184
  223POPC   C1A 6399  40.980  31.408   8.724
  223POPC   D2A 6400  40.778  31.290   8.411
  223POPC   C3A 6401  41.005  31.345   8.015
  223POPC   C4A 6402  40.963  31.352   7.547
  223POPC   C1B 6403  40.475  31.536   8.793
  223POPC   C2B 6404  40.410  31.671   8.378
  223POPC   C3B 6405  40.513  31.444   8.009
  223POPC   C4B 6406  40.550  31.592   7.632
  224POPC   NC3 6407  35.013  12.410   9.313
  224POPC   PO4 6408  35.651  12.317   9.607
  224POPC   GL1 6409  35.448  12.141   9.215
  224POPC   GL2 6410  35.267  11.823   9.244
  224POPC   C1A 6411  35.550  12.001   8.776
  224POPC   D2A 6412  35.332  12.112   8.383
  224POPC   C3A 6413  35.577  12.030   8.024
  224POPC   C4A 6414  35.856  12.285   7.802
  224POPC   C1B 6415  35.065  11.901   8.849
  224POPC   C2B 6416  35.089  11.678   8.472
  224POPC   C3B 6417  35.196  11.677   8.058
  224POPC   C4B 6418  35.246  11.905   7.648
  225POPC   NC3 6419  20.067   7.800   9.703
  225POPC   PO4 6420  19.678   7.349   9.770
  225POPC   GL1 6421  19.863   7.300   9.323
  225POPC   GL2 6422  19.912   6.976   9.185
  225POPC   C1A 6423  20.026   7.404   8.882
  225POPC   D2A 6424  20.051   7.293   8.402
  225POPC   C3A 6425  19.741   7.551   8.110
  225POPC   C4A 6426  19.767   7.657   7.670
  225POPC   C1B 6427  19.902   6.922   8.765
  225POPC   C2B 6428  19.650   6.955   8.413
  225POPC   C3B 6429  19.772   7.062   8.009
  225POPC   C4B 6430  19.494   7.223   7.724
  226POPC   NC3 6431  42.320  22.645   9.581
  226POPC   PO4 6432  42.538  21.993   9.558
  226POPC   GL1 6433  42.242  21.983   9.215
  226POPC   GL2 6434  42.072  22.326   9.183
  226POPC   C1A 6435  42.383  22.150   8.819
  226POPC   D2A 6436  42.630  22.189   8.477
  226POPC   C3A 6437  42.401  22.015   8.154
  226POPC   C4A 6438  42.403  22.151   7.771
  226POPC   C1B 6439  42.031  22.527   8.796
  226POPC   C2B 6440  42.075  22.334   8.384
  226POPC   C3B 6441  41.934  22.159   7.976
  226POPC   C4B 6442  41.954  22.012   7.541
  227POPC   NC3 6443  14.529  12.344   9.452
  227POPC   PO4 6444  14.132  11.786   9.496
  227POPC   GL1 6445  14.346  11.952   9.155
  227POPC   GL2 6446  14.151  12.237   9.110
  227POPC   C1A 6447  14.610  11.809   8.801
  227POPC   D2A 6448  14.699  12.031   8.417
  227POPC   C3A 6449  14.444  11.936   8.101
  227POPC   C4A 6450  14.456  11.828   7.709
  227POPC   C1B 6451  14.279  12.174   8.699
  227POPC   C2B 6452  14.099  12.243   8.322
  227POPC   C3B 6453  14.331  12.452   8.047
  227POPC   C4B 6454  14.668  12.384   7.773
  228POPC   NC3 6455   6.533  24.158   9.387
  228POPC   PO4 6456   6.649  23.415   9.452
  228POPC   GL1 6457   6.802  23.752   9.158
  228POPC   GL2 6458   6.612  24.004   8.924
  228POPC   C1A 6459   7.043  23.573   8.829
  228POPC   D2A 6460   7.037  23.376   8.425
  228POPC   C3A 6461   6.948  23.711   8.147
  228POPC   C4A 6462   6.763  23.712   7.758
  228POPC   C1B 6463   6.870  24.000   8.567
  228POPC   C2B 6464   7.032  24.278   8.251
  228POPC   C3B 6465   6.989  24.182   7.814
  228POPC   C4B 6466   6.821  24.067   7.383
  229POPC   NC3 6467  41.092  31.013   9.384
  229POPC   PO4 6468  40.413  30.943   9.419
  229POPC   GL1 6469  40.640  30.562   9.219
  229POPC   GL2 6470  41.020  30.576   9.121
  229POPC   C1A 6471  40.682  30.397   8.783
  229POPC   D2A 6472  40.795  30.208   8.386
  229POPC   C3A 6473  40.690  30.432   8.013
  229POPC   C4A 6474  40.592  30.555   7.625
  229POPC   C1B 6475  40.969  30.837   8.704
  229POPC   C2B 6476  40.870  30.849   8.225
  229POPC   C3B 6477  40.983  30.864   7.787
  229POPC   C4B 6478  41.065  30.619   7.410
  230POPC   NC3 6479  22.964  17.418   9.588
  230POPC   PO4 6480  23.162  18.065   9.612
  230POPC   GL1 6481  22.924  17.822   9.256
  230POPC   GL2 6482  23.066  17.489   9.107
  230POPC   C1A 6483  22.836  17.803   8.782
  230POPC   D2A 6484  23.054  17.616   8.403
  230POPC   C3A 6485  22.930  17.606   7.972
  230POPC   C4A 6486  22.709  17.702   7.608
  230POPC   C1B 6487  23.355  17.451   8.768
  230POPC   C2B 6488  23.443  17.283   8.350
  230POPC   C3B 6489  23.259  17.195   7.906
  230POPC   C4B 6490  23.115  17.390   7.527
  231POPC   NC3 6491  27.088  39.009   9.440
  231POPC   PO4 6492  27.713  39.195   9.589
  231POPC   GL1 6493  27.560  39.414   9.188
  231POPC   GL2 6494  27.257  39.642   9.148
  231POPC   C1A 6495  27.594  39.366   8.731
  231POPC   D2A 6496  27.459  39.481   8.298
  231POPC   C3A 6497  27.543  39.142   7.978
  231POPC   C4A 6498  27.879  38.872   7.832
  231POPC   C1B 6499  27.103  39.338   8.827
  231POPC   C2B 6500  27.218  39.054   8.479
  231POPC   C3B 6501  27.123  38.877   8.083
  231POPC   C4B 6502  27.158  39.016   7.635
  232POPC   NC3 6503  41.936   0.113   9.511
  232POPC   PO4 6504  41.479   0.723   9.535
  232POPC   GL1 6505  41.506   0.491   9.190
  232POPC   GL2 6506  41.828   0.592   9.184
  232POPC   C1A 6507  41.476   0.624   8.762
  232POPC   D2A 6508  41.395   0.809   8.373
  232POPC   C3A 6509  41.353   0.524   8.018
  232POPC   C4A 6510  41.444   0.662   7.598
  232POPC   C1B 6511  41.791   0.239   8.842
  232POPC   C2B 6512  41.745   0.358   8.405
  232POPC   C3B 6513  41.822   0.648   8.067
  232POPC   C4B 6514  41.756   0.308   7.759
  233POPC   NC3 6515  44.664  18.816   9.564
  233POPC   PO4 6516  44.450  19.435   9.621
  233POPC   GL1 6517  44.535  19.252   9.258
  233POPC   GL2 6518  44.859  19.234   9.283
  233POPC   C1A 6519  44.525  19.034   8.870
  233POPC   D2A 6520  44.311  19.082   8.478
  233POPC   C3A 6521  44.505  18.902   8.124
  233POPC   C4A 6522  44.397  19.028   7.731
  233POPC   C1B 6523  44.956  19.310   8.836
  233POPC   C2B 6524  44.859  19.196   8.437
  233POPC   C3B 6525   0.030  19.270   8.050
  233POPC   C4B 6526  44.898  19.107   7.662
  234POPC   NC3 6527  38.084   7.535   9.496
  234POPC   PO4 6528  38.511   7.035   9.516
  234POPC   GL1 6529  38.448   7.357   9.178
  234POPC   GL2 6530  38.151   7.273   9.054
  234POPC   C1A 6531  38.529   7.362   8.725
  234POPC   D2A 6532  38.530   7.236   8.329
  234POPC   C3A 6533  38.643   7.600   8.125
  234POPC   C4A 6534  38.645   7.610   7.699
  234POPC   C1B 6535  38.121   7.654   8.789
  234POPC   C2B 6536  38.192   7.710   8.334
  234POPC   C3B 6537  38.206   7.401   7.953
  234POPC   C4B 6538  37.985   7.209   7.605
  235POPC   NC3 6539   3.703  11.862   9.622
  235POPC   PO4 6540   3.222  12.075   9.367
  235POPC   GL1 6541   3.542  12.075   9.119
  235POPC   GL2 6542   3.828  11.825   9.114
  235POPC   C1A 6543   3.396  12.221   8.719
  235POPC   D2A 6544   3.204  12.267   8.349
  235POPC   C3A 6545   3.470  12.210   7.997
  235POPC   C4A 6546   3.515  11.995   7.620
  235POPC   C1B 6547   3.690  11.807   8.695
  235POPC   C2B 6548   3.595  11.793   8.269
  235POPC   C3B 6549   3.856  11.786   7.922
  235POPC   C4B 6550   4.068  12.002   7.596
  236POPC   NC3 6551  15.609   4.147   9.623
  236POPC   PO4 6552  16.221   4.478   9.572
  236POPC   GL1 6553  16.099   4.551   9.178
  236POPC   GL2 6554  16.017   4.200   9.145
  236POPC   C1A 6555  16.007   4.678   8.748
  236POPC   D2A 6556  16.102   4.770   8.318
  236POPC   C3A 6557  15.858   4.467   8.072
  236POPC   C4A 6558  15.730   4.235   7.728
  236POPC   C1B 6559  15.737   4.070   8.805
  236POPC   C2B 6560  15.785   3.932   8.355
  236POPC   C3B 6561  16.082   3.953   7.976
  236POPC   C4B 6562  16.084   3.948   7.496
  237POPC   NC3 6563  20.971  26.638   9.677
  237POPC   PO4 6564  20.360  26.847   9.447
  237POPC   GL1 6565  20.448  26.953   9.056
  237POPC   GL2 6566  20.722  27.150   9.126
  237POPC   C1A 6567  20.691  26.679   8.801
  237POPC   D2A 6568  20.901  26.551   8.409
  237POPC   C3A 6569  20.627  26.651   8.061
  237POPC   C4A 6570  20.535  26.794   7.654
  237POPC   C1B 6571  20.828  27.196   8.698
  237POPC   C2B 6572  20.889  27.068   8.276
  237POPC   C3B 6573  20.738  27.203   7.875
  237POPC   C4B 6574  20.813  27.169   7.420
  238POPC   NC3 6575   5.874  20.890   9.486
  238POPC   PO4 6576   6.010  20.235   9.502
  238POPC   GL1 6577   5.836  20.460   9.156
  238POPC   GL2 6578   5.485  20.369   9.043
  238POPC   C1A 6579   6.013  20.477   8.745
  238POPC   D2A 6580   6.178  20.619   8.328
  238POPC   C3A 6581   5.970  20.590   7.915
  238POPC   C4A 6582   6.280  20.659   7.591
  238POPC   C1B 6583   5.551  20.716   8.779
  238POPC   C2B 6584   5.668  20.614   8.366
  238POPC   C3B 6585   5.527  20.324   8.065
  238POPC   C4B 6586   5.461  20.439   7.662
  239POPC   NC3 6587  31.868  10.760   9.926
  239POPC   PO4 6588  32.319  11.090   9.553
  239POPC   GL1 6589  32.297  11.087   9.137
  239POPC   GL2 6590  32.119  11.396   9.130
  239POPC   C1A 6591  32.300  11.131   8.698
  239POPC   D2A 6592  32.256  11.432   8.401
  239POPC   C3A 6593  32.356  11.231   8.008
  239POPC   C4A 6594  32.565  11.162   7.625
  239POPC   C1B 6595  31.827  11.161   8.889
  239POPC   C2B 6596  31.789  11.165   8.435
  239POPC   C3B 6597  31.865  11.367   8.017
  239POPC   C4B 6598  32.082  11.485   7.636
  240POPC   NC3 6599   4.368  32.437   9.969
  240POPC   PO4 6600   3.965  32.084   9.479
  240POPC   GL1 6601   4.320  32.238   9.227
  240POPC   GL2 6602   4.216  32.389   9.013
  240POPC   C1A 6603   4.586  32.083   8.838
  240POPC   D2A 6604   4.760  32.287   8.424
  240POPC   C3A 6605   4.603  32.190   8.012
  240POPC   C4A 6606   4.544  32.255   7.552
  240POPC   C1B 6607   4.411  32.540   8.690
  240POPC   C2B 6608   4.374  32.583   8.273
  240POPC   C3B 6609   4.300  32.566   7.881
  240POPC   C4B 6610   3.936  32.514   7.665
  241POPC   NC3 6611   7.893   7.939   9.278
  241POPC   PO4 6612   7.269   8.086   9.518
  241POPC   GL1 6613   7.403   8.095   9.135
  241POPC   GL2 6614   7.627   8.340   9.054
  241POPC   C1A 6615   7.530   7.932   8.748
  241POPC   D2A 6616   7.404   8.038   8.361
  241POPC   C3A 6617   7.658   7.906   8.054
  241POPC   C4A 6618   7.390   7.946   7.719
  241POPC   C1B 6619   7.435   8.459   8.689
  241POPC   C2B 6620   7.348   8.537   8.242
  241POPC   C3B 6621   7.549   8.400   7.876
  241POPC   C4B 6622   7.548   8.384   7.405
  242POPC   NC3 6623  33.335  12.910   9.760
  242POPC   PO4 6624  32.963  12.364   9.781
  242POPC   GL1 6625  32.966  12.578   9.334
  242POPC   GL2 6626  33.137  12.935   9.284
  242POPC   C1A 6627  32.735  12.758   8.950
  242POPC   D2A 6628  32.652  12.720   8.487
  242POPC   C3A 6629  32.827  12.979   8.156
  242POPC   C4A 6630  32.877  12.904   7.738
  242POPC   C1B 6631  33.305  12.705   8.909
  242POPC   C2B 6632  33.219  12.829   8.475
  242POPC   C3B 6633  33.322  12.835   8.018
  242POPC   C4B 6634  33.250  12.565   7.657
  243POPC   NC3 6635   3.319   2.720   9.770
  243POPC   PO4 6636   3.828   2.461   9.437
  243POPC   GL1 6637   3.583   2.791   9.169
  243POPC   GL2 6638   3.831   2.993   8.999
  243POPC   C1A 6639   3.402   3.050   8.779
  243POPC   D2A 6640   3.573   3.219   8.360
  243POPC   C3A 6641   3.337   3.015   8.052
  243POPC   C4A 6642   3.337   2.836   7.675
  243POPC   C1B 6643   3.780   2.712   8.662
  243POPC   C2B 6644   3.827   2.802   8.231
  243POPC   C3B 6645   3.816   3.032   7.857
  243POPC   C4B 6646   3.827   2.620   7.689
  244POPC   NC3 6647  29.621   1.090   9.443
  244POPC   PO4 6648  30.105   1.379   9.731
  244POPC   GL1 6649  30.078   1.299   9.260
  244POPC   GL2 6650  29.922   1.559   9.085
  244POPC   C1A 6651  29.972   1.006   8.878
  244POPC   D2A 6652  29.779   0.987   8.430
  244POPC   C3A 6653  30.089   1.129   8.117
  244POPC   C4A 6654  30.361   0.946   7.788
  244POPC   C1B 6655  29.744   1.448   8.684
  244POPC   C2B 6656  29.462   1.414   8.308
  244POPC   C3B 6657  29.603   1.220   7.931
  244POPC   C4B 6658  29.924   1.407   7.698
  245POPC   NC3 6659   0.168  18.371   9.533
  245POPC   PO4 6660   0.021  17.811   9.341
  245POPC   GL1 6661   0.368  17.998   9.105
  245POPC   GL2 6662   0.567  18.319   9.159
  245POPC   C1A 6663   0.448  18.145   8.680
  245POPC   D2A 6664   0.756  18.195   8.330
  245POPC   C3A 6665   0.519  18.200   7.956
  245POPC   C4A 6666   0.229  18.539   7.787
  245POPC   C1B 6667   0.840  18.490   8.790
  245POPC   C2B 6668   0.833  18.728   8.378
  245POPC   C3B 6669   0.718  18.671   7.947
  245POPC   C4B 6670   0.638  18.601   7.465
  246POPC   NC3 6671   4.234  24.856   9.658
  246POPC   PO4 6672   4.152  24.111   9.609
  246POPC   GL1 6673   4.272  24.207   9.209
  246POPC   GL2 6674   4.406  24.512   9.297
  246POPC   C1A 6675   4.061  24.171   8.782
  246POPC   D2A 6676   3.999  24.477   8.465
  246POPC   C3A 6677   4.011  24.309   8.062
  246POPC   C4A 6678   4.202  24.412   7.675
  246POPC   C1B 6679   4.336  24.588   8.883
  246POPC   C2B 6680   4.486  24.640   8.502
  246POPC   C3B 6681   4.431  24.603   8.092
  246POPC   C4B 6682   4.638  24.652   7.680
  247POPC   NC3 6683  35.363  27.672   9.539
  247POPC   PO4 6684  35.868  27.398   9.286
  247POPC   GL1 6685  35.602  27.698   9.061
  247POPC   GL2 6686  35.195  27.677   9.069
  247POPC   C1A 6687  35.467  27.765   8.627
  247POPC   D2A 6688  35.313  27.627   8.212
  247POPC   C3A 6689  35.558  27.653   7.842
  247POPC   C4A 6690  35.409  27.675   7.425
  247POPC   C1B 6691  35.310  27.318   8.826
  247POPC   C2B 6692  35.348  27.117   8.421
  247POPC   C3B 6693  35.106  27.139   8.084
  247POPC   C4B 6694  35.169  27.370   7.769
  248POPC   NC3 6695  25.820  30.581   9.616
  248POPC   PO4 6696  26.444  30.835   9.623
  248POPC   GL1 6697  26.158  30.631   9.229
  248POPC   GL2 6698  25.814  30.804   9.164
  248POPC   C1A 6699  26.045  30.450   8.775
  248POPC   D2A 6700  26.199  30.357   8.318
  248POPC   C3A 6701  26.001  30.538   7.907
  248POPC   C4A 6702  25.703  30.831   7.631
  248POPC   C1B 6703  25.837  30.914   8.744
  248POPC   C2B 6704  25.954  30.837   8.311
  248POPC   C3B 6705  26.047  31.081   7.919
  248POPC   C4B 6706  26.031  31.204   7.463
  249POPC   NC3 6707  39.023  11.738   9.979
  249POPC   PO4 6708  39.311  11.170   9.697
  249POPC   GL1 6709  39.198  11.069   9.329
  249POPC   GL2 6710  39.504  11.119   9.190
  249POPC   C1A 6711  39.054  11.285   8.996
  249POPC   D2A 6712  39.053  11.230   8.557
  249POPC   C3A 6713  39.122  11.196   8.135
  249POPC   C4A 6714  39.179  11.295   7.706
  249POPC   C1B 6715  39.511  11.288   8.788
  249POPC   C2B 6716  39.579  11.414   8.382
  249POPC   C3B 6717  39.543  11.542   7.993
  249POPC   C4B 6718  39.627  11.469   7.545
  250POPC   NC3 6719   2.799  36.269   9.558
  250POPC   PO4 6720   2.780  35.669   9.593
  250POPC   GL1 6721   2.670  35.908   9.203
  250POPC   GL2 6722   2.973  36.037   9.128
  250POPC   C1A 6723   2.605  36.140   8.771
  250POPC   D2A 6724   2.500  36.350   8.336
  250POPC   C3A 6725   2.446  36.145   7.929
  250POPC   C4A 6726   2.676  35.983   7.590
  250POPC   C1B 6727   3.126  36.195   8.737
  250POPC   C2B 6728   3.042  36.443   8.348
  250POPC   C3B 6729   2.887  36.417   7.923
  250POPC   C4B 6730   3.124  36.261   7.571
  251POPC   NC3 6731  10.499   7.280   9.595
  251POPC   PO4 6732  10.473   7.926   9.515
  251POPC   GL1 6733  10.638   7.552   9.206
  251POPC   GL2 6734  10.691   7.182   9.131
  251POPC   C1A 6735  10.490   7.455   8.768
  251POPC   D2A 6736  10.371   7.203   8.356
  251POPC   C3A 6737  10.344   7.360   7.931
  251POPC   C4A 6738  10.674   7.471   7.640
  251POPC   C1B 6739  10.610   6.969   8.732
  251POPC   C2B 6740  10.832   6.940   8.338
  251POPC   C3B 6741  10.705   6.994   7.916
  251POPC   C4B 6742  10.528   6.991   7.503
  252POPC   NC3 6743  13.796   3.976   9.427
  252POPC   PO4 6744  13.637   4.634   9.259
  252POPC   GL1 6745  13.482   4.303   9.063
  252POPC   GL2 6746  13.182   4.496   8.957
  252POPC   C1A 6747  13.605   4.321   8.636
  252POPC   D2A 6748  13.693   4.647   8.336
  252POPC   C3A 6749  13.773   4.482   7.913
  252POPC   C4A 6750  13.881   4.141   7.681
  252POPC   C1B 6751  13.083   4.087   8.818
  252POPC   C2B 6752  13.232   4.054   8.416
  252POPC   C3B 6753  13.274   4.374   8.076
  252POPC   C4B 6754  13.367   4.278   7.642
  253POPC   NC3 6755   0.954  23.833   9.444
  253POPC   PO4 6756   1.440  23.429   9.478
  253POPC   GL1 6757   1.326  23.663   9.143
  253POPC   GL2 6758   1.384  24.014   9.214
  253POPC   C1A 6759   1.106  23.869   8.816
  253POPC   D2A 6760   1.269  23.927   8.460
  253POPC   C3A 6761   1.044  23.658   8.225
  253POPC   C4A 6762   1.208  23.669   7.855
  253POPC   C1B 6763   1.653  23.945   8.840
  253POPC   C2B 6764   1.774  23.941   8.389
  253POPC   C3B 6765   1.575  24.072   7.997
  253POPC   C4B 6766   1.666  24.110   7.550
  254POPC   NC3 6767  13.802   8.392   9.341
  254POPC   PO4 6768  13.548   7.733   9.537
  254POPC   GL1 6769  13.649   7.875   9.101
  254POPC   GL2 6770  13.599   8.233   8.914
  254POPC   C1A 6771  13.822   7.862   8.703
  254POPC   D2A 6772  13.533   8.086   8.421
  254POPC   C3A 6773  13.556   8.138   8.001
  254POPC   C4A 6774  13.228   8.048   7.731
  254POPC   C1B 6775  13.849   8.457   8.603
  254POPC   C2B 6776  13.939   8.689   8.243
  254POPC   C3B 6777  13.754   8.641   7.846
  254POPC   C4B 6778  13.473   8.453   7.588
  255POPC   NC3 6779  40.979  35.620   9.476
  255POPC   PO4 6780  40.601  35.054   9.693
  255POPC   GL1 6781  40.642  35.209   9.263
  255POPC   GL2 6782  41.006  35.175   9.175
  255POPC   C1A 6783  40.508  35.304   8.816
  255POPC   D2A 6784  40.639  35.478   8.383
  255POPC   C3A 6785  40.607  35.291   7.947
  255POPC   C4A 6786  40.663  35.576   7.596
  255POPC   C1B 6787  41.038  35.137   8.707
  255POPC   C2B 6788  41.008  35.140   8.237
  255POPC   C3B 6789  41.107  35.498   7.931
  255POPC   C4B 6790  41.142  35.561   7.451
  256POPC   NC3 6791  37.804  38.169   9.478
  256POPC   PO4 6792  37.626  38.796   9.536
  256POPC   GL1 6793  37.448  38.629   9.159
  256POPC   GL2 6794  37.340  38.264   9.220
  256POPC   C1A 6795  37.599  38.770   8.721
  256POPC   D2A 6796  37.709  38.954   8.308
  256POPC   C3A 6797  37.729  38.680   7.940
  256POPC   C4A 6798  38.046  38.702   7.618
  256POPC   C1B 6799  37.625  38.265   8.847
  256POPC   C2B 6800  37.622  38.350   8.411
  256POPC   C3B 6801  37.836  38.193   8.089
  256POPC   C4B 6802  37.831  38.206   7.685
  257POPC   NC3 6803   1.785  28.699   9.496
  257POPC   PO4 6804   2.222  29.183   9.509
  257POPC   GL1 6805   2.043  28.981   9.146
  257POPC   GL2 6806   1.683  29.092   9.132
  257POPC   C1A 6807   2.163  29.069   8.723
  257POPC   D2A 6808   2.141  29.464   8.492
  257POPC   C3A 6809   2.199  29.342   8.068
  257POPC   C4A 6810   1.932  29.419   7.719
  257POPC   C1B 6811   1.657  29.009   8.697
  257POPC   C2B 6812   1.739  29.179   8.296
  257POPC   C3B 6813   1.740  29.002   7.892
  257POPC   C4B 6814   1.543  29.069   7.500
  258POPC   NC3 6815  12.934  36.464   9.476
  258POPC   PO4 6816  12.738  37.083   9.556
  258POPC   GL1 6817  12.906  36.889   9.185
  258POPC   GL2 6818  12.651  36.640   9.079
  258POPC   C1A 6819  13.178  36.968   8.825
  258POPC   D2A 6820  13.054  37.083   8.408
  258POPC   C3A 6821  13.284  36.953   8.083
  258POPC   C4A 6822  13.029  36.928   7.759
  258POPC   C1B 6823  12.779  36.712   8.640
  258POPC   C2B 6824  12.851  36.616   8.187
  258POPC   C3B 6825  12.537  36.698   7.868
  258POPC   C4B 6826  12.316  37.103   7.817
  259POPC   NC3 6827  41.149   3.851   9.447
  259POPC   PO4 6828  40.509   3.570   9.461
  259POPC   GL1 6829  40.747   3.504   9.106
  259POPC   GL2 6830  41.009   3.673   8.981
  259POPC   C1A 6831  40.652   3.374   8.721
  259POPC   D2A 6832  40.772   3.612   8.389
  259POPC   C3A 6833  40.574   3.571   7.994
  259POPC   C4A 6834  40.893   3.733   7.747
  259POPC   C1B 6835  41.195   3.341   8.734
  259POPC   C2B 6836  41.015   3.111   8.446
  259POPC   C3B 6837  41.047   3.311   8.071
  259POPC   C4B 6838  40.997   3.224   7.658
  260POPC   NC3 6839  34.282  29.698   9.842
  260POPC   PO4 6840  34.556  30.207   9.440
  260POPC   GL1 6841  34.762  30.102   9.109
  260POPC   GL2 6842  34.459  30.063   8.915
  260POPC   C1A 6843  34.914  30.079   8.695
  260POPC   D2A 6844  34.638  30.188   8.366
  260POPC   C3A 6845  34.654  30.126   7.936
  260POPC   C4A 6846  34.623  30.125   7.470
  260POPC   C1B 6847  34.535  29.730   8.622
  260POPC   C2B 6848  34.747  29.675   8.236
  260POPC   C3B 6849  34.729  29.640   7.791
  260POPC   C4B 6850  34.351  29.563   7.592
  261POPC   NC3 6851  32.856  13.902   9.948
  261POPC   PO4 6852  33.155  13.337   9.658
  261POPC   GL1 6853  33.041  13.697   9.352
  261POPC   GL2 6854  33.065  13.455   9.087
  261POPC   C1A 6855  32.740  13.843   8.977
  261POPC   D2A 6856  32.830  13.822   8.509
  261POPC   C3A 6857  32.769  13.509   8.149
  261POPC   C4A 6858  33.008  13.394   7.773
  261POPC   C1B 6859  33.233  13.848   8.887
  261POPC   C2B 6860  33.326  13.985   8.452
  261POPC   C3B 6861  33.187  13.820   8.064
  261POPC   C4B 6862  33.228  13.905   7.632
  262POPC   NC3 6863  10.100  26.242   9.996
  262POPC   PO4 6864   9.540  26.045   9.521
  262POPC   GL1 6865   9.810  26.101   9.107
  262POPC   GL2 6866  10.115  26.326   9.008
  262POPC   C1A 6867   9.862  26.112   8.640
  262POPC   D2A 6868  10.049  26.035   8.232
  262POPC   C3A 6869   9.701  26.126   7.973
  262POPC   C4A 6870   9.628  26.033   7.554
  262POPC   C1B 6871  10.066  26.617   8.677
  262POPC   C2B 6872   9.850  26.500   8.301
  262POPC   C3B 6873   9.896  26.596   7.913
  262POPC   C4B 6874   9.744  26.531   7.544
  263POPC   NC3 6875  22.832  34.544   9.468
  263POPC   PO4 6876  23.464  34.349   9.306
  263POPC   GL1 6877  23.104  34.489   9.047
  263POPC   GL2 6878  22.855  34.792   9.017
  263POPC   C1A 6879  22.921  34.461   8.639
  263POPC   D2A 6880  22.934  34.492   8.229
  263POPC   C3A 6881  22.763  34.731   7.961
  263POPC   C4A 6882  23.026  34.551   7.652
  263POPC   C1B 6883  23.249  34.879   8.779
  263POPC   C2B 6884  23.368  34.680   8.398
  263POPC   C3B 6885  23.268  34.843   7.995
  263POPC   C4B 6886  23.379  34.891   7.532
  264POPC   NC3 6887  12.256  27.234   9.416
  264POPC   PO4 6888  11.758  27.680   9.537
  264POPC   GL1 6889  12.017  27.647   9.187
  264POPC   GL2 6890  11.741  27.521   9.010
  264POPC   C1A 6891  12.089  27.786   8.768
  264POPC   D2A 6892  11.866  27.636   8.398
  264POPC   C3A 6893  12.084  27.390   8.053
  264POPC   C4A 6894  12.284  27.478   7.628
  264POPC   C1B 6895  11.578  27.913   8.796
  264POPC   C2B 6896  11.514  28.093   8.367
  264POPC   C3B 6897  11.725  27.935   7.992
  264POPC   C4B 6898  11.773  27.603   7.694
  265POPC   NC3 6899  24.354   7.656   9.383
  265POPC   PO4 6900  24.596   7.156   9.531
  265POPC   GL1 6901  24.583   7.102   9.125
  265POPC   GL2 6902  24.491   7.410   8.964
  265POPC   C1A 6903  24.873   7.134   8.783
  265POPC   D2A 6904  24.593   7.300   8.466
  265POPC   C3A 6905  24.631   7.091   8.084
  265POPC   C4A 6906  24.406   7.139   7.725
  265POPC   C1B 6907  24.472   7.843   8.776
  265POPC   C2B 6908  24.680   7.822   8.390
  265POPC   C3B 6909  24.571   7.615   8.034
  265POPC   C4B 6910  24.232   7.748   7.811
  266POPC   NC3 6911  26.559  43.291   9.410
  266POPC   PO4 6912  27.102  42.931   9.608
  266POPC   GL1 6913  27.004  42.978   9.177
  266POPC   GL2 6914  26.664  42.903   9.098
  266POPC   C1A 6915  27.109  43.013   8.720
  266POPC   D2A 6916  26.937  42.803   8.333
  266POPC   C3A 6917  26.726  43.017   7.976
  266POPC   C4A 6918  26.974  43.256   7.666
  266POPC   C1B 6919  26.628  43.192   8.729
  266POPC   C2B 6920  26.760  43.401   8.315
  266POPC   C3B 6921  26.568  43.495   7.856
  266POPC   C4B 6922  26.569  43.331   7.370
  267POPC   NC3 6923  44.038  19.592   9.481
  267POPC   PO4 6924  44.535  20.096   9.472
  267POPC   GL1 6925  44.569  19.992   9.058
  267POPC   GL2 6926  44.717  19.685   9.043
  267POPC   C1A 6927  44.790  20.018   8.665
  267POPC   D2A 6928  44.796  20.238   8.303
  267POPC   C3A 6929  44.553  20.104   7.990
  267POPC   C4A 6930  44.367  19.938   7.673
  267POPC   C1B 6931  44.528  19.564   8.659
  267POPC   C2B 6932  44.711  19.670   8.257
  267POPC   C3B 6933  44.655  19.537   7.830
  267POPC   C4B 6934  44.783  19.620   7.409
  268POPC   NC3 6935   5.408  38.833   9.483
  268POPC   PO4 6936   5.024  39.322   9.725
  268POPC   GL1 6937   5.112  39.218   9.312
  268POPC   GL2 6938   5.230  39.501   9.224
  268POPC   C1A 6939   5.054  39.131   8.874
  268POPC   D2A 6940   4.954  38.956   8.466
  268POPC   C3A 6941   5.192  38.931   8.090
  268POPC   C4A 6942   5.162  39.168   7.711
  268POPC   C1B 6943   5.434  39.572   8.867
  268POPC   C2B 6944   5.325  39.370   8.489
  268POPC   C3B 6945   5.460  39.396   8.085
  268POPC   C4B 6946   5.447  39.628   7.703
  269POPC   NC3 6947  38.079  22.159   9.499
  269POPC   PO4 6948  38.727  21.971   9.416
  269POPC   GL1 6949  38.359  22.050   9.104
  269POPC   GL2 6950  38.258  22.388   9.082
  269POPC   C1A 6951  38.238  22.064   8.661
  269POPC   D2A 6952  38.505  21.820   8.375
  269POPC   C3A 6953  38.416  21.788   7.955
  269POPC   C4A 6954  38.405  22.058   7.635
  269POPC   C1B 6955  38.664  22.323   8.812
  269POPC   C2B 6956  38.608  22.333   8.368
  269POPC   C3B 6957  38.491  22.458   7.959
  269POPC   C4B 6958  38.745  22.442   7.588
  270POPC   NC3 6959  16.290  13.573   9.354
  270POPC   PO4 6960  15.744  13.798   9.520
  270POPC   GL1 6961  15.806  13.650   9.074
  270POPC   GL2 6962  16.087  13.444   8.882
  270POPC   C1A 6963  15.613  13.527   8.694
  270POPC   D2A 6964  15.922  13.606   8.400
  270POPC   C3A 6965  15.815  13.471   8.013
  270POPC   C4A 6966  15.926  13.428   7.599
  270POPC   C1B 6967  16.218  13.873   8.778
  270POPC   C2B 6968  16.455  14.021   8.450
  270POPC   C3B 6969  16.444  13.822   8.060
  270POPC   C4B 6970  16.365  13.945   7.666
  271POPC   NC3 6971  36.547   3.868   9.437
  271POPC   PO4 6972  35.830   3.839   9.626
  271POPC   GL1 6973  35.976   3.591   9.243
  271POPC   GL2 6974  36.318   3.415   9.248
  271POPC   C1A 6975  35.862   3.335   8.861
  271POPC   D2A 6976  35.918   3.139   8.425
  271POPC   C3A 6977  35.845   3.369   8.061
  271POPC   C4A 6978  35.608   3.326   7.670
  271POPC   C1B 6979  36.368   3.210   8.836
  271POPC   C2B 6980  36.392   3.345   8.436
  271POPC   C3B 6981  36.394   3.213   8.043
  271POPC   C4B 6982  36.328   3.545   7.769
  272POPC   NC3 6983  41.027  28.129   9.514
  272POPC   PO4 6984  40.957  28.771   9.477
  272POPC   GL1 6985  40.847  28.527   9.084
  272POPC   GL2 6986  40.814  28.185   9.071
  272POPC   C1A 6987  40.729  28.444   8.627
  272POPC   D2A 6988  40.537  28.704   8.318
  272POPC   C3A 6989  40.644  28.629   7.890
  272POPC   C4A 6990  40.993  28.405   7.796
  272POPC   C1B 6991  40.407  28.168   8.909
  272POPC   C2B 6992  40.304  28.193   8.489
  272POPC   C3B 6993  40.603  28.201   8.168
  272POPC   C4B 6994  40.569  28.094   7.750
  273POPC   NC3 6995  32.199   3.038   9.439
  273POPC   PO4 6996  32.356   2.343   9.495
  273POPC   GL1 6997  32.235   2.594   9.158
  273POPC   GL2 6998  32.569   2.743   9.108
  273POPC   C1A 6999  32.213   2.769   8.743
  273POPC   D2A 7000  32.012   2.980   8.391
  273POPC   C3A 7001  32.218   2.813   8.055
  273POPC   C4A 7002  32.051   2.884   7.651
  273POPC   C1B 7003  32.536   2.350   8.817
  273POPC   C2B 7004  32.477   2.172   8.416
  273POPC   C3B 7005  32.551   2.322   7.975
  273POPC   C4B 7006  32.486   2.652   7.655
  274POPC   NC3 7007  23.762  37.648   9.544
  274POPC   PO4 7008  23.238  38.056   9.266
  274POPC   GL1 7009  23.663  37.872   9.080
  274POPC   GL2 7010  23.807  37.488   9.075
  274POPC   C1A 7011  24.033  37.905   8.811
  274POPC   D2A 7012  24.161  37.779   8.394
  274POPC   C3A 7013  23.793  37.548   8.227
  274POPC   C4A 7014  23.477  37.632   7.953
  274POPC   C1B 7015  23.936  37.329   8.676
  274POPC   C2B 7016  24.262  37.255   8.357
  274POPC   C3B 7017  24.229  37.491   7.970
  274POPC   C4B 7018  23.886  37.467   7.682
  275POPC   NC3 7019  26.831  19.478   9.392
  275POPC   PO4 7020  26.959  18.726   9.542
  275POPC   GL1 7021  26.846  18.661   9.139
  275POPC   GL2 7022  26.772  19.022   9.109
  275POPC   C1A 7023  27.013  18.714   8.736
  275POPC   D2A 7024  27.126  18.966   8.394
  275POPC   C3A 7025  26.830  18.936   8.053
  275POPC   C4A 7026  26.773  18.628   7.732
  275POPC   C1B 7027  26.763  19.202   8.687
  275POPC   C2B 7028  26.879  19.423   8.281
  275POPC   C3B 7029  26.848  19.386   7.825
  275POPC   C4B 7030  27.081  19.051   7.637
  276POPC   NC3 7031  32.546  23.216   9.692
  276POPC   PO4 7032  32.497  22.510   9.617
  276POPC   GL1 7033  32.329  22.712   9.246
  276POPC   GL2 7034  32.077  23.000   9.314
  276POPC   C1A 7035  32.440  22.685   8.802
  276POPC   D2A 7036  32.291  22.843   8.433
  276POPC   C3A 7037  32.441  22.810   8.042
  276POPC   C4A 7038  32.359  23.056   7.705
  276POPC   C1B 7039  31.966  22.958   8.880
  276POPC   C2B 7040  31.926  23.210   8.487
  276POPC   C3B 7041  31.953  23.048   8.065
  276POPC   C4B 7042  31.839  23.022   7.632
  277POPC   NC3 7043  16.273  22.941   9.555
  277POPC   PO4 7044  15.733  22.614   9.562
  277POPC   GL1 7045  15.852  22.801   9.177
  277POPC   GL2 7046  15.984  23.176   9.199
  277POPC   C1A 7047  15.910  22.597   8.766
  277POPC   D2A 7048  15.993  22.500   8.331
  277POPC   C3A 7049  15.818  22.820   8.036
  277POPC   C4A 7050  15.769  23.237   7.893
  277POPC   C1B 7051  16.190  23.023   8.855
  277POPC   C2B 7052  16.087  22.994   8.456
  277POPC   C3B 7053  16.296  23.022   8.095
  277POPC   C4B 7054  16.275  22.749   7.783
  278POPC   NC3 7055   0.642  29.228   9.491
  278POPC   PO4 7056  44.971  29.058   9.417
  278POPC   GL1 7057   0.263  29.299   9.131
  278POPC   GL2 7058   0.561  29.544   9.102
  278POPC   C1A 7059   0.262  29.181   8.725
  278POPC   D2A 7060   0.364  28.786   8.508
  278POPC   C3A 7061   0.316  28.851   8.098
  278POPC   C4A 7062   0.340  29.265   7.924
  278POPC   C1B 7063   0.748  29.274   8.784
  278POPC   C2B 7064   0.634  29.246   8.359
  278POPC   C3B 7065   0.866  29.210   7.989
  278POPC   C4B 7066   0.712  29.037   7.610
  279POPC   NC3 7067  33.255  44.007   9.596
  279POPC   PO4 7068  32.766  43.615   9.484
  279POPC   GL1 7069  32.892  43.795   9.131
  279POPC   GL2 7070  32.879  44.110   9.114
  279POPC   C1A 7071  32.826  43.760   8.713
  279POPC   D2A 7072  32.645  43.999   8.381
  279POPC   C3A 7073  32.600  43.784   8.004
  279POPC   C4A 7074  32.933  43.616   7.757
  279POPC   C1B 7075  33.090  44.232   8.728
  279POPC   C2B 7076  33.497  44.273   8.499
  279POPC   C3B 7077  33.532  44.143   8.056
  279POPC   C4B 7078  33.183  44.063   7.796
  280POPC   NC3 7079   9.499  39.431   9.577
  280POPC   PO4 7080  10.083  38.948   9.506
  280POPC   GL1 7081   9.918  39.127   9.142
  280POPC   GL2 7082   9.557  39.101   9.181
  280POPC   C1A 7083   9.792  39.380   8.787
  280POPC   D2A 7084   9.619  39.282   8.387
  280POPC   C3A 7085   9.841  39.393   8.027
  280POPC   C4A 7086   9.572  39.501   7.742
  280POPC   C1B 7087   9.593  38.896   8.769
  280POPC   C2B 7088   9.876  38.746   8.455
  280POPC   C3B 7089   9.962  38.879   8.049
  280POPC   C4B 7090   9.790  38.997   7.671
  281POPC   NC3 7091  27.294  18.403   9.657
  281POPC   PO4 7092  27.222  17.822   9.357
  281POPC   GL1 7093  26.948  18.125   9.071
  281POPC   GL2 7094  26.554  18.165   9.008
  281POPC   C1A 7095  27.015  18.202   8.616
  281POPC   D2A 7096  26.933  18.487   8.271
  281POPC   C3A 7097  27.120  18.315   7.935
  281POPC   C4A 7098  27.070  17.927   7.742
  281POPC   C1B 7099  26.514  18.282   8.589
  281POPC   C2B 7100  26.622  18.093   8.200
  281POPC   C3B 7101  26.583  18.157   7.788
  281POPC   C4B 7102  26.269  18.145   7.507
  282POPC   NC3 7103  23.664  34.077   9.616
  282POPC   PO4 7104  24.055  34.615   9.551
  282POPC   GL1 7105  23.918  34.502   9.154
  282POPC   GL2 7106  23.981  34.180   9.142
  282POPC   C1A 7107  23.750  34.692   8.778
  282POPC   D2A 7108  23.796  34.940   8.434
  282POPC   C3A 7109  23.867  34.725   8.057
  282POPC   C4A 7110  23.879  34.876   7.647
  282POPC   C1B 7111  23.873  34.205   8.708
  282POPC   C2B 7112  23.713  34.292   8.283
  282POPC   C3B 7113  23.943  34.209   7.886
  282POPC   C4B 7114  24.067  34.025   7.476
  283POPC   NC3 7115  20.258  12.058   9.555
  283POPC   PO4 7116  19.626  12.218   9.556
  283POPC   GL1 7117  19.804  12.430   9.150
  283POPC   GL2 7118  19.558  12.636   8.976
  283POPC   C1A 7119  19.960  12.400   8.693
  283POPC   D2A 7120  20.214  12.147   8.397
  283POPC   C3A 7121  20.064  11.962   8.023
  283POPC   C4A 7122  20.125  12.080   7.610
  283POPC   C1B 7123  19.475  12.222   8.823
  283POPC   C2B 7124  19.678  11.992   8.529
  283POPC   C3B 7125  19.732  12.279   8.231
  283POPC   C4B 7126  19.669  12.237   7.788
  284POPC   NC3 7127  10.316   1.206   9.832
  284POPC   PO4 7128  10.885   1.177   9.478
  284POPC   GL1 7129  10.800   1.027   9.071
  284POPC   GL2 7130  10.467   0.920   9.017
  284POPC   C1A 7131  10.746   1.245   8.702
  284POPC   D2A 7132  10.937   1.393   8.349
  284POPC   C3A 7133  10.798   1.209   7.993
  284POPC   C4A 7134  10.693   1.347   7.582
  284POPC   C1B 7135  10.235   1.150   8.731
  284POPC   C2B 7136  10.060   1.178   8.361
  284POPC   C3B 7137  10.292   1.236   7.996
  284POPC   C4B 7138  10.232   1.148   7.593
  285POPC   NC3 7139  11.661  12.546   9.708
  285POPC   PO4 7140  12.125  12.895   9.467
  285POPC   GL1 7141  11.959  12.624   9.145
  285POPC   GL2 7142  12.184  12.366   9.202
  285POPC   C1A 7143  11.958  12.721   8.684
  285POPC   D2A 7144  12.230  12.994   8.397
  285POPC   C3A 7145  12.143  13.039   7.938
  285POPC   C4A 7146  11.828  12.764   7.832
  285POPC   C1B 7147  12.398  12.481   8.827
  285POPC   C2B 7148  12.599  12.603   8.447
  285POPC   C3B 7149  12.428  12.619   8.041
  285POPC   C4B 7150  12.272  12.651   7.617
  286POPC   NC3 7151  40.273  44.307   9.354
  286POPC   PO4 7152  40.122  44.898   9.667
  286POPC   GL1 7153  40.108  44.788   9.239
  286POPC   GL2 7154  40.297   0.043   9.087
  286POPC   C1A 7155  39.933  44.615   8.839
  286POPC   D2A 7156  39.813  44.646   8.438
  286POPC   C3A 7157  40.120  44.661   8.126
  286POPC   C4A 7158  39.986  44.560   7.715
  286POPC   C1B 7159  40.279  44.952   8.665
  286POPC   C2B 7160  40.533  44.939   8.326
  286POPC   C3B 7161  40.566  44.806   7.934
  286POPC   C4B 7162  40.383  44.809   7.525
  287POPC   NC3 7163  27.495  35.562  10.141
  287POPC   PO4 7164  27.910  35.411   9.596
  287POPC   GL1 7165  27.824  35.583   9.181
  287POPC   GL2 7166  27.451  35.557   9.144
  287POPC   C1A 7167  27.775  35.632   8.756
  287POPC   D2A 7168  27.744  35.390   8.412
  287POPC   C3A 7169  27.519  35.473   8.066
  287POPC   C4A 7170  27.910  35.538   7.871
  287POPC   C1B 7171  27.529  35.192   8.842
  287POPC   C2B 7172  27.660  34.906   8.475
  287POPC   C3B 7173  27.747  35.014   8.028
  287POPC   C4B 7174  27.603  35.203   7.645
  288POPC   NC3 7175  28.633  26.386   9.465
  288POPC   PO4 7176  28.206  25.900   9.386
  288POPC   GL1 7177  28.367  26.166   9.079
  288POPC   GL2 7178  28.733  26.173   8.994
  288POPC   C1A 7179  28.355  26.317   8.661
  288POPC   D2A 7180  28.643  26.165   8.333
  288POPC   C3A 7181  28.307  26.218   8.018
  288POPC   C4A 7182  28.308  26.161   7.559
  288POPC   C1B 7183  28.546  25.838   8.720
  288POPC   C2B 7184  28.323  25.781   8.333
  288POPC   C3B 7185  28.498  25.758   7.928
  288POPC   C4B 7186  28.349  25.632   7.531
  289POPC   NC3 7187  40.298  40.410   9.785
  289POPC   PO4 7188  39.803  39.945   9.484
  289POPC   GL1 7189  39.799  40.065   9.068
  289POPC   GL2 7190  40.147  39.944   8.918
  289POPC   C1A 7191  39.835  40.305   8.694
  289POPC   D2A 7192  40.201  40.210   8.445
  289POPC   C3A 7193  40.109  40.065   8.029
  289POPC   C4A 7194  40.286  40.169   7.618
  289POPC   C1B 7195  39.873  39.636   8.789
  289POPC   C2B 7196  39.717  39.604   8.386
  289POPC   C3B 7197  39.806  39.648   7.942
  289POPC   C4B 7198  39.876  39.856   7.573
  290POPC   NC3 7199  26.398  17.515   9.583
  290POPC   PO4 7200  25.745  17.575   9.566
  290POPC   GL1 7201  25.988  17.497   9.221
  290POPC   GL2 7202  26.148  17.821   9.199
  290POPC   C1A 7203  25.819  17.389   8.825
  290POPC   D2A 7204  25.971  17.382   8.411
  290POPC   C3A 7205  25.780  17.645   8.100
  290POPC   C4A 7206  25.693  17.472   7.725
  290POPC   C1B 7207  26.224  17.716   8.766
  290POPC   C2B 7208  26.388  17.668   8.349
  290POPC   C3B 7209  26.251  17.738   7.914
  290POPC   C4B 7210  26.166  17.586   7.483
  291POPC   NC3 7211  38.787  41.883   9.473
  291POPC   PO4 7212  38.505  41.315   9.521
  291POPC   GL1 7213  38.388  41.541   9.166
  291POPC   GL2 7214  38.023  41.587   9.115
  291POPC   C1A 7215  38.615  41.601   8.769
  291POPC   D2A 7216  38.628  41.374   8.365
  291POPC   C3A 7217  38.685  41.577   7.961
  291POPC   C4A 7218  38.553  41.665   7.519
  291POPC   C1B 7219  38.182  41.324   8.738
  291POPC   C2B 7220  38.143  41.193   8.305
  291POPC   C3B 7221  38.209  41.361   7.891
  291POPC   C4B 7222  38.044  41.360   7.443
  292POPC   NC3 7223  39.541   4.236   9.517
  292POPC   PO4 7224  40.138   4.480   9.643
  292POPC   GL1 7225  40.164   4.375   9.224
  292POPC   GL2 7226  39.957   4.114   9.237
  292POPC   C1A 7227  40.199   4.260   8.796
  292POPC   D2A 7228  39.935   4.294   8.436
  292POPC   C3A 7229  39.972   4.495   8.038
  292POPC   C4A 7230  40.093   4.272   7.696
  292POPC   C1B 7231  39.687   4.121   8.858
  292POPC   C2B 7232  39.569   3.944   8.448
  292POPC   C3B 7233  39.681   4.049   8.005
  292POPC   C4B 7234  39.662   3.945   7.545
  293POPC   NC3 7235  20.078   4.586   9.387
  293POPC   PO4 7236  19.561   4.260   9.346
  293POPC   GL1 7237  19.759   4.404   9.014
  293POPC   GL2 7238  20.009   4.171   9.101
  293POPC   C1A 7239  20.058   4.539   8.712
  293POPC   D2A 7240  20.164   4.563   8.298
  293POPC   C3A 7241  19.786   4.448   8.039
  293POPC   C4A 7242  19.448   4.259   7.795
  293POPC   C1B 7243  20.098   4.012   8.749
  293POPC   C2B 7244  19.937   4.097   8.375
  293POPC   C3B 7245  20.116   4.074   7.990
  293POPC   C4B 7246  20.244   3.988   7.611
  294POPC   NC3 7247   3.143  44.747   9.554
  294POPC   PO4 7248   2.441  44.816   9.572
  294POPC   GL1 7249   2.610  44.662   9.221
  294POPC   GL2 7250   2.854  44.416   9.267
  294POPC   C1A 7251   2.813  44.747   8.850
  294POPC   D2A 7252   2.869  44.902   8.454
  294POPC   C3A 7253   2.576  44.749   8.159
  294POPC   C4A 7254   2.798  44.873   7.818
  294POPC   C1B 7255   2.799  44.229   8.885
  294POPC   C2B 7256   2.740  44.366   8.471
  294POPC   C3B 7257   2.800  44.293   8.032
  294POPC   C4B 7258   2.534  44.425   7.747
  295POPC   NC3 7259   9.869   9.670   9.625
  295POPC   PO4 7260   9.498  10.194   9.269
  295POPC   GL1 7261   9.771   9.891   8.961
  295POPC   GL2 7262  10.025   9.754   9.137
  295POPC   C1A 7263   9.777   9.736   8.585
  295POPC   D2A 7264   9.567  10.059   8.357
  295POPC   C3A 7265   9.505   9.962   7.913
  295POPC   C4A 7266   9.650   9.533   7.794
  295POPC   C1B 7267  10.242   9.972   8.804
  295POPC   C2B 7268  10.143  10.063   8.407
  295POPC   C3B 7269   9.950   9.827   8.106
  295POPC   C4B 7270  10.021   9.990   7.725
  296POPC   NC3 7271  14.089  13.105   9.350
  296POPC   PO4 7272  14.647  12.768   9.343
  296POPC   GL1 7273  14.532  12.578   8.989
  296POPC   GL2 7274  14.236  12.731   9.014
  296POPC   C1A 7275  14.458  12.642   8.555
  296POPC   D2A 7276  14.760  12.685   8.261
  296POPC   C3A 7277  14.525  12.934   7.994
  296POPC   C4A 7278  14.338  12.783   7.651
  296POPC   C1B 7279  13.970  12.561   8.721
  296POPC   C2B 7280  13.930  12.719   8.301
  296POPC   C3B 7281  13.892  12.655   7.854
  296POPC   C4B 7282  13.877  12.994   7.488
  297POPC   NC3 7283  39.508  35.080   9.522
  297POPC   PO4 7284  38.819  35.266   9.539
  297POPC   GL1 7285  39.081  35.318   9.171
  297POPC   GL2 7286  39.370  35.487   9.209
  297POPC   C1A 7287  39.053  35.617   8.807
  297POPC   D2A 7288  39.231  35.641   8.423
  297POPC   C3A 7289  39.020  35.549   8.034
  297POPC   C4A 7290  39.118  35.428   7.617
  297POPC   C1B 7291  39.585  35.679   8.853
  297POPC   C2B 7292  39.734  35.637   8.438
  297POPC   C3B 7293  39.567  35.431   8.065
  297POPC   C4B 7294  39.595  35.615   7.672
  298POPC   NC3 7295  11.908  28.107   9.412
  298POPC   PO4 7296  12.500  28.354   9.575
  298POPC   GL1 7297  12.325  28.355   9.154
  298POPC   GL2 7298  12.004  28.542   9.112
  298POPC   C1A 7299  12.220  28.277   8.738
  298POPC   D2A 7300  12.032  28.127   8.382
  298POPC   C3A 7301  12.165  28.310   7.994
  298POPC   C4A 7302  12.283  27.996   7.731
  298POPC   C1B 7303  11.740  28.464   8.718
  298POPC   C2B 7304  11.793  28.553   8.272
  298POPC   C3B 7305  11.686  28.430   7.854
  298POPC   C4B 7306  11.874  28.375   7.476
  299POPC   NC3 7307   7.947  24.828   9.552
  299POPC   PO4 7308   8.046  25.480   9.560
  299POPC   GL1 7309   8.111  25.427   9.147
  299POPC   GL2 7310   8.153  25.075   9.161
  299POPC   C1A 7311   8.211  25.353   8.737
  299POPC   D2A 7312   7.981  25.134   8.428
  299POPC   C3A 7313   7.949  25.422   8.086
  299POPC   C4A 7314   8.212  25.285   7.706
  299POPC   C1B 7315   8.447  24.890   8.868
  299POPC   C2B 7316   8.535  24.629   8.504
  299POPC   C3B 7317   8.584  24.742   8.070
  299POPC   C4B 7318   8.389  24.654   7.674
  300POPC   NC3 7319  37.445  34.008   9.431
  300POPC   PO4 7320  38.044  33.682   9.566
  300POPC   GL1 7321  37.895  33.852   9.191
  300POPC   GL2 7322  37.567  33.698   9.064
  300POPC   C1A 7323  37.887  33.955   8.755
  300POPC   D2A 7324  37.980  34.019   8.324
  300POPC   C3A 7325  37.810  33.682   8.087
  300POPC   C4A 7326  37.950  33.478   7.721
  300POPC   C1B 7327  37.346  33.547   8.736
  300POPC   C2B 7328  37.338  33.662   8.335
  300POPC   C3B 7329  37.354  33.908   8.003
  300POPC   C4B 7330  37.571  33.820   7.639
  301POPC   NC3 7331  16.204   9.707   9.455
  301POPC   PO4 7332  15.670   9.871   9.750
  301POPC   GL1 7333  15.739   9.879   9.279
  301POPC   GL2 7334  16.012  10.053   9.106
  301POPC   C1A 7335  15.635   9.732   8.863
  301POPC   D2A 7336  15.671   9.625   8.430
  301POPC   C3A 7337  15.745   9.839   8.045
  301POPC   C4A 7338  15.903   9.511   7.787
  301POPC   C1B 7339  16.081   9.862   8.655
  301POPC   C2B 7340  16.160   9.609   8.248
  301POPC   C3B 7341  16.378   9.678   7.843
  301POPC   C4B 7342  16.522  10.059   7.615
  302POPC   NC3 7343  13.318   7.372   9.703
  302POPC   PO4 7344  13.860   7.030   9.501
  302POPC   GL1 7345  13.677   7.192   9.149
  302POPC   GL2 7346  13.416   7.393   9.186
  302POPC   C1A 7347  13.793   7.366   8.749
  302POPC   D2A 7348  13.565   7.558   8.387
  302POPC   C3A 7349  13.746   7.655   7.987
  302POPC   C4A 7350  13.870   7.443   7.621
  302POPC   C1B 7351  13.273   7.321   8.775
  302POPC   C2B 7352  13.203   7.169   8.374
  302POPC   C3B 7353  13.348   7.332   7.957
  302POPC   C4B 7354  13.350   7.593   7.597
  303POPC   NC3 7355   6.500  37.057   9.498
  303POPC   PO4 7356   7.092  36.670   9.492
  303POPC   GL1 7357   6.835  36.812   9.138
  303POPC   GL2 7358   6.670  37.152   9.034
  303POPC   C1A 7359   6.943  36.880   8.713
  303POPC   D2A 7360   6.737  36.824   8.351
  303POPC   C3A 7361   6.922  36.901   7.971
  303POPC   C4A 7362   6.775  36.716   7.586
  303POPC   C1B 7363   6.398  36.802   8.810
  303POPC   C2B 7364   6.234  36.767   8.357
  303POPC   C3B 7365   6.405  36.838   7.924
  303POPC   C4B 7366   6.489  37.146   7.592
  304POPC   NC3 7367  29.066  29.120   9.567
  304POPC   PO4 7368  29.744  29.122   9.533
  304POPC   GL1 7369  29.381  29.248   9.171
  304POPC   GL2 7370  29.018  29.079   9.085
  304POPC   C1A 7371  29.315  29.136   8.696
  304POPC   D2A 7372  29.129  28.830   8.391
  304POPC   C3A 7373  29.285  28.946   8.006
  304POPC   C4A 7374  29.176  29.349   7.878
  304POPC   C1B 7375  28.827  29.275   8.746
  304POPC   C2B 7376  28.762  29.204   8.328
  304POPC   C3B 7377  28.768  28.990   7.950
  304POPC   C4B 7378  28.739  29.240   7.588
  305POPC   NC3 7379  21.367   3.875   9.539
  305POPC   PO4 7380  21.973   3.617   9.445
  305POPC   GL1 7381  21.693   3.508   9.098
  305POPC   GL2 7382  21.717   3.684   8.755
  305POPC   C1A 7383  21.276   3.508   8.938
  305POPC   D2A 7384  21.202   3.642   8.531
  305POPC   C3A 7385  21.416   3.905   8.243
  305POPC   C4A 7386  21.445   3.627   7.874
  305POPC   C1B 7387  21.559   3.250   8.613
  305POPC   C2B 7388  21.606   3.017   8.224
  305POPC   C3B 7389  21.634   3.164   7.800
  305POPC   C4B 7390  21.668   3.420   7.415
  306POPC   NC3 7391   8.639  27.841   9.447
  306POPC   PO4 7392   9.359  27.637   9.457
  306POPC   GL1 7393   9.000  27.601   9.144
  306POPC   GL2 7394   8.864  27.252   9.049
  306POPC   C1A 7395   8.899  27.599   8.697
  306POPC   D2A 7396   9.066  27.610   8.312
  306POPC   C3A 7397   8.883  27.566   7.954
  306POPC   C4A 7398   8.775  27.572   7.558
  306POPC   C1B 7399   8.643  27.122   8.684
  306POPC   C2B 7400   8.622  27.230   8.242
  306POPC   C3B 7401   8.600  27.128   7.783
  306POPC   C4B 7402   8.706  27.146   7.308
  307POPC   NC3 7403  20.238  36.341   9.646
  307POPC   PO4 7404  20.835  35.975   9.463
  307POPC   GL1 7405  20.630  35.989   9.105
  307POPC   GL2 7406  20.444  36.274   9.184
  307POPC   C1A 7407  20.484  36.069   8.702
  307POPC   D2A 7408  20.253  36.043   8.350
  307POPC   C3A 7409  20.430  36.007   7.958
  307POPC   C4A 7410  20.760  35.874   7.697
  307POPC   C1B 7411  20.647  36.507   8.879
  307POPC   C2B 7412  20.769  36.456   8.464
  307POPC   C3B 7413  20.548  36.465   8.136
  307POPC   C4B 7414  20.645  36.423   7.721
  308POPC   NC3 7415  36.549  10.251   9.424
  308POPC   PO4 7416  36.310  10.846   9.378
  308POPC   GL1 7417  35.959  10.622   9.180
  308POPC   GL2 7418  36.194  10.408   9.052
  308POPC   C1A 7419  35.890  10.710   8.749
  308POPC   D2A 7420  36.132  10.741   8.359
  308POPC   C3A 7421  35.862  10.668   8.020
  308POPC   C4A 7422  35.657  10.942   7.699
  308POPC   C1B 7423  36.438  10.464   8.683
  308POPC   C2B 7424  36.445  10.179   8.330
  308POPC   C3B 7425  36.487  10.180   7.898
  308POPC   C4B 7426  36.231  10.453   7.721
  309POPC   NC3 7427  37.063  44.068   9.572
  309POPC   PO4 7428  36.477  43.959   9.300
  309POPC   GL1 7429  36.805  44.032   9.041
  309POPC   GL2 7430  37.010  43.773   9.161
  309POPC   C1A 7431  36.782  43.859   8.620
  309POPC   D2A 7432  36.512  43.702   8.255
  309POPC   C3A 7433  36.764  43.689   7.870
  309POPC   C4A 7434  36.943  44.104   7.792
  309POPC   C1B 7435  37.254  43.781   8.838
  309POPC   C2B 7436  37.215  43.642   8.438
  309POPC   C3B 7437  37.272  43.805   8.061
  309POPC   C4B 7438  37.267  43.576   7.692
  310POPC   NC3 7439  19.412  26.278   9.641
  310POPC   PO4 7440  18.791  25.857   9.560
  310POPC   GL1 7441  18.988  25.941   9.179
  310POPC   GL2 7442  19.077  26.288   9.243
  310POPC   C1A 7443  18.963  26.158   8.780
  310POPC   D2A 7444  19.182  26.326   8.463
  310POPC   C3A 7445  19.156  26.090   8.111
  310POPC   C4A 7446  18.882  26.241   7.805
  310POPC   C1B 7447  19.443  26.251   8.931
  310POPC   C2B 7448  19.641  26.481   8.585
  310POPC   C3B 7449  19.629  26.357   8.124
  310POPC   C4B 7450  19.404  26.280   7.713
  311POPC   NC3 7451  16.719   2.346   9.351
  311POPC   PO4 7452  16.827   1.699   9.319
  311POPC   GL1 7453  16.528   1.946   9.051
  311POPC   GL2 7454  16.364   2.315   8.989
  311POPC   C1A 7455  16.589   1.828   8.625
  311POPC   D2A 7456  16.999   1.802   8.387
  311POPC   C3A 7457  16.901   1.810   7.980
  311POPC   C4A 7458  17.197   1.751   7.698
  311POPC   C1B 7459  16.664   2.340   8.679
  311POPC   C2B 7460  16.682   2.181   8.272
  311POPC   C3B 7461  16.543   2.218   7.889
  311POPC   C4B 7462  16.802   2.372   7.590
  312POPC   NC3 7463  18.346   2.979   9.693
  312POPC   PO4 7464  17.867   2.631   9.431
  312POPC   GL1 7465  18.119   2.817   9.108
  312POPC   GL2 7466  18.464   2.873   9.160
  312POPC   C1A 7467  17.978   2.907   8.718
  312POPC   D2A 7468  18.130   2.817   8.309
  312POPC   C3A 7469  18.060   3.058   7.939
  312POPC   C4A 7470  18.261   3.072   7.492
  312POPC   C1B 7471  18.502   2.988   8.698
  312POPC   C2B 7472  18.610   2.918   8.267
  312POPC   C3B 7473  18.467   2.762   7.884
  312POPC   C4B 7474  18.742   2.959   7.579
  313POPC   NC3 7475  28.324  10.861   9.907
  313POPC   PO4 7476  28.710  10.469   9.484
  313POPC   GL1 7477  28.505  10.391   9.095
  313POPC   GL2 7478  28.813  10.299   9.002
  313POPC   C1A 7479  28.500  10.414   8.625
  313POPC   D2A 7480  28.303  10.521   8.269
  313POPC   C3A 7481  28.292  10.307   7.879
  313POPC   C4A 7482  28.338  10.462   7.460
  313POPC   C1B 7483  28.828  10.762   8.812
  313POPC   C2B 7484  28.729  10.887   8.413
  313POPC   C3B 7485  28.783  10.643   8.083
  313POPC   C4B 7486  28.786  10.626   7.649
  314POPC   NC3 7487  10.629  42.120   9.495
  314POPC   PO4 7488  10.205  42.653   9.366
  314POPC   GL1 7489  10.385  42.359   9.085
  314POPC   GL2 7490  10.172  42.092   9.186
  314POPC   C1A 7491  10.606  42.377   8.681
  314POPC   D2A 7492  10.650  42.683   8.366
  314POPC   C3A 7493  10.458  42.456   8.073
  314POPC   C4A 7494  10.536  42.394   7.674
  314POPC   C1B 7495  10.261  41.987   8.738
  314POPC   C2B 7496  10.468  41.997   8.320
  314POPC   C3B 7497  10.334  41.944   7.881
  314POPC   C4B 7498  10.489  41.936   7.435
  315POPC   NC3 7499  44.059  14.843   9.508
  315POPC   PO4 7500  44.167  15.500   9.611
  315POPC   GL1 7501  43.951  15.340   9.229
  315POPC   GL2 7502  43.699  15.034   9.205
  315POPC   C1A 7503  43.747  15.348   8.823
  315POPC   D2A 7504  43.836  15.095   8.448
  315POPC   C3A 7505  43.731  15.278   8.090
  315POPC   C4A 7506  43.792  15.195   7.688
  315POPC   C1B 7507  44.054  14.924   8.873
  315POPC   C2B 7508  44.364  15.027   8.512
  315POPC   C3B 7509  44.268  15.260   8.154
  315POPC   C4B 7510  44.198  14.938   7.860
  316POPC   NC3 7511  11.744  21.885   9.551
  316POPC   PO4 7512  12.021  22.581   9.450
  316POPC   GL1 7513  12.089  22.161   9.248
  316POPC   GL2 7514  12.436  22.046   9.135
  316POPC   C1A 7515  11.997  21.923   8.864
  316POPC   D2A 7516  11.949  21.750   8.446
  316POPC   C3A 7517  11.968  21.992   8.053
  316POPC   C4A 7518  12.060  21.875   7.607
  316POPC   C1B 7519  12.296  22.399   8.844
  316POPC   C2B 7520  12.075  22.511   8.473
  316POPC   C3B 7521  11.833  22.532   8.100
  316POPC   C4B 7522  11.985  22.396   7.715
  317POPC   NC3 7523  39.647  22.911   9.585
  317POPC   PO4 7524  40.191  22.644   9.420
  317POPC   GL1 7525  40.322  22.860   9.043
  317POPC   GL2 7526  40.538  23.129   9.229
  317POPC   C1A 7527  40.196  22.950   8.587
  317POPC   D2A 7528  40.199  22.852   8.141
  317POPC   C3A 7529  39.905  22.997   7.805
  317POPC   C4A 7530  39.499  23.111   7.590
  317POPC   C1B 7531  40.568  23.237   8.797
  317POPC   C2B 7532  40.476  23.349   8.357
  317POPC   C3B 7533  40.549  23.219   7.945
  317POPC   C4B 7534  40.377  23.160   7.540
  318POPC   NC3 7535  13.246  19.117   9.542
  318POPC   PO4 7536  12.654  19.319   9.536
  318POPC   GL1 7537  12.995  19.431   9.189
  318POPC   GL2 7538  13.282  19.243   9.052
  318POPC   C1A 7539  12.951  19.477   8.727
  318POPC   D2A 7540  12.747  19.220   8.406
  318POPC   C3A 7541  12.859  19.118   7.965
  318POPC   C4A 7542  13.131  19.086   7.619
  318POPC   C1B 7543  13.075  18.977   8.754
  318POPC   C2B 7544  13.011  18.773   8.354
  318POPC   C3B 7545  13.185  18.696   7.972
  318POPC   C4B 7546  13.104  18.563   7.598
  319POPC   NC3 7547   2.969  14.326   9.753
  319POPC   PO4 7548   2.363  14.432   9.398
  319POPC   GL1 7549   2.555  14.285   9.064
  319POPC   GL2 7550   2.694  14.601   8.969
  319POPC   C1A 7551   2.830  14.215   8.685
  319POPC   D2A 7552   2.727  14.377   8.353
  319POPC   C3A 7553   2.746  14.163   8.000
  319POPC   C4A 7554   2.739  14.143   7.577
  319POPC   C1B 7555   3.073  14.642   8.733
  319POPC   C2B 7556   3.004  14.815   8.380
  319POPC   C3B 7557   3.116  14.870   8.038
  319POPC   C4B 7558   3.083  14.592   7.740
  320POPC   NC3 7559  35.281  34.011   9.493
  320POPC   PO4 7560  35.607  33.466   9.721
  320POPC   GL1 7561  35.503  33.562   9.264
  320POPC   GL2 7562  35.161  33.671   9.139
  320POPC   C1A 7563  35.555  33.701   8.821
  320POPC   D2A 7564  35.510  34.004   8.450
  320POPC   C3A 7565  35.477  33.873   8.008
  320POPC   C4A 7566  35.134  34.065   7.815
  320POPC   C1B 7567  35.093  33.906   8.737
  320POPC   C2B 7568  35.066  33.799   8.284
  320POPC   C3B 7569  34.892  33.616   7.908
  320POPC   C4B 7570  34.853  33.379   7.509
  321POPC   NC3 7571  43.693  28.109   9.255
  321POPC   PO4 7572  43.112  28.429   9.596
  321POPC   GL1 7573  43.218  28.383   9.196
  321POPC   GL2 7574  43.432  28.660   9.105
  321POPC   C1A 7575  42.987  28.204   8.863
  321POPC   D2A 7576  42.938  28.239   8.420
  321POPC   C3A 7577  43.029  28.536   8.127
  321POPC   C4A 7578  43.090  28.404   7.751
  321POPC   C1B 7579  43.238  28.620   8.692
  321POPC   C2B 7580  43.410  28.786   8.313
  321POPC   C3B 7581  43.494  28.728   7.840
  321POPC   C4B 7582  43.329  28.704   7.404
  322POPC   NC3 7583  12.839  13.514   9.501
  322POPC   PO4 7584  13.278  14.112   9.483
  322POPC   GL1 7585  13.114  13.753   9.161
  322POPC   GL2 7586  13.222  13.370   9.219
  322POPC   C1A 7587  12.853  13.508   8.824
  322POPC   D2A 7588  12.589  13.614   8.434
  322POPC   C3A 7589  12.792  13.648   8.008
  322POPC   C4A 7590  12.714  13.654   7.509
  322POPC   C1B 7591  13.273  13.223   8.808
  322POPC   C2B 7592  13.189  13.422   8.437
  322POPC   C3B 7593  13.138  13.280   8.057
  322POPC   C4B 7594  13.138  13.461   7.671
  323POPC   NC3 7595  30.551  37.432   9.633
  323POPC   PO4 7596  30.961  37.987   9.499
  323POPC   GL1 7597  30.657  37.737   9.231
  323POPC   GL2 7598  30.915  37.479   9.242
  323POPC   C1A 7599  30.461  37.673   8.785
  323POPC   D2A 7600  30.757  37.827   8.415
  323POPC   C3A 7601  30.753  37.677   7.990
  323POPC   C4A 7602  30.368  37.769   7.776
  323POPC   C1B 7603  30.960  37.592   8.817
  323POPC   C2B 7604  31.068  37.423   8.379
  323POPC   C3B 7605  31.308  37.300   8.027
  323POPC   C4B 7606  31.183  37.369   7.570
  324POPC   NC3 7607  36.308  20.614   9.652
  324POPC   PO4 7608  37.069  20.558   9.605
  324POPC   GL1 7609  37.160  20.672   9.172
  324POPC   GL2 7610  36.815  20.716   9.149
  324POPC   C1A 7611  37.085  20.538   8.714
  324POPC   D2A 7612  37.064  20.259   8.306
  324POPC   C3A 7613  37.038  20.489   7.921
  324POPC   C4A 7614  37.148  20.655   7.509
  324POPC   C1B 7615  36.605  20.787   8.785
  324POPC   C2B 7616  36.681  20.596   8.395
  324POPC   C3B 7617  36.650  20.840   8.038
  324POPC   C4B 7618  36.681  20.793   7.625
  325POPC   NC3 7619  42.848  42.471   9.597
  325POPC   PO4 7620  43.491  42.572   9.479
  325POPC   GL1 7621  43.144  42.457   9.172
  325POPC   GL2 7622  42.848  42.190   9.170
  325POPC   C1A 7623  43.107  42.654   8.768
  325POPC   D2A 7624  43.327  42.538   8.414
  325POPC   C3A 7625  43.166  42.615   8.021
  325POPC   C4A 7626  43.246  42.399   7.624
  325POPC   C1B 7627  42.884  42.177   8.731
  325POPC   C2B 7628  42.854  42.334   8.316
  325POPC   C3B 7629  43.135  42.108   8.033
  325POPC   C4B 7630  43.023  41.756   7.787
  326POPC   NC3 7631  36.974  38.725   9.513
  326POPC   PO4 7632  36.751  38.078   9.648
  326POPC   GL1 7633  36.798  38.306   9.223
  326POPC   GL2 7634  36.602  38.636   9.161
  326POPC   C1A 7635  36.743  38.315   8.750
  326POPC   D2A 7636  36.675  38.152   8.306
  326POPC   C3A 7637  36.856  38.374   7.942
  326POPC   C4A 7638  37.288  38.445   7.758
  326POPC   C1B 7639  36.670  38.847   8.757
  326POPC   C2B 7640  36.756  38.723   8.323
  326POPC   C3B 7641  36.662  38.856   7.907
  326POPC   C4B 7642  36.908  38.763   7.553
  327POPC   NC3 7643  31.689   9.124   9.752
  327POPC   PO4 7644  31.117   9.553   9.572
  327POPC   GL1 7645  31.320   9.181   9.326
  327POPC   GL2 7646  31.675   9.070   9.250
  327POPC   C1A 7647  31.373   9.139   8.863
  327POPC   D2A 7648  31.066   9.007   8.573
  327POPC   C3A 7649  31.193   8.856   8.189
  327POPC   C4A 7650  31.345   9.033   7.803
  327POPC   C1B 7651  31.804   8.833   8.886
  327POPC   C2B 7652  31.845   8.806   8.451
  327POPC   C3B 7653  31.669   8.705   8.054
  327POPC   C4B 7654  31.670   8.660   7.615
  328POPC   NC3 7655  19.674  32.644   9.601
  328POPC   PO4 7656  19.898  33.259   9.497
  328POPC   GL1 7657  19.945  33.059   9.163
  328POPC   GL2 7658  20.050  32.761   9.270
  328POPC   C1A 7659  20.037  33.065   8.743
  328POPC   D2A 7660  19.809  33.180   8.397
  328POPC   C3A 7661  19.912  33.222   8.006
  328POPC   C4A 7662  19.745  33.449   7.681
  328POPC   C1B 7663  19.733  32.684   8.918
  328POPC   C2B 7664  19.781  32.679   8.483
  328POPC   C3B 7665  19.622  32.802   8.083
  328POPC   C4B 7666  19.638  32.958   7.652
  329POPC   NC3 7667  38.861   7.081   9.195
  329POPC   PO4 7668  39.417   6.747   9.488
  329POPC   GL1 7669  39.281   6.809   9.065
  329POPC   GL2 7670  39.331   7.163   9.048
  329POPC   C1A 7671  39.066   6.684   8.643
  329POPC   D2A 7672  39.160   6.392   8.259
  329POPC   C3A 7673  39.061   6.504   7.860
  329POPC   C4A 7674  39.333   6.563   7.490
  329POPC   C1B 7675  39.464   7.004   8.641
  329POPC   C2B 7676  39.348   6.875   8.242
  329POPC   C3B 7677  39.289   6.984   7.791
  329POPC   C4B 7678  39.339   7.035   7.311
  330POPC   NC3 7679  36.778  33.263   9.444
  330POPC   PO4 7680  36.967  32.619   9.370
  330POPC   GL1 7681  36.951  32.925   9.075
  330POPC   GL2 7682  37.121  33.261   9.085
  330POPC   C1A 7683  36.887  32.988   8.682
  330POPC   D2A 7684  37.111  33.210   8.416
  330POPC   C3A 7685  37.025  33.030   8.059
  330POPC   C4A 7686  37.071  33.035   7.622
  330POPC   C1B 7687  36.832  33.475   8.823
  330POPC   C2B 7688  36.831  33.657   8.436
  330POPC   C3B 7689  36.943  33.525   8.027
  330POPC   C4B 7690  37.203  33.497   7.695
  331POPC   NC3 7691   5.165  41.319   9.530
  331POPC   PO4 7692   4.641  41.700   9.509
  331POPC   GL1 7693   4.913  41.551   9.127
  331POPC   GL2 7694   5.284  41.652   9.158
  331POPC   C1A 7695   5.102  41.590   8.679
  331POPC   D2A 7696   5.365  41.810   8.363
  331POPC   C3A 7697   5.178  41.832   7.968
  331POPC   C4A 7698   5.057  41.828   7.525
  331POPC   C1B 7699   5.377  41.235   8.928
  331POPC   C2B 7700   5.405  41.168   8.493
  331POPC   C3B 7701   5.222  41.084   8.097
  331POPC   C4B 7702   5.181  41.355   7.723
  332POPC   NC3 7703   5.763  43.039   9.709
  332POPC   PO4 7704   6.187  42.614   9.795
  332POPC   GL1 7705   6.195  43.050   9.423
  332POPC   GL2 7706   5.870  43.180   9.251
  332POPC   C1A 7707   6.230  43.115   8.922
  332POPC   D2A 7708   6.020  42.856   8.570
  332POPC   C3A 7709   6.031  42.921   8.087
  332POPC   C4A 7710   5.903  42.814   7.642
  332POPC   C1B 7711   5.689  43.088   8.878
  332POPC   C2B 7712   5.704  43.285   8.481
  332POPC   C3B 7713   5.560  43.159   8.098
  332POPC   C4B 7714   5.681  43.256   7.737
  333POPC   NC3 7715  42.924   7.736   9.476
  333POPC   PO4 7716  42.921   8.471   9.487
  333POPC   GL1 7717  43.241   8.358   9.153
  333POPC   GL2 7718  43.377   8.008   9.132
  333POPC   C1A 7719  43.135   8.196   8.724
  333POPC   D2A 7720  42.783   8.026   8.517
  333POPC   C3A 7721  42.806   8.072   8.073
  333POPC   C4A 7722  43.066   8.372   7.856
  333POPC   C1B 7723  43.557   7.864   8.750
  333POPC   C2B 7724  43.676   8.039   8.352
  333POPC   C3B 7725  43.517   8.140   7.984
  333POPC   C4B 7726  43.208   7.865   7.823
  334POPC   NC3 7727  12.151  16.147   9.433
  334POPC   PO4 7728  11.856  15.661   9.413
  334POPC   GL1 7729  11.982  15.735   9.034
  334POPC   GL2 7730  12.308  15.748   9.067
  334POPC   C1A 7731  12.029  15.830   8.603
  334POPC   D2A 7732  12.040  15.602   8.244
  334POPC   C3A 7733  11.848  15.904   7.942
  334POPC   C4A 7734  11.610  15.988   7.553
  334POPC   C1B 7735  12.406  15.525   8.725
  334POPC   C2B 7736  12.554  15.658   8.310
  334POPC   C3B 7737  12.375  15.740   7.884
  334POPC   C4B 7738  12.107  15.854   7.518
  335POPC   NC3 7739  33.630  39.015   9.508
  335POPC   PO4 7740  33.878  39.522   9.754
  335POPC   GL1 7741  33.731  39.454   9.289
  335POPC   GL2 7742  34.025  39.281   9.236
  335POPC   C1A 7743  33.441  39.397   8.880
  335POPC   D2A 7744  33.228  39.321   8.454
  335POPC   C3A 7745  33.419  39.137   8.100
  335POPC   C4A 7746  33.587  39.108   7.678
  335POPC   C1B 7747  33.856  39.122   8.850
  335POPC   C2B 7748  33.784  39.010   8.425
  335POPC   C3B 7749  33.955  39.138   8.028
  335POPC   C4B 7750  34.119  39.209   7.617
  336POPC   NC3 7751  25.165  31.297   9.508
  336POPC   PO4 7752  24.874  31.974   9.510
  336POPC   GL1 7753  25.015  31.791   9.055
  336POPC   GL2 7754  25.267  31.516   9.061
  336POPC   C1A 7755  24.939  31.485   8.677
  336POPC   D2A 7756  25.124  31.300   8.294
  336POPC   C3A 7757  25.284  31.650   8.016
  336POPC   C4A 7758  24.957  31.781   7.694
  336POPC   C1B 7759  25.381  31.151   8.805
  336POPC   C2B 7760  25.440  30.905   8.413
  336POPC   C3B 7761  25.553  31.133   8.033
  336POPC   C4B 7762  25.593  31.371   7.667
  337POPC   NC3 7763  17.946  33.377   9.622
  337POPC   PO4 7764  18.544  33.072   9.439
  337POPC   GL1 7765  18.288  33.265   9.101
  337POPC   GL2 7766  17.930  33.411   9.109
  337POPC   C1A 7767  18.395  33.103   8.690
  337POPC   D2A 7768  18.375  32.776   8.378
  337POPC   C3A 7769  18.442  32.994   8.016
  337POPC   C4A 7770  18.287  32.934   7.622
  337POPC   C1B 7771  17.985  33.405   8.651
  337POPC   C2B 7772  18.052  33.335   8.205
  337POPC   C3B 7773  18.231  33.505   7.827
  337POPC   C4B 7774  18.440  33.391   7.416
  338POPC   NC3 7775  26.275  23.763   9.798
  338POPC   PO4 7776  26.832  23.384   9.571
  338POPC   GL1 7777  26.702  23.668   9.231
  338POPC   GL2 7778  26.368  23.818   9.300
  338POPC   C1A 7779  26.904  23.657   8.831
  338POPC   D2A 7780  27.116  23.533   8.476
  338POPC   C3A 7781  26.818  23.494   8.159
  338POPC   C4A 7782  26.743  23.611   7.758
  338POPC   C1B 7783  26.361  23.843   8.861
  338POPC   C2B 7784  26.568  23.779   8.486
  338POPC   C3B 7785  26.553  23.943   8.083
  338POPC   C4B 7786  26.525  24.060   7.671
  339POPC   NC3 7787   2.627   4.879   9.278
  339POPC   PO4 7788   2.969   5.301   9.652
  339POPC   GL1 7789   2.908   5.336   9.182
  339POPC   GL2 7790   2.550   5.364   9.126
  339POPC   C1A 7791   3.002   5.216   8.715
  339POPC   D2A 7792   3.124   4.920   8.352
  339POPC   C3A 7793   2.973   5.010   7.928
  339POPC   C4A 7794   2.909   5.422   7.777
  339POPC   C1B 7795   2.483   5.265   8.696
  339POPC   C2B 7796   2.665   5.251   8.271
  339POPC   C3B 7797   2.443   5.218   7.863
  339POPC   C4B 7798   2.372   5.535   7.535
  340POPC   NC3 7799  32.450  19.842   9.427
  340POPC   PO4 7800  33.049  19.529   9.626
  340POPC   GL1 7801  32.924  19.743   9.246
  340POPC   GL2 7802  32.746  19.447   9.206
  340POPC   C1A 7803  33.053  19.873   8.809
  340POPC   D2A 7804  32.889  19.802   8.363
  340POPC   C3A 7805  33.072  20.066   8.006
  340POPC   C4A 7806  33.406  20.028   7.713
  340POPC   C1B 7807  32.612  19.614   8.825
  340POPC   C2B 7808  32.513  19.416   8.452
  340POPC   C3B 7809  32.512  19.531   8.053
  340POPC   C4B 7810  32.906  19.592   7.876
  341POPC   NC3 7811  30.959  31.561   9.518
  341POPC   PO4 7812  30.433  31.116   9.455
  341POPC   GL1 7813  30.690  31.351   9.072
  341POPC   GL2 7814  31.065  31.534   9.027
  341POPC   C1A 7815  30.776  31.418   8.602
  341POPC   D2A 7816  30.526  31.571   8.227
  341POPC   C3A 7817  30.538  31.359   7.800
  341POPC   C4A 7818  30.467  31.316   7.322
  341POPC   C1B 7819  31.225  31.214   8.747
  341POPC   C2B 7820  31.082  31.075   8.374
  341POPC   C3B 7821  30.961  31.359   8.094
  341POPC   C4B 7822  31.024  31.332   7.680
  342POPC   NC3 7823  42.559  39.173   9.723
  342POPC   PO4 7824  43.174  39.064   9.355
  342POPC   GL1 7825  43.083  39.402   9.059
  342POPC   GL2 7826  42.760  39.337   8.865
  342POPC   C1A 7827  43.193  39.424   8.613
  342POPC   D2A 7828  43.013  39.267   8.250
  342POPC   C3A 7829  43.117  39.392   7.865
  342POPC   C4A 7830  42.991  39.243   7.484
  342POPC   C1B 7831  42.960  38.957   8.672
  342POPC   C2B 7832  43.149  38.779   8.295
  342POPC   C3B 7833  42.973  38.851   7.874
  342POPC   C4B 7834  42.977  38.743   7.438
  343POPC   NC3 7835  41.580  25.916   9.601
  343POPC   PO4 7836  40.973  26.109   9.412
  343POPC   GL1 7837  41.407  26.208   9.199
  343POPC   GL2 7838  41.765  26.025   9.148
  343POPC   C1A 7839  41.589  26.339   8.797
  343POPC   D2A 7840  41.674  26.065   8.467
  343POPC   C3A 7841  41.592  26.276   8.102
  343POPC   C4A 7842  41.522  26.173   7.707
  343POPC   C1B 7843  41.485  25.766   8.904
  343POPC   C2B 7844  41.439  25.612   8.475
  343POPC   C3B 7845  41.359  25.818   8.078
  343POPC   C4B 7846  41.300  25.709   7.646
  344POPC   NC3 7847  18.410  42.152   9.503
  344POPC   PO4 7848  17.793  41.969   9.451
  344POPC   GL1 7849  18.073  42.330   9.145
  344POPC   GL2 7850  18.439  42.472   9.108
  344POPC   C1A 7851  18.211  42.465   8.680
  344POPC   D2A 7852  18.356  42.469   8.249
  344POPC   C3A 7853  18.551  42.174   7.984
  344POPC   C4A 7854  18.166  42.032   7.799
  344POPC   C1B 7855  18.740  42.555   8.741
  344POPC   C2B 7856  18.864  42.554   8.284
  344POPC   C3B 7857  18.630  42.711   7.895
  344POPC   C4B 7858  18.236  42.555   7.739
  345POPC   NC3 7859  33.711  10.345   9.560
  345POPC   PO4 7860  34.007  10.927   9.691
  345POPC   GL1 7861  34.029  10.837   9.248
  345POPC   GL2 7862  33.747  10.639   9.127
  345POPC   C1A 7863  34.078  10.845   8.806
  345POPC   D2A 7864  33.884  10.714   8.423
  345POPC   C3A 7865  34.047  10.757   8.003
  345POPC   C4A 7866  34.038  10.381   7.765
  345POPC   C1B 7867  33.568  10.323   8.846
  345POPC   C2B 7868  33.473  10.405   8.417
  345POPC   C3B 7869  33.557  10.479   7.985
  345POPC   C4B 7870  33.333  10.225   7.686
  346POPC   NC3 7871  42.868  24.139   9.400
  346POPC   PO4 7872  42.958  23.514   9.553
  346POPC   GL1 7873  42.956  23.680   9.177
  346POPC   GL2 7874  42.921  23.406   9.011
  346POPC   C1A 7875  43.083  23.882   8.800
  346POPC   D2A 7876  42.909  23.956   8.409
  346POPC   C3A 7877  43.167  23.899   8.072
  346POPC   C4A 7878  43.070  23.894   7.671
  346POPC   C1B 7879  43.321  23.427   8.830
  346POPC   C2B 7880  43.377  23.584   8.410
  346POPC   C3B 7881  43.352  23.429   7.989
  346POPC   C4B 7882  42.919  23.451   7.878
  347POPC   NC3 7883  27.746  13.049   9.457
  347POPC   PO4 7884  27.362  12.429   9.529
  347POPC   GL1 7885  27.485  12.551   9.079
  347POPC   GL2 7886  27.411  12.897   9.081
  347POPC   C1A 7887  27.715  12.583   8.637
  347POPC   D2A 7888  27.929  12.799   8.254
  347POPC   C3A 7889  27.575  13.015   8.010
  347POPC   C4A 7890  27.142  12.967   7.821
  347POPC   C1B 7891  27.738  13.067   8.811
  347POPC   C2B 7892  28.054  13.221   8.555
  347POPC   C3B 7893  28.148  13.351   8.175
  347POPC   C4B 7894  28.013  13.213   7.812
  348POPC   NC3 7895   5.754   0.121   9.221
  348POPC   PO4 7896   5.848  44.603   9.696
  348POPC   GL1 7897   5.924  44.594   9.229
  348POPC   GL2 7898   5.639  44.614   9.120
  348POPC   C1A 7899   6.051  44.650   8.778
  348POPC   D2A 7900   6.302  44.476   8.453
  348POPC   C3A 7901   6.179  44.527   8.053
  348POPC   C4A 7902   5.940  44.517   7.696
  348POPC   C1B 7903   5.524  44.726   8.695
  348POPC   C2B 7904   5.794  44.918   8.394
  348POPC   C3B 7905   5.817   0.063   7.989
  348POPC   C4B 7906   5.804  44.969   7.569
  349POPC   NC3 7907  28.992   0.645   9.432
  349POPC   PO4 7908  28.925   0.039   9.605
  349POPC   GL1 7909  29.184   0.186   9.253
  349POPC   GL2 7910  28.883   0.188   9.064
  349POPC   C1A 7911  29.252   0.457   8.842
  349POPC   D2A 7912  29.301   0.699   8.463
  349POPC   C3A 7913  29.246   0.462   8.108
  349POPC   C4A 7914  29.256   0.305   7.698
  349POPC   C1B 7915  28.648   0.112   8.689
  349POPC   C2B 7916  28.676  44.867   8.291
  349POPC   C3B 7917  28.907  44.998   7.923
  349POPC   C4B 7918  28.823   0.137   7.494
  350POPC   NC3 7919  35.755  26.332   9.645
  350POPC   PO4 7920  35.387  25.799   9.428
  350POPC   GL1 7921  35.368  26.206   9.245
  350POPC   GL2 7922  35.018  26.287   9.188
  350POPC   C1A 7923  35.412  26.300   8.811
  350POPC   D2A 7924  35.588  26.119   8.438
  350POPC   C3A 7925  35.412  26.193   8.060
  350POPC   C4A 7926  35.404  25.973   7.682
  350POPC   C1B 7927  34.943  26.082   8.772
  350POPC   C2B 7928  35.138  25.854   8.416
  350POPC   C3B 7929  34.994  25.887   7.986
  350POPC   C4B 7930  34.988  26.281   7.726
  351POPC   NC3 7931  43.665   1.246   9.460
  351POPC   PO4 7932  44.246   1.600   9.194
  351POPC   GL1 7933  44.072   1.167   9.076
  351POPC   GL2 7934  43.711   1.204   8.968
  351POPC   C1A 7935  44.038   0.973   8.643
  351POPC   D2A 7936  44.049   1.301   8.336
  351POPC   C3A 7937  44.066   1.252   7.903
  351POPC   C4A 7938  43.768   1.550   7.749
  351POPC   C1B 7939  43.541   0.810   8.832
  351POPC   C2B 7940  43.647   0.638   8.454
  351POPC   C3B 7941  43.750   0.931   8.147
  351POPC   C4B 7942  43.640   1.037   7.739
  352POPC   NC3 7943  30.554  42.648   9.554
  352POPC   PO4 7944  30.328  42.005   9.344
  352POPC   GL1 7945  30.509  42.368   9.134
  352POPC   GL2 7946  30.319  42.261   8.877
  352POPC   C1A 7947  30.690  42.584   8.779
  352POPC   D2A 7948  30.543  42.473   8.389
  352POPC   C3A 7949  30.778  42.506   8.016
  352POPC   C4A 7950  30.682  42.490   7.571
  352POPC   C1B 7951  30.621  42.048   8.682
  352POPC   C2B 7952  30.708  42.010   8.240
  352POPC   C3B 7953  30.638  42.049   7.795
  352POPC   C4B 7954  30.346  42.110   7.450
  353POPC   NC3 7955  18.204   3.927   9.515
  353POPC   PO4 7956  17.985   3.261   9.743
  353POPC   GL1 7957  18.245   3.320   9.319
  353POPC   GL2 7958  18.515   3.568   9.292
  353POPC   C1A 7959  18.184   3.352   8.852
  353POPC   D2A 7960  17.963   3.323   8.421
  353POPC   C3A 7961  18.132   3.543   8.080
  353POPC   C4A 7962  18.481   3.354   7.848
  353POPC   C1B 7963  18.424   3.795   8.892
  353POPC   C2B 7964  18.480   3.592   8.466
  353POPC   C3B 7965  18.554   3.828   8.067
  353POPC   C4B 7966  18.788   3.731   7.675
  354POPC   NC3 7967  18.534  19.801   9.619
  354POPC   PO4 7968  17.865  19.825   9.579
  354POPC   GL1 7969  18.169  19.788   9.217
  354POPC   GL2 7970  18.533  19.927   9.125
  354POPC   C1A 7971  18.214  19.712   8.787
  354POPC   D2A 7972  18.409  19.771   8.432
  354POPC   C3A 7973  18.238  19.908   8.079
  354POPC   C4A 7974  18.347  19.806   7.704
  354POPC   C1B 7975  18.309  20.221   8.845
  354POPC   C2B 7976  18.026  20.126   8.506
  354POPC   C3B 7977  17.839  20.199   8.103
  354POPC   C4B 7978  17.875  20.053   7.680
  355POPC   NC3 7979  31.851  40.933   9.520
  355POPC   PO4 7980  31.818  40.324   9.237
  355POPC   GL1 7981  31.687  40.729   9.094
  355POPC   GL2 7982  31.418  40.963   9.199
  355POPC   C1A 7983  31.590  40.920   8.732
  355POPC   D2A 7984  31.451  40.687   8.432
  355POPC   C3A 7985  31.604  40.756   8.056
  355POPC   C4A 7986  31.676  40.477   7.715
  355POPC   C1B 7987  31.065  40.851   8.932
  355POPC   C2B 7988  30.950  40.733   8.532
  355POPC   C3B 7989  31.063  40.572   8.117
  355POPC   C4B 7990  31.218  40.756   7.720
  356POPC   NC3 7991  31.613  35.222   9.614
  356POPC   PO4 7992  31.562  35.847   9.487
  356POPC   GL1 7993  31.606  35.506   9.186
  356POPC   GL2 7994  31.324  35.263   9.187
  356POPC   C1A 7995  31.504  35.533   8.771
  356POPC   D2A 7996  31.191  35.549   8.479
  356POPC   C3A 7997  31.392  35.639   8.089
  356POPC   C4A 7998  31.281  35.620   7.659
  356POPC   C1B 7999  31.473  35.038   8.816
  356POPC   C2B 8000  31.544  35.181   8.377
  356POPC   C3B 8001  31.416  35.131   7.943
  356POPC   C4B 8002  31.503  35.119   7.500
  357POPC   NC3 8003  37.430  10.560   9.321
  357POPC   PO4 8004  38.062  10.916   9.319
  357POPC   GL1 8005  37.908  10.701   8.991
  357POPC   GL2 8006  37.759  10.386   8.986
  357POPC   C1A 8007  37.594  10.771   8.680
  357POPC   D2A 8008  37.314  10.500   8.425
  357POPC   C3A 8009  37.276  10.696   8.024
  357POPC   C4A 8010  37.686  10.787   7.831
  357POPC   C1B 8011  38.146  10.270   8.832
  357POPC   C2B 8012  38.177  10.168   8.361
  357POPC   C3B 8013  37.840  10.301   8.063
  357POPC   C4B 8014  37.656  10.280   7.632
  358POPC   NC3 8015  36.334  15.006   9.308
  358POPC   PO4 8016  36.177  14.424   9.617
  358POPC   GL1 8017  36.116  14.534   9.200
  358POPC   GL2 8018  36.444  14.526   9.100
  358POPC   C1A 8019  35.943  14.496   8.784
  358POPC   D2A 8020  36.108  14.417   8.379
  358POPC   C3A 8021  35.900  14.607   8.053
  358POPC   C4A 8022  35.895  14.364   7.690
  358POPC   C1B 8023  36.402  14.735   8.683
  358POPC   C2B 8024  36.531  14.711   8.244
  358POPC   C3B 8025  36.375  14.469   7.899
  358POPC   C4B 8026  36.405  14.558   7.440
  359POPC   NC3 8027  42.977  15.959   9.403
  359POPC   PO4 8028  43.386  15.405   9.441
  359POPC   GL1 8029  43.289  15.693   9.081
  359POPC   GL2 8030  43.251  16.094   8.982
  359POPC   C1A 8031  43.454  15.756   8.662
  359POPC   D2A 8032  43.371  16.107   8.390
  359POPC   C3A 8033  43.277  15.951   7.965
  359POPC   C4A 8034  43.209  16.018   7.519
  359POPC   C1B 8035  42.966  15.952   8.663
  359POPC   C2B 8036  42.865  16.101   8.242
  359POPC   C3B 8037  42.774  16.108   7.807
  359POPC   C4B 8038  42.604  15.923   7.451
  360POPC   NC3 8039  26.630   1.776   9.578
  360POPC   PO4 8040  27.329   1.783   9.516
  360POPC   GL1 8041  26.997   1.740   9.139
  360POPC   GL2 8042  26.615   1.625   9.107
  360POPC   C1A 8043  26.849   1.895   8.748
  360POPC   D2A 8044  26.989   1.851   8.336
  360POPC   C3A 8045  26.841   2.113   8.040
  360POPC   C4A 8046  27.017   1.976   7.682
  360POPC   C1B 8047  26.513   1.491   8.724
  360POPC   C2B 8048  26.477   1.755   8.397
  360POPC   C3B 8049  26.500   1.717   7.991
  360POPC   C4B 8050  26.506   2.035   7.652
  361POPC   NC3 8051  15.005  43.922   9.408
  361POPC   PO4 8052  15.458  43.527   9.330
  361POPC   GL1 8053  15.458  43.810   9.006
  361POPC   GL2 8054  15.245  44.098   8.996
  361POPC   C1A 8055  15.442  43.771   8.567
  361POPC   D2A 8056  15.161  43.511   8.362
  361POPC   C3A 8057  15.039  43.697   8.004
  361POPC   C4A 8058  15.170  44.098   7.861
  361POPC   C1B 8059  14.957  43.819   8.762
  361POPC   C2B 8060  14.747  43.882   8.408
  361POPC   C3B 8061  14.714  44.150   8.061
  361POPC   C4B 8062  14.714  43.896   7.674
  362POPC   NC3 8063  23.690  31.966   9.544
  362POPC   PO4 8064  23.434  32.558   9.549
  362POPC   GL1 8065  23.619  32.344   9.188
  362POPC   GL2 8066  23.530  32.054   9.084
  362POPC   C1A 8067  23.668  32.419   8.752
  362POPC   D2A 8068  23.903  32.353   8.396
  362POPC   C3A 8069  23.714  32.326   8.012
  362POPC   C4A 8070  23.900  32.300   7.623
  362POPC   C1B 8071  23.365  31.857   8.773
  362POPC   C2B 8072  23.449  32.069   8.433
  362POPC   C3B 8073  23.434  31.894   8.065
  362POPC   C4B 8074  23.550  31.931   7.695
  363POPC   NC3 8075  13.301  35.747   9.549
  363POPC   PO4 8076  12.678  36.085   9.537
  363POPC   GL1 8077  12.753  36.119   9.133
  363POPC   GL2 8078  13.071  35.979   9.156
  363POPC   C1A 8079  12.699  36.224   8.717
  363POPC   D2A 8080  12.919  36.120   8.332
  363POPC   C3A 8081  12.789  36.170   7.921
  363POPC   C4A 8082  12.922  36.452   7.641
  363POPC   C1B 8083  12.950  35.793   8.785
  363POPC   C2B 8084  13.087  35.652   8.373
  363POPC   C3B 8085  13.148  35.787   7.978
  363POPC   C4B 8086  13.002  35.701   7.589
  364POPC   NC3 8087  38.481  11.033   9.479
  364POPC   PO4 8088  38.677  11.621   9.669
  364POPC   GL1 8089  38.622  11.520   9.208
  364POPC   GL2 8090  38.296  11.401   9.160
  364POPC   C1A 8091  38.593  11.231   8.815
  364POPC   D2A 8092  38.558  11.326   8.405
  364POPC   C3A 8093  38.644  10.981   8.166
  364POPC   C4A 8094  38.708  11.103   7.773
  364POPC   C1B 8095  38.287  11.651   8.797
  364POPC   C2B 8096  38.113  11.606   8.399
  364POPC   C3B 8097  38.315  11.595   8.016
  364POPC   C4B 8098  38.096  11.779   7.717
  365POPC   NC3 8099   4.194   3.980   9.488
  365POPC   PO4 8100   4.586   4.534   9.559
  365POPC   GL1 8101   4.323   4.480   9.223
  365POPC   GL2 8102   3.965   4.586   9.267
  365POPC   C1A 8103   4.412   4.244   8.856
  365POPC   D2A 8104   4.683   4.223   8.485
  365POPC   C3A 8105   4.451   4.233   8.122
  365POPC   C4A 8106   4.295   4.224   7.706
  365POPC   C1B 8107   3.947   4.470   8.817
  365POPC   C2B 8108   4.065   4.157   8.485
  365POPC   C3B 8109   3.954   4.138   8.057
  365POPC   C4B 8110   3.763   4.486   7.754
  366POPC   NC3 8111   4.340  30.857   9.562
  366POPC   PO4 8112   4.462  30.141   9.374
  366POPC   GL1 8113   4.480  30.535   9.135
  366POPC   GL2 8114   4.452  30.922   9.085
  366POPC   C1A 8115   4.345  30.488   8.717
  366POPC   D2A 8116   4.044  30.312   8.454
  366POPC   C3A 8117   4.160  30.399   8.046
  366POPC   C4A 8118   4.562  30.503   7.833
  366POPC   C1B 8119   4.214  30.983   8.725
  366POPC   C2B 8120   4.255  30.817   8.307
  366POPC   C3B 8121   4.234  30.881   7.867
  366POPC   C4B 8122   4.499  30.937   7.523
  367POPC   NC3 8123  15.740   1.030   9.943
  367POPC   PO4 8124  15.947   1.424   9.450
  367POPC   GL1 8125  16.092   1.271   9.053
  367POPC   GL2 8126  15.830   1.058   9.076
  367POPC   C1A 8127  16.355   1.359   8.678
  367POPC   D2A 8128  16.191   1.224   8.306
  367POPC   C3A 8129  15.930   1.484   8.058
  367POPC   C4A 8130  16.009   1.415   7.672
  367POPC   C1B 8131  15.737   0.757   8.786
  367POPC   C2B 8132  15.608   0.761   8.358
  367POPC   C3B 8133  15.797   0.973   8.034
  367POPC   C4B 8134  15.718   0.900   7.621
  368POPC   NC3 8135  27.487  43.504   9.677
  368POPC   PO4 8136  26.912  43.574   9.405
  368POPC   GL1 8137  27.303  43.426   9.204
  368POPC   GL2 8138  27.506  43.126   9.308
  368POPC   C1A 8139  27.638  43.452   8.909
  368POPC   D2A 8140  27.712  43.319   8.497
  368POPC   C3A 8141  27.371  43.138   8.229
  368POPC   C4A 8142  27.441  43.067   7.782
  368POPC   C1B 8143  27.608  42.943   8.892
  368POPC   C2B 8144  27.788  42.796   8.493
  368POPC   C3B 8145  27.871  43.012   8.122
  368POPC   C4B 8146  27.950  42.932   7.729
  369POPC   NC3 8147  31.790   7.281   9.593
  369POPC   PO4 8148  31.094   7.141   9.487
  369POPC   GL1 8149  31.397   7.361   9.226
  369POPC   GL2 8150  31.655   7.151   9.122
  369POPC   C1A 8151  31.612   7.674   8.931
  369POPC   D2A 8152  31.539   7.842   8.496
  369POPC   C3A 8153  31.584   7.754   8.050
  369POPC   C4A 8154  31.395   7.577   7.699
  369POPC   C1B 8155  31.509   7.231   8.710
  369POPC   C2B 8156  31.692   7.347   8.313
  369POPC   C3B 8157  31.481   7.145   7.968
  369POPC   C4B 8158  31.125   7.108   7.662
  370POPC   NC3 8159  17.133  17.831   9.506
  370POPC   PO4 8160  17.490  17.210   9.658
  370POPC   GL1 8161  17.710  17.287   9.229
  370POPC   GL2 8162  17.852  17.644   9.173
  370POPC   C1A 8163  17.799  17.272   8.773
  370POPC   D2A 8164  17.524  17.230   8.444
  370POPC   C3A 8165  17.713  17.274   8.057
  370POPC   C4A 8166  17.679  17.494   7.659
  370POPC   C1B 8167  17.500  17.682   8.901
  370POPC   C2B 8168  17.373  17.733   8.479
  370POPC   C3B 8169  17.398  17.686   8.057
  370POPC   C4B 8170  17.448  17.989   7.749
  371POPC   NC3 8171   3.431   5.300   9.696
  371POPC   PO4 8172   3.775   4.743   9.786
  371POPC   GL1 8173   3.755   5.057   9.368
  371POPC   GL2 8174   3.895   5.376   9.254
  371POPC   C1A 8175   3.439   5.227   9.015
  371POPC   D2A 8176   3.505   5.240   8.538
  371POPC   C3A 8177   3.293   5.375   8.138
  371POPC   C4A 8178   3.515   5.623   7.799
  371POPC   C1B 8179   3.895   5.078   8.865
  371POPC   C2B 8180   3.985   5.010   8.445
  371POPC   C3B 8181   3.788   5.181   8.089
  371POPC   C4B 8182   3.513   5.037   7.771
  372POPC   NC3 8183   4.739   7.252   9.528
  372POPC   PO4 8184   4.241   7.742   9.629
  372POPC   GL1 8185   4.354   7.437   9.261
  372POPC   GL2 8186   4.244   7.150   9.053
  372POPC   C1A 8187   4.610   7.456   8.851
  372POPC   D2A 8188   4.731   7.452   8.404
  372POPC   C3A 8189   4.350   7.581   8.172
  372POPC   C4A 8190   4.160   7.659   7.760
  372POPC   C1B 8191   4.477   6.983   8.671
  372POPC   C2B 8192   4.475   7.015   8.219
  372POPC   C3B 8193   4.384   7.189   7.834
  372POPC   C4B 8194   4.338   7.170   7.394
  373POPC   NC3 8195  42.412  43.369   9.549
  373POPC   PO4 8196  41.828  42.983   9.516
  373POPC   GL1 8197  42.204  42.988   9.277
  373POPC   GL2 8198  42.043  43.277   9.123
  373POPC   C1A 8199  42.425  43.072   8.857
  373POPC   D2A 8200  42.287  43.257   8.455
  373POPC   C3A 8201  42.459  43.190   8.035
  373POPC   C4A 8202  42.604  43.189   7.596
  373POPC   C1B 8203  41.967  42.846   8.866
  373POPC   C2B 8204  42.183  42.706   8.486
  373POPC   C3B 8205  42.064  42.739   8.075
  373POPC   C4B 8206  42.203  42.877   7.705
  374POPC   NC3 8207  10.981  36.132   9.488
  374POPC   PO4 8208  10.299  36.254   9.609
  374POPC   GL1 8209  10.502  36.175   9.220
  374POPC   GL2 8210  10.703  36.465   9.207
  374POPC   C1A 8211  10.428  35.933   8.829
  374POPC   D2A 8212  10.597  35.805   8.407
  374POPC   C3A 8213  10.416  36.027   8.045
  374POPC   C4A 8214  10.582  36.065   7.606
  374POPC   C1B 8215  10.886  36.184   8.839
  374POPC   C2B 8216  11.034  36.122   8.402
  374POPC   C3B 8217  10.859  36.269   7.977
  374POPC   C4B 8218  10.821  36.516   7.513
  375POPC   NC3 8219   7.846  29.786   9.821
  375POPC   PO4 8220   8.468  29.745   9.674
  375POPC   GL1 8221   8.191  29.949   9.341
  375POPC   GL2 8222   8.338  30.218   9.077
  375POPC   C1A 8223   8.060  29.858   8.899
  375POPC   D2A 8224   8.052  30.173   8.563
  375POPC   C3A 8225   8.054  30.034   8.124
  375POPC   C4A 8226   8.246  29.812   7.745
  375POPC   C1B 8227   8.551  30.076   8.724
  375POPC   C2B 8228   8.654  30.219   8.333
  375POPC   C3B 8229   8.465  30.306   7.949
  375POPC   C4B 8230   8.503  30.186   7.488
  376POPC   NC3 8231  35.000  40.217   9.675
  376POPC   PO4 8232  34.705  40.797   9.589
  376POPC   GL1 8233  34.492  40.729   9.244
  376POPC   GL2 8234  34.481  40.360   9.292
  376POPC   C1A 8235  34.416  40.923   8.838
  376POPC   D2A 8236  34.346  41.001   8.431
  376POPC   C3A 8237  34.499  40.763   8.157
  376POPC   C4A 8238  34.575  40.949   7.814
  376POPC   C1B 8239  34.273  40.434   8.906
  376POPC   C2B 8240  34.266  40.401   8.473
  376POPC   C3B 8241  34.146  40.410   8.050
  376POPC   C4B 8242  34.425  40.457   7.719
  377POPC   NC3 8243   4.245  23.602   9.574
  377POPC   PO4 8244   4.600  23.290   9.162
  377POPC   GL1 8245   4.476  23.707   9.110
  377POPC   GL2 8246   4.670  23.921   9.313
  377POPC   C1A 8247   4.307  23.723   8.710
  377POPC   D2A 8248   4.295  23.358   8.418
  377POPC   C3A 8249   4.279  23.521   7.998
  377POPC   C4A 8250   4.337  23.709   7.581
  377POPC   C1B 8251   4.609  24.140   8.857
  377POPC   C2B 8252   4.410  24.146   8.417
  377POPC   C3B 8253   4.424  24.028   7.992
  377POPC   C4B 8254   4.628  24.135   7.622
  378POPC   NC3 8255  27.967  14.276   9.530
  378POPC   PO4 8256  28.660  14.093   9.520
  378POPC   GL1 8257  28.372  14.240   9.173
  378POPC   GL2 8258  28.021  14.280   9.037
  378POPC   C1A 8259  28.404  14.150   8.735
  378POPC   D2A 8260  28.420  14.352   8.352
  378POPC   C3A 8261  28.748  14.208   8.097
  378POPC   C4A 8262  28.832  14.226   7.634
  378POPC   C1B 8263  28.128  14.609   8.718
  378POPC   C2B 8264  28.193  14.825   8.302
  378POPC   C3B 8265  28.326  14.614   7.912
  378POPC   C4B 8266  28.325  14.190   7.823
  379POPC   NC3 8267  29.153  19.356   9.499
  379POPC   PO4 8268  29.238  18.690   9.401
  379POPC   GL1 8269  28.929  18.879   9.102
  379POPC   GL2 8270  29.021  19.200   9.017
  379POPC   C1A 8271  28.788  18.917   8.654
  379POPC   D2A 8272  29.075  18.831   8.293
  379POPC   C3A 8273  29.004  19.053   7.941
  379POPC   C4A 8274  28.953  19.380   7.625
  379POPC   C1B 8275  29.303  18.883   8.770
  379POPC   C2B 8276  29.471  18.566   8.482
  379POPC   C3B 8277  29.626  18.672   8.084
  379POPC   C4B 8278  29.459  18.867   7.706
  380POPC   NC3 8279   5.487  11.159   9.323
  380POPC   PO4 8280   6.155  11.341   9.460
  380POPC   GL1 8281   5.860  11.449   9.121
  380POPC   GL2 8282   5.535  11.685   9.193
  380POPC   C1A 8283   5.931  11.261   8.690
  380POPC   D2A 8284   6.245  11.225   8.330
  380POPC   C3A 8285   6.038  11.238   7.935
  380POPC   C4A 8286   5.582  11.139   7.827
  380POPC   C1B 8287   5.613  11.673   8.739
  380POPC   C2B 8288   5.645  11.470   8.307
  380POPC   C3B 8289   5.376  11.590   7.989
  380POPC   C4B 8290   5.424  11.601   7.558
  381POPC   NC3 8291  39.613  18.272   9.510
  381POPC   PO4 8292  39.001  18.552   9.464
  381POPC   GL1 8293  39.208  18.652   9.081
  381POPC   GL2 8294  39.494  18.485   9.077
  381POPC   C1A 8295  39.294  18.708   8.638
  381POPC   D2A 8296  38.941  18.613   8.365
  381POPC   C3A 8297  39.001  18.383   8.006
  381POPC   C4A 8298  39.322  18.322   7.724
  381POPC   C1B 8299  39.369  18.211   8.724
  381POPC   C2B 8300  39.350  18.147   8.312
  381POPC   C3B 8301  39.199  17.904   7.984
  381POPC   C4B 8302  39.300  17.833   7.508
  382POPC   NC3 8303  10.752  37.835   9.601
  382POPC   PO4 8304  11.423  37.774   9.637
  382POPC   GL1 8305  11.421  37.658   9.221
  382POPC   GL2 8306  11.672  37.856   9.128
  382POPC   C1A 8307  11.383  37.543   8.785
  382POPC   D2A 8308  11.135  37.584   8.430
  382POPC   C3A 8309  11.356  37.672   8.062
  382POPC   C4A 8310  11.445  37.421   7.719
  382POPC   C1B 8311  11.293  38.032   8.893
  382POPC   C2B 8312  11.337  38.059   8.461
  382POPC   C3B 8313  11.087  38.119   8.103
  382POPC   C4B 8314  10.973  37.923   7.736
  383POPC   NC3 8315  18.095   5.584   9.299
  383POPC   PO4 8316  18.358   5.100   9.698
  383POPC   GL1 8317  18.292   5.093   9.222
  383POPC   GL2 8318  17.937   5.066   9.222
  383POPC   C1A 8319  18.298   5.315   8.769
  383POPC   D2A 8320  18.274   5.541   8.351
  383POPC   C3A 8321  18.378   5.211   8.074
  383POPC   C4A 8322  18.216   5.089   7.703
  383POPC   C1B 8323  18.047   4.872   8.815
  383POPC   C2B 8324  18.261   4.878   8.444
  383POPC   C3B 8325  18.017   4.824   8.091
  383POPC   C4B 8326  17.982   4.616   7.725
  384POPC   NC3 8327  37.323  15.481   9.307
  384POPC   PO4 8328  37.638  14.978   9.607
  384POPC   GL1 8329  37.678  15.081   9.190
  384POPC   GL2 8330  37.844  15.385   9.209
  384POPC   C1A 8331  37.786  14.939   8.788
  384POPC   D2A 8332  37.785  15.109   8.407
  384POPC   C3A 8333  37.751  14.896   8.042
  384POPC   C4A 8334  37.665  14.998   7.643
  384POPC   C1B 8335  37.887  15.481   8.766
  384POPC   C2B 8336  38.068  15.530   8.342
  384POPC   C3B 8337  37.851  15.407   7.978
  384POPC   C4B 8338  37.725  15.503   7.574
  385POPC   NC3 8339   3.907   3.146   9.465
  385POPC   PO4 8340   4.411   3.584   9.390
  385POPC   GL1 8341   4.397   3.515   9.000
  385POPC   GL2 8342   4.709   3.699   8.924
  385POPC   C1A 8343   4.117   3.428   8.649
  385POPC   D2A 8344   4.082   3.232   8.266
  385POPC   C3A 8345   4.285   3.359   7.908
  385POPC   C4A 8346   4.239   3.728   7.704
  385POPC   C1B 8347   4.436   3.804   8.594
  385POPC   C2B 8348   4.260   3.746   8.234
  385POPC   C3B 8349   4.631   3.779   8.016
  385POPC   C4B 8350   4.728   3.933   7.595
  386POPC   NC3 8351  30.006  31.260   9.541
  386POPC   PO4 8352  29.935  31.879   9.505
  386POPC   GL1 8353  30.213  31.606   9.182
  386POPC   GL2 8354  30.154  31.243   9.050
  386POPC   C1A 8355  30.306  31.569   8.715
  386POPC   D2A 8356  30.042  31.630   8.334
  386POPC   C3A 8357  30.108  31.241   8.085
  386POPC   C4A 8358  30.084  31.159   7.644
  386POPC   C1B 8359  29.825  31.350   8.738
  386POPC   C2B 8360  29.656  31.267   8.313
  386POPC   C3B 8361  29.637  31.374   7.874
  386POPC   C4B 8362  29.576  31.138   7.509
  387POPC   NC3 8363   7.731  26.579   9.505
  387POPC   PO4 8364   7.079  26.877   9.570
  387POPC   GL1 8365   7.321  26.772   9.220
  387POPC   GL2 8366   7.215  26.422   9.120
  387POPC   C1A 8367   7.615  26.960   8.919
  387POPC   D2A 8368   7.618  27.243   8.582
  387POPC   C3A 8369   7.712  27.109   8.153
  387POPC   C4A 8370   7.664  26.746   7.841
  387POPC   C1B 8371   7.190  26.694   8.721
  387POPC   C2B 8372   7.147  26.820   8.271
  387POPC   C3B 8373   7.166  26.667   7.844
  387POPC   C4B 8374   7.356  26.615   7.418
  388POPC   NC3 8375  16.914   8.115   9.474
  388POPC   PO4 8376  16.325   8.311   9.383
  388POPC   GL1 8377  16.550   7.984   9.130
  388POPC   GL2 8378  16.632   8.285   8.949
  388POPC   C1A 8379  16.903   7.889   8.824
  388POPC   D2A 8380  16.772   7.918   8.379
  388POPC   C3A 8381  17.022   8.089   8.053
  388POPC   C4A 8382  17.171   7.890   7.670
  388POPC   C1B 8383  16.361   8.583   8.719
  388POPC   C2B 8384  16.324   8.630   8.269
  388POPC   C3B 8385  16.551   8.399   7.920
  388POPC   C4B 8386  16.503   8.507   7.462
  389POPC   NC3 8387  12.217   1.481   9.612
  389POPC   PO4 8388  11.823   0.998   9.717
  389POPC   GL1 8389  11.825   0.968   9.245
  389POPC   GL2 8390  12.126   1.166   9.214
  389POPC   C1A 8391  11.780   1.210   8.827
  389POPC   D2A 8392  11.871   1.377   8.411
  389POPC   C3A 8393  11.776   1.190   8.001
  389POPC   C4A 8394  11.806   1.462   7.652
  389POPC   C1B 8395  12.333   1.308   8.843
  389POPC   C2B 8396  12.330   1.158   8.406
  389POPC   C3B 8397  12.245   1.358   7.996
  389POPC   C4B 8398  12.339   1.108   7.656
  390POPC   NC3 8399   8.989  38.859   9.800
  390POPC   PO4 8400   8.946  38.323   9.515
  390POPC   GL1 8401   8.986  38.504   9.143
  390POPC   GL2 8402   8.683  38.643   9.080
  390POPC   C1A 8403   9.092  38.743   8.771
  390POPC   D2A 8404   9.217  38.969   8.414
  390POPC   C3A 8405   9.158  38.681   8.100
  390POPC   C4A 8406   9.025  38.568   7.697
  390POPC   C1B 8407   8.677  38.313   8.786
  390POPC   C2B 8408   8.892  38.392   8.438
  390POPC   C3B 8409   8.678  38.487   8.062
  390POPC   C4B 8410   8.545  38.289   7.705
  391POPC   NC3 8411  41.667  43.452   9.503
  391POPC   PO4 8412  41.495  44.130   9.289
  391POPC   GL1 8413  41.536  43.749   9.088
  391POPC   GL2 8414  41.877  43.777   9.162
  391POPC   C1A 8415  41.471  43.683   8.649
  391POPC   D2A 8416  41.477  43.411   8.281
  391POPC   C3A 8417  41.471  43.724   7.971
  391POPC   C4A 8418  41.478  43.773   7.537
  391POPC   C1B 8419  41.983  43.646   8.760
  391POPC   C2B 8420  41.920  43.688   8.299
  391POPC   C3B 8421  41.950  43.862   7.851
  391POPC   C4B 8422  41.766  44.211   7.564
  392POPC   NC3 8423  33.800  42.568   9.573
  392POPC   PO4 8424  33.534  42.031   9.378
  392POPC   GL1 8425  33.663  42.355   9.113
  392POPC   GL2 8426  33.978  42.456   9.088
  392POPC   C1A 8427  33.647  42.291   8.702
  392POPC   D2A 8428  33.952  42.269   8.412
  392POPC   C3A 8429  33.777  42.241   8.029
  392POPC   C4A 8430  33.734  42.011   7.678
  392POPC   C1B 8431  33.961  42.747   8.735
  392POPC   C2B 8432  34.010  42.976   8.347
  392POPC   C3B 8433  33.968  42.769   7.953
  392POPC   C4B 8434  33.947  42.485   7.601
  393POPC   NC3 8435  44.917  43.577   9.468
  393POPC   PO4 8436  44.373  43.996   9.477
  393POPC   GL1 8437  44.637  43.871   9.149
  393POPC   GL2 8438   0.012  43.958   9.139
  393POPC   C1A 8439  44.662  43.792   8.730
  393POPC   D2A 8440  44.603  44.021   8.385
  393POPC   C3A 8441  44.696  43.795   8.044
  393POPC   C4A 8442  44.605  43.957   7.710
  393POPC   C1B 8443   0.261  43.995   8.767
  393POPC   C2B 8444   0.111  43.884   8.371
  393POPC   C3B 8445   0.115  44.032   7.955
  393POPC   C4B 8446   0.092  43.819   7.576
  394POPC   NC3 8447  34.596  15.802   9.548
  394POPC   PO4 8448  34.680  16.492   9.389
  394POPC   GL1 8449  34.525  16.123   9.134
  394POPC   GL2 8450  34.342  15.774   9.113
  394POPC   C1A 8451  34.573  16.186   8.724
  394POPC   D2A 8452  34.524  16.374   8.330
  394POPC   C3A 8453  34.368  16.145   8.010
  394POPC   C4A 8454  34.681  16.217   7.718
  394POPC   C1B 8455  34.661  15.660   8.847
  394POPC   C2B 8456  34.772  15.799   8.431
  394POPC   C3B 8457  34.619  15.702   8.029
  394POPC   C4B 8458  34.510  15.738   7.580
  395POPC   NC3 8459   2.824  37.382   9.452
  395POPC   PO4 8460   2.708  36.713   9.644
  395POPC   GL1 8461   2.698  36.880   9.214
  395POPC   GL2 8462   2.854  36.555   9.102
  395POPC   C1A 8463   2.625  37.174   8.825
  395POPC   D2A 8464   2.731  37.365   8.393
  395POPC   C3A 8465   2.535  37.219   8.014
  395POPC   C4A 8466   2.548  36.921   7.672
  395POPC   C1B 8467   2.605  36.661   8.738
  395POPC   C2B 8468   2.676  36.837   8.318
  395POPC   C3B 8469   2.980  36.951   7.978
  395POPC   C4B 8470   3.016  36.773   7.558
  396POPC   NC3 8471  35.913  11.052   9.457
  396POPC   PO4 8472  36.288  11.575   9.397
  396POPC   GL1 8473  36.161  11.314   9.080
  396POPC   GL2 8474  35.812  11.402   9.121
  396POPC   C1A 8475  36.319  11.045   8.746
  396POPC   D2A 8476  36.530  11.128   8.376
  396POPC   C3A 8477  36.311  11.173   8.010
  396POPC   C4A 8478  36.157  10.940   7.714
  396POPC   C1B 8479  35.837  11.230   8.692
  396POPC   C2B 8480  36.065  11.421   8.371
  396POPC   C3B 8481  35.954  11.632   7.999
  396POPC   C4B 8482  35.959  11.386   7.638
  397POPC   NC3 8483  17.805  42.423   9.586
  397POPC   PO4 8484  17.200  42.255   9.677
  397POPC   GL1 8485  17.329  42.373   9.222
  397POPC   GL2 8486  17.612  42.546   9.146
  397POPC   C1A 8487  17.440  42.371   8.720
  397POPC   D2A 8488  17.582  42.229   8.298
  397POPC   C3A 8489  17.353  42.257   7.913
  397POPC   C4A 8490  17.344  42.086   7.448
  397POPC   C1B 8491  17.807  42.758   8.785
  397POPC   C2B 8492  17.885  42.647   8.325
  397POPC   C3B 8493  17.748  42.637   7.880
  397POPC   C4B 8494  17.441  42.573   7.526
  398POPC   NC3 8495  29.540  19.992   9.899
  398POPC   PO4 8496  29.019  19.829   9.486
  398POPC   GL1 8497  29.091  19.846   9.108
  398POPC   GL2 8498  29.109  20.199   9.085
  398POPC   C1A 8499  29.228  19.594   8.789
  398POPC   D2A 8500  29.174  19.301   8.496
  398POPC   C3A 8501  29.119  19.510   8.123
  398POPC   C4A 8502  29.202  19.803   7.829
  398POPC   C1B 8503  29.248  20.072   8.684
  398POPC   C2B 8504  29.353  19.958   8.301
  398POPC   C3B 8505  29.421  20.243   7.969
  398POPC   C4B 8506  29.118  20.261   7.640
  399POPC   NC3 8507  43.627   4.640   9.317
  399POPC   PO4 8508  44.137   4.154   9.469
  399POPC   GL1 8509  43.890   4.188   9.109
  399POPC   GL2 8510  43.599   3.943   9.099
  399POPC   C1A 8511  43.931   4.436   8.725
  399POPC   D2A 8512  44.106   4.635   8.357
  399POPC   C3A 8513  43.949   4.570   7.977
  399POPC   C4A 8514  44.053   4.212   7.818
  399POPC   C1B 8515  43.655   4.013   8.691
  399POPC   C2B 8516  43.787   4.169   8.297
  399POPC   C3B 8517  43.648   3.976   7.940
  399POPC   C4B 8518  43.438   4.037   7.606
  400POPC   NC3 8519  43.546  28.229   9.715
  400POPC   PO4 8520  44.149  28.123   9.255
  400POPC   GL1 8521  44.039  28.378   8.970
  400POPC   GL2 8522  44.212  28.664   8.874
  400POPC   C1A 8523  44.129  28.235   8.559
  400POPC   D2A 8524  44.146  27.863   8.295
  400POPC   C3A 8525  43.975  28.027   7.928
  400POPC   C4A 8526  43.554  28.202   7.858
  400POPC   C1B 8527  43.787  28.658   8.650
  400POPC   C2B 8528  43.803  28.480   8.232
  400POPC   C3B 8529  43.956  28.548   7.838
  400POPC   C4B 8530  43.796  28.463   7.429
  401POPC   NC3 8531  12.146  11.875   9.690
  401POPC   PO4 8532  11.520  12.109   9.596
  401POPC   GL1 8533  11.795  12.030   9.231
  401POPC   GL2 8534  12.132  11.854   9.186
  401POPC   C1A 8535  11.934  12.160   8.803
  401POPC   D2A 8536  12.034  11.958   8.399
  401POPC   C3A 8537  11.978  12.206   8.008
  401POPC   C4A 8538  12.013  11.913   7.684
  401POPC   C1B 8539  12.392  11.890   8.804
  401POPC   C2B 8540  12.554  12.040   8.425
  401POPC   C3B 8541  12.430  11.978   8.036
  401POPC   C4B 8542  12.444  12.208   7.727
  402POPC   NC3 8543  24.088  12.470   9.412
  402POPC   PO4 8544  24.702  12.673   9.641
  402POPC   GL1 8545  24.597  12.607   9.184
  402POPC   GL2 8546  24.378  12.775   9.048
  402POPC   C1A 8547  24.791  12.700   8.745
  402POPC   D2A 8548  24.966  12.591   8.323
  402POPC   C3A 8549  24.717  12.810   7.993
  402POPC   C4A 8550  24.710  13.241   7.890
  402POPC   C1B 8551  24.283  12.692   8.659
  402POPC   C2B 8552  24.069  12.678   8.276
  402POPC   C3B 8553  24.249  12.604   7.865
  402POPC   C4B 8554  24.312  12.792   7.459
  403POPC   NC3 8555   8.102  10.595   9.615
  403POPC   PO4 8556   8.696  10.241   9.515
  403POPC   GL1 8557   8.461  10.534   9.225
  403POPC   GL2 8558   8.078  10.657   9.125
  403POPC   C1A 8559   8.492  10.730   8.836
  403POPC   D2A 8560   8.376  10.686   8.401
  403POPC   C3A 8561   8.487  10.950   8.085
  403POPC   C4A 8562   8.502  10.763   7.680
  403POPC   C1B 8563   8.060  10.444   8.740
  403POPC   C2B 8564   7.975  10.329   8.328
  403POPC   C3B 8565   8.016  10.614   8.011
  403POPC   C4B 8566   7.698  10.705   7.724
  404POPC   NC3 8567   8.536   6.585   9.556
  404POPC   PO4 8568   7.886   6.583   9.470
  404POPC   GL1 8569   8.002   6.864   9.119
  404POPC   GL2 8570   8.350   6.882   9.152
  404POPC   C1A 8571   8.147   6.866   8.674
  404POPC   D2A 8572   8.168   6.736   8.245
  404POPC   C3A 8573   8.101   6.785   7.836
  404POPC   C4A 8574   8.112   6.765   7.408
  404POPC   C1B 8575   8.220   6.437   8.933
  404POPC   C2B 8576   8.190   6.305   8.493
  404POPC   C3B 8577   8.096   6.254   8.032
  404POPC   C4B 8578   8.231   6.296   7.591
  405POPC   NC3 8579  11.575  33.754   9.551
  405POPC   PO4 8580  12.036  34.222   9.649
  405POPC   GL1 8581  11.750  34.051   9.187
  405POPC   GL2 8582  11.409  33.779   9.098
  405POPC   C1A 8583  11.740  33.821   8.756
  405POPC   D2A 8584  11.362  33.822   8.562
  405POPC   C3A 8585  11.350  33.821   8.160
  405POPC   C4A 8586  11.141  33.975   7.786
  405POPC   C1B 8587  11.088  33.524   8.845
  405POPC   C2B 8588  11.087  33.388   8.407
  405POPC   C3B 8589  10.943  33.552   8.000
  405POPC   C4B 8590  11.151  33.430   7.637
  406POPC   NC3 8591  20.008  15.068   9.569
  406POPC   PO4 8592  19.526  15.428   9.980
  406POPC   GL1 8593  19.578  15.309   9.432
  406POPC   GL2 8594  19.625  14.948   9.247
  406POPC   C1A 8595  19.638  15.346   8.927
  406POPC   D2A 8596  19.954  15.322   8.544
  406POPC   C3A 8597  19.904  15.217   8.079
  406POPC   C4A 8598  20.012  15.423   7.664
  406POPC   C1B 8599  19.489  14.861   8.786
  406POPC   C2B 8600  19.495  14.979   8.322
  406POPC   C3B 8601  19.609  14.831   7.878
  406POPC   C4B 8602  19.642  14.692   7.373
  407POPC   NC3 8603  13.694   2.293   9.618
  407POPC   PO4 8604  13.177   1.958   9.453
  407POPC   GL1 8605  13.534   1.777   9.189
  407POPC   GL2 8606  13.828   2.008   9.192
  407POPC   C1A 8607  13.764   1.680   8.787
  407POPC   D2A 8608  13.881   1.914   8.415
  407POPC   C3A 8609  13.689   1.818   8.021
  407POPC   C4A 8610  13.546   1.527   7.752
  407POPC   C1B 8611  13.949   2.247   8.809
  407POPC   C2B 8612  13.902   2.432   8.379
  407POPC   C3B 8613  13.743   2.318   7.935
  407POPC   C4B 8614  13.967   2.232   7.538
  408POPC   NC3 8615   2.013   2.038  10.042
  408POPC   PO4 8616   1.789   2.314   9.431
  408POPC   GL1 8617   1.907   1.900   9.178
  408POPC   GL2 8618   1.731   1.538   9.126
  408POPC   C1A 8619   2.105   1.964   8.778
  408POPC   D2A 8620   2.206   1.867   8.361
  408POPC   C3A 8621   2.117   2.068   7.991
  408POPC   C4A 8622   2.183   2.247   7.585
  408POPC   C1B 8623   1.734   1.616   8.711
  408POPC   C2B 8624   1.849   1.501   8.318
  408POPC   C3B 8625   1.729   1.744   7.984
  408POPC   C4B 8626   1.497   1.629   7.646
  409POPC   NC3 8627   1.065  42.751   9.572
  409POPC   PO4 8628   1.230  43.499   9.568
  409POPC   GL1 8629   1.163  43.306   9.154
  409POPC   GL2 8630   0.878  43.016   9.144
  409POPC   C1A 8631   1.106  43.283   8.721
  409POPC   D2A 8632   0.933  43.166   8.322
  409POPC   C3A 8633   1.115  43.348   7.978
  409POPC   C4A 8634   1.373  43.385   7.603
  409POPC   C1B 8635   0.942  42.772   8.765
  409POPC   C2B 8636   1.244  42.757   8.429
  409POPC   C3B 8637   1.092  42.787   7.989
  409POPC   C4B 8638   1.269  42.905   7.590
  410POPC   NC3 8639  33.860  28.313   9.583
  410POPC   PO4 8640  33.343  28.760   9.493
  410POPC   GL1 8641  33.589  28.566   9.171
  410POPC   GL2 8642  33.650  28.218   9.121
  410POPC   C1A 8643  33.734  28.666   8.767
  410POPC   D2A 8644  33.927  28.497   8.426
  410POPC   C3A 8645  33.720  28.607   8.088
  410POPC   C4A 8646  33.719  28.375   7.752
  410POPC   C1B 8647  33.404  28.271   8.735
  410POPC   C2B 8648  33.391  28.225   8.275
  410POPC   C3B 8649  33.539  27.945   7.956
  410POPC   C4B 8650  33.509  27.984   7.476
  411POPC   NC3 8651  40.577   4.470   9.524
  411POPC   PO4 8652  41.169   4.318   9.389
  411POPC   GL1 8653  40.913   4.168   9.055
  411POPC   GL2 8654  40.604   4.017   9.203
  411POPC   C1A 8655  41.019   4.048   8.611
  411POPC   D2A 8656  41.023   4.083   8.137
  411POPC   C3A 8657  40.897   4.521   7.950
  411POPC   C4A 8658  40.525   4.795   7.796
  411POPC   C1B 8659  40.537   3.869   8.781
  411POPC   C2B 8660  40.406   4.004   8.356
  411POPC   C3B 8661  40.532   4.102   7.929
  411POPC   C4B 8662  40.463   3.938   7.519
  412POPC   NC3 8663   1.759  27.826   9.428
  412POPC   PO4 8664   2.201  28.442   9.435
  412POPC   GL1 8665   1.978  28.475   9.078
  412POPC   GL2 8666   1.805  28.188   9.070
  412POPC   C1A 8667   2.110  28.530   8.683
  412POPC   D2A 8668   2.055  28.323   8.295
  412POPC   C3A 8669   2.115  28.670   8.016
  412POPC   C4A 8670   2.308  28.653   7.640
  412POPC   C1B 8671   2.110  28.013   8.776
  412POPC   C2B 8672   2.234  27.722   8.426
  412POPC   C3B 8673   2.277  27.888   8.003
  412POPC   C4B 8674   2.038  28.219   7.770
  413POPC   NC3 8675  39.195   6.345   9.491
  413POPC   PO4 8676  39.273   5.776   9.675
  413POPC   GL1 8677  39.146   5.763   9.124
  413POPC   GL2 8678  39.029   6.112   9.071
  413POPC   C1A 8679  39.040   5.803   8.660
  413POPC   D2A 8680  39.405   5.860   8.380
  413POPC   C3A 8681  39.577   5.601   8.044
  413POPC   C4A 8682  39.224   5.589   7.786
  413POPC   C1B 8683  39.311   6.243   8.715
  413POPC   C2B 8684  39.648   6.314   8.380
  413POPC   C3B 8685  39.560   6.100   7.961
  413POPC   C4B 8686  39.269   6.085   7.659
  414POPC   NC3 8687   4.342   0.633   9.482
  414POPC   PO4 8688   4.196   1.295   9.596
  414POPC   GL1 8689   4.225   1.234   9.197
  414POPC   GL2 8690   3.900   1.052   9.192
  414POPC   C1A 8691   4.348   1.443   8.814
  414POPC   D2A 8692   4.567   1.532   8.451
  414POPC   C3A 8693   4.449   1.393   8.047
  414POPC   C4A 8694   4.621   1.238   7.673
  414POPC   C1B 8695   3.851   1.385   8.884
  414POPC   C2B 8696   3.973   1.402   8.440
  414POPC   C3B 8697   3.963   1.216   8.018
  414POPC   C4B 8698   4.118   1.323   7.617
  415POPC   NC3 8699  44.160   4.622   9.522
  415POPC   PO4 8700  43.608   5.097   9.354
  415POPC   GL1 8701  43.903   5.041   9.076
  415POPC   GL2 8702  43.998   5.364   9.040
  415POPC   C1A 8703  43.851   4.953   8.663
  415POPC   D2A 8704  43.610   4.794   8.313
  415POPC   C3A 8705  43.715   5.031   7.930
  415POPC   C4A 8706  44.011   5.354   7.705
  415POPC   C1B 8707  43.816   5.478   8.692
  415POPC   C2B 8708  43.842   5.377   8.290
  415POPC   C3B 8709  43.633   5.541   7.969
  415POPC   C4B 8710  43.608   5.623   7.566
  416POPC   NC3 8711  24.477   3.795   9.376
  416POPC   PO4 8712  24.740   3.337   9.748
  416POPC   GL1 8713  24.641   3.337   9.259
  416POPC   GL2 8714  24.315   3.204   9.181
  416POPC   C1A 8715  24.609   3.372   8.772
  416POPC   D2A 8716  24.442   3.670   8.434
  416POPC   C3A 8717  24.629   3.746   8.007
  416POPC   C4A 8718  24.738   3.534   7.624
  416POPC   C1B 8719  24.148   3.124   8.765
  416POPC   C2B 8720  24.041   3.347   8.398
  416POPC   C3B 8721  24.269   3.390   8.042
  416POPC   C4B 8722  24.138   3.343   7.700
  417POPC   NC3 8723   9.633  33.944   9.609
  417POPC   PO4 8724  10.233  33.710   9.592
  417POPC   GL1 8725   9.935  33.646   9.223
  417POPC   GL2 8726   9.565  33.642   9.163
  417POPC   C1A 8727   9.879  33.620   8.765
  417POPC   D2A 8728   9.643  33.594   8.359
  417POPC   C3A 8729   9.973  33.704   8.106
  417POPC   C4A 8730  10.051  33.978   7.772
  417POPC   C1B 8731   9.406  33.838   8.781
  417POPC   C2B 8732   9.369  34.047   8.374
  417POPC   C3B 8733   9.558  34.000   7.992
  417POPC   C4B 8734   9.594  33.596   7.797
  418POPC   NC3 8735  41.188   6.041   9.439
  418POPC   PO4 8736  40.513   5.984   9.644
  418POPC   GL1 8737  40.653   6.020   9.224
  418POPC   GL2 8738  40.845   5.750   9.108
  418POPC   C1A 8739  40.516   5.946   8.790
  418POPC   D2A 8740  40.517   5.642   8.448
  418POPC   C3A 8741  40.535   5.763   8.018
  418POPC   C4A 8742  40.683   5.875   7.603
  418POPC   C1B 8743  40.979   5.647   8.720
  418POPC   C2B 8744  41.181   5.633   8.341
  418POPC   C3B 8745  41.072   5.742   7.910
  418POPC   C4B 8746  41.106   5.524   7.525
  419POPC   NC3 8747  26.083  14.245   9.585
  419POPC   PO4 8748  25.777  13.629   9.504
  419POPC   GL1 8749  26.055  13.684   9.164
  419POPC   GL2 8750  26.172  14.018   9.143
  419POPC   C1A 8751  26.024  13.473   8.777
  419POPC   D2A 8752  25.951  13.593   8.371
  419POPC   C3A 8753  26.221  13.359   8.115
  419POPC   C4A 8754  26.074  13.331   7.715
  419POPC   C1B 8755  26.214  14.194   8.749
  419POPC   C2B 8756  25.998  14.102   8.397
  419POPC   C3B 8757  25.878  14.124   8.006
  419POPC   C4B 8758  26.115  14.155   7.617
  420POPC   NC3 8759  32.693  31.734   9.790
  420POPC   PO4 8760  33.005  31.216   9.433
  420POPC   GL1 8761  33.148  31.528   9.136
  420POPC   GL2 8762  32.930  31.335   8.933
  420POPC   C1A 8763  33.250  31.665   8.737
  420POPC   D2A 8764  33.013  31.548   8.396
  420POPC   C3A 8765  33.186  31.562   7.985
  420POPC   C4A 8766  32.905  31.736   7.782
  420POPC   C1B 8767  33.259  31.140   8.698
  420POPC   C2B 8768  33.359  31.194   8.274
  420POPC   C3B 8769  33.394  31.037   7.837
  420POPC   C4B 8770  33.340  30.970   7.368
  421POPC   NC3 8771   4.440  27.551   9.629
  421POPC   PO4 8772   3.807  27.573   9.404
  421POPC   GL1 8773   4.090  27.380   9.117
  421POPC   GL2 8774   4.354  27.627   9.131
  421POPC   C1A 8775   4.137  27.500   8.667
  421POPC   D2A 8776   3.909  27.689   8.310
  421POPC   C3A 8777   4.156  27.798   8.001
  421POPC   C4A 8778   4.323  27.412   7.889
  421POPC   C1B 8779   4.538  27.816   8.770
  421POPC   C2B 8780   4.519  27.645   8.326
  421POPC   C3B 8781   4.654  27.811   7.902
  421POPC   C4B 8782   4.733  27.875   7.433
  422POPC   NC3 8783  10.199  12.211   9.475
  422POPC   PO4 8784   9.528  11.958   9.523
  422POPC   GL1 8785   9.777  12.097   9.209
  422POPC   GL2 8786   9.995  11.771   9.276
  422POPC   C1A 8787   9.691  12.262   8.785
  422POPC   D2A 8788   9.923  12.456   8.444
  422POPC   C3A 8789   9.773  12.310   8.034
  422POPC   C4A 8790   9.936  12.290   7.629
  422POPC   C1B 8791   9.864  11.758   8.859
  422POPC   C2B 8792   9.535  11.806   8.561
  422POPC   C3B 8793   9.490  11.686   8.149
  422POPC   C4B 8794   9.583  11.848   7.754
  423POPC   NC3 8795  11.284   4.945   9.602
  423POPC   PO4 8796  10.734   5.398   9.427
  423POPC   GL1 8797  11.111   5.217   9.147
  423POPC   GL2 8798  11.501   5.057   9.162
  423POPC   C1A 8799  11.342   5.256   8.738
  423POPC   D2A 8800  11.544   5.092   8.366
  423POPC   C3A 8801  11.209   4.924   8.113
  423POPC   C4A 8802  10.852   5.100   7.860
  423POPC   C1B 8803  11.706   4.854   8.810
  423POPC   C2B 8804  11.882   4.693   8.419
  423POPC   C3B 8805  11.687   4.725   8.013
  423POPC   C4B 8806  11.528   5.078   7.756
  424POPC   NC3 8807   6.958   0.206   9.554
  424POPC   PO4 8808   7.551   0.494   9.455
  424POPC   GL1 8809   7.248   0.531   9.130
  424POPC   GL2 8810   7.186   0.175   9.064
  424POPC   C1A 8811   7.035   0.672   8.766
  424POPC   D2A 8812   7.057   0.632   8.317
  424POPC   C3A 8813   7.334   0.376   8.138
  424POPC   C4A 8814   7.407   0.310   7.743
  424POPC   C1B 8815   7.384   0.210   8.630
  424POPC   C2B 8816   7.752   0.150   8.309
  424POPC   C3B 8817   7.888   0.477   7.976
  424POPC   C4B 8818   7.825   0.494   7.559
  425POPC   NC3 8819  29.609  24.276   9.512
  425POPC   PO4 8820  30.236  24.444   9.544
  425POPC   GL1 8821  30.009  24.353   9.187
  425POPC   GL2 8822  30.026  24.729   9.158
  425POPC   C1A 8823  29.731  24.223   8.821
  425POPC   D2A 8824  29.590  24.369   8.402
  425POPC   C3A 8825  29.866  24.402   8.038
  425POPC   C4A 8826  29.799  24.320   7.630
  425POPC   C1B 8827  30.107  24.555   8.735
  425POPC   C2B 8828  29.928  24.756   8.406
  425POPC   C3B 8829  30.033  24.946   8.068
  425POPC   C4B 8830  30.057  24.757   7.669
  426POPC   NC3 8831  31.063  13.486   9.510
  426POPC   PO4 8832  30.542  13.998   9.481
  426POPC   GL1 8833  30.761  13.729   9.165
  426POPC   GL2 8834  31.112  13.793   9.100
  426POPC   C1A 8835  30.640  13.490   8.805
  426POPC   D2A 8836  30.486  13.709   8.425
  426POPC   C3A 8837  30.580  13.570   7.962
  426POPC   C4A 8838  30.324  13.586   7.559
  426POPC   C1B 8839  30.940  13.889   8.688
  426POPC   C2B 8840  30.901  13.893   8.231
  426POPC   C3B 8841  30.825  13.984   7.786
  426POPC   C4B 8842  31.136  13.998   7.472
  427POPC   NC3 8843  15.586  17.174   9.657
  427POPC   PO4 8844  15.892  17.809   9.559
  427POPC   GL1 8845  16.063  17.505   9.219
  427POPC   GL2 8846  16.115  17.694   8.949
  427POPC   C1A 8847  16.010  17.257   8.782
  427POPC   D2A 8848  16.057  17.566   8.417
  427POPC   C3A 8849  16.123  17.348   8.078
  427POPC   C4A 8850  16.033  17.319   7.657
  427POPC   C1B 8851  15.667  17.624   8.716
  427POPC   C2B 8852  15.492  17.677   8.337
  427POPC   C3B 8853  15.736  17.677   7.976
  427POPC   C4B 8854  15.743  17.736   7.550
  428POPC   NC3 8855  44.738  24.242   9.431
  428POPC   PO4 8856  44.454  24.787   9.469
  428POPC   GL1 8857  44.400  24.508   9.099
  428POPC   GL2 8858  44.302  24.142   9.142
  428POPC   C1A 8859  44.233  24.612   8.715
  428POPC   D2A 8860  44.506  24.825   8.468
  428POPC   C3A 8861  44.576  24.687   8.065
  428POPC   C4A 8862  44.623  24.771   7.647
  428POPC   C1B 8863  44.454  24.147   8.717
  428POPC   C2B 8864  44.763  24.389   8.504
  428POPC   C3B 8865  44.984  24.382   8.128
  428POPC   C4B 8866  44.807  24.287   7.748
  429POPC   NC3 8867  28.307   3.020   9.742
  429POPC   PO4 8868  28.005   2.455   9.640
  429POPC   GL1 8869  28.264   2.674   9.331
  429POPC   GL2 8870  27.966   2.682   9.133
  429POPC   C1A 8871  28.406   2.903   8.926
  429POPC   D2A 8872  28.413   2.806   8.464
  429POPC   C3A 8873  28.663   2.842   8.065
  429POPC   C4A 8874  28.464   2.534   7.863
  429POPC   C1B 8875  27.947   2.667   8.668
  429POPC   C2B 8876  27.977   2.684   8.217
  429POPC   C3B 8877  27.815   2.960   7.922
  429POPC   C4B 8878  27.696   3.052   7.488
  430POPC   NC3 8879  38.784  21.499   9.509
  430POPC   PO4 8880  38.134  21.685   9.426
  430POPC   GL1 8881  38.385  21.370   9.205
  430POPC   GL2 8882  38.619  21.635   9.043
  430POPC   C1A 8883  38.655  21.187   8.867
  430POPC   D2A 8884  38.805  21.451   8.585
  430POPC   C3A 8885  38.776  21.425   8.135
  430POPC   C4A 8886  38.487  21.293   7.805
  430POPC   C1B 8887  38.289  21.547   8.745
  430POPC   C2B 8888  37.987  21.490   8.425
  430POPC   C3B 8889  38.005  21.466   7.987
  430POPC   C4B 8890  38.115  21.577   7.565
  431POPC   NC3 8891   3.604  40.189   9.759
  431POPC   PO4 8892   3.781  39.573   9.659
  431POPC   GL1 8893   3.712  39.875   9.315
  431POPC   GL2 8894   3.730  40.250   9.254
  431POPC   C1A 8895   3.508  39.907   8.922
  431POPC   D2A 8896   3.686  39.935   8.509
  431POPC   C3A 8897   3.488  39.813   8.135
  431POPC   C4A 8898   3.487  40.035   7.777
  431POPC   C1B 8899   3.740  40.419   8.812
  431POPC   C2B 8900   3.885  40.413   8.372
  431POPC   C3B 8901   3.657  40.503   7.979
  431POPC   C4B 8902   3.631  40.435   7.513
  432POPC   NC3 8903  28.485  28.844   9.534
  432POPC   PO4 8904  28.178  28.339   9.421
  432POPC   GL1 8905  28.524  28.472   9.156
  432POPC   GL2 8906  28.476  28.166   9.005
  432POPC   C1A 8907  28.608  28.738   8.764
  432POPC   D2A 8908  28.394  28.875   8.354
  432POPC   C3A 8909  28.368  28.666   7.962
  432POPC   C4A 8910  28.385  28.231   7.897
  432POPC   C1B 8911  28.704  28.233   8.659
  432POPC   C2B 8912  28.719  28.456   8.257
  432POPC   C3B 8913  28.832  28.480   7.792
  432POPC   C4B 8914  28.786  28.365   7.319
  433POPC   NC3 8915  10.767  14.713   9.418
  433POPC   PO4 8916  10.420  15.186   9.758
  433POPC   GL1 8917  10.364  15.071   9.296
  433POPC   GL2 8918  10.061  14.891   9.289
  433POPC   C1A 8919  10.375  15.103   8.807
  433POPC   D2A 8920  10.571  15.030   8.354
  433POPC   C3A 8921  10.458  15.298   7.930
  433POPC   C4A 8922  10.416  15.626   7.544
  433POPC   C1B 8923   9.959  14.784   8.845
  433POPC   C2B 8924  10.038  14.969   8.445
  433POPC   C3B 8925  10.210  14.808   8.068
  433POPC   C4B 8926  10.233  14.922   7.658
  434POPC   NC3 8927  21.673  27.753   9.570
  434POPC   PO4 8928  21.225  27.313   9.260
  434POPC   GL1 8929  21.393  27.734   9.121
  434POPC   GL2 8930  21.732  27.955   9.090
  434POPC   C1A 8931  21.462  27.749   8.685
  434POPC   D2A 8932  21.169  27.810   8.375
  434POPC   C3A 8933  21.129  27.492   8.064
  434POPC   C4A 8934  21.215  27.314   7.670
  434POPC   C1B 8935  21.857  28.059   8.632
  434POPC   C2B 8936  21.674  27.895   8.214
  434POPC   C3B 8937  21.530  27.704   7.796
  434POPC   C4B 8938  21.740  27.803   7.373
  435POPC   NC3 8939  42.913  31.437   9.370
  435POPC   PO4 8940  43.383  31.792   9.460
  435POPC   GL1 8941  43.301  31.579   9.070
  435POPC   GL2 8942  43.354  31.267   9.112
  435POPC   C1A 8943  43.139  31.500   8.621
  435POPC   D2A 8944  42.954  31.655   8.227
  435POPC   C3A 8945  42.848  31.331   7.889
  435POPC   C4A 8946  42.727  31.405   7.434
  435POPC   C1B 8947  43.557  31.237   8.733
  435POPC   C2B 8948  43.611  31.457   8.367
  435POPC   C3B 8949  43.370  31.475   7.987
  435POPC   C4B 8950  43.083  31.732   7.740
  436POPC   NC3 8951   2.606  32.177   9.718
  436POPC   PO4 8952   3.253  32.185   9.700
  436POPC   GL1 8953   2.985  32.283   9.313
  436POPC   GL2 8954   2.621  32.182   9.224
  436POPC   C1A 8955   3.002  32.088   8.890
  436POPC   D2A 8956   3.149  32.211   8.494
  436POPC   C3A 8957   2.993  32.094   8.118
  436POPC   C4A 8958   2.856  32.413   7.852
  436POPC   C1B 8959   2.501  32.008   8.851
  436POPC   C2B 8960   2.610  32.257   8.492
  436POPC   C3B 8961   2.493  32.166   8.097
  436POPC   C4B 8962   2.590  32.025   7.676
  437POPC   NC3 8963   5.129   2.231   9.617
  437POPC   PO4 8964   4.623   1.801   9.344
  437POPC   GL1 8965   5.062   1.884   9.219
  437POPC   GL2 8966   5.315   2.191   9.166
  437POPC   C1A 8967   5.200   1.857   8.806
  437POPC   D2A 8968   4.939   1.912   8.442
  437POPC   C3A 8969   4.949   1.627   8.098
  437POPC   C4A 8970   5.221   1.845   7.799
  437POPC   C1B 8971   5.033   2.334   8.860
  437POPC   C2B 8972   5.152   2.445   8.480
  437POPC   C3B 8973   5.121   2.255   8.102
  437POPC   C4B 8974   5.291   2.357   7.736
  438POPC   NC3 8975  37.955   4.656   9.748
  438POPC   PO4 8976  37.338   4.685   9.521
  438POPC   GL1 8977  37.504   4.371   9.185
  438POPC   GL2 8978  37.855   4.229   9.200
  438POPC   C1A 8979  37.560   4.214   8.747
  438POPC   D2A 8980  37.394   4.370   8.335
  438POPC   C3A 8981  37.619   4.326   7.931
  438POPC   C4A 8982  37.526   4.040   7.549
  438POPC   C1B 8983  38.060   4.234   8.772
  438POPC   C2B 8984  37.919   4.147   8.334
  438POPC   C3B 8985  38.117   4.228   7.911
  438POPC   C4B 8986  37.889   4.381   7.502
  439POPC   NC3 8987  31.398  37.852   9.570
  439POPC   PO4 8988  31.723  37.317   9.410
  439POPC   GL1 8989  31.438  37.546   9.142
  439POPC   GL2 8990  31.474  37.917   9.087
  439POPC   C1A 8991  31.440  37.514   8.717
  439POPC   D2A 8992  31.669  37.396   8.391
  439POPC   C3A 8993  31.774  37.605   8.062
  439POPC   C4A 8994  31.658  37.543   7.668
  439POPC   C1B 8995  31.229  38.031   8.753
  439POPC   C2B 8996  31.333  37.881   8.354
  439POPC   C3B 8997  31.268  37.795   7.936
  439POPC   C4B 8998  31.448  37.994   7.610
  440POPC   NC3 8999  12.623  26.809   9.504
  440POPC   PO4 9000  13.242  26.740   9.509
  440POPC   GL1 9001  13.009  26.897   9.175
  440POPC   GL2 9002  12.877  26.551   9.154
  440POPC   C1A 9003  13.066  27.106   8.767
  440POPC   D2A 9004  12.877  27.297   8.426
  440POPC   C3A 9005  13.002  27.114   8.053
  440POPC   C4A 9006  12.708  27.091   7.718
  440POPC   C1B 9007  12.783  26.699   8.774
  440POPC   C2B 9008  12.864  26.754   8.375
  440POPC   C3B 9009  12.717  26.638   7.957
  440POPC   C4B 9010  12.614  26.633   7.490
  441POPC   NC3 9011   7.503   9.712   9.581
  441POPC   PO4 9012   7.222  10.140   9.174
  441POPC   GL1 9013   7.385   9.744   9.087
  441POPC   GL2 9014   7.646   9.468   9.134
  441POPC   C1A 9015   7.574   9.774   8.690
  441POPC   D2A 9016   7.586   9.891   8.257
  441POPC   C3A 9017   7.244   9.984   8.004
  441POPC   C4A 9018   7.607   9.962   7.705
  441POPC   C1B 9019   7.348   9.328   8.800
  441POPC   C2B 9020   7.455   9.415   8.353
  441POPC   C3B 9021   7.336   9.493   7.922
  441POPC   C4B 9022   7.386   9.227   7.577
  442POPC   NC3 9023  26.108  38.826   9.524
  442POPC   PO4 9024  25.978  38.140   9.539
  442POPC   GL1 9025  25.810  38.325   9.156
  442POPC   GL2 9026  25.780  38.701   9.138
  442POPC   C1A 9027  25.989  38.371   8.739
  442POPC   D2A 9028  26.146  38.117   8.382
  442POPC   C3A 9029  26.025  38.353   8.012
  442POPC   C4A 9030  26.288  38.728   7.967
  442POPC   C1B 9031  25.950  38.900   8.767
  442POPC   C2B 9032  25.864  38.718   8.358
  442POPC   C3B 9033  25.664  38.783   7.963
  442POPC   C4B 9034  25.918  38.800   7.625
  443POPC   NC3 9035  27.636   2.144   9.550
  443POPC   PO4 9036  27.873   1.511   9.337
  443POPC   GL1 9037  27.730   1.839   9.081
  443POPC   GL2 9038  27.430   2.037   9.081
  443POPC   C1A 9039  27.845   2.119   8.743
  443POPC   D2A 9040  27.631   2.321   8.387
  443POPC   C3A 9041  27.636   2.138   7.962
  443POPC   C4A 9042  27.942   1.884   7.725
  443POPC   C1B 9043  27.386   1.832   8.680
  443POPC   C2B 9044  27.430   1.558   8.322
  443POPC   C3B 9045  27.460   1.685   7.903
  443POPC   C4B 9046  27.481   1.912   7.493
  444POPC   NC3 9047  34.814  21.766   9.501
  444POPC   PO4 9048  34.480  22.439   9.540
  444POPC   GL1 9049  34.561  22.180   9.215
  444POPC   GL2 9050  34.257  22.056   9.104
  444POPC   C1A 9051  34.675  22.404   8.857
  444POPC   D2A 9052  34.688  22.601   8.461
  444POPC   C3A 9053  34.839  22.311   8.198
  444POPC   C4A 9054  34.608  22.142   7.900
  444POPC   C1B 9055  34.519  21.913   8.756
  444POPC   C2B 9056  34.674  21.860   8.340
  444POPC   C3B 9057  34.628  21.655   7.935
  444POPC   C4B 9058  34.935  21.428   7.762
  445POPC   NC3 9059   1.631  32.000   9.593
  445POPC   PO4 9060   2.233  32.367   9.533
  445POPC   GL1 9061   2.106  32.285   9.141
  445POPC   GL2 9062   1.764  32.235   9.143
  445POPC   C1A 9063   2.200  32.415   8.757
  445POPC   D2A 9064   2.111  32.527   8.352
  445POPC   C3A 9065   1.983  32.195   8.059
  445POPC   C4A 9066   2.208  32.372   7.730
  445POPC   C1B 9067   1.706  32.326   8.692
  445POPC   C2B 9068   1.612  32.461   8.267
  445POPC   C3B 9069   1.503  32.359   7.876
  445POPC   C4B 9070   1.775  32.192   7.570
  446POPC   NC3 9071   7.117  23.556   9.537
  446POPC   PO4 9072   7.722  23.925   9.407
  446POPC   GL1 9073   7.367  23.890   9.228
  446POPC   GL2 9074   7.429  23.568   9.148
  446POPC   C1A 9075   7.317  23.999   8.829
  446POPC   D2A 9076   7.361  23.766   8.477
  446POPC   C3A 9077   7.399  23.941   8.108
  446POPC   C4A 9078   7.283  23.766   7.726
  446POPC   C1B 9079   7.527  23.338   8.815
  446POPC   C2B 9080   7.669  23.334   8.445
  446POPC   C3B 9081   7.453  23.421   8.100
  446POPC   C4B 9082   7.468  23.296   7.691
  447POPC   NC3 9083  12.363   7.538   9.518
  447POPC   PO4 9084  11.704   7.297   9.547
  447POPC   GL1 9085  11.763   7.518   9.208
  447POPC   GL2 9086  12.070   7.731   9.166
  447POPC   C1A 9087  11.894   7.330   8.857
  447POPC   D2A 9088  12.151   7.441   8.556
  447POPC   C3A 9089  11.992   7.226   8.201
  447POPC   C4A 9090  12.293   7.137   7.916
  447POPC   C1B 9091  11.889   7.868   8.824
  447POPC   C2B 9092  12.079   7.946   8.449
  447POPC   C3B 9093  12.145   7.705   8.102
  447POPC   C4B 9094  11.862   7.735   7.791
  448POPC   NC3 9095  35.968  12.645   9.492
  448POPC   PO4 9096  36.453  12.890   9.772
  448POPC   GL1 9097  36.272  13.061   9.309
  448POPC   GL2 9098  36.027  12.905   9.074
  448POPC   C1A 9099  36.401  13.137   8.847
  448POPC   D2A 9100  36.262  12.855   8.469
  448POPC   C3A 9101  36.374  13.062   8.051
  448POPC   C4A 9102  36.340  12.995   7.611
  448POPC   C1B 9103  35.832  13.093   8.744
  448POPC   C2B 9104  35.735  12.980   8.329
  448POPC   C3B 9105  35.949  12.778   8.002
  448POPC   C4B 9106  35.866  13.069   7.709
  449POPC   NC3 9107   9.645  16.070   9.819
  449POPC   PO4 9108  10.154  15.783   9.738
  449POPC   GL1 9109   9.856  15.814   9.320
  449POPC   GL2 9110   9.513  15.960   9.243
  449POPC   C1A 9111   9.844  16.075   8.881
  449POPC   D2A 9112   9.822  15.939   8.433
  449POPC   C3A 9113   9.797  16.128   8.005
  449POPC   C4A 9114   9.954  15.971   7.597
  449POPC   C1B 9115   9.526  15.682   8.833
  449POPC   C2B 9116   9.315  15.578   8.432
  449POPC   C3B 9117   9.555  15.669   7.989
  449POPC   C4B 9118   9.560  15.665   7.503
  450POPC   NC3 9119  28.914  39.714   9.373
  450POPC   PO4 9120  29.099  40.331   9.436
  450POPC   GL1 9121  29.277  40.088   9.167
  450POPC   GL2 9122  28.954  40.082   9.013
  450POPC   C1A 9123  29.371  39.891   8.783
  450POPC   D2A 9124  29.251  39.904   8.329
  450POPC   C3A 9125  29.407  40.237   8.020
  450POPC   C4A 9126  29.450  40.118   7.564
  450POPC   C1B 9127  28.836  39.854   8.679
  450POPC   C2B 9128  28.654  39.918   8.306
  450POPC   C3B 9129  28.755  39.803   7.929
  450POPC   C4B 9130  28.971  39.984   7.574
  451POPC   NC3 9131  43.382  22.800   9.671
  451POPC   PO4 9132  42.696  22.974   9.671
  451POPC   GL1 9133  43.079  23.031   9.316
  451POPC   GL2 9134  43.355  22.767   9.181
  451POPC   C1A 9135  43.067  22.975   8.822
  451POPC   D2A 9136  43.289  23.091   8.441
  451POPC   C3A 9137  43.194  22.929   8.053
  451POPC   C4A 9138  43.063  23.016   7.682
  451POPC   C1B 9139  43.223  22.502   8.827
  451POPC   C2B 9140  43.092  22.567   8.410
  451POPC   C3B 9141  43.298  22.435   8.025
  451POPC   C4B 9142  43.322  22.576   7.621
  452POPC   NC3 9143  33.582  13.496   9.502
  452POPC   PO4 9144  34.058  13.878   9.424
  452POPC   GL1 9145  33.959  13.531   9.137
  452POPC   GL2 9146  33.591  13.504   9.011
  452POPC   C1A 9147  33.987  13.419   8.717
  452POPC   D2A 9148  34.205  13.359   8.351
  452POPC   C3A 9149  33.964  13.428   8.010
  452POPC   C4A 9150  34.009  13.527   7.610
  452POPC   C1B 9151  33.742  13.876   8.784
  452POPC   C2B 9152  33.802  13.761   8.363
  452POPC   C3B 9153  33.681  13.855   7.931
  452POPC   C4B 9154  33.511  13.473   7.739
  453POPC   NC3 9155  36.217  24.774   9.409
  453POPC   PO4 9156  36.119  24.129   9.452
  453POPC   GL1 9157  35.828  24.268   9.139
  453POPC   GL2 9158  35.805  24.656   9.123
  453POPC   C1A 9159  35.889  24.180   8.680
  453POPC   D2A 9160  36.096  24.383   8.320
  453POPC   C3A 9161  36.197  24.166   7.934
  453POPC   C4A 9162  36.181  24.340   7.510
  453POPC   C1B 9163  35.949  24.755   8.721
  453POPC   C2B 9164  35.958  24.872   8.283
  453POPC   C3B 9165  36.011  24.692   7.853
  453POPC   C4B 9166  35.666  24.685   7.550
  454POPC   NC3 9167  42.007  18.353   9.451
  454POPC   PO4 9168  42.389  17.803   9.420
  454POPC   GL1 9169  42.480  18.223   9.244
  454POPC   GL2 9170  42.192  18.233   8.993
  454POPC   C1A 9171  42.632  18.469   8.904
  454POPC   D2A 9172  42.452  18.342   8.498
  454POPC   C3A 9173  42.669  18.398   8.116
  454POPC   C4A 9174  42.640  18.504   7.671
  454POPC   C1B 9175  41.888  18.501   8.768
  454POPC   C2B 9176  41.985  18.654   8.360
  454POPC   C3B 9177  42.139  18.391   8.080
  454POPC   C4B 9178  42.103  18.355   7.688
  455POPC   NC3 9179   9.030  28.810   9.278
  455POPC   PO4 9180   8.631  28.306   9.432
  455POPC   GL1 9181   8.792  28.320   9.084
  455POPC   GL2 9182   9.151  28.285   9.192
  455POPC   C1A 9183   8.681  28.059   8.759
  455POPC   D2A 9184   8.778  28.022   8.335
  455POPC   C3A 9185   8.970  28.411   8.168
  455POPC   C4A 9186   8.798  28.660   7.826
  455POPC   C1B 9187   9.168  28.258   8.732
  455POPC   C2B 9188   9.331  28.030   8.381
  455POPC   C3B 9189   9.189  27.994   7.951
  455POPC   C4B 9190   9.166  28.333   7.658
  456POPC   NC3 9191   1.063  28.607   9.479
  456POPC   PO4 9192   1.405  28.110   9.540
  456POPC   GL1 9193   1.316  28.291   9.146
  456POPC   GL2 9194   1.446  28.621   9.105
  456POPC   C1A 9195   1.099  28.391   8.758
  456POPC   D2A 9196   1.205  28.452   8.324
  456POPC   C3A 9197   1.414  28.126   8.092
  456POPC   C4A 9198   1.248  28.190   7.683
  456POPC   C1B 9199   1.596  28.490   8.700
  456POPC   C2B 9200   1.672  28.649   8.277
  456POPC   C3B 9201   1.617  28.525   7.814
  456POPC   C4B 9202   1.427  28.577   7.384
  457POPC   NC3 9203  21.320   8.317   9.567
  457POPC   PO4 9204  21.849   8.505   9.896
  457POPC   GL1 9205  21.796   8.334   9.357
  457POPC   GL2 9206  21.623   7.990   9.299
  457POPC   C1A 9207  21.699   8.178   8.863
  457POPC   D2A 9208  21.606   8.294   8.445
  457POPC   C3A 9209  21.458   8.061   8.080
  457POPC   C4A 9210  21.520   8.306   7.760
  457POPC   C1B 9211  21.226   8.099   8.937
  457POPC   C2B 9212  21.113   8.091   8.447
  457POPC   C3B 9213  20.977   8.227   7.960
  457POPC   C4B 9214  21.085   8.384   7.524
  458POPC   NC3 9215  12.016  44.030   9.510
  458POPC   PO4 9216  11.774  43.425   9.476
  458POPC   GL1 9217  11.984  43.680   9.120
  458POPC   GL2 9218  12.203  44.017   9.050
  458POPC   C1A 9219  11.960  43.730   8.698
  458POPC   D2A 9220  11.729  43.893   8.398
  458POPC   C3A 9221  11.890  43.816   8.027
  458POPC   C4A 9222  11.948  44.109   7.725
  458POPC   C1B 9223  12.462  43.912   8.713
  458POPC   C2B 9224  12.629  43.990   8.307
  458POPC   C3B 9225  12.395  43.928   7.920
  458POPC   C4B 9226  12.175  43.659   7.625
  459POPC   NC3 9227  16.054  12.528   9.427
  459POPC   PO4 9228  16.029  13.199   9.322
  459POPC   GL1 9229  15.877  12.955   9.024
  459POPC   GL2 9230  15.722  12.634   9.046
  459POPC   C1A 9231  15.859  13.059   8.609
  459POPC   D2A 9232  16.137  13.149   8.311
  459POPC   C3A 9233  15.982  13.002   7.944
  459POPC   C4A 9234  16.176  12.966   7.581
  459POPC   C1B 9235  15.997  12.551   8.725
  459POPC   C2B 9236  16.009  12.643   8.321
  459POPC   C3B 9237  16.043  12.447   7.958
  459POPC   C4B 9238  15.816  12.626   7.652
  460POPC   NC3 9239   9.938  24.764   9.169
  460POPC   PO4 9240  10.518  24.983   9.432
  460POPC   GL1 9241  10.428  24.667   9.102
  460POPC   GL2 9242  10.220  24.331   9.120
  460POPC   C1A 9243  10.332  24.647   8.653
  460POPC   D2A 9244  10.729  24.585   8.486
  460POPC   C3A 9245  10.765  24.644   8.069
  460POPC   C4A 9246  10.652  24.418   7.755
  460POPC   C1B 9247  10.475  24.183   8.758
  460POPC   C2B 9248  10.425  24.215   8.271
  460POPC   C3B 9249  10.178  24.318   7.889
  460POPC   C4B 9250  10.244  24.184   7.425
  461POPC   NC3 9251  29.531   2.004   9.562
  461POPC   PO4 9252  28.879   2.093   9.435
  461POPC   GL1 9253  29.068   2.003   9.066
  461POPC   GL2 9254  29.402   1.921   9.076
  461POPC   C1A 9255  29.155   2.254   8.726
  461POPC   D2A 9256  29.035   2.055   8.391
  461POPC   C3A 9257  29.170   2.002   8.006
  461POPC   C4A 9258  28.908   1.850   7.687
  461POPC   C1B 9259  29.384   1.806   8.660
  461POPC   C2B 9260  29.605   1.989   8.320
  461POPC   C3B 9261  29.641   1.839   7.928
  461POPC   C4B 9262  29.340   1.600   7.740
  462POPC   NC3 9263  27.425   1.442   9.215
  462POPC   PO4 9264  27.839   0.940   9.543
  462POPC   GL1 9265  27.704   1.025   9.121
  462POPC   GL2 9266  27.980   1.198   8.940
  462POPC   C1A 9267  27.574   1.108   8.667
  462POPC   D2A 9268  27.810   1.178   8.300
  462POPC   C3A 9269  27.494   1.128   8.012
  462POPC   C4A 9270  27.440   1.282   7.635
  462POPC   C1B 9271  27.854   1.568   8.650
  462POPC   C2B 9272  27.930   1.675   8.199
  462POPC   C3B 9273  27.911   1.391   7.806
  462POPC   C4B 9274  27.792   1.524   7.348
  463POPC   NC3 9275  21.974  35.845   9.542
  463POPC   PO4 9276  22.260  36.500   9.510
  463POPC   GL1 9277  22.130  36.223   9.216
  463POPC   GL2 9278  22.465  36.065   9.077
  463POPC   C1A 9279  22.029  36.034   8.832
  463POPC   D2A 9280  22.349  36.013   8.518
  463POPC   C3A 9281  22.253  36.223   8.150
  463POPC   C4A 9282  22.095  36.035   7.767
  463POPC   C1B 9283  22.729  35.810   8.784
  463POPC   C2B 9284  22.621  35.584   8.403
  463POPC   C3B 9285  22.441  35.755   8.033
  463POPC   C4B 9286  22.491  35.759   7.572
  464POPC   NC3 9287   6.799  28.255   9.459
  464POPC   PO4 9288   6.355  28.819   9.431
  464POPC   GL1 9289   6.555  28.575   9.136
  464POPC   GL2 9290   6.353  28.303   9.072
  464POPC   C1A 9291   6.939  28.692   8.877
  464POPC   D2A 9292   7.080  28.752   8.462
  464POPC   C3A 9293   6.713  28.683   8.176
  464POPC   C4A 9294   6.757  28.692   7.719
  464POPC   C1B 9295   6.746  28.226   8.804
  464POPC   C2B 9296   6.896  28.249   8.386
  464POPC   C3B 9297   6.797  28.216   7.964
  464POPC   C4B 9298   6.686  28.241   7.500
  465POPC   NC3 9299  41.126  22.138   9.497
  465POPC   PO4 9300  40.438  21.934   9.523
  465POPC   GL1 9301  40.693  21.960   9.156
  465POPC   GL2 9302  41.023  21.809   9.134
  465POPC   C1A 9303  40.606  21.811   8.744
  465POPC   D2A 9304  40.456  22.074   8.396
  465POPC   C3A 9305  40.548  21.999   7.981
  465POPC   C4A 9306  40.659  22.180   7.575
  465POPC   C1B 9307  41.040  22.074   8.762
  465POPC   C2B 9308  40.945  21.903   8.343
  465POPC   C3B 9309  41.036  22.041   7.908
  465POPC   C4B 9310  41.088  21.948   7.470
  466POPC   NC3 9311  30.711   3.229   9.600
  466POPC   PO4 9312  30.784   2.619   9.477
  466POPC   GL1 9313  30.636   2.912   9.192
  466POPC   GL2 9314  30.972   3.067   9.167
  466POPC   C1A 9315  30.331   2.917   8.837
  466POPC   D2A 9316  30.185   2.625   8.487
  466POPC   C3A 9317  30.346   2.682   8.044
  466POPC   C4A 9318  30.762   2.533   7.853
  466POPC   C1B 9319  30.828   3.145   8.742
  466POPC   C2B 9320  30.559   3.026   8.392
  466POPC   C3B 9321  30.740   3.018   8.013
  466POPC   C4B 9322  30.796   3.295   7.736
  467POPC   NC3 9323  20.833  18.176   9.506
  467POPC   PO4 9324  20.345  18.536   9.726
  467POPC   GL1 9325  20.472  18.388   9.237
  467POPC   GL2 9326  20.506  18.042   9.073
  467POPC   C1A 9327  20.477  18.433   8.763
  467POPC   D2A 9328  20.527  18.075   8.502
  467POPC   C3A 9329  20.540  18.141   8.102
  467POPC   C4A 9330  20.524  18.435   7.796
  467POPC   C1B 9331  20.911  18.158   8.815
  467POPC   C2B 9332  21.074  18.117   8.357
  467POPC   C3B 9333  20.986  18.076   7.879
  467POPC   C4B 9334  21.054  17.963   7.426
  468POPC   NC3 9335  11.637  31.358   9.677
  468POPC   PO4 9336  10.971  31.434   9.608
  468POPC   GL1 9337  11.301  31.364   9.284
  468POPC   GL2 9338  11.055  31.487   9.091
  468POPC   C1A 9339  11.464  31.400   8.833
  468POPC   D2A 9340  11.522  31.638   8.470
  468POPC   C3A 9341  11.526  31.440   8.088
  468POPC   C4A 9342  11.307  31.631   7.764
  468POPC   C1B 9343  10.946  31.398   8.667
  468POPC   C2B 9344  11.057  31.488   8.281
  468POPC   C3B 9345  10.936  31.349   7.928
  468POPC   C4B 9346  10.938  31.299   7.482
  469POPC   NC3 9347  12.948  43.361   9.527
  469POPC   PO4 9348  12.419  43.769   9.425
  469POPC   GL1 9349  12.703  43.610   9.138
  469POPC   GL2 9350  13.011  43.830   9.151
  469POPC   C1A 9351  12.864  43.581   8.738
  469POPC   D2A 9352  12.779  43.494   8.330
  469POPC   C3A 9353  12.870  43.713   7.944
  469POPC   C4A 9354  12.671  43.771   7.526
  469POPC   C1B 9355  12.952  44.069   8.732
  469POPC   C2B 9356  13.150  43.851   8.394
  469POPC   C3B 9357  13.378  43.745   8.047
  469POPC   C4B 9358  13.236  43.993   7.698
  470POPC   NC3 9359  33.026  23.304   9.185
  470POPC   PO4 9360  32.975  23.656   9.771
  470POPC   GL1 9361  32.868  23.832   9.330
  470POPC   GL2 9362  32.638  23.646   9.055
  470POPC   C1A 9363  33.021  23.953   8.911
  470POPC   D2A 9364  32.943  24.034   8.461
  470POPC   C3A 9365  32.822  23.682   8.150
  470POPC   C4A 9366  32.940  23.852   7.764
  470POPC   C1B 9367  32.911  23.558   8.634
  470POPC   C2B 9368  33.200  23.297   8.384
  470POPC   C3B 9369  33.359  23.299   7.967
  470POPC   C4B 9370  33.139  23.382   7.615
  471POPC   NC3 9371  16.453  14.663   9.605
  471POPC   PO4 9372  17.048  14.371   9.609
  471POPC   GL1 9373  16.802  14.448   9.257
  471POPC   GL2 9374  17.089  14.467   9.060
  471POPC   C1A 9375  16.615  14.313   8.843
  471POPC   D2A 9376  16.824  14.381   8.424
  471POPC   C3A 9377  16.599  14.305   8.035
  471POPC   C4A 9378  16.476  14.484   7.659
  471POPC   C1B 9379  17.225  14.618   8.651
  471POPC   C2B 9380  17.178  14.707   8.203
  471POPC   C3B 9381  17.024  14.502   7.824
  471POPC   C4B 9382  16.900  14.607   7.400
  472POPC   NC3 9383  12.426  40.716   9.459
  472POPC   PO4 9384  11.860  40.445   9.293
  472POPC   GL1 9385  12.128  40.577   9.055
  472POPC   GL2 9386  12.090  40.938   9.157
  472POPC   C1A 9387  12.346  40.463   8.666
  472POPC   D2A 9388  12.434  40.760   8.357
  472POPC   C3A 9389  12.453  40.639   7.953
  472POPC   C4A 9390  12.160  40.422   7.673
  472POPC   C1B 9391  12.157  40.956   8.737
  472POPC   C2B 9392  11.956  41.042   8.371
  472POPC   C3B 9393  11.863  40.741   8.070
  472POPC   C4B 9394  12.075  40.923   7.764
  473POPC   NC3 9395  30.018  34.497   9.574
  473POPC   PO4 9396  30.310  35.046   9.397
  473POPC   GL1 9397  30.092  34.830   9.072
  473POPC   GL2 9398  29.905  34.498   9.084
  473POPC   C1A 9399  29.739  34.900   8.798
  473POPC   D2A 9400  29.661  34.791   8.390
  473POPC   C3A 9401  30.021  34.922   8.176
  473POPC   C4A 9402  30.124  34.868   7.760
  473POPC   C1B 9403  29.906  34.407   8.636
  473POPC   C2B 9404  29.992  34.170   8.207
  473POPC   C3B 9405  30.062  34.343   7.789
  473POPC   C4B 9406  29.776  34.407   7.436
  474POPC   NC3 9407   8.204  19.323   9.482
  474POPC   PO4 9408   7.781  18.802   9.626
  474POPC   GL1 9409   7.931  18.920   9.194
  474POPC   GL2 9410   8.304  18.938   9.150
  474POPC   C1A 9411   8.006  18.838   8.738
  474POPC   D2A 9412   8.235  19.011   8.375
  474POPC   C3A 9413   8.253  18.753   8.028
  474POPC   C4A 9414   7.905  18.814   7.784
  474POPC   C1B 9415   8.272  19.290   8.819
  474POPC   C2B 9416   8.445  19.468   8.429
  474POPC   C3B 9417   8.567  19.293   8.020
  474POPC   C4B 9418   8.314  19.122   7.679
  475POPC   NC3 9419   9.948   0.311   9.581
  475POPC   PO4 9420  10.364   0.857   9.519
  475POPC   GL1 9421  10.163   0.558   9.185
  475POPC   GL2 9422   9.810   0.559   9.140
  475POPC   C1A 9423  10.094   0.273   8.814
  475POPC   D2A 9424   9.887   0.245   8.385
  475POPC   C3A 9425  10.032   0.544   8.026
  475POPC   C4A 9426  10.141   0.647   7.581
  475POPC   C1B 9427   9.547   0.339   8.828
  475POPC   C2B 9428   9.395   0.409   8.410
  475POPC   C3B 9429   9.544   0.343   8.016
  475POPC   C4B 9430   9.640   0.577   7.665
  476POPC   NC3 9431  40.106  20.694   9.565
  476POPC   PO4 9432  40.291  20.127   9.284
  476POPC   GL1 9433  40.068  20.492   9.111
  476POPC   GL2 9434  40.227  20.873   9.110
  476POPC   C1A 9435  39.800  20.661   8.831
  476POPC   D2A 9436  39.549  20.602   8.487
  476POPC   C3A 9437  39.878  20.571   8.166
  476POPC   C4A 9438  40.062  20.503   7.753
  476POPC   C1B 9439  40.153  21.004   8.704
  476POPC   C2B 9440  40.285  20.917   8.337
  476POPC   C3B 9441  40.101  20.997   7.979
  476POPC   C4B 9442  40.192  20.989   7.600
  477POPC   NC3 9443  14.803  15.966   9.552
  477POPC   PO4 9444  14.175  15.654   9.545
  477POPC   GL1 9445  14.213  15.895   9.177
  477POPC   GL2 9446  14.515  16.084   9.154
  477POPC   C1A 9447  14.234  15.765   8.781
  477POPC   D2A 9448  14.028  15.796   8.392
  477POPC   C3A 9449  14.286  15.646   8.084
  477POPC   C4A 9450  14.503  15.740   7.693
  477POPC   C1B 9451  14.378  16.262   8.787
  477POPC   C2B 9452  14.464  16.059   8.438
  477POPC   C3B 9453  14.581  16.090   8.059
  477POPC   C4B 9454  14.814  16.155   7.709
  478POPC   NC3 9455   6.471   3.671   9.702
  478POPC   PO4 9456   7.107   3.965   9.561
  478POPC   GL1 9457   6.889   3.901   9.203
  478POPC   GL2 9458   7.046   3.617   9.096
  478POPC   C1A 9459   6.883   3.957   8.757
  478POPC   D2A 9460   6.525   3.899   8.477
  478POPC   C3A 9461   6.671   3.763   8.091
  478POPC   C4A 9462   6.628   3.393   7.881
  478POPC   C1B 9463   6.769   3.457   8.736
  478POPC   C2B 9464   6.420   3.379   8.431
  478POPC   C3B 9465   6.133   3.204   8.144
  478POPC   C4B 9466   6.189   3.197   7.741
  479POPC   NC3 9467  36.196  12.007   9.549
  479POPC   PO4 9468  36.364  12.564   9.272
  479POPC   GL1 9469  36.003  12.288   9.141
  479POPC   GL2 9470  35.894  11.915   9.160
  479POPC   C1A 9471  36.005  12.216   8.735
  479POPC   D2A 9472  35.973  12.005   8.359
  479POPC   C3A 9473  36.223  12.306   8.156
  479POPC   C4A 9474  36.318  12.486   7.740
  479POPC   C1B 9475  36.027  11.718   8.788
  479POPC   C2B 9476  36.407  11.761   8.554
  479POPC   C3B 9477  36.459  11.717   8.118
  479POPC   C4B 9478  36.280  11.954   7.784
  480POPC   NC3 9479  28.031  27.184   9.474
  480POPC   PO4 9480  28.632  26.863   9.472
  480POPC   GL1 9481  28.572  26.674   9.054
  480POPC   GL2 9482  28.206  26.660   9.074
  480POPC   C1A 9483  28.780  26.577   8.649
  480POPC   D2A 9484  28.538  26.640   8.264
  480POPC   C3A 9485  28.449  27.017   8.068
  480POPC   C4A 9486  28.646  26.829   7.732
  480POPC   C1B 9487  28.294  26.870   8.667
  480POPC   C2B 9488  28.061  26.706   8.311
  480POPC   C3B 9489  28.132  26.678   7.861
  480POPC   C4B 9490  27.955  26.935   7.541
  481POPC   NC3 9491   8.827   4.897   9.607
  481POPC   PO4 9492   9.068   5.509   9.414
  481POPC   GL1 9493   8.797   5.228   9.186
  481POPC   GL2 9494   9.042   4.972   9.139
  481POPC   C1A 9495   8.676   5.066   8.768
  481POPC   D2A 9496   8.904   4.940   8.356
  481POPC   C3A 9497   8.732   5.085   7.950
  481POPC   C4A 9498   8.826   5.113   7.507
  481POPC   C1B 9499   9.220   4.819   8.738
  481POPC   C2B 9500   9.411   4.659   8.336
  481POPC   C3B 9501   9.227   4.840   7.963
  481POPC   C4B 9502   9.274   5.220   7.738
  482POPC   NC3 9503  33.331  39.965   9.416
  482POPC   PO4 9504  32.728  40.251   9.322
  482POPC   GL1 9505  33.041  40.152   9.025
  482POPC   GL2 9506  33.402  40.211   9.000
  482POPC   C1A 9507  33.026  40.138   8.602
  482POPC   D2A 9508  32.796  39.989   8.271
  482POPC   C3A 9509  32.951  40.184   7.873
  482POPC   C4A 9510  33.118  40.148   7.427
  482POPC   C1B 9511  33.458  39.872   8.702
  482POPC   C2B 9512  33.278  39.804   8.274
  482POPC   C3B 9513  33.320  39.810   7.817
  482POPC   C4B 9514  33.356  39.578   7.390
  483POPC   NC3 9515  18.176   5.835   9.808
  483POPC   PO4 9516  18.573   5.497   9.372
  483POPC   GL1 9517  18.491   5.822   9.082
  483POPC   GL2 9518  18.123   6.044   9.123
  483POPC   C1A 9519  18.415   5.913   8.702
  483POPC   D2A 9520  18.628   5.932   8.358
  483POPC   C3A 9521  18.396   5.919   8.028
  483POPC   C4A 9522  18.294   5.599   7.740
  483POPC   C1B 9523  17.925   6.117   8.762
  483POPC   C2B 9524  18.011   5.989   8.367
  483POPC   C3B 9525  17.884   5.841   7.971
  483POPC   C4B 9526  17.807   6.134   7.698
  484POPC   NC3 9527  21.913  18.980   9.622
  484POPC   PO4 9528  21.264  18.817   9.500
  484POPC   GL1 9529  21.368  18.953   9.144
  484POPC   GL2 9530  21.078  19.119   9.045
  484POPC   C1A 9531  21.473  18.812   8.777
  484POPC   D2A 9532  21.326  18.712   8.417
  484POPC   C3A 9533  21.415  18.988   8.093
  484POPC   C4A 9534  21.339  19.427   7.988
  484POPC   C1B 9535  21.052  19.115   8.607
  484POPC   C2B 9536  20.905  19.032   8.205
  484POPC   C3B 9537  21.013  19.034   7.778
  484POPC   C4B 9538  21.091  19.358   7.486
  485POPC   NC3 9539   0.518  40.843   9.667
  485POPC   PO4 9540   0.361  40.198   9.596
  485POPC   GL1 9541   0.294  40.567   9.229
  485POPC   GL2 9542   0.190  40.922   9.274
  485POPC   C1A 9543   0.425  40.806   8.811
  485POPC   D2A 9544   0.618  40.958   8.388
  485POPC   C3A 9545   0.554  40.882   7.922
  485POPC   C4A 9546   0.650  41.038   7.441
  485POPC   C1B 9547  44.960  41.015   8.862
  485POPC   C2B 9548   0.133  41.106   8.431
  485POPC   C3B 9549   0.010  40.988   7.988
  485POPC   C4B 9550   0.179  40.903   7.578
  486POPC   NC3 9551  34.823  33.128   9.392
  486POPC   PO4 9552  34.143  32.914   9.480
  486POPC   GL1 9553  34.443  32.942   9.106
  486POPC   GL2 9554  34.466  33.332   9.107
  486POPC   C1A 9555  34.788  33.021   8.735
  486POPC   D2A 9556  34.963  33.145   8.285
  486POPC   C3A 9557  34.758  32.979   7.904
  486POPC   C4A 9558  34.318  32.893   7.819
  486POPC   C1B 9559  34.329  33.221   8.698
  486POPC   C2B 9560  34.410  33.113   8.291
  486POPC   C3B 9561  34.446  33.377   7.964
  486POPC   C4B 9562  34.341  33.326   7.558
  487POPC   NC3 9563  38.265  35.753   9.563
  487POPC   PO4 9564  38.801  36.163   9.515
  487POPC   GL1 9565  38.552  36.045   9.172
  487POPC   GL2 9566  38.459  36.406   9.171
  487POPC   C1A 9567  38.266  36.115   8.797
  487POPC   D2A 9568  38.031  35.999   8.402
  487POPC   C3A 9569  38.298  36.128   8.058
  487POPC   C4A 9570  38.552  36.026   7.695
  487POPC   C1B 9571  38.505  36.567   8.744
  487POPC   C2B 9572  38.617  36.445   8.334
  487POPC   C3B 9573  38.502  36.584   7.927
  487POPC   C4B 9574  38.476  36.530   7.501
  488POPC   NC3 9575   4.625  25.427   9.602
  488POPC   PO4 9576   4.522  26.145   9.529
  488POPC   GL1 9577   4.455  25.968   9.172
  488POPC   GL2 9578   4.753  25.728   9.149
  488POPC   C1A 9579   4.186  26.041   8.806
  488POPC   D2A 9580   4.063  26.260   8.424
  488POPC   C3A 9581   4.103  26.053   8.049
  488POPC   C4A 9582   3.971  26.032   7.631
  488POPC   C1B 9583   4.699  25.924   8.744
  488POPC   C2B 9584   4.514  26.037   8.385
  488POPC   C3B 9585   4.601  26.149   7.981
  488POPC   C4B 9586   4.454  25.878   7.691
  489POPC   NC3 9587  34.117  20.009   9.457
  489POPC   PO4 9588  34.755  19.710   9.580
  489POPC   GL1 9589  34.685  19.907   9.199
  489POPC   GL2 9590  34.778  20.240   9.147
  489POPC   C1A 9591  34.841  19.856   8.779
  489POPC   D2A 9592  34.592  19.670   8.468
  489POPC   C3A 9593  34.690  19.827   8.075
  489POPC   C4A 9594  34.563  19.613   7.723
  489POPC   C1B 9595  34.414  20.193   8.867
  489POPC   C2B 9596  34.466  20.271   8.444
  489POPC   C3B 9597  34.293  20.240   8.050
  489POPC   C4B 9598  34.499  20.160   7.711
  490POPC   NC3 9599  41.000   2.083   9.423
  490POPC   PO4 9600  40.345   2.016   9.558
  490POPC   GL1 9601  40.592   1.892   9.158
  490POPC   GL2 9602  40.924   1.667   9.133
  490POPC   C1A 9603  40.766   1.933   8.732
  490POPC   D2A 9604  41.042   2.119   8.439
  490POPC   C3A 9605  40.881   2.001   8.028
  490POPC   C4A 9606  40.598   1.823   7.714
  490POPC   C1B 9607  41.215   1.707   8.753
  490POPC   C2B 9608  41.179   1.633   8.308
  490POPC   C3B 9609  41.275   1.710   7.879
  490POPC   C4B 9610  41.052   1.877   7.508
  491POPC   NC3 9611  36.863  16.926   9.348
  491POPC   PO4 9612  36.563  16.265   9.476
  491POPC   GL1 9613  36.710  16.494   9.115
  491POPC   GL2 9614  37.044  16.431   9.127
  491POPC   C1A 9615  36.875  16.700   8.727
  491POPC   D2A 9616  36.957  16.577   8.327
  491POPC   C3A 9617  36.802  16.818   7.985
  491POPC   C4A 9618  37.133  16.921   7.744
  491POPC   C1B 9619  37.134  16.201   8.718
  491POPC   C2B 9620  37.330  16.211   8.295
  491POPC   C3B 9621  37.223  16.428   7.894
  491POPC   C4B 9622  37.162  16.412   7.440
  492POPC   NC3 9623  13.526  28.320   9.480
  492POPC   PO4 9624  13.967  28.875   9.407
  492POPC   GL1 9625  13.719  28.595   9.092
  492POPC   GL2 9626  13.324  28.556   9.077
  492POPC   C1A 9627  13.663  28.337   8.697
  492POPC   D2A 9628  13.848  28.174   8.273
  492POPC   C3A 9629  13.715  28.224   7.802
  492POPC   C4A 9630  13.616  28.070   7.344
  492POPC   C1B 9631  13.257  28.679   8.654
  492POPC   C2B 9632  13.497  28.569   8.276
  492POPC   C3B 9633  13.465  28.658   7.864
  492POPC   C4B 9634  13.307  28.436   7.519
  493POPC   NC3 9635  39.654   6.472   9.195
  493POPC   PO4 9636  40.186   6.797   9.345
  493POPC   GL1 9637  40.079   6.695   8.974
  493POPC   GL2 9638  39.795   6.911   9.009
  493POPC   C1A 9639  40.298   6.648   8.587
  493POPC   D2A 9640  40.322   6.647   8.120
  493POPC   C3A 9641  39.971   6.419   7.984
  493POPC   C4A 9642  39.584   6.587   7.914
  493POPC   C1B 9643  39.963   7.041   8.628
  493POPC   C2B 9644  39.871   6.806   8.309
  493POPC   C3B 9645  39.932   6.951   7.923
  493POPC   C4B 9646  39.714   7.230   7.710
  494POPC   NC3 9647  20.405   3.720   9.767
  494POPC   PO4 9648  20.988   3.464   9.519
  494POPC   GL1 9649  20.680   3.783   9.272
  494POPC   GL2 9650  20.283   3.710   9.215
  494POPC   C1A 9651  20.592   3.803   8.809
  494POPC   D2A 9652  20.714   3.557   8.442
  494POPC   C3A 9653  20.962   3.665   8.071
  494POPC   C4A 9654  21.010   3.383   7.716
  494POPC   C1B 9655  20.162   3.511   8.798
  494POPC   C2B 9656  20.226   3.680   8.370
  494POPC   C3B 9657  20.466   3.712   8.007
  494POPC   C4B 9658  20.556   3.580   7.570
  495POPC   NC3 9659  31.515  20.181   9.321
  495POPC   PO4 9660  31.513  19.590   9.714
  495POPC   GL1 9661  31.324  19.550   9.229
  495POPC   GL2 9662  31.151  19.872   9.144
  495POPC   C1A 9663  31.333  19.685   8.733
  495POPC   D2A 9664  31.233  19.849   8.330
  495POPC   C3A 9665  31.579  19.935   8.035
  495POPC   C4A 9666  31.680  19.619   7.729
  495POPC   C1B 9667  31.099  20.175   8.773
  495POPC   C2B 9668  30.896  20.225   8.343
  495POPC   C3B 9669  31.079  20.115   7.918
  495POPC   C4B 9670  31.360  19.998   7.577
  496POPC   NC3 9671  37.773   9.488   9.440
  496POPC   PO4 9672  37.654  10.164   9.438
  496POPC   GL1 9673  37.721   9.892   9.110
  496POPC   GL2 9674  37.452   9.710   9.104
  496POPC   C1A 9675  37.817   9.926   8.672
  496POPC   D2A 9676  37.966   9.697   8.321
  496POPC   C3A 9677  37.737   9.703   7.942
  496POPC   C4A 9678  37.598   9.791   7.491
  496POPC   C1B 9679  37.230   9.582   8.788
  496POPC   C2B 9680  37.087   9.599   8.379
  496POPC   C3B 9681  37.239   9.471   8.001
  496POPC   C4B 9682  37.152   9.583   7.605
  497POPC   NC3 9683  44.754   5.052   9.550
  497POPC   PO4 9684  44.093   5.080   9.552
  497POPC   GL1 9685  44.453   5.264   9.205
  497POPC   GL2 9686  44.837   5.228   9.094
  497POPC   C1A 9687  44.490   5.369   8.745
  497POPC   D2A 9688  44.269   5.113   8.426
  497POPC   C3A 9689  44.270   5.030   7.978
  497POPC   C4A 9690  44.524   5.359   7.697
  497POPC   C1B 9691  44.894   4.985   8.740
  497POPC   C2B 9692   0.018   5.050   8.322
  497POPC   C3B 9693  44.764   5.021   7.969
  497POPC   C4B 9694  44.742   4.902   7.508
  498POPC   NC3 9695  29.572  11.247   9.366
  498POPC   PO4 9696  30.127  11.603   9.443
  498POPC   GL1 9697  30.051  11.263   9.173
  498POPC   GL2 9698  29.835  11.485   9.018
  498POPC   C1A 9699  29.874  11.033   8.802
  498POPC   D2A 9700  30.077  10.991   8.447
  498POPC   C3A 9701  29.882  10.993   8.055
  498POPC   C4A 9702  30.043  11.088   7.662
  498POPC   C1B 9703  30.115  11.472   8.690
  498POPC   C2B 9704  29.857  11.435   8.354
  498POPC   C3B 9705  29.878  11.486   7.935
  498POPC   C4B 9706  29.509  11.350   7.786
  499POPC   NC3 9707  44.274   0.351   9.418
  499POPC   PO4 9708  43.832   0.801   9.453
  499POPC   GL1 9709  43.780   0.465   9.125
  499POPC   GL2 9710  43.943   0.154   9.080
  499POPC   C1A 9711  43.538   0.244   8.789
  499POPC   D2A 9712  43.382   0.179   8.370
  499POPC   C3A 9713  43.712   0.275   8.093
  499POPC   C4A 9714  43.779   0.549   7.802
  499POPC   C1B 9715  44.046   0.428   8.688
  499POPC   C2B 9716  44.117   0.602   8.251
  499POPC   C3B 9717  44.251   0.737   7.820
  499POPC   C4B 9718  44.183   0.415   7.479
  500POPC   NC3 9719  17.311  24.324   9.573
  500POPC   PO4 9720  17.329  25.021   9.602
  500POPC   GL1 9721  17.192  24.742   9.268
  500POPC   GL2 9722  17.556  24.683   9.229
  500POPC   C1A 9723  17.212  24.485   8.885
  500POPC   D2A 9724  17.471  24.446   8.494
  500POPC   C3A 9725  17.330  24.322   8.066
  500POPC   C4A 9726  17.546  24.296   7.647
  500POPC   C1B 9727  17.721  24.767   8.820
  500POPC   C2B 9728  17.910  24.701   8.392
  500POPC   C3B 9729  17.805  24.545   7.996
  500POPC   C4B 9730  17.833  24.683   7.520
  501POPC   NC3 9731  20.956  25.846   9.678
  501POPC   PO4 9732  21.387  26.356   9.504
  501POPC   GL1 9733  21.449  26.057   9.127
  501POPC   GL2 9734  21.731  25.770   9.148
  501POPC   C1A 9735  21.262  26.087   8.692
  501POPC   D2A 9736  21.064  26.065   8.304
  501POPC   C3A 9737  21.330  26.108   7.971
  501POPC   C4A 9738  21.199  26.364   7.618
  501POPC   C1B 9739  21.503  25.622   8.804
  501POPC   C2B 9740  21.146  25.614   8.530
  501POPC   C3B 9741  21.237  25.627   8.069
  501POPC   C4B 9742  21.475  25.630   7.674
  502POPC   NC3 9743  43.534  27.333   9.600
  502POPC   PO4 9744  43.880  27.905   9.671
  502POPC   GL1 9745  43.908  27.625   9.247
  502POPC   GL2 9746  43.711  27.299   9.130
  502POPC   C1A 9747  44.080  27.521   8.785
  502POPC   D2A 9748  44.104  27.274   8.358
  502POPC   C3A 9749  44.074  27.489   7.929
  502POPC   C4A 9750  44.244  27.761   7.573
  502POPC   C1B 9751  43.686  27.159   8.714
  502POPC   C2B 9752  43.528  27.249   8.315
  502POPC   C3B 9753  43.554  27.300   7.888
  502POPC   C4B 9754  43.411  27.684   7.703
  503POPC   NC3 9755  10.785   3.271   9.362
  503POPC   PO4 9756  11.412   3.512   9.620
  503POPC   GL1 9757  11.584   3.523   9.217
  503POPC   GL2 9758  11.672   3.186   9.316
  503POPC   C1A 9759  11.393   3.516   8.772
  503POPC   D2A 9760  11.143   3.653   8.347
  503POPC   C3A 9761  11.093   3.615   7.853
  503POPC   C4A 9762  11.176   3.401   7.419
  503POPC   C1B 9763  11.779   3.175   8.905
  503POPC   C2B 9764  11.774   3.314   8.496
  503POPC   C3B 9765  11.483   3.283   8.156
  503POPC   C4B 9766  11.562   3.412   7.748
  504POPC   NC3 9767  38.720   9.355   9.473
  504POPC   PO4 9768  38.369   8.756   9.500
  504POPC   GL1 9769  38.711   8.882   9.221
  504POPC   GL2 9770  38.457   9.133   9.106
  504POPC   C1A 9771  38.810   9.005   8.781
  504POPC   D2A 9772  38.520   9.065   8.395
  504POPC   C3A 9773  38.469   8.814   8.012
  504POPC   C4A 9774  38.702   8.832   7.627
  504POPC   C1B 9775  38.278   9.312   8.763
  504POPC   C2B 9776  38.029   9.197   8.419
  504POPC   C3B 9777  38.142   9.267   8.002
  504POPC   C4B 9778  38.035   9.008   7.673
  505POPC   NC3 9779  39.396  16.621   9.507
  505POPC   PO4 9780  38.753  16.733   9.550
  505POPC   GL1 9781  38.868  16.896   9.156
  505POPC   GL2 9782  39.213  17.035   9.206
  505POPC   C1A 9783  39.000  16.754   8.739
  505POPC   D2A 9784  39.218  16.875   8.347
  505POPC   C3A 9785  39.293  16.580   8.022
  505POPC   C4A 9786  38.994  16.503   7.744
  505POPC   C1B 9787  39.215  17.228   8.794
  505POPC   C2B 9788  39.560  17.218   8.506
  505POPC   C3B 9789  39.567  17.206   8.063
  505POPC   C4B 9790  39.323  16.993   7.744
  506POPC   NC3 9791  40.251  27.856   9.457
  506POPC   PO4 9792  39.774  27.363   9.475
  506POPC   GL1 9793  39.858  27.648   9.149
  506POPC   GL2 9794  39.793  27.991   9.228
  506POPC   C1A 9795  40.132  27.748   8.794
  506POPC   D2A 9796  40.374  27.683   8.439
  506POPC   C3A 9797  40.237  27.818   8.055
  506POPC   C4A 9798  40.023  27.561   7.734
  506POPC   C1B 9799  39.667  27.974   8.809
  506POPC   C2B 9800  39.743  27.725   8.433
  506POPC   C3B 9801  39.677  27.853   8.031
  506POPC   C4B 9802  39.923  28.074   7.750
  507POPC   NC3 9803  36.737  12.579   9.574
  507POPC   PO4 9804  37.048  13.184   9.655
  507POPC   GL1 9805  37.078  12.910   9.303
  507POPC   GL2 9806  36.746  12.917   9.195
  507POPC   C1A 9807  37.237  12.798   8.895
  507POPC   D2A 9808  37.258  12.978   8.484
  507POPC   C3A 9809  37.214  12.733   8.143
  507POPC   C4A 9810  37.206  12.806   7.760
  507POPC   C1B 9811  36.737  12.744   8.760
  507POPC   C2B 9812  36.766  12.876   8.344
  507POPC   C3B 9813  36.735  12.667   7.956
  507POPC   C4B 9814  36.721  12.690   7.492
  508POPC   NC3 9815   3.522  31.930   9.402
  508POPC   PO4 9816   3.455  32.584   9.402
  508POPC   GL1 9817   3.423  32.362   9.039
  508POPC   GL2 9818   3.736  32.279   9.066
  508POPC   C1A 9819   3.507  31.974   8.757
  508POPC   D2A 9820   3.362  31.760   8.413
  508POPC   C3A 9821   3.507  32.023   8.081
  508POPC   C4A 9822   3.331  32.231   7.748
  508POPC   C1B 9823   3.843  32.377   8.634
  508POPC   C2B 9824   3.904  32.403   8.206
  508POPC   C3B 9825   4.035  32.117   7.958
  508POPC   C4B 9826   3.789  32.017   7.637
  509POPC   NC3 9827   1.283  37.043   9.842
  509POPC   PO4 9828   1.761  36.916   9.396
  509POPC   GL1 9829   1.679  37.094   8.995
  509POPC   GL2 9830   1.379  37.255   9.076
  509POPC   C1A 9831   1.519  37.116   8.561
  509POPC   D2A 9832   1.501  36.810   8.211
  509POPC   C3A 9833   1.559  36.972   7.786
  509POPC   C4A 9834   1.718  36.833   7.380
  509POPC   C1B 9835   1.060  37.052   8.797
  509POPC   C2B 9836   1.026  36.991   8.329
  509POPC   C3B 9837   1.044  37.028   7.871
  509POPC   C4B 9838   0.800  37.222   7.471
  510POPC   NC3 9839   2.410   6.452   9.236
  510POPC   PO4 9840   1.808   6.741   9.520
  510POPC   GL1 9841   1.897   6.680   9.097
  510POPC   GL2 9842   1.861   7.017   8.958
  510POPC   C1A 9843   2.073   6.612   8.688
  510POPC   D2A 9844   2.121   6.740   8.258
  510POPC   C3A 9845   2.272   6.489   7.952
  510POPC   C4A 9846   2.379   6.455   7.540
  510POPC   C1B 9847   1.731   6.959   8.534
  510POPC   C2B 9848   1.674   6.923   8.105
  510POPC   C3B 9849   1.855   6.780   7.708
  510POPC   C4B 9850   1.650   6.851   7.292
  511POPC   NC3 9851  33.293  17.179   9.541
  511POPC   PO4 9852  33.036  17.799   9.529
  511POPC   GL1 9853  33.013  17.541   9.187
  511POPC   GL2 9854  32.763  17.282   9.147
  511POPC   C1A 9855  33.030  17.619   8.766
  511POPC   D2A 9856  33.255  17.447   8.448
  511POPC   C3A 9857  33.011  17.483   8.081
  511POPC   C4A 9858  32.985  17.704   7.707
  511POPC   C1B 9859  33.112  17.117   8.858
  511POPC   C2B 9860  33.039  16.979   8.408
  511POPC   C3B 9861  33.301  17.055   8.064
  511POPC   C4B 9862  33.221  17.267   7.672
  512POPC   NC3 9863  15.771   5.627   9.533
  512POPC   PO4 9864  16.226   6.038   9.760
  512POPC   GL1 9865  16.009   6.096   9.381
  512POPC   GL2 9866  16.315   6.009   9.222
  512POPC   C1A 9867  15.897   6.013   8.931
  512POPC   D2A 9868  16.044   5.801   8.571
  512POPC   C3A 9869  15.877   5.872   8.169
  512POPC   C4A 9870  15.782   5.573   7.844
  512POPC   C1B 9871  16.406   6.135   8.775
  512POPC   C2B 9872  16.406   6.075   8.312
  512POPC   C3B 9873  16.177   6.229   7.957
  512POPC   C4B 9874  16.118   5.923   7.674
  513POPC   NC3 9875  10.462  14.538   9.947
  513POPC   PO4 9876  10.586  14.283   9.362
  513POPC   GL1 9877  10.217  14.385   9.170
  513POPC   GL2 9878  10.416  14.630   9.007
  513POPC   C1A 9879  10.171  14.257   8.764
  513POPC   D2A 9880  10.396  14.501   8.466
  513POPC   C3A 9881  10.296  14.304   8.082
  513POPC   C4A 9882  10.437  14.470   7.702
  513POPC   C1B 9883  10.761  14.762   8.763
  513POPC   C2B 9884  11.012  14.627   8.439
  513POPC   C3B 9885  10.782  14.604   8.073
  513POPC   C4B 9886  10.854  14.799   7.686
  514POPC   NC3 9887  34.927  25.832   9.391
  514POPC   PO4 9888  34.480  26.324   9.565
  514POPC   GL1 9889  34.456  26.084   9.220
  514POPC   GL2 9890  34.132  26.212   9.142
  514POPC   C1A 9891  34.443  25.885   8.798
  514POPC   D2A 9892  34.625  25.916   8.372
  514POPC   C3A 9893  34.437  25.829   7.948
  514POPC   C4A 9894  34.699  25.901   7.564
  514POPC   C1B 9895  34.012  26.165   8.725
  514POPC   C2B 9896  34.142  26.129   8.310
  514POPC   C3B 9897  34.007  26.187   7.909
  514POPC   C4B 9898  34.299  26.208   7.593
  515POPC   NC3 9899   6.924  37.962   9.517
  515POPC   PO4 9900   6.360  37.492   9.558
  515POPC   GL1 9901   6.562  37.687   9.269
  515POPC   GL2 9902   6.252  37.708   9.100
  515POPC   C1A 9903   6.687  37.638   8.848
  515POPC   D2A 9904   6.411  37.718   8.529
  515POPC   C3A 9905   6.672  37.781   8.185
  515POPC   C4A 9906   6.822  37.893   7.784
  515POPC   C1B 9907   6.209  37.336   8.864
  515POPC   C2B 9908   6.464  37.216   8.537
  515POPC   C3B 9909   6.460  37.303   8.127
  515POPC   C4B 9910   6.802  37.391   7.891
  516POPC   NC3 9911  15.419  25.799   9.528
  516POPC   PO4 9912  15.209  25.123   9.669
  516POPC   GL1 9913  15.360  25.332   9.271
  516POPC   GL2 9914  15.044  25.290   9.146
  516POPC   C1A 9915  15.422  25.339   8.802
  516POPC   D2A 9916  15.297  25.007   8.503
  516POPC   C3A 9917  15.232  25.149   8.118
  516POPC   C4A 9918  15.528  25.265   7.841
  516POPC   C1B 9919  14.978  24.931   8.884
  516POPC   C2B 9920  14.843  24.754   8.458
  516POPC   C3B 9921  14.778  24.902   8.021
  516POPC   C4B 9922  15.008  25.138   7.664
  517POPC   NC3 9923  12.719   1.918   9.639
  517POPC   PO4 9924  12.839   2.534   9.703
  517POPC   GL1 9925  12.720   2.192   9.230
  517POPC   GL2 9926  12.820   1.818   9.118
  517POPC   C1A 9927  12.794   2.187   8.752
  517POPC   D2A 9928  12.783   1.918   8.398
  517POPC   C3A 9929  12.752   2.097   7.978
  517POPC   C4A 9930  12.455   2.050   7.651
  517POPC   C1B 9931  13.186   1.862   8.770
  517POPC   C2B 9932  13.283   2.015   8.303
  517POPC   C3B 9933  13.186   1.868   7.857
  517POPC   C4B 9934  13.150   1.638   7.433
  518POPC   NC3 9935  30.122   2.805   9.464
  518POPC   PO4 9936  29.484   3.126   9.417
  518POPC   GL1 9937  29.696   2.829   9.125
  518POPC   GL2 9938  29.984   2.564   9.044
  518POPC   C1A 9939  29.797   2.902   8.716
  518POPC   D2A 9940  29.979   3.073   8.366
  518POPC   C3A 9941  29.816   2.851   8.031
  518POPC   C4A 9942  30.007   2.856   7.653
  518POPC   C1B 9943  29.647   2.409   8.777
  518POPC   C2B 9944  29.455   2.487   8.355
  518POPC   C3B 9945  29.492   2.430   7.900
  518POPC   C4B 9946  29.618   2.580   7.461
  519POPC   NC3 9947  33.875   6.105   9.490
  519POPC   PO4 9948  33.330   5.667   9.500
  519POPC   GL1 9949  33.482   5.768   9.131
  519POPC   GL2 9950  33.686   6.039   9.029
  519POPC   C1A 9951  33.545   5.593   8.744
  519POPC   D2A 9952  33.751   5.651   8.356
  519POPC   C3A 9953  33.541   5.542   7.989
  519POPC   C4A 9954  33.580   5.760   7.574
  519POPC   C1B 9955  33.748   6.318   8.703
  519POPC   C2B 9956  33.909   6.180   8.338
  519POPC   C3B 9957  33.829   5.991   7.980
  519POPC   C4B 9958  33.915   6.145   7.630
  520POPC   NC3 9959  34.297  27.562   9.536
  520POPC   PO4 9960  34.918  27.748   9.546
  520POPC   GL1 9961  34.679  27.703   9.198
  520POPC   GL2 9962  34.584  28.011   9.131
  520POPC   C1A 9963  34.707  27.447   8.848
  520POPC   D2A 9964  34.929  27.443   8.474
  520POPC   C3A 9965  34.763  27.527   8.051
  520POPC   C4A 9966  34.812  27.665   7.584
  520POPC   C1B 9967  34.396  27.902   8.751
  520POPC   C2B 9968  34.335  27.796   8.324
  520POPC   C3B 9969  34.441  27.883   7.901
  520POPC   C4B 9970  34.327  27.495   7.713
  521POPC   NC3 9971  27.005  22.197   9.471
  521POPC   PO4 9972  26.411  21.800   9.476
  521POPC   GL1 9973  26.698  21.987   9.122
  521POPC   GL2 9974  26.691  22.384   9.094
  521POPC   C1A 9975  26.987  22.183   8.761
  521POPC   D2A 9976  26.962  22.484   8.399
  521POPC   C3A 9977  27.004  22.227   8.027
  521POPC   C4A 9978  26.934  22.193   7.586
  521POPC   C1B 9979  26.575  22.682   8.728
  521POPC   C2B 9980  26.441  22.566   8.293
  521POPC   C3B 9981  26.575  22.535   7.813
  521POPC   C4B 9982  26.546  22.437   7.354
  522POPC   NC3 9983   6.515  42.664   9.460
  522POPC   PO4 9984   6.781  43.370   9.519
  522POPC   GL1 9985   6.667  43.291   9.120
  522POPC   GL2 9986   6.788  42.943   9.121
  522POPC   C1A 9987   6.690  43.198   8.668
  522POPC   D2A 9988   7.018  43.111   8.371
  522POPC   C3A 9989   6.965  43.222   7.937
  522POPC   C4A 9990   6.863  43.006   7.540
  522POPC   C1B 9991   6.544  42.723   8.797
  522POPC   C2B 9992   6.445  42.706   8.356
  522POPC   C3B 9993   6.596  42.889   8.000
  522POPC   C4B 9994   6.370  42.988   7.652
  523POPC   NC3 9995  10.984  41.243   9.819
  523POPC   PO4 9996  11.535  41.453   9.526
  523POPC   GL1 9997  11.195  41.525   9.222
  523POPC   GL2 9998  11.155  41.849   9.132
  523POPC   C1A 9999  11.101  41.472   8.761
  523POPC   D2A10000  11.389  41.515   8.384
  523POPC   C3A10001  11.219  41.453   7.978
  523POPC   C4A10002  11.249  41.290   7.557
  523POPC   C1B10003  11.371  41.921   8.730
  523POPC   C2B10004  11.265  42.008   8.286
  523POPC   C3B10005  11.306  41.944   7.846
  523POPC   C4B10006  11.351  41.789   7.433
  524POPC   NC310007  35.962  14.081   9.387
  524POPC   PO410008  36.166  13.512   9.516
  524POPC   GL110009  36.224  13.702   9.154
  524POPC   GL210010  36.420  14.015   9.178
  524POPC   C1A10011  36.068  13.566   8.782
  524POPC   D2A10012  36.157  13.345   8.434
  524POPC   C3A10013  35.970  13.402   8.076
  524POPC   C4A10014  36.142  13.486   7.705
  524POPC   C1B10015  36.208  14.057   8.756
  524POPC   C2B10016  36.013  13.878   8.363
  524POPC   C3B10017  35.957  13.914   7.915
  524POPC   C4B10018  35.900  13.865   7.449
  525POPC   NC310019  30.025  28.754   9.437
  525POPC   PO410020  29.733  28.110   9.549
  525POPC   GL110021  29.917  28.242   9.178
  525POPC   GL210022  29.715  28.499   9.031
  525POPC   C1A10023  29.989  28.167   8.747
  525POPC   D2A10024  29.877  28.345   8.371
  525POPC   C3A10025  29.946  28.111   8.028
  525POPC   C4A10026  30.324  28.174   7.800
  525POPC   C1B10027  29.578  28.689   8.619
  525POPC   C2B10028  29.777  28.827   8.213
  525POPC   C3B10029  29.864  28.572   7.839
  525POPC   C4B10030  29.727  28.705   7.416
  526POPC   NC310031   1.180  12.448   9.802
  526POPC   PO410032   1.450  13.024   9.627
  526POPC   GL110033   1.423  13.030   9.198
  526POPC   GL210034   1.468  12.711   9.058
  526POPC   C1A10035   1.307  13.124   8.769
  526POPC   D2A10036   1.450  13.101   8.343
  526POPC   C3A10037   1.298  13.106   7.926
  526POPC   C4A10038   1.436  12.760   7.688
  526POPC   C1B10039   1.340  12.637   8.604
  526POPC   C2B10040   1.210  12.612   8.151
  526POPC   C3B10041   1.171  12.338   7.769
  526POPC   C4B10042   1.197  12.481   7.316
  527POPC   NC310043  36.762   2.079   9.579
  527POPC   PO410044  37.344   1.811   9.665
  527POPC   GL110045  37.192   1.943   9.247
  527POPC   GL210046  36.910   2.200   9.109
  527POPC   C1A10047  37.062   1.808   8.843
  527POPC   D2A10048  37.089   2.101   8.524
  527POPC   C3A10049  37.145   1.853   8.180
  527POPC   C4A10050  36.985   1.950   7.805
  527POPC   C1B10051  36.616   2.162   8.718
  527POPC   C2B10052  36.648   2.043   8.233
  527POPC   C3B10053  36.527   2.181   7.791
  527POPC   C4B10054  36.492   2.315   7.312
  528POPC   NC310055   1.458  44.096   9.658
  528POPC   PO410056   0.966  44.563   9.428
  528POPC   GL110057   1.088  44.099   9.246
  528POPC   GL210058   1.425  43.885   9.210
  528POPC   C1A10059   1.067  43.807   8.849
  528POPC   D2A10060   0.882  43.651   8.431
  528POPC   C3A10061   1.049  43.863   8.050
  528POPC   C4A10062   1.302  44.024   7.728
  528POPC   C1B10063   1.549  43.687   8.833
  528POPC   C2B10064   1.388  43.704   8.416
  528POPC   C3B10065   1.552  43.637   8.005
  528POPC   C4B10066   1.732  43.792   7.603
  529POPC   NC310067  16.403  34.294   9.392
  529POPC   PO410068  16.909  34.630   9.655
  529POPC   GL110069  16.836  34.538   9.206
  529POPC   GL210070  16.541  34.635   9.018
  529POPC   C1A10071  16.932  34.495   8.760
  529POPC   D2A10072  16.647  34.733   8.507
  529POPC   C3A10073  16.605  34.616   8.120
  529POPC   C4A10074  16.950  34.587   7.843
  529POPC   C1B10075  16.422  35.037   8.848
  529POPC   C2B10076  16.425  35.241   8.448
  529POPC   C3B10077  16.328  35.149   8.032
  529POPC   C4B10078  16.553  34.926   7.695
  530POPC   NC310079  26.024  40.315   9.654
  530POPC   PO410080  26.122  40.996   9.744
  530POPC   GL110081  26.024  40.862   9.279
  530POPC   GL210082  26.298  40.680   9.208
  530POPC   C1A10083  26.074  40.831   8.775
  530POPC   D2A10084  25.878  40.939   8.352
  530POPC   C3A10085  25.912  40.839   7.892
  530POPC   C4A10086  25.903  40.920   7.429
  530POPC   C1B10087  26.455  40.475   8.837
  530POPC   C2B10088  26.214  40.403   8.469
  530POPC   C3B10089  26.296  40.539   8.057
  530POPC   C4B10090  26.271  40.449   7.642
  531POPC   NC310091  32.378  35.607   9.420
  531POPC   PO410092  32.313  36.297   9.483
  531POPC   GL110093  32.232  36.072   9.127
  531POPC   GL210094  31.989  35.847   9.208
  531POPC   C1A10095  31.990  36.123   8.758
  531POPC   D2A10096  31.968  36.301   8.343
  531POPC   C3A10097  32.277  36.108   8.091
  531POPC   C4A10098  32.383  36.192   7.685
  531POPC   C1B10099  32.007  35.606   8.834
  531POPC   C2B10100  31.940  35.717   8.412
  531POPC   C3B10101  31.892  35.788   7.995
  531POPC   C4B10102  31.760  35.482   7.760
  532POPC   NC310103  17.730  44.834   9.702
  532POPC   PO410104  17.167  44.405   9.541
  532POPC   GL110105  17.532  44.612   9.255
  532POPC   GL210106  17.701  44.971   9.226
  532POPC   C1A10107  17.522  44.487   8.821
  532POPC   D2A10108  17.236  44.591   8.490
  532POPC   C3A10109  17.424  44.472   8.112
  532POPC   C4A10110  17.304  44.598   7.741
  532POPC   C1B10111  17.617  44.986   8.817
  532POPC   C2B10112  17.703  44.816   8.423
  532POPC   C3B10113  17.573  44.967   8.027
  532POPC   C4B10114  17.640  44.979   7.587
  533POPC   NC310115  16.264  15.402   9.634
  533POPC   PO410116  15.641  15.077   9.553
  533POPC   GL110117  16.077  14.990   9.383
  533POPC   GL210118  16.011  15.270   9.217
  533POPC   C1A10119  16.273  14.919   8.945
  533POPC   D2A10120  16.232  15.072   8.510
  533POPC   C3A10121  16.097  14.961   8.099
  533POPC   C4A10122  16.304  15.157   7.759
  533POPC   C1B10123  15.818  15.132   8.821
  533POPC   C2B10124  15.679  15.099   8.383
  533POPC   C3B10125  15.670  15.256   7.922
  533POPC   C4B10126  15.528  15.431   7.472
  534POPC   NC310127  10.393  41.358  10.128
  534POPC   PO410128  10.322  41.777   9.589
  534POPC   GL110129  10.391  41.626   9.152
  534POPC   GL210130  10.641  41.870   9.059
  534POPC   C1A10131  10.509  41.525   8.705
  534POPC   D2A10132  10.362  41.210   8.423
  534POPC   C3A10133  10.493  41.342   8.065
  534POPC   C4A10134  10.436  41.461   7.669
  534POPC   C1B10135  10.855  41.923   8.682
  534POPC   C2B10136  10.872  41.668   8.338
  534POPC   C3B10137  10.797  41.749   7.945
  534POPC   C4B10138  10.890  41.636   7.577
  535POPC   NC310139  42.601  14.213   9.278
  535POPC   PO410140  42.495  13.586   9.592
  535POPC   GL110141  42.407  13.725   9.196
  535POPC   GL210142  42.740  13.653   9.125
  535POPC   C1A10143  42.150  13.675   8.800
  535POPC   D2A10144  42.017  13.376   8.444
  535POPC   C3A10145  42.235  13.493   8.046
  535POPC   C4A10146  42.412  13.833   7.815
  535POPC   C1B10147  42.664  13.480   8.753
  535POPC   C2B10148  42.672  13.567   8.338
  535POPC   C3B10149  42.719  13.327   7.990
  535POPC   C4B10150  42.678  13.459   7.578
  536POPC   NC310151  10.402  44.775   9.553
  536POPC   PO410152  10.418  44.117   9.588
  536POPC   GL110153  10.403  44.385   9.209
  536POPC   GL210154  10.733  44.610   9.205
  536POPC   C1A10155  10.360  44.702   8.860
  536POPC   D2A10156  10.252  44.905   8.471
  536POPC   C3A10157  10.292  44.727   8.071
  536POPC   C4A10158  10.467  44.823   7.655
  536POPC   C1B10159  10.904  44.757   8.783
  536POPC   C2B10160  10.761  44.793   8.323
  536POPC   C3B10161  10.874   0.011   7.907
  536POPC   C4B10162  10.862   0.023   7.404
  537POPC   NC310163  30.530  11.846   9.342
  537POPC   PO410164  31.045  12.107   9.644
  537POPC   GL110165  30.885  12.164   9.120
  537POPC   GL210166  30.553  12.176   8.965
  537POPC   C1A10167  30.925  12.004   8.665
  537POPC   D2A10168  30.713  11.829   8.288
  537POPC   C3A10169  30.477  12.009   7.965
  537POPC   C4A10170  30.690  12.335   7.784
  537POPC   C1B10171  30.374  12.458   8.689
  537POPC   C2B10172  30.470  12.464   8.246
  537POPC   C3B10173  30.205  12.456   7.863
  537POPC   C4B10174  30.258  12.274   7.452
  538POPC   NC310175   1.973  38.524   9.483
  538POPC   PO410176   1.346  38.457   9.479
  538POPC   GL110177   1.622  38.704   9.154
  538POPC   GL210178   1.985  38.589   8.999
  538POPC   C1A10179   1.711  38.929   8.763
  538POPC   D2A10180   1.995  38.687   8.483
  538POPC   C3A10181   1.832  38.448   8.149
  538POPC   C4A10182   1.613  38.606   7.803
  538POPC   C1B10183   2.312  38.359   8.748
  538POPC   C2B10184   2.245  38.171   8.358
  538POPC   C3B10185   2.319  38.415   8.000
  538POPC   C4B10186   2.103  38.526   7.631
  539POPC   NC310187  29.910  17.440   9.509
  539POPC   PO410188  30.479  17.663   9.345
  539POPC   GL110189  30.104  17.481   9.051
  539POPC   GL210190  29.739  17.254   9.072
  539POPC   C1A10191  30.036  17.275   8.659
  539POPC   D2A10192  29.812  17.159   8.310
  539POPC   C3A10193  30.038  17.285   7.953
  539POPC   C4A10194  29.919  17.326   7.540
  539POPC   C1B10195  29.546  17.510   8.741
  539POPC   C2B10196  29.597  17.638   8.305
  539POPC   C3B10197  29.542  17.429   7.909
  539POPC   C4B10198  29.408  17.525   7.492
  540POPC   NC310199  24.148   4.430   9.554
  540POPC   PO410200  24.760   4.111   9.543
  540POPC   GL110201  24.458   4.271   9.184
  540POPC   GL210202  24.253   4.570   9.100
  540POPC   C1A10203  24.357   4.168   8.770
  540POPC   D2A10204  24.650   4.130   8.452
  540POPC   C3A10205  24.375   4.164   8.157
  540POPC   C4A10206  24.339   4.350   7.801
  540POPC   C1B10207  24.085   4.708   8.755
  540POPC   C2B10208  24.175   4.604   8.369
  540POPC   C3B10209  24.100   4.819   7.988
  540POPC   C4B10210  24.052   4.710   7.560
  541POPC   NC310211  17.077  21.657   9.480
  541POPC   PO410212  17.709  21.492   9.620
  541POPC   GL110213  17.559  21.577   9.241
  541POPC   GL210214  17.431  21.255   9.198
  541POPC   C1A10215  17.627  21.584   8.798
  541POPC   D2A10216  17.333  21.651   8.451
  541POPC   C3A10217  17.446  21.422   8.077
  541POPC   C4A10218  17.715  21.436   7.733
  541POPC   C1B10219  17.269  21.216   8.770
  541POPC   C2B10220  17.050  21.235   8.367
  541POPC   C3B10221  17.114  21.048   7.970
  541POPC   C4B10222  17.521  20.961   7.790
  542POPC   NC310223  29.655  33.663   9.430
  542POPC   PO410224  30.123  34.064   9.448
  542POPC   GL110225  29.944  33.963   9.081
  542POPC   GL210226  29.958  33.594   9.047
  542POPC   C1A10227  29.899  33.901   8.647
  542POPC   D2A10228  30.012  33.633   8.337
  542POPC   C3A10229  29.685  33.712   8.046
  542POPC   C4A10230  29.674  34.016   7.744
  542POPC   C1B10231  29.792  33.352   8.718
  542POPC   C2B10232  29.759  33.180   8.296
  542POPC   C3B10233  29.969  33.313   7.932
  542POPC   C4B10234  29.841  33.522   7.553
  543POPC   NC310235   9.308  19.568   9.549
  543POPC   PO410236   8.664  19.412   9.536
  543POPC   GL110237   8.810  19.174   9.203
  543POPC   GL210238   9.180  19.188   9.216
  543POPC   C1A10239   8.790  19.323   8.803
  543POPC   D2A10240   8.857  19.171   8.417
  543POPC   C3A10241   8.729  18.821   8.240
  543POPC   C4A10242   8.721  18.836   7.816
  543POPC   C1B10243   9.311  19.385   8.819
  543POPC   C2B10244   9.326  19.337   8.352
  543POPC   C3B10245   9.147  19.130   7.971
  543POPC   C4B10246   9.416  18.976   7.629
  544POPC   NC310247   2.133  18.064   9.625
  544POPC   PO410248   2.436  18.623   9.398
  544POPC   GL110249   2.343  18.265   9.154
  544POPC   GL210250   2.007  18.098   9.134
  544POPC   C1A10251   2.275  18.216   8.724
  544POPC   D2A10252   1.993  18.058   8.403
  544POPC   C3A10253   2.162  18.133   8.028
  544POPC   C4A10254   1.993  18.275   7.646
  544POPC   C1B10255   1.783  18.317   8.807
  544POPC   C2B10256   1.740  18.498   8.399
  544POPC   C3B10257   1.656  18.274   8.037
  544POPC   C4B10258   1.489  18.279   7.614
  545POPC   NC310259  22.229  17.164   9.408
  545POPC   PO410260  22.584  17.701   9.651
  545POPC   GL110261  22.425  17.630   9.235
  545POPC   GL210262  22.056  17.664   9.235
  545POPC   C1A10263  22.399  17.500   8.795
  545POPC   D2A10264  22.523  17.669   8.391
  545POPC   C3A10265  22.434  17.445   8.034
  545POPC   C4A10266  22.248  17.478   7.638
  545POPC   C1B10267  21.911  17.681   8.812
  545POPC   C2B10268  21.994  17.510   8.418
  545POPC   C3B10269  21.987  17.718   8.043
  545POPC   C4B10270  21.942  18.114   7.895
  546POPC   NC310271   7.053  44.216   9.444
  546POPC   PO410272   7.566  43.968   9.679
  546POPC   GL110273   7.413  43.906   9.230
  546POPC   GL210274   7.115  43.692   9.117
  546POPC   C1A10275   7.537  43.815   8.782
  546POPC   D2A10276   7.278  43.724   8.453
  546POPC   C3A10277   7.401  43.892   8.061
  546POPC   C4A10278   7.436  43.740   7.622
  546POPC   C1B10279   7.089  44.050   8.825
  546POPC   C2B10280   7.170  44.260   8.448
  546POPC   C3B10281   7.118  44.385   8.036
  546POPC   C4B10282   7.321  44.245   7.688
  547POPC   NC310283  38.044   5.648   9.653
  547POPC   PO410284  37.372   5.679   9.617
  547POPC   GL110285  37.538   5.900   9.279
  547POPC   GL210286  37.879   5.834   9.175
  547POPC   C1A10287  37.450   5.972   8.874
  547POPC   D2A10288  37.538   5.957   8.461
  547POPC   C3A10289  37.203   6.012   8.200
  547POPC   C4A10290  37.389   5.955   7.837
  547POPC   C1B10291  37.972   5.955   8.738
  547POPC   C2B10292  38.008   5.712   8.325
  547POPC   C3B10293  37.925   5.656   7.844
  547POPC   C4B10294  37.969   5.502   7.357
  548POPC   NC310295   0.004  40.216   9.888
  548POPC   PO410296  44.588  39.842   9.508
  548POPC   GL110297  44.568  39.947   9.088
  548POPC   GL210298  44.478  40.250   9.138
  548POPC   C1A10299  44.721  40.048   8.632
  548POPC   D2A10300  44.701  40.005   8.191
  548POPC   C3A10301   0.049  39.983   7.911
  548POPC   C4A10302   0.060  40.193   7.526
  548POPC   C1B10303  44.306  40.285   8.778
  548POPC   C2B10304  44.391  40.414   8.372
  548POPC   C3B10305  44.300  40.276   7.969
  548POPC   C4B10306  44.582  40.105   7.679
  549POPC   NC310307  10.849   9.826   9.498
  549POPC   PO410308  10.271   9.407   9.449
  549POPC   GL110309  10.529   9.676   9.122
  549POPC   GL210310  10.633  10.051   9.111
  549POPC   C1A10311  10.584   9.596   8.693
  549POPC   D2A10312  10.307   9.526   8.368
  549POPC   C3A10313  10.401   9.698   7.959
  549POPC   C4A10314  10.128   9.499   7.625
  549POPC   C1B10315  10.879  10.012   8.754
  549POPC   C2B10316  10.680   9.991   8.357
  549POPC   C3B10317  10.819  10.020   7.953
  549POPC   C4B10318  10.572  10.036   7.610
  550POPC   NC310319  32.666   5.160   9.570
  550POPC   PO410320  32.053   5.029   9.505
  550POPC   GL110321  32.166   5.328   9.198
  550POPC   GL210322  32.506   5.334   9.123
  550POPC   C1A10323  32.140   5.490   8.799
  550POPC   D2A10324  32.280   5.301   8.475
  550POPC   C3A10325  32.103   5.446   8.115
  550POPC   C4A10326  32.155   5.221   7.760
  550POPC   C1B10327  32.647   5.071   8.811
  550POPC   C2B10328  32.767   5.206   8.414
  550POPC   C3B10329  32.556   5.068   8.062
  550POPC   C4B10330  32.738   4.926   7.701
  551POPC   NC310331  39.843  32.321   9.558
  551POPC   PO410332  40.365  31.916   9.640
  551POPC   GL110333  40.211  32.151   9.226
  551POPC   GL210334  40.309  32.492   9.126
  551POPC   C1A10335  39.861  32.299   8.906
  551POPC   D2A10336  39.810  32.205   8.458
  551POPC   C3A10337  40.169  32.154   8.206
  551POPC   C4A10338  40.090  32.202   7.771
  551POPC   C1B10339  40.271  32.420   8.649
  551POPC   C2B10340  40.130  32.664   8.258
  551POPC   C3B10341  40.122  32.695   7.795
  551POPC   C4B10342  39.842  32.612   7.403
  552POPC   NC310343   0.907   4.948   9.698
  552POPC   PO410344   1.599   4.984   9.653
  552POPC   GL110345   1.280   5.133   9.356
  552POPC   GL210346   1.558   5.247   9.154
  552POPC   C1A10347   0.982   5.206   8.953
  552POPC   D2A10348   1.156   5.142   8.508
  552POPC   C3A10349   1.022   5.215   8.037
  552POPC   C4A10350   1.010   5.115   7.524
  552POPC   C1B10351   1.626   5.133   8.728
  552POPC   C2B10352   1.590   5.378   8.350
  552POPC   C3B10353   1.493   5.407   7.931
  552POPC   C4B10354   1.527   5.185   7.535
  553POPC   NC310355  31.838  36.208   9.552
  553POPC   PO410356  31.224  36.452   9.355
  553POPC   GL110357  31.608  36.347   9.119
  553POPC   GL210358  31.551  36.018   9.006
  553POPC   C1A10359  31.674  36.525   8.711
  553POPC   D2A10360  31.389  36.442   8.371
  553POPC   C3A10361  31.554  36.175   8.056
  553POPC   C4A10362  31.900  36.279   7.800
  553POPC   C1B10363  31.516  35.993   8.560
  553POPC   C2B10364  31.137  36.015   8.308
  553POPC   C3B10365  31.052  36.059   7.882
  553POPC   C4B10366  31.054  36.060   7.426
  554POPC   NC310367   5.149  33.560   9.590
  554POPC   PO410368   4.499  33.742   9.738
  554POPC   GL110369   4.791  33.842   9.297
  554POPC   GL210370   5.070  33.604   9.102
  554POPC   C1A10371   4.934  33.999   8.844
  554POPC   D2A10372   4.942  33.800   8.455
  554POPC   C3A10373   5.128  33.964   8.074
  554POPC   C4A10374   4.853  34.045   7.725
  554POPC   C1B10375   4.973  33.352   8.744
  554POPC   C2B10376   4.792  33.323   8.336
  554POPC   C3B10377   4.802  33.597   7.999
  554POPC   C4B10378   5.131  33.629   7.681
  555POPC   NC310379  43.195   5.293   9.466
  555POPC   PO410380  42.844   4.711   9.416
  555POPC   GL110381  43.172   4.868   9.159
  555POPC   GL210382  42.987   5.155   9.035
  555POPC   C1A10383  43.352   4.965   8.753
  555POPC   D2A10384  43.096   4.837   8.436
  555POPC   C3A10385  43.179   4.870   8.014
  555POPC   C4A10386  42.946   4.845   7.631
  555POPC   C1B10387  42.859   5.398   8.700
  555POPC   C2B10388  42.786   5.233   8.300
  555POPC   C3B10389  42.868   5.281   7.869
  555POPC   C4B10390  43.311   5.228   7.671
  556POPC   NC310391  31.889  19.894   9.795
  556POPC   PO410392  31.766  19.793   9.207
  556POPC   GL110393  32.159  19.815   9.004
  556POPC   GL210394  32.351  20.119   9.038
  556POPC   C1A10395  32.229  19.834   8.568
  556POPC   D2A10396  32.011  19.655   8.227
  556POPC   C3A10397  32.117  19.845   7.859
  556POPC   C4A10398  31.902  20.079   7.561
  556POPC   C1B10399  32.630  20.150   8.717
  556POPC   C2B10400  32.529  20.166   8.289
  556POPC   C3B10401  32.598  20.004   7.881
  556POPC   C4B10402  32.454  19.986   7.484
  557POPC   NC310403  39.528  34.464   9.996
  557POPC   PO410404  39.144  34.818   9.627
  557POPC   GL110405  39.401  34.631   9.283
  557POPC   GL210406  39.516  34.943   9.052
  557POPC   C1A10407  39.494  34.485   8.870
  557POPC   D2A10408  39.549  34.723   8.525
  557POPC   C3A10409  39.354  34.588   8.191
  557POPC   C4A10410  39.393  34.556   7.755
  557POPC   C1B10411  39.365  35.206   8.738
  557POPC   C2B10412  39.188  35.126   8.345
  557POPC   C3B10413  39.255  35.022   7.932
  557POPC   C4B10414  39.072  34.925   7.525
  558POPC   NC310415  44.034  30.142   9.498
  558POPC   PO410416  43.378  30.187   9.487
  558POPC   GL110417  43.670  29.887   9.174
  558POPC   GL210418  44.053  29.807   9.118
  558POPC   C1A10419  43.820  30.016   8.712
  558POPC   D2A10420  43.678  30.215   8.342
  558POPC   C3A10421  43.822  30.089   7.918
  558POPC   C4A10422  44.005  29.674   7.824
  558POPC   C1B10423  44.254  30.175   8.892
  558POPC   C2B10424  44.267  30.244   8.475
  558POPC   C3B10425  44.266  29.991   8.152
  558POPC   C4B10426  44.327  30.130   7.761
  559POPC   NC310427   0.087   7.139   9.576
  559POPC   PO410428  44.433   7.051   9.431
  559POPC   GL110429  44.416   7.292   9.071
  559POPC   GL210430  44.638   7.569   9.085
  559POPC   C1A10431  44.291   7.138   8.694
  559POPC   D2A10432  44.379   7.283   8.292
  559POPC   C3A10433  44.801   7.283   8.136
  559POPC   C4A10434  44.752   7.141   7.721
  559POPC   C1B10435  44.372   7.663   8.702
  559POPC   C2B10436  44.126   7.728   8.315
  559POPC   C3B10437  44.388   7.675   7.946
  559POPC   C4B10438  44.820   7.658   7.760
  560POPC   NC310439  40.570  29.014   9.428
  560POPC   PO410440  41.076  29.525   9.469
  560POPC   GL110441  40.820  29.385   9.138
  560POPC   GL210442  40.905  29.041   9.041
  560POPC   C1A10443  40.676  29.351   8.709
  560POPC   D2A10444  40.851  29.123   8.381
  560POPC   C3A10445  40.770  29.335   8.041
  560POPC   C4A10446  40.660  29.187   7.697
  560POPC   C1B10447  41.085  28.791   8.704
  560POPC   C2B10448  41.056  28.663   8.273
  560POPC   C3B10449  41.059  28.910   7.923
  560POPC   C4B10450  40.977  28.838   7.502
  561POPC   NC310451   4.372  34.115   9.492
  561POPC   PO410452   4.217  34.788   9.510
  561POPC   GL110453   4.390  34.533   9.161
  561POPC   GL210454   4.084  34.323   9.084
  561POPC   C1A10455   4.533  34.623   8.699
  561POPC   D2A10456   4.298  34.624   8.339
  561POPC   C3A10457   4.544  34.772   8.012
  561POPC   C4A10458   4.284  34.679   7.686
  561POPC   C1B10459   4.454  34.148   8.831
  561POPC   C2B10460   4.640  34.219   8.401
  561POPC   C3B10461   4.451  34.256   7.978
  561POPC   C4B10462   4.418  34.220   7.517
  562POPC   NC310463  37.269   0.602   9.440
  562POPC   PO410464  36.771   0.307   9.610
  562POPC   GL110465  36.802   0.253   9.196
  562POPC   GL210466  37.114   0.151   9.163
  562POPC   C1A10467  36.641   0.268   8.776
  562POPC   D2A10468  36.779   0.186   8.346
  562POPC   C3A10469  36.725   0.487   8.013
  562POPC   C4A10470  36.970   0.665   7.677
  562POPC   C1B10471  37.246   0.327   8.806
  562POPC   C2B10472  37.429   0.225   8.445
  562POPC   C3B10473  37.217   0.318   8.080
  562POPC   C4B10474  37.317   0.302   7.665
  563POPC   NC310475  13.613   6.201   9.398
  563POPC   PO410476  13.842   5.586   9.486
  563POPC   GL110477  13.797   5.837   9.072
  563POPC   GL210478  13.474   5.938   8.987
  563POPC   C1A10479  13.723   5.842   8.564
  563POPC   D2A10480  13.500   5.650   8.178
  563POPC   C3A10481  13.682   5.788   7.773
  563POPC   C4A10482  13.906   6.119   7.544
  563POPC   C1B10483  13.303   6.140   8.611
  563POPC   C2B10484  13.057   5.986   8.275
  563POPC   C3B10485  13.063   6.056   7.848
  563POPC   C4B10486  13.369   6.031   7.461
  564POPC   NC310487  14.445  26.023   9.498
  564POPC   PO410488  14.130  25.569   9.127
  564POPC   GL110489  14.368  25.882   8.986
  564POPC   GL210490  14.730  25.994   9.056
  564POPC   C1A10491  14.487  25.908   8.570
  564POPC   D2A10492  14.742  25.800   8.241
  564POPC   C3A10493  14.591  25.891   7.806
  564POPC   C4A10494  14.305  25.918   7.421
  564POPC   C1B10495  14.459  26.356   8.852
  564POPC   C2B10496  14.278  26.349   8.435
  564POPC   C3B10497  14.342  26.327   7.987
  564POPC   C4B10498  14.743  26.379   7.797
  565POPC   NC310499  19.638  35.547   9.548
  565POPC   PO410500  20.206  35.300   9.483
  565POPC   GL110501  19.925  35.155   9.200
  565POPC   GL210502  19.805  35.443   9.050
  565POPC   C1A10503  20.035  35.054   8.758
  565POPC   D2A10504  19.896  35.258   8.394
  565POPC   C3A10505  19.805  35.008   8.056
  565POPC   C4A10506  19.586  35.138   7.720
  565POPC   C1B10507  19.917  35.701   8.686
  565POPC   C2B10508  19.871  35.747   8.246
  565POPC   C3B10509  19.974  35.516   7.902
  565POPC   C4B10510  19.911  35.641   7.470
  566POPC   NC310511  10.436   1.294   9.332
  566POPC   PO410512  10.582   1.937   9.517
  566POPC   GL110513  10.416   2.100   9.181
  566POPC   GL210514  10.263   1.754   9.129
  566POPC   C1A10515  10.578   2.046   8.792
  566POPC   D2A10516  10.785   1.925   8.422
  566POPC   C3A10517  10.720   2.167   8.054
  566POPC   C4A10518  10.412   2.163   7.752
  566POPC   C1B10519  10.210   1.694   8.701
  566POPC   C2B10520  10.445   1.533   8.385
  566POPC   C3B10521  10.597   1.671   7.995
  566POPC   C4B10522  10.296   1.658   7.710
  567POPC   NC310523  23.634  30.653   9.632
  567POPC   PO410524  24.124  30.292   9.359
  567POPC   GL110525  23.838  30.629   9.166
  567POPC   GL210526  23.479  30.714   9.160
  567POPC   C1A10527  23.763  30.698   8.748
  567POPC   D2A10528  23.840  30.419   8.430
  567POPC   C3A10529  24.052  30.589   8.082
  567POPC   C4A10530  24.096  30.558   7.648
  567POPC   C1B10531  23.387  31.028   8.828
  567POPC   C2B10532  23.525  31.122   8.430
  567POPC   C3B10533  23.418  30.945   8.056
  567POPC   C4B10534  23.603  30.611   7.808
  568POPC   NC310535   3.664  20.749   9.431
  568POPC   PO410536   3.077  20.558   9.740
  568POPC   GL110537   3.073  20.616   9.233
  568POPC   GL210538   3.317  20.854   9.077
  568POPC   C1A10539   3.057  20.510   8.810
  568POPC   D2A10540   3.278  20.372   8.459
  568POPC   C3A10541   3.520  20.574   8.150
  568POPC   C4A10542   3.414  20.741   7.747
  568POPC   C1B10543   3.673  20.801   8.775
  568POPC   C2B10544   3.931  20.805   8.406
  568POPC   C3B10545   3.851  20.939   7.991
  568POPC   C4B10546   3.917  20.755   7.577
  569POPC   NC310547  40.898  19.329   9.634
  569POPC   PO410548  40.606  18.722   9.596
  569POPC   GL110549  40.574  19.053   9.306
  569POPC   GL210550  40.890  19.089   9.170
  569POPC   C1A10551  40.455  19.273   8.935
  569POPC   D2A10552  40.418  19.258   8.481
  569POPC   C3A10553  40.711  19.251   8.139
  569POPC   C4A10554  40.506  19.369   7.734
  569POPC   C1B10555  40.846  19.069   8.717
  569POPC   C2B10556  41.041  18.840   8.419
  569POPC   C3B10557  41.142  18.595   8.089
  569POPC   C4B10558  40.960  18.877   7.819
  570POPC   NC310559   2.371  39.427   9.464
  570POPC   PO410560   1.716  39.093   9.480
  570POPC   GL110561   1.957  39.234   9.167
  570POPC   GL210562   2.217  38.983   9.240
  570POPC   C1A10563   2.093  39.271   8.743
  570POPC   D2A10564   1.876  39.214   8.346
  570POPC   C3A10565   1.983  39.519   8.056
  570POPC   C4A10566   2.191  39.392   7.712
  570POPC   C1B10567   2.378  38.858   8.848
  570POPC   C2B10568   2.427  38.936   8.411
  570POPC   C3B10569   2.209  38.912   8.023
  570POPC   C4B10570   2.402  38.934   7.612
  571POPC   NC310571   6.796  11.465   9.376
  571POPC   PO410572   6.824  10.757   9.457
  571POPC   GL110573   6.551  11.047   9.230
  571POPC   GL210574   6.714  10.923   8.968
  571POPC   C1A10575   6.449  11.310   8.812
  571POPC   D2A10576   6.738  11.328   8.449
  571POPC   C3A10577   6.663  11.407   8.033
  571POPC   C4A10578   6.755  11.717   7.754
  571POPC   C1B10579   6.603  10.822   8.542
  571POPC   C2B10580   6.761  10.910   8.133
  571POPC   C3B10581   6.499  10.986   7.768
  571POPC   C4B10582   6.639  10.906   7.314
  572POPC   NC310583   0.392  13.846   9.590
  572POPC   PO410584   0.836  13.486   9.257
  572POPC   GL110585   0.509  13.761   9.069
  572POPC   GL210586   0.160  13.684   9.101
  572POPC   C1A10587   0.485  13.700   8.632
  572POPC   D2A10588   0.694  13.489   8.290
  572POPC   C3A10589   0.541  13.714   7.939
  572POPC   C4A10590   0.327  13.987   7.667
  572POPC   C1B10591   0.082  13.409   8.728
  572POPC   C2B10592   0.192  13.429   8.292
  572POPC   C3B10593   0.347  13.256   7.904
  572POPC   C4B10594   0.427  13.060   7.486
  573POPC   NC310595  44.139  43.684   9.225
  573POPC   PO410596  43.640  44.066   9.521
  573POPC   GL110597  43.711  44.055   9.098
  573POPC   GL210598  43.720  43.745   8.900
  573POPC   C1A10599  43.877  44.211   8.717
  573POPC   D2A10600  44.091  44.152   8.331
  573POPC   C3A10601  43.875  43.828   8.131
  573POPC   C4A10602  43.694  43.853   7.758
  573POPC   C1B10603  44.130  43.745   8.609
  573POPC   C2B10604  44.304  43.585   8.235
  573POPC   C3B10605  44.226  43.599   7.750
  573POPC   C4B10606  44.057  43.496   7.307
  574POPC   NC310607  25.049   9.387   9.848
  574POPC   PO410608  25.578   9.239   9.448
  574POPC   GL110609  25.454   9.037   9.094
  574POPC   GL210610  25.176   8.810   9.100
  574POPC   C1A10611  25.496   8.976   8.685
  574POPC   D2A10612  25.162   8.982   8.413
  574POPC   C3A10613  25.268   9.131   8.002
  574POPC   C4A10614  25.046   9.389   7.697
  574POPC   C1B10615  25.205   8.550   8.732
  574POPC   C2B10616  25.259   8.462   8.303
  574POPC   C3B10617  24.995   8.688   8.036
  574POPC   C4B10618  25.056   8.854   7.627
  575POPC   NC310619   3.915  32.615   9.412
  575POPC   PO410620   4.328  32.903   9.888
  575POPC   GL110621   4.266  33.071   9.375
  575POPC   GL210622   4.347  32.828   9.193
  575POPC   C1A10623   4.122  33.275   8.969
  575POPC   D2A10624   4.324  33.242   8.546
  575POPC   C3A10625   4.400  33.067   8.117
  575POPC   C4A10626   4.533  33.278   7.735
  575POPC   C1B10627   4.025  32.815   8.824
  575POPC   C2B10628   3.964  32.870   8.411
  575POPC   C3B10629   3.929  32.920   7.983
  575POPC   C4B10630   4.169  32.959   7.611
  576POPC   NC310631  26.665  18.303   9.491
  576POPC   PO410632  25.976  18.548   9.577
  576POPC   GL110633  26.086  18.351   9.217
  576POPC   GL210634  26.341  18.580   9.197
  576POPC   C1A10635  26.028  18.205   8.796
  576POPC   D2A10636  26.057  18.405   8.391
  576POPC   C3A10637  26.041  18.206   7.974
  576POPC   C4A10638  25.826  17.950   7.653
  576POPC   C1B10639  26.430  18.752   8.831
  576POPC   C2B10640  26.561  18.786   8.446
  576POPC   C3B10641  26.431  18.556   8.090
  576POPC   C4B10642  26.186  18.627   7.711
  577POPC   NC310643  38.006  41.246   9.546
  577POPC   PO410644  37.580  41.839   9.502
  577POPC   GL110645  37.469  41.890   9.084
  577POPC   GL210646  37.506  41.543   9.016
  577POPC   C1A10647  37.475  41.894   8.614
  577POPC   D2A10648  37.377  41.617   8.271
  577POPC   C3A10649  37.790  41.570   8.112
  577POPC   C4A10650  37.981  41.784   7.736
  577POPC   C1B10651  37.680  41.393   8.638
  577POPC   C2B10652  37.640  41.096   8.321
  577POPC   C3B10653  37.779  41.093   7.918
  577POPC   C4B10654  37.602  41.068   7.529
  578POPC   NC310655   2.215  31.326   9.529
  578POPC   PO410656   1.554  31.537   9.608
  578POPC   GL110657   1.721  31.673   9.224
  578POPC   GL210658   2.078  31.787   9.265
  578POPC   C1A10659   1.876  31.410   8.952
  578POPC   D2A10660   1.918  31.402   8.550
  578POPC   C3A10661   1.783  31.633   8.247
  578POPC   C4A10662   1.850  31.438   7.876
  578POPC   C1B10663   1.999  31.893   8.814
  578POPC   C2B10664   2.213  31.881   8.420
  578POPC   C3B10665   2.245  31.741   7.967
  578POPC   C4B10666   2.143  31.845   7.533
  579POPC   NC310667  34.780  44.798   9.573
  579POPC   PO410668  34.396  44.259   9.655
  579POPC   GL110669  34.500  44.515   9.232
  579POPC   GL210670  34.839  44.663   9.101
  579POPC   C1A10671  34.350  44.566   8.792
  579POPC   D2A10672  34.122  44.373   8.418
  579POPC   C3A10673  34.291  44.487   8.014
  579POPC   C4A10674  34.491  44.837   7.838
  579POPC   C1B10675  34.834  44.591   8.682
  579POPC   C2B10676  34.743  44.748   8.292
  579POPC   C3B10677  34.820  44.473   7.957
  579POPC   C4B10678  34.784  44.503   7.507
  580POPC   NC310679  17.290  41.855   9.466
  580POPC   PO410680  17.066  41.283   9.482
  580POPC   GL110681  16.821  41.467   9.088
  580POPC   GL210682  16.698  41.813   9.005
  580POPC   C1A10683  16.736  41.477   8.639
  580POPC   D2A10684  16.608  41.261   8.291
  580POPC   C3A10685  16.822  41.281   7.898
  580POPC   C4A10686  16.589  41.310   7.544
  580POPC   C1B10687  16.732  42.038   8.654
  580POPC   C2B10688  16.687  41.843   8.267
  580POPC   C3B10689  16.604  41.755   7.843
  580POPC   C4B10690  16.516  42.064   7.536
  581POPC   NC310691  33.845   3.013   9.586
  581POPC   PO410692  34.125   2.451   9.650
  581POPC   GL110693  34.145   2.719   9.255
  581POPC   GL210694  33.817   2.790   9.131
  581POPC   C1A10695  34.146   2.705   8.742
  581POPC   D2A10696  33.811   2.767   8.396
  581POPC   C3A10697  33.860   2.699   7.949
  581POPC   C4A10698  33.955   2.848   7.537
  581POPC   C1B10699  33.676   2.509   8.834
  581POPC   C2B10700  33.414   2.441   8.511
  581POPC   C3B10701  33.387   2.559   8.096
  581POPC   C4B10702  33.558   2.327   7.761
  582POPC   NC310703  32.902   4.384   9.528
  582POPC   PO410704  33.465   4.749   9.467
  582POPC   GL110705  33.229   4.545   9.173
  582POPC   GL210706  32.900   4.701   9.125
  582POPC   C1A10707  33.159   4.325   8.803
  582POPC   D2A10708  33.235   4.336   8.372
  582POPC   C3A10709  33.087   3.999   8.128
  582POPC   C4A10710  32.736   4.038   7.864
  582POPC   C1B10711  32.651   4.519   8.774
  582POPC   C2B10712  32.690   4.300   8.353
  582POPC   C3B10713  32.554   4.512   7.969
  582POPC   C4B10714  32.617   4.485   7.493
  583POPC   NC310715  16.155  37.955   9.762
  583POPC   PO410716  15.582  37.683   9.541
  583POPC   GL110717  15.779  37.703   9.115
  583POPC   GL210718  15.464  37.634   9.026
  583POPC   C1A10719  16.094  37.506   8.782
  583POPC   D2A10720  16.213  37.257   8.361
  583POPC   C3A10721  16.170  37.525   7.986
  583POPC   C4A10722  16.190  37.928   7.755
  583POPC   C1B10723  15.601  37.490   8.671
  583POPC   C2B10724  15.814  37.584   8.346
  583POPC   C3B10725  15.664  37.695   7.969
  583POPC   C4B10726  15.772  37.721   7.560
  584POPC   NC310727  43.849   5.474   9.511
  584POPC   PO410728  44.091   6.170   9.520
  584POPC   GL110729  44.089   5.854   9.235
  584POPC   GL210730  43.743   5.807   9.152
  584POPC   C1A10731  44.202   5.802   8.828
  584POPC   D2A10732  44.237   6.044   8.457
  584POPC   C3A10733  44.034   5.847   8.109
  584POPC   C4A10734  43.955   5.953   7.689
  584POPC   C1B10735  43.708   5.997   8.764
  584POPC   C2B10736  43.568   5.873   8.359
  584POPC   C3B10737  43.510   6.042   7.929
  584POPC   C4B10738  43.474   6.086   7.466
  585POPC   NC310739  26.677  42.728   9.587
  585POPC   PO410740  27.067  42.126   9.477
  585POPC   GL110741  26.857  42.409   9.193
  585POPC   GL210742  26.592  42.217   9.066
  585POPC   C1A10743  26.796  42.556   8.762
  585POPC   D2A10744  26.523  42.436   8.409
  585POPC   C3A10745  26.739  42.465   7.986
  585POPC   C4A10746  27.069  42.719   7.778
  585POPC   C1B10747  26.649  41.996   8.710
  585POPC   C2B10748  26.743  41.805   8.345
  585POPC   C3B10749  26.642  41.905   7.929
  585POPC   C4B10750  26.859  42.025   7.573
  586POPC   NC310751  44.710  17.138   9.693
  586POPC   PO410752  44.182  17.052   9.322
  586POPC   GL110753  44.422  17.411   9.313
  586POPC   GL210754  44.717  17.263   9.196
  586POPC   C1A10755  44.498  17.646   8.927
  586POPC   D2A10756  44.410  17.417   8.562
  586POPC   C3A10757  44.634  17.526   8.208
  586POPC   C4A10758  44.590  17.251   7.832
  586POPC   C1B10759  44.982  17.234   8.831
  586POPC   C2B10760   0.208  17.296   8.414
  586POPC   C3B10761   0.063  17.382   7.982
  586POPC   C4B10762  44.801  17.693   7.753
  587POPC   NC310763  17.989  16.781   9.370
  587POPC   PO410764  18.484  17.121   9.722
  587POPC   GL110765  18.511  16.786   9.314
  587POPC   GL210766  18.587  16.981   9.035
  587POPC   C1A10767  18.442  16.563   8.827
  587POPC   D2A10768  18.157  16.329   8.524
  587POPC   C3A10769  18.227  16.452   8.067
  587POPC   C4A10770  18.447  16.768   7.781
  587POPC   C1B10771  18.229  16.986   8.656
  587POPC   C2B10772  18.166  17.001   8.181
  587POPC   C3B10773  18.087  17.166   7.738
  587POPC   C4B10774  18.244  17.026   7.344
  588POPC   NC310775  23.961   5.876   9.857
  588POPC   PO410776  23.511   5.541   9.412
  588POPC   GL110777  23.677   5.581   9.063
  588POPC   GL210778  23.791   5.881   9.033
  588POPC   C1A10779  23.524   5.569   8.690
  588POPC   D2A10780  23.502   5.671   8.312
  588POPC   C3A10781  23.794   5.643   8.042
  588POPC   C4A10782  23.613   5.591   7.654
  588POPC   C1B10783  23.712   6.060   8.661
  588POPC   C2B10784  23.829   6.117   8.256
  588POPC   C3B10785  23.645   6.092   7.871
  588POPC   C4B10786  23.382   6.161   7.548
  589POPC   NC310787   5.629  32.872   9.624
  589POPC   PO410788   6.284  33.005   9.591
  589POPC   GL110789   6.020  32.958   9.242
  589POPC   GL210790   5.755  33.196   9.220
  589POPC   C1A10791   5.756  32.712   8.946
  589POPC   D2A10792   5.685  32.758   8.498
  589POPC   C3A10793   5.944  32.958   8.192
  589POPC   C4A10794   5.852  33.156   7.797
  589POPC   C1B10795   5.914  33.157   8.769
  589POPC   C2B10796   5.925  33.435   8.420
  589POPC   C3B10797   6.187  33.419   8.078
  589POPC   C4B10798   6.208  33.503   7.642
  590POPC   NC310799  13.851  25.585   9.502
  590POPC   PO410800  13.562  26.139   9.721
  590POPC   GL110801  13.603  25.983   9.285
  590POPC   GL210802  13.960  26.067   9.286
  590POPC   C1A10803  13.493  26.000   8.826
  590POPC   D2A10804  13.522  26.312   8.480
  590POPC   C3A10805  13.481  26.155   8.044
  590POPC   C4A10806  13.310  25.843   7.765
  590POPC   C1B10807  13.957  26.220   8.867
  590POPC   C2B10808  13.945  25.944   8.511
  590POPC   C3B10809  14.151  25.880   8.124
  590POPC   C4B10810  13.906  26.017   7.728
  591POPC   NC310811   5.596  37.199   9.472
  591POPC   PO410812   6.119  36.780   9.432
  591POPC   GL110813   5.947  36.537   9.075
  591POPC   GL210814   5.573  36.527   9.147
  591POPC   C1A10815   5.917  36.468   8.651
  591POPC   D2A10816   5.716  36.693   8.314
  591POPC   C3A10817   5.914  36.720   7.918
  591POPC   C4A10818   6.016  37.170   7.807
  591POPC   C1B10819   5.634  36.865   8.853
  591POPC   C2B10820   5.708  37.208   8.598
  591POPC   C3B10821   5.581  37.257   8.171
  591POPC   C4B10822   5.427  36.897   7.932
  592POPC   NC310823   7.968   0.665   9.479
  592POPC   PO410824   8.525   0.306   9.577
  592POPC   GL110825   8.289   0.403   9.180
  592POPC   GL210826   7.911   0.304   9.131
  592POPC   C1A10827   8.282   0.682   8.812
  592POPC   D2A10828   8.604   0.705   8.465
  592POPC   C3A10829   8.406   0.729   8.047
  592POPC   C4A10830   8.608   0.516   7.737
  592POPC   C1B10831   8.051   0.211   8.738
  592POPC   C2B10832   8.204   0.389   8.383
  592POPC   C3B10833   8.290   0.190   8.002
  592POPC   C4B10834   8.227   0.201   7.607
  593POPC   NC310835  14.181  10.907   9.606
  593POPC   PO410836  14.344  10.247   9.591
  593POPC   GL110837  14.428  10.322   9.193
  593POPC   GL210838  14.489  10.665   9.211
  593POPC   C1A10839  14.358  10.403   8.752
  593POPC   D2A10840  14.362  10.505   8.313
  593POPC   C3A10841  14.097  10.209   8.050
  593POPC   C4A10842  14.086  10.062   7.623
  593POPC   C1B10843  14.654  10.863   8.839
  593POPC   C2B10844  14.565  11.018   8.424
  593POPC   C3B10845  14.396  10.949   8.033
  593POPC   C4B10846  14.280  10.605   7.805
  594POPC   NC310847   1.810   4.723   9.332
  594POPC   PO410848   2.214   4.323   9.714
  594POPC   GL110849   2.094   4.285   9.276
  594POPC   GL210850   2.209   4.562   9.056
  594POPC   C1A10851   2.181   4.072   8.894
  594POPC   D2A10852   2.248   4.293   8.519
  594POPC   C3A10853   2.072   4.117   8.155
  594POPC   C4A10854   1.862   4.226   7.777
  594POPC   C1B10855   1.837   4.452   8.765
  594POPC   C2B10856   1.838   4.554   8.335
  594POPC   C3B10857   2.053   4.636   7.986
  594POPC   C4B10858   1.684   4.715   7.709
  595POPC   NC310859  26.882  12.689   9.590
  595POPC   PO410860  26.498  13.215   9.313
  595POPC   GL110861  26.896  12.952   9.145
  595POPC   GL210862  26.954  12.529   9.134
  595POPC   C1A10863  27.037  12.822   8.738
  595POPC   D2A10864  27.121  12.857   8.324
  595POPC   C3A10865  26.730  12.992   8.174
  595POPC   C4A10866  26.576  13.067   7.789
  595POPC   C1B10867  27.093  12.316   8.746
  595POPC   C2B10868  27.278  12.361   8.338
  595POPC   C3B10869  27.093  12.471   7.938
  595POPC   C4B10870  27.107  12.554   7.477
  596POPC   NC310871  42.869  12.430   9.575
  596POPC   PO410872  43.328  13.040   9.498
  596POPC   GL110873  43.134  12.966   9.155
  596POPC   GL210874  42.981  12.651   9.141
  596POPC   C1A10875  42.900  13.026   8.800
  596POPC   D2A10876  42.977  13.139   8.399
  596POPC   C3A10877  43.110  12.981   8.004
  596POPC   C4A10878  42.866  12.955   7.656
  596POPC   C1B10879  43.260  12.643   8.779
  596POPC   C2B10880  43.242  12.647   8.347
  596POPC   C3B10881  43.439  12.601   7.934
  596POPC   C4B10882  43.177  12.473   7.589
  597POPC   NC310883   6.972  16.466   9.373
  597POPC   PO410884   6.313  16.693   9.510
  597POPC   GL110885   6.575  16.754   9.154
  597POPC   GL210886   6.878  16.995   9.117
  597POPC   C1A10887   6.610  16.780   8.731
  597POPC   D2A10888   6.685  16.637   8.350
  597POPC   C3A10889   6.378  16.822   8.105
  597POPC   C4A10890   6.234  16.731   7.702
  597POPC   C1B10891   6.983  17.137   8.665
  597POPC   C2B10892   6.828  17.121   8.209
  597POPC   C3B10893   6.782  16.920   7.774
  597POPC   C4B10894   7.040  16.934   7.370
  598POPC   NC310895   4.849  16.493   9.614
  598POPC   PO410896   5.138  17.125   9.566
  598POPC   GL110897   5.230  16.989   9.184
  598POPC   GL210898   4.857  16.919   9.160
  598POPC   C1A10899   5.177  16.696   8.838
  598POPC   D2A10900   5.115  16.459   8.465
  598POPC   C3A10901   5.374  16.670   8.158
  598POPC   C4A10902   5.245  16.942   7.828
  598POPC   C1B10903   4.657  16.829   8.754
  598POPC   C2B10904   4.588  16.681   8.313
  598POPC   C3B10905   4.898  16.572   7.996
  598POPC   C4B10906   4.869  16.408   7.573
  599POPC   NC310907   8.511  25.362   9.461
  599POPC   PO410908   9.127  25.351   9.674
  599POPC   GL110909   8.982  25.424   9.268
  599POPC   GL210910   8.874  25.077   9.226
  599POPC   C1A10911   9.083  25.448   8.833
  599POPC   D2A10912   9.331  25.350   8.482
  599POPC   C3A10913   9.108  25.519   8.158
  599POPC   C4A10914   9.071  25.421   7.745
  599POPC   C1B10915   8.969  24.937   8.816
  599POPC   C2B10916   8.945  25.040   8.377
  599POPC   C3B10917   9.061  24.920   7.955
  599POPC   C4B10918   8.789  24.947   7.620
  600POPC   NC310919  12.801  30.555   9.607
  600POPC   PO410920  13.168  31.117   9.521
  600POPC   GL110921  12.878  30.892   9.201
  600POPC   GL210922  12.908  30.473   9.133
  600POPC   C1A10923  12.666  30.800   8.797
  600POPC   D2A10924  12.556  30.564   8.414
  600POPC   C3A10925  12.671  30.862   8.096
  600POPC   C4A10926  12.623  30.937   7.653
  600POPC   C1B10927  13.147  30.507   8.798
  600POPC   C2B10928  13.052  30.689   8.435
  600POPC   C3B10929  12.974  30.470   8.071
  600POPC   C4B10930  12.998  30.582   7.636
  601POPC   NC310931  35.169  40.853   9.571
  601POPC   PO410932  35.703  40.390   9.321
  601POPC   GL110933  35.336  40.599   9.140
  601POPC   GL210934  34.991  40.508   9.245
  601POPC   C1A10935  35.289  40.646   8.692
  601POPC   D2A10936  35.560  40.776   8.379
  601POPC   C3A10937  35.434  40.694   7.970
  601POPC   C4A10938  35.518  41.037   7.742
  601POPC   C1B10939  34.899  40.840   8.943
  601POPC   C2B10940  34.851  41.012   8.532
  601POPC   C3B10941  34.996  40.907   8.134
  601POPC   C4B10942  34.926  40.594   7.877
  602POPC   NC310943  24.835   1.309   9.570
  602POPC   PO410944  25.436   1.530   9.478
  602POPC   GL110945  25.104   1.309   9.145
  602POPC   GL210946  24.920   0.948   9.197
  602POPC   C1A10947  25.140   1.083   8.741
  602POPC   D2A10948  25.432   0.869   8.498
  602POPC   C3A10949  25.300   0.984   8.143
  602POPC   C4A10950  25.264   1.158   7.762
  602POPC   C1B10951  24.734   0.777   8.798
  602POPC   C2B10952  24.781   0.966   8.352
  602POPC   C3B10953  24.857   0.786   7.940
  602POPC   C4B10954  24.864   0.846   7.472
  603POPC   NC310955   4.807  18.186   9.718
  603POPC   PO410956   5.364  18.573   9.585
  603POPC   GL110957   5.311  18.349   9.162
  603POPC   GL210958   5.620  18.315   8.963
  603POPC   C1A10959   5.170  18.489   8.725
  603POPC   D2A10960   5.228  18.691   8.306
  603POPC   C3A10961   4.938  18.686   7.954
  603POPC   C4A10962   4.809  18.305   7.628
  603POPC   C1B10963   5.366  18.012   8.729
  603POPC   C2B10964   5.096  18.090   8.386
  603POPC   C3B10965   5.215  18.275   8.000
  603POPC   C4B10966   5.265  18.064   7.597
  604POPC   NC310967  28.990  37.015   9.449
  604POPC   PO410968  29.436  36.453   9.328
  604POPC   GL110969  29.222  36.701   9.070
  604POPC   GL210970  28.908  36.609   9.140
  604POPC   C1A10971  29.150  36.743   8.643
  604POPC   D2A10972  29.276  36.583   8.264
  604POPC   C3A10973  29.408  36.923   7.985
  604POPC   C4A10974  29.416  37.087   7.533
  604POPC   C1B10975  28.653  36.702   8.806
  604POPC   C2B10976  28.698  36.592   8.409
  604POPC   C3B10977  28.853  36.756   8.053
  604POPC   C4B10978  29.073  36.734   7.664
  605POPC   NC310979  38.746   0.013   9.402
  605POPC   PO410980  38.427   0.638   9.561
  605POPC   GL110981  38.513   0.582   9.129
  605POPC   GL210982  38.210   0.741   9.043
  605POPC   C1A10983  38.500   0.241   8.795
  605POPC   D2A10984  38.374  45.000   8.410
  605POPC   C3A10985  38.584   0.056   7.982
  605POPC   C4A10986  38.637   0.521   7.886
  605POPC   C1B10987  38.314   0.698   8.643
  605POPC   C2B10988  38.241   0.917   8.273
  605POPC   C3B10989  38.140   0.725   7.907
  605POPC   C4B10990  38.148   0.272   7.858
  606POPC   NC310991   5.627   3.748   9.515
  606POPC   PO410992   5.238   3.209   9.769
  606POPC   GL110993   5.210   3.211   9.251
  606POPC   GL210994   4.848   3.226   9.114
  606POPC   C1A10995   5.163   3.475   8.811
  606POPC   D2A10996   4.969   3.742   8.449
  606POPC   C3A10997   5.136   3.659   8.010
  606POPC   C4A10998   5.301   3.363   7.694
  606POPC   C1B10999   4.671   3.193   8.737
  606POPC   C2B11000   4.592   3.343   8.352
  606POPC   C3B11001   4.735   3.136   7.992
  606POPC   C4B11002   4.783   3.421   7.709
  607POPC   NC311003   3.782  27.101   9.452
  607POPC   PO411004   3.576  26.416   9.360
  607POPC   GL111005   3.689  26.760   9.089
  607POPC   GL211006   4.054  26.843   9.126
  607POPC   C1A11007   3.582  26.979   8.719
  607POPC   D2A11008   3.285  26.856   8.403
  607POPC   C3A11009   3.463  26.869   8.008
  607POPC   C4A11010   3.334  26.725   7.621
  607POPC   C1B11011   4.088  26.649   8.748
  607POPC   C2B11012   3.984  26.845   8.371
  607POPC   C3B11013   3.962  27.043   7.984
  607POPC   C4B11014   3.853  26.777   7.660
  608POPC   NC311015  28.690  20.422   9.597
  608POPC   PO411016  29.359  20.610   9.523
  608POPC   GL111017  29.318  20.712   9.089
  608POPC   GL211018  28.971  20.676   9.054
  608POPC   C1A11019  29.224  20.566   8.652
  608POPC   D2A11020  29.033  20.365   8.314
  608POPC   C3A11021  29.091  20.635   7.993
  608POPC   C4A11022  29.327  20.725   7.668
  608POPC   C1B11023  28.773  20.808   8.679
  608POPC   C2B11024  28.667  20.722   8.307
  608POPC   C3B11025  28.671  20.949   7.987
  608POPC   C4B11026  28.770  20.791   7.631
  609POPC   NC311027  41.147  41.855   9.446
  609POPC   PO411028  41.740  42.115   9.641
  609POPC   GL111029  41.516  42.314   9.215
  609POPC   GL211030  41.266  42.135   9.042
  609POPC   C1A11031  41.575  42.471   8.764
  609POPC   D2A11032  41.813  42.358   8.372
  609POPC   C3A11033  41.646  42.458   7.932
  609POPC   C4A11034  41.583  42.399   7.463
  609POPC   C1B11035  41.278  42.019   8.635
  609POPC   C2B11036  41.314  42.185   8.235
  609POPC   C3B11037  41.362  41.985   7.854
  609POPC   C4B11038  41.614  41.848   7.512
  610POPC   NC311039  10.692  30.143   9.315
  610POPC   PO411040  10.194  29.678   9.517
  610POPC   GL111041  10.459  29.683   9.157
  610POPC   GL211042  10.845  29.674   9.216
  610POPC   C1A11043  10.356  29.851   8.737
  610POPC   D2A11044  10.622  29.954   8.413
  610POPC   C3A11045  10.534  30.090   8.020
  610POPC   C4A11046  10.923  30.150   7.764
  610POPC   C1B11047  10.830  29.608   8.796
  610POPC   C2B11048  10.885  29.503   8.391
  610POPC   C3B11049  10.880  29.695   8.013
  610POPC   C4B11050  10.503  29.624   7.799
  611POPC   NC311051  25.683  41.109   9.587
  611POPC   PO411052  25.263  40.620   9.529
  611POPC   GL111053  25.481  40.824   9.200
  611POPC   GL211054  25.333  41.136   9.082
  611POPC   C1A11055  25.559  40.812   8.768
  611POPC   D2A11056  25.276  40.951   8.475
  611POPC   C3A11057  25.444  41.031   8.085
  611POPC   C4A11058  25.535  41.165   7.694
  611POPC   C1B11059  24.944  41.121   8.854
  611POPC   C2B11060  24.753  41.009   8.471
  611POPC   C3B11061  24.924  40.958   8.080
  611POPC   C4B11062  25.026  41.178   7.716
  612POPC   NC311063  10.677  36.864   9.641
  612POPC   PO411064  10.165  37.241   9.519
  612POPC   GL111065  10.433  36.981   9.208
  612POPC   GL211066  10.819  36.986   9.190
  612POPC   C1A11067  10.520  36.980   8.775
  612POPC   D2A11068  10.296  36.770   8.508
  612POPC   C3A11069  10.412  36.769   8.113
  612POPC   C4A11070  10.408  36.527   7.778
  612POPC   C1B11071  10.921  36.693   8.833
  612POPC   C2B11072  10.811  36.590   8.417
  612POPC   C3B11073  10.924  36.756   8.014
  612POPC   C4B11074  10.711  36.966   7.702
  613POPC   NC311075  42.689  40.840   9.829
  613POPC   PO411076  42.370  41.168   9.337
  613POPC   GL111077  42.205  40.889   9.100
  613POPC   GL211078  42.259  40.525   9.231
  613POPC   C1A11079  42.295  40.962   8.674
  613POPC   D2A11080  42.294  41.129   8.285
  613POPC   C3A11081  42.644  40.941   8.091
  613POPC   C4A11082  42.514  40.839   7.697
  613POPC   C1B11083  42.121  40.492   8.800
  613POPC   C2B11084  42.355  40.506   8.418
  613POPC   C3B11085  42.220  40.630   8.060
  613POPC   C4B11086  42.181  40.461   7.696
  614POPC   NC311087  42.269  44.194   9.725
  614POPC   PO411088  42.406  44.809   9.597
  614POPC   GL111089  42.240  44.784   9.233
  614POPC   GL211090  42.420  44.508   9.158
  614POPC   C1A11091  42.122  44.813   8.836
  614POPC   D2A11092  42.067  44.604   8.467
  614POPC   C3A11093  42.093  44.843   8.113
  614POPC   C4A11094  42.321  44.760   7.724
  614POPC   C1B11095  42.628  44.586   8.790
  614POPC   C2B11096  42.579  44.436   8.403
  614POPC   C3B11097  42.576  44.458   8.020
  614POPC   C4B11098  42.742  44.481   7.609
  615POPC   NC311099  30.099  19.488   9.822
  615POPC   PO411100  29.521  19.627   9.607
  615POPC   GL111101  29.744  19.262   9.433
  615POPC   GL211102  29.508  19.102   9.217
  615POPC   C1A11103  30.058  19.259   9.071
  615POPC   D2A11104  30.097  19.391   8.604
  615POPC   C3A11105  30.145  19.156   8.234
  615POPC   C4A11106  29.920  19.068   7.877
  615POPC   C1B11107  29.620  19.281   8.823
  615POPC   C2B11108  29.675  19.072   8.453
  615POPC   C3B11109  29.484  19.169   8.108
  615POPC   C4B11110  29.469  19.378   7.730
  616POPC   NC311111  10.190  21.548   9.535
  616POPC   PO411112  10.731  21.247   9.783
  616POPC   GL111113  10.670  21.494   9.323
  616POPC   GL211114  10.354  21.375   9.088
  616POPC   C1A11115  10.792  21.520   8.862
  616POPC   D2A11116  10.821  21.756   8.458
  616POPC   C3A11117  10.866  21.576   8.054
  616POPC   C4A11118  10.833  21.190   7.811
  616POPC   C1B11119  10.368  21.045   8.734
  616POPC   C2B11120  10.498  21.014   8.291
  616POPC   C3B11121  10.413  21.370   8.052
  616POPC   C4B11122  10.312  21.585   7.710
  617POPC   NC311123  34.573  17.528   9.503
  617POPC   PO411124  34.886  18.052   9.492
  617POPC   GL111125  34.785  17.783   9.131
  617POPC   GL211126  34.734  17.371   9.058
  617POPC   C1A11127  34.534  17.759   8.775
  617POPC   D2A11128  34.668  17.760   8.379
  617POPC   C3A11129  34.595  17.775   7.985
  617POPC   C4A11130  34.701  17.438   7.807
  617POPC   C1B11131  34.556  17.191   8.670
  617POPC   C2B11132  34.409  17.337   8.250
  617POPC   C3B11133  34.276  17.154   7.835
  617POPC   C4B11134  34.050  17.178   7.420
  618POPC   NC311135  22.495  27.937   9.602
  618POPC   PO411136  22.054  27.447   9.671
  618POPC   GL111137  22.148  27.692   9.318
  618POPC   GL211138  22.440  27.491   9.316
  618POPC   C1A11139  22.228  27.824   8.906
  618POPC   D2A11140  22.347  27.678   8.498
  618POPC   C3A11141  22.187  27.793   8.099
  618POPC   C4A11142  22.018  27.598   7.741
  618POPC   C1B11143  22.599  27.438   8.904
  618POPC   C2B11144  22.777  27.430   8.475
  618POPC   C3B11145  22.607  27.445   8.061
  618POPC   C4B11146  22.491  27.467   7.645
  619POPC   NC311147   3.313   6.296   9.501
  619POPC   PO411148   3.562   5.698   9.538
  619POPC   GL111149   3.563   5.908   9.169
  619POPC   GL211150   3.196   5.880   9.195
  619POPC   C1A11151   3.479   5.765   8.741
  619POPC   D2A11152   3.650   5.681   8.329
  619POPC   C3A11153   3.890   5.988   8.143
  619POPC   C4A11154   3.801   6.116   7.754
  619POPC   C1B11155   3.217   6.183   8.868
  619POPC   C2B11156   3.341   6.251   8.457
  619POPC   C3B11157   3.382   6.053   8.085
  619POPC   C4B11158   3.340   6.299   7.730
  620POPC   NC311159   9.124   1.770   9.724
  620POPC   PO411160   9.096   1.107   9.604
  620POPC   GL111161   9.249   1.390   9.296
  620POPC   GL211162   8.923   1.523   9.322
  620POPC   C1A11163   9.330   1.234   8.878
  620POPC   D2A11164   9.408   1.218   8.440
  620POPC   C3A11165   9.013   1.024   8.297
  620POPC   C4A11166   8.847   0.969   7.914
  620POPC   C1B11167   8.902   1.602   8.921
  620POPC   C2B11168   8.885   1.453   8.550
  620POPC   C3B11169   8.845   1.488   8.140
  620POPC   C4B11170   8.924   1.457   7.751
  621POPC   NC311171  37.973  28.459   9.544
  621POPC   PO411172  37.436  28.147   9.318
  621POPC   GL111173  37.589  28.440   9.056
  621POPC   GL211174  37.920  28.391   9.047
  621POPC   C1A11175  37.447  28.731   8.748
  621POPC   D2A11176  37.572  28.781   8.320
  621POPC   C3A11177  37.588  28.397   8.100
  621POPC   C4A11178  37.473  28.334   7.704
  621POPC   C1B11179  37.859  28.431   8.589
  621POPC   C2B11180  38.079  28.562   8.188
  621POPC   C3B11181  37.981  28.429   7.767
  621POPC   C4B11182  37.840  28.142   7.404
  622POPC   NC311183   4.800   3.193   9.603
  622POPC   PO411184   5.208   2.640   9.425
  622POPC   GL111185   5.011   2.740   9.162
  622POPC   GL211186   4.706   2.766   9.317
  622POPC   C1A11187   5.090   2.876   8.775
  622POPC   D2A11188   4.922   2.899   8.397
  622POPC   C3A11189   5.176   2.782   8.077
  622POPC   C4A11190   5.317   2.858   7.686
  622POPC   C1B11191   4.631   2.665   8.852
  622POPC   C2B11192   4.657   2.438   8.458
  622POPC   C3B11193   4.692   2.538   8.054
  622POPC   C4B11194   4.824   2.716   7.696
  623POPC   NC311195  33.537  32.192   9.510
  623POPC   PO411196  34.135  32.133   9.774
  623POPC   GL111197  33.991  32.243   9.243
  623POPC   GL211198  33.689  32.280   9.047
  623POPC   C1A11199  34.098  32.237   8.758
  623POPC   D2A11200  33.867  32.160   8.341
  623POPC   C3A11201  34.085  32.228   7.944
  623POPC   C4A11202  33.943  32.200   7.544
  623POPC   C1B11203  33.635  32.512   8.664
  623POPC   C2B11204  33.477  32.495   8.243
  623POPC   C3B11205  33.520  32.378   7.794
  623POPC   C4B11206  33.526  32.354   7.313
  624POPC   NC311207  32.670  36.552   9.302
  624POPC   PO411208  33.280  36.272   9.230
  624POPC   GL111209  33.234  35.933   8.946
  624POPC   GL211210  32.885  35.873   9.102
  624POPC   C1A11211  33.296  35.997   8.517
  624POPC   D2A11212  33.131  36.283   8.252
  624POPC   C3A11213  33.107  36.158   7.827
  624POPC   C4A11214  33.189  36.165   7.343
  624POPC   C1B11215  32.825  36.161   8.747
  624POPC   C2B11216  32.648  36.262   8.384
  624POPC   C3B11217  32.704  36.434   7.986
  624POPC   C4B11218  32.800  36.477   7.551
  625POPC   NC311219   5.493  19.022   9.478
  625POPC   PO411220   4.825  19.185   9.388
  625POPC   GL111221   5.174  19.126   9.081
  625POPC   GL211222   5.422  18.828   9.027
  625POPC   C1A11223   5.123  19.024   8.664
  625POPC   D2A11224   4.815  19.031   8.341
  625POPC   C3A11225   5.023  19.230   8.007
  625POPC   C4A11226   5.214  19.049   7.631
  625POPC   C1B11227   5.645  18.710   8.663
  625POPC   C2B11228   5.726  18.644   8.254
  625POPC   C3B11229   5.522  18.694   7.875
  625POPC   C4B11230   5.237  18.559   7.554
  626POPC   NC311231  21.851   1.410   9.491
  626POPC   PO411232  22.438   1.236   9.465
  626POPC   GL111233  22.224   1.190   9.129
  626POPC   GL211234  21.943   0.942   9.194
  626POPC   C1A11235  22.370   1.353   8.740
  626POPC   D2A11236  22.197   1.304   8.345
  626POPC   C3A11237  22.410   1.308   7.956
  626POPC   C4A11238  22.029   1.380   7.686
  626POPC   C1B11239  21.994   0.949   8.742
  626POPC   C2B11240  21.888   0.723   8.348
  626POPC   C3B11241  22.029   0.940   7.972
  626POPC   C4B11242  22.309   0.943   7.598
  627POPC   NC311243   7.035  26.044   9.498
  627POPC   PO411244   7.653  26.059   9.531
  627POPC   GL111245   7.468  25.935   9.207
  627POPC   GL211246   7.679  25.693   9.114
  627POPC   C1A11247   7.582  26.126   8.835
  627POPC   D2A11248   7.311  26.231   8.535
  627POPC   C3A11249   7.468  26.361   8.156
  627POPC   C4A11250   7.410  26.216   7.761
  627POPC   C1B11251   7.331  25.686   8.777
  627POPC   C2B11252   6.973  25.853   8.495
  627POPC   C3B11253   7.141  25.939   8.093
  627POPC   C4B11254   7.454  25.665   7.874
  628POPC   NC311255  35.401  44.837   9.464
  628POPC   PO411256  35.876  44.474   9.162
  628POPC   GL111257  35.511  44.569   9.064
  628POPC   GL211258  35.587  44.912   9.005
  628POPC   C1A11259  35.304  44.434   8.765
  628POPC   D2A11260  35.259  44.632   8.382
  628POPC   C3A11261  35.531  44.561   8.038
  628POPC   C4A11262  35.262  44.535   7.706
  628POPC   C1B11263  35.195  44.940   8.815
  628POPC   C2B11264  35.091   0.133   8.452
  628POPC   C3B11265  35.206   0.008   8.046
  628POPC   C4B11266  34.966  44.953   7.714
  629POPC   NC311267  36.690  30.248  10.003
  629POPC   PO411268  37.081  29.804   9.532
  629POPC   GL111269  36.931  29.934   9.131
  629POPC   GL211270  37.241  30.026   9.085
  629POPC   C1A11271  36.822  29.778   8.698
  629POPC   D2A11272  36.821  29.942   8.244
  629POPC   C3A11273  36.906  29.914   7.767
  629POPC   C4A11274  36.791  29.576   7.505
  629POPC   C1B11275  37.263  29.627   8.886
  629POPC   C2B11276  37.272  29.704   8.452
  629POPC   C3B11277  37.202  29.616   8.016
  629POPC   C4B11278  37.361  29.600   7.609
  630POPC   NC311279  11.730   2.223   9.569
  630POPC   PO411280  12.281   1.882   9.813
  630POPC   GL111281  12.295   1.927   9.340
  630POPC   GL211282  11.975   1.972   9.198
  630POPC   C1A11283  12.360   1.942   8.874
  630POPC   D2A11284  12.318   1.683   8.503
  630POPC   C3A11285  12.313   1.872   8.134
  630POPC   C4A11286  12.036   1.858   7.844
  630POPC   C1B11287  11.894   2.261   8.833
  630POPC   C2B11288  11.943   2.373   8.409
  630POPC   C3B11289  11.747   2.256   8.042
  630POPC   C4B11290  11.841   2.257   7.629
  631POPC   NC311291  30.110  21.548   9.397
  631POPC   PO411292  29.469  21.256   9.434
  631POPC   GL111293  29.666  21.554   9.114
  631POPC   GL211294  30.021  21.488   8.921
  631POPC   C1A11295  29.587  21.540   8.686
  631POPC   D2A11296  29.549  21.291   8.358
  631POPC   C3A11297  29.635  21.515   8.004
  631POPC   C4A11298  29.927  21.454   7.736
  631POPC   C1B11299  30.000  21.173   8.616
  631POPC   C2B11300  30.059  21.199   8.175
  631POPC   C3B11301  30.395  21.245   7.875
  631POPC   C4B11302  30.453  21.135   7.413
  632POPC   NC311303  10.380  39.285   9.673
  632POPC   PO411304  10.772  39.449   9.172
  632POPC   GL111305  10.498  39.026   9.193
  632POPC   GL211306  10.632  38.665   9.080
  632POPC   C1A11307  10.233  38.912   8.805
  632POPC   D2A11308  10.137  39.208   8.446
  632POPC   C3A11309  10.345  39.237   8.052
  632POPC   C4A11310  10.296  39.464   7.719
  632POPC   C1B11311  10.736  38.969   8.756
  632POPC   C2B11312  10.708  39.199   8.417
  632POPC   C3B11313  10.833  39.069   8.025
  632POPC   C4B11314  10.939  39.272   7.687
  633POPC   NC311315  20.714   4.620   9.647
  633POPC   PO411316  20.242   4.096   9.553
  633POPC   GL111317  20.492   4.247   9.201
  633POPC   GL211318  20.841   4.317   9.216
  633POPC   C1A11319  20.515   4.306   8.757
  633POPC   D2A11320  20.482   4.125   8.341
  633POPC   C3A11321  20.495   4.399   7.960
  633POPC   C4A11322  20.167   4.506   7.692
  633POPC   C1B11323  20.959   4.538   8.825
  633POPC   C2B11324  20.767   4.583   8.382
  633POPC   C3B11325  20.926   4.640   7.959
  633POPC   C4B11326  21.000   4.468   7.560
  634POPC   NC311327  37.306  22.789   9.422
  634POPC   PO411328  36.732  23.339   9.456
  634POPC   GL111329  36.849  22.968   9.184
  634POPC   GL211330  36.562  22.824   8.995
  634POPC   C1A11331  36.998  22.842   8.759
  634POPC   D2A11332  36.801  22.893   8.377
  634POPC   C3A11333  37.178  22.936   8.154
  634POPC   C4A11334  37.195  23.069   7.794
  634POPC   C1B11335  36.615  23.211   8.767
  634POPC   C2B11336  36.595  23.388   8.336
  634POPC   C3B11337  36.693  23.224   7.930
  634POPC   C4B11338  36.915  23.449   7.607
  635POPC   NC311339  10.695   8.266   9.283
  635POPC   PO411340  11.428   8.215   9.453
  635POPC   GL111341  11.187   8.443   9.140
  635POPC   GL211342  11.104   8.100   9.026
  635POPC   C1A11343  11.097   8.494   8.695
  635POPC   D2A11344  11.331   8.233   8.410
  635POPC   C3A11345  11.215   8.247   7.995
  635POPC   C4A11346  11.473   8.069   7.694
  635POPC   C1B11347  10.938   7.721   8.843
  635POPC   C2B11348  10.840   7.566   8.434
  635POPC   C3B11349  10.715   7.771   8.078
  635POPC   C4B11350  11.013   7.829   7.751
  636POPC   NC311351  22.942  35.600   9.476
  636POPC   PO411352  23.076  34.951   9.449
  636POPC   GL111353  23.072  35.260   9.123
  636POPC   GL211354  23.345  35.526   9.179
  636POPC   C1A11355  22.842  35.251   8.754
  636POPC   D2A11356  22.868  34.956   8.443
  636POPC   C3A11357  22.896  35.216   8.134
  636POPC   C4A11358  22.677  35.361   7.806
  636POPC   C1B11359  23.205  35.610   8.768
  636POPC   C2B11360  23.115  35.673   8.351
  636POPC   C3B11361  23.333  35.586   8.001
  636POPC   C4B11362  23.183  35.297   7.736
  637POPC   NC311363  13.036  11.894   9.466
  637POPC   PO411364  12.451  12.222   9.618
  637POPC   GL111365  12.631  12.076   9.204
  637POPC   GL211366  12.646  11.670   9.202
  637POPC   C1A11367  12.838  12.233   8.790
  637POPC   D2A11368  13.054  12.355   8.407
  637POPC   C3A11369  12.844  12.263   8.043
  637POPC   C4A11370  12.935  12.111   7.613
  637POPC   C1B11371  12.911  11.726   8.835
  637POPC   C2B11372  13.032  11.791   8.414
  637POPC   C3B11373  13.162  11.517   8.031
  637POPC   C4B11374  13.258  11.693   7.608
  638POPC   NC311375  23.657  39.038   9.613
  638POPC   PO411376  24.043  39.496   9.436
  638POPC   GL111377  23.888  39.199   9.164
  638POPC   GL211378  23.533  39.281   9.083
  638POPC   C1A11379  23.859  39.032   8.743
  638POPC   D2A11380  23.875  39.336   8.358
  638POPC   C3A11381  24.069  39.186   7.961
  638POPC   C4A11382  23.921  39.033   7.513
  638POPC   C1B11383  23.428  39.239   8.625
  638POPC   C2B11384  23.543  38.967   8.266
  638POPC   C3B11385  23.584  39.200   7.879
  638POPC   C4B11386  23.435  39.566   7.728
  639POPC   NC311387  23.426  43.578   9.469
  639POPC   PO411388  23.095  43.089   9.827
  639POPC   GL111389  23.068  43.067   9.296
  639POPC   GL211390  23.353  43.165   9.164
  639POPC   C1A11391  22.777  43.060   8.831
  639POPC   D2A11392  22.843  42.787   8.483
  639POPC   C3A11393  22.647  42.893   8.115
  639POPC   C4A11394  22.691  43.116   7.755
  639POPC   C1B11395  23.254  42.940   8.812
  639POPC   C2B11396  23.309  43.023   8.411
  639POPC   C3B11397  23.132  43.011   8.035
  639POPC   C4B11398  23.129  42.855   7.640
  640POPC   NC311399  10.426  33.435   9.274
  640POPC   PO411400  10.190  32.820   9.552
  640POPC   GL111401  10.452  32.928   9.186
  640POPC   GL211402  10.780  32.788   9.141
  640POPC   C1A11403  10.608  33.080   8.762
  640POPC   D2A11404  10.383  33.067   8.414
  640POPC   C3A11405  10.458  32.720   8.178
  640POPC   C4A11406  10.340  32.949   7.836
  640POPC   C1B11407  10.822  32.598   8.748
  640POPC   C2B11408  10.910  32.836   8.398
  640POPC   C3B11409  10.787  33.089   8.076
  640POPC   C4B11410  10.852  32.991   7.664
  641POPC   NC311411   3.004  17.791   9.677
  641POPC   PO411412   2.752  17.229   9.395
  641POPC   GL111413   2.551  17.431   9.112
  641POPC   GL211414   2.383  17.726   9.277
  641POPC   C1A11415   2.725  17.492   8.706
  641POPC   D2A11416   2.907  17.724   8.369
  641POPC   C3A11417   2.817  17.521   7.959
  641POPC   C4A11418   2.502  17.272   7.699
  641POPC   C1B11419   2.280  17.725   8.825
  641POPC   C2B11420   2.391  17.750   8.392
  641POPC   C3B11421   2.320  17.663   7.960
  641POPC   C4B11422   2.557  17.822   7.595
  642POPC   NC311423  23.343   5.974   9.302
  642POPC   PO411424  22.672   5.666   9.482
  642POPC   GL111425  22.859   5.752   9.108
  642POPC   GL211426  23.149   5.585   9.033
  642POPC   C1A11427  22.762   5.640   8.690
  642POPC   D2A11428  22.782   5.900   8.317
  642POPC   C3A11429  22.619   5.658   8.028
  642POPC   C4A11430  22.844   5.555   7.728
  642POPC   C1B11431  23.177   5.941   8.684
  642POPC   C2B11432  23.291   6.125   8.289
  642POPC   C3B11433  23.191   5.874   7.938
  642POPC   C4B11434  22.914   6.042   7.657
  643POPC   NC311435  37.631   2.561   9.463
  643POPC   PO411436  37.728   3.291   9.256
  643POPC   GL111437  37.782   2.938   9.038
  643POPC   GL211438  37.465   2.841   9.079
  643POPC   C1A11439  37.613   2.915   8.603
  643POPC   D2A11440  37.381   3.038   8.227
  643POPC   C3A11441  37.675   3.030   7.854
  643POPC   C4A11442  37.972   2.764   7.619
  643POPC   C1B11443  37.439   2.469   8.823
  643POPC   C2B11444  37.312   2.548   8.417
  643POPC   C3B11445  37.544   2.572   8.060
  643POPC   C4B11446  37.428   2.605   7.660
  644POPC   NC311447  38.941  14.311   9.767
  644POPC   PO411448  39.388  14.666   9.424
  644POPC   GL111449  39.225  14.412   9.108
  644POPC   GL211450  39.090  14.132   9.266
  644POPC   C1A11451  39.345  14.399   8.687
  644POPC   D2A11452  39.039  14.437   8.411
  644POPC   C3A11453  39.050  14.237   8.045
  644POPC   C4A11454  39.371  14.224   7.769
  644POPC   C1B11455  38.995  14.034   8.812
  644POPC   C2B11456  38.828  13.950   8.413
  644POPC   C3B11457  38.718  13.875   7.985
  644POPC   C4B11458  38.930  13.987   7.590
  645POPC   NC311459  41.437  16.233   9.489
  645POPC   PO411460  41.837  16.820   9.465
  645POPC   GL111461  41.590  16.636   9.136
  645POPC   GL211462  41.237  16.592   9.185
  645POPC   C1A11463  41.543  16.685   8.703
  645POPC   D2A11464  41.545  16.863   8.299
  645POPC   C3A11465  41.729  16.590   7.983
  645POPC   C4A11466  41.489  16.684   7.644
  645POPC   C1B11467  41.052  16.788   8.826
  645POPC   C2B11468  41.097  16.583   8.425
  645POPC   C3B11469  41.099  16.718   8.008
  645POPC   C4B11470  41.011  16.553   7.570
  646POPC   NC311471  11.871  34.964   9.728
  646POPC   PO411472  12.255  35.406   9.543
  646POPC   GL111473  12.219  35.245   9.137
  646POPC   GL211474  12.058  35.551   9.079
  646POPC   C1A11475  12.143  35.216   8.683
  646POPC   D2A11476  12.268  35.379   8.283
  646POPC   C3A11477  12.069  35.263   7.944
  646POPC   C4A11478  12.127  35.007   7.635
  646POPC   C1B11479  11.718  35.491   8.798
  646POPC   C2B11480  11.724  35.273   8.391
  646POPC   C3B11481  11.687  35.550   8.069
  646POPC   C4B11482  11.584  35.602   7.676
  647POPC   NC311483  21.971  34.153   9.356
  647POPC   PO411484  22.393  34.725   9.462
  647POPC   GL111485  22.337  34.611   9.074
  647POPC   GL211486  21.974  34.598   9.099
  647POPC   C1A11487  22.467  34.697   8.663
  647POPC   D2A11488  22.423  34.439   8.321
  647POPC   C3A11489  22.250  34.574   7.943
  647POPC   C4A11490  22.368  34.959   7.734
  647POPC   C1B11491  22.034  34.379   8.696
  647POPC   C2B11492  21.910  34.314   8.266
  647POPC   C3B11493  21.879  34.230   7.798
  647POPC   C4B11494  22.120  34.303   7.423
  648POPC   NC311495   4.406   4.948   9.623
  648POPC   PO411496   4.292   5.565   9.571
  648POPC   GL111497   4.452   5.322   9.223
  648POPC   GL211498   4.272   5.014   9.164
  648POPC   C1A11499   4.353   5.300   8.761
  648POPC   D2A11500   4.498   5.094   8.398
  648POPC   C3A11501   4.314   5.136   7.998
  648POPC   C4A11502   4.414   5.206   7.562
  648POPC   C1B11503   4.383   4.788   8.822
  648POPC   C2B11504   4.315   4.600   8.463
  648POPC   C3B11505   4.121   4.648   8.076
  648POPC   C4B11506   4.298   4.725   7.663
  649POPC   NC311507  33.194  42.348   9.273
  649POPC   PO411508  32.810  41.906   9.508
  649POPC   GL111509  32.731  42.223   9.117
  649POPC   GL211510  32.763  42.603   9.154
  649POPC   C1A11511  32.865  42.313   8.702
  649POPC   D2A11512  32.722  42.356   8.295
  649POPC   C3A11513  32.878  42.067   7.970
  649POPC   C4A11514  33.222  42.168   7.690
  649POPC   C1B11515  32.531  42.753   8.789
  649POPC   C2B11516  32.683  42.882   8.406
  649POPC   C3B11517  32.866  42.752   8.030
  649POPC   C4B11518  32.544  42.706   7.728
  650POPC   NC311519  38.856   5.796   9.508
  650POPC   PO411520  38.293   6.067   9.641
  650POPC   GL111521  38.327   6.108   9.196
  650POPC   GL211522  38.436   5.773   9.197
  650POPC   C1A11523  38.592   6.069   8.814
  650POPC   D2A11524  38.709   6.216   8.414
  650POPC   C3A11525  38.925   5.959   8.085
  650POPC   C4A11526  38.773   5.906   7.656
  650POPC   C1B11527  38.345   5.624   8.768
  650POPC   C2B11528  38.564   5.702   8.401
  650POPC   C3B11529  38.420   5.776   7.998
  650POPC   C4B11530  38.370   5.447   7.699
  651POPC   NC311531  28.157  43.882   9.633
  651POPC   PO411532  28.733  43.569   9.472
  651POPC   GL111533  28.365  43.712   9.206
  651POPC   GL211534  28.492  43.947   8.977
  651POPC   C1A11535  28.076  43.718   8.836
  651POPC   D2A11536  28.252  43.959   8.499
  651POPC   C3A11537  28.063  43.891   8.124
  651POPC   C4A11538  28.118  43.716   7.745
  651POPC   C1B11539  28.697  44.220   8.716
  651POPC   C2B11540  28.619  44.331   8.289
  651POPC   C3B11541  28.505  44.075   7.917
  651POPC   C4B11542  28.216  44.191   7.599
  652POPC   NC311543  20.445  17.255   9.549
  652POPC   PO411544  20.822  17.749   9.335
  652POPC   GL111545  20.666  17.373   9.085
  652POPC   GL211546  20.338  17.518   9.092
  652POPC   C1A11547  20.761  17.215   8.641
  652POPC   D2A11548  20.696  17.440   8.230
  652POPC   C3A11549  20.748  17.239   7.826
  652POPC   C4A11550  20.653  17.086   7.385
  652POPC   C1B11551  20.418  17.601   8.645
  652POPC   C2B11552  20.197  17.385   8.273
  652POPC   C3B11553  20.237  17.340   7.796
  652POPC   C4B11554  20.197  17.284   7.325
  653POPC   NC311555  21.671   4.775   9.851
  653POPC   PO411556  21.200   4.381   9.579
  653POPC   GL111557  21.391   4.338   9.152
  653POPC   GL211558  21.513   4.009   9.082
  653POPC   C1A11559  21.393   4.296   8.685
  653POPC   D2A11560  21.275   4.566   8.375
  653POPC   C3A11561  21.402   4.430   7.996
  653POPC   C4A11562  21.278   4.086   7.756
  653POPC   C1B11563  21.075   3.975   8.931
  653POPC   C2B11564  20.943   4.086   8.541
  653POPC   C3B11565  20.961   4.171   8.138
  653POPC   C4B11566  20.769   4.035   7.764
  654POPC   NC311567  34.143  18.424   9.393
  654POPC   PO411568  33.577  18.078   9.418
  654POPC   GL111569  33.850  18.158   9.064
  654POPC   GL211570  33.994  17.859   8.970
  654POPC   C1A11571  33.724  18.304   8.646
  654POPC   D2A11572  33.374  18.349   8.338
  654POPC   C3A11573  33.499  18.428   7.935
  654POPC   C4A11574  33.902  18.475   7.710
  654POPC   C1B11575  33.589  17.792   8.783
  654POPC   C2B11576  33.597  17.883   8.385
  654POPC   C3B11577  33.850  18.116   8.127
  654POPC   C4B11578  33.830  17.974   7.696
  655POPC   NC311579  15.908   7.155   9.558
  655POPC   PO411580  15.400   7.611   9.498
  655POPC   GL111581  15.643   7.735   9.133
  655POPC   GL211582  15.912   7.486   9.109
  655POPC   C1A11583  15.786   7.762   8.678
  655POPC   D2A11584  15.847   7.819   8.210
  655POPC   C3A11585  15.769   7.477   7.927
  655POPC   C4A11586  15.750   7.030   7.958
  655POPC   C1B11587  16.091   7.323   8.699
  655POPC   C2B11588  16.247   7.116   8.304
  655POPC   C3B11589  16.214   7.210   7.833
  655POPC   C4B11590  16.170   7.587   7.562
  656POPC   NC311591   7.149  40.258   9.487
  656POPC   PO411592   7.475  39.721   9.473
  656POPC   GL111593   7.390  39.997   9.126
  656POPC   GL211594   7.552  40.251   9.173
  656POPC   C1A11595   7.239  40.177   8.728
  656POPC   D2A11596   7.079  40.090   8.296
  656POPC   C3A11597   7.297  39.978   7.902
  656POPC   C4A11598   7.144  40.019   7.439
  656POPC   C1B11599   7.741  40.296   8.780
  656POPC   C2B11600   7.603  40.165   8.356
  656POPC   C3B11601   7.694  40.290   7.950
  656POPC   C4B11602   7.637  40.173   7.510
  657POPC   NC311603  21.119   9.297   9.562
  657POPC   PO411604  21.511   8.755   9.487
  657POPC   GL111605  21.645   8.957   9.117
  657POPC   GL211606  21.646   8.652   8.981
  657POPC   C1A11607  21.565   9.175   8.698
  657POPC   D2A11608  21.355   9.068   8.289
  657POPC   C3A11609  21.565   8.815   7.967
  657POPC   C4A11610  21.594   9.122   7.671
  657POPC   C1B11611  21.357   8.683   8.658
  657POPC   C2B11612  21.211   8.571   8.243
  657POPC   C3B11613  21.066   8.782   7.857
  657POPC   C4B11614  21.226   8.870   7.445
  658POPC   NC311615   0.487   6.505   9.565
  658POPC   PO411616   0.542   7.222   9.439
  658POPC   GL111617   0.608   6.868   9.103
  658POPC   GL211618   0.596   6.492   9.062
  658POPC   C1A11619   0.433   6.826   8.684
  658POPC   D2A11620   0.334   7.021   8.290
  658POPC   C3A11621   0.445   6.790   7.919
  658POPC   C4A11622   0.153   6.845   7.628
  658POPC   C1B11623   0.558   6.337   8.614
  658POPC   C2B11624   0.232   6.480   8.289
  658POPC   C3B11625   0.077   6.380   7.876
  658POPC   C4B11626   0.423   6.308   7.663
  659POPC   NC311627  20.038  29.642   9.590
  659POPC   PO411628  19.643  30.162   9.545
  659POPC   GL111629  19.850  29.954   9.205
  659POPC   GL211630  19.641  29.738   9.044
  659POPC   C1A11631  19.915  30.119   8.800
  659POPC   D2A11632  19.702  30.092   8.427
  659POPC   C3A11633  19.851  30.282   8.059
  659POPC   C4A11634  19.731  30.187   7.637
  659POPC   C1B11635  19.906  29.616   8.698
  659POPC   C2B11636  19.907  29.531   8.268
  659POPC   C3B11637  19.704  29.788   8.003
  659POPC   C4B11638  19.381  30.087   7.988
  660POPC   NC311639   1.085  15.254   9.713
  660POPC   PO411640   1.493  15.707   9.559
  660POPC   GL111641   1.310  15.354   9.234
  660POPC   GL211642   0.971  15.109   9.236
  660POPC   C1A11643   1.412  15.102   8.821
  660POPC   D2A11644   1.593  15.100   8.366
  660POPC   C3A11645   1.396  15.016   7.990
  660POPC   C4A11646   1.309  15.374   7.719
  660POPC   C1B11647   0.902  15.140   8.777
  660POPC   C2B11648   0.961  15.028   8.326
  660POPC   C3B11649   0.897  15.098   7.866
  660POPC   C4B11650   1.172  14.937   7.503
  661POPC   NC311651  21.398  38.198   9.568
  661POPC   PO411652  21.716  38.834   9.505
  661POPC   GL111653  21.621  38.510   9.202
  661POPC   GL211654  21.263  38.541   9.202
  661POPC   C1A11655  21.475  38.263   8.817
  661POPC   D2A11656  21.330  38.453   8.412
  661POPC   C3A11657  21.445  38.386   7.966
  661POPC   C4A11658  21.165  38.371   7.571
  661POPC   C1B11659  21.007  38.464   8.838
  661POPC   C2B11660  20.845  38.635   8.469
  661POPC   C3B11661  20.962  38.603   8.047
  661POPC   C4B11662  21.018  38.917   7.751
  662POPC   NC311663  12.151  26.116   9.687
  662POPC   PO411664  12.151  26.781   9.484
  662POPC   GL111665  12.363  26.823   9.062
  662POPC   GL211666  12.555  27.131   8.979
  662POPC   C1A11667  12.330  26.837   8.594
  662POPC   D2A11668  12.470  27.052   8.220
  662POPC   C3A11669  12.268  26.891   7.874
  662POPC   C4A11670  12.069  26.579   7.636
  662POPC   C1B11671  12.134  27.273   8.768
  662POPC   C2B11672  11.778  27.131   8.484
  662POPC   C3B11673  11.754  26.966   8.054
  662POPC   C4B11674  11.871  27.063   7.615
  663POPC   NC311675  31.092  16.703   9.548
  663POPC   PO411676  30.558  16.374   9.472
  663POPC   GL111677  30.654  16.498   9.085
  663POPC   GL211678  30.896  16.783   9.081
  663POPC   C1A11679  30.529  16.626   8.663
  663POPC   D2A11680  30.243  16.853   8.372
  663POPC   C3A11681  30.435  16.968   7.982
  663POPC   C4A11682  30.820  16.809   7.854
  663POPC   C1B11683  31.022  16.481   8.752
  663POPC   C2B11684  30.958  16.603   8.322
  663POPC   C3B11685  31.002  16.338   7.973
  663POPC   C4B11686  31.003  16.333   7.538
  664POPC   NC311687  41.406  12.759   9.720
  664POPC   PO411688  41.527  13.338   9.542
  664POPC   GL111689  41.624  13.009   9.267
  664POPC   GL211690  41.435  12.709   9.177
  664POPC   C1A11691  41.793  12.948   8.855
  664POPC   D2A11692  42.046  12.788   8.567
  664POPC   C3A11693  41.755  12.694   8.254
  664POPC   C4A11694  41.649  12.846   7.860
  664POPC   C1B11695  41.302  13.016   8.854
  664POPC   C2B11696  41.388  13.028   8.417
  664POPC   C3B11697  41.316  13.212   7.993
  664POPC   C4B11698  41.290  13.055   7.528
  665POPC   NC311699  37.486  30.078   9.547
  665POPC   PO411700  37.788  29.592   9.563
  665POPC   GL111701  37.662  29.767   9.192
  665POPC   GL211702  37.836  30.093   9.151
  665POPC   C1A11703  37.737  29.704   8.773
  665POPC   D2A11704  37.708  29.959   8.430
  665POPC   C3A11705  37.696  29.676   8.107
  665POPC   C4A11706  37.766  29.868   7.738
  665POPC   C1B11707  37.574  30.274   8.822
  665POPC   C2B11708  37.204  30.186   8.568
  665POPC   C3B11709  37.282  30.127   8.114
  665POPC   C4B11710  37.371  30.161   7.673
  666POPC   NC311711  22.612  11.538   9.518
  666POPC   PO411712  22.859  10.856   9.586
  666POPC   GL111713  22.739  11.093   9.199
  666POPC   GL211714  22.905  11.407   9.147
  666POPC   C1A11715  22.805  11.168   8.733
  666POPC   D2A11716  23.011  11.182   8.341
  666POPC   C3A11717  22.769  11.101   7.975
  666POPC   C4A11718  22.754  11.283   7.561
  666POPC   C1B11719  23.089  11.639   8.773
  666POPC   C2B11720  23.135  11.701   8.332
  666POPC   C3B11721  23.065  11.535   7.919
  666POPC   C4B11722  23.126  11.722   7.488
  667POPC   NC311723  25.043  15.700   9.387
  667POPC   PO411724  25.141  15.041   9.617
  667POPC   GL111725  25.340  15.078   9.181
  667POPC   GL211726  25.575  14.834   9.108
  667POPC   C1A11727  25.448  15.292   8.790
  667POPC   D2A11728  25.181  15.350   8.431
  667POPC   C3A11729  25.326  15.397   8.013
  667POPC   C4A11730  25.206  15.164   7.660
  667POPC   C1B11731  25.423  14.798   8.688
  667POPC   C2B11732  25.552  14.984   8.330
  667POPC   C3B11733  25.587  14.959   7.909
  667POPC   C4B11734  25.562  14.882   7.447
  668POPC   NC311735  14.757  23.701   9.445
  668POPC   PO411736  14.067  23.987   9.500
  668POPC   GL111737  14.295  23.831   9.189
  668POPC   GL211738  14.277  23.472   9.267
  668POPC   C1A11739  14.421  24.000   8.793
  668POPC   D2A11740  14.641  23.757   8.481
  668POPC   C3A11741  14.504  23.637   8.092
  668POPC   C4A11742  14.551  23.797   7.721
  668POPC   C1B11743  14.436  23.466   8.857
  668POPC   C2B11744  14.276  23.363   8.462
  668POPC   C3B11745  14.059  23.339   8.087
  668POPC   C4B11746  14.277  23.346   7.713
  669POPC   NC311747  26.283  27.715   9.611
  669POPC   PO411748  25.973  27.170   9.540
  669POPC   GL111749  26.097  27.422   9.182
  669POPC   GL211750  25.997  27.774   9.202
  669POPC   C1A11751  25.935  27.514   8.758
  669POPC   D2A11752  26.038  27.435   8.356
  669POPC   C3A11753  25.794  27.551   8.030
  669POPC   C4A11754  26.069  27.613   7.716
  669POPC   C1B11755  26.269  27.875   8.856
  669POPC   C2B11756  26.252  28.036   8.472
  669POPC   C3B11757  26.155  27.944   8.075
  669POPC   C4B11758  26.115  28.136   7.643
  670POPC   NC311759  23.792  14.526   9.445
  670POPC   PO411760  24.124  13.930   9.275
  670POPC   GL111761  23.844  14.192   9.019
  670POPC   GL211762  23.891  14.554   8.931
  670POPC   C1A11763  23.761  14.233   8.566
  670POPC   D2A11764  23.859  14.659   8.397
  670POPC   C3A11765  23.975  14.542   8.008
  670POPC   C4A11766  23.617  14.309   7.880
  670POPC   C1B11767  23.445  14.574   8.745
  670POPC   C2B11768  23.318  14.774   8.397
  670POPC   C3B11769  23.523  14.803   8.012
  670POPC   C4B11770  23.392  14.696   7.612
  671POPC   NC311771  44.408  31.060   9.689
  671POPC   PO411772  44.883  31.537   9.629
  671POPC   GL111773  44.686  31.438   9.214
  671POPC   GL211774  44.315  31.356   9.237
  671POPC   C1A11775  44.579  31.569   8.768
  671POPC   D2A11776  44.542  31.874   8.405
  671POPC   C3A11777  44.597  31.681   7.983
  671POPC   C4A11778  44.428  31.815   7.594
  671POPC   C1B11779  44.442  31.085   8.879
  671POPC   C2B11780  44.529  31.169   8.442
  671POPC   C3B11781  44.369  30.931   8.110
  671POPC   C4B11782  44.162  30.987   7.706
  672POPC   NC311783  35.529  16.150   9.469
  672POPC   PO411784  35.110  15.607   9.562
  672POPC   GL111785  35.082  15.813   9.186
  672POPC   GL211786  35.444  15.831   9.050
  672POPC   C1A11787  35.050  16.029   8.807
  672POPC   D2A11788  35.259  15.909   8.430
  672POPC   C3A11789  35.035  16.070   8.075
  672POPC   C4A11790  35.015  15.829   7.710
  672POPC   C1B11791  35.546  16.209   8.740
  672POPC   C2B11792  35.597  16.238   8.252
  672POPC   C3B11793  35.489  16.067   7.837
  672POPC   C4B11794  35.644  16.225   7.433
  673POPC   NC311795  23.966   5.407   9.442
  673POPC   PO411796  23.421   5.176   9.772
  673POPC   GL111797  23.581   5.053   9.293
  673POPC   GL211798  23.852   4.876   9.222
  673POPC   C1A11799  23.800   5.156   8.816
  673POPC   D2A11800  23.939   5.193   8.355
  673POPC   C3A11801  23.646   5.160   7.997
  673POPC   C4A11802  23.703   5.078   7.558
  673POPC   C1B11803  23.591   4.698   8.809
  673POPC   C2B11804  23.685   4.751   8.318
  673POPC   C3B11805  23.617   4.672   7.845
  673POPC   C4B11806  23.547   4.568   7.382
  674POPC   NC311807  29.868  41.925   9.465
  674POPC   PO411808  30.119  42.545   9.685
  674POPC   GL111809  29.987  42.407   9.263
  674POPC   GL211810  29.739  42.636   9.296
  674POPC   C1A11811  29.830  42.198   8.842
  674POPC   D2A11812  30.030  42.420   8.482
  674POPC   C3A11813  30.172  42.290   8.071
  674POPC   C4A11814  29.943  42.124   7.740
  674POPC   C1B11815  29.713  42.686   8.846
  674POPC   C2B11816  29.700  42.860   8.431
  674POPC   C3B11817  29.797  42.662   8.040
  674POPC   C4B11818  29.629  42.521   7.667
  675POPC   NC311819   4.848  24.399   9.530
  675POPC   PO411820   5.506  24.651   9.412
  675POPC   GL111821   5.269  24.470   9.112
  675POPC   GL211822   4.896  24.513   9.057
  675POPC   C1A11823   5.247  24.344   8.692
  675POPC   D2A11824   4.919  24.146   8.440
  675POPC   C3A11825   4.852  24.324   8.054
  675POPC   C4A11826   5.191  24.523   7.890
  675POPC   C1B11827   4.880  24.840   8.793
  675POPC   C2B11828   4.969  24.694   8.400
  675POPC   C3B11829   4.873  24.881   8.052
  675POPC   C4B11830   5.016  24.972   7.639
  676POPC   NC311831  40.072   7.176   9.593
  676POPC   PO411832  39.434   7.394   9.624
  676POPC   GL111833  39.752   7.379   9.189
  676POPC   GL211834  40.122   7.287   9.116
  676POPC   C1A11835  39.893   7.524   8.744
  676POPC   D2A11836  39.869   7.772   8.372
  676POPC   C3A11837  40.049   7.542   8.004
  676POPC   C4A11838  39.961   7.658   7.574
  676POPC   C1B11839  40.420   7.173   8.798
  676POPC   C2B11840  40.426   7.102   8.345
  676POPC   C3B11841  40.406   7.104   7.868
  676POPC   C4B11842  40.179   7.184   7.499
  677POPC   NC311843  35.368  28.646   9.235
  677POPC   PO411844  35.656  28.074   9.501
  677POPC   GL111845  35.383  28.145   9.144
  677POPC   GL211846  35.060  28.242   9.049
  677POPC   C1A11847  35.479  28.270   8.708
  677POPC   D2A11848  35.392  28.144   8.284
  677POPC   C3A11849  35.160  28.457   8.100
  677POPC   C4A11850  35.091  28.553   7.693
  677POPC   C1B11851  34.935  27.942   8.735
  677POPC   C2B11852  34.825  27.970   8.314
  677POPC   C3B11853  35.026  27.974   7.927
  677POPC   C4B11854  35.393  28.144   7.755
  678POPC   NC311855   5.231  27.216   9.437
  678POPC   PO411856   5.084  26.567   9.495
  678POPC   GL111857   4.956  26.668   9.067
  678POPC   GL211858   4.988  27.029   9.032
  678POPC   C1A11859   4.964  26.742   8.605
  678POPC   D2A11860   5.258  26.698   8.260
  678POPC   C3A11861   5.057  26.825   7.906
  678POPC   C4A11862   4.716  26.607   7.770
  678POPC   C1B11863   5.265  27.182   8.680
  678POPC   C2B11864   5.370  27.233   8.233
  678POPC   C3B11865   5.415  27.158   7.783
  678POPC   C4B11866   5.291  27.159   7.359
  679POPC   NC311867  29.960  15.748   9.675
  679POPC   PO411868  29.655  16.299   9.434
  679POPC   GL111869  29.912  16.044   9.150
  679POPC   GL211870  29.969  15.686   9.182
  679POPC   C1A11871  29.822  15.901   8.739
  679POPC   D2A11872  29.803  16.105   8.381
  679POPC   C3A11873  29.613  15.930   8.055
  679POPC   C4A11874  29.713  15.981   7.667
  679POPC   C1B11875  30.196  15.587   8.847
  679POPC   C2B11876  30.248  15.821   8.461
  679POPC   C3B11877  30.148  15.921   8.033
  679POPC   C4B11878  30.370  15.642   7.762
  680POPC   NC311879  43.854  42.731   9.712
  680POPC   PO411880  44.023  42.156   9.485
  680POPC   GL111881  44.008  42.430   9.152
  680POPC   GL211882  43.841  42.751   9.147
  680POPC   C1A11883  43.863  42.414   8.735
  680POPC   D2A11884  43.761  42.279   8.318
  680POPC   C3A11885  44.058  42.296   7.990
  680POPC   C4A11886  43.904  42.237   7.588
  680POPC   C1B11887  43.641  42.870   8.716
  680POPC   C2B11888  43.652  42.892   8.248
  680POPC   C3B11889  43.657  42.595   7.901
  680POPC   C4B11890  43.635  42.679   7.462
  681POPC   NC311891  17.168  43.190   9.525
  681POPC   PO411892  17.790  42.884   9.495
  681POPC   GL111893  17.511  43.027   9.177
  681POPC   GL211894  17.573  43.335   9.249
  681POPC   C1A11895  17.307  42.892   8.773
  681POPC   D2A11896  17.493  42.949   8.372
  681POPC   C3A11897  17.305  42.867   7.957
  681POPC   C4A11898  17.509  43.068   7.593
  681POPC   C1B11899  17.402  43.401   8.835
  681POPC   C2B11900  17.524  43.464   8.414
  681POPC   C3B11901  17.424  43.377   7.996
  681POPC   C4B11902  17.516  43.580   7.621
  682POPC   NC311903   5.879  12.637   9.433
  682POPC   PO411904   5.519  13.126   9.454
  682POPC   GL111905   5.828  13.204   9.160
  682POPC   GL211906   6.156  13.027   9.175
  682POPC   C1A11907   5.847  13.095   8.758
  682POPC   D2A11908   6.076  13.136   8.423
  682POPC   C3A11909   5.787  13.074   8.143
  682POPC   C4A11910   5.757  13.073   7.719
  682POPC   C1B11911   6.162  12.703   8.803
  682POPC   C2B11912   5.910  12.636   8.412
  682POPC   C3B11913   5.800  12.601   7.971
  682POPC   C4B11914   6.124  12.544   7.648
  683POPC   NC311915  28.371  15.284   9.771
  683POPC   PO411916  28.017  14.754   9.467
  683POPC   GL111917  28.236  14.909   9.119
  683POPC   GL211918  28.571  15.012   9.166
  683POPC   C1A11919  28.330  15.094   8.727
  683POPC   D2A11920  28.417  15.488   8.546
  683POPC   C3A11921  28.365  15.361   8.158
  683POPC   C4A11922  28.227  15.107   7.867
  683POPC   C1B11923  28.811  15.216   8.786
  683POPC   C2B11924  28.950  15.288   8.388
  683POPC   C3B11925  28.841  15.433   8.000
  683POPC   C4B11926  28.706  15.111   7.688
  684POPC   NC311927  34.265  31.772   9.528
  684POPC   PO411928  34.597  31.204   9.516
  684POPC   GL111929  34.451  31.433   9.186
  684POPC   GL211930  34.690  31.635   9.138
  684POPC   C1A11931  34.434  31.454   8.737
  684POPC   D2A11932  34.503  31.272   8.365
  684POPC   C3A11933  34.315  31.484   8.033
  684POPC   C4A11934  34.526  31.377   7.643
  684POPC   C1B11935  34.936  31.543   8.820
  684POPC   C2B11936  34.894  31.687   8.409
  684POPC   C3B11937  34.816  31.530   8.038
  684POPC   C4B11938  34.938  31.729   7.694
  685POPC   NC311939  36.432  15.719   9.446
  685POPC   PO411940  35.969  16.114   9.584
  685POPC   GL111941  36.148  16.066   9.190
  685POPC   GL211942  35.961  15.796   9.095
  685POPC   C1A11943  36.068  16.212   8.765
  685POPC   D2A11944  36.222  16.121   8.359
  685POPC   C3A11945  35.980  15.915   8.054
  685POPC   C4A11946  35.959  16.272   7.843
  685POPC   C1B11947  36.134  15.718   8.682
  685POPC   C2B11948  36.517  15.698   8.441
  685POPC   C3B11949  36.436  15.426   8.105
  685POPC   C4B11950  36.185  15.478   7.763
  686POPC   NC311951  12.433  29.702   9.450
  686POPC   PO411952  12.962  30.122   9.565
  686POPC   GL111953  12.945  29.875   9.215
  686POPC   GL211954  12.627  30.003   9.059
  686POPC   C1A11955  13.121  29.989   8.836
  686POPC   D2A11956  12.884  30.148   8.505
  686POPC   C3A11957  13.038  29.965   8.139
  686POPC   C4A11958  12.929  30.073   7.740
  686POPC   C1B11959  12.724  29.656   8.773
  686POPC   C2B11960  12.821  29.552   8.360
  686POPC   C3B11961  12.645  29.650   7.944
  686POPC   C4B11962  12.748  29.614   7.513
  687POPC   NC311963   0.754  43.417   9.451
  687POPC   PO411964   0.594  42.753   9.551
  687POPC   GL111965   0.348  42.957   9.212
  687POPC   GL211966   0.255  43.297   9.152
  687POPC   C1A11967   0.383  42.879   8.781
  687POPC   D2A11968   0.584  42.826   8.394
  687POPC   C3A11969   0.514  43.076   8.019
  687POPC   C4A11970   0.790  43.127   7.644
  687POPC   C1B11971   0.083  43.506   8.788
  687POPC   C2B11972  44.877  43.420   8.376
  687POPC   C3B11973   0.101  43.486   7.979
  687POPC   C4B11974   0.291  43.323   7.599
  688POPC   NC311975  15.872  42.071   9.475
  688POPC   PO411976  16.303  42.499   9.650
  688POPC   GL111977  16.127  42.417   9.223
  688POPC   GL211978  16.339  42.096   9.264
  688POPC   C1A11979  15.865  42.335   8.789
  688POPC   D2A11980  15.759  42.155   8.342
  688POPC   C3A11981  15.851  42.413   7.999
  688POPC   C4A11982  15.802  42.525   7.549
  688POPC   C1B11983  16.247  42.007   8.859
  688POPC   C2B11984  16.250  42.106   8.441
  688POPC   C3B11985  16.229  42.051   8.009
  688POPC   C4B11986  16.005  42.053   7.623
  689POPC   NC311987   7.548  25.595   9.600
  689POPC   PO411988   7.461  24.878   9.559
  689POPC   GL111989   7.636  25.185   9.288
  689POPC   GL211990   7.311  25.343   9.188
  689POPC   C1A11991   7.696  25.241   8.851
  689POPC   D2A11992   7.498  25.337   8.442
  689POPC   C3A11993   7.557  25.063   8.107
  689POPC   C4A11994   7.685  25.233   7.700
  689POPC   C1B11995   6.948  25.388   8.903
  689POPC   C2B11996   6.986  25.347   8.492
  689POPC   C3B11997   6.960  25.453   8.081
  689POPC   C4B11998   7.188  25.239   7.792
  690POPC   NC311999   3.403  27.759   9.359
  690POPC   PO412000   3.289  27.074   9.409
  690POPC   GL112001   3.439  27.348   9.067
  690POPC   GL212002   3.187  27.650   8.920
  690POPC   C1A12003   3.633  27.586   8.734
  690POPC   D2A12004   3.397  27.676   8.374
  690POPC   C3A12005   3.536  27.379   8.097
  690POPC   C4A12006   3.780  27.543   7.805
  690POPC   C1B12007   3.143  27.297   8.632
  690POPC   C2B12008   3.044  27.242   8.182
  690POPC   C3B12009   3.097  27.508   7.859
  690POPC   C4B12010   3.339  27.845   7.875
  691POPC   NC312011  32.281   9.901   9.802
  691POPC   PO412012  32.531   9.437   9.445
  691POPC   GL112013  32.273   9.494   9.109
  691POPC   GL212014  32.108   9.221   9.022
  691POPC   C1A12015  32.292   9.697   8.713
  691POPC   D2A12016  32.122   9.944   8.395
  691POPC   C3A12017  32.284   9.886   8.005
  691POPC   C4A12018  32.003  10.017   7.720
  691POPC   C1B12019  32.086   9.239   8.585
  691POPC   C2B12020  32.305   9.419   8.250
  691POPC   C3B12021  32.322   9.348   7.825
  691POPC   C4B12022  32.430   9.255   7.392
  692POPC   NC312023  14.051  29.217   9.707
  692POPC   PO412024  13.452  29.364   9.384
  692POPC   GL112025  13.458  29.369   8.954
  692POPC   GL212026  13.466  29.035   8.963
  692POPC   C1A12027  13.598  29.329   8.545
  692POPC   D2A12028  13.380  29.558   8.241
  692POPC   C3A12029  13.648  29.476   7.933
  692POPC   C4A12030  13.722  29.487   7.518
  692POPC   C1B12031  13.758  28.852   8.653
  692POPC   C2B12032  14.015  28.647   8.342
  692POPC   C3B12033  13.983  28.676   7.897
  692POPC   C4B12034  13.774  29.006   7.692
  693POPC   NC312035  34.192  26.642   9.387
  693POPC   PO412036  33.632  26.334   9.542
  693POPC   GL112037  33.631  26.714   9.255
  693POPC   GL212038  33.876  26.942   9.125
  693POPC   C1A12039  33.408  26.935   8.899
  693POPC   D2A12040  33.357  26.787   8.475
  693POPC   C3A12041  33.584  26.959   8.138
  693POPC   C4A12042  33.476  26.915   7.704
  693POPC   C1B12043  34.041  26.697   8.780
  693POPC   C2B12044  34.224  26.819   8.428
  693POPC   C3B12045  34.206  26.636   8.080
  693POPC   C4B12046  34.034  26.661   7.727
  694POPC   NC312047  37.671  31.882   9.480
  694POPC   PO412048  37.976  31.336   9.555
  694POPC   GL112049  37.714  31.393   9.190
  694POPC   GL212050  37.919  31.125   9.086
  694POPC   C1A12051  37.547  31.273   8.759
  694POPC   D2A12052  37.534  31.078   8.330
  694POPC   C3A12053  37.566  31.362   7.971
  694POPC   C4A12054  37.527  31.635   7.567
  694POPC   C1B12055  38.054  31.361   8.750
  694POPC   C2B12056  38.018  31.257   8.349
  694POPC   C3B12057  38.095  31.502   8.028
  694POPC   C4B12058  37.954  31.408   7.636
  695POPC   NC312059   7.905  23.298   9.526
  695POPC   PO412060   8.313  22.711   9.480
  695POPC   GL112061   8.145  22.987   9.194
  695POPC   GL212062   8.022  22.706   9.067
  695POPC   C1A12063   8.038  23.161   8.794
  695POPC   D2A12064   8.177  23.180   8.368
  695POPC   C3A12065   8.495  22.982   8.132
  695POPC   C4A12066   8.389  23.104   7.708
  695POPC   C1B12067   8.250  22.677   8.709
  695POPC   C2B12068   8.153  22.506   8.311
  695POPC   C3B12069   8.133  22.678   7.897
  695POPC   C4B12070   8.215  22.654   7.450
  696POPC   NC312071  39.341  41.416   9.744
  696POPC   PO412072  39.185  42.016   9.736
  696POPC   GL112073  39.234  41.634   9.305
  696POPC   GL212074  39.461  41.314   9.250
  696POPC   C1A12075  39.425  41.668   8.851
  696POPC   D2A12076  39.267  41.926   8.503
  696POPC   C3A12077  39.298  41.776   8.088
  696POPC   C4A12078  39.083  41.809   7.716
  696POPC   C1B12079  39.294  41.192   8.850
  696POPC   C2B12080  39.372  41.341   8.423
  696POPC   C3B12081  39.337  41.270   7.967
  696POPC   C4B12082  38.991  41.302   7.649
  697POPC   NC312083   8.600   7.383   9.325
  697POPC   PO412084   7.983   7.576   9.535
  697POPC   GL112085   8.187   7.582   9.111
  697POPC   GL212086   8.359   7.897   9.082
  697POPC   C1A12087   7.992   7.652   8.709
  697POPC   D2A12088   8.154   7.340   8.512
  697POPC   C3A12089   8.124   7.255   8.094
  697POPC   C4A12090   7.866   7.475   7.820
  697POPC   C1B12091   8.518   7.699   8.711
  697POPC   C2B12092   8.524   7.608   8.273
  697POPC   C3B12093   8.518   7.475   7.853
  697POPC   C4B12094   8.320   7.192   7.615
  698POPC   NC312095  40.044   1.925   9.890
  698POPC   PO412096  39.599   2.324   9.735
  698POPC   GL112097  39.804   1.947   9.374
  698POPC   GL212098  40.068   1.730   9.247
  698POPC   C1A12099  39.893   2.014   8.845
  698POPC   D2A12100  39.699   2.187   8.400
  698POPC   C3A12101  39.891   2.163   7.957
  698POPC   C4A12102  40.094   1.864   7.688
  698POPC   C1B12103  40.269   1.614   8.869
  698POPC   C2B12104  40.357   1.772   8.483
  698POPC   C3B12105  40.358   2.011   8.128
  698POPC   C4B12106  40.499   2.314   7.841
  699POPC   NC312107  42.689  40.849   9.243
  699POPC   PO412108  43.309  40.892   9.538
  699POPC   GL112109  43.257  40.808   9.097
  699POPC   GL212110  43.006  40.986   8.873
  699POPC   C1A12111  43.412  40.714   8.684
  699POPC   D2A12112  43.186  40.884   8.357
  699POPC   C3A12113  43.240  40.705   7.992
  699POPC   C4A12114  42.987  40.698   7.658
  699POPC   C1B12115  42.813  40.647   8.635
  699POPC   C2B12116  42.878  40.434   8.255
  699POPC   C3B12117  42.634  40.346   7.896
  699POPC   C4B12118  42.625  40.396   7.411
  700POPC   NC312119  43.732  33.621   9.618
  700POPC   PO412120  43.906  34.207   9.375
  700POPC   GL112121  43.776  33.805   9.148
  700POPC   GL212122  43.459  33.674   9.184
  700POPC   C1A12123  43.795  33.631   8.731
  700POPC   D2A12124  43.765  33.956   8.440
  700POPC   C3A12125  43.624  33.908   8.021
  700POPC   C4A12126  43.853  33.766   7.627
  700POPC   C1B12127  43.272  33.670   8.782
  700POPC   C2B12128  43.399  33.558   8.388
  700POPC   C3B12129  43.700  33.405   8.125
  700POPC   C4B12130  43.494  33.448   7.738
  701POPC   NC312131   6.852  20.680   9.453
  701POPC   PO412132   6.331  21.123   9.518
  701POPC   GL112133   6.293  20.761   9.181
  701POPC   GL212134   6.387  20.378   9.187
  701POPC   C1A12135   6.488  20.685   8.760
  701POPC   D2A12136   6.662  20.807   8.341
  701POPC   C3A12137   6.486  20.941   7.966
  701POPC   C4A12138   6.787  20.735   7.665
  701POPC   C1B12139   6.431  20.151   8.787
  701POPC   C2B12140   6.582  20.301   8.399
  701POPC   C3B12141   6.744  20.326   7.986
  701POPC   C4B12142   6.569  20.262   7.585
  702POPC   NC312143  36.087   9.690   9.565
  702POPC   PO412144  35.626  10.129   9.516
  702POPC   GL112145  35.914  10.002   9.203
  702POPC   GL212146  35.837   9.673   9.124
  702POPC   C1A12147  36.180   9.948   8.809
  702POPC   D2A12148  36.089   9.736   8.419
  702POPC   C3A12149  36.061   9.930   8.033
  702POPC   C4A12150  36.352   9.698   7.813
  702POPC   C1B12151  35.711   9.704   8.754
  702POPC   C2B12152  35.587   9.850   8.389
  702POPC   C3B12153  35.606   9.711   7.965
  702POPC   C4B12154  35.892   9.499   7.701
  703POPC   NC312155  10.216  20.957   9.560
  703POPC   PO412156  10.273  20.282   9.593
  703POPC   GL112157   9.992  20.507   9.243
  703POPC   GL212158  10.026  20.890   9.091
  703POPC   C1A12159   9.821  20.531   8.800
  703POPC   D2A12160  10.059  20.745   8.445
  703POPC   C3A12161   9.987  20.891   8.015
  703POPC   C4A12162   9.835  20.622   7.681
  703POPC   C1B12163   9.717  21.021   8.734
  703POPC   C2B12164   9.573  21.143   8.285
  703POPC   C3B12165   9.503  21.003   7.823
  703POPC   C4B12166   9.481  20.808   7.366
  704POPC   NC312167  43.234   2.129   9.647
  704POPC   PO412168  42.598   1.954   9.558
  704POPC   GL112169  42.871   1.911   9.205
  704POPC   GL212170  43.134   2.124   9.146
  704POPC   C1A12171  42.835   1.728   8.790
  704POPC   D2A12172  42.635   1.722   8.363
  704POPC   C3A12173  42.971   1.642   8.056
  704POPC   C4A12174  43.359   1.827   7.922
  704POPC   C1B12175  43.013   2.225   8.726
  704POPC   C2B12176  42.970   2.113   8.279
  704POPC   C3B12177  42.972   2.183   7.813
  704POPC   C4B12178  43.213   2.237   7.399
  705POPC   NC312179  13.293  34.397   9.392
  705POPC   PO412180  13.724  33.910   9.355
  705POPC   GL112181  13.410  33.948   9.093
  705POPC   GL212182  13.434  34.259   8.926
  705POPC   C1A12183  13.490  33.684   8.743
  705POPC   D2A12184  13.874  33.620   8.493
  705POPC   C3A12185  13.697  33.599   8.098
  705POPC   C4A12186  13.713  33.519   7.691
  705POPC   C1B12187  13.792  34.111   8.675
  705POPC   C2B12188  13.800  34.075   8.231
  705POPC   C3B12189  13.500  34.027   7.888
  705POPC   C4B12190  13.558  33.989   7.441
  706POPC   NC312191  29.970  26.849   9.587
  706POPC   PO412192  30.646  26.877   9.520
  706POPC   GL112193  30.265  26.910   9.176
  706POPC   GL212194  29.869  26.750   9.105
  706POPC   C1A12195  30.157  26.970   8.750
  706POPC   D2A12196  29.926  26.642   8.559
  706POPC   C3A12197  29.938  26.576   8.140
  706POPC   C4A12198  29.999  26.753   7.736
  706POPC   C1B12199  29.625  26.998   8.771
  706POPC   C2B12200  29.639  27.068   8.335
  706POPC   C3B12201  29.482  26.879   7.984
  706POPC   C4B12202  29.548  26.889   7.545
  707POPC   NC312203  25.258  44.771   9.497
  707POPC   PO412204  24.732  44.324   9.418
  707POPC   GL112205  25.132  44.442   9.135
  707POPC   GL212206  25.519  44.614   9.099
  707POPC   C1A12207  25.175  44.643   8.734
  707POPC   D2A12208  25.116  44.371   8.401
  707POPC   C3A12209  25.107  44.536   8.043
  707POPC   C4A12210  25.063  44.458   7.628
  707POPC   C1B12211  25.676  44.818   8.731
  707POPC   C2B12212  25.438  44.821   8.318
  707POPC   C3B12213  25.582  44.656   7.917
  707POPC   C4B12214  25.617  44.907   7.502
  708POPC   NC312215  43.683   8.167   9.515
  708POPC   PO412216  44.195   7.772   9.392
  708POPC   GL112217  43.935   7.997   9.094
  708POPC   GL212218  43.896   8.366   9.100
  708POPC   C1A12219  44.047   8.078   8.690
  708POPC   D2A12220  44.094   8.333   8.326
  708POPC   C3A12221  44.056   8.100   7.958
  708POPC   C4A12222  44.049   8.220   7.551
  708POPC   C1B12223  43.607   8.377   8.768
  708POPC   C2B12224  43.619   8.587   8.364
  708POPC   C3B12225  43.810   8.585   7.944
  708POPC   C4B12226  43.583   8.447   7.572
  709POPC   NC312227  39.513   8.096   9.748
  709POPC   PO412228  39.920   7.791   9.390
  709POPC   GL112229  39.844   7.925   9.033
  709POPC   GL212230  39.794   8.250   9.096
  709POPC   C1A12231  40.124   8.102   8.714
  709POPC   D2A12232  40.450   8.137   8.397
  709POPC   C3A12233  40.299   8.002   8.021
  709POPC   C4A12234  40.163   8.392   7.788
  709POPC   C1B12235  39.592   8.188   8.683
  709POPC   C2B12236  39.819   8.290   8.303
  709POPC   C3B12237  39.813   8.039   7.927
  709POPC   C4B12238  39.808   8.139   7.539
  710POPC   NC312239   7.652  21.201   9.494
  710POPC   PO412240   7.079  21.485   9.273
  710POPC   GL112241   7.477  21.461   9.074
  710POPC   GL212242   7.673  21.778   9.173
  710POPC   C1A12243   7.648  21.165   8.763
  710POPC   D2A12244   7.555  21.224   8.332
  710POPC   C3A12245   7.721  21.136   7.933
  710POPC   C4A12246   7.375  21.376   7.728
  710POPC   C1B12247   7.449  21.910   8.784
  710POPC   C2B12248   7.187  21.624   8.529
  710POPC   C3B12249   7.108  21.640   8.088
  710POPC   C4B12250   7.286  21.886   7.746
  711POPC   NC312251  42.320  16.703   9.513
  711POPC   PO412252  42.809  16.364   9.179
  711POPC   GL112253  42.523  16.719   9.000
  711POPC   GL212254  42.229  16.979   9.107
  711POPC   C1A12255  42.523  16.679   8.543
  711POPC   D2A12256  42.447  16.413   8.181
  711POPC   C3A12257  42.264  16.688   7.865
  711POPC   C4A12258  42.449  16.966   7.565
  711POPC   C1B12259  42.035  16.902   8.718
  711POPC   C2B12260  42.055  16.923   8.275
  711POPC   C3B12261  41.884  17.064   7.866
  711POPC   C4B12262  42.042  17.262   7.478
  712POPC   NC312263  19.550  22.356   9.500
  712POPC   PO412264  20.062  21.957   9.428
  712POPC   GL112265  19.770  22.063   9.126
  712POPC   GL212266  19.877  22.415   9.101
  712POPC   C1A12267  19.809  22.143   8.688
  712POPC   D2A12268  20.121  22.220   8.417
  712POPC   C3A12269  19.929  22.030   8.086
  712POPC   C4A12270  19.859  22.162   7.703
  712POPC   C1B12271  19.557  22.566   8.817
  712POPC   C2B12272  19.413  22.438   8.427
  712POPC   C3B12273  19.557  22.403   8.038
  712POPC   C4B12274  19.441  22.470   7.624
  713POPC   NC312275  40.488  34.616   9.875
  713POPC   PO412276  40.962  34.525   9.460
  713POPC   GL112277  40.815  34.703   9.136
  713POPC   GL212278  40.629  34.416   9.078
  713POPC   C1A12279  40.661  34.781   8.737
  713POPC   D2A12280  40.721  34.510   8.401
  713POPC   C3A12281  40.667  34.760   8.052
  713POPC   C4A12282  40.714  34.702   7.637
  713POPC   C1B12283  40.387  34.278   8.750
  713POPC   C2B12284  40.192  34.122   8.400
  713POPC   C3B12285  40.338  34.326   8.057
  713POPC   C4B12286  40.482  34.234   7.647
  714POPC   NC312287  43.637  25.378   9.270
  714POPC   PO412288  43.749  25.950   9.578
  714POPC   GL112289  43.836  26.138   9.151
  714POPC   GL212290  43.556  26.050   8.960
  714POPC   C1A12291  44.033  26.073   8.749
  714POPC   D2A12292  44.004  25.962   8.332
  714POPC   C3A12293  44.089  26.224   7.992
  714POPC   C4A12294  44.042  26.137   7.548
  714POPC   C1B12295  43.690  25.692   8.660
  714POPC   C2B12296  43.648  25.642   8.206
  714POPC   C3B12297  43.636  25.904   7.824
  714POPC   C4B12298  43.359  25.905   7.448
  715POPC   NC312299  34.033  12.598   9.383
  715POPC   PO412300  33.664  13.047   9.475
  715POPC   GL112301  33.796  13.013   9.049
  715POPC   GL212302  33.912  12.667   8.917
  715POPC   C1A12303  33.701  12.992   8.614
  715POPC   D2A12304  33.837  12.642   8.379
  715POPC   C3A12305  33.848  12.802   7.993
  715POPC   C4A12306  33.837  13.042   7.666
  715POPC   C1B12307  34.244  12.471   8.665
  715POPC   C2B12308  34.208  12.207   8.329
  715POPC   C3B12309  34.128  12.385   7.956
  715POPC   C4B12310  34.212  12.675   7.642
  716POPC   NC312311  29.064   3.333   9.401
  716POPC   PO412312  29.316   3.859   9.367
  716POPC   GL112313  29.399   3.616   9.000
  716POPC   GL212314  29.349   3.243   8.951
  716POPC   C1A12315  29.182   3.585   8.616
  716POPC   D2A12316  29.205   3.312   8.293
  716POPC   C3A12317  29.285   3.552   7.938
  716POPC   C4A12318  29.204   3.954   7.722
  716POPC   C1B12319  28.916   3.152   8.775
  716POPC   C2B12320  28.701   3.217   8.400
  716POPC   C3B12321  28.764   3.346   7.990
  716POPC   C4B12322  28.978   3.189   7.659
  717POPC   NC312323  43.768  35.910   9.489
  717POPC   PO412324  43.612  36.511   9.635
  717POPC   GL112325  43.497  36.312   9.255
  717POPC   GL212326  43.846  36.319   9.169
  717POPC   C1A12327  43.537  36.113   8.828
  717POPC   D2A12328  43.747  36.247   8.457
  717POPC   C3A12329  43.603  36.121   8.060
  717POPC   C4A12330  43.784  36.227   7.679
  717POPC   C1B12331  44.103  36.152   8.837
  717POPC   C2B12332  44.128  35.910   8.451
  717POPC   C3B12333  44.138  36.139   8.067
  717POPC   C4B12334  44.284  36.394   7.719
  718POPC   NC312335  37.048  37.049   9.520
  718POPC   PO412336  37.005  36.408   9.307
  718POPC   GL112337  36.734  36.747   9.191
  718POPC   GL212338  36.824  37.094   9.088
  718POPC   C1A12339  36.660  36.708   8.771
  718POPC   D2A12340  36.887  36.549   8.423
  718POPC   C3A12341  36.741  36.720   8.035
  718POPC   C4A12342  36.737  36.925   7.664
  718POPC   C1B12343  36.739  37.263   8.749
  718POPC   C2B12344  36.658  37.102   8.405
  718POPC   C3B12345  36.759  37.248   8.044
  718POPC   C4B12346  36.564  37.424   7.671
  719POPC   NC312347  29.341  17.098   9.506
  719POPC   PO412348  28.837  16.657   9.464
  719POPC   GL112349  28.938  16.664   9.078
  719POPC   GL212350  29.251  16.768   9.133
  719POPC   C1A12351  29.072  16.531   8.695
  719POPC   D2A12352  28.927  16.383   8.329
  719POPC   C3A12353  29.038  16.711   8.018
  719POPC   C4A12354  29.048  16.769   7.572
  719POPC   C1B12355  29.296  17.027   8.798
  719POPC   C2B12356  29.349  16.887   8.385
  719POPC   C3B12357  29.539  16.859   7.979
  719POPC   C4B12358  29.502  17.022   7.583
  720POPC   NC312359  41.418  19.807   9.537
  720POPC   PO412360  41.960  20.211   9.459
  720POPC   GL112361  41.754  19.876   9.167
  720POPC   GL212362  41.706  19.465   9.264
  720POPC   C1A12363  41.462  19.955   8.804
  720POPC   D2A12364  41.369  20.176   8.416
  720POPC   C3A12365  41.471  19.999   8.003
  720POPC   C4A12366  41.224  19.947   7.621
  720POPC   C1B12367  41.674  19.491   8.799
  720POPC   C2B12368  41.712  19.705   8.384
  720POPC   C3B12369  41.704  19.515   7.971
  720POPC   C4B12370  41.612  19.633   7.532
  721POPC   NC312371  23.785  44.723   9.590
  721POPC   PO412372  23.140  44.820   9.576
  721POPC   GL112373  23.442  44.805   9.204
  721POPC   GL212374  23.686  44.512   9.130
  721POPC   C1A12375  23.376  44.749   8.760
  721POPC   D2A12376  23.564   0.005   8.450
  721POPC   C3A12377  23.718  44.830   8.083
  721POPC   C4A12378  23.534  44.757   7.708
  721POPC   C1B12379  23.877  44.770   8.778
  721POPC   C2B12380  24.076  44.670   8.407
  721POPC   C3B12381  24.162  44.578   7.991
  721POPC   C4B12382  24.045  44.707   7.609
  722POPC   NC312383   1.333  38.867   9.679
  722POPC   PO412384   0.894  38.312   9.764
  722POPC   GL112385   0.896  38.412   9.287
  722POPC   GL212386   0.995  38.771   9.254
  722POPC   C1A12387   1.172  38.309   8.886
  722POPC   D2A12388   1.477  38.496   8.590
  722POPC   C3A12389   1.319  38.398   8.188
  722POPC   C4A12390   1.478  38.139   7.899
  722POPC   C1B12391   1.220  38.827   8.884
  722POPC   C2B12392   1.112  38.802   8.447
  722POPC   C3B12393   1.247  38.887   8.029
  722POPC   C4B12394   1.218  38.904   7.585
  723POPC   NC312395   4.376  38.131   9.608
  723POPC   PO412396   4.211  38.746   9.811
  723POPC   GL112397   4.371  38.660   9.362
  723POPC   GL212398   4.604  38.410   9.238
  723POPC   C1A12399   4.227  38.666   8.902
  723POPC   D2A12400   4.074  38.877   8.496
  723POPC   C3A12401   4.128  38.636   8.106
  723POPC   C4A12402   4.283  38.460   7.737
  723POPC   C1B12403   4.744  38.668   8.883
  723POPC   C2B12404   4.554  38.634   8.484
  723POPC   C3B12405   4.677  38.638   8.050
  723POPC   C4B12406   4.813  38.752   7.627
  724POPC   NC312407  30.408  22.499   9.317
  724POPC   PO412408  30.174  21.914   9.681
  724POPC   GL112409  29.981  22.024   9.232
  724POPC   GL212410  29.924  22.361   9.098
  724POPC   C1A12411  29.923  21.964   8.759
  724POPC   D2A12412  29.985  21.653   8.416
  724POPC   C3A12413  30.199  21.717   8.060
  724POPC   C4A12414  29.960  21.954   7.771
  724POPC   C1B12415  29.658  22.411   8.754
  724POPC   C2B12416  29.780  22.453   8.360
  724POPC   C3B12417  29.782  22.396   7.948
  724POPC   C4B12418  30.147  22.537   7.782
  725POPC   NC312419   5.397   8.266   9.573
  725POPC   PO412420   6.058   8.262   9.622
  725POPC   GL112421   6.031   8.122   9.214
  725POPC   GL212422   5.664   8.104   9.126
  725POPC   C1A12423   6.044   7.999   8.798
  725POPC   D2A12424   5.763   8.191   8.524
  725POPC   C3A12425   5.941   8.182   8.139
  725POPC   C4A12426   5.777   8.143   7.758
  725POPC   C1B12427   5.508   8.469   8.893
  725POPC   C2B12428   5.427   8.582   8.483
  725POPC   C3B12429   5.589   8.561   8.070
  725POPC   C4B12430   5.387   8.501   7.679
  726POPC   NC312431  14.284  37.093   9.372
  726POPC   PO412432  14.909  36.906   9.561
  726POPC   GL112433  14.616  36.816   9.125
  726POPC   GL212434  14.450  37.111   8.903
  726POPC   C1A12435  14.662  36.736   8.676
  726POPC   D2A12436  14.496  36.998   8.361
  726POPC   C3A12437  14.638  36.956   7.961
  726POPC   C4A12438  14.510  37.247   7.635
  726POPC   C1B12439  14.120  36.869   8.698
  726POPC   C2B12440  14.058  36.733   8.260
  726POPC   C3B12441  14.132  36.979   7.888
  726POPC   C4B12442  14.066  36.996   7.445
  727POPC   NC312443   5.528  13.573   9.400
  727POPC   PO412444   4.888  13.604   9.433
  727POPC   GL112445   5.136  13.776   9.069
  727POPC   GL212446   5.518  13.795   8.956
  727POPC   C1A12447   5.143  13.823   8.620
  727POPC   D2A12448   5.351  13.827   8.237
  727POPC   C3A12449   5.080  13.803   7.884
  727POPC   C4A12450   5.006  13.399   7.769
  727POPC   C1B12451   5.401  13.392   8.739
  727POPC   C2B12452   5.261  13.318   8.301
  727POPC   C3B12453   5.479  13.434   7.931
  727POPC   C4B12454   5.466  13.462   7.487
  728POPC   NC312455  31.308  15.084   9.401
  728POPC   PO412456  31.897  15.551   9.586
  728POPC   GL112457  31.719  15.380   9.221
  728POPC   GL212458  31.784  15.008   9.137
  728POPC   C1A12459  31.491  15.385   8.836
  728POPC   D2A12460  31.274  15.224   8.514
  728POPC   C3A12461  31.327  15.335   8.089
  728POPC   C4A12462  31.607  15.240   7.816
  728POPC   C1B12463  31.704  14.939   8.708
  728POPC   C2B12464  31.574  14.873   8.278
  728POPC   C3B12465  31.627  14.745   7.861
  728POPC   C4B12466  31.407  14.900   7.505
  729POPC   NC312467  23.837   8.293   9.525
  729POPC   PO412468  23.943   7.573   9.586
  729POPC   GL112469  23.812   7.868   9.202
  729POPC   GL212470  23.601   8.212   9.090
  729POPC   C1A12471  23.997   8.089   8.815
  729POPC   D2A12472  23.800   8.259   8.421
  729POPC   C3A12473  23.885   8.008   8.070
  729POPC   C4A12474  23.850   8.070   7.610
  729POPC   C1B12475  23.522   7.936   8.748
  729POPC   C2B12476  23.395   7.971   8.315
  729POPC   C3B12477  23.422   8.183   7.942
  729POPC   C4B12478  23.284   8.075   7.563
  730POPC   NC312479  37.060  18.539   9.822
  730POPC   PO412480  36.648  18.205   9.433
  730POPC   GL112481  36.779  18.429   9.081
  730POPC   GL212482  37.118  18.550   9.171
  730POPC   C1A12483  36.717  18.179   8.708
  730POPC   D2A12484  36.518  18.131   8.311
  730POPC   C3A12485  36.853  18.007   8.024
  730POPC   C4A12486  37.048  18.148   7.652
  730POPC   C1B12487  37.219  18.370   8.778
  730POPC   C2B12488  37.060  18.341   8.370
  730POPC   C3B12489  37.255  18.416   8.021
  730POPC   C4B12490  37.193  18.629   7.652
  731POPC   NC312491  40.964  36.379   9.725
  731POPC   PO412492  40.489  36.914   9.572
  731POPC   GL112493  40.632  36.898   9.151
  731POPC   GL212494  40.871  37.107   9.040
  731POPC   C1A12495  40.609  36.751   8.755
  731POPC   D2A12496  40.712  36.987   8.388
  731POPC   C3A12497  40.835  36.897   7.946
  731POPC   C4A12498  40.727  36.894   7.474
  731POPC   C1B12499  41.148  37.214   8.767
  731POPC   C2B12500  41.200  37.122   8.373
  731POPC   C3B12501  41.212  37.262   7.959
  731POPC   C4B12502  41.196  37.075   7.558
  732POPC   NC312503  24.811  22.748   9.618
  732POPC   PO412504  24.275  23.104   9.721
  732POPC   GL112505  24.446  22.997   9.309
  732POPC   GL212506  24.403  23.322   9.250
  732POPC   C1A12507  24.451  22.902   8.820
  732POPC   D2A12508  24.449  22.920   8.335
  732POPC   C3A12509  24.449  23.013   7.870
  732POPC   C4A12510  24.252  22.919   7.430
  732POPC   C1B12511  24.702  23.318   8.926
  732POPC   C2B12512  24.656  23.433   8.482
  732POPC   C3B12513  24.775  23.397   8.064
  732POPC   C4B12514  24.859  23.344   7.622
  733POPC   NC312515   7.753  14.450   9.548
  733POPC   PO412516   8.307  14.067   9.493
  733POPC   GL112517   8.210  14.275   9.109
  733POPC   GL212518   7.951  14.544   9.071
  733POPC   C1A12519   8.411  14.439   8.763
  733POPC   D2A12520   8.228  14.470   8.370
  733POPC   C3A12521   8.443  14.468   7.991
  733POPC   C4A12522   8.364  14.209   7.619
  733POPC   C1B12523   7.737  14.584   8.660
  733POPC   C2B12524   7.796  14.647   8.187
  733POPC   C3B12525   7.938  14.437   7.817
  733POPC   C4B12526   7.886  14.014   7.774
  734POPC   NC312527  23.833   6.758   9.408
  734POPC   PO412528  23.775   6.069   9.493
  734POPC   GL112529  24.054   6.363   9.137
  734POPC   GL212530  24.104   6.779   9.006
  734POPC   C1A12531  24.085   6.455   8.645
  734POPC   D2A12532  23.768   6.649   8.416
  734POPC   C3A12533  23.817   6.919   8.082
  734POPC   C4A12534  23.637   6.594   7.842
  734POPC   C1B12535  23.858   7.068   8.719
  734POPC   C2B12536  23.464   7.088   8.441
  734POPC   C3B12537  23.301   6.993   8.030
  734POPC   C4B12538  23.525   7.050   7.663
  735POPC   NC312539  32.699  31.660   9.304
  735POPC   PO412540  32.521  31.177   9.895
  735POPC   GL112541  32.471  31.206   9.365
  735POPC   GL212542  32.209  31.477   9.221
  735POPC   C1A12543  32.461  31.225   8.855
  735POPC   D2A12544  32.518  31.580   8.559
  735POPC   C3A12545  32.549  31.511   8.107
  735POPC   C4A12546  32.517  31.124   7.878
  735POPC   C1B12547  32.039  31.553   8.788
  735POPC   C2B12548  31.992  31.501   8.306
  735POPC   C3B12549  32.092  31.637   7.850
  735POPC   C4B12550  32.112  31.860   7.412
  736POPC   NC312551  19.157   3.209   9.714
  736POPC   PO412552  19.330   3.798   9.629
  736POPC   GL112553  19.045   3.556   9.324
  736POPC   GL212554  19.321   3.417   9.187
  736POPC   C1A12555  18.845   3.536   8.886
  736POPC   D2A12556  18.948   3.804   8.495
  736POPC   C3A12557  19.005   3.622   8.137
  736POPC   C4A12558  18.937   3.215   8.009
  736POPC   C1B12559  19.316   3.602   8.782
  736POPC   C2B12560  19.309   3.334   8.426
  736POPC   C3B12561  19.429   3.386   8.008
  736POPC   C4B12562  19.288   3.748   7.730
  737POPC   NC312563  37.089  18.064   9.340
  737POPC   PO412564  37.000  17.374   9.450
  737POPC   GL112565  36.880  17.623   9.117
  737POPC   GL212566  37.214  17.581   8.979
  737POPC   C1A12567  36.608  17.643   8.755
  737POPC   D2A12568  36.743  17.577   8.347
  737POPC   C3A12569  36.588  17.567   7.946
  737POPC   C4A12570  36.887  17.675   7.577
  737POPC   C1B12571  36.973  17.258   8.742
  737POPC   C2B12572  37.041  17.120   8.330
  737POPC   C3B12573  37.043  17.366   7.957
  737POPC   C4B12574  37.288  17.360   7.534
  738POPC   NC312575  43.512  41.331   9.545
  738POPC   PO412576  43.069  41.862   9.508
  738POPC   GL112577  43.233  41.723   9.125
  738POPC   GL212578  43.307  41.356   9.081
  738POPC   C1A12579  43.338  41.783   8.697
  738POPC   D2A12580  43.073  41.690   8.333
  738POPC   C3A12581  43.136  41.316   8.079
  738POPC   C4A12582  42.901  41.192   7.713
  738POPC   C1B12583  43.367  41.267   8.645
  738POPC   C2B12584  43.592  41.488   8.325
  738POPC   C3B12585  43.475  41.714   7.994
  738POPC   C4B12586  43.359  41.437   7.608
  739POPC   NC312587  42.878   4.259   9.560
  739POPC   PO412588  43.566   4.232   9.513
  739POPC   GL112589  43.253   4.333   9.162
  739POPC   GL212590  42.908   4.401   9.032
  739POPC   C1A12591  43.317   4.415   8.726
  739POPC   D2A12592  43.268   4.141   8.388
  739POPC   C3A12593  43.375   4.385   8.059
  739POPC   C4A12594  43.121   4.396   7.748
  739POPC   C1B12595  42.851   4.076   8.736
  739POPC   C2B12596  42.807   3.900   8.320
  739POPC   C3B12597  42.755   4.049   7.903
  739POPC   C4B12598  42.643   4.387   7.611
  740POPC   NC312599  35.359  31.030   9.577
  740POPC   PO412600  35.552  30.367   9.469
  740POPC   GL112601  35.359  30.650   9.220
  740POPC   GL212602  35.656  30.871   9.217
  740POPC   C1A12603  35.193  30.581   8.827
  740POPC   D2A12604  35.050  30.500   8.428
  740POPC   C3A12605  35.268  30.433   8.080
  740POPC   C4A12606  35.024  30.389   7.741
  740POPC   C1B12607  35.458  31.017   8.870
  740POPC   C2B12608  35.400  30.875   8.451
  740POPC   C3B12609  35.186  30.908   8.056
  740POPC   C4B12610  35.542  31.053   7.849
  741POPC   NC312611  42.409   4.832   9.555
  741POPC   PO412612  42.698   5.469   9.541
  741POPC   GL112613  42.505   5.207   9.186
  741POPC   GL212614  42.143   5.197   9.167
  741POPC   C1A12615  42.477   5.050   8.737
  741POPC   D2A12616  42.278   4.838   8.371
  741POPC   C3A12617  42.384   5.089   7.998
  741POPC   C4A12618  42.490   4.995   7.522
  741POPC   C1B12619  41.963   5.138   8.753
  741POPC   C2B12620  42.074   5.366   8.381
  741POPC   C3B12621  41.949   5.400   7.981
  741POPC   C4B12622  42.021   5.113   7.649
  742POPC   NC312623   4.209  19.553  10.012
  742POPC   PO412624   4.370  19.932   9.531
  742POPC   GL112625   4.224  19.792   9.153
  742POPC   GL212626   4.433  19.684   8.972
  742POPC   C1A12627   3.959  19.839   8.777
  742POPC   D2A12628   4.128  19.804   8.369
  742POPC   C3A12629   3.957  19.969   7.990
  742POPC   C4A12630   4.197  19.792   7.690
  742POPC   C1B12631   4.388  20.130   8.822
  742POPC   C2B12632   4.573  20.145   8.455
  742POPC   C3B12633   4.462  20.043   8.054
  742POPC   C4B12634   4.590  20.169   7.661
  743POPC   NC312635  11.556  22.710   9.520
  743POPC   PO412636  11.321  22.059   9.761
  743POPC   GL112637  11.253  22.277   9.381
  743POPC   GL212638  11.579  22.289   9.238
  743POPC   C1A12639  11.071  22.251   8.957
  743POPC   D2A12640  11.139  22.175   8.510
  743POPC   C3A12641  10.964  22.109   8.098
  743POPC   C4A12642  11.112  22.204   7.691
  743POPC   C1B12643  11.743  22.381   8.843
  743POPC   C2B12644  11.665  22.165   8.468
  743POPC   C3B12645  11.480  22.171   8.076
  743POPC   C4B12646  11.604  22.083   7.670
  744POPC   NC312647  20.411  39.738   9.504
  744POPC   PO412648  20.788  39.201   9.567
  744POPC   GL112649  20.651  39.409   9.152
  744POPC   GL212650  20.907  39.678   9.111
  744POPC   C1A12651  20.527  39.173   8.738
  744POPC   D2A12652  20.528  38.992   8.311
  744POPC   C3A12653  20.500  39.202   7.903
  744POPC   C4A12654  20.730  39.205   7.457
  744POPC   C1B12655  20.891  39.515   8.673
  744POPC   C2B12656  20.886  39.345   8.219
  744POPC   C3B12657  20.838  39.567   7.792
  744POPC   C4B12658  20.998  39.660   7.346
  745POPC   NC312659  17.335  14.722   9.544
  745POPC   PO412660  17.973  14.697   9.802
  745POPC   GL112661  17.757  14.475   9.378
  745POPC   GL212662  17.468  14.241   9.308
  745POPC   C1A12663  17.719  14.451   8.878
  745POPC   D2A12664  17.682  14.608   8.403
  745POPC   C3A12665  17.547  14.407   7.976
  745POPC   C4A12666  17.420  14.467   7.497
  745POPC   C1B12667  17.370  14.090   8.864
  745POPC   C2B12668  17.339  14.173   8.396
  745POPC   C3B12669  17.399  13.924   7.992
  745POPC   C4B12670  17.262  13.952   7.513
  746POPC   NC312671  38.901  28.485   9.519
  746POPC   PO412672  38.275  28.114   9.653
  746POPC   GL112673  38.439  28.289   9.284
  746POPC   GL212674  38.427  27.969   9.145
  746POPC   C1A12675  38.722  28.390   8.906
  746POPC   D2A12676  38.558  28.478   8.499
  746POPC   C3A12677  38.699  28.438   8.091
  746POPC   C4A12678  38.466  28.627   7.773
  746POPC   C1B12679  38.270  28.160   8.786
  746POPC   C2B12680  38.179  28.081   8.372
  746POPC   C3B12681  38.358  28.059   7.990
  746POPC   C4B12682  38.294  28.073   7.590
  747POPC   NC312683  15.580  19.813   9.430
  747POPC   PO412684  16.008  19.302   9.355
  747POPC   GL112685  15.901  19.622   9.036
  747POPC   GL212686  15.922  19.995   9.078
  747POPC   C1A12687  15.812  19.738   8.603
  747POPC   D2A12688  16.007  19.903   8.223
  747POPC   C3A12689  15.923  19.640   7.845
  747POPC   C4A12690  15.696  19.412   7.499
  747POPC   C1B12691  15.638  20.185   8.745
  747POPC   C2B12692  15.517  20.125   8.321
  747POPC   C3B12693  15.674  20.207   7.935
  747POPC   C4B12694  16.052  20.143   7.742
  748POPC   NC312695   4.130  12.818   9.974
  748POPC   PO412696   4.529  12.988   9.480
  748POPC   GL112697   4.236  12.741   9.274
  748POPC   GL212698   4.132  12.948   9.024
  748POPC   C1A12699   4.333  12.500   8.892
  748POPC   D2A12700   4.211  12.680   8.491
  748POPC   C3A12701   4.464  12.642   8.124
  748POPC   C4A12702   4.309  12.609   7.720
  748POPC   C1B12703   4.529  12.973   8.813
  748POPC   C2B12704   4.550  13.149   8.439
  748POPC   C3B12705   4.303  13.133   8.108
  748POPC   C4B12706   4.450  13.103   7.699
  749POPC   NC312707  24.149  11.474   9.341
  749POPC   PO412708  24.786  11.391   9.386
  749POPC   GL112709  24.528  11.227   9.097
  749POPC   GL212710  24.351  10.949   9.257
  749POPC   C1A12711  24.552  11.263   8.672
  749POPC   D2A12712  24.825  11.272   8.332
  749POPC   C3A12713  24.731  11.596   8.064
  749POPC   C4A12714  24.378  11.592   7.789
  749POPC   C1B12715  24.380  10.784   8.833
  749POPC   C2B12716  24.314  10.906   8.393
  749POPC   C3B12717  24.415  11.128   8.016
  749POPC   C4B12718  24.383  11.129   7.548
  750POPC   NC312719  42.060  35.248   9.802
  750POPC   PO412720  42.589  35.322   9.427
  750POPC   GL112721  42.385  35.298   9.099
  750POPC   GL212722  42.070  35.354   9.269
  750POPC   C1A12723  42.438  35.189   8.710
  750POPC   D2A12724  42.221  35.233   8.364
  750POPC   C3A12725  42.344  35.521   8.048
  750POPC   C4A12726  42.458  35.361   7.660
  750POPC   C1B12727  41.936  35.424   8.852
  750POPC   C2B12728  41.869  35.607   8.446
  750POPC   C3B12729  41.860  35.420   8.062
  750POPC   C4B12730  41.999  35.583   7.663
  751POPC   NC312731   4.158  39.612   9.397
  751POPC   PO412732   4.606  40.125   9.526
  751POPC   GL112733   4.227  40.107   9.291
  751POPC   GL212734   4.467  40.066   9.036
  751POPC   C1A12735   4.011  39.997   8.892
  751POPC   D2A12736   4.204  39.995   8.503
  751POPC   C3A12737   4.017  39.871   8.118
  751POPC   C4A12738   3.984  40.154   7.794
  751POPC   C1B12739   4.698  40.061   8.651
  751POPC   C2B12740   4.640  39.989   8.205
  751POPC   C3B12741   4.540  40.247   7.822
  751POPC   C4B12742   4.570  40.167   7.354
  752POPC   NC312743  10.167   6.420   9.256
  752POPC   PO412744   9.799   5.807   9.436
  752POPC   GL112745   9.767   6.093   9.112
  752POPC   GL212746   9.480   6.280   9.125
  752POPC   C1A12747   9.859   5.862   8.721
  752POPC   D2A12748   9.719   5.645   8.345
  752POPC   C3A12749   9.707   5.900   7.943
  752POPC   C4A12750   9.730   5.690   7.531
  752POPC   C1B12751   9.387   5.985   8.784
  752POPC   C2B12752   9.515   6.126   8.380
  752POPC   C3B12753   9.441   6.384   8.035
  752POPC   C4B12754   9.364   6.207   7.667
  753POPC   NC312755  38.396  20.533   9.512
  753POPC   PO412756  38.966  21.000   9.411
  753POPC   GL112757  38.611  20.730   9.091
  753POPC   GL212758  38.205  20.608   9.057
  753POPC   C1A12759  38.390  20.838   8.660
  753POPC   D2A12760  38.382  21.165   8.387
  753POPC   C3A12761  38.353  20.886   8.079
  753POPC   C4A12762  38.347  20.827   7.639
  753POPC   C1B12763  38.342  20.347   8.679
  753POPC   C2B12764  38.592  20.475   8.322
  753POPC   C3B12765  38.466  20.408   7.909
  753POPC   C4B12766  38.244  20.015   7.856
  754POPC   NC312767  17.523  21.053   9.679
  754POPC   PO412768  17.274  20.551   9.930
  754POPC   GL112769  17.422  20.674   9.397
  754POPC   GL212770  17.137  20.829   9.206
  754POPC   C1A12771  17.698  20.602   8.985
  754POPC   D2A12772  17.647  20.463   8.537
  754POPC   C3A12773  17.773  20.687   8.160
  754POPC   C4A12774  17.883  20.590   7.743
  754POPC   C1B12775  17.239  20.715   8.808
  754POPC   C2B12776  17.332  20.820   8.382
  754POPC   C3B12777  17.304  20.538   8.022
  754POPC   C4B12778  17.147  20.656   7.617
  755POPC   NC312779  38.059  36.544   9.522
  755POPC   PO412780  37.408  36.818   9.692
  755POPC   GL112781  37.521  36.998   9.292
  755POPC   GL212782  37.267  36.836   9.116
  755POPC   C1A12783  37.729  36.910   8.887
  755POPC   D2A12784  37.898  36.755   8.485
  755POPC   C3A12785  37.649  36.908   8.118
  755POPC   C4A12786  37.680  36.743   7.702
  755POPC   C1B12787  37.145  36.876   8.706
  755POPC   C2B12788  37.145  36.964   8.272
  755POPC   C3B12789  37.209  36.812   7.861
  755POPC   C4B12790  37.243  36.854   7.397
  756POPC   NC312791  43.415  25.660   9.737
  756POPC   PO412792  43.036  26.236   9.534
  756POPC   GL112793  43.090  26.093   9.161
  756POPC   GL212794  43.224  25.759   9.268
  756POPC   C1A12795  42.853  26.088   8.778
  756POPC   D2A12796  42.995  25.941   8.394
  756POPC   C3A12797  42.796  26.023   8.020
  756POPC   C4A12798  42.894  26.056   7.598
  756POPC   C1B12799  43.206  25.704   8.831
  756POPC   C2B12800  43.227  25.508   8.432
  756POPC   C3B12801  43.179  25.655   7.959
  756POPC   C4B12802  42.979  25.563   7.535
  757POPC   NC312803  32.169  37.417   9.352
  757POPC   PO412804  32.662  37.928   9.522
  757POPC   GL112805  32.359  37.891   9.207
  757POPC   GL212806  31.985  37.880   9.215
  757POPC   C1A12807  32.377  37.693   8.797
  757POPC   D2A12808  32.170  37.497   8.467
  757POPC   C3A12809  32.321  37.662   8.110
  757POPC   C4A12810  32.166  37.560   7.713
  757POPC   C1B12811  31.863  37.785   8.781
  757POPC   C2B12812  31.907  37.987   8.373
  757POPC   C3B12813  31.868  38.091   7.914
  757POPC   C4B12814  31.936  37.949   7.487
  758POPC   NC312815  13.975   7.530   9.417
  758POPC   PO412816  14.592   7.180   9.480
  758POPC   GL112817  14.433   7.448   9.160
  758POPC   GL212818  14.188   7.194   9.094
  758POPC   C1A12819  14.286   7.573   8.741
  758POPC   D2A12820  14.138   7.374   8.351
  758POPC   C3A12821  14.261   7.588   7.982
  758POPC   C4A12822  14.435   7.696   7.603
  758POPC   C1B12823  14.545   7.041   8.834
  758POPC   C2B12824  14.631   7.087   8.391
  758POPC   C3B12825  14.647   7.232   7.954
  758POPC   C4B12826  14.871   7.052   7.596
  759POPC   NC312827  26.621   9.965   9.634
  759POPC   PO412828  27.020  10.534   9.767
  759POPC   GL112829  26.864  10.583   9.317
  759POPC   GL212830  26.623  10.868   9.242
  759POPC   C1A12831  26.851  10.414   8.906
  759POPC   D2A12832  27.091  10.455   8.507
  759POPC   C3A12833  26.947  10.223   8.132
  759POPC   C4A12834  26.981  10.384   7.731
  759POPC   C1B12835  26.443  10.750   8.853
  759POPC   C2B12836  26.561  10.480   8.489
  759POPC   C3B12837  26.560  10.559   8.069
  759POPC   C4B12838  26.510  10.266   7.793
  760POPC   NC312839  31.828  26.947   9.575
  760POPC   PO412840  31.492  26.393   9.299
  760POPC   GL112841  31.554  26.857   9.152
  760POPC   GL212842  31.877  27.038   9.083
  760POPC   C1A12843  31.460  26.951   8.735
  760POPC   D2A12844  31.438  26.598   8.446
  760POPC   C3A12845  31.436  26.759   8.021
  760POPC   C4A12846  31.192  26.613   7.666
  760POPC   C1B12847  31.931  26.786   8.757
  760POPC   C2B12848  31.840  26.889   8.366
  760POPC   C3B12849  31.944  27.062   7.981
  760POPC   C4B12850  31.669  27.007   7.619
  761POPC   NC312851  37.239   9.942   9.508
  761POPC   PO412852  36.559   9.769   9.497
  761POPC   GL112853  36.874   9.712   9.171
  761POPC   GL212854  36.997  10.013   9.059
  761POPC   C1A12855  36.718   9.647   8.739
  761POPC   D2A12856  36.575   9.657   8.298
  761POPC   C3A12857  36.833   9.798   7.951
  761POPC   C4A12858  36.724   9.825   7.495
  761POPC   C1B12859  37.352  10.095   8.778
  761POPC   C2B12860  37.445   9.983   8.325
  761POPC   C3B12861  37.312   9.997   7.893
  761POPC   C4B12862  37.168  10.094   7.470
  762POPC   NC312863   4.894  37.295   9.428
  762POPC   PO412864   5.362  36.807   9.601
  762POPC   GL112865   5.125  36.839   9.248
  762POPC   GL212866   4.756  36.810   9.254
  762POPC   C1A12867   5.127  36.825   8.839
  762POPC   D2A12868   5.266  36.959   8.452
  762POPC   C3A12869   4.956  36.940   8.174
  762POPC   C4A12870   4.963  36.703   7.843
  762POPC   C1B12871   4.666  37.020   8.860
  762POPC   C2B12872   4.684  37.261   8.507
  762POPC   C3B12873   4.584  37.265   8.052
  762POPC   C4B12874   4.761  37.199   7.653
  763POPC   NC312875  18.796  21.605   9.371
  763POPC   PO412876  19.104  22.239   9.479
  763POPC   GL112877  19.263  22.227   9.094
  763POPC   GL212878  19.221  21.891   9.111
  763POPC   C1A12879  19.064  22.240   8.718
  763POPC   D2A12880  18.982  22.129   8.289
  763POPC   C3A12881  19.053  22.481   8.040
  763POPC   C4A12882  18.946  22.581   7.639
  763POPC   C1B12883  19.011  21.728   8.750
  763POPC   C2B12884  18.788  21.620   8.357
  763POPC   C3B12885  18.814  21.764   7.935
  763POPC   C4B12886  19.033  22.068   7.738
  764POPC   NC312887   4.190  16.347   9.526
  764POPC   PO412888   4.247  17.044   9.560
  764POPC   GL112889   4.324  16.859   9.160
  764POPC   GL212890   4.092  16.599   9.085
  764POPC   C1A12891   4.159  16.974   8.733
  764POPC   D2A12892   3.935  16.725   8.396
  764POPC   C3A12893   4.093  16.686   7.946
  764POPC   C4A12894   4.534  16.786   7.723
  764POPC   C1B12895   4.277  16.456   8.690
  764POPC   C2B12896   4.223  16.293   8.273
  764POPC   C3B12897   4.453  16.326   7.894
  764POPC   C4B12898   4.377  16.366   7.439
  765POPC   NC312899   1.999  44.835   9.738
  765POPC   PO412900   1.911  44.221   9.609
  765POPC   GL112901   2.039  44.547   9.292
  765POPC   GL212902   1.820  44.832   9.236
  765POPC   C1A12903   2.240  44.563   8.882
  765POPC   D2A12904   2.225  44.323   8.504
  765POPC   C3A12905   2.142  44.472   8.095
  765POPC   C4A12906   2.098  44.689   7.696
  765POPC   C1B12907   1.735  44.691   8.828
  765POPC   C2B12908   1.735  44.534   8.418
  765POPC   C3B12909   1.651  44.670   8.000
  765POPC   C4B12910   1.657  44.437   7.623
  766POPC   NC312911  42.522   7.080   9.206
  766POPC   PO412912  42.431   7.723   9.385
  766POPC   GL112913  42.353   7.537   9.021
  766POPC   GL212914  42.110   7.268   9.007
  766POPC   C1A12915  42.588   7.564   8.654
  766POPC   D2A12916  42.478   7.720   8.254
  766POPC   C3A12917  42.473   7.413   7.972
  766POPC   C4A12918  42.368   7.405   7.559
  766POPC   C1B12919  42.180   7.263   8.581
  766POPC   C2B12920  42.021   7.483   8.246
  766POPC   C3B12921  41.989   7.246   7.869
  766POPC   C4B12922  42.034   7.068   7.452
  767POPC   NC312923  23.236  23.540   9.337
  767POPC   PO412924  23.882  23.573   9.539
  767POPC   GL112925  23.725  23.756   9.153
  767POPC   GL212926  23.728  24.119   9.090
  767POPC   C1A12927  23.572  23.814   8.735
  767POPC   D2A12928  23.585  23.983   8.344
  767POPC   C3A12929  23.709  23.631   8.104
  767POPC   C4A12930  23.557  23.473   7.709
  767POPC   C1B12931  24.057  24.022   8.814
  767POPC   C2B12932  24.087  23.823   8.425
  767POPC   C3B12933  24.010  24.055   8.053
  767POPC   C4B12934  24.063  24.182   7.643
  768POPC   NC312935   3.625  44.121   9.383
  768POPC   PO412936   3.605  44.757   9.661
  768POPC   GL112937   3.731  44.598   9.242
  768POPC   GL212938   3.395  44.525   9.152
  768POPC   C1A12939   3.777  44.763   8.795
  768POPC   D2A12940   3.848  44.968   8.359
  768POPC   C3A12941   3.688  44.739   7.964
  768POPC   C4A12942   3.514  44.681   7.500
  768POPC   C1B12943   3.235  44.448   8.755
  768POPC   C2B12944   3.228  44.321   8.345
  768POPC   C3B12945   3.234  44.516   7.932
  768POPC   C4B12946   3.279  44.248   7.601
  769POPC   NC312947  13.381  31.967   9.246
  769POPC   PO412948  13.944  32.329   9.425
  769POPC   GL112949  13.985  32.093   9.002
  769POPC   GL212950  13.746  31.795   8.913
  769POPC   C1A12951  13.853  32.172   8.555
  769POPC   D2A12952  13.712  32.486   8.229
  769POPC   C3A12953  13.738  32.274   7.816
  769POPC   C4A12954  13.811  32.012   7.397
  769POPC   C1B12955  13.388  31.965   8.602
  769POPC   C2B12956  13.296  32.183   8.232
  769POPC   C3B12957  13.230  32.460   7.912
  769POPC   C4B12958  13.347  32.339   7.511
  770POPC   NC312959   1.522  24.663   9.535
  770POPC   PO412960   0.946  24.297   9.434
  770POPC   GL112961   1.126  24.616   9.184
  770POPC   GL212962   0.840  24.829   9.067
  770POPC   C1A12963   1.370  24.682   8.813
  770POPC   D2A12964   1.430  24.433   8.426
  770POPC   C3A12965   1.437  24.671   8.053
  770POPC   C4A12966   1.197  24.683   7.710
  770POPC   C1B12967   0.896  24.553   8.679
  770POPC   C2B12968   0.940  24.596   8.229
  770POPC   C3B12969   0.791  24.409   7.837
  770POPC   C4B12970   0.822  24.556   7.411
  771POPC   NC312971   1.603   3.666   9.626
  771POPC   PO412972   0.998   3.673   9.442
  771POPC   GL112973   1.345   3.559   9.178
  771POPC   GL212974   1.392   3.902   9.209
  771POPC   C1A12975   1.258   3.355   8.757
  771POPC   D2A12976   0.908   3.378   8.435
  771POPC   C3A12977   1.083   3.415   8.016
  771POPC   C4A12978   1.494   3.408   7.845
  771POPC   C1B12979   1.143   3.858   8.816
  771POPC   C2B12980   1.230   3.774   8.405
  771POPC   C3B12981   1.071   3.937   8.054
  771POPC   C4B12982   1.144   3.791   7.647
  772POPC   NC312983  19.596  23.338   9.469
  772POPC   PO412984  19.916  22.651   9.556
  772POPC   GL112985  19.917  22.923   9.204
  772POPC   GL212986  19.549  22.938   9.149
  772POPC   C1A12987  20.048  22.785   8.774
  772POPC   D2A12988  19.862  22.679   8.376
  772POPC   C3A12989  20.037  22.580   7.965
  772POPC   C4A12990  19.915  22.666   7.536
  772POPC   C1B12991  19.687  23.160   8.778
  772POPC   C2B12992  19.823  23.190   8.357
  772POPC   C3B12993  19.773  23.017   7.956
  772POPC   C4B12994  19.954  23.195   7.620
  773POPC   NC312995   2.311  29.638   9.487
  773POPC   PO412996   1.629  29.988   9.531
  773POPC   GL112997   1.996  29.994   9.266
  773POPC   GL212998   2.214  30.278   9.151
  773POPC   C1A12999   1.958  29.821   8.867
  773POPC   D2A13000   1.879  29.974   8.474
  773POPC   C3A13001   1.927  29.777   8.112
  773POPC   C4A13002   1.759  29.913   7.750
  773POPC   C1B13003   2.354  30.135   8.711
  773POPC   C2B13004   2.322  30.114   8.239
  773POPC   C3B13005   2.283  30.014   7.798
  773POPC   C4B13006   2.574  30.014   7.432
  774POPC   NC313007  32.230  24.598   9.339
  774POPC   PO413008  32.745  24.300   9.672
  774POPC   GL113009  32.680  24.372   9.231
  774POPC   GL213010  32.422  24.096   9.252
  774POPC   C1A13011  32.546  24.645   8.810
  774POPC   D2A13012  32.304  24.744   8.408
  774POPC   C3A13013  32.373  24.599   8.013
  774POPC   C4A13014  32.026  24.581   7.765
  774POPC   C1B13015  32.534  24.107   8.826
  774POPC   C2B13016  32.522  24.286   8.457
  774POPC   C3B13017  32.559  24.108   8.068
  774POPC   C4B13018  32.373  24.158   7.703
  775POPC   NC313019  13.849  27.716   9.554
  775POPC   PO413020  14.450  27.459   9.763
  775POPC   GL113021  14.260  27.586   9.304
  775POPC   GL213022  14.400  27.863   9.203
  775POPC   C1A13023  14.080  27.775   8.839
  775POPC   D2A13024  13.904  27.671   8.423
  775POPC   C3A13025  14.175  27.582   8.064
  775POPC   C4A13026  14.504  27.282   7.885
  775POPC   C1B13027  14.474  27.472   8.876
  775POPC   C2B13028  14.517  27.455   8.427
  775POPC   C3B13029  14.670  27.722   8.077
  775POPC   C4B13030  14.800  27.707   7.659
  776POPC   NC313031  37.247  10.892   9.821
  776POPC   PO413032  37.031  10.354   9.461
  776POPC   GL113033  36.871  10.590   9.175
  776POPC   GL213034  37.011  10.912   9.251
  776POPC   C1A13035  36.950  10.429   8.787
  776POPC   D2A13036  36.918  10.082   8.511
  776POPC   C3A13037  36.947  10.268   8.134
  776POPC   C4A13038  36.898  10.435   7.746
  776POPC   C1B13039  36.881  10.937   8.795
  776POPC   C2B13040  36.835  10.717   8.392
  776POPC   C3B13041  36.560  10.676   8.069
  776POPC   C4B13042  36.650  10.877   7.699
  777POPC   NC313043  25.661  11.456   9.571
  777POPC   PO413044  26.237  11.102   9.515
  777POPC   GL113045  25.972  11.138   9.148
  777POPC   GL213046  25.816  11.460   9.100
  777POPC   C1A13047  26.090  11.148   8.707
  777POPC   D2A13048  26.234  10.858   8.398
  777POPC   C3A13049  26.377  11.029   8.040
  777POPC   C4A13050  26.070  11.145   7.803
  777POPC   C1B13051  25.805  11.611   8.701
  777POPC   C2B13052  26.122  11.568   8.380
  777POPC   C3B13053  26.280  11.572   7.975
  777POPC   C4B13054  26.135  11.570   7.536
  778POPC   NC313055  35.959   4.898   9.392
  778POPC   PO413056  36.458   5.279   9.563
  778POPC   GL113057  36.281   5.264   9.149
  778POPC   GL213058  35.930   5.243   9.023
  778POPC   C1A13059  36.328   5.247   8.704
  778POPC   D2A13060  36.306   4.902   8.414
  778POPC   C3A13061  36.266   5.026   7.984
  778POPC   C4A13062  36.253   5.477   7.848
  778POPC   C1B13063  35.833   5.084   8.620
  778POPC   C2B13064  35.904   5.293   8.227
  778POPC   C3B13065  35.822   5.169   7.793
  778POPC   C4B13066  35.747   5.166   7.359
  779POPC   NC313067  15.278  24.678   9.817
  779POPC   PO413068  14.911  24.188   9.473
  779POPC   GL113069  15.149  24.480   9.164
  779POPC   GL213070  15.296  24.795   9.284
  779POPC   C1A13071  15.236  24.487   8.730
  779POPC   D2A13072  15.321  24.282   8.334
  779POPC   C3A13073  15.022  24.437   8.066
  779POPC   C4A13074  14.994  24.612   7.667
  779POPC   C1B13075  15.566  24.828   8.914
  779POPC   C2B13076  15.665  24.629   8.488
  779POPC   C3B13077  15.464  24.712   8.069
  779POPC   C4B13078  15.452  24.810   7.617
  780POPC   NC313079   8.225  15.331   9.557
  780POPC   PO413080   7.741  14.888   9.426
  780POPC   GL113081   8.099  15.036   9.178
  780POPC   GL213082   8.371  14.850   9.062
  780POPC   C1A13083   8.204  15.356   8.888
  780POPC   D2A13084   8.098  15.422   8.457
  780POPC   C3A13085   8.192  15.440   7.998
  780POPC   C4A13086   8.275  15.275   7.558
  780POPC   C1B13087   8.157  14.889   8.683
  780POPC   C2B13088   8.240  14.976   8.265
  780POPC   C3B13089   8.112  14.915   7.871
  780POPC   C4B13090   8.342  14.711   7.550
  781POPC   NC313091  29.386  14.110   9.396
  781POPC   PO413092  29.071  13.512   9.634
  781POPC   GL113093  29.110  13.533   9.205
  781POPC   GL213094  29.449  13.602   9.196
  781POPC   C1A13095  29.048  13.486   8.751
  781POPC   D2A13096  28.830  13.761   8.432
  781POPC   C3A13097  29.081  13.816   8.058
  781POPC   C4A13098  29.207  13.520   7.770
  781POPC   C1B13099  29.504  13.782   8.796
  781POPC   C2B13100  29.414  13.594   8.406
  781POPC   C3B13101  29.593  13.692   8.033
  781POPC   C4B13102  29.461  13.948   7.664
  782POPC   NC313103  26.214  12.482   9.597
  782POPC   PO413104  25.929  11.831   9.539
  782POPC   GL113105  26.007  11.944   9.140
  782POPC   GL213106  25.941  12.273   9.184
  782POPC   C1A13107  26.196  11.960   8.724
  782POPC   D2A13108  26.289  12.249   8.399
  782POPC   C3A13109  26.270  12.097   8.001
  782POPC   C4A13110  26.484  11.912   7.660
  782POPC   C1B13111  26.081  12.460   8.826
  782POPC   C2B13112  25.845  12.541   8.477
  782POPC   C3B13113  25.844  12.436   8.059
  782POPC   C4B13114  26.057  12.445   7.699
  783POPC   NC313115   5.624  29.634   9.494
  783POPC   PO413116   6.138  30.052   9.458
  783POPC   GL113117   6.027  29.739   9.173
  783POPC   GL213118   5.713  29.900   9.070
  783POPC   C1A13119   6.145  29.690   8.747
  783POPC   D2A13120   6.077  29.978   8.390
  783POPC   C3A13121   6.111  29.841   7.966
  783POPC   C4A13122   6.011  29.852   7.520
  783POPC   C1B13123   5.662  30.120   8.669
  783POPC   C2B13124   5.629  30.272   8.227
  783POPC   C3B13125   5.651  30.091   7.807
  783POPC   C4B13126   5.494  29.845   7.429
  784POPC   NC313127  31.038  21.921   9.371
  784POPC   PO413128  31.589  22.224   9.638
  784POPC   GL113129  31.414  22.217   9.208
  784POPC   GL213130  31.272  22.500   9.063
  784POPC   C1A13131  31.490  22.048   8.804
  784POPC   D2A13132  31.640  22.205   8.438
  784POPC   C3A13133  31.434  22.078   8.091
  784POPC   C4A13134  31.552  21.908   7.706
  784POPC   C1B13135  30.952  22.588   8.769
  784POPC   C2B13136  30.973  22.310   8.386
  784POPC   C3B13137  31.151  22.487   7.996
  784POPC   C4B13138  31.466  22.401   7.672
  785POPC   NC313139   9.197   6.515   9.482
  785POPC   PO413140   8.780   7.021   9.566
  785POPC   GL113141   8.876   6.807   9.196
  785POPC   GL213142   8.706   6.532   9.078
  785POPC   C1A13143   9.129   6.828   8.845
  785POPC   D2A13144   8.984   6.899   8.453
  785POPC   C3A13145   9.117   6.854   8.087
  785POPC   C4A13146   9.038   6.588   7.777
  785POPC   C1B13147   8.615   6.611   8.662
  785POPC   C2B13148   8.729   6.414   8.302
  785POPC   C3B13149   8.533   6.493   7.954
  785POPC   C4B13150   8.603   6.643   7.536
  786POPC   NC313151  25.812  37.098   9.661
  786POPC   PO413152  26.435  37.018   9.477
  786POPC   GL113153  26.264  36.913   9.106
  786POPC   GL213154  25.919  36.925   9.152
  786POPC   C1A13155  26.214  36.925   8.661
  786POPC   D2A13156  25.927  36.998   8.332
  786POPC   C3A13157  26.161  36.797   8.040
  786POPC   C4A13158  26.469  37.039   7.882
  786POPC   C1B13159  25.728  36.755   8.763
  786POPC   C2B13160  25.772  36.508   8.363
  786POPC   C3B13161  25.744  36.547   7.896
  786POPC   C4B13162  25.797  36.503   7.438
  787POPC   NC313163  34.304  11.707   9.371
  787POPC   PO413164  34.638  11.158   9.423
  787POPC   GL113165  34.534  11.329   9.081
  787POPC   GL213166  34.741  11.608   9.106
  787POPC   C1A13167  34.327  11.262   8.696
  787POPC   D2A13168  34.358  10.953   8.372
  787POPC   C3A13169  34.485  11.076   8.007
  787POPC   C4A13170  34.220  11.195   7.672
  787POPC   C1B13171  34.643  11.646   8.709
  787POPC   C2B13172  34.699  11.377   8.363
  787POPC   C3B13173  34.707  11.535   7.963
  787POPC   C4B13174  34.732  11.765   7.610
  788POPC   NC313175   2.008  14.581   9.640
  788POPC   PO413176   1.652  13.999   9.521
  788POPC   GL113177   1.840  14.279   9.209
  788POPC   GL213178   1.916  14.650   9.165
  788POPC   C1A13179   2.042  14.160   8.840
  788POPC   D2A13180   2.222  14.256   8.460
  788POPC   C3A13181   1.944  14.125   8.136
  788POPC   C4A13182   2.222  14.161   7.780
  788POPC   C1B13183   2.132  14.681   8.795
  788POPC   C2B13184   1.950  14.710   8.384
  788POPC   C3B13185   2.079  14.605   7.964
  788POPC   C4B13186   1.989  14.650   7.499
  789POPC   NC313187  28.187  41.325   9.421
  789POPC   PO413188  28.294  40.678   9.460
  789POPC   GL113189  28.271  40.852   9.095
  789POPC   GL213190  28.620  40.859   8.993
  789POPC   C1A13191  28.258  40.720   8.679
  789POPC   D2A13192  28.419  40.921   8.328
  789POPC   C3A13193  28.241  40.711   7.953
  789POPC   C4A13194  28.205  40.800   7.487
  789POPC   C1B13195  28.780  41.172   8.678
  789POPC   C2B13196  28.891  41.141   8.251
  789POPC   C3B13197  28.822  40.753   8.067
  789POPC   C4B13198  28.657  40.646   7.669
  790POPC   NC313199   9.186  37.901   9.592
  790POPC   PO413200   8.826  37.343   9.489
  790POPC   GL113201   8.766  37.570   9.133
  790POPC   GL213202   8.736  37.941   9.206
  790POPC   C1A13203   8.965  37.433   8.775
  790POPC   D2A13204   9.219  37.462   8.443
  790POPC   C3A13205   9.056  37.625   8.071
  790POPC   C4A13206   9.150  37.508   7.657
  790POPC   C1B13207   9.049  37.935   8.871
  790POPC   C2B13208   9.249  37.991   8.455
  790POPC   C3B13209   9.124  38.164   8.045
  790POPC   C4B13210   8.928  37.965   7.696
  791POPC   NC313211  17.271   4.957   9.514
  791POPC   PO413212  17.630   5.517   9.322
  791POPC   GL113213  17.310   5.252   9.102
  791POPC   GL213214  17.481   4.892   9.064
  791POPC   C1A13215  17.198   5.007   8.688
  791POPC   D2A13216  17.386   5.192   8.380
  791POPC   C3A13217  17.364   5.008   8.036
  791POPC   C4A13218  17.108   5.175   7.715
  791POPC   C1B13219  17.686   5.208   8.778
  791POPC   C2B13220  17.900   5.226   8.424
  791POPC   C3B13221  17.870   5.315   8.013
  791POPC   C4B13222  17.704   5.046   7.680
  792POPC   NC313223  20.388  34.881   9.595
  792POPC   PO413224  20.919  34.397   9.587
  792POPC   GL113225  20.842  34.288   9.160
  792POPC   GL213226  20.675  34.578   9.156
  792POPC   C1A13227  20.615  34.286   8.725
  792POPC   D2A13228  20.381  34.485   8.346
  792POPC   C3A13229  20.576  34.639   7.975
  792POPC   C4A13230  20.654  34.491   7.567
  792POPC   C1B13231  20.534  34.784   8.759
  792POPC   C2B13232  20.478  35.025   8.383
  792POPC   C3B13233  20.311  35.075   7.969
  792POPC   C4B13234  20.517  34.984   7.552
  793POPC   NC313235   2.406   7.998   9.608
  793POPC   PO413236   1.822   7.740   9.533
  793POPC   GL113237   2.073   8.067   9.212
  793POPC   GL213238   2.363   8.383   9.290
  793POPC   C1A13239   2.009   8.017   8.754
  793POPC   D2A13240   1.746   8.220   8.394
  793POPC   C3A13241   1.900   8.033   7.994
  793POPC   C4A13242   1.957   8.061   7.539
  793POPC   C1B13243   2.420   8.327   8.863
  793POPC   C2B13244   2.243   8.344   8.434
  793POPC   C3B13245   2.386   8.241   8.055
  793POPC   C4B13246   2.331   8.406   7.684
  794POPC   NC313247   6.278  42.194   9.565
  794POPC   PO413248   6.936  42.409   9.496
  794POPC   GL113249   6.791  42.204   9.151
  794POPC   GL213250   6.432  42.208   9.083
  794POPC   C1A13251   6.836  42.316   8.735
  794POPC   D2A13252   6.923  42.584   8.368
  794POPC   C3A13253   6.771  42.411   8.006
  794POPC   C4A13254   6.813  42.056   7.754
  794POPC   C1B13255   6.310  42.290   8.647
  794POPC   C2B13256   6.309  42.232   8.213
  794POPC   C3B13257   6.274  42.510   7.857
  794POPC   C4B13258   6.200  42.453   7.401
  795POPC   NC313259  18.873  31.123   9.828
  795POPC   PO413260  19.146  31.690   9.355
  795POPC   GL113261  18.983  31.641   8.987
  795POPC   GL213262  18.893  31.292   8.868
  795POPC   C1A13263  18.942  31.684   8.570
  795POPC   D2A13264  19.006  31.370   8.285
  795POPC   C3A13265  18.941  31.493   7.894
  795POPC   C4A13266  19.149  31.724   7.691
  795POPC   C1B13267  19.338  31.371   8.746
  795POPC   C2B13268  19.568  31.263   8.406
  795POPC   C3B13269  19.448  31.377   7.993
  795POPC   C4B13270  19.315  31.248   7.595
  796POPC   NC313271  14.818  40.637   9.524
  796POPC   PO413272  15.450  40.925   9.551
  796POPC   GL113273  15.298  41.016   9.141
  796POPC   GL213274  15.033  40.780   9.071
  796POPC   C1A13275  15.441  40.950   8.735
  796POPC   D2A13276  15.194  40.720   8.474
  796POPC   C3A13277  15.133  40.809   8.051
  796POPC   C4A13278  15.272  41.081   7.749
  796POPC   C1B13279  14.718  40.701   8.752
  796POPC   C2B13280  14.493  40.631   8.391
  796POPC   C3B13281  14.624  40.601   8.025
  796POPC   C4B13282  14.787  40.808   7.681
  797POPC   NC313283  18.915   5.654   9.669
  797POPC   PO413284  19.332   6.146   9.425
  797POPC   GL113285  19.025   5.860   9.151
  797POPC   GL213286  19.034   5.540   9.171
  797POPC   C1A13287  18.943   5.741   8.714
  797POPC   D2A13288  19.152   5.991   8.382
  797POPC   C3A13289  18.947   6.050   7.977
  797POPC   C4A13290  18.943   5.759   7.641
  797POPC   C1B13291  19.317   5.421   8.820
  797POPC   C2B13292  19.194   5.370   8.397
  797POPC   C3B13293  19.273   5.630   8.047
  797POPC   C4B13294  19.396   5.513   7.674
  798POPC   NC313295  42.272  19.893   9.356
  798POPC   PO413296  42.329  20.465   9.774
  798POPC   GL113297  42.371  20.458   9.289
  798POPC   GL213298  42.660  20.205   9.256
  798POPC   C1A13299  42.393  20.736   8.875
  798POPC   D2A13300  42.251  20.955   8.476
  798POPC   C3A13301  42.355  20.807   8.033
  798POPC   C4A13302  42.108  20.692   7.665
  798POPC   C1B13303  42.487  20.242   8.829
  798POPC   C2B13304  42.371  20.441   8.436
  798POPC   C3B13305  42.481  20.309   8.012
  798POPC   C4B13306  42.743  20.152   7.658
  799POPC   NC313307   7.508  18.601   9.319
  799POPC   PO413308   7.732  18.008   9.517
  799POPC   GL113309   7.346  18.101   9.245
  799POPC   GL213310   7.579  18.168   9.011
  799POPC   C1A13311   7.128  18.208   8.809
  799POPC   D2A13312   7.171  18.424   8.376
  799POPC   C3A13313   7.162  18.216   7.984
  799POPC   C4A13314   7.537  18.178   7.737
  799POPC   C1B13315   7.524  18.538   8.715
  799POPC   C2B13316   7.636  18.719   8.363
  799POPC   C3B13317   7.474  18.632   7.963
  799POPC   C4B13318   7.528  18.622   7.482
  800POPC   NC313319  38.713  34.881   9.795
  800POPC   PO413320  38.280  35.311   9.458
  800POPC   GL113321  38.558  35.388   9.139
  800POPC   GL213322  38.322  35.264   8.911
  800POPC   C1A13323  38.795  35.180   8.774
  800POPC   D2A13324  38.708  35.333   8.380
  800POPC   C3A13325  38.760  35.090   8.006
  800POPC   C4A13326  38.563  34.940   7.635
  800POPC   C1B13327  38.543  35.670   8.756
  800POPC   C2B13328  38.523  35.842   8.412
  800POPC   C3B13329  38.501  35.659   8.046
  800POPC   C4B13330  38.596  35.462   7.695
  801POPC   NC313331  31.834  30.313   9.317
  801POPC   PO413332  32.218  29.868   9.653
  801POPC   GL113333  32.271  29.848   9.195
  801POPC   GL213334  31.998  29.610   9.084
  801POPC   C1A13335  32.228  29.998   8.776
  801POPC   D2A13336  32.220  30.296   8.448
  801POPC   C3A13337  32.338  30.144   8.063
  801POPC   C4A13338  32.090  30.044   7.746
  801POPC   C1B13339  31.901  29.385   8.694
  801POPC   C2B13340  31.773  29.424   8.255
  801POPC   C3B13341  31.849  29.581   7.786
  801POPC   C4B13342  32.168  29.670   7.413
  802POPC   NC313343  37.789  18.701   9.622
  802POPC   PO413344  37.809  19.298   9.456
  802POPC   GL113345  37.670  19.137   9.092
  802POPC   GL213346  37.563  18.824   9.199
  802POPC   C1A13347  37.541  19.157   8.658
  802POPC   D2A13348  37.324  19.302   8.287
  802POPC   C3A13349  37.598  19.390   7.932
  802POPC   C4A13350  37.811  19.155   7.578
  802POPC   C1B13351  37.645  18.662   8.813
  802POPC   C2B13352  37.523  18.612   8.402
  802POPC   C3B13353  37.553  18.850   8.047
  802POPC   C4B13354  37.704  18.688   7.692
  803POPC   NC313355  40.578  10.646   9.455
  803POPC   PO413356  41.183  10.468   9.427
  803POPC   GL113357  40.957  10.622   9.132
  803POPC   GL213358  40.714  10.351   9.056
  803POPC   C1A13359  40.846  10.740   8.736
  803POPC   D2A13360  40.919  10.916   8.372
  803POPC   C3A13361  40.810  10.633   8.055
  803POPC   C4A13362  40.611  10.743   7.693
  803POPC   C1B13363  41.073  10.288   8.792
  803POPC   C2B13364  41.025  10.323   8.393
  803POPC   C3B13365  41.227  10.300   8.023
  803POPC   C4B13366  41.045  10.446   7.636
  804POPC   NC313367   9.428   2.722   9.721
  804POPC   PO413368   9.996   2.456   9.506
  804POPC   GL113369   9.703   2.624   9.216
  804POPC   GL213370   9.493   2.869   9.164
  804POPC   C1A13371   9.769   2.678   8.772
  804POPC   D2A13372   9.869   2.582   8.365
  804POPC   C3A13373  10.019   2.722   7.973
  804POPC   C4A13374   9.946   2.397   7.637
  804POPC   C1B13375   9.379   3.018   8.796
  804POPC   C2B13376   9.541   3.008   8.392
  804POPC   C3B13377   9.437   2.757   8.040
  804POPC   C4B13378   9.629   2.911   7.693
  805POPC   NC313379  11.156  44.539   9.533
  805POPC   PO413380  11.619   0.023   9.807
  805POPC   GL113381  11.568  44.818   9.337
  805POPC   GL213382  11.768  44.502   9.364
  805POPC   C1A13383  11.375  44.578   8.919
  805POPC   D2A13384  11.159  44.393   8.514
  805POPC   C3A13385  11.183  44.590   8.091
  805POPC   C4A13386  11.197  44.737   7.652
  805POPC   C1B13387  11.779  44.279   8.966
  805POPC   C2B13388  11.690  44.375   8.558
  805POPC   C3B13389  11.681  44.349   8.138
  805POPC   C4B13390  11.571  44.434   7.743
  806POPC   NC313391  19.271  12.822  10.040
  806POPC   PO413392  19.039  13.305   9.640
  806POPC   GL113393  18.997  13.130   9.219
  806POPC   GL213394  19.096  12.811   9.129
  806POPC   C1A13395  18.810  13.165   8.833
  806POPC   D2A13396  18.861  12.958   8.461
  806POPC   C3A13397  19.209  13.050   8.204
  806POPC   C4A13398  19.101  12.855   7.829
  806POPC   C1B13399  19.107  12.581   8.719
  806POPC   C2B13400  19.104  12.536   8.240
  806POPC   C3B13401  19.188  12.377   7.820
  806POPC   C4B13402  19.424  12.605   7.514
  807POPC   NC313403  11.835  37.596   9.550
  807POPC   PO413404  12.410  37.910   9.541
  807POPC   GL113405  12.207  37.608   9.193
  807POPC   GL213406  12.365  37.578   8.862
  807POPC   C1A13407  11.879  37.455   8.870
  807POPC   D2A13408  11.747  37.588   8.435
  807POPC   C3A13409  12.071  37.597   8.124
  807POPC   C4A13410  11.963  37.503   7.699
  807POPC   C1B13411  12.149  37.914   8.571
  807POPC   C2B13412  12.017  38.096   8.131
  807POPC   C3B13413  11.769  37.987   7.740
  807POPC   C4B13414  11.795  38.185   7.305
  808POPC   NC313415  26.701  36.165   9.614
  808POPC   PO413416  27.186  36.401   9.240
  808POPC   GL113417  26.812  36.195   9.081
  808POPC   GL213418  26.450  36.252   9.151
  808POPC   C1A13419  26.811  36.214   8.638
  808POPC   D2A13420  27.039  36.009   8.326
  808POPC   C3A13421  26.843  36.042   7.927
  808POPC   C4A13422  27.116  36.285   7.691
  808POPC   C1B13423  26.365  36.014   8.787
  808POPC   C2B13424  26.498  35.932   8.356
  808POPC   C3B13425  26.343  35.811   7.951
  808POPC   C4B13426  26.400  35.913   7.516
  809POPC   NC313427  22.449  26.305   9.409
  809POPC   PO413428  23.045  26.183   9.684
  809POPC   GL113429  22.868  26.034   9.247
  809POPC   GL213430  22.785  25.674   9.154
  809POPC   C1A13431  22.937  26.039   8.773
  809POPC   D2A13432  23.206  25.974   8.383
  809POPC   C3A13433  23.058  26.218   8.025
  809POPC   C4A13434  22.894  26.215   7.601
  809POPC   C1B13435  22.587  25.658   8.739
  809POPC   C2B13436  22.663  25.857   8.318
  809POPC   C3B13437  22.815  25.794   7.877
  809POPC   C4B13438  22.843  25.756   7.396
  810POPC   NC313439   3.850  19.757   9.468
  810POPC   PO413440   3.480  20.329   9.314
  810POPC   GL113441   3.325  19.958   9.095
  810POPC   GL213442   3.566  19.714   9.063
  810POPC   C1A13443   3.391  19.902   8.655
  810POPC   D2A13444   3.662  20.054   8.390
  810POPC   C3A13445   3.434  20.072   8.023
  810POPC   C4A13446   3.593  20.271   7.660
  810POPC   C1B13447   3.608  19.448   8.725
  810POPC   C2B13448   3.676  19.543   8.350
  810POPC   C3B13449   3.818  19.489   7.991
  810POPC   C4B13450   3.614  19.727   7.678
  811POPC   NC313451  29.320  23.464   9.509
  811POPC   PO413452  29.233  24.121   9.303
  811POPC   GL113453  29.312  23.720   9.069
  811POPC   GL213454  29.003  23.486   9.095
  811POPC   C1A13455  29.305  23.518   8.661
  811POPC   D2A13456  29.002  23.475   8.317
  811POPC   C3A13457  29.208  23.566   7.912
  811POPC   C4A13458  29.438  23.936   7.734
  811POPC   C1B13459  28.841  23.774   8.783
  811POPC   C2B13460  28.944  24.012   8.406
  811POPC   C3B13461  28.937  24.019   7.952
  811POPC   C4B13462  28.784  23.740   7.629
  812POPC   NC313463   3.264  10.977   9.779
  812POPC   PO413464   2.651  11.261   9.465
  812POPC   GL113465   2.956  11.313   9.176
  812POPC   GL213466   3.221  11.097   9.267
  812POPC   C1A13467   2.840  11.400   8.741
  812POPC   D2A13468   2.869  11.260   8.329
  812POPC   C3A13469   2.734  11.384   7.902
  812POPC   C4A13470   2.365  11.202   7.669
  812POPC   C1B13471   3.160  11.000   8.798
  812POPC   C2B13472   3.221  10.907   8.340
  812POPC   C3B13473   2.980  10.947   7.938
  812POPC   C4B13474   3.102  11.074   7.538
  813POPC   NC313475  22.176  10.368   9.522
  813POPC   PO413476  21.916  10.858   9.900
  813POPC   GL113477  22.118  10.804   9.325
  813POPC   GL213478  21.958  10.452   9.077
  813POPC   C1A13479  22.424  10.620   8.934
  813POPC   D2A13480  22.404  10.360   8.506
  813POPC   C3A13481  22.349  10.494   8.040
  813POPC   C4A13482  22.057  10.527   7.658
  813POPC   C1B13483  21.943  10.195   8.660
  813POPC   C2B13484  21.870  10.023   8.208
  813POPC   C3B13485  22.027  10.022   7.771
  813POPC   C4B13486  22.435  10.188   7.613
  814POPC   NC313487   2.717  23.461   9.806
  814POPC   PO413488   3.213  23.882   9.598
  814POPC   GL113489   3.023  23.668   9.194
  814POPC   GL213490   2.670  23.641   9.015
  814POPC   C1A13491   3.094  23.486   8.777
  814POPC   D2A13492   2.792  23.541   8.433
  814POPC   C3A13493   2.963  23.462   8.029
  814POPC   C4A13494   2.986  23.663   7.642
  814POPC   C1B13495   2.846  23.966   8.788
  814POPC   C2B13496   2.714  24.087   8.415
  814POPC   C3B13497   2.614  23.872   8.064
  814POPC   C4B13498   2.598  24.056   7.697
  815POPC   NC313499  15.666  16.383   9.300
  815POPC   PO413500  16.112  15.967   9.715
  815POPC   GL113501  15.937  15.955   9.242
  815POPC   GL213502  15.668  15.721   9.160
  815POPC   C1A13503  15.818  16.050   8.750
  815POPC   D2A13504  15.653  16.020   8.302
  815POPC   C3A13505  15.886  15.954   7.924
  815POPC   C4A13506  15.794  15.965   7.495
  815POPC   C1B13507  16.023  15.608   8.872
  815POPC   C2B13508  15.942  15.518   8.482
  815POPC   C3B13509  16.094  15.494   8.090
  815POPC   C4B13510  16.009  15.546   7.657
  816POPC   NC313511  32.598  25.642   9.454
  816POPC   PO413512  32.469  24.964   9.446
  816POPC   GL113513  32.355  25.252   9.154
  816POPC   GL213514  32.076  25.508   9.193
  816POPC   C1A13515  32.343  25.121   8.741
  816POPC   D2A13516  32.627  25.140   8.382
  816POPC   C3A13517  32.440  25.291   8.036
  816POPC   C4A13518  32.248  25.066   7.729
  816POPC   C1B13519  32.279  25.613   8.799
  816POPC   C2B13520  32.070  25.437   8.420
  816POPC   C3B13521  31.920  25.579   8.041
  816POPC   C4B13522  32.207  25.633   7.732
  817POPC   NC313523  44.086  23.493   9.552
  817POPC   PO413524  44.648  23.815   9.331
  817POPC   GL113525  44.594  23.559   9.045
  817POPC   GL213526  44.470  23.313   9.269
  817POPC   C1A13527  44.714  23.691   8.646
  817POPC   D2A13528  44.952  23.927   8.381
  817POPC   C3A13529  44.776  23.850   8.014
  817POPC   C4A13530  44.949  23.605   7.749
  817POPC   C1B13531  44.356  23.167   8.831
  817POPC   C2B13532  44.423  23.320   8.406
  817POPC   C3B13533  44.547  23.272   7.975
  817POPC   C4B13534  44.608  23.321   7.533
  818POPC   NC313535  30.508  40.435   9.644
  818POPC   PO413536  30.795  39.863   9.670
  818POPC   GL113537  30.795  40.026   9.233
  818POPC   GL213538  30.446  40.204   9.179
  818POPC   C1A13539  30.905  39.885   8.793
  818POPC   D2A13540  30.723  39.871   8.410
  818POPC   C3A13541  30.865  40.068   8.051
  818POPC   C4A13542  30.826  39.997   7.590
  818POPC   C1B13543  30.385  39.977   8.786
  818POPC   C2B13544  30.220  40.009   8.338
  818POPC   C3B13545  30.370  40.016   7.884
  818POPC   C4B13546  30.340  40.082   7.409
  819POPC   NC313547  18.901  33.988   9.676
  819POPC   PO413548  19.347  33.981   9.213
  819POPC   GL113549  19.047  33.808   9.030
  819POPC   GL213550  19.181  33.487   9.011
  819POPC   C1A13551  19.133  33.769   8.597
  819POPC   D2A13552  19.047  33.520   8.263
  819POPC   C3A13553  19.108  33.747   7.958
  819POPC   C4A13554  19.358  33.772   7.637
  819POPC   C1B13555  18.856  33.351   8.694
  819POPC   C2B13556  18.566  33.411   8.307
  819POPC   C3B13557  18.734  33.390   7.865
  819POPC   C4B13558  18.892  33.624   7.494
  820POPC   NC313559  20.391  32.375   9.657
  820POPC   PO413560  20.999  32.231   9.623
  820POPC   GL113561  20.695  32.252   9.265
  820POPC   GL213562  20.527  32.571   9.173
  820POPC   C1A13563  20.626  32.170   8.815
  820POPC   D2A13564  20.745  32.247   8.365
  820POPC   C3A13565  20.464  32.052   8.073
  820POPC   C4A13566  20.470  31.879   7.672
  820POPC   C1B13567  20.229  32.561   8.838
  820POPC   C2B13568  20.234  32.422   8.419
  820POPC   C3B13569  20.325  32.545   8.006
  820POPC   C4B13570  20.240  32.336   7.621
  821POPC   NC313571  17.772  25.209   9.516
  821POPC   PO413572  18.496  25.204   9.578
  821POPC   GL113573  18.269  25.247   9.212
  821POPC   GL213574  18.481  24.989   9.096
  821POPC   C1A13575  18.362  25.411   8.811
  821POPC   D2A13576  18.610  25.301   8.482
  821POPC   C3A13577  18.463  25.510   8.131
  821POPC   C4A13578  18.430  25.420   7.718
  821POPC   C1B13579  18.192  24.937   8.764
  821POPC   C2B13580  18.126  25.157   8.373
  821POPC   C3B13581  18.255  25.025   7.964
  821POPC   C4B13582  18.527  24.907   7.587
  822POPC   NC313583  10.415  40.570   9.512
  822POPC   PO413584  10.090  41.048   9.933
  822POPC   GL113585  10.263  41.100   9.426
  822POPC   GL213586  10.605  40.985   9.248
  822POPC   C1A13587  10.261  41.131   8.921
  822POPC   D2A13588  10.373  40.730   8.600
  822POPC   C3A13589  10.379  40.736   8.129
  822POPC   C4A13590  10.456  40.945   7.722
  822POPC   C1B13591  10.741  41.061   8.775
  822POPC   C2B13592  10.940  41.164   8.362
  822POPC   C3B13593  10.903  41.054   7.919
  822POPC   C4B13594  10.851  40.610   7.743
  823POPC   NC313595  22.349  27.093   9.629
  823POPC   PO413596  22.019  26.513   9.438
  823POPC   GL113597  22.294  26.696   9.140
  823POPC   GL213598  22.313  27.035   9.130
  823POPC   C1A13599  22.351  26.637   8.729
  823POPC   D2A13600  21.958  26.632   8.556
  823POPC   C3A13601  21.966  26.729   8.139
  823POPC   C4A13602  22.259  26.648   7.836
  823POPC   C1B13603  22.241  27.136   8.711
  823POPC   C2B13604  22.400  27.043   8.320
  823POPC   C3B13605  22.198  27.148   7.928
  823POPC   C4B13606  21.787  27.079   7.744
  824POPC   NC313607   8.179  36.509   9.517
  824POPC   PO413608   7.942  37.169   9.388
  824POPC   GL113609   8.127  37.015   9.035
  824POPC   GL213610   8.347  36.734   9.057
  824POPC   C1A13611   8.093  36.935   8.595
  824POPC   D2A13612   8.433  36.799   8.359
  824POPC   C3A13613   8.385  36.978   7.958
  824POPC   C4A13614   7.970  36.932   7.756
  824POPC   C1B13615   8.063  36.472   8.786
  824POPC   C2B13616   7.994  36.425   8.308
  824POPC   C3B13617   7.903  36.414   7.833
  824POPC   C4B13618   7.716  36.589   7.436
  825POPC   NC313619  43.181  19.536   9.472
  825POPC   PO413620  43.007  18.967   9.617
  825POPC   GL113621  42.985  19.118   9.229
  825POPC   GL213622  42.678  18.929   9.190
  825POPC   C1A13623  43.249  19.194   8.850
  825POPC   D2A13624  43.288  18.927   8.478
  825POPC   C3A13625  43.449  19.034   8.105
  825POPC   C4A13626  43.237  19.088   7.748
  825POPC   C1B13627  42.770  19.004   8.792
  825POPC   C2B13628  42.773  18.823   8.440
  825POPC   C3B13629  42.879  19.068   8.120
  825POPC   C4B13630  42.743  19.024   7.733
  826POPC   NC313631  20.808  20.795   9.817
  826POPC   PO413632  20.502  20.288   9.556
  826POPC   GL113633  20.492  20.542   9.180
  826POPC   GL213634  20.833  20.667   9.124
  826POPC   C1A13635  20.552  20.574   8.714
  826POPC   D2A13636  20.724  20.330   8.383
  826POPC   C3A13637  20.613  20.455   7.994
  826POPC   C4A13638  20.562  20.848   7.811
  826POPC   C1B13639  20.861  20.973   8.752
  826POPC   C2B13640  20.829  20.907   8.278
  826POPC   C3B13641  21.050  20.721   7.912
  826POPC   C4B13642  21.242  20.780   7.520
  827POPC   NC313643  11.855   8.386   9.368
  827POPC   PO413644  12.406   8.004   9.458
  827POPC   GL113645  12.274   8.272   9.121
  827POPC   GL213646  12.326   8.599   9.248
  827POPC   C1A13647  12.012   8.363   8.749
  827POPC   D2A13648  11.820   8.418   8.373
  827POPC   C3A13649  11.783   8.131   8.093
  827POPC   C4A13650  11.959   8.231   7.712
  827POPC   C1B13651  12.378   8.704   8.802
  827POPC   C2B13652  12.355   8.510   8.382
  827POPC   C3B13653  12.145   8.617   7.984
  827POPC   C4B13654  12.328   8.566   7.570
  828POPC   NC313655  39.034  19.562   9.664
  828POPC   PO413656  38.789  20.203   9.487
  828POPC   GL113657  39.072  19.941   9.196
  828POPC   GL213658  39.440  19.841   9.214
  828POPC   C1A13659  39.028  19.709   8.800
  828POPC   D2A13660  38.970  19.573   8.358
  828POPC   C3A13661  39.202  19.854   8.084
  828POPC   C4A13662  39.053  19.758   7.688
  828POPC   C1B13663  39.528  19.581   8.836
  828POPC   C2B13664  39.485  19.553   8.400
  828POPC   C3B13665  39.643  19.628   8.003
  828POPC   C4B13666  39.538  19.820   7.606
  829POPC   NC313667  15.449  15.556   9.598
  829POPC   PO413668  15.255  16.194   9.478
  829POPC   GL113669  15.117  15.955   9.149
  829POPC   GL213670  15.137  15.617   9.154
  829POPC   C1A13671  15.288  15.949   8.762
  829POPC   D2A13672  15.214  16.217   8.454
  829POPC   C3A13673  15.101  16.009   8.113
  829POPC   C4A13674  15.327  16.198   7.777
  829POPC   C1B13675  15.407  15.455   8.793
  829POPC   C2B13676  15.457  15.559   8.330
  829POPC   C3B13677  15.433  15.701   7.895
  829POPC   C4B13678  15.031  15.657   7.691
  830POPC   NC313679  19.631  36.675   9.232
  830POPC   PO413680  19.733  36.162   9.665
  830POPC   GL113681  19.764  35.961   9.225
  830POPC   GL213682  20.128  35.839   9.144
  830POPC   C1A13683  19.556  36.047   8.799
  830POPC   D2A13684  19.644  36.206   8.365
  830POPC   C3A13685  19.466  35.957   8.001
  830POPC   C4A13686  19.485  35.906   7.548
  830POPC   C1B13687  20.032  36.204   8.840
  830POPC   C2B13688  20.203  36.507   8.529
  830POPC   C3B13689  20.029  36.428   8.084
  830POPC   C4B13690  19.943  36.047   7.810
  831POPC   NC313691  23.603  44.077   9.731
  831POPC   PO413692  23.806  43.483   9.780
  831POPC   GL113693  23.836  43.869   9.345
  831POPC   GL213694  24.035  44.032   9.068
  831POPC   C1A13695  23.602  43.889   8.882
  831POPC   D2A13696  23.761  43.872   8.440
  831POPC   C3A13697  23.469  43.895   8.104
  831POPC   C4A13698  23.516  43.801   7.678
  831POPC   C1B13699  23.873  44.287   8.685
  831POPC   C2B13700  23.771  44.319   8.188
  831POPC   C3B13701  23.872  44.181   7.744
  831POPC   C4B13702  23.817  43.953   7.308
  832POPC   NC313703  40.500  32.969   9.509
  832POPC   PO413704  41.140  32.709   9.746
  832POPC   GL113705  41.100  32.919   9.252
  832POPC   GL213706  40.760  33.056   9.104
  832POPC   C1A13707  41.086  32.892   8.784
  832POPC   D2A13708  40.855  33.115   8.467
  832POPC   C3A13709  40.988  33.187   8.054
  832POPC   C4A13710  40.901  33.099   7.640
  832POPC   C1B13711  40.559  32.811   8.790
  832POPC   C2B13712  40.668  32.638   8.407
  832POPC   C3B13713  40.606  32.842   8.031
  832POPC   C4B13714  40.407  33.117   7.752
  833POPC   NC313715  32.382  16.931   9.643
  833POPC   PO413716  31.961  16.418   9.515
  833POPC   GL113717  32.130  16.734   9.180
  833POPC   GL213718  32.492  16.800   9.165
  833POPC   C1A13719  32.267  16.648   8.742
  833POPC   D2A13720  32.333  16.381   8.402
  833POPC   C3A13721  32.220  16.613   8.029
  833POPC   C4A13722  32.248  16.989   7.746
  833POPC   C1B13723  32.665  16.929   8.757
  833POPC   C2B13724  32.518  16.991   8.314
  833POPC   C3B13725  32.746  17.080   7.881
  833POPC   C4B13726  32.697  17.028   7.402
  834POPC   NC313727   3.658  25.198   9.714
  834POPC   PO413728   4.275  25.270   9.854
  834POPC   GL113729   4.211  25.286   9.371
  834POPC   GL213730   4.259  25.005   9.171
  834POPC   C1A13731   4.311  25.518   8.989
  834POPC   D2A13732   4.252  25.585   8.547
  834POPC   C3A13733   4.358  25.589   8.117
  834POPC   C4A13734   3.976  25.589   7.860
  834POPC   C1B13735   4.384  25.074   8.756
  834POPC   C2B13736   4.515  25.131   8.338
  834POPC   C3B13737   4.377  25.085   7.927
  834POPC   C4B13738   4.568  25.216   7.553
  835POPC   NC313739  40.767   9.565   9.917
  835POPC   PO413740  40.584  10.077   9.479
  835POPC   GL113741  40.870   9.867   9.113
  835POPC   GL213742  40.919   9.501   9.219
  835POPC   C1A13743  40.763   9.919   8.654
  835POPC   D2A13744  40.542   9.905   8.251
  835POPC   C3A13745  40.781  10.060   7.909
  835POPC   C4A13746  40.726  10.079   7.455
  835POPC   C1B13747  40.747   9.436   8.810
  835POPC   C2B13748  40.874   9.419   8.440
  835POPC   C3B13749  40.821   9.527   8.041
  835POPC   C4B13750  40.857   9.620   7.630
  836POPC   NC313751   6.528  15.009   9.362
  836POPC   PO413752   6.226  15.509   9.719
  836POPC   GL113753   6.406  15.505   9.265
  836POPC   GL213754   6.768  15.428   9.152
  836POPC   C1A13755   6.378  15.352   8.807
  836POPC   D2A13756   6.449  14.996   8.501
  836POPC   C3A13757   6.367  15.013   8.074
  836POPC   C4A13758   6.281  15.200   7.686
  836POPC   C1B13759   6.852  15.185   8.743
  836POPC   C2B13760   6.911  15.062   8.280
  836POPC   C3B13761   6.790  15.182   7.848
  836POPC   C4B13762   6.738  15.100   7.418
  837POPC   NC313763   0.229  20.393   9.517
  837POPC   PO413764   0.790  20.741   9.445
  837POPC   GL113765   0.548  20.538   9.146
  837POPC   GL213766   0.289  20.768   9.036
  837POPC   C1A13767   0.632  20.498   8.745
  837POPC   D2A13768   0.538  20.759   8.457
  837POPC   C3A13769   0.604  20.577   8.106
  837POPC   C4A13770   0.509  20.707   7.749
  837POPC   C1B13771   0.135  20.400   8.788
  837POPC   C2B13772   0.302  20.191   8.425
  837POPC   C3B13773   0.204  20.300   7.996
  837POPC   C4B13774   0.289  20.303   7.568
  838POPC   NC313775  35.907  26.958   9.420
  838POPC   PO413776  35.331  26.773   9.646
  838POPC   GL113777  35.247  26.748   9.212
  838POPC   GL213778  35.012  26.981   9.064
  838POPC   C1A13779  35.458  26.816   8.819
  838POPC   D2A13780  35.553  26.617   8.423
  838POPC   C3A13781  35.434  26.729   8.027
  838POPC   C4A13782  35.601  27.138   7.928
  838POPC   C1B13783  34.987  26.599   8.789
  838POPC   C2B13784  35.072  26.420   8.381
  838POPC   C3B13785  34.943  26.668   8.028
  838POPC   C4B13786  35.128  26.861   7.627
  839POPC   NC313787  21.002  11.825   9.347
  839POPC   PO413788  20.644  12.303   9.672
  839POPC   GL113789  20.808  12.291   9.256
  839POPC   GL213790  20.617  12.051   9.050
  839POPC   C1A13791  20.887  12.409   8.808
  839POPC   D2A13792  20.737  12.097   8.501
  839POPC   C3A13793  20.755  12.224   8.080
  839POPC   C4A13794  20.532  12.367   7.724
  839POPC   C1B13795  20.347  11.794   8.756
  839POPC   C2B13796  20.412  11.662   8.308
  839POPC   C3B13797  20.534  11.806   7.879
  839POPC   C4B13798  20.962  11.910   7.713
  840POPC   NC313799   6.281  19.861   9.506
  840POPC   PO413800   6.848  20.216   9.417
  840POPC   GL113801   6.782  19.910   9.101
  840POPC   GL213802   6.495  19.707   9.074
  840POPC   C1A13803   6.989  19.801   8.736
  840POPC   D2A13804   7.031  20.030   8.355
  840POPC   C3A13805   6.690  19.852   8.180
  840POPC   C4A13806   6.512  19.793   7.793
  840POPC   C1B13807   6.533  19.547   8.670
  840POPC   C2B13808   6.284  19.588   8.290
  840POPC   C3B13809   6.262  19.371   7.894
  840POPC   C4B13810   6.450  19.343   7.485
  841POPC   NC313811  44.598  30.285   9.598
  841POPC   PO413812  44.888  30.828   9.747
  841POPC   GL113813  44.668  30.755   9.361
  841POPC   GL213814  44.846  30.961   9.147
  841POPC   C1A13815  44.557  30.573   8.970
  841POPC   D2A13816  44.625  30.663   8.523
  841POPC   C3A13817  44.583  30.454   8.106
  841POPC   C4A13818  44.550  30.612   7.677
  841POPC   C1B13819  44.972  31.077   8.699
  841POPC   C2B13820  44.955  30.986   8.239
  841POPC   C3B13821  44.781  31.048   7.845
  841POPC   C4B13822  44.858  30.980   7.410
  842POPC   NC313823  38.329  34.129   9.588
  842POPC   PO413824  38.793  33.710   9.515
  842POPC   GL113825  38.457  33.763   9.240
  842POPC   GL213826  38.641  34.044   9.144
  842POPC   C1A13827  38.325  33.653   8.834
  842POPC   D2A13828  38.493  33.837   8.449
  842POPC   C3A13829  38.319  33.741   8.033
  842POPC   C4A13830  38.483  33.518   7.675
  842POPC   C1B13831  38.338  34.170   8.861
  842POPC   C2B13832  38.328  34.362   8.465
  842POPC   C3B13833  38.549  34.238   8.121
  842POPC   C4B13834  38.686  33.999   7.805
  843POPC   NC313835  35.555  18.833   9.575
  843POPC   PO413836  35.078  19.230   9.639
  843POPC   GL113837  35.281  19.186   9.230
  843POPC   GL213838  35.664  19.120   9.160
  843POPC   C1A13839  35.258  18.996   8.818
  843POPC   D2A13840  35.431  19.176   8.460
  843POPC   C3A13841  35.262  19.098   8.072
  843POPC   C4A13842  35.316  18.975   7.657
  843POPC   C1B13843  35.661  18.702   8.929
  843POPC   C2B13844  35.609  18.703   8.462
  843POPC   C3B13845  35.803  18.965   8.153
  843POPC   C4B13846  35.823  19.046   7.713
  844POPC   NC313847   0.864  26.890   9.520
  844POPC   PO413848   1.463  27.133   9.742
  844POPC   GL113849   1.325  26.986   9.283
  844POPC   GL213850   1.225  26.689   9.122
  844POPC   C1A13851   1.463  27.005   8.809
  844POPC   D2A13852   1.261  27.066   8.413
  844POPC   C3A13853   1.167  26.809   8.086
  844POPC   C4A13854   1.248  27.028   7.708
  844POPC   C1B13855   1.152  26.582   8.689
  844POPC   C2B13856   0.753  26.556   8.477
  844POPC   C3B13857   0.696  26.568   8.062
  844POPC   C4B13858   0.754  26.891   7.771
  845POPC   NC313859  25.479  22.483   9.642
  845POPC   PO413860  24.847  22.333   9.439
  845POPC   GL113861  25.253  22.371   9.187
  845POPC   GL213862  25.427  22.074   9.305
  845POPC   C1A13863  25.493  22.471   8.769
  845POPC   D2A13864  25.384  22.514   8.306
  845POPC   C3A13865  25.406  22.224   7.959
  845POPC   C4A13866  25.386  22.278   7.521
  845POPC   C1B13867  25.355  21.979   8.849
  845POPC   C2B13868  25.558  21.998   8.415
  845POPC   C3B13869  25.609  21.742   8.028
  845POPC   C4B13870  25.304  21.800   7.679
  846POPC   NC313871  15.187  21.417   9.529
  846POPC   PO413872  15.696  21.867   9.358
  846POPC   GL113873  15.539  21.435   9.119
  846POPC   GL213874  15.154  21.392   9.029
  846POPC   C1A13875  15.460  21.140   8.702
  846POPC   D2A13876  15.486  21.099   8.198
  846POPC   C3A13877  15.463  21.470   7.907
  846POPC   C4A13878  15.223  21.733   7.627
  846POPC   C1B13879  14.880  21.182   8.730
  846POPC   C2B13880  14.866  21.091   8.286
  846POPC   C3B13881  14.978  21.310   7.921
  846POPC   C4B13882  14.988  21.311   7.490
  847POPC   NC313883  33.297  14.738   9.539
  847POPC   PO413884  32.961  14.162   9.594
  847POPC   GL113885  32.994  14.268   9.168
  847POPC   GL213886  32.905  14.627   9.164
  847POPC   C1A13887  32.857  14.302   8.727
  847POPC   D2A13888  33.008  14.442   8.326
  847POPC   C3A13889  32.978  14.272   7.924
  847POPC   C4A13890  33.253  14.399   7.592
  847POPC   C1B13891  32.727  14.867   8.808
  847POPC   C2B13892  32.565  14.734   8.429
  847POPC   C3B13893  32.636  14.684   8.018
  847POPC   C4B13894  32.766  14.617   7.598
  848POPC   NC313895  22.733  39.420   9.657
  848POPC   PO413896  23.231  38.915   9.497
  848POPC   GL113897  23.044  39.241   9.238
  848POPC   GL213898  22.675  39.323   9.164
  848POPC   C1A13899  22.992  39.103   8.831
  848POPC   D2A13900  23.063  38.939   8.448
  848POPC   C3A13901  23.124  39.235   8.109
  848POPC   C4A13902  23.129  39.138   7.677
  848POPC   C1B13903  22.491  39.144   8.770
  848POPC   C2B13904  22.621  39.198   8.334
  848POPC   C3B13905  22.657  39.300   7.905
  848POPC   C4B13906  22.536  39.559   7.590
  849POPC   NC313907   3.002  14.167   9.277
  849POPC   PO413908   3.466  14.434   9.764
  849POPC   GL113909   3.513  14.472   9.296
  849POPC   GL213910   3.506  14.129   9.136
  849POPC   C1A13911   3.562  14.616   8.850
  849POPC   D2A13912   3.744  14.542   8.429
  849POPC   C3A13913   3.571  14.642   8.011
  849POPC   C4A13914   3.587  14.436   7.593
  849POPC   C1B13915   3.347  14.173   8.703
  849POPC   C2B13916   3.245  14.335   8.291
  849POPC   C3B13917   3.252  14.147   7.883
  849POPC   C4B13918   3.201  13.793   7.639
  850POPC   NC313919  13.804  41.118   9.916
  850POPC   PO413920  13.683  40.566   9.534
  850POPC   GL113921  13.721  40.633   9.093
  850POPC   GL213922  13.709  41.005   9.106
  850POPC   C1A13923  13.566  40.743   8.688
  850POPC   D2A13924  13.373  41.013   8.410
  850POPC   C3A13925  13.478  40.896   8.018
  850POPC   C4A13926  13.391  40.594   7.749
  850POPC   C1B13927  13.918  41.106   8.729
  850POPC   C2B13928  13.859  41.061   8.316
  850POPC   C3B13929  13.917  41.134   7.892
  850POPC   C4B13930  13.832  40.843   7.577
  851POPC   NC313931   8.717  13.872   9.638
  851POPC   PO413932   9.098  13.332   9.610
  851POPC   GL113933   9.022  13.633   9.279
  851POPC   GL213934   8.741  13.531   9.208
  851POPC   C1A13935   9.077  13.707   8.837
  851POPC   D2A13936   8.872  13.675   8.430
  851POPC   C3A13937   9.084  13.884   8.101
  851POPC   C4A13938   9.354  14.083   7.772
  851POPC   C1B13939   8.667  13.371   8.803
  851POPC   C2B13940   8.768  13.171   8.396
  851POPC   C3B13941   8.985  13.362   8.032
  851POPC   C4B13942   8.790  13.537   7.665
  852POPC   NC313943  23.428  36.474   9.429
  852POPC   PO413944  23.687  37.171   9.490
  852POPC   GL113945  23.702  36.865   9.167
  852POPC   GL213946  23.370  36.891   9.113
  852POPC   C1A13947  23.753  36.836   8.732
  852POPC   D2A13948  23.615  37.050   8.359
  852POPC   C3A13949  23.907  37.063   8.012
  852POPC   C4A13950  24.227  37.092   7.670
  852POPC   C1B13951  23.323  36.560   8.795
  852POPC   C2B13952  23.326  36.532   8.359
  852POPC   C3B13953  23.348  36.780   7.999
  852POPC   C4B13954  23.469  37.144   7.766
  853POPC   NC313955  10.202  37.701   9.477
  853POPC   PO413956  10.801  37.334   9.628
  853POPC   GL113957  10.920  37.490   9.252
  853POPC   GL213958  10.560  37.467   9.167
  853POPC   C1A13959  10.900  37.700   8.882
  853POPC   D2A13960  10.634  37.570   8.550
  853POPC   C3A13961  10.730  37.680   8.124
  853POPC   C4A13962  10.466  37.770   7.780
  853POPC   C1B13963  10.237  37.377   8.851
  853POPC   C2B13964  10.233  37.271   8.416
  853POPC   C3B13965  10.445  37.270   8.021
  853POPC   C4B13966  10.210  37.049   7.709
  854POPC   NC313967  34.845   1.258   9.619
  854POPC   PO413968  34.346   0.869   9.422
  854POPC   GL113969  34.613   1.004   9.115
  854POPC   GL213970  34.608   1.340   9.164
  854POPC   C1A13971  34.568   1.122   8.672
  854POPC   D2A13972  34.248   1.186   8.372
  854POPC   C3A13973  34.348   1.320   7.974
  854POPC   C4A13974  34.536   1.190   7.603
  854POPC   C1B13975  34.823   1.561   8.807
  854POPC   C2B13976  34.631   1.585   8.421
  854POPC   C3B13977  34.743   1.662   8.036
  854POPC   C4B13978  34.936   1.482   7.714
  855POPC   NC313979  13.400  29.950   9.508
  855POPC   PO413980  14.079  29.647   9.453
  855POPC   GL113981  13.721  29.770   9.129
  855POPC   GL213982  13.586  30.109   9.080
  855POPC   C1A13983  13.579  29.814   8.663
  855POPC   D2A13984  13.737  30.012   8.260
  855POPC   C3A13985  13.489  29.956   7.893
  855POPC   C4A13986  13.305  29.774   7.551
  855POPC   C1B13987  13.630  30.309   8.740
  855POPC   C2B13988  13.364  30.307   8.379
  855POPC   C3B13989  13.464  30.457   7.981
  855POPC   C4B13990  13.824  30.327   7.801
  856POPC   NC313991  27.694  18.128   9.359
  856POPC   PO413992  27.598  18.733   9.527
  856POPC   GL113993  27.704  18.557   9.107
  856POPC   GL213994  28.019  18.435   8.993
  856POPC   C1A13995  27.540  18.329   8.756
  856POPC   D2A13996  27.430  18.476   8.379
  856POPC   C3A13997  27.770  18.477   8.099
  856POPC   C4A13998  27.614  18.334   7.742
  856POPC   C1B13999  28.034  18.054   8.754
  856POPC   C2B14000  27.865  17.979   8.339
  856POPC   C3B14001  27.986  18.020   7.900
  856POPC   C4B14002  27.903  18.033   7.442
  857POPC   NC314003   8.075  22.316   9.439
  857POPC   PO414004   8.634  21.967   9.400
  857POPC   GL114005   8.441  22.221   9.069
  857POPC   GL214006   8.098  22.048   9.015
  857POPC   C1A14007   8.423  22.177   8.623
  857POPC   D2A14008   8.104  21.973   8.433
  857POPC   C3A14009   8.029  22.092   8.031
  857POPC   C4A14010   8.308  22.221   7.704
  857POPC   C1B14011   8.350  21.742   8.865
  857POPC   C2B14012   8.512  21.646   8.465
  857POPC   C3B14013   8.499  21.859   8.070
  857POPC   C4B14014   8.213  21.723   7.724
  858POPC   NC314015   4.135  44.867   9.503
  858POPC   PO414016   4.770  44.932   9.793
  858POPC   GL114017   4.711  44.744   9.337
  858POPC   GL214018   4.774  44.984   9.030
  858POPC   C1A14019   4.477  44.562   8.946
  858POPC   D2A14020   4.242  44.642   8.531
  858POPC   C3A14021   4.472  44.528   8.146
  858POPC   C4A14022   4.285  44.305   7.796
  858POPC   C1B14023   4.436   0.066   8.736
  858POPC   C2B14024   4.331   0.128   8.297
  858POPC   C3B14025   4.186  44.910   7.947
  858POPC   C4B14026   4.494  44.735   7.679
  859POPC   NC314027   1.802  27.120   9.404
  859POPC   PO414028   2.281  27.635   9.463
  859POPC   GL114029   2.029  27.510   9.125
  859POPC   GL214030   2.297  27.572   8.934
  859POPC   C1A14031   1.785  27.601   8.744
  859POPC   D2A14032   1.730  27.372   8.380
  859POPC   C3A14033   1.784  27.703   8.094
  859POPC   C4A14034   1.911  27.727   7.690
  859POPC   C1B14035   2.152  27.257   8.662
  859POPC   C2B14036   2.128  27.071   8.267
  859POPC   C3B14037   2.092  27.300   7.893
  859POPC   C4B14038   2.167  27.380   7.425
  860POPC   NC314039  19.793   3.894   9.499
  860POPC   PO414040  20.190   3.342   9.579
  860POPC   GL114041  19.843   3.409   9.250
  860POPC   GL214042  19.754   3.732   9.035
  860POPC   C1A14043  19.686   3.290   8.833
  860POPC   D2A14044  19.747   3.571   8.479
  860POPC   C3A14045  19.922   3.334   8.134
  860POPC   C4A14046  20.057   3.526   7.778
  860POPC   C1B14047  19.574   4.022   8.725
  860POPC   C2B14048  19.427   3.955   8.305
  860POPC   C3B14049  19.697   3.823   7.989
  860POPC   C4B14050  19.754   3.870   7.516
  861POPC   NC314051  43.543  42.096   9.443
  861POPC   PO414052  44.028  41.582   9.485
  861POPC   GL114053  43.736  41.668   9.184
  861POPC   GL214054  43.763  41.979   8.998
  861POPC   C1A14055  43.799  41.505   8.787
  861POPC   D2A14056  44.197  41.419   8.539
  861POPC   C3A14057  44.234  41.383   8.077
  861POPC   C4A14058  43.860  41.454   7.845
  861POPC   C1B14059  44.016  41.930   8.605
  861POPC   C2B14060  43.999  41.820   8.195
  861POPC   C3B14061  44.186  41.841   7.796
  861POPC   C4B14062  44.385  41.896   7.408
  862POPC   NC314063   2.598  30.502   9.418
  862POPC   PO414064   3.048  30.917   9.486
  862POPC   GL114065   2.785  30.861   9.102
  862POPC   GL214066   2.755  30.534   8.943
  862POPC   C1A14067   2.702  31.058   8.671
  862POPC   D2A14068   2.772  31.108   8.201
  862POPC   C3A14069   2.780  30.739   7.977
  862POPC   C4A14070   2.689  30.322   7.847
  862POPC   C1B14071   2.366  30.653   8.760
  862POPC   C2B14072   2.416  30.604   8.329
  862POPC   C3B14073   2.280  30.639   7.915
  862POPC   C4B14074   2.344  30.477   7.510
  863POPC   NC314075  12.375  38.369   9.537
  863POPC   PO414076  11.776  38.706   9.524
  863POPC   GL114077  12.045  38.481   9.164
  863POPC   GL214078  12.126  38.118   9.153
  863POPC   C1A14079  12.237  38.399   8.742
  863POPC   D2A14080  12.373  38.477   8.327
  863POPC   C3A14081  12.037  38.623   8.094
  863POPC   C4A14082  11.966  38.448   7.708
  863POPC   C1B14083  12.533  38.039   8.927
  863POPC   C2B14084  12.684  38.114   8.544
  863POPC   C3B14085  12.514  37.946   8.169
  863POPC   C4B14086  12.425  38.104   7.759
  864POPC   NC314087  41.752  21.140   9.344
  864POPC   PO414088  41.402  21.743   9.487
  864POPC   GL114089  41.451  21.494   9.139
  864POPC   GL214090  41.801  21.621   9.125
  864POPC   C1A14091  41.587  21.290   8.732
  864POPC   D2A14092  41.827  21.343   8.348
  864POPC   C3A14093  41.532  21.309   7.994
  864POPC   C4A14094  41.563  21.245   7.562
  864POPC   C1B14095  41.938  21.900   8.796
  864POPC   C2B14096  41.848  21.860   8.366
  864POPC   C3B14097  41.940  21.651   7.940
  864POPC   C4B14098  41.990  21.510   7.460
  865POPC   NC314099   4.970  23.414   9.399
  865POPC   PO414100   5.146  24.052   9.511
  865POPC   GL114101   5.100  23.987   9.061
  865POPC   GL214102   5.257  23.694   9.081
  865POPC   C1A14103   4.868  23.722   8.735
  865POPC   D2A14104   4.666  23.699   8.336
  865POPC   C3A14105   4.897  23.814   7.984
  865POPC   C4A14106   5.120  24.042   7.673
  865POPC   C1B14107   5.205  23.345   8.783
  865POPC   C2B14108   5.172  23.472   8.345
  865POPC   C3B14109   5.225  23.422   7.919
  865POPC   C4B14110   5.233  23.569   7.500
  866POPC   NC314111   4.563  43.888   9.537
  866POPC   PO414112   4.004  44.325   9.583
  866POPC   GL114113   4.140  44.044   9.251
  866POPC   GL214114   4.147  43.662   9.265
  866POPC   C1A14115   4.389  43.999   8.865
  866POPC   D2A14116   4.351  44.146   8.451
  866POPC   C3A14117   4.576  44.010   8.099
  866POPC   C4A14118   4.510  43.876   7.663
  866POPC   C1B14119   3.916  43.775   8.871
  866POPC   C2B14120   3.921  43.887   8.444
  866POPC   C3B14121   4.069  43.911   8.032
  866POPC   C4B14122   4.005  43.817   7.601
  867POPC   NC314123  23.530   4.010   9.477
  867POPC   PO414124  23.703   4.580   9.611
  867POPC   GL114125  23.733   4.391   9.222
  867POPC   GL214126  23.366   4.458   9.206
  867POPC   C1A14127  23.845   4.229   8.842
  867POPC   D2A14128  23.645   4.277   8.477
  867POPC   C3A14129  23.873   4.306   8.109
  867POPC   C4A14130  23.859   4.252   7.703
  867POPC   C1B14131  23.295   4.180   8.851
  867POPC   C2B14132  23.177   4.121   8.396
  867POPC   C3B14133  23.352   4.296   8.042
  867POPC   C4B14134  23.360   4.170   7.631
  868POPC   NC314135  22.802  37.864   9.367
  868POPC   PO414136  23.335  37.703   9.723
  868POPC   GL114137  23.291  37.552   9.189
  868POPC   GL214138  23.046  37.704   8.965
  868POPC   C1A14139  23.435  37.503   8.731
  868POPC   D2A14140  23.386  37.843   8.442
  868POPC   C3A14141  23.018  37.822   8.203
  868POPC   C4A14142  23.033  37.781   7.792
  868POPC   C1B14143  22.883  37.544   8.628
  868POPC   C2B14144  22.523  37.662   8.410
  868POPC   C3B14145  22.465  37.848   8.031
  868POPC   C4B14146  22.591  37.575   7.715
  869POPC   NC314147   0.634  16.485   9.500
  869POPC   PO414148   1.325  16.623   9.489
  869POPC   GL114149   1.421  16.784   9.100
  869POPC   GL214150   1.105  16.976   8.990
  869POPC   C1A14151   1.384  16.629   8.710
  869POPC   D2A14152   1.186  16.820   8.397
  869POPC   C3A14153   1.274  16.622   8.042
  869POPC   C4A14154   1.249  16.965   7.826
  869POPC   C1B14155   0.854  16.642   8.751
  869POPC   C2B14156   0.824  16.449   8.322
  869POPC   C3B14157   0.760  16.581   7.898
  869POPC   C4B14158   1.024  16.438   7.572
  870POPC   NC314159  41.087  18.715   9.596
  870POPC   PO414160  40.779  18.020   9.463
  870POPC   GL114161  40.848  18.225   9.101
  870POPC   GL214162  40.886  18.575   9.152
  870POPC   C1A14163  40.818  18.047   8.695
  870POPC   D2A14164  40.792  18.202   8.287
  870POPC   C3A14165  40.567  17.970   7.945
  870POPC   C4A14166  40.504  18.145   7.535
  870POPC   C1B14167  40.743  18.566   8.721
  870POPC   C2B14168  40.578  18.695   8.299
  870POPC   C3B14169  40.642  18.491   7.898
  870POPC   C4B14170  40.980  18.203   7.783
  871POPC   NC314171  17.264  34.201   9.568
  871POPC   PO414172  17.522  33.542   9.559
  871POPC   GL114173  17.505  33.753   9.140
  871POPC   GL214174  17.174  33.925   9.135
  871POPC   C1A14175  17.589  33.754   8.670
  871POPC   D2A14176  17.766  33.779   8.214
  871POPC   C3A14177  17.700  33.666   7.757
  871POPC   C4A14178  17.642  34.004   7.379
  871POPC   C1B14179  16.974  33.827   8.752
  871POPC   C2B14180  17.173  33.797   8.367
  871POPC   C3B14181  17.260  33.639   8.000
  871POPC   C4B14182  17.232  33.786   7.581
  872POPC   NC314183  20.369   1.418   9.627
  872POPC   PO414184  20.715   0.750   9.719
  872POPC   GL114185  20.714   1.151   9.388
  872POPC   GL214186  21.014   1.275   9.215
  872POPC   C1A14187  20.621   1.147   8.919
  872POPC   D2A14188  20.540   1.167   8.450
  872POPC   C3A14189  20.628   1.454   8.090
  872POPC   C4A14190  20.631   1.356   7.643
  872POPC   C1B14191  21.017   1.438   8.770
  872POPC   C2B14192  21.066   1.260   8.358
  872POPC   C3B14193  21.041   1.112   7.947
  872POPC   C4B14194  20.864   0.828   7.687
  873POPC   NC314195  20.954  25.789   9.150
  873POPC   PO414196  20.704  26.241   9.626
  873POPC   GL114197  20.647  26.234   9.172
  873POPC   GL214198  20.398  25.982   9.133
  873POPC   C1A14199  20.673  26.166   8.697
  873POPC   D2A14200  20.556  25.935   8.317
  873POPC   C3A14201  20.653  26.139   7.979
  873POPC   C4A14202  20.926  25.935   7.741
  873POPC   C1B14203  20.287  25.813   8.717
  873POPC   C2B14204  20.133  25.635   8.297
  873POPC   C3B14205  20.053  25.703   7.859
  873POPC   C4B14206  20.353  25.953   7.604
  874POPC   NC314207   3.241  12.497   9.567
  874POPC   PO414208   3.895  12.503   9.725
  874POPC   GL114209   3.671  12.602   9.268
  874POPC   GL214210   3.639  12.974   9.173
  874POPC   C1A14211   3.288  12.673   8.943
  874POPC   D2A14212   3.267  12.886   8.535
  874POPC   C3A14213   3.388  12.709   8.131
  874POPC   C4A14214   3.488  12.998   7.798
  874POPC   C1B14215   3.747  12.765   8.764
  874POPC   C2B14216   3.783  12.933   8.375
  874POPC   C3B14217   3.926  12.798   8.026
  874POPC   C4B14218   3.962  12.986   7.640
  875POPC   NC314219  41.064  27.274   9.344
  875POPC   PO414220  40.700  27.779   9.470
  875POPC   GL114221  40.741  27.667   9.086
  875POPC   GL214222  41.086  27.752   9.021
  875POPC   C1A14223  40.648  27.394   8.755
  875POPC   D2A14224  40.558  27.153   8.379
  875POPC   C3A14225  40.443  27.343   8.002
  875POPC   C4A14226  40.646  27.587   7.712
  875POPC   C1B14227  40.812  27.889   8.636
  875POPC   C2B14228  40.801  27.735   8.186
  875POPC   C3B14229  41.021  27.901   7.843
  875POPC   C4B14230  41.005  28.007   7.404
  876POPC   NC314231  31.247   2.683   9.483
  876POPC   PO414232  31.841   2.723   9.480
  876POPC   GL114233  31.657   2.624   9.132
  876POPC   GL214234  31.481   2.940   9.117
  876POPC   C1A14235  31.707   2.737   8.725
  876POPC   D2A14236  31.492   2.765   8.371
  876POPC   C3A14237  31.703   2.740   7.988
  876POPC   C4A14238  31.697   2.540   7.575
  876POPC   C1B14239  31.180   2.722   8.813
  876POPC   C2B14240  30.981   2.688   8.379
  876POPC   C3B14241  31.191   2.770   7.955
  876POPC   C4B14242  31.221   2.632   7.528
  877POPC   NC314243  44.500  39.395   9.619
  877POPC   PO414244  44.519  38.862   9.314
  877POPC   GL114245  44.505  39.247   9.143
  877POPC   GL214246  44.835  39.450   9.212
  877POPC   C1A14247  44.348  39.204   8.768
  877POPC   D2A14248  44.483  38.982   8.418
  877POPC   C3A14249  44.438  39.196   8.050
  877POPC   C4A14250  44.746  39.158   7.735
  877POPC   C1B14251  44.697  39.562   8.804
  877POPC   C2B14252  44.608  39.529   8.407
  877POPC   C3B14253  44.864  39.525   8.056
  877POPC   C4B14254  44.789  39.641   7.618
  878POPC   NC314255   7.507  24.327   9.541
  878POPC   PO414256   6.914  24.007   9.635
  878POPC   GL114257   7.016  24.255   9.219
  878POPC   GL214258   7.165  24.615   9.234
  878POPC   C1A14259   7.104  24.440   8.768
  878POPC   D2A14260   7.509  24.532   8.570
  878POPC   C3A14261   7.556  24.463   8.117
  878POPC   C4A14262   7.481  24.239   7.714
  878POPC   C1B14263   7.219  24.930   8.870
  878POPC   C2B14264   7.157  24.862   8.410
  878POPC   C3B14265   7.120  24.733   7.970
  878POPC   C4B14266   7.469  24.761   7.694
  879POPC   NC314267  22.512  23.901   9.614
  879POPC   PO414268  21.847  23.982   9.554
  879POPC   GL114269  21.827  23.745   9.158
  879POPC   GL214270  21.868  23.382   9.172
  879POPC   C1A14271  22.003  23.753   8.757
  879POPC   D2A14272  22.113  24.048   8.459
  879POPC   C3A14273  21.981  23.935   8.077
  879POPC   C4A14274  22.203  23.875   7.749
  879POPC   C1B14275  21.658  23.353   8.761
  879POPC   C2B14276  21.785  23.496   8.333
  879POPC   C3B14277  22.130  23.454   8.029
  879POPC   C4B14278  22.467  23.339   7.772
  880POPC   NC314279  35.828  43.478   9.645
  880POPC   PO414280  36.432  43.068   9.512
  880POPC   GL114281  36.192  42.823   9.174
  880POPC   GL214282  36.537  42.779   9.113
  880POPC   C1A14283  35.962  42.691   8.791
  880POPC   D2A14284  35.986  42.914   8.389
  880POPC   C3A14285  35.872  42.830   7.961
  880POPC   C4A14286  36.032  43.005   7.591
  880POPC   C1B14287  36.639  42.933   8.705
  880POPC   C2B14288  36.471  43.021   8.259
  880POPC   C3B14289  36.455  43.208   7.831
  880POPC   C4B14290  36.555  43.130   7.361
  881POPC   NC314291  11.741  34.512   9.445
  881POPC   PO414292  11.186  34.170   9.441
  881POPC   GL114293  11.323  34.503   9.135
  881POPC   GL214294  11.620  34.484   8.943
  881POPC   C1A14295  11.210  34.789   8.819
  881POPC   D2A14296  11.100  34.756   8.424
  881POPC   C3A14297  10.938  34.832   8.074
  881POPC   C4A14298  11.122  34.916   7.715
  881POPC   C1B14299  11.297  34.319   8.646
  881POPC   C2B14300  11.229  34.318   8.191
  881POPC   C3B14301  11.319  34.452   7.758
  881POPC   C4B14302  11.375  34.638   7.366
  882POPC   NC314303   5.185  31.203   9.530
  882POPC   PO414304   4.928  31.842   9.594
  882POPC   GL114305   4.930  31.550   9.264
  882POPC   GL214306   5.324  31.645   9.260
  882POPC   C1A14307   4.803  31.242   8.902
  882POPC   D2A14308   4.633  31.130   8.460
  882POPC   C3A14309   4.736  30.968   8.027
  882POPC   C4A14310   4.895  31.216   7.679
  882POPC   C1B14311   5.184  31.583   8.842
  882POPC   C2B14312   5.067  31.410   8.485
  882POPC   C3B14313   5.127  31.401   8.081
  882POPC   C4B14314   5.288  31.596   7.717
  883POPC   NC314315  34.028   1.265   9.391
  883POPC   PO414316  33.680   0.788   9.651
  883POPC   GL114317  33.822   0.826   9.223
  883POPC   GL214318  33.562   1.065   9.135
  883POPC   C1A14319  33.918   0.990   8.767
  883POPC   D2A14320  33.768   1.346   8.467
  883POPC   C3A14321  33.838   1.266   8.033
  883POPC   C4A14322  33.827   0.956   7.711
  883POPC   C1B14323  33.423   1.436   8.870
  883POPC   C2B14324  33.234   1.538   8.464
  883POPC   C3B14325  33.396   1.508   8.050
  883POPC   C4B14326  33.518   1.477   7.599
  884POPC   NC314327   8.006  33.342   9.559
  884POPC   PO414328   7.951  32.679   9.425
  884POPC   GL114329   8.165  32.984   9.174
  884POPC   GL214330   7.842  33.182   9.096
  884POPC   C1A14331   8.451  32.984   8.793
  884POPC   D2A14332   8.601  32.743   8.424
  884POPC   C3A14333   8.533  32.902   7.977
  884POPC   C4A14334   8.232  32.883   7.609
  884POPC   C1B14335   7.878  32.863   8.779
  884POPC   C2B14336   8.122  32.859   8.419
  884POPC   C3B14337   8.007  32.972   8.040
  884POPC   C4B14338   7.797  33.146   7.675
  885POPC   NC314339  28.932  14.470   9.628
  885POPC   PO414340  29.354  14.543   9.178
  885POPC   GL114341  28.990  14.299   9.103
  885POPC   GL214342  28.772  14.551   9.145
  885POPC   C1A14343  28.906  14.251   8.652
  885POPC   D2A14344  29.127  14.528   8.354
  885POPC   C3A14345  29.238  14.330   7.981
  885POPC   C4A14346  29.287  14.485   7.593
  885POPC   C1B14347  28.660  14.701   8.724
  885POPC   C2B14348  28.709  14.832   8.275
  885POPC   C3B14349  28.849  14.666   7.869
  885POPC   C4B14350  28.789  14.690   7.396
  886POPC   NC314351   7.446   3.667   9.606
  886POPC   PO414352   7.542   3.078   9.406
  886POPC   GL114353   7.527   3.432   9.107
  886POPC   GL214354   7.556   3.812   9.146
  886POPC   C1A14355   7.351   3.539   8.699
  886POPC   D2A14356   7.205   3.795   8.348
  886POPC   C3A14357   7.136   3.514   7.991
  886POPC   C4A14358   7.023   3.446   7.561
  886POPC   C1B14359   7.805   3.754   8.779
  886POPC   C2B14360   7.775   3.588   8.349
  886POPC   C3B14361   7.912   3.601   7.901
  886POPC   C4B14362   7.508   3.615   7.654
  887POPC   NC314363  20.893  27.376   9.563
  887POPC   PO414364  20.426  27.839   9.550
  887POPC   GL114365  20.480  27.611   9.183
  887POPC   GL214366  20.845  27.660   9.110
  887POPC   C1A14367  20.468  27.540   8.734
  887POPC   D2A14368  20.692  27.588   8.339
  887POPC   C3A14369  20.428  27.587   7.982
  887POPC   C4A14370  20.204  27.197   7.802
  887POPC   C1B14371  20.796  27.942   8.746
  887POPC   C2B14372  20.751  28.105   8.313
  887POPC   C3B14373  20.872  27.918   7.938
  887POPC   C4B14374  20.820  27.637   7.613
  888POPC   NC314375  16.099  44.517   9.512
  888POPC   PO414376  15.661  44.943   9.675
  888POPC   GL114377  15.910  44.925   9.268
  888POPC   GL214378  15.765  44.605   9.098
  888POPC   C1A14379  16.161  44.842   8.886
  888POPC   D2A14380  16.238  44.836   8.420
  888POPC   C3A14381  16.080  44.535   8.089
  888POPC   C4A14382  16.028  44.580   7.610
  888POPC   C1B14383  15.738  44.669   8.635
  888POPC   C2B14384  15.713  44.879   8.269
  888POPC   C3B14385  15.668  44.784   7.892
  888POPC   C4B14386  15.668  44.302   7.814
  889POPC   NC314387  21.922   2.460   9.472
  889POPC   PO414388  22.079   1.798   9.571
  889POPC   GL114389  22.182   1.712   9.170
  889POPC   GL214390  22.189   2.117   9.164
  889POPC   C1A14391  21.914   1.504   8.824
  889POPC   D2A14392  21.865   1.697   8.403
  889POPC   C3A14393  22.159   1.744   8.036
  889POPC   C4A14394  22.405   1.714   7.617
  889POPC   C1B14395  21.992   1.998   8.807
  889POPC   C2B14396  22.131   2.124   8.431
  889POPC   C3B14397  21.848   2.154   8.102
  889POPC   C4B14398  22.058   2.134   7.713
  890POPC   NC314399  44.360  27.898   9.597
  890POPC   PO414400  44.716  27.249   9.532
  890POPC   GL114401  44.759  27.717   9.304
  890POPC   GL214402   0.095  27.942   9.303
  890POPC   C1A14403  44.636  27.823   8.860
  890POPC   D2A14404  44.546  27.576   8.476
  890POPC   C3A14405  44.555  27.668   8.024
  890POPC   C4A14406  44.565  27.372   7.688
  890POPC   C1B14407   0.146  27.832   8.885
  890POPC   C2B14408   0.083  28.023   8.496
  890POPC   C3B14409  44.993  27.919   8.066
  890POPC   C4B14410   0.013  27.670   7.655
  891POPC   NC314411  36.682  29.569   9.399
  891POPC   PO414412  37.033  29.035   9.469
  891POPC   GL114413  36.987  29.246   9.129
  891POPC   GL214414  36.639  29.120   9.131
  891POPC   C1A14415  37.058  29.190   8.707
  891POPC   D2A14416  36.877  29.403   8.347
  891POPC   C3A14417  36.979  29.153   8.019
  891POPC   C4A14418  37.084  29.174   7.621
  891POPC   C1B14419  36.577  29.316   8.759
  891POPC   C2B14420  36.639  28.974   8.449
  891POPC   C3B14421  36.580  28.862   8.044
  891POPC   C4B14422  36.551  29.154   7.697
  892POPC   NC314423  35.822  36.440   9.490
  892POPC   PO414424  36.267  35.863   9.422
  892POPC   GL114425  36.075  36.173   9.149
  892POPC   GL214426  36.203  36.004   8.924
  892POPC   C1A14427  36.118  36.441   8.750
  892POPC   D2A14428  36.166  36.169   8.392
  892POPC   C3A14429  36.125  36.371   8.039
  892POPC   C4A14430  35.976  36.329   7.642
  892POPC   C1B14431  36.335  35.739   8.644
  892POPC   C2B14432  36.488  35.793   8.234
  892POPC   C3B14433  36.325  35.934   7.835
  892POPC   C4B14434  35.927  35.835   7.735
  893POPC   NC314435   2.228  20.230   9.563
  893POPC   PO414436   1.459  19.982   9.743
  893POPC   GL114437   1.847  20.015   9.345
  893POPC   GL214438   2.067  19.760   9.206
  893POPC   C1A14439   1.865  20.096   8.856
  893POPC   D2A14440   1.729  20.226   8.418
  893POPC   C3A14441   2.084  20.319   8.145
  893POPC   C4A14442   2.172  19.990   7.860
  893POPC   C1B14443   1.777  19.573   8.879
  893POPC   C2B14444   1.676  19.459   8.485
  893POPC   C3B14445   1.890  19.601   8.126
  893POPC   C4B14446   1.755  19.642   7.718
  894POPC   NC314447   6.083  27.516   9.865
  894POPC   PO414448   5.555  27.538   9.432
  894POPC   GL114449   5.647  27.802   9.097
  894POPC   GL214450   5.899  28.010   9.260
  894POPC   C1A14451   5.646  27.668   8.660
  894POPC   D2A14452   5.942  27.430   8.389
  894POPC   C3A14453   5.981  27.525   7.971
  894POPC   C4A14454   5.905  27.259   7.658
  894POPC   C1B14455   5.960  28.098   8.818
  894POPC   C2B14456   5.891  28.079   8.382
  894POPC   C3B14457   6.241  27.909   8.185
  894POPC   C4B14458   6.384  27.950   7.791
  895POPC   NC314459   9.475  14.524   9.654
  895POPC   PO414460   9.736  14.057   9.333
  895POPC   GL114461   9.518  14.327   9.134
  895POPC   GL214462   9.610  14.673   9.191
  895POPC   C1A14463   9.650  14.384   8.727
  895POPC   D2A14464   9.879  14.493   8.395
  895POPC   C3A14465   9.755  14.241   8.084
  895POPC   C4A14466   9.849  14.371   7.702
  895POPC   C1B14467   9.308  14.724   8.877
  895POPC   C2B14468   9.284  14.620   8.430
  895POPC   C3B14469   9.524  14.710   8.060
  895POPC   C4B14470   9.366  14.588   7.681
  896POPC   NC314471  13.655  38.449   9.618
  896POPC   PO414472  13.952  37.995   9.262
  896POPC   GL114473  13.555  38.171   9.125
  896POPC   GL214474  13.367  38.474   9.201
  896POPC   C1A14475  13.553  38.310   8.725
  896POPC   D2A14476  13.641  38.295   8.299
  896POPC   C3A14477  13.836  38.516   8.036
  896POPC   C4A14478  13.764  38.241   7.677
  896POPC   C1B14479  13.488  38.767   8.901
  896POPC   C2B14480  13.553  38.776   8.482
  896POPC   C3B14481  13.341  38.691   8.107
  896POPC   C4B14482  13.486  38.703   7.700
  897POPC   NC314483  34.241  25.431   9.658
  897POPC   PO414484  34.873  25.405   9.585
  897POPC   GL114485  34.744  25.241   9.194
  897POPC   GL214486  34.413  25.176   9.236
  897POPC   C1A14487  34.613  25.367   8.765
  897POPC   D2A14488  34.837  25.321   8.350
  897POPC   C3A14489  34.575  25.336   7.974
  897POPC   C4A14490  34.489  25.453   7.528
  897POPC   C1B14491  34.320  24.939   8.892
  897POPC   C2B14492  34.467  24.963   8.466
  897POPC   C3B14493  34.301  24.903   8.064
  897POPC   C4B14494  34.450  24.958   7.650
  898POPC   NC314495  22.789  38.833   9.392
  898POPC   PO414496  22.509  38.223   9.508
  898POPC   GL114497  22.807  38.335   9.155
  898POPC   GL214498  23.077  38.590   9.056
  898POPC   C1A14499  22.920  38.198   8.725
  898POPC   D2A14500  22.689  38.187   8.373
  898POPC   C3A14501  22.908  38.298   8.017
  898POPC   C4A14502  22.715  38.151   7.680
  898POPC   C1B14503  22.709  38.668   8.780
  898POPC   C2B14504  22.623  38.703   8.390
  898POPC   C3B14505  22.825  38.820   8.025
  898POPC   C4B14506  23.251  38.683   7.892
  899POPC   NC314507  34.964  36.309   9.420
  899POPC   PO414508  35.520  35.906   9.506
  899POPC   GL114509  35.298  36.029   9.144
  899POPC   GL214510  35.411  36.365   9.194
  899POPC   C1A14511  35.137  36.098   8.727
  899POPC   D2A14512  35.200  36.361   8.350
  899POPC   C3A14513  35.033  36.278   7.959
  899POPC   C4A14514  35.206  35.927   7.804
  899POPC   C1B14515  35.642  36.281   8.842
  899POPC   C2B14516  35.707  36.367   8.426
  899POPC   C3B14517  35.663  36.130   8.076
  899POPC   C4B14518  35.495  36.352   7.777
  900POPC   NC314519   1.451  40.455   9.506
  900POPC   PO414520   0.867  40.801   9.353
  900POPC   GL114521   1.273  40.781   9.121
  900POPC   GL214522   1.253  40.433   8.994
  900POPC   C1A14523   1.393  40.831   8.676
  900POPC   D2A14524   1.212  40.579   8.312
  900POPC   C3A14525   1.316  40.736   7.915
  900POPC   C4A14526   1.024  41.030   7.812
  900POPC   C1B14527   0.912  40.645   8.726
  900POPC   C2B14528   0.605  40.448   8.452
  900POPC   C3B14529   0.740  40.166   8.167
  900POPC   C4B14530   0.937  40.382   7.850
  901POPC   NC314531  14.758   4.246   9.463
  901POPC   PO414532  15.382   4.567   9.574
  901POPC   GL114533  15.240   4.297   9.253
  901POPC   GL214534  15.067   4.579   9.111
  901POPC   C1A14535  15.164   4.181   8.803
  901POPC   D2A14536  15.089   4.041   8.379
  901POPC   C3A14537  15.388   3.982   8.033
  901POPC   C4A14538  15.236   4.120   7.636
  901POPC   C1B14539  15.512   4.549   8.893
  901POPC   C2B14540  15.525   4.379   8.470
  901POPC   C3B14541  15.279   4.470   8.138
  901POPC   C4B14542  15.386   4.616   7.782
  902POPC   NC314543  36.277   5.012   9.900
  902POPC   PO414544  36.960   5.144   9.836
  902POPC   GL114545  36.868   5.046   9.355
  902POPC   GL214546  36.547   4.834   9.297
  902POPC   C1A14547  37.092   5.032   8.944
  902POPC   D2A14548  37.320   5.015   8.522
  902POPC   C3A14549  37.134   5.030   8.097
  902POPC   C4A14550  37.166   5.140   7.639
  902POPC   C1B14551  36.637   4.816   8.838
  902POPC   C2B14552  36.801   5.128   8.517
  902POPC   C3B14553  36.673   5.289   8.131
  902POPC   C4B14554  36.666   5.193   7.716
  903POPC   NC314555  38.993  42.545   9.454
  903POPC   PO414556  38.287  42.437   9.605
  903POPC   GL114557  38.465  42.437   9.189
  903POPC   GL214558  38.797  42.532   8.992
  903POPC   C1A14559  38.341  42.649   8.817
  903POPC   D2A14560  38.618  42.629   8.458
  903POPC   C3A14561  38.353  42.432   8.147
  903POPC   C4A14562  38.426  42.026   7.889
  903POPC   C1B14563  38.856  42.219   8.657
  903POPC   C2B14564  38.823  42.185   8.203
  903POPC   C3B14565  38.736  42.454   7.827
  903POPC   C4B14566  38.777  42.167   7.526
  904POPC   NC314567  18.538  20.643   9.464
  904POPC   PO414568  17.944  20.822   9.551
  904POPC   GL114569  18.226  20.906   9.152
  904POPC   GL214570  18.625  20.844   9.014
  904POPC   C1A14571  18.268  20.995   8.707
  904POPC   D2A14572  18.172  20.633   8.467
  904POPC   C3A14573  18.323  20.643   8.046
  904POPC   C4A14574  18.330  20.855   7.630
  904POPC   C1B14575  18.672  20.575   8.664
  904POPC   C2B14576  18.526  20.264   8.364
  904POPC   C3B14577  18.658  20.159   7.944
  904POPC   C4B14578  18.340  20.308   7.661
  905POPC   NC314579   7.156  41.981   9.488
  905POPC   PO414580   7.521  41.385   9.572
  905POPC   GL114581   7.492  41.631   9.216
  905POPC   GL214582   7.152  41.581   9.192
  905POPC   C1A14583   7.475  41.501   8.796
  905POPC   D2A14584   7.671  41.443   8.417
  905POPC   C3A14585   7.587  41.706   8.084
  905POPC   C4A14586   7.607  41.430   7.762
  905POPC   C1B14587   7.124  41.877   8.843
  905POPC   C2B14588   7.180  41.706   8.426
  905POPC   C3B14589   7.054  41.648   8.015
  905POPC   C4B14590   7.272  41.821   7.680
  906POPC   NC314591  19.968  41.559   9.664
  906POPC   PO414592  20.249  42.148   9.530
  906POPC   GL114593  19.904  41.894   9.268
  906POPC   GL214594  19.979  41.520   9.164
  906POPC   C1A14595  19.735  41.819   8.848
  906POPC   D2A14596  19.912  41.600   8.504
  906POPC   C3A14597  20.099  41.738   8.113
  906POPC   C4A14598  19.825  41.678   7.760
  906POPC   C1B14599  20.270  41.383   8.808
  906POPC   C2B14600  20.282  41.271   8.340
  906POPC   C3B14601  20.083  41.255   7.911
  906POPC   C4B14602  20.076  41.324   7.444
  907POPC   NC314603  44.508  15.729   9.404
  907POPC   PO414604   0.015  15.988   9.822
  907POPC   GL114605  44.845  16.044   9.300
  907POPC   GL214606  44.572  16.227   9.196
  907POPC   C1A14607  44.811  15.862   8.841
  907POPC   D2A14608  44.812  15.956   8.404
  907POPC   C3A14609  44.556  15.726   8.128
  907POPC   C4A14610  44.648  15.791   7.749
  907POPC   C1B14611  44.342  16.197   8.824
  907POPC   C2B14612  44.278  16.027   8.427
  907POPC   C3B14613  44.287  16.168   8.033
  907POPC   C4B14614  44.252  16.076   7.630
  908POPC   NC314615  44.284  28.560   9.397
  908POPC   PO414616  44.792  28.133   9.651
  908POPC   GL114617  44.691  28.269   9.226
  908POPC   GL214618  44.958  28.521   9.209
  908POPC   C1A14619  44.599  28.323   8.770
  908POPC   D2A14620  44.598  28.091   8.367
  908POPC   C3A14621  44.452  28.300   7.987
  908POPC   C4A14622  44.276  28.285   7.564
  908POPC   C1B14623   0.089  28.456   8.778
  908POPC   C2B14624  44.947  28.497   8.325
  908POPC   C3B14625  44.962  28.497   7.862
  908POPC   C4B14626   0.100  28.474   7.381
  909POPC   NC314627  14.166   5.227   9.562
  909POPC   PO414628  14.624   4.722   9.389
  909POPC   GL114629  14.540   5.130   9.184
  909POPC   GL214630  14.221   5.042   9.096
  909POPC   C1A14631  14.420   5.326   8.741
  909POPC   D2A14632  14.666   5.209   8.404
  909POPC   C3A14633  14.566   5.052   8.028
  909POPC   C4A14634  14.571   4.738   7.693
  909POPC   C1B14635  14.069   4.941   8.712
  909POPC   C2B14636  14.129   4.977   8.303
  909POPC   C3B14637  14.108   4.876   7.896
  909POPC   C4B14638  14.300   5.156   7.605
  910POPC   NC314639  23.413  12.971   9.485
  910POPC   PO414640  24.073  12.939   9.395
  910POPC   GL114641  23.859  12.739   9.050
  910POPC   GL214642  23.522  12.796   9.022
  910POPC   C1A14643  23.845  12.946   8.667
  910POPC   D2A14644  23.618  13.001   8.326
  910POPC   C3A14645  23.755  12.834   7.920
  910POPC   C4A14646  23.803  12.797   7.497
  910POPC   C1B14647  23.436  12.538   8.694
  910POPC   C2B14648  23.569  12.504   8.271
  910POPC   C3B14649  23.356  12.420   7.880
  910POPC   C4B14650  23.354  12.559   7.456
  911POPC   NC314651  43.066  39.947   9.580
  911POPC   PO414652  42.698  40.485   9.531
  911POPC   GL114653  43.106  40.331   9.222
  911POPC   GL214654  43.178  39.945   9.106
  911POPC   C1A14655  43.147  40.259   8.731
  911POPC   D2A14656  43.176  39.912   8.414
  911POPC   C3A14657  43.078  40.010   7.994
  911POPC   C4A14658  43.029  40.206   7.617
  911POPC   C1B14659  43.478  39.757   8.855
  911POPC   C2B14660  43.647  39.687   8.454
  911POPC   C3B14661  43.482  39.695   8.037
  911POPC   C4B14662  43.590  39.455   7.655
  912POPC   NC314663  26.464  25.323   9.588
  912POPC   PO414664  26.915  24.907   9.529
  912POPC   GL114665  26.986  25.169   9.177
  912POPC   GL214666  26.703  25.365   9.148
  912POPC   C1A14667  26.944  25.142   8.738
  912POPC   D2A14668  26.754  25.341   8.401
  912POPC   C3A14669  27.031  25.337   8.055
  912POPC   C4A14670  26.841  25.394   7.697
  912POPC   C1B14671  26.669  25.649   8.836
  912POPC   C2B14672  26.392  25.712   8.524
  912POPC   C3B14673  26.385  25.795   8.086
  912POPC   C4B14674  26.457  25.751   7.643
  913POPC   NC314675  35.700  39.872   9.466
  913POPC   PO414676  35.387  40.456   9.719
  913POPC   GL114677  35.298  40.105   9.298
  913POPC   GL214678  35.320  39.724   9.163
  913POPC   C1A14679  35.251  40.148   8.857
  913POPC   D2A14680  35.428  40.131   8.434
  913POPC   C3A14681  35.225  40.220   8.053
  913POPC   C4A14682  35.062  39.869   7.860
  913POPC   C1B14683  35.622  39.778   8.811
  913POPC   C2B14684  35.764  39.732   8.369
  913POPC   C3B14685  35.596  39.867   7.976
  913POPC   C4B14686  35.763  39.860   7.581
  914POPC   NC314687  22.425   9.688   9.356
  914POPC   PO414688  22.974   9.592   9.721
  914POPC   GL114689  23.106   9.742   9.269
  914POPC   GL214690  22.831   9.885   9.148
  914POPC   C1A14691  23.125   9.693   8.781
  914POPC   D2A14692  22.914   9.660   8.351
  914POPC   C3A14693  23.240   9.700   8.007
  914POPC   C4A14694  23.324   9.510   7.598
  914POPC   C1B14695  22.806  10.206   8.810
  914POPC   C2B14696  22.886  10.201   8.388
  914POPC   C3B14697  22.806  10.226   7.971
  914POPC   C4B14698  22.898   9.928   7.703
  915POPC   NC314699   6.661   8.350   9.920
  915POPC   PO414700   6.511   7.839   9.454
  915POPC   GL114701   6.531   8.259   9.352
  915POPC   GL214702   6.876   8.340   9.334
  915POPC   C1A14703   6.471   8.348   8.917
  915POPC   D2A14704   6.330   8.307   8.484
  915POPC   C3A14705   6.464   8.237   8.045
  915POPC   C4A14706   6.252   7.913   7.788
  915POPC   C1B14707   6.972   8.380   8.879
  915POPC   C2B14708   6.871   8.436   8.399
  915POPC   C3B14709   6.987   8.344   7.925
  915POPC   C4B14710   7.038   8.397   7.455
  916POPC   NC314711  27.538  44.406   9.864
  916POPC   PO414712  27.427   0.030   9.597
  916POPC   GL114713  27.502  44.814   9.207
  916POPC   GL214714  27.188  44.822   9.012
  916POPC   C1A14715  27.729  44.709   8.792
  916POPC   D2A14716  27.479  44.723   8.427
  916POPC   C3A14717  27.673  44.768   8.040
  916POPC   C4A14718  27.549  44.646   7.651
  916POPC   C1B14719  27.302  44.416   8.820
  916POPC   C2B14720  27.307  44.168   8.455
  916POPC   C3B14721  27.327  44.381   8.071
  916POPC   C4B14722  27.272  44.223   7.687
  917POPC   NC314723  43.204  12.026  10.005
  917POPC   PO414724  43.323  12.457   9.539
  917POPC   GL114725  43.108  12.137   9.239
  917POPC   GL214726  42.950  11.773   9.252
  917POPC   C1A14727  42.965  12.244   8.837
  917POPC   D2A14728  42.820  12.145   8.428
  917POPC   C3A14729  42.953  12.305   8.038
  917POPC   C4A14730  42.655  12.133   7.744
  917POPC   C1B14731  42.706  11.810   8.862
  917POPC   C2B14732  42.823  11.649   8.447
  917POPC   C3B14733  42.977  11.780   8.042
  917POPC   C4B14734  43.103  11.932   7.624
  918POPC   NC314735  39.392   7.734   9.313
  918POPC   PO414736  39.112   8.320   9.644
  918POPC   GL114737  39.082   8.476   9.222
  918POPC   GL214738  39.291   8.210   9.131
  918POPC   C1A14739  39.191   8.559   8.770
  918POPC   D2A14740  39.170   8.329   8.389
  918POPC   C3A14741  39.377   8.073   8.169
  918POPC   C4A14742  39.333   8.139   7.736
  918POPC   C1B14743  39.077   8.039   8.772
  918POPC   C2B14744  39.038   7.770   8.396
  918POPC   C3B14745  39.080   7.730   7.917
  918POPC   C4B14746  39.022   7.846   7.464
  919POPC   NC314747   6.804   5.323   9.649
  919POPC   PO414748   6.375   4.769   9.558
  919POPC   GL114749   6.477   4.904   9.163
  919POPC   GL214750   6.583   5.251   9.180
  919POPC   C1A14751   6.635   4.949   8.761
  919POPC   D2A14752   6.550   5.196   8.405
  919POPC   C3A14753   6.599   4.947   8.069
  919POPC   C4A14754   6.855   5.002   7.738
  919POPC   C1B14755   6.869   5.410   8.881
  919POPC   C2B14756   7.009   5.417   8.450
  919POPC   C3B14757   7.079   5.365   8.031
  919POPC   C4B14758   6.974   5.532   7.623
  920POPC   NC314759  35.334  34.726   9.613
  920POPC   PO414760  34.890  34.271   9.558
  920POPC   GL114761  35.120  34.479   9.216
  920POPC   GL214762  35.337  34.787   9.117
  920POPC   C1A14763  35.335  34.359   8.837
  920POPC   D2A14764  35.201  34.421   8.441
  920POPC   C3A14765  35.379  34.426   8.075
  920POPC   C4A14766  35.235  34.619   7.689
  920POPC   C1B14767  35.701  34.726   8.860
  920POPC   C2B14768  35.708  34.524   8.483
  920POPC   C3B14769  35.781  34.731   8.108
  920POPC   C4B14770  35.713  34.796   7.676
  921POPC   NC314771  14.439  24.266   9.462
  921POPC   PO414772  14.306  24.891   9.549
  921POPC   GL114773  14.360  24.715   9.182
  921POPC   GL214774  14.705  24.707   9.250
  921POPC   C1A14775  14.172  24.532   8.830
  921POPC   D2A14776  14.137  24.409   8.414
  921POPC   C3A14777  14.309  24.658   8.054
  921POPC   C4A14778  14.170  24.571   7.622
  921POPC   C1B14779  14.715  24.464   8.874
  921POPC   C2B14780  14.837  24.223   8.529
  921POPC   C3B14781  14.560  24.196   8.203
  921POPC   C4B14782  14.591  24.314   7.784
  922POPC   NC314783   9.786  42.835   9.499
  922POPC   PO414784   9.521  42.290   9.788
  922POPC   GL114785   9.743  42.362   9.338
  922POPC   GL214786   9.481  42.550   9.179
  922POPC   C1A14787   9.856  42.363   8.861
  922POPC   D2A14788   9.839  42.110   8.445
  922POPC   C3A14789   9.959  42.324   8.037
  922POPC   C4A14790  10.120  42.660   7.739
  922POPC   C1B14791   9.438  42.752   8.790
  922POPC   C2B14792   9.729  42.762   8.487
  922POPC   C3B14793   9.650  42.764   8.043
  922POPC   C4B14794   9.652  42.640   7.614
  923POPC   NC314795  25.227  34.690   9.520
  923POPC   PO414796  25.687  35.155   9.368
  923POPC   GL114797  25.397  34.944   9.065
  923POPC   GL214798  25.014  34.866   9.082
  923POPC   C1A14799  25.318  34.607   8.759
  923POPC   D2A14800  25.121  34.527   8.375
  923POPC   C3A14801  25.363  34.520   8.005
  923POPC   C4A14802  25.399  34.618   7.561
  923POPC   C1B14803  24.839  34.479   8.855
  923POPC   C2B14804  24.668  34.268   8.484
  923POPC   C3B14805  24.826  34.210   8.087
  923POPC   C4B14806  24.822  34.452   7.715
  924POPC   NC314807  40.946  20.689   9.525
  924POPC   PO414808  41.020  20.043   9.603
  924POPC   GL114809  40.883  20.288   9.201
  924POPC   GL214810  40.591  20.528   9.194
  924POPC   C1A14811  40.953  20.619   8.852
  924POPC   D2A14812  40.786  20.721   8.436
  924POPC   C3A14813  41.053  20.694   8.118
  924POPC   C4A14814  41.159  20.981   7.815
  924POPC   C1B14815  40.428  20.520   8.739
  924POPC   C2B14816  40.407  20.430   8.255
  924POPC   C3B14817  40.532  20.685   7.882
  924POPC   C4B14818  40.442  20.606   7.420
  925POPC   NC314819  32.914  44.926   9.398
  925POPC   PO414820  32.999  44.371   9.742
  925POPC   GL114821  33.135  44.490   9.317
  925POPC   GL214822  32.887  44.606   9.007
  925POPC   C1A14823  33.386  44.640   8.967
  925POPC   D2A14824  33.175  44.728   8.589
  925POPC   C3A14825  33.238  44.653   8.155
  925POPC   C4A14826  33.043  44.556   7.746
  925POPC   C1B14827  32.705  44.912   8.710
  925POPC   C2B14828  32.580  44.960   8.244
  925POPC   C3B14829  32.685  44.969   7.767
  925POPC   C4B14830  32.816   0.016   7.316
  926POPC   NC314831  31.115  35.968   9.395
  926POPC   PO414832  30.626  36.205   9.792
  926POPC   GL114833  30.725  36.281   9.287
  926POPC   GL214834  30.641  35.986   9.179
  926POPC   C1A14835  30.587  36.445   8.838
  926POPC   D2A14836  30.370  36.579   8.405
  926POPC   C3A14837  30.364  36.234   8.116
  926POPC   C4A14838  30.568  36.155   7.721
  926POPC   C1B14839  30.839  36.000   8.766
  926POPC   C2B14840  30.647  35.915   8.382
  926POPC   C3B14841  30.570  35.705   8.011
  926POPC   C4B14842  30.768  35.681   7.627
  927POPC   NC314843  40.452  37.852   9.625
  927POPC   PO414844  39.924  37.422   9.657
  927POPC   GL114845  39.982  37.548   9.255
  927POPC   GL214846  40.149  37.859   9.233
  927POPC   C1A14847  39.770  37.749   8.898
  927POPC   D2A14848  39.907  37.655   8.473
  927POPC   C3A14849  39.770  37.843   8.083
  927POPC   C4A14850  39.993  37.707   7.731
  927POPC   C1B14851  40.290  37.701   8.871
  927POPC   C2B14852  40.426  37.830   8.498
  927POPC   C3B14853  40.331  37.752   8.110
  927POPC   C4B14854  40.498  37.801   7.700
  928POPC   NC314855  34.618  19.183   9.579
  928POPC   PO414856  34.423  18.682   9.117
  928POPC   GL114857  34.466  19.150   9.072
  928POPC   GL214858  34.797  19.397   9.166
  928POPC   C1A14859  34.361  19.181   8.619
  928POPC   D2A14860  34.334  18.771   8.387
  928POPC   C3A14861  34.544  18.799   7.992
  928POPC   C4A14862  34.442  19.060   7.650
  928POPC   C1B14863  34.846  19.300   8.765
  928POPC   C2B14864  34.837  19.062   8.420
  928POPC   C3B14865  34.700  19.279   8.089
  928POPC   C4B14866  34.900  19.229   7.717
  929POPC   NC314867  35.596  41.724   9.373
  929POPC   PO414868  35.065  41.296   9.444
  929POPC   GL114869  35.232  41.223   9.064
  929POPC   GL214870  35.493  41.446   8.981
  929POPC   C1A14871  35.123  41.412   8.670
  929POPC   D2A14872  35.246  41.317   8.273
  929POPC   C3A14873  35.140  41.542   7.914
  929POPC   C4A14874  35.416  41.508   7.595
  929POPC   C1B14875  35.647  41.236   8.660
  929POPC   C2B14876  35.732  41.480   8.313
  929POPC   C3B14877  35.622  41.771   7.989
  929POPC   C4B14878  35.698  42.048   7.620
  930POPC   NC314879   0.533  17.414   9.663
  930POPC   PO414880  44.920  17.524   9.803
  930POPC   GL114881   0.208  17.363   9.298
  930POPC   GL214882   0.629  17.314   9.194
  930POPC   C1A14883   0.367  17.558   8.842
  930POPC   D2A14884   0.624  17.703   8.482
  930POPC   C3A14885   0.540  17.565   8.082
  930POPC   C4A14886   0.329  17.750   7.757
  930POPC   C1B14887   0.859  17.388   8.808
  930POPC   C2B14888   0.807  17.212   8.409
  930POPC   C3B14889   0.779  17.107   7.979
  930POPC   C4B14890   0.671  17.354   7.624
  931POPC   NC314891  18.375  18.813   9.606
  931POPC   PO414892  18.719  19.384   9.536
  931POPC   GL114893  18.470  19.354   9.157
  931POPC   GL214894  18.337  19.009   9.155
  931POPC   C1A14895  18.368  19.239   8.721
  931POPC   D2A14896  18.094  19.200   8.421
  931POPC   C3A14897  18.254  19.403   8.085
  931POPC   C4A14898  18.472  19.297   7.726
  931POPC   C1B14899  18.469  18.744   8.799
  931POPC   C2B14900  18.576  18.861   8.423
  931POPC   C3B14901  18.365  18.905   8.075
  931POPC   C4B14902  18.417  18.794   7.687
  932POPC   NC314903  15.576  14.189   9.688
  932POPC   PO414904  16.108  14.463   9.383
  932POPC   GL114905  15.973  14.314   9.010
  932POPC   GL214906  15.651  14.152   9.136
  932POPC   C1A14907  16.001  14.585   8.653
  932POPC   D2A14908  16.317  14.569   8.364
  932POPC   C3A14909  16.083  14.438   7.999
  932POPC   C4A14910  15.985  14.263   7.570
  932POPC   C1B14911  15.717  14.020   8.708
  932POPC   C2B14912  15.973  14.115   8.378
  932POPC   C3B14913  15.969  13.946   7.989
  932POPC   C4B14914  15.691  13.868   7.684
  933POPC   NC314915  38.387  14.046   9.521
  933POPC   PO414916  38.619  14.647   9.677
  933POPC   GL114917  38.706  14.471   9.293
  933POPC   GL214918  38.386  14.442   9.166
  933POPC   C1A14919  38.761  14.471   8.847
  933POPC   D2A14920  38.536  14.436   8.444
  933POPC   C3A14921  38.689  14.644   8.081
  933POPC   C4A14922  38.580  14.326   7.760
  933POPC   C1B14923  38.228  14.627   8.800
  933POPC   C2B14924  38.054  14.647   8.399
  933POPC   C3B14925  38.179  14.604   7.965
  933POPC   C4B14926  37.864  14.513   7.688
  934POPC   NC314927   5.408  17.394   9.823
  934POPC   PO414928   5.839  17.777   9.399
  934POPC   GL114929   5.916  17.552   9.018
  934POPC   GL214930   5.685  17.271   8.887
  934POPC   C1A14931   6.093  17.466   8.643
  934POPC   D2A14932   5.916  17.264   8.341
  934POPC   C3A14933   5.814  17.643   8.186
  934POPC   C4A14934   5.943  17.713   7.815
  934POPC   C1B14935   5.480  17.506   8.582
  934POPC   C2B14936   5.411  17.253   8.217
  934POPC   C3B14937   5.602  17.316   7.854
  934POPC   C4B14938   5.533  17.657   7.563
  935POPC   NC314939  20.282  19.891   9.664
  935POPC   PO414940  19.599  19.860   9.563
  935POPC   GL114941  19.617  19.622   9.161
  935POPC   GL214942  19.987  19.587   9.065
  935POPC   C1A14943  19.643  19.645   8.694
  935POPC   D2A14944  19.783  19.457   8.338
  935POPC   C3A14945  19.731  19.693   8.013
  935POPC   C4A14946  19.427  19.678   7.703
  935POPC   C1B14947  19.867  20.017   8.925
  935POPC   C2B14948  19.682  20.244   8.573
  935POPC   C3B14949  19.690  20.237   8.098
  935POPC   C4B14950  19.850  20.064   7.701
  936POPC   NC314951   6.802   4.614   9.686
  936POPC   PO414952   6.270   4.094   9.807
  936POPC   GL114953   6.490   4.214   9.365
  936POPC   GL214954   6.759   4.480   9.202
  936POPC   C1A14955   6.476   4.239   8.875
  936POPC   D2A14956   6.756   4.388   8.514
  936POPC   C3A14957   6.578   4.271   8.128
  936POPC   C4A14958   6.353   4.122   7.805
  936POPC   C1B14959   7.040   4.675   8.832
  936POPC   C2B14960   6.995   4.854   8.395
  936POPC   C3B14961   6.947   4.578   8.008
  936POPC   C4B14962   6.909   4.335   7.621
  937POPC   NC314963  27.864  23.975   9.455
  937POPC   PO414964  27.292  24.336   9.442
  937POPC   GL114965  27.482  24.119   9.121
  937POPC   GL214966  27.139  24.037   9.062
  937POPC   C1A14967  27.766  24.284   8.771
  937POPC   D2A14968  27.811  24.692   8.529
  937POPC   C3A14969  27.793  24.730   8.066
  937POPC   C4A14970  27.739  24.889   7.629
  937POPC   C1B14971  27.240  24.374   8.739
  937POPC   C2B14972  27.452  24.355   8.310
  937POPC   C3B14973  27.434  24.440   7.830
  937POPC   C4B14974  27.306  24.664   7.412
  938POPC   NC314975  31.303  24.227   9.398
  938POPC   PO414976  31.782  24.633   9.315
  938POPC   GL114977  31.649  24.375   9.040
  938POPC   GL214978  31.936  24.190   9.085
  938POPC   C1A14979  31.542  24.437   8.618
  938POPC   D2A14980  31.711  24.589   8.224
  938POPC   C3A14981  31.377  24.470   7.967
  938POPC   C4A14982  31.037  24.706   7.799
  938POPC   C1B14983  32.062  24.383   8.690
  938POPC   C2B14984  32.072  24.241   8.259
  938POPC   C3B14985  31.790  24.167   7.936
  938POPC   C4B14986  31.665  24.323   7.513
  939POPC   NC314987  22.641   0.038   9.578
  939POPC   PO414988  23.120   0.584   9.495
  939POPC   GL114989  22.823   0.393   9.253
  939POPC   GL214990  23.002   0.113   9.186
  939POPC   C1A14991  22.735   0.433   8.834
  939POPC   D2A14992  22.843   0.648   8.462
  939POPC   C3A14993  22.793   0.353   8.156
  939POPC   C4A14994  22.866   0.345   7.747
  939POPC   C1B14995  22.919  44.963   8.788
  939POPC   C2B14996  23.060  44.951   8.388
  939POPC   C3B14997  23.243   0.066   8.033
  939POPC   C4B14998  23.032  44.872   7.727
  940POPC   NC314999  16.160  35.508   9.529
  940POPC   PO415000  15.944  34.869   9.762
  940POPC   GL115001  15.985  35.120   9.243
  940POPC   GL215002  15.699  35.314   9.070
  940POPC   C1A15003  15.923  34.982   8.781
  940POPC   D2A15004  15.915  35.275   8.422
  940POPC   C3A15005  15.815  35.101   8.033
  940POPC   C4A15006  15.493  35.126   7.762
  940POPC   C1B15007  16.109  35.472   8.880
  940POPC   C2B15008  16.282  35.739   8.576
  940POPC   C3B15009  16.276  35.652   8.149
  940POPC   C4B15010  15.988  35.573   7.835
  941POPC   NC315011  31.796  41.682   9.353
  941POPC   PO415012  31.483  41.240   9.625
  941POPC   GL115013  31.352  41.483   9.218
  941POPC   GL215014  31.056  41.337   9.146
  941POPC   C1A15015  31.519  41.685   8.782
  941POPC   D2A15016  31.594  41.445   8.380
  941POPC   C3A15017  31.538  41.674   7.982
  941POPC   C4A15018  31.597  41.803   7.559
  941POPC   C1B15019  31.239  41.282   8.750
  941POPC   C2B15020  31.110  41.207   8.362
  941POPC   C3B15021  31.300  41.190   7.992
  941POPC   C4B15022  31.213  41.413   7.648
  942POPC   NC315023  38.575  44.334   9.535
  942POPC   PO415024  38.224  44.935   9.388
  942POPC   GL115025  38.336  44.651   9.080
  942POPC   GL215026  38.663  44.571   9.093
  942POPC   C1A15027  38.410  44.526   8.648
  942POPC   D2A15028  38.123  44.433   8.324
  942POPC   C3A15029  38.150  44.746   8.037
  942POPC   C4A15030  38.248  44.803   7.673
  942POPC   C1B15031  38.825  44.826   8.739
  942POPC   C2B15032  38.770  44.685   8.305
  942POPC   C3B15033  38.616  44.521   7.889
  942POPC   C4B15034  38.660  44.638   7.429
  943POPC   NC315035  40.071   9.123   9.608
  943POPC   PO415036  39.796   8.462   9.578
  943POPC   GL115037  40.076   8.647   9.248
  943POPC   GL215038  40.006   8.972   9.125
  943POPC   C1A15039  40.168   8.636   8.779
  943POPC   D2A15040  40.099   8.939   8.414
  943POPC   C3A15041  39.910   8.755   8.064
  943POPC   C4A15042  39.915   8.830   7.635
  943POPC   C1B15043  40.075   9.285   8.815
  943POPC   C2B15044  39.863   9.429   8.422
  943POPC   C3B15045  39.921   9.269   7.984
  943POPC   C4B15046  39.988   9.309   7.495
  944POPC   NC315047   1.470   6.325   9.554
  944POPC   PO415048   0.897   6.691   9.486
  944POPC   GL115049   1.090   6.649   9.133
  944POPC   GL215050   1.397   6.770   9.207
  944POPC   C1A15051   0.978   6.679   8.714
  944POPC   D2A15052   1.266   6.734   8.364
  944POPC   C3A15053   1.238   6.410   8.044
  944POPC   C4A15054   0.892   6.501   7.750
  944POPC   C1B15055   1.484   6.562   8.811
  944POPC   C2B15056   1.671   6.405   8.441
  944POPC   C3B15057   1.755   6.402   8.023
  944POPC   C4B15058   1.549   6.364   7.605
  945POPC   NC315059  43.525  20.995   9.811
  945POPC   PO415060  42.988  21.457   9.703
  945POPC   GL115061  43.126  21.441   9.278
  945POPC   GL215062  42.918  21.144   9.280
  945POPC   C1A15063  43.103  21.330   8.819
  945POPC   D2A15064  43.221  21.126   8.428
  945POPC   C3A15065  43.210  21.437   8.121
  945POPC   C4A15066  43.332  21.449   7.706
  945POPC   C1B15067  42.623  21.186   8.913
  945POPC   C2B15068  42.689  21.227   8.447
  945POPC   C3B15069  42.767  21.141   7.980
  945POPC   C4B15070  42.851  21.386   7.585
  946POPC   NC315071  44.645   7.929   9.469
  946POPC   PO415072  44.384   8.474   9.749
  946POPC   GL115073  44.394   8.338   9.230
  946POPC   GL215074  44.445   8.036   9.029
  946POPC   C1A15075  44.453   8.389   8.705
  946POPC   D2A15076  44.520   8.044   8.349
  946POPC   C3A15077  44.595   8.163   7.933
  946POPC   C4A15078  44.346   8.524   7.859
  946POPC   C1B15079  44.817   7.964   8.738
  946POPC   C2B15080   0.060   7.904   8.328
  946POPC   C3B15081   0.132   8.035   7.891
  946POPC   C4B15082  44.927   8.102   7.498
  947POPC   NC315083  40.215   8.151   9.423
  947POPC   PO415084  40.841   7.963   9.499
  947POPC   GL115085  40.634   8.063   9.128
  947POPC   GL215086  40.510   8.408   9.093
  947POPC   C1A15087  40.772   7.953   8.735
  947POPC   D2A15088  41.051   7.914   8.398
  947POPC   C3A15089  40.837   7.945   8.040
  947POPC   C4A15090  40.659   8.225   7.756
  947POPC   C1B15091  40.879   8.475   8.859
  947POPC   C2B15092  40.993   8.428   8.432
  947POPC   C3B15093  41.098   8.377   8.004
  947POPC   C4B15094  41.041   8.515   7.580
  948POPC   NC315095  42.885  35.643   9.531
  948POPC   PO415096  43.297  35.131   9.749
  948POPC   GL115097  43.250  35.118   9.293
  948POPC   GL215098  43.072  35.403   9.156
  948POPC   C1A15099  43.203  35.071   8.816
  948POPC   D2A15100  43.200  35.292   8.434
  948POPC   C3A15101  43.084  35.177   8.046
  948POPC   C4A15102  42.909  35.122   7.667
  948POPC   C1B15103  42.859  35.458   8.777
  948POPC   C2B15104  42.721  35.465   8.363
  948POPC   C3B15105  42.834  35.615   7.941
  948POPC   C4B15106  42.868  35.629   7.492
  949POPC   NC315107  11.385  25.522   9.755
  949POPC   PO415108  11.393  24.932   9.405
  949POPC   GL115109  11.288  25.205   9.120
  949POPC   GL215110  11.583  25.241   8.980
  949POPC   C1A15111  11.068  25.214   8.733
  949POPC   D2A15112  10.925  25.037   8.355
  949POPC   C3A15113  11.076  25.018   7.897
  949POPC   C4A15114  11.056  25.391   7.644
  949POPC   C1B15115  11.511  25.047   8.610
  949POPC   C2B15116  11.402  25.186   8.251
  949POPC   C3B15117  11.504  25.328   7.875
  949POPC   C4B15118  11.550  25.378   7.455
  950POPC   NC315119  36.186  19.574   9.344
  950POPC   PO415120  36.353  20.171   9.560
  950POPC   GL115121  36.182  20.052   9.152
  950POPC   GL215122  35.898  20.160   8.988
  950POPC   C1A15123  36.289  19.866   8.755
  950POPC   D2A15124  36.030  19.914   8.410
  950POPC   C3A15125  36.202  19.880   8.019
  950POPC   C4A15126  35.943  19.787   7.677
  950POPC   C1B15127  35.816  19.690   8.826
  950POPC   C2B15128  35.881  19.413   8.466
  950POPC   C3B15129  35.661  19.457   8.083
  950POPC   C4B15130  35.564  19.456   7.690
  951POPC   NC315131  44.828  21.995   9.545
  951POPC   PO415132  44.389  22.428   9.608
  951POPC   GL115133  44.610  22.308   9.203
  951POPC   GL215134  44.815  22.469   9.154
  951POPC   C1A15135  44.799  22.095   8.810
  951POPC   D2A15136  44.595  21.881   8.455
  951POPC   C3A15137  44.734  21.982   8.065
  951POPC   C4A15138  44.738  22.324   7.781
  951POPC   C1B15139  44.973  22.586   8.770
  951POPC   C2B15140  44.942  22.444   8.351
  951POPC   C3B15141   0.094  22.637   7.995
  951POPC   C4B15142   0.192  22.519   7.592
  952POPC   NC315143   6.689  41.113   9.540
  952POPC   PO415144   6.630  41.815   9.501
  952POPC   GL115145   6.658  41.714   9.102
  952POPC   GL215146   6.684  41.389   9.125
  952POPC   C1A15147   6.621  41.858   8.712
  952POPC   D2A15148   6.775  42.005   8.329
  952POPC   C3A15149   6.542  41.784   8.053
  952POPC   C4A15150   6.534  41.624   7.638
  952POPC   C1B15151   6.930  41.398   8.766
  952POPC   C2B15152   6.719  41.439   8.400
  952POPC   C3B15153   6.670  41.288   8.007
  952POPC   C4B15154   6.931  41.292   7.635
  953POPC   NC315155  15.713  34.436   9.702
  953POPC   PO415156  16.175  34.689   9.341
  953POPC   GL115157  16.005  34.498   9.072
  953POPC   GL215158  15.667  34.654   9.197
  953POPC   C1A15159  16.176  34.521   8.658
  953POPC   D2A15160  16.140  34.808   8.339
  953POPC   C3A15161  16.138  34.693   7.897
  953POPC   C4A15162  15.996  34.357   7.646
  953POPC   C1B15163  15.619  34.555   8.746
  953POPC   C2B15164  15.579  34.749   8.340
  953POPC   C3B15165  15.636  34.626   7.893
  953POPC   C4B15166  15.726  34.765   7.461
  954POPC   NC315167  28.462  16.255   9.546
  954POPC   PO415168  28.185  15.600   9.485
  954POPC   GL115169  28.308  15.909   9.192
  954POPC   GL215170  28.140  16.245   9.141
  954POPC   C1A15171  28.390  15.972   8.764
  954POPC   D2A15172  28.461  16.152   8.358
  954POPC   C3A15173  28.504  15.840   8.015
  954POPC   C4A15174  28.453  15.540   7.664
  954POPC   C1B15175  27.986  16.293   8.706
  954POPC   C2B15176  27.964  16.236   8.237
  954POPC   C3B15177  28.259  16.264   7.874
  954POPC   C4B15178  28.217  16.244   7.443
  955POPC   NC315179  36.559  26.234   9.645
  955POPC   PO415180  35.943  25.909   9.697
  955POPC   GL115181  35.861  25.993   9.272
  955POPC   GL215182  36.174  26.166   9.243
  955POPC   C1A15183  35.886  26.100   8.845
  955POPC   D2A15184  36.067  25.903   8.511
  955POPC   C3A15185  35.943  25.979   8.097
  955POPC   C4A15186  35.963  25.680   7.776
  955POPC   C1B15187  36.342  26.336   8.802
  955POPC   C2B15188  36.526  26.312   8.423
  955POPC   C3B15189  36.483  26.538   8.078
  955POPC   C4B15190  36.249  26.497   7.740
  956POPC   NC315191  40.592  15.701   9.439
  956POPC   PO415192  40.990  16.299   9.574
  956POPC   GL115193  40.879  16.053   9.207
  956POPC   GL215194  40.511  16.112   9.132
  956POPC   C1A15195  40.999  15.815   8.807
  956POPC   D2A15196  41.088  16.023   8.425
  956POPC   C3A15197  41.091  15.823   8.030
  956POPC   C4A15198  40.973  15.897   7.628
  956POPC   C1B15199  40.508  15.885   8.750
  956POPC   C2B15200  40.672  15.745   8.345
  956POPC   C3B15201  40.539  15.810   7.924
  956POPC   C4B15202  40.501  15.827   7.479
  957POPC   NC315203  20.204   6.986   9.595
  957POPC   PO415204  20.928   6.912   9.572
  957POPC   GL115205  20.780   6.834   9.185
  957POPC   GL215206  20.418   6.736   9.186
  957POPC   C1A15207  20.802   6.763   8.766
  957POPC   D2A15208  20.700   6.480   8.459
  957POPC   C3A15209  20.729   6.717   8.110
  957POPC   C4A15210  20.665   6.700   7.708
  957POPC   C1B15211  20.288   6.587   8.789
  957POPC   C2B15212  20.273   6.799   8.373
  957POPC   C3B15213  20.232   6.862   7.917
  957POPC   C4B15214  20.167   6.563   7.571
  958POPC   NC315215  39.454  39.663   9.371
  958POPC   PO415216  39.297  39.123   9.742
  958POPC   GL115217  39.245  39.185   9.245
  958POPC   GL215218  38.905  39.160   9.134
  958POPC   C1A15219  39.345  39.312   8.811
  958POPC   D2A15220  39.353  39.135   8.390
  958POPC   C3A15221  39.414  39.361   8.044
  958POPC   C4A15222  39.382  39.609   7.638
  958POPC   C1B15223  38.955  38.982   8.729
  958POPC   C2B15224  39.105  38.698   8.428
  958POPC   C3B15225  38.990  38.769   8.037
  958POPC   C4B15226  39.150  39.045   7.765
  959POPC   NC315227  35.730  42.534   9.411
  959POPC   PO415228  35.083  42.628   9.583
  959POPC   GL115229  35.259  42.516   9.142
  959POPC   GL215230  35.386  42.160   9.159
  959POPC   C1A15231  35.523  42.407   8.740
  959POPC   D2A15232  35.601  42.575   8.325
  959POPC   C3A15233  35.520  42.472   7.870
  959POPC   C4A15234  35.397  42.765   7.524
  959POPC   C1B15235  35.406  41.914   8.738
  959POPC   C2B15236  35.352  42.093   8.302
  959POPC   C3B15237  35.220  42.059   7.854
  959POPC   C4B15238  35.255  41.929   7.377
  960POPC   NC315239  35.314  25.436   9.696
  960POPC   PO415240  35.801  24.974   9.543
  960POPC   GL115241  35.536  25.099   9.241
  960POPC   GL215242  35.541  25.426   9.094
  960POPC   C1A15243  35.474  24.969   8.820
  960POPC   D2A15244  35.336  25.251   8.532
  960POPC   C3A15245  35.406  25.115   8.135
  960POPC   C4A15246  35.061  25.248   7.869
  960POPC   C1B15247  35.574  25.692   8.718
  960POPC   C2B15248  35.597  25.625   8.255
  960POPC   C3B15249  35.495  25.508   7.825
  960POPC   C4B15250  35.597  25.613   7.377
  961POPC   NC315251  33.096   7.734   9.564
  961POPC   PO415252  32.838   7.120   9.562
  961POPC   GL115253  33.007   7.343   9.236
  961POPC   GL215254  32.747   7.632   9.218
  961POPC   C1A15255  33.194   7.234   8.849
  961POPC   D2A15256  33.049   7.386   8.465
  961POPC   C3A15257  33.296   7.696   8.263
  961POPC   C4A15258  33.396   7.572   7.873
  961POPC   C1B15259  33.009   7.729   8.876
  961POPC   C2B15260  32.849   7.851   8.482
  961POPC   C3B15261  32.778   7.668   8.093
  961POPC   C4B15262  32.923   7.723   7.692
  962POPC   NC315263  22.574  31.827   9.606
  962POPC   PO415264  23.258  31.825   9.445
  962POPC   GL115265  23.106  32.225   9.289
  962POPC   GL215266  22.773  32.247   9.220
  962POPC   C1A15267  23.154  32.347   8.859
  962POPC   D2A15268  23.208  32.553   8.476
  962POPC   C3A15269  23.194  32.353   8.086
  962POPC   C4A15270  23.060  32.094   7.764
  962POPC   C1B15271  22.622  32.376   8.828
  962POPC   C2B15272  22.770  32.301   8.416
  962POPC   C3B15273  22.667  32.413   8.012
  962POPC   C4B15274  22.569  32.205   7.621
  963POPC   NC315275  25.323  14.641   9.485
  963POPC   PO415276  25.011  14.068   9.427
  963POPC   GL115277  25.274  14.254   9.090
  963POPC   GL215278  25.121  14.565   9.023
  963POPC   C1A15279  25.296  14.312   8.616
  963POPC   D2A15280  25.508  14.435   8.236
  963POPC   C3A15281  25.304  14.161   7.932
  963POPC   C4A15282  24.858  14.066   7.848
  963POPC   C1B15283  24.834  14.238   8.808
  963POPC   C2B15284  24.751  14.391   8.406
  963POPC   C3B15285  24.881  14.548   8.031
  963POPC   C4B15286  25.214  14.651   7.776
  964POPC   NC315287  38.144   0.882   9.836
  964POPC   PO415288  37.550   1.118   9.559
  964POPC   GL115289  37.846   1.126   9.181
  964POPC   GL215290  37.732   0.790   9.188
  964POPC   C1A15291  37.915   1.015   8.709
  964POPC   D2A15292  37.736   1.003   8.265
  964POPC   C3A15293  37.944   1.199   7.884
  964POPC   C4A15294  38.031   1.411   7.475
  964POPC   C1B15295  37.427   0.911   8.861
  964POPC   C2B15296  37.323   0.724   8.474
  964POPC   C3B15297  37.235   0.846   8.070
  964POPC   C4B15298  37.514   0.980   7.767
  965POPC   NC315299  16.905  11.124   9.614
  965POPC   PO415300  16.317  11.359   9.547
  965POPC   GL115301  16.604  11.471   9.173
  965POPC   GL215302  16.880  11.219   9.097
  965POPC   C1A15303  16.797  11.608   8.757
  965POPC   D2A15304  16.988  11.351   8.430
  965POPC   C3A15305  16.865  11.360   7.995
  965POPC   C4A15306  16.949  11.639   7.619
  965POPC   C1B15307  16.646  11.118   8.739
  965POPC   C2B15308  16.682  10.947   8.301
  965POPC   C3B15309  16.437  11.034   7.917
  965POPC   C4B15310  16.417  10.999   7.456
  966POPC   NC315311  30.336   5.415   9.467
  966POPC   PO415312  29.878   4.941   9.571
  966POPC   GL115313  29.779   4.651   9.223
  966POPC   GL215314  30.035   4.866   9.062
  966POPC   C1A15315  29.644   4.713   8.799
  966POPC   D2A15316  29.974   4.924   8.553
  966POPC   C3A15317  30.029   4.896   8.145
  966POPC   C4A15318  30.158   4.868   7.731
  966POPC   C1B15319  30.327   5.138   8.857
  966POPC   C2B15320  30.229   5.401   8.528
  966POPC   C3B15321  30.185   5.397   8.067
  966POPC   C4B15322  30.190   5.484   7.629
  967POPC   NC315323  37.021  35.106   9.488
  967POPC   PO415324  37.223  34.427   9.500
  967POPC   GL115325  36.969  34.350   9.139
  967POPC   GL215326  36.589  34.368   9.179
  967POPC   C1A15327  37.037  34.577   8.758
  967POPC   D2A15328  37.207  34.652   8.368
  967POPC   C3A15329  37.114  34.412   7.994
  967POPC   C4A15330  36.970  34.438   7.511
  967POPC   C1B15331  36.640  34.280   8.730
  967POPC   C2B15332  36.730  34.424   8.340
  967POPC   C3B15333  36.632  34.522   7.915
  967POPC   C4B15334  36.402  34.141   7.821
  968POPC   NC315335  27.085  11.989   9.608
  968POPC   PO415336  27.728  11.814   9.509
  968POPC   GL115337  27.578  12.047   9.162
  968POPC   GL215338  27.247  12.080   9.154
  968POPC   C1A15339  27.554  12.108   8.724
  968POPC   D2A15340  27.671  12.009   8.312
  968POPC   C3A15341  27.728  12.366   8.027
  968POPC   C4A15342  27.912  12.337   7.599
  968POPC   C1B15343  27.173  11.798   8.839
  968POPC   C2B15344  27.109  11.863   8.405
  968POPC   C3B15345  27.269  11.948   7.997
  968POPC   C4B15346  27.432  12.188   7.661
  969POPC   NC315347  43.208  43.868   9.512
  969POPC   PO415348  42.645  44.156   9.466
  969POPC   GL115349  42.858  43.923   9.130
  969POPC   GL215350  43.201  43.965   8.994
  969POPC   C1A15351  42.753  44.069   8.738
  969POPC   D2A15352  42.797  43.974   8.319
  969POPC   C3A15353  43.176  43.835   8.159
  969POPC   C4A15354  43.194  43.892   7.714
  969POPC   C1B15355  43.043  43.658   8.678
  969POPC   C2B15356  42.809  43.456   8.336
  969POPC   C3B15357  42.850  43.538   7.889
  969POPC   C4B15358  43.074  43.375   7.549
  970POPC   NC315359  36.875   9.310   9.507
  970POPC   PO415360  36.531   8.726   9.508
  970POPC   GL115361  36.762   8.931   9.152
  970POPC   GL215362  36.642   9.257   9.066
  970POPC   C1A15363  37.081   9.089   8.815
  970POPC   D2A15364  37.217   9.028   8.360
  970POPC   C3A15365  37.019   8.988   7.936
  970POPC   C4A15366  37.097   9.084   7.500
  970POPC   C1B15367  36.592   9.011   8.691
  970POPC   C2B15368  36.644   9.120   8.266
  970POPC   C3B15369  36.493   8.893   7.917
  970POPC   C4B15370  36.644   8.840   7.524
  971POPC   NC315371  32.389  11.682   9.461
  971POPC   PO415372  32.019  12.256   9.471
  971POPC   GL115373  32.296  12.251   9.116
  971POPC   GL215374  32.265  11.903   9.009
  971POPC   C1A15375  32.376  12.313   8.680
  971POPC   D2A15376  32.172  11.966   8.473
  971POPC   C3A15377  32.178  11.800   8.061
  971POPC   C4A15378  32.068  12.013   7.705
  971POPC   C1B15379  32.624  11.868   8.734
  971POPC   C2B15380  32.693  12.065   8.355
  971POPC   C3B15381  32.474  12.233   8.048
  971POPC   C4B15382  32.561  11.957   7.753
  972POPC   NC315383  42.813  18.551   9.532
  972POPC   PO415384  43.218  17.996   9.503
  972POPC   GL115385  43.059  18.253   9.183
  972POPC   GL215386  43.260  18.549   9.267
  972POPC   C1A15387  42.960  18.134   8.752
  972POPC   D2A15388  43.182  17.908   8.434
  972POPC   C3A15389  43.060  18.055   8.026
  972POPC   C4A15390  43.353  18.083   7.692
  972POPC   C1B15391  43.112  18.634   8.847
  972POPC   C2B15392  43.089  18.454   8.390
  972POPC   C3B15393  43.123  18.615   7.980
  972POPC   C4B15394  43.509  18.637   7.779
  973POPC   NC315395  28.684  44.037   9.432
  973POPC   PO415396  29.348  43.922   9.515
  973POPC   GL115397  29.103  43.921   9.159
  973POPC   GL215398  28.908  43.647   9.019
  973POPC   C1A15399  29.215  44.092   8.785
  973POPC   D2A15400  29.063  44.072   8.386
  973POPC   C3A15401  29.314  44.067   8.056
  973POPC   C4A15402  29.008  43.992   7.755
  973POPC   C1B15403  29.284  43.577   8.799
  973POPC   C2B15404  29.372  43.653   8.383
  973POPC   C3B15405  29.140  43.552   8.020
  973POPC   C4B15406  29.258  43.563   7.597
  974POPC   NC315407  18.389  44.980   9.472
  974POPC   PO415408  17.962  44.459   9.565
  974POPC   GL115409  18.085  44.628   9.216
  974POPC   GL215410  18.419  44.550   9.226
  974POPC   C1A15411  18.039  44.633   8.793
  974POPC   D2A15412  18.284  44.566   8.431
  974POPC   C3A15413  18.056  44.647   8.068
  974POPC   C4A15414  18.115  44.862   7.718
  974POPC   C1B15415  18.568  44.731   8.851
  974POPC   C2B15416  18.537   0.014   8.503
  974POPC   C3B15417  18.515  44.926   8.066
  974POPC   C4B15418  18.624  44.570   7.831
  975POPC   NC315419  40.048  43.756   9.576
  975POPC   PO415420  39.790  44.343   9.400
  975POPC   GL115421  39.931  43.991   9.132
  975POPC   GL215422  39.805  43.620   9.156
  975POPC   C1A15423  39.971  44.104   8.726
  975POPC   D2A15424  40.233  44.286   8.447
  975POPC   C3A15425  40.041  44.160   8.067
  975POPC   C4A15426  40.061  44.022   7.648
  975POPC   C1B15427  40.061  43.595   8.812
  975POPC   C2B15428  40.141  43.732   8.395
  975POPC   C3B15429  39.955  43.639   7.989
  975POPC   C4B15430  40.084  43.352   7.658
  976POPC   NC315431   7.847  43.044   9.440
  976POPC   PO415432   8.487  42.737   9.439
  976POPC   GL115433   8.256  42.940   9.139
  976POPC   GL215434   8.213  43.303   9.155
  976POPC   C1A15435   8.266  42.937   8.714
  976POPC   D2A15436   8.379  43.094   8.319
  976POPC   C3A15437   8.283  42.880   7.973
  976POPC   C4A15438   8.304  43.103   7.610
  976POPC   C1B15439   7.954  43.339   8.778
  976POPC   C2B15440   7.874  43.579   8.423
  976POPC   C3B15441   7.983  43.380   8.049
  976POPC   C4B15442   7.864  43.390   7.650
  977POPC   NC315443  29.318  10.836   9.797
  977POPC   PO415444  29.141  11.371   9.477
  977POPC   GL115445  29.074  11.501   9.112
  977POPC   GL215446  29.361  11.699   9.113
  977POPC   C1A15447  28.931  11.284   8.742
  977POPC   D2A15448  29.088  11.254   8.313
  977POPC   C3A15449  28.842  11.154   7.930
  977POPC   C4A15450  29.026  11.080   7.508
  977POPC   C1B15451  29.405  11.508   8.708
  977POPC   C2B15452  29.327  11.708   8.330
  977POPC   C3B15453  28.967  11.681   8.039
  977POPC   C4B15454  29.087  11.600   7.663
  978POPC   NC315455  18.910  34.984   9.590
  978POPC   PO415456  19.190  34.362   9.709
  978POPC   GL115457  19.125  34.440   9.255
  978POPC   GL215458  18.828  34.257   9.236
  978POPC   C1A15459  19.224  34.616   8.806
  978POPC   D2A15460  19.180  34.935   8.437
  978POPC   C3A15461  19.183  34.818   7.983
  978POPC   C4A15462  18.797  34.704   7.763
  978POPC   C1B15463  18.882  34.226   8.780
  978POPC   C2B15464  19.147  34.262   8.406
  978POPC   C3B15465  19.124  34.292   7.966
  978POPC   C4B15466  18.927  34.105   7.638
  979POPC   NC315467  21.087  41.506   9.525
  979POPC   PO415468  20.425  41.507   9.686
  979POPC   GL115469  20.503  41.515   9.254
  979POPC   GL215470  20.390  41.841   9.116
  979POPC   C1A15471  20.757  41.568   8.885
  979POPC   D2A15472  20.754  41.358   8.505
  979POPC   C3A15473  20.713  41.360   8.065
  979POPC   C4A15474  20.522  41.372   7.689
  979POPC   C1B15475  20.385  41.856   8.647
  979POPC   C2B15476  20.665  41.852   8.315
  979POPC   C3B15477  20.597  41.854   7.887
  979POPC   C4B15478  20.281  41.823   7.558
  980POPC   NC315479  35.360   9.747   9.534
  980POPC   PO415480  34.918   9.327   9.329
  980POPC   GL115481  35.290   9.505   9.087
  980POPC   GL215482  35.370   9.898   9.065
  980POPC   C1A15483  35.218   9.592   8.664
  980POPC   D2A15484  35.264   9.468   8.270
  980POPC   C3A15485  35.123   9.469   7.877
  980POPC   C4A15486  35.380   9.454   7.524
  980POPC   C1B15487  35.239  10.113   8.705
  980POPC   C2B15488  35.104   9.986   8.310
  980POPC   C3B15489  35.044  10.225   7.979
  980POPC   C4B15490  35.268   9.964   7.688
  981POPC   NC315491  36.371   1.030   9.542
  981POPC   PO415492  35.735   1.395   9.503
  981POPC   GL115493  35.948   1.195   9.182
  981POPC   GL215494  36.277   1.335   9.140
  981POPC   C1A15495  35.934   1.300   8.738
  981POPC   D2A15496  35.652   1.300   8.374
  981POPC   C3A15497  35.789   1.333   7.940
  981POPC   C4A15498  35.958   1.244   7.524
  981POPC   C1B15499  36.306   0.963   8.841
  981POPC   C2B15500  36.308   1.088   8.398
  981POPC   C3B15501  36.294   1.277   7.991
  981POPC   C4B15502  36.216   0.907   7.793
  982POPC   NC315503  15.851  36.222   9.572
  982POPC   PO415504  15.689  35.546   9.514
  982POPC   GL115505  15.803  35.898   9.171
  982POPC   GL215506  15.985  36.278   9.082
  982POPC   C1A15507  15.831  35.958   8.722
  982POPC   D2A15508  16.050  36.199   8.418
  982POPC   C3A15509  15.982  36.088   7.972
  982POPC   C4A15510  16.354  35.956   7.729
  982POPC   C1B15511  15.767  36.531   8.730
  982POPC   C2B15512  15.891  36.660   8.280
  982POPC   C3B15513  15.836  36.662   7.834
  982POPC   C4B15514  15.775  36.704   7.330
  983POPC   NC315515  39.357  40.418   9.799
  983POPC   PO415516  39.160  41.028   9.582
  983POPC   GL115517  39.189  40.810   9.174
  983POPC   GL215518  39.538  40.801   9.192
  983POPC   C1A15519  39.098  40.761   8.696
  983POPC   D2A15520  38.994  41.006   8.311
  983POPC   C3A15521  39.063  40.837   7.869
  983POPC   C4A15522  39.330  40.733   7.479
  983POPC   C1B15523  39.596  40.772   8.743
  983POPC   C2B15524  39.479  40.826   8.299
  983POPC   C3B15525  39.629  40.842   7.872
  983POPC   C4B15526  39.617  41.144   7.522
  984POPC   NC315527   4.873  28.817   9.683
  984POPC   PO415528   5.273  29.324   9.458
  984POPC   GL115529   5.126  29.152   9.105
  984POPC   GL215530   4.856  28.950   9.188
  984POPC   C1A15531   5.280  29.159   8.686
  984POPC   D2A15532   5.233  29.463   8.354
  984POPC   C3A15533   4.993  29.326   8.028
  984POPC   C4A15534   5.226  28.968   7.867
  984POPC   C1B15535   4.857  28.858   8.743
  984POPC   C2B15536   4.950  28.880   8.314
  984POPC   C3B15537   4.777  28.782   7.915
  984POPC   C4B15538   4.920  28.715   7.472
  985POPC   NC315539  15.984   0.060   9.974
  985POPC   PO415540  15.949   0.665   9.709
  985POPC   GL115541  15.982   0.585   9.248
  985POPC   GL215542  16.255   0.776   9.204
  985POPC   C1A15543  16.051   0.355   8.869
  985POPC   D2A15544  15.768   0.300   8.521
  985POPC   C3A15545  15.807   0.381   8.050
  985POPC   C4A15546  15.589   0.292   7.650
  985POPC   C1B15547  16.232   0.859   8.744
  985POPC   C2B15548  16.143   0.687   8.330
  985POPC   C3B15549  16.204   0.734   7.861
  985POPC   C4B15550  16.048   0.546   7.501
  986POPC   NC315551  33.233  16.426   9.522
  986POPC   PO415552  32.843  16.960   9.554
  986POPC   GL115553  32.993  16.721   9.181
  986POPC   GL215554  32.822  16.389   9.235
  986POPC   C1A15555  33.225  16.485   8.854
  986POPC   D2A15556  33.406  16.642   8.476
  986POPC   C3A15557  33.243  16.547   8.093
  986POPC   C4A15558  33.092  16.736   7.725
  986POPC   C1B15559  32.708  16.415   8.827
  986POPC   C2B15560  32.894  16.433   8.451
  986POPC   C3B15561  32.744  16.610   8.087
  986POPC   C4B15562  32.588  16.600   7.684
  987POPC   NC315563   0.705  22.937   9.385
  987POPC   PO415564   0.068  23.137   9.494
  987POPC   GL115565   0.277  23.101   9.136
  987POPC   GL215566   0.242  22.746   9.185
  987POPC   C1A15567   0.425  23.191   8.729
  987POPC   D2A15568   0.223  22.970   8.391
  987POPC   C3A15569   0.502  22.982   8.042
  987POPC   C4A15570   0.559  22.911   7.634
  987POPC   C1B15571   0.470  22.686   8.799
  987POPC   C2B15572   0.604  22.627   8.390
  987POPC   C3B15573   0.603  22.480   7.956
  987POPC   C4B15574   0.710  22.450   7.500
  988POPC   NC315575  23.220  26.666   9.810
  988POPC   PO415576  22.805  27.123   9.527
  988POPC   GL115577  22.776  26.823   9.251
  988POPC   GL215578  22.971  26.543   9.327
  988POPC   C1A15579  22.739  26.952   8.832
  988POPC   D2A15580  22.924  26.949   8.454
  988POPC   C3A15581  22.723  26.672   8.161
  988POPC   C4A15582  22.834  26.699   7.745
  988POPC   C1B15583  23.126  26.613   8.909
  988POPC   C2B15584  23.094  26.478   8.483
  988POPC   C3B15585  23.244  26.684   8.088
  988POPC   C4B15586  23.316  26.506   7.669
  989POPC   NC315587  28.457   2.249   9.578
  989POPC   PO415588  28.502   1.588   9.653
  989POPC   GL115589  28.413   1.889   9.230
  989POPC   GL215590  28.107   2.139   9.233
  989POPC   C1A15591  28.613   2.009   8.806
  989POPC   D2A15592  28.521   1.861   8.391
  989POPC   C3A15593  28.632   2.064   8.049
  989POPC   C4A15594  28.424   2.056   7.680
  989POPC   C1B15595  28.295   2.377   8.908
  989POPC   C2B15596  28.267   2.301   8.482
  989POPC   C3B15597  28.128   2.192   8.097
  989POPC   C4B15598  27.976   2.443   7.749
  990POPC   NC315599  41.762   9.955   9.549
  990POPC   PO415600  41.155   9.569   9.652
  990POPC   GL115601  41.392   9.731   9.257
  990POPC   GL215602  41.368  10.058   9.152
  990POPC   C1A15603  41.678   9.576   8.881
  990POPC   D2A15604  41.712   9.766   8.414
  990POPC   C3A15605  41.700   9.533   8.004
  990POPC   C4A15606  41.637   9.684   7.574
  990POPC   C1B15607  41.274   9.840   8.754
  990POPC   C2B15608  41.171   9.836   8.338
  990POPC   C3B15609  41.260   9.785   7.945
  990POPC   C4B15610  41.214   9.985   7.607
  991POPC   NC315611  26.361  22.264   9.481
  991POPC   PO415612  25.782  22.090   9.697
  991POPC   GL115613  25.932  21.971   9.254
  991POPC   GL215614  26.203  22.092   9.053
  991POPC   C1A15615  25.858  21.855   8.801
  991POPC   D2A15616  26.079  22.013   8.425
  991POPC   C3A15617  25.909  22.179   8.064
  991POPC   C4A15618  26.103  22.359   7.726
  991POPC   C1B15619  26.459  22.189   8.715
  991POPC   C2B15620  26.641  22.071   8.397
  991POPC   C3B15621  26.458  22.106   8.061
  991POPC   C4B15622  26.468  22.047   7.682
  992POPC   NC315623   3.840  36.782   9.530
  992POPC   PO415624   4.428  37.140   9.474
  992POPC   GL115625   4.207  36.944   9.169
  992POPC   GL215626   4.129  36.587   9.165
  992POPC   C1A15627   4.178  37.132   8.784
  992POPC   D2A15628   4.164  37.313   8.411
  992POPC   C3A15629   4.079  37.071   8.039
  992POPC   C4A15630   4.269  37.080   7.644
  992POPC   C1B15631   4.345  36.634   8.786
  992POPC   C2B15632   4.463  36.830   8.396
  992POPC   C3B15633   4.480  36.749   7.981
  992POPC   C4B15634   4.202  36.595   7.675
  993POPC   NC315635  28.757  40.638   9.441
  993POPC   PO415636  29.314  40.984   9.396
  993POPC   GL115637  29.138  40.919   9.009
  993POPC   GL215638  29.068  40.597   9.021
  993POPC   C1A15639  29.182  40.841   8.569
  993POPC   D2A15640  29.487  40.660   8.306
  993POPC   C3A15641  29.320  40.861   7.964
  993POPC   C4A15642  28.999  41.082   7.735
  993POPC   C1B15643  29.317  40.391   8.742
  993POPC   C2B15644  29.042  40.354   8.400
  993POPC   C3B15645  28.916  40.271   8.004
  993POPC   C4B15646  29.123  40.487   7.677
  994POPC   NC315647  44.387  25.158   9.730
  994POPC   PO415648  43.786  24.960   9.444
  994POPC   GL115649  43.939  25.048   9.022
  994POPC   GL215650  44.145  25.209   9.206
  994POPC   C1A15651  44.088  25.104   8.601
  994POPC   D2A15652  44.051  24.797   8.239
  994POPC   C3A15653  44.006  25.041   7.877
  994POPC   C4A15654  43.729  25.359   7.801
  994POPC   C1B15655  44.205  25.565   8.935
  994POPC   C2B15656  44.340  25.589   8.523
  994POPC   C3B15657  44.131  25.465   8.149
  994POPC   C4B15658  44.111  25.682   7.744
  995POPC   NC315659  43.342  14.195   9.536
  995POPC   PO415660  42.905  14.662   9.684
  995POPC   GL115661  43.037  14.488   9.229
  995POPC   GL215662  43.321  14.673   9.124
  995POPC   C1A15663  43.179  14.367   8.751
  995POPC   D2A15664  43.411  14.374   8.324
  995POPC   C3A15665  43.152  14.350   7.905
  995POPC   C4A15666  42.895  14.541   7.564
  995POPC   C1B15667  43.463  14.901   8.747
  995POPC   C2B15668  43.363  14.915   8.279
  995POPC   C3B15669  43.455  14.759   7.834
  995POPC   C4B15670  43.594  14.333   7.648
  996POPC   NC315671  28.526  10.874   9.348
  996POPC   PO415672  28.274  11.306   9.800
  996POPC   GL115673  28.334  11.358   9.319
  996POPC   GL215674  28.120  11.157   9.099
  996POPC   C1A15675  28.468  11.494   8.866
  996POPC   D2A15676  28.581  11.393   8.382
  996POPC   C3A15677  28.367  11.359   7.956
  996POPC   C4A15678  28.579  11.559   7.630
  996POPC   C1B15679  28.328  11.034   8.705
  996POPC   C2B15680  28.205  11.016   8.286
  996POPC   C3B15681  28.356  10.847   7.871
  996POPC   C4B15682  28.530  11.044   7.473
  997POPC   NC315683  35.318  17.869   9.447
  997POPC   PO415684  35.221  18.551   9.453
  997POPC   GL115685  35.172  18.262   9.118
  997POPC   GL215686  35.401  18.005   8.972
  997POPC   C1A15687  35.270  18.436   8.746
  997POPC   D2A15688  35.382  18.246   8.387
  997POPC   C3A15689  35.287  18.531   8.065
  997POPC   C4A15690  35.631  18.599   7.838
  997POPC   C1B15691  35.642  17.822   8.649
  997POPC   C2B15692  35.792  17.986   8.240
  997POPC   C3B15693  35.542  18.100   7.858
  997POPC   C4B15694  35.650  18.193   7.374
  998POPC   NC315695   7.984  13.699   9.548
  998POPC   PO415696   8.529  13.363   9.701
  998POPC   GL115697   8.282  13.348   9.276
  998POPC   GL215698   7.954  13.233   9.247
  998POPC   C1A15699   8.205  13.634   8.909
  998POPC   D2A15700   8.360  13.613   8.472
  998POPC   C3A15701   8.131  13.702   8.112
  998POPC   C4A15702   8.314  13.721   7.715
  998POPC   C1B15703   7.751  13.389   8.899
  998POPC   C2B15704   7.853  13.420   8.480
  998POPC   C3B15705   7.854  13.268   8.065
  998POPC   C4B15706   7.830  13.505   7.691
  999POPC   NC315707  35.966   4.302   9.881
  999POPC   PO415708  36.534   4.343   9.475
  999POPC   GL115709  36.165   4.451   9.248
  999POPC   GL215710  35.939   4.159   9.242
  999POPC   C1A15711  36.116   4.634   8.831
  999POPC   D2A15712  36.127   4.381   8.494
  999POPC   C3A15713  36.165   4.517   8.086
  999POPC   C4A15714  35.976   4.293   7.769
  999POPC   C1B15715  36.102   3.927   8.870
  999POPC   C2B15716  36.343   3.872   8.485
  999POPC   C3B15717  36.225   3.959   8.051
  999POPC   C4B15718  35.842   3.801   7.786
 1000POPC   NC315719  17.241  34.896   9.479
 1000POPC   PO415720  17.695  34.473   9.504
 1000POPC   GL115721  17.578  34.695   9.131
 1000POPC   GL215722  17.318  34.447   9.113
 1000POPC   C1A15723  17.423  34.705   8.684
 1000POPC   D2A15724  17.148  34.689   8.318
 1000POPC   C3A15725  17.449  34.654   7.966
 1000POPC   C4A15726  17.871  34.476   7.826
 1000POPC   C1B15727  17.338  34.196   8.733
 1000POPC   C2B15728  17.520  34.235   8.337
 1000POPC   C3B15729  17.504  34.112   7.923
 1000POPC   C4B15730  17.315  34.306   7.613
 1001POPC   NC315731  20.738  30.284   9.415
 1001POPC   PO415732  20.517  29.680   9.604
 1001POPC   GL115733  20.669  29.837   9.208
 1001POPC   GL215734  20.360  30.021   9.192
 1001POPC   C1A15735  20.845  30.036   8.821
 1001POPC   D2A15736  20.728  29.882   8.415
 1001POPC   C3A15737  20.794  30.033   8.008
 1001POPC   C4A15738  20.790  29.645   7.761
 1001POPC   C1B15739  20.361  29.850   8.790
 1001POPC   C2B15740  20.218  29.906   8.399
 1001POPC   C3B15741  20.350  29.752   8.034
 1001POPC   C4B15742  20.146  29.949   7.769
 1002POPC   NC315743  42.867  13.279   9.514
 1002POPC   PO415744  42.954  13.966   9.455
 1002POPC   GL115745  43.239  13.684   9.288
 1002POPC   GL215746  43.195  13.925   9.020
 1002POPC   C1A15747  43.166  13.440   8.927
 1002POPC   D2A15748  43.169  13.601   8.530
 1002POPC   C3A15749  43.290  13.442   8.135
 1002POPC   C4A15750  43.166  13.398   7.722
 1002POPC   C1B15751  42.860  13.966   8.722
 1002POPC   C2B15752  42.963  14.006   8.310
 1002POPC   C3B15753  42.909  13.814   7.921
 1002POPC   C4B15754  42.847  14.042   7.537
 1003POPC   NC315755   0.181  42.544   9.491
 1003POPC   PO415756   0.565  41.993   9.453
 1003POPC   GL115757   0.367  42.198   9.136
 1003POPC   GL215758   0.559  42.499   9.112
 1003POPC   C1A15759   0.147  42.140   8.755
 1003POPC   D2A15760   0.097  41.814   8.448
 1003POPC   C3A15761   0.180  41.954   8.043
 1003POPC   C4A15762   0.380  42.173   7.690
 1003POPC   C1B15763   0.566  42.406   8.694
 1003POPC   C2B15764   0.378  42.374   8.305
 1003POPC   C3B15765   0.488  42.589   7.947
 1003POPC   C4B15766   0.379  42.814   7.587
 1004POPC   NC315767  40.042   3.372   9.462
 1004POPC   PO415768  39.569   3.781   9.493
 1004POPC   GL115769  39.861   3.653   9.078
 1004POPC   GL215770  40.234   3.498   9.022
 1004POPC   C1A15771  40.025   3.782   8.680
 1004POPC   D2A15772  40.236   3.527   8.422
 1004POPC   C3A15773  39.929   3.577   8.140
 1004POPC   C4A15774  40.096   3.790   7.832
 1004POPC   C1B15775  40.056   3.170   8.748
 1004POPC   C2B15776  39.995   3.077   8.290
 1004POPC   C3B15777  40.189   3.217   7.887
 1004POPC   C4B15778  40.508   3.110   7.580
 1005POPC   NC315779  15.968  37.351   9.415
 1005POPC   PO415780  16.015  36.658   9.557
 1005POPC   GL115781  15.966  36.805   9.155
 1005POPC   GL215782  16.320  36.851   9.117
 1005POPC   C1A15783  15.953  37.007   8.743
 1005POPC   D2A15784  15.616  37.032   8.459
 1005POPC   C3A15785  15.783  37.144   8.049
 1005POPC   C4A15786  16.160  37.051   7.809
 1005POPC   C1B15787  16.266  36.583   8.762
 1005POPC   C2B15788  16.401  36.583   8.343
 1005POPC   C3B15789  16.311  36.465   7.925
 1005POPC   C4B15790  16.141  36.406   7.527
 1006POPC   NC315791   2.776  13.369   9.413
 1006POPC   PO415792   2.649  14.033   9.585
 1006POPC   GL115793   2.532  13.761   9.174
 1006POPC   GL215794   2.493  13.403   9.001
 1006POPC   C1A15795   2.489  13.872   8.771
 1006POPC   D2A15796   2.746  13.825   8.394
 1006POPC   C3A15797   2.728  13.478   8.150
 1006POPC   C4A15798   2.734  13.690   7.797
 1006POPC   C1B15799   2.829  13.411   8.696
 1006POPC   C2B15800   3.213  13.665   8.579
 1006POPC   C3B15801   3.202  13.706   8.144
 1006POPC   C4B15802   3.104  13.333   7.848
 1007POPC   NC315803  37.882  16.451   9.489
 1007POPC   PO415804  37.321  16.773   9.426
 1007POPC   GL115805  37.517  16.653   9.063
 1007POPC   GL215806  37.539  16.316   9.145
 1007POPC   C1A15807  37.386  16.644   8.633
 1007POPC   D2A15808  37.423  16.755   8.224
 1007POPC   C3A15809  37.807  16.831   8.050
 1007POPC   C4A15810  37.587  16.735   7.673
 1007POPC   C1B15811  37.669  16.247   8.745
 1007POPC   C2B15812  37.816  16.437   8.385
 1007POPC   C3B15813  37.739  16.353   7.960
 1007POPC   C4B15814  38.004  16.462   7.582
 1008POPC   NC315815   7.188  34.662   9.474
 1008POPC   PO415816   7.210  35.324   9.472
 1008POPC   GL115817   7.177  34.972   9.080
 1008POPC   GL215818   7.486  34.715   9.075
 1008POPC   C1A15819   7.277  34.737   8.649
 1008POPC   D2A15820   7.307  34.474   8.301
 1008POPC   C3A15821   7.365  34.624   7.860
 1008POPC   C4A15822   7.225  34.807   7.425
 1008POPC   C1B15823   7.265  34.298   8.894
 1008POPC   C2B15824   7.453  34.065   8.574
 1008POPC   C3B15825   7.665  34.124   8.168
 1008POPC   C4B15826   7.776  34.126   7.732
 1009POPC   NC315827  13.809  12.159   9.519
 1009POPC   PO415828  13.170  12.325   9.317
 1009POPC   GL115829  13.593  12.234   9.062
 1009POPC   GL215830  13.788  11.891   9.097
 1009POPC   C1A15831  13.709  12.074   8.627
 1009POPC   D2A15832  13.529  11.770   8.317
 1009POPC   C3A15833  13.310  12.000   8.016
 1009POPC   C4A15834  13.568  12.166   7.715
 1009POPC   C1B15835  14.060  11.730   8.789
 1009POPC   C2B15836  14.023  11.735   8.355
 1009POPC   C3B15837  13.955  11.900   7.944
 1009POPC   C4B15838  14.087  12.204   7.659
 1010POPC   NC315839  32.392   7.659   9.583
 1010POPC   PO415840  32.206   7.053   9.585
 1010POPC   GL115841  32.160   7.343   9.224
 1010POPC   GL215842  32.483   7.185   9.166
 1010POPC   C1A15843  32.015   7.362   8.752
 1010POPC   D2A15844  32.154   7.084   8.418
 1010POPC   C3A15845  32.046   7.079   7.988
 1010POPC   C4A15846  31.879   7.418   7.756
 1010POPC   C1B15847  32.644   7.354   8.815
 1010POPC   C2B15848  32.453   7.520   8.474
 1010POPC   C3B15849  32.185   7.540   8.150
 1010POPC   C4B15850  32.381   7.548   7.744
 1011POPC   NC315851  24.223  31.459   9.690
 1011POPC   PO415852  23.628  31.102   9.506
 1011POPC   GL115853  23.790  31.206   9.117
 1011POPC   GL215854  23.727  31.584   9.136
 1011POPC   C1A15855  23.911  31.360   8.707
 1011POPC   D2A15856  23.707  31.601   8.371
 1011POPC   C3A15857  23.672  31.403   7.950
 1011POPC   C4A15858  23.908  31.055   7.733
 1011POPC   C1B15859  23.875  31.882   8.769
 1011POPC   C2B15860  24.121  31.903   8.378
 1011POPC   C3B15861  23.969  31.842   7.969
 1011POPC   C4B15862  24.033  31.782   7.520
 1012POPC   NC315863  38.647   8.360   9.544
 1012POPC   PO415864  38.142   7.974   9.605
 1012POPC   GL115865  38.411   7.879   9.193
 1012POPC   GL215866  38.770   8.039   9.172
 1012POPC   C1A15867  38.582   7.873   8.731
 1012POPC   D2A15868  38.688   8.143   8.385
 1012POPC   C3A15869  38.358   8.265   8.111
 1012POPC   C4A15870  38.300   7.919   7.855
 1012POPC   C1B15871  38.711   8.401   8.851
 1012POPC   C2B15872  38.784   8.639   8.433
 1012POPC   C3B15873  38.927   8.548   8.003
 1012POPC   C4B15874  38.797   8.136   7.866
 1013POPC   NC315875  11.132  12.272   9.386
 1013POPC   PO415876  11.147  11.651   9.320
 1013POPC   GL115877  11.138  11.983   8.988
 1013POPC   GL215878  10.837  12.281   8.987
 1013POPC   C1A15879  11.395  11.988   8.630
 1013POPC   D2A15880  11.519  11.680   8.297
 1013POPC   C3A15881  11.368  11.794   7.876
 1013POPC   C4A15882  10.928  11.864   7.787
 1013POPC   C1B15883  11.049  12.435   8.668
 1013POPC   C2B15884  10.931  12.595   8.273
 1013POPC   C3B15885  11.086  12.353   7.944
 1013POPC   C4B15886  11.025  12.315   7.518
 1014POPC   NC315887   7.627   6.181   9.455
 1014POPC   PO415888   7.086   5.715   9.587
 1014POPC   GL115889   7.395   5.748   9.251
 1014POPC   GL215890   7.209   6.018   9.148
 1014POPC   C1A15891   7.624   5.939   8.838
 1014POPC   D2A15892   7.619   6.200   8.459
 1014POPC   C3A15893   7.631   6.036   8.009
 1014POPC   C4A15894   7.391   5.756   7.810
 1014POPC   C1B15895   7.244   6.318   8.824
 1014POPC   C2B15896   7.228   6.512   8.438
 1014POPC   C3B15897   7.190   6.256   8.107
 1014POPC   C4B15898   7.068   6.161   7.716
 1015POPC   NC315899  43.417  24.686   9.510
 1015POPC   PO415900  42.761  24.548   9.574
 1015POPC   GL115901  42.874  24.597   9.140
 1015POPC   GL215902  43.215  24.591   9.031
 1015POPC   C1A15903  42.853  24.378   8.724
 1015POPC   D2A15904  42.634  24.363   8.324
 1015POPC   C3A15905  42.911  24.322   7.977
 1015POPC   C4A15906  43.350  24.310   7.783
 1015POPC   C1B15907  42.999  24.884   8.735
 1015POPC   C2B15908  42.975  24.741   8.311
 1015POPC   C3B15909  43.162  24.754   7.941
 1015POPC   C4B15910  43.587  24.784   7.841
 1016POPC   NC315911  34.771   0.595   9.392
 1016POPC   PO415912  34.407   0.103   9.625
 1016POPC   GL115913  34.514   0.076   9.223
 1016POPC   GL215914  34.338   0.376   9.144
 1016POPC   C1A15915  34.693   0.080   8.827
 1016POPC   D2A15916  34.550   0.218   8.465
 1016POPC   C3A15917  34.739   0.250   8.095
 1016POPC   C4A15918  34.595   0.314   7.698
 1016POPC   C1B15919  34.446   0.626   8.770
 1016POPC   C2B15920  34.507   0.722   8.303
 1016POPC   C3B15921  34.386   0.777   7.849
 1016POPC   C4B15922  34.204   0.813   7.388
 1017POPC   NC315923  40.452   9.665   9.306
 1017POPC   PO415924  39.909   9.607   9.583
 1017POPC   GL115925  39.984   9.775   9.141
 1017POPC   GL215926  40.269  10.043   9.034
 1017POPC   C1A15927  39.856   9.968   8.751
 1017POPC   D2A15928  40.046  10.114   8.387
 1017POPC   C3A15929  40.022   9.812   8.115
 1017POPC   C4A15930  39.811   9.709   7.754
 1017POPC   C1B15931  40.294   9.716   8.661
 1017POPC   C2B15932  40.365   9.405   8.307
 1017POPC   C3B15933  40.352   9.517   7.860
 1017POPC   C4B15934  40.298   9.946   7.703
 1018POPC   NC315935  26.437  20.680   9.557
 1018POPC   PO415936  25.824  20.327   9.574
 1018POPC   GL115937  25.990  20.610   9.235
 1018POPC   GL215938  26.280  20.578   9.071
 1018POPC   C1A15939  25.863  20.810   8.833
 1018POPC   D2A15940  26.025  20.837   8.396
 1018POPC   C3A15941  25.821  20.722   8.021
 1018POPC   C4A15942  25.929  20.914   7.679
 1018POPC   C1B15943  26.156  20.417   8.681
 1018POPC   C2B15944  26.381  20.343   8.335
 1018POPC   C3B15945  26.304  20.568   8.043
 1018POPC   C4B15946  26.146  20.439   7.692
 1019POPC   NC315947  28.371   9.413   9.646
 1019POPC   PO415948  28.270   8.773   9.618
 1019POPC   GL115949  28.378   8.801   9.185
 1019POPC   GL215950  28.720   8.870   9.218
 1019POPC   C1A15951  28.494   9.009   8.788
 1019POPC   D2A15952  28.324   9.257   8.477
 1019POPC   C3A15953  28.483   9.324   8.073
 1019POPC   C4A15954  28.290   9.116   7.757
 1019POPC   C1B15955  28.741   8.564   8.853
 1019POPC   C2B15956  28.676   8.696   8.390
 1019POPC   C3B15957  28.736   8.832   7.942
 1019POPC   C4B15958  28.550   8.781   7.504
 1020POPC   NC315959  27.288  41.699   9.473
 1020POPC   PO415960  27.827  41.381   9.732
 1020POPC   GL115961  27.711  41.252   9.210
 1020POPC   GL215962  27.387  41.407   9.081
 1020POPC   C1A15963  27.745  41.342   8.731
 1020POPC   D2A15964  27.754  41.601   8.328
 1020POPC   C3A15965  27.653  41.382   7.951
 1020POPC   C4A15966  27.613  41.453   7.494
 1020POPC   C1B15967  27.509  41.788   8.767
 1020POPC   C2B15968  27.501  42.061   8.379
 1020POPC   C3B15969  27.617  41.956   7.938
 1020POPC   C4B15970  27.345  41.867   7.552
 1021POPC   NC315971  37.150   7.679   9.350
 1021POPC   PO415972  36.814   7.078   9.450
 1021POPC   GL115973  36.875   7.194   9.067
 1021POPC   GL215974  37.199   7.214   9.097
 1021POPC   C1A15975  36.813   7.304   8.652
 1021POPC   D2A15976  36.616   7.359   8.264
 1021POPC   C3A15977  36.653   7.681   7.936
 1021POPC   C4A15978  36.710   7.599   7.485
 1021POPC   C1B15979  37.302   7.426   8.754
 1021POPC   C2B15980  37.237   7.409   8.357
 1021POPC   C3B15981  37.118   7.444   7.980
 1021POPC   C4B15982  36.815   7.180   7.832
 1022POPC   NC315983  31.004  25.662   9.476
 1022POPC   PO415984  31.067  24.941   9.431
 1022POPC   GL115985  30.813  25.176   9.106
 1022POPC   GL215986  30.465  25.059   9.084
 1022POPC   C1A15987  30.726  25.301   8.643
 1022POPC   D2A15988  30.988  25.310   8.236
 1022POPC   C3A15989  30.831  25.172   7.805
 1022POPC   C4A15990  30.699  25.305   7.418
 1022POPC   C1B15991  30.173  25.051   8.786
 1022POPC   C2B15992  30.368  24.999   8.441
 1022POPC   C3B15993  30.477  25.246   8.131
 1022POPC   C4B15994  30.301  25.204   7.723
 1023POPC   NC315995  38.307  43.688   9.420
 1023POPC   PO415996  38.864  43.973   9.466
 1023POPC   GL115997  38.650  43.947   9.110
 1023POPC   GL215998  38.379  44.123   9.125
 1023POPC   C1A15999  38.581  43.576   8.857
 1023POPC   D2A16000  38.480  43.518   8.479
 1023POPC   C3A16001  38.740  43.649   8.162
 1023POPC   C4A16002  38.556  43.715   7.742
 1023POPC   C1B16003  38.172  44.100   8.792
 1023POPC   C2B16004  38.179  43.926   8.428
 1023POPC   C3B16005  38.396  44.046   8.103
 1023POPC   C4B16006  38.211  44.083   7.739
 1024POPC   NC316007  33.946  44.152   9.658
 1024POPC   PO416008  33.591  43.670   9.598
 1024POPC   GL116009  33.680  43.961   9.249
 1024POPC   GL216010  33.427  44.138   9.106
 1024POPC   C1A16011  33.843  43.982   8.807
 1024POPC   D2A16012  33.763  43.790   8.403
 1024POPC   C3A16013  34.023  43.956   8.062
 1024POPC   C4A16014  33.943  44.253   7.728
 1024POPC   C1B16015  33.353  43.794   8.806
 1024POPC   C2B16016  33.239  43.640   8.379
 1024POPC   C3B16017  33.423  43.631   7.953
 1024POPC   C4B16018  33.325  43.689   7.453
 1025POPC   NC316019  14.523  15.354   9.630
 1025POPC   PO416020  14.459  14.750   9.450
 1025POPC   GL116021  14.446  15.187   9.151
 1025POPC   GL216022  14.612  15.552   9.170
 1025POPC   C1A16023  14.468  15.307   8.688
 1025POPC   D2A16024  14.628  14.991   8.361
 1025POPC   C3A16025  14.313  14.980   8.032
 1025POPC   C4A16026  14.241  15.295   7.728
 1025POPC   C1B16027  14.770  15.752   8.780
 1025POPC   C2B16028  14.757  15.659   8.317
 1025POPC   C3B16029  14.709  15.350   7.972
 1025POPC   C4B16030  14.697  15.302   7.506
 1026POPC   NC316031  42.623  23.394   9.873
 1026POPC   PO416032  42.173  23.075   9.444
 1026POPC   GL116033  42.323  22.827   9.101
 1026POPC   GL216034  42.649  22.844   9.138
 1026POPC   C1A16035  42.517  22.636   8.705
 1026POPC   D2A16036  42.328  22.791   8.364
 1026POPC   C3A16037  42.300  22.621   7.976
 1026POPC   C4A16038  42.079  22.965   7.798
 1026POPC   C1B16039  42.575  23.129   8.744
 1026POPC   C2B16040  42.785  22.999   8.379
 1026POPC   C3B16041  42.591  23.076   8.014
 1026POPC   C4B16042  42.557  22.940   7.643
 1027POPC   NC316043  27.645  16.595   9.642
 1027POPC   PO416044  27.212  17.051   9.542
 1027POPC   GL116045  27.512  16.871   9.230
 1027POPC   GL216046  27.394  16.542   9.171
 1027POPC   C1A16047  27.738  16.732   8.848
 1027POPC   D2A16048  27.583  16.511   8.471
 1027POPC   C3A16049  27.613  16.705   8.044
 1027POPC   C4A16050  27.706  16.718   7.564
 1027POPC   C1B16051  27.106  16.355   8.853
 1027POPC   C2B16052  27.060  16.193   8.418
 1027POPC   C3B16053  27.272  16.336   8.078
 1027POPC   C4B16054  27.231  16.553   7.691
 1028POPC   NC316055  34.945   2.255   9.543
 1028POPC   PO416056  35.630   2.122   9.499
 1028POPC   GL116057  35.460   1.874   9.169
 1028POPC   GL216058  35.141   1.912   9.191
 1028POPC   C1A16059  35.498   1.941   8.753
 1028POPC   D2A16060  35.753   2.075   8.426
 1028POPC   C3A16061  35.635   1.822   8.087
 1028POPC   C4A16062  35.426   1.756   7.698
 1028POPC   C1B16063  35.022   2.145   8.831
 1028POPC   C2B16064  34.907   2.046   8.407
 1028POPC   C3B16065  35.122   1.988   8.038
 1028POPC   C4B16066  34.943   1.972   7.615
 1029POPC   NC316067   2.236  26.269   9.424
 1029POPC   PO416068   1.554  25.871   9.572
 1029POPC   GL116069   1.683  25.874   9.159
 1029POPC   GL216070   2.016  25.846   9.163
 1029POPC   C1A16071   1.797  26.187   8.849
 1029POPC   D2A16072   1.987  26.225   8.465
 1029POPC   C3A16073   1.779  26.217   8.072
 1029POPC   C4A16074   1.855  25.973   7.739
 1029POPC   C1B16075   2.293  25.919   8.802
 1029POPC   C2B16076   2.352  25.790   8.380
 1029POPC   C3B16077   2.269  26.072   8.051
 1029POPC   C4B16078   2.366  26.102   7.616
 1030POPC   NC316079  43.200  29.746   9.572
 1030POPC   PO416080  42.583  29.590   9.596
 1030POPC   GL116081  42.834  29.683   9.191
 1030POPC   GL216082  43.019  29.998   9.173
 1030POPC   C1A16083  42.873  29.833   8.735
 1030POPC   D2A16084  42.732  30.080   8.422
 1030POPC   C3A16085  42.853  29.919   8.087
 1030POPC   C4A16086  42.829  30.105   7.721
 1030POPC   C1B16087  43.326  30.009   8.819
 1030POPC   C2B16088  43.268  29.834   8.391
 1030POPC   C3B16089  43.332  29.967   7.943
 1030POPC   C4B16090  43.559  29.822   7.556
 1031POPC   NC316091   9.017  15.412   9.615
 1031POPC   PO416092   8.506  14.957   9.540
 1031POPC   GL116093   8.794  15.089   9.233
 1031POPC   GL216094   8.669  15.416   9.174
 1031POPC   C1A16095   8.836  14.883   8.826
 1031POPC   D2A16096   9.001  15.076   8.442
 1031POPC   C3A16097   8.994  14.890   8.047
 1031POPC   C4A16098   9.052  15.008   7.649
 1031POPC   C1B16099   8.684  15.347   8.734
 1031POPC   C2B16100   8.627  15.431   8.315
 1031POPC   C3B16101   8.689  15.321   7.892
 1031POPC   C4B16102   8.760  15.377   7.454
 1032POPC   NC316103  30.619   6.977   9.439
 1032POPC   PO416104  31.016   6.468   9.429
 1032POPC   GL116105  30.736   6.579   9.140
 1032POPC   GL216106  30.765   6.261   9.040
 1032POPC   C1A16107  30.799   6.868   8.805
 1032POPC   D2A16108  30.643   6.817   8.406
 1032POPC   C3A16109  30.839   6.889   8.030
 1032POPC   C4A16110  30.489   6.914   7.755
 1032POPC   C1B16111  30.798   6.358   8.632
 1032POPC   C2B16112  30.850   6.378   8.216
 1032POPC   C3B16113  30.812   6.399   7.798
 1032POPC   C4B16114  31.117   6.329   7.496
 1033POPC   NC316115   0.627  38.014   9.539
 1033POPC   PO416116   0.077  37.617   9.524
 1033POPC   GL116117   0.207  37.872   9.194
 1033POPC   GL216118   0.552  37.790   9.104
 1033POPC   C1A16119   0.190  37.915   8.772
 1033POPC   D2A16120   0.235  37.621   8.436
 1033POPC   C3A16121   0.232  37.764   8.002
 1033POPC   C4A16122   0.606  37.623   7.761
 1033POPC   C1B16123   0.733  38.015   8.764
 1033POPC   C2B16124   0.548  38.003   8.341
 1033POPC   C3B16125   0.588  38.119   7.925
 1033POPC   C4B16126   1.002  37.962   7.858
 1034POPC   NC316127  14.080  18.567   9.504
 1034POPC   PO416128  14.573  19.075   9.739
 1034POPC   GL116129  14.541  19.035   9.239
 1034POPC   GL216130  14.368  18.759   9.117
 1034POPC   C1A16131  14.653  18.990   8.755
 1034POPC   D2A16132  14.449  19.297   8.447
 1034POPC   C3A16133  14.536  19.274   7.996
 1034POPC   C4A16134  14.499  18.832   7.781
 1034POPC   C1B16135  14.164  19.044   8.829
 1034POPC   C2B16136  13.970  19.074   8.436
 1034POPC   C3B16137  14.051  19.131   7.992
 1034POPC   C4B16138  13.884  19.453   7.706
 1035POPC   NC316139  43.713  15.736   9.517
 1035POPC   PO416140  44.292  16.099   9.580
 1035POPC   GL116141  44.085  15.943   9.198
 1035POPC   GL216142  43.743  15.916   9.061
 1035POPC   C1A16143  44.124  15.728   8.807
 1035POPC   D2A16144  43.917  15.619   8.434
 1035POPC   C3A16145  44.021  15.733   8.039
 1035POPC   C4A16146  43.781  16.013   7.805
 1035POPC   C1B16147  43.835  16.119   8.675
 1035POPC   C2B16148  43.838  16.250   8.257
 1035POPC   C3B16149  43.518  16.409   7.996
 1035POPC   C4B16150  43.538  16.408   7.543
 1036POPC   NC316151   0.160  27.477   9.509
 1036POPC   PO416152   0.620  27.999   9.581
 1036POPC   GL116153   0.553  27.723   9.196
 1036POPC   GL216154   0.629  27.363   9.135
 1036POPC   C1A16155   0.621  27.679   8.731
 1036POPC   D2A16156   0.530  27.855   8.343
 1036POPC   C3A16157   0.470  27.736   7.934
 1036POPC   C4A16158   0.489  27.733   7.450
 1036POPC   C1B16159   0.272  27.314   8.847
 1036POPC   C2B16160   0.081  27.500   8.466
 1036POPC   C3B16161   0.084  27.364   8.045
 1036POPC   C4B16162   0.446  27.280   7.767
 1037POPC   NC316163   6.155  19.245   9.581
 1037POPC   PO416164   5.863  18.773   9.317
 1037POPC   GL116165   5.947  19.084   9.067
 1037POPC   GL216166   5.663  19.283   9.070
 1037POPC   C1A16167   6.091  18.998   8.661
 1037POPC   D2A16168   5.990  19.177   8.304
 1037POPC   C3A16169   5.967  18.978   7.953
 1037POPC   C4A16170   6.008  19.090   7.530
 1037POPC   C1B16171   5.604  19.208   8.656
 1037POPC   C2B16172   5.494  19.141   8.208
 1037POPC   C3B16173   5.638  19.320   7.802
 1037POPC   C4B16174   5.581  19.241   7.336
 1038POPC   NC316175  33.285   6.924   9.552
 1038POPC   PO416176  33.804   6.532   9.332
 1038POPC   GL116177  33.501   6.725   9.090
 1038POPC   GL216178  33.611   7.051   9.112
 1038POPC   C1A16179  33.477   6.779   8.654
 1038POPC   D2A16180  33.827   6.717   8.350
 1038POPC   C3A16181  33.793   6.560   7.932
 1038POPC   C4A16182  33.693   6.651   7.497
 1038POPC   C1B16183  33.919   7.073   8.726
 1038POPC   C2B16184  34.264   6.986   8.408
 1038POPC   C3B16185  34.233   6.879   7.963
 1038POPC   C4B16186  34.036   7.011   7.576
 1039POPC   NC316187  38.631  12.011   9.425
 1039POPC   PO416188  38.036  11.775   9.414
 1039POPC   GL116189  38.291  12.102   9.099
 1039POPC   GL216190  38.635  12.008   8.935
 1039POPC   C1A16191  38.379  12.411   8.765
 1039POPC   D2A16192  38.619  12.203   8.443
 1039POPC   C3A16193  38.553  12.336   8.027
 1039POPC   C4A16194  38.582  11.994   7.734
 1039POPC   C1B16195  38.847  11.683   8.719
 1039POPC   C2B16196  39.094  11.692   8.330
 1039POPC   C3B16197  38.830  11.586   7.968
 1039POPC   C4B16198  38.784  11.583   7.510
 1040POPC   NC316199   8.872  41.445   9.523
 1040POPC   PO416200   9.388  42.000   9.308
 1040POPC   GL116201   9.058  41.722   9.073
 1040POPC   GL216202   8.708  41.568   9.082
 1040POPC   C1A16203   8.934  41.653   8.617
 1040POPC   D2A16204   9.120  41.449   8.237
 1040POPC   C3A16205   9.110  41.726   7.874
 1040POPC   C4A16206   9.205  41.708   7.404
 1040POPC   C1B16207   8.717  41.217   8.788
 1040POPC   C2B16208   8.610  41.300   8.349
 1040POPC   C3B16209   8.692  41.394   7.931
 1040POPC   C4B16210   8.566  41.324   7.490
 1041POPC   NC316211  39.912  19.963   9.486
 1041POPC   PO416212  40.398  19.478   9.599
 1041POPC   GL116213  40.250  19.634   9.178
 1041POPC   GL216214  39.941  19.741   9.054
 1041POPC   C1A16215  40.270  19.694   8.698
 1041POPC   D2A16216  40.009  19.565   8.361
 1041POPC   C3A16217  40.154  19.693   7.953
 1041POPC   C4A16218  39.948  19.489   7.636
 1041POPC   C1B16219  39.777  20.065   8.788
 1041POPC   C2B16220  39.596  20.085   8.360
 1041POPC   C3B16221  39.744  20.134   7.940
 1041POPC   C4B16222  39.990  20.030   7.555
 1042POPC   NC316223  23.581  43.076   9.850
 1042POPC   PO416224  23.795  43.391   9.269
 1042POPC   GL116225  23.842  42.982   9.147
 1042POPC   GL216226  24.200  42.794   9.230
 1042POPC   C1A16227  23.724  43.105   8.714
 1042POPC   D2A16228  23.706  43.375   8.375
 1042POPC   C3A16229  23.610  43.205   8.016
 1042POPC   C4A16230  23.352  43.320   7.677
 1042POPC   C1B16231  24.123  42.805   8.774
 1042POPC   C2B16232  24.137  43.082   8.408
 1042POPC   C3B16233  24.072  42.943   7.980
 1042POPC   C4B16234  23.812  42.981   7.615
 1043POPC   NC316235  21.734  12.687   9.483
 1043POPC   PO416236  21.483  13.317   9.632
 1043POPC   GL116237  21.508  13.080   9.233
 1043POPC   GL216238  21.292  12.764   9.159
 1043POPC   C1A16239  21.486  13.148   8.792
 1043POPC   D2A16240  21.278  13.165   8.360
 1043POPC   C3A16241  21.460  13.150   7.902
 1043POPC   C4A16242  21.573  13.168   7.404
 1043POPC   C1B16243  21.307  12.693   8.678
 1043POPC   C2B16244  21.532  12.719   8.275
 1043POPC   C3B16245  21.409  12.636   7.864
 1043POPC   C4B16246  21.044  12.427   7.709
 1044POPC   NC316247  43.728  13.253   9.616
 1044POPC   PO416248  43.919  13.827   9.677
 1044POPC   GL116249  43.777  13.702   9.274
 1044POPC   GL216250  43.677  14.022   9.171
 1044POPC   C1A16251  43.875  13.635   8.835
 1044POPC   D2A16252  44.174  13.689   8.477
 1044POPC   C3A16253  44.045  13.524   8.084
 1044POPC   C4A16254  43.693  13.598   7.820
 1044POPC   C1B16255  43.577  14.030   8.727
 1044POPC   C2B16256  43.629  13.764   8.374
 1044POPC   C3B16257  43.396  13.929   8.054
 1044POPC   C4B16258  43.323  13.896   7.642
 1045POPC   NC316259  25.616  23.298   9.393
 1045POPC   PO416260  25.217  22.887   9.804
 1045POPC   GL116261  25.211  22.880   9.323
 1045POPC   GL216262  25.158  23.200   9.157
 1045POPC   C1A16263  25.034  22.758   8.905
 1045POPC   D2A16264  24.915  22.984   8.524
 1045POPC   C3A16265  25.092  22.984   8.082
 1045POPC   C4A16266  25.241  22.750   7.703
 1045POPC   C1B16267  25.458  23.015   8.815
 1045POPC   C2B16268  25.538  22.986   8.392
 1045POPC   C3B16269  25.585  23.094   7.975
 1045POPC   C4B16270  25.338  23.335   7.747
 1046POPC   NC316271  43.620  21.895   9.758
 1046POPC   PO416272  43.683  22.300   9.279
 1046POPC   GL116273  44.067  22.402   9.080
 1046POPC   GL216274  44.162  22.126   9.279
 1046POPC   C1A16275  43.988  22.507   8.695
 1046POPC   D2A16276  43.627  22.281   8.583
 1046POPC   C3A16277  43.736  22.232   8.172
 1046POPC   C4A16278  43.717  22.245   7.755
 1046POPC   C1B16279  44.301  22.049   8.846
 1046POPC   C2B16280  44.108  22.060   8.481
 1046POPC   C3B16281  44.248  22.150   8.092
 1046POPC   C4B16282  44.091  21.905   7.790
 1047POPC   NC316283  16.420  17.096   9.463
 1047POPC   PO416284  16.676  17.755   9.468
 1047POPC   GL116285  16.626  17.627   9.048
 1047POPC   GL216286  16.493  17.295   8.999
 1047POPC   C1A16287  16.893  17.617   8.679
 1047POPC   D2A16288  17.005  17.235   8.454
 1047POPC   C3A16289  17.008  17.323   8.046
 1047POPC   C4A16290  16.952  17.680   7.823
 1047POPC   C1B16291  16.486  17.328   8.559
 1047POPC   C2B16292  16.573  17.560   8.188
 1047POPC   C3B16293  16.530  17.368   7.778
 1047POPC   C4B16294  16.413  17.260   7.324
 1048POPC   NC316295  35.433  38.317   9.467
 1048POPC   PO416296  35.018  38.925   9.389
 1048POPC   GL116297  35.293  38.684   9.119
 1048POPC   GL216298  35.128  38.374   9.064
 1048POPC   C1A16299  35.429  38.614   8.695
 1048POPC   D2A16300  35.172  38.753   8.364
 1048POPC   C3A16301  35.316  38.646   7.960
 1048POPC   C4A16302  35.490  38.787   7.546
 1048POPC   C1B16303  34.986  38.343   8.660
 1048POPC   C2B16304  35.263  38.253   8.347
 1048POPC   C3B16305  35.252  38.122   7.981
 1048POPC   C4B16306  35.569  38.149   7.730
 1049POPC   NC316307  34.586  38.768   9.352
 1049POPC   PO416308  34.270  38.261   9.381
 1049POPC   GL116309  34.308  38.485   9.034
 1049POPC   GL216310  34.152  38.787   9.062
 1049POPC   C1A16311  34.554  38.652   8.700
 1049POPC   D2A16312  34.663  38.736   8.290
 1049POPC   C3A16313  34.849  38.417   8.086
 1049POPC   C4A16314  34.755  38.134   7.762
 1049POPC   C1B16315  34.037  38.614   8.633
 1049POPC   C2B16316  34.167  38.708   8.202
 1049POPC   C3B16317  34.409  38.504   7.838
 1049POPC   C4B16318  34.222  38.391   7.415
 1050POPC   NC316319  26.488  41.099   9.453
 1050POPC   PO416320  26.560  40.340   9.493
 1050POPC   GL116321  26.804  40.657   9.205
 1050POPC   GL216322  26.853  41.026   9.111
 1050POPC   C1A16323  26.955  40.630   8.817
 1050POPC   D2A16324  26.973  40.610   8.409
 1050POPC   C3A16325  26.987  40.952   8.181
 1050POPC   C4A16326  26.867  40.992   7.766
 1050POPC   C1B16327  26.557  40.979   8.821
 1050POPC   C2B16328  26.489  40.841   8.432
 1050POPC   C3B16329  26.391  41.045   8.068
 1050POPC   C4B16330  26.378  40.950   7.664
 1051POPC   NC316331  18.215   4.662   9.664
 1051POPC   PO416332  17.916   4.122   9.811
 1051POPC   GL116333  17.960   4.320   9.325
 1051POPC   GL216334  18.169   4.577   9.180
 1051POPC   C1A16335  18.085   4.196   8.868
 1051POPC   D2A16336  18.334   4.084   8.476
 1051POPC   C3A16337  18.222   4.251   8.056
 1051POPC   C4A16338  17.859   4.142   7.828
 1051POPC   C1B16339  18.479   4.586   8.818
 1051POPC   C2B16340  18.587   4.500   8.356
 1051POPC   C3B16341  18.503   4.701   7.961
 1051POPC   C4B16342  18.447   4.690   7.520
 1052POPC   NC316343   7.025  36.225   9.407
 1052POPC   PO416344   6.417  35.932   9.491
 1052POPC   GL116345   6.553  36.250   9.199
 1052POPC   GL216346   6.737  35.957   9.058
 1052POPC   C1A16347   6.738  36.407   8.800
 1052POPC   D2A16348   6.757  36.177   8.418
 1052POPC   C3A16349   6.679  36.416   8.040
 1052POPC   C4A16350   6.407  36.381   7.660
 1052POPC   C1B16351   6.959  35.688   8.772
 1052POPC   C2B16352   7.063  35.752   8.365
 1052POPC   C3B16353   7.021  36.017   8.008
 1052POPC   C4B16354   6.903  36.225   7.613
 1053POPC   NC316355  29.894  39.568   9.512
 1053POPC   PO416356  29.766  40.147   9.660
 1053POPC   GL116357  29.791  40.012   9.245
 1053POPC   GL216358  29.927  40.329   9.160
 1053POPC   C1A16359  29.874  39.987   8.798
 1053POPC   D2A16360  29.692  40.150   8.443
 1053POPC   C3A16361  29.749  39.892   8.052
 1053POPC   C4A16362  29.911  39.978   7.661
 1053POPC   C1B16363  30.146  40.458   8.793
 1053POPC   C2B16364  30.029  40.554   8.399
 1053POPC   C3B16365  29.942  40.359   8.053
 1053POPC   C4B16366  30.123  40.429   7.724
 1054POPC   NC316367  22.520  12.776   9.413
 1054POPC   PO416368  22.016  13.087   9.426
 1054POPC   GL116369  22.034  12.788   9.086
 1054POPC   GL216370  22.319  12.608   8.969
 1054POPC   C1A16371  21.869  12.714   8.679
 1054POPC   D2A16372  22.080  12.712   8.266
 1054POPC   C3A16373  21.892  12.894   7.912
 1054POPC   C4A16374  21.756  12.700   7.513
 1054POPC   C1B16375  22.496  13.045   8.863
 1054POPC   C2B16376  22.489  13.330   8.559
 1054POPC   C3B16377  22.268  13.286   8.190
 1054POPC   C4B16378  22.373  13.171   7.790
 1055POPC   NC316379  29.965  29.448   9.275
 1055POPC   PO416380  29.865  30.103   9.506
 1055POPC   GL116381  29.782  29.962   9.123
 1055POPC   GL216382  29.531  29.752   9.219
 1055POPC   C1A16383  29.971  29.850   8.719
 1055POPC   D2A16384  30.021  29.605   8.345
 1055POPC   C3A16385  29.989  29.858   7.973
 1055POPC   C4A16386  29.979  29.737   7.544
 1055POPC   C1B16387  29.523  29.602   8.799
 1055POPC   C2B16388  29.546  29.805   8.405
 1055POPC   C3B16389  29.395  29.840   7.990
 1055POPC   C4B16390  29.593  30.083   7.663
 1056POPC   NC316391  28.507  17.011   9.441
 1056POPC   PO416392  28.099  16.590   9.587
 1056POPC   GL116393  28.134  16.759   9.178
 1056POPC   GL216394  28.014  17.116   9.177
 1056POPC   C1A16395  28.407  16.601   8.837
 1056POPC   D2A16396  28.614  16.767   8.481
 1056POPC   C3A16397  28.542  16.610   8.113
 1056POPC   C4A16398  28.569  16.832   7.776
 1056POPC   C1B16399  28.144  17.043   8.732
 1056POPC   C2B16400  28.080  16.725   8.403
 1056POPC   C3B16401  28.089  16.735   7.949
 1056POPC   C4B16402  28.044  17.093   7.746
 1057POPC   NC316403  42.301  39.989   9.474
 1057POPC   PO416404  42.878  39.529   9.553
 1057POPC   GL116405  42.707  39.750   9.197
 1057POPC   GL216406  42.666  40.114   9.149
 1057POPC   C1A16407  42.814  39.817   8.754
 1057POPC   D2A16408  42.630  40.002   8.374
 1057POPC   C3A16409  42.622  39.784   7.985
 1057POPC   C4A16410  42.452  39.941   7.612
 1057POPC   C1B16411  42.357  40.035   8.831
 1057POPC   C2B16412  42.103  40.064   8.476
 1057POPC   C3B16413  42.184  40.080   8.047
 1057POPC   C4B16414  41.883  40.071   7.717
 1058POPC   NC316415  15.807   4.782   9.573
 1058POPC   PO416416  16.187   5.347   9.490
 1058POPC   GL116417  16.123   5.099   9.095
 1058POPC   GL216418  15.784   4.965   9.108
 1058POPC   C1A16419  16.225   5.156   8.648
 1058POPC   D2A16420  15.992   5.340   8.279
 1058POPC   C3A16421  16.116   5.192   7.859
 1058POPC   C4A16422  16.195   4.783   7.820
 1058POPC   C1B16423  15.718   5.144   8.736
 1058POPC   C2B16424  15.599   4.879   8.418
 1058POPC   C3B16425  15.683   4.955   8.012
 1058POPC   C4B16426  15.400   5.248   7.876
 1059POPC   NC316427  31.657  27.496   9.561
 1059POPC   PO416428  31.051  27.732   9.596
 1059POPC   GL116429  31.379  27.778   9.232
 1059POPC   GL216430  31.531  27.424   9.092
 1059POPC   C1A16431  31.345  27.771   8.765
 1059POPC   D2A16432  31.190  27.650   8.338
 1059POPC   C3A16433  31.363  27.892   8.025
 1059POPC   C4A16434  31.587  27.906   7.673
 1059POPC   C1B16435  31.752  27.397   8.734
 1059POPC   C2B16436  31.590  27.318   8.334
 1059POPC   C3B16437  31.459  27.384   7.931
 1059POPC   C4B16438  31.177  27.135   7.692
 1060POPC   NC316439   7.699  39.428   9.213
 1060POPC   PO416440   7.261  39.097   9.538
 1060POPC   GL116441   7.232  39.244   9.115
 1060POPC   GL216442   7.151  39.562   9.076
 1060POPC   C1A16443   7.368  39.233   8.665
 1060POPC   D2A16444   7.524  39.148   8.251
 1060POPC   C3A16445   7.478  39.353   7.870
 1060POPC   C4A16446   7.344  39.196   7.475
 1060POPC   C1B16447   7.113  39.682   8.629
 1060POPC   C2B16448   7.113  39.559   8.182
 1060POPC   C3B16449   7.056  39.591   7.701
 1060POPC   C4B16450   7.108  39.544   7.206
 1061POPC   NC316451  42.609  19.251   9.590
 1061POPC   PO416452  42.349  18.658   9.516
 1061POPC   GL116453  42.201  18.732   9.132
 1061POPC   GL216454  42.183  19.077   9.151
 1061POPC   C1A16455  42.315  18.783   8.709
 1061POPC   D2A16456  42.331  19.008   8.318
 1061POPC   C3A16457  42.396  18.810   8.017
 1061POPC   C4A16458  42.251  18.849   7.633
 1061POPC   C1B16459  42.346  19.272   8.726
 1061POPC   C2B16460  42.269  19.503   8.329
 1061POPC   C3B16461  42.341  19.324   7.902
 1061POPC   C4B16462  42.432  19.309   7.454
 1062POPC   NC316463  23.371  25.979   9.412
 1062POPC   PO416464  23.970  26.280   9.596
 1062POPC   GL116465  23.778  26.218   9.215
 1062POPC   GL216466  23.484  26.454   9.261
 1062POPC   C1A16467  23.741  25.995   8.801
 1062POPC   D2A16468  23.771  25.690   8.469
 1062POPC   C3A16469  23.657  25.876   8.071
 1062POPC   C4A16470  23.769  25.731   7.664
 1062POPC   C1B16471  23.621  26.489   8.821
 1062POPC   C2B16472  23.584  26.377   8.390
 1062POPC   C3B16473  23.758  26.492   8.006
 1062POPC   C4B16474  23.777  26.239   7.679
 1063POPC   NC316475  15.135  20.524   9.475
 1063POPC   PO416476  15.568  21.115   9.556
 1063POPC   GL116477  15.383  20.923   9.196
 1063POPC   GL216478  15.013  20.920   9.163
 1063POPC   C1A16479  15.370  20.639   8.849
 1063POPC   D2A16480  15.452  20.636   8.418
 1063POPC   C3A16481  15.275  20.551   8.054
 1063POPC   C4A16482  15.309  20.421   7.652
 1063POPC   C1B16483  14.873  20.658   8.805
 1063POPC   C2B16484  14.851  20.585   8.367
 1063POPC   C3B16485  14.797  20.467   7.928
 1063POPC   C4B16486  14.839  20.855   7.724
 1064POPC   NC316487  32.191   9.133   9.508
 1064POPC   PO416488  32.718   8.717   9.658
 1064POPC   GL116489  32.462   8.793   9.254
 1064POPC   GL216490  32.603   9.071   9.109
 1064POPC   C1A16491  32.306   8.813   8.799
 1064POPC   D2A16492  32.443   8.920   8.375
 1064POPC   C3A16493  32.158   8.886   8.044
 1064POPC   C4A16494  31.832   9.179   7.893
 1064POPC   C1B16495  32.599   9.275   8.727
 1064POPC   C2B16496  32.821   9.306   8.334
 1064POPC   C3B16497  32.784   9.030   7.993
 1064POPC   C4B16498  32.543   8.893   7.711
 1065POPC   NC316499  24.501  44.772   9.517
 1065POPC   PO416500  23.988  44.310   9.592
 1065POPC   GL116501  24.201  44.491   9.213
 1065POPC   GL216502  24.169  44.857   9.149
 1065POPC   C1A16503  24.374  44.506   8.783
 1065POPC   D2A16504  24.595  44.457   8.349
 1065POPC   C3A16505  24.647  44.687   7.931
 1065POPC   C4A16506  24.563  44.597   7.496
 1065POPC   C1B16507  24.346   0.027   8.758
 1065POPC   C2B16508  24.452  44.972   8.305
 1065POPC   C3B16509  24.296   0.068   7.889
 1065POPC   C4B16510  24.249   0.135   7.401
 1066POPC   NC316511  37.598  34.807   9.508
 1066POPC   PO416512  38.210  34.540   9.402
 1066POPC   GL116513  37.887  34.372   9.088
 1066POPC   GL216514  37.515  34.404   9.090
 1066POPC   C1A16515  37.737  34.428   8.628
 1066POPC   D2A16516  37.577  34.319   8.218
 1066POPC   C3A16517  37.903  34.424   7.935
 1066POPC   C4A16518  38.047  34.841   7.768
 1066POPC   C1B16519  37.479  34.818   8.850
 1066POPC   C2B16520  37.609  34.974   8.427
 1066POPC   C3B16521  37.552  34.806   8.015
 1066POPC   C4B16522  37.216  34.812   7.736
 1067POPC   NC316523   1.547  43.160   9.529
 1067POPC   PO416524   2.132  42.989   9.692
 1067POPC   GL116525   2.056  43.119   9.246
 1067POPC   GL216526   1.735  43.186   9.077
 1067POPC   C1A16527   2.114  43.048   8.787
 1067POPC   D2A16528   1.949  42.963   8.371
 1067POPC   C3A16529   2.225  43.141   8.061
 1067POPC   C4A16530   2.265  42.987   7.662
 1067POPC   C1B16531   1.611  43.190   8.698
 1067POPC   C2B16532   1.452  43.213   8.336
 1067POPC   C3B16533   1.554  43.064   7.995
 1067POPC   C4B16534   1.836  43.241   7.733
 1068POPC   NC316535  18.402  27.481   9.599
 1068POPC   PO416536  17.871  27.739   9.479
 1068POPC   GL116537  18.130  27.484   9.191
 1068POPC   GL216538  18.048  27.679   8.936
 1068POPC   C1A16539  18.462  27.420   8.877
 1068POPC   D2A16540  18.502  27.526   8.427
 1068POPC   C3A16541  18.512  27.189   8.097
 1068POPC   C4A16542  18.510  27.315   7.668
 1068POPC   C1B16543  18.023  27.394   8.599
 1068POPC   C2B16544  18.062  27.390   8.182
 1068POPC   C3B16545  18.120  27.643   7.846
 1068POPC   C4B16546  17.865  27.650   7.476
 1069POPC   NC316547  11.671  24.810   9.777
 1069POPC   PO416548  12.115  24.362   9.468
 1069POPC   GL116549  12.281  24.396   9.089
 1069POPC   GL216550  12.275  24.741   9.091
 1069POPC   C1A16551  12.035  24.260   8.762
 1069POPC   D2A16552  11.843  24.234   8.358
 1069POPC   C3A16553  12.177  24.405   8.123
 1069POPC   C4A16554  12.048  24.652   7.785
 1069POPC   C1B16555  12.469  24.814   8.714
 1069POPC   C2B16556  12.589  24.748   8.297
 1069POPC   C3B16557  12.471  24.892   7.882
 1069POPC   C4B16558  12.423  24.814   7.457
 1070POPC   NC316559  40.853  40.611   9.986
 1070POPC   PO416560  40.330  40.794   9.532
 1070POPC   GL116561  40.598  40.679   9.206
 1070POPC   GL216562  40.514  40.984   9.042
 1070POPC   C1A16563  40.786  40.655   8.781
 1070POPC   D2A16564  40.557  40.754   8.404
 1070POPC   C3A16565  40.834  40.758   8.070
 1070POPC   C4A16566  41.132  40.750   7.737
 1070POPC   C1B16567  40.773  41.169   8.693
 1070POPC   C2B16568  40.911  41.227   8.263
 1070POPC   C3B16569  40.889  41.199   7.809
 1070POPC   C4B16570  40.538  40.977   7.657
 1071POPC   NC316571  44.472  41.020   9.563
 1071POPC   PO416572  44.928  40.555   9.596
 1071POPC   GL116573  44.759  40.661   9.200
 1071POPC   GL216574  44.422  40.759   9.105
 1071POPC   C1A16575  44.734  40.554   8.763
 1071POPC   D2A16576  44.782  40.733   8.369
 1071POPC   C3A16577  44.800  40.473   7.983
 1071POPC   C4A16578  44.781  40.611   7.579
 1071POPC   C1B16579  44.380  40.940   8.712
 1071POPC   C2B16580  44.277  40.928   8.297
 1071POPC   C3B16581  44.453  40.825   7.925
 1071POPC   C4B16582  44.281  40.595   7.557
 1072POPC   NC316583   0.753  25.376   9.464
 1072POPC   PO416584   1.376  25.147   9.490
 1072POPC   GL116585   1.148  25.262   9.156
 1072POPC   GL216586   1.238  25.599   9.228
 1072POPC   C1A16587   1.070  25.141   8.739
 1072POPC   D2A16588   1.260  25.008   8.398
 1072POPC   C3A16589   1.059  25.072   8.016
 1072POPC   C4A16590   1.359  25.160   7.696
 1072POPC   C1B16591   1.484  25.492   8.853
 1072POPC   C2B16592   1.375  25.613   8.463
 1072POPC   C3B16593   1.395  25.483   8.080
 1072POPC   C4B16594   1.370  25.797   7.799
 1073POPC   NC316595  34.037  23.815   9.417
 1073POPC   PO416596  33.463  23.422   9.210
 1073POPC   GL116597  33.821  23.619   8.993
 1073POPC   GL216598  33.775  23.958   8.999
 1073POPC   C1A16599  33.968  23.730   8.568
 1073POPC   D2A16600  33.791  23.630   8.179
 1073POPC   C3A16601  33.859  23.444   7.803
 1073POPC   C4A16602  33.612  23.368   7.413
 1073POPC   C1B16603  33.463  23.828   8.647
 1073POPC   C2B16604  33.316  23.790   8.218
 1073POPC   C3B16605  33.465  23.796   7.797
 1073POPC   C4B16606  33.781  23.831   7.482
 1074POPC   NC316607   0.828  21.196   9.473
 1074POPC   PO416608   0.280  21.601   9.402
 1074POPC   GL116609   0.506  21.401   9.115
 1074POPC   GL216610   0.819  21.575   9.114
 1074POPC   C1A16611   0.458  21.200   8.734
 1074POPC   D2A16612   0.224  21.142   8.364
 1074POPC   C3A16613   0.424  21.149   7.988
 1074POPC   C4A16614   0.225  21.283   7.603
 1074POPC   C1B16615   0.660  21.737   8.740
 1074POPC   C2B16616   0.480  21.589   8.360
 1074POPC   C3B16617   0.399  21.650   7.933
 1074POPC   C4B16618   0.576  21.620   7.509
 1075POPC   NC316619   5.872  30.405   9.560
 1075POPC   PO416620   5.576  30.969   9.581
 1075POPC   GL116621   5.792  30.764   9.213
 1075POPC   GL216622   5.666  30.438   9.096
 1075POPC   C1A16623   5.791  30.868   8.772
 1075POPC   D2A16624   5.952  30.969   8.368
 1075POPC   C3A16625   5.786  30.789   8.003
 1075POPC   C4A16626   5.542  30.594   7.669
 1075POPC   C1B16627   6.073  30.438   8.868
 1075POPC   C2B16628   6.113  30.479   8.425
 1075POPC   C3B16629   6.092  30.367   8.002
 1075POPC   C4B16630   6.184  30.321   7.581
 1076POPC   NC316631  32.071   5.949   9.570
 1076POPC   PO416632  32.632   6.383   9.508
 1076POPC   GL116633  32.303   6.193   9.159
 1076POPC   GL216634  32.320   5.827   9.128
 1076POPC   C1A16635  32.270   6.030   8.672
 1076POPC   D2A16636  32.350   6.178   8.232
 1076POPC   C3A16637  32.271   5.995   7.833
 1076POPC   C4A16638  32.317   6.149   7.412
 1076POPC   C1B16639  32.616   5.676   8.765
 1076POPC   C2B16640  32.552   5.681   8.302
 1076POPC   C3B16641  32.546   5.550   7.875
 1076POPC   C4B16642  32.280   5.623   7.463
 1077POPC   NC316643   0.607  24.606   9.475
 1077POPC   PO416644   0.167  24.086   9.504
 1077POPC   GL116645   0.227  24.390   9.189
 1077POPC   GL216646   0.095  24.719   9.239
 1077POPC   C1A16647   0.406  24.576   8.834
 1077POPC   D2A16648   0.419  24.427   8.429
 1077POPC   C3A16649   0.432  24.661   8.088
 1077POPC   C4A16650   0.262  24.498   7.700
 1077POPC   C1B16651  44.916  24.789   8.816
 1077POPC   C2B16652   0.031  24.838   8.370
 1077POPC   C3B16653   0.028  24.920   7.927
 1077POPC   C4B16654   0.073  24.945   7.466
 1078POPC   NC316655  20.300  42.732   9.346
 1078POPC   PO416656  20.770  43.398   9.329
 1078POPC   GL116657  20.595  43.179   9.070
 1078POPC   GL216658  20.315  43.342   9.083
 1078POPC   C1A16659  20.648  43.348   8.650
 1078POPC   D2A16660  20.662  43.502   8.263
 1078POPC   C3A16661  20.664  43.247   7.936
 1078POPC   C4A16662  21.016  43.241   7.664
 1078POPC   C1B16663  20.182  43.203   8.734
 1078POPC   C2B16664  20.271  43.180   8.337
 1078POPC   C3B16665  20.078  43.088   7.987
 1078POPC   C4B16666  20.255  42.835   7.692
 1079POPC   NC316667   8.550  12.288   9.408
 1079POPC   PO416668   8.005  11.805   9.436
 1079POPC   GL116669   8.184  12.051   9.151
 1079POPC   GL216670   8.458  11.928   9.059
 1079POPC   C1A16671   8.143  12.147   8.733
 1079POPC   D2A16672   7.992  12.312   8.397
 1079POPC   C3A16673   8.182  12.296   8.050
 1079POPC   C4A16674   8.079  12.445   7.678
 1079POPC   C1B16675   8.443  11.743   8.678
 1079POPC   C2B16676   8.203  11.838   8.292
 1079POPC   C3B16677   8.487  11.802   7.951
 1079POPC   C4B16678   8.462  11.682   7.549
 1080POPC   NC316679   9.856  30.013   9.631
 1080POPC   PO416680   9.441  29.517   9.714
 1080POPC   GL116681   9.590  29.711   9.292
 1080POPC   GL216682   9.527  30.065   9.170
 1080POPC   C1A16683   9.890  29.734   8.933
 1080POPC   D2A16684   9.833  29.761   8.481
 1080POPC   C3A16685  10.081  29.818   8.093
 1080POPC   C4A16686  10.062  29.793   7.641
 1080POPC   C1B16687   9.817  30.242   8.823
 1080POPC   C2B16688  10.100  30.215   8.440
 1080POPC   C3B16689  10.049  30.340   7.994
 1080POPC   C4B16690   9.742  30.150   7.713
 1081POPC   NC316691  11.458   2.815   9.564
 1081POPC   PO416692  10.866   2.841   9.197
 1081POPC   GL116693  11.239   3.059   9.065
 1081POPC   GL216694  11.473   2.794   9.056
 1081POPC   C1A16695  11.341   3.015   8.623
 1081POPC   D2A16696  11.136   2.697   8.382
 1081POPC   C3A16697  11.309   2.788   8.021
 1081POPC   C4A16698  11.263   2.942   7.645
 1081POPC   C1B16699  11.398   2.490   8.794
 1081POPC   C2B16700  11.439   2.239   8.464
 1081POPC   C3B16701  11.232   2.269   8.088
 1081POPC   C4B16702  11.367   2.412   7.701
 1082POPC   NC316703  15.486  42.993   9.513
 1082POPC   PO416704  14.808  42.901   9.743
 1082POPC   GL116705  14.959  42.986   9.281
 1082POPC   GL216706  14.931  42.683   9.096
 1082POPC   C1A16707  15.022  43.128   8.808
 1082POPC   D2A16708  15.088  42.971   8.355
 1082POPC   C3A16709  15.349  43.175   8.032
 1082POPC   C4A16710  15.301  43.400   7.675
 1082POPC   C1B16711  15.211  42.637   8.742
 1082POPC   C2B16712  15.462  42.578   8.364
 1082POPC   C3B16713  15.436  42.689   7.920
 1082POPC   C4B16714  15.069  42.883   7.696
 1083POPC   NC316715  11.175  27.998   9.658
 1083POPC   PO416716  11.616  28.469   9.418
 1083POPC   GL116717  11.228  28.522   9.185
 1083POPC   GL216718  11.058  28.209   9.200
 1083POPC   C1A16719  11.125  28.742   8.805
 1083POPC   D2A16720  11.307  28.604   8.414
 1083POPC   C3A16721  11.021  28.674   8.052
 1083POPC   C4A16722  11.192  28.613   7.646
 1083POPC   C1B16723  11.165  28.232   8.746
 1083POPC   C2B16724  10.992  28.226   8.317
 1083POPC   C3B16725  11.241  28.188   7.920
 1083POPC   C4B16726  11.506  28.043   7.539
 1084POPC   NC316727  30.892  14.468   9.432
 1084POPC   PO416728  30.274  14.680   9.543
 1084POPC   GL116729  30.491  14.587   9.146
 1084POPC   GL216730  30.640  14.236   9.038
 1084POPC   C1A16731  30.484  14.616   8.709
 1084POPC   D2A16732  30.566  14.225   8.483
 1084POPC   C3A16733  30.749  14.359   8.123
 1084POPC   C4A16734  30.655  14.443   7.698
 1084POPC   C1B16735  30.950  14.401   8.752
 1084POPC   C2B16736  31.117  14.629   8.366
 1084POPC   C3B16737  31.128  14.617   7.895
 1084POPC   C4B16738  31.068  14.540   7.409
 1085POPC   NC316739   3.688  24.031   9.805
 1085POPC   PO416740   3.694  24.705   9.528
 1085POPC   GL116741   3.565  24.646   9.115
 1085POPC   GL216742   3.224  24.536   9.111
 1085POPC   C1A16743   3.576  24.390   8.742
 1085POPC   D2A16744   3.633  24.118   8.401
 1085POPC   C3A16745   3.517  24.322   8.010
 1085POPC   C4A16746   3.718  24.343   7.590
 1085POPC   C1B16747   3.303  24.816   8.736
 1085POPC   C2B16748   3.548  24.771   8.388
 1085POPC   C3B16749   3.331  24.854   8.052
 1085POPC   C4B16750   3.328  24.671   7.692
 1086POPC   NC316751  35.569   0.691   9.522
 1086POPC   PO416752  35.051   0.160   9.437
 1086POPC   GL116753  35.285   0.333   9.118
 1086POPC   GL216754  35.262   0.668   9.091
 1086POPC   C1A16755  35.536   0.351   8.718
 1086POPC   D2A16756  35.771   0.234   8.327
 1086POPC   C3A16757  35.540   0.385   7.944
 1086POPC   C4A16758  35.110   0.471   7.815
 1086POPC   C1B16759  34.974   0.561   8.735
 1086POPC   C2B16760  35.039   0.672   8.290
 1086POPC   C3B16761  35.417   0.884   8.085
 1086POPC   C4B16762  35.693   0.851   7.719
 1087POPC   NC316763  37.485  40.175   9.560
 1087POPC   PO416764  38.109  40.179   9.468
 1087POPC   GL116765  37.809  39.986   9.160
 1087POPC   GL216766  37.507  40.157   9.043
 1087POPC   C1A16767  37.835  39.867   8.712
 1087POPC   D2A16768  37.876  40.142   8.329
 1087POPC   C3A16769  37.639  40.010   7.970
 1087POPC   C4A16770  37.643  39.644   7.723
 1087POPC   C1B16771  37.296  39.854   8.781
 1087POPC   C2B16772  37.341  39.709   8.344
 1087POPC   C3B16773  37.167  39.794   7.924
 1087POPC   C4B16774  37.243  39.870   7.468
 1088POPC   NC316775  11.067  21.073   9.492
 1088POPC   PO416776  11.248  20.406   9.619
 1088POPC   GL116777  11.383  20.644   9.251
 1088POPC   GL216778  11.590  20.937   9.291
 1088POPC   C1A16779  11.290  20.606   8.810
 1088POPC   D2A16780  11.380  20.359   8.419
 1088POPC   C3A16781  11.427  20.537   8.016
 1088POPC   C4A16782  11.188  20.833   7.806
 1088POPC   C1B16783  11.666  20.956   8.842
 1088POPC   C2B16784  11.463  20.888   8.422
 1088POPC   C3B16785  11.663  20.990   8.033
 1088POPC   C4B16786  11.686  20.843   7.643
 1089POPC   NC316787   2.422  16.273   9.343
 1089POPC   PO416788   3.122  16.304   9.311
 1089POPC   GL116789   2.836  16.076   9.075
 1089POPC   GL216790   2.626  15.803   9.206
 1089POPC   C1A16791   2.731  16.170   8.668
 1089POPC   D2A16792   2.435  16.245   8.355
 1089POPC   C3A16793   2.624  16.209   7.979
 1089POPC   C4A16794   3.039  16.097   7.906
 1089POPC   C1B16795   2.792  15.657   8.788
 1089POPC   C2B16796   2.881  15.803   8.333
 1089POPC   C3B16797   2.959  15.594   7.924
 1089POPC   C4B16798   2.731  15.596   7.543
 1090POPC   NC316799  36.662  35.599   9.499
 1090POPC   PO416800  37.259  35.388   9.222
 1090POPC   GL116801  36.914  35.416   9.053
 1090POPC   GL216802  36.891  35.095   8.975
 1090POPC   C1A16803  36.818  35.566   8.659
 1090POPC   D2A16804  36.734  35.375   8.301
 1090POPC   C3A16805  36.889  35.544   7.942
 1090POPC   C4A16806  36.760  35.441   7.510
 1090POPC   C1B16807  37.127  35.131   8.593
 1090POPC   C2B16808  37.117  35.098   8.146
 1090POPC   C3B16809  36.784  35.042   7.843
 1090POPC   C4B16810  36.847  34.938   7.379
 1091POPC   NC316811  38.741   1.009   9.489
 1091POPC   PO416812  38.165   1.266   9.591
 1091POPC   GL116813  38.334   1.371   9.179
 1091POPC   GL216814  38.524   1.126   9.049
 1091POPC   C1A16815  38.251   1.420   8.726
 1091POPC   D2A16816  38.117   1.420   8.301
 1091POPC   C3A16817  38.369   1.469   7.912
 1091POPC   C4A16818  38.414   1.087   7.614
 1091POPC   C1B16819  38.793   0.881   8.796
 1091POPC   C2B16820  38.743   0.749   8.368
 1091POPC   C3B16821  38.677   1.058   8.052
 1091POPC   C4B16822  38.850   1.365   7.760
 1092POPC   NC316823   6.972  25.046   9.514
 1092POPC   PO416824   6.284  25.247   9.609
 1092POPC   GL116825   6.421  25.326   9.215
 1092POPC   GL216826   6.639  25.060   9.114
 1092POPC   C1A16827   6.404  25.359   8.783
 1092POPC   D2A16828   6.524  25.545   8.411
 1092POPC   C3A16829   6.424  25.412   7.997
 1092POPC   C4A16830   6.680  25.505   7.643
 1092POPC   C1B16831   6.708  24.959   8.676
 1092POPC   C2B16832   6.712  25.004   8.210
 1092POPC   C3B16833   6.716  25.020   7.771
 1092POPC   C4B16834   7.018  24.913   7.460
 1093POPC   NC316835  18.621  17.393   9.364
 1093POPC   PO416836  19.258  17.170   9.488
 1093POPC   GL116837  19.315  17.324   9.073
 1093POPC   GL216838  18.988  17.291   9.013
 1093POPC   C1A16839  19.294  17.228   8.631
 1093POPC   D2A16840  19.215  17.442   8.232
 1093POPC   C3A16841  19.340  17.328   7.812
 1093POPC   C4A16842  19.020  17.381   7.481
 1093POPC   C1B16843  19.010  17.632   8.679
 1093POPC   C2B16844  18.753  17.661   8.327
 1093POPC   C3B16845  18.858  17.628   7.906
 1093POPC   C4B16846  18.953  17.951   7.643
 1094POPC   NC316847   6.905   9.397   9.540
 1094POPC   PO416848   6.659   8.741   9.637
 1094POPC   GL116849   6.689   8.776   9.159
 1094POPC   GL216850   6.700   9.128   9.134
 1094POPC   C1A16851   6.614   8.809   8.675
 1094POPC   D2A16852   6.464   9.147   8.339
 1094POPC   C3A16853   6.432   9.054   7.877
 1094POPC   C4A16854   6.678   8.705   7.691
 1094POPC   C1B16855   6.810   9.289   8.726
 1094POPC   C2B16856   7.020   9.161   8.391
 1094POPC   C3B16857   6.911   8.924   8.087
 1094POPC   C4B16858   6.899   9.165   7.698
 1095POPC   NC316859  25.890  41.802   9.585
 1095POPC   PO416860  25.287  41.360   9.530
 1095POPC   GL116861  25.417  41.638   9.233
 1095POPC   GL216862  25.729  41.530   9.206
 1095POPC   C1A16863  25.304  41.599   8.802
 1095POPC   D2A16864  25.055  41.433   8.456
 1095POPC   C3A16865  25.233  41.510   8.066
 1095POPC   C4A16866  25.034  41.702   7.721
 1095POPC   C1B16867  25.716  41.894   8.914
 1095POPC   C2B16868  25.722  41.939   8.464
 1095POPC   C3B16869  25.712  41.957   8.019
 1095POPC   C4B16870  25.543  41.689   7.679
 1096POPC   NC316871  25.401   2.896   9.554
 1096POPC   PO416872  25.956   2.672   9.540
 1096POPC   GL116873  25.612   2.575   9.189
 1096POPC   GL216874  25.251   2.733   9.114
 1096POPC   C1A16875  25.441   2.443   8.762
 1096POPC   D2A16876  25.288   2.570   8.366
 1096POPC   C3A16877  25.535   2.749   8.080
 1096POPC   C4A16878  25.368   3.001   7.786
 1096POPC   C1B16879  25.267   2.932   8.745
 1096POPC   C2B16880  24.958   2.994   8.469
 1096POPC   C3B16881  24.916   2.871   8.062
 1096POPC   C4B16882  24.867   3.038   7.657
 1097POPC   NC316883  15.574   0.811   9.456
 1097POPC   PO416884  14.946   0.561   9.380
 1097POPC   GL116885  15.284   0.463   9.131
 1097POPC   GL216886  15.547   0.297   9.306
 1097POPC   C1A16887  15.325   0.494   8.701
 1097POPC   D2A16888  15.099   0.474   8.335
 1097POPC   C3A16889  15.224   0.536   7.947
 1097POPC   C4A16890  14.878   0.793   7.750
 1097POPC   C1B16891  15.522   0.048   8.919
 1097POPC   C2B16892  15.267   0.008   8.538
 1097POPC   C3B16893  15.250   0.034   8.086
 1097POPC   C4B16894  15.135   0.044   7.641
 1098POPC   NC316895  13.065  42.637   9.274
 1098POPC   PO416896  12.605  43.075   9.400
 1098POPC   GL116897  12.922  43.104   9.086
 1098POPC   GL216898  13.222  43.345   9.109
 1098POPC   C1A16899  12.912  43.097   8.667
 1098POPC   D2A16900  12.586  43.032   8.366
 1098POPC   C3A16901  12.671  42.788   8.014
 1098POPC   C4A16902  12.781  42.907   7.594
 1098POPC   C1B16903  13.375  43.536   8.750
 1098POPC   C2B16904  13.262  43.333   8.368
 1098POPC   C3B16905  13.029  43.185   7.999
 1098POPC   C4B16906  12.974  43.367   7.576
 1099POPC   NC316907  24.217   9.946   9.484
 1099POPC   PO416908  24.727   9.530   9.540
 1099POPC   GL116909  24.576   9.448   9.176
 1099POPC   GL216910  24.287   9.634   9.069
 1099POPC   C1A16911  24.564   9.261   8.809
 1099POPC   D2A16912  24.402   9.374   8.449
 1099POPC   C3A16913  24.733   9.401   8.165
 1099POPC   C4A16914  24.554   9.300   7.800
 1099POPC   C1B16915  24.647   9.763   8.774
 1099POPC   C2B16916  24.512   9.889   8.396
 1099POPC   C3B16917  24.340   9.718   8.065
 1099POPC   C4B16918  24.594   9.808   7.760
 1100POPC   NC316919   2.122  40.395   9.442
 1100POPC   PO416920   1.997  39.754   9.423
 1100POPC   GL116921   1.729  40.012   9.156
 1100POPC   GL216922   1.748  40.365   9.099
 1100POPC   C1A16923   1.583  39.985   8.745
 1100POPC   D2A16924   1.926  39.838   8.478
 1100POPC   C3A16925   1.915  40.066   8.102
 1100POPC   C4A16926   2.157  39.925   7.762
 1100POPC   C1B16927   2.050  40.230   8.778
 1100POPC   C2B16928   2.174  40.447   8.396
 1100POPC   C3B16929   2.315  40.436   7.991
 1100POPC   C4B16930   2.204  40.402   7.585
 1101POPC   NC316931  30.627  43.620   9.774
 1101POPC   PO416932  30.318  44.003   9.283
 1101POPC   GL116933  30.503  43.918   8.961
 1101POPC   GL216934  30.809  43.785   9.097
 1101POPC   C1A16935  30.481  44.178   8.615
 1101POPC   D2A16936  30.493  44.160   8.209
 1101POPC   C3A16937  30.541  43.770   8.087
 1101POPC   C4A16938  30.702  43.682   7.723
 1101POPC   C1B16939  30.976  44.039   8.800
 1101POPC   C2B16940  30.921  43.895   8.402
 1101POPC   C3B16941  31.110  43.917   8.019
 1101POPC   C4B16942  31.219  44.285   7.826
 1102POPC   NC316943  41.958   1.799   9.379
 1102POPC   PO416944  41.290   1.704   9.475
 1102POPC   GL116945  41.492   1.909   9.152
 1102POPC   GL216946  41.738   1.709   8.926
 1102POPC   C1A16947  41.481   2.149   8.781
 1102POPC   D2A16948  41.600   1.924   8.422
 1102POPC   C3A16949  41.430   2.132   8.105
 1102POPC   C4A16950  41.463   2.142   7.673
 1102POPC   C1B16951  41.989   2.041   8.750
 1102POPC   C2B16952  42.115   2.030   8.341
 1102POPC   C3B16953  41.908   2.000   7.968
 1102POPC   C4B16954  41.826   1.581   7.800
 1103POPC   NC316955  30.885  27.264   9.697
 1103POPC   PO416956  30.583  27.771   9.301
 1103POPC   GL116957  30.897  27.660   9.067
 1103POPC   GL216958  31.051  27.392   9.199
 1103POPC   C1A16959  30.846  27.820   8.677
 1103POPC   D2A16960  30.644  27.737   8.327
 1103POPC   C3A16961  30.829  27.929   7.987
 1103POPC   C4A16962  30.615  27.758   7.665
 1103POPC   C1B16963  31.110  27.309   8.748
 1103POPC   C2B16964  31.074  27.150   8.303
 1103POPC   C3B16965  30.878  27.414   7.972
 1103POPC   C4B16966  31.110  27.658   7.642
 1104POPC   NC316967   1.800  30.425   9.581
 1104POPC   PO416968   2.295  30.871   9.426
 1104POPC   GL116969   1.911  30.720   9.154
 1104POPC   GL216970   1.685  30.370   9.106
 1104POPC   C1A16971   1.885  30.907   8.735
 1104POPC   D2A16972   2.076  30.976   8.332
 1104POPC   C3A16973   1.858  30.916   7.950
 1104POPC   C4A16974   1.998  30.863   7.523
 1104POPC   C1B16975   1.903  30.388   8.766
 1104POPC   C2B16976   1.845  30.511   8.384
 1104POPC   C3B16977   1.894  30.332   8.017
 1104POPC   C4B16978   1.829  30.413   7.616
 1105POPC   NC316979  39.607  15.845   9.518
 1105POPC   PO416980  40.193  16.224   9.514
 1105POPC   GL116981  39.944  16.075   9.170
 1105POPC   GL216982  39.616  16.256   9.214
 1105POPC   C1A16983  40.002  16.085   8.722
 1105POPC   D2A16984  40.201  15.954   8.345
 1105POPC   C3A16985  39.993  15.783   8.003
 1105POPC   C4A16986  40.086  16.082   7.695
 1105POPC   C1B16987  39.521  16.242   8.793
 1105POPC   C2B16988  39.635  16.081   8.352
 1105POPC   C3B16989  39.637  16.196   7.913
 1105POPC   C4B16990  39.594  15.941   7.538
 1106POPC   NC316991  43.263   8.774   9.556
 1106POPC   PO416992  42.882   9.220   9.410
 1106POPC   GL116993  43.041   8.840   9.109
 1106POPC   GL216994  43.401   8.861   9.061
 1106POPC   C1A16995  43.118   8.696   8.692
 1106POPC   D2A16996  43.167   8.941   8.370
 1106POPC   C3A16997  42.975   8.835   8.037
 1106POPC   C4A16998  43.288   8.824   7.747
 1106POPC   C1B16999  43.147   9.208   8.803
 1106POPC   C2B17000  42.941   9.401   8.417
 1106POPC   C3B17001  43.058   9.329   7.965
 1106POPC   C4B17002  42.836   9.081   7.623
 1107POPC   NC317003  41.408  13.769   9.657
 1107POPC   PO417004  41.993  13.844   9.507
 1107POPC   GL117005  41.700  13.716   9.208
 1107POPC   GL217006  41.485  14.008   9.183
 1107POPC   C1A17007  41.633  13.450   8.842
 1107POPC   D2A17008  41.469  13.527   8.427
 1107POPC   C3A17009  41.717  13.602   8.073
 1107POPC   C4A17010  41.852  13.306   7.769
 1107POPC   C1B17011  41.322  13.874   8.804
 1107POPC   C2B17012  41.179  13.932   8.394
 1107POPC   C3B17013  41.196  13.773   8.020
 1107POPC   C4B17014  41.475  13.834   7.694
 1108POPC   NC317015   6.141  33.449   9.549
 1108POPC   PO417016   5.588  33.704   9.445
 1108POPC   GL117017   5.923  33.851   9.168
 1108POPC   GL217018   6.070  33.553   9.049
 1108POPC   C1A17019   6.009  33.921   8.712
 1108POPC   D2A17020   6.272  33.857   8.354
 1108POPC   C3A17021   6.061  33.903   7.977
 1108POPC   C4A17022   5.628  34.066   8.026
 1108POPC   C1B17023   5.618  33.560   8.831
 1108POPC   C2B17024   5.375  33.502   8.453
 1108POPC   C3B17025   5.466  33.426   8.027
 1108POPC   C4B17026   5.700  33.648   7.686
 1109POPC   NC317027  21.198   6.591   9.761
 1109POPC   PO417028  21.651   6.948   9.494
 1109POPC   GL117029  21.317   6.698   9.221
 1109POPC   GL217030  21.576   6.729   8.999
 1109POPC   C1A17031  21.197   6.445   8.786
 1109POPC   D2A17032  21.221   6.439   8.276
 1109POPC   C3A17033  20.946   6.313   7.877
 1109POPC   C4A17034  21.027   6.432   7.400
 1109POPC   C1B17035  21.507   6.811   8.580
 1109POPC   C2B17036  21.775   6.731   8.264
 1109POPC   C3B17037  21.609   6.604   7.914
 1109POPC   C4B17038  21.203   6.735   7.804
 1110POPC   NC317039  16.710  19.711   9.507
 1110POPC   PO417040  17.096  20.310   9.420
 1110POPC   GL117041  16.791  20.079   9.154
 1110POPC   GL217042  16.439  19.914   9.130
 1110POPC   C1A17043  16.739  20.071   8.732
 1110POPC   D2A17044  16.989  19.970   8.356
 1110POPC   C3A17045  16.959  20.126   7.903
 1110POPC   C4A17046  16.891  19.818   7.536
 1110POPC   C1B17047  16.305  19.765   8.757
 1110POPC   C2B17048  16.497  19.795   8.382
 1110POPC   C3B17049  16.686  19.719   8.029
 1110POPC   C4B17050  16.406  19.773   7.696
 1111POPC   NC317051   4.465  13.457   9.612
 1111POPC   PO417052   3.822  13.501   9.719
 1111POPC   GL117053   4.069  13.396   9.255
 1111POPC   GL217054   4.464  13.365   9.127
 1111POPC   C1A17055   4.152  13.424   8.749
 1111POPC   D2A17056   4.351  13.764   8.455
 1111POPC   C3A17057   4.148  13.843   8.038
 1111POPC   C4A17058   4.087  13.463   7.794
 1111POPC   C1B17059   4.769  13.479   8.775
 1111POPC   C2B17060   4.821  13.577   8.314
 1111POPC   C3B17061   4.570  13.566   7.955
 1111POPC   C4B17062   4.565  13.562   7.494
 1112POPC   NC317063  39.241  36.311   9.536
 1112POPC   PO417064  39.354  36.994   9.562
 1112POPC   GL117065  39.309  36.858   9.165
 1112POPC   GL217066  39.101  37.116   8.999
 1112POPC   C1A17067  39.520  36.916   8.775
 1112POPC   D2A17068  39.284  37.006   8.415
 1112POPC   C3A17069  39.420  36.995   7.987
 1112POPC   C4A17070  39.088  37.239   7.795
 1112POPC   C1B17071  39.004  36.738   8.772
 1112POPC   C2B17072  39.135  36.510   8.439
 1112POPC   C3B17073  38.980  36.739   8.099
 1112POPC   C4B17074  38.957  36.735   7.683
 1113POPC   NC317075  22.835   6.825   9.435
 1113POPC   PO417076  23.250   6.418   9.165
 1113POPC   GL117077  22.823   6.557   9.020
 1113POPC   GL217078  22.542   6.371   9.164
 1113POPC   C1A17079  22.561   6.768   8.727
 1113POPC   D2A17080  22.791   7.029   8.428
 1113POPC   C3A17081  22.825   6.824   8.040
 1113POPC   C4A17082  23.137   6.479   7.887
 1113POPC   C1B17083  22.701   6.164   8.762
 1113POPC   C2B17084  22.837   6.403   8.370
 1113POPC   C3B17085  22.649   6.351   7.945
 1113POPC   C4B17086  22.594   6.362   7.438
 1114POPC   NC317087  36.481   6.474   9.648
 1114POPC   PO417088  37.115   6.634   9.761
 1114POPC   GL117089  37.026   6.624   9.263
 1114POPC   GL217090  36.742   6.420   9.124
 1114POPC   C1A17091  37.169   6.426   8.840
 1114POPC   D2A17092  36.950   6.415   8.398
 1114POPC   C3A17093  37.173   6.519   7.980
 1114POPC   C4A17094  37.291   6.837   7.650
 1114POPC   C1B17095  36.801   6.773   8.776
 1114POPC   C2B17096  36.908   6.925   8.321
 1114POPC   C3B17097  36.688   6.716   8.002
 1114POPC   C4B17098  36.504   6.319   7.943
 1115POPC   NC317099  13.143  34.469  10.035
 1115POPC   PO417100  12.832  34.359   9.416
 1115POPC   GL117101  12.655  34.374   9.022
 1115POPC   GL217102  12.546  34.702   9.102
 1115POPC   C1A17103  12.860  34.436   8.634
 1115POPC   D2A17104  12.889  34.776   8.340
 1115POPC   C3A17105  12.922  34.713   7.923
 1115POPC   C4A17106  12.766  34.395   7.725
 1115POPC   C1B17107  12.573  34.939   8.734
 1115POPC   C2B17108  12.398  34.892   8.316
 1115POPC   C3B17109  12.531  35.033   7.950
 1115POPC   C4B17110  12.611  34.879   7.540
 1116POPC   NC317111  31.678  44.007   9.623
 1116POPC   PO417112  31.019  43.747   9.555
 1116POPC   GL117113  31.359  43.854   9.242
 1116POPC   GL217114  31.694  43.623   9.260
 1116POPC   C1A17115  31.458  44.205   8.926
 1116POPC   D2A17116  31.370  44.140   8.478
 1116POPC   C3A17117  31.687  44.075   8.178
 1116POPC   C4A17118  31.756  43.991   7.739
 1116POPC   C1B17119  31.623  43.729   8.813
 1116POPC   C2B17120  31.534  43.626   8.397
 1116POPC   C3B17121  31.530  43.610   7.972
 1116POPC   C4B17122  31.177  43.462   7.723
 1117POPC   NC317123  22.397   7.208   9.650
 1117POPC   PO417124  22.003   7.723   9.580
 1117POPC   GL117125  22.189   7.496   9.210
 1117POPC   GL217126  21.896   7.612   9.053
 1117POPC   C1A17127  22.207   7.355   8.733
 1117POPC   D2A17128  22.184   7.541   8.289
 1117POPC   C3A17129  22.232   7.519   7.827
 1117POPC   C4A17130  22.296   7.207   7.488
 1117POPC   C1B17131  21.983   7.806   8.710
 1117POPC   C2B17132  21.770   7.810   8.392
 1117POPC   C3B17133  21.766   7.653   8.014
 1117POPC   C4B17134  21.653   7.825   7.626
 1118POPC   NC317135  19.167  19.251   9.509
 1118POPC   PO417136  18.741  18.661   9.367
 1118POPC   GL117137  18.870  18.999   9.167
 1118POPC   GL217138  19.221  18.899   9.127
 1118POPC   C1A17139  18.873  19.107   8.768
 1118POPC   D2A17140  19.105  19.025   8.398
 1118POPC   C3A17141  18.856  19.003   8.012
 1118POPC   C4A17142  18.922  18.780   7.623
 1118POPC   C1B17143  19.339  19.270   8.866
 1118POPC   C2B17144  19.195  19.507   8.511
 1118POPC   C3B17145  19.188  19.430   8.081
 1118POPC   C4B17146  19.143  19.246   7.677
 1119POPC   NC317147   0.085  26.118   9.507
 1119POPC   PO417148   0.601  25.746   9.692
 1119POPC   GL117149   0.448  25.783   9.238
 1119POPC   GL217150   0.459  26.144   9.160
 1119POPC   C1A17151   0.488  25.821   8.762
 1119POPC   D2A17152   0.421  25.963   8.330
 1119POPC   C3A17153   0.432  25.730   7.921
 1119POPC   C4A17154   0.536  25.894   7.475
 1119POPC   C1B17155   0.367  26.313   8.748
 1119POPC   C2B17156   0.229  26.436   8.336
 1119POPC   C3B17157   0.318  26.248   7.911
 1119POPC   C4B17158   0.200  26.276   7.462
 1120POPC   NC317159   8.172   2.264  10.042
 1120POPC   PO417160   8.081   1.868   9.463
 1120POPC   GL117161   8.358   1.995   9.147
 1120POPC   GL217162   8.078   1.987   8.962
 1120POPC   C1A17163   8.523   1.893   8.745
 1120POPC   D2A17164   8.442   1.667   8.376
 1120POPC   C3A17165   8.467   1.867   8.008
 1120POPC   C4A17166   8.223   1.828   7.656
 1120POPC   C1B17167   8.022   1.712   8.657
 1120POPC   C2B17168   8.038   1.960   8.337
 1120POPC   C3B17169   8.077   2.197   8.018
 1120POPC   C4B17170   7.887   2.220   7.672
 1121POPC   NC317171  43.455  23.689   9.448
 1121POPC   PO417172  44.015  24.024   9.547
 1121POPC   GL117173  43.887  23.800   9.164
 1121POPC   GL217174  44.058  23.522   9.057
 1121POPC   C1A17175  43.712  23.757   8.740
 1121POPC   D2A17176  43.865  23.613   8.286
 1121POPC   C3A17177  43.673  23.871   7.923
 1121POPC   C4A17178  43.520  23.941   7.456
 1121POPC   C1B17179  44.208  23.703   8.695
 1121POPC   C2B17180  44.337  23.799   8.267
 1121POPC   C3B17181  44.210  23.629   7.821
 1121POPC   C4B17182  44.179  23.522   7.342
 1122POPC   NC317183  33.297  19.933   9.582
 1122POPC   PO417184  33.865  19.578   9.469
 1122POPC   GL117185  33.664  19.875   9.222
 1122POPC   GL217186  33.407  19.585   9.208
 1122POPC   C1A17187  33.848  20.075   8.830
 1122POPC   D2A17188  34.029  19.987   8.422
 1122POPC   C3A17189  33.824  20.017   8.010
 1122POPC   C4A17190  34.012  19.934   7.569
 1122POPC   C1B17191  33.525  19.679   8.781
 1122POPC   C2B17192  33.410  19.902   8.402
 1122POPC   C3B17193  33.387  19.657   8.039
 1122POPC   C4B17194  33.714  19.581   7.766
 1123POPC   NC317195  12.405  11.119   9.485
 1123POPC   PO417196  13.046  11.326   9.503
 1123POPC   GL117197  13.035  11.284   9.080
 1123POPC   GL217198  12.732  11.134   9.068
 1123POPC   C1A17199  13.082  11.275   8.633
 1123POPC   D2A17200  12.845  11.191   8.303
 1123POPC   C3A17201  12.677  11.555   8.159
 1123POPC   C4A17202  12.717  11.664   7.731
 1123POPC   C1B17203  12.772  10.851   8.698
 1123POPC   C2B17204  13.029  10.711   8.353
 1123POPC   C3B17205  12.905  10.819   7.947
 1123POPC   C4B17206  12.604  11.156   7.836
 1124POPC   NC317207  23.328   1.746   9.577
 1124POPC   PO417208  23.861   2.090   9.597
 1124POPC   GL117209  23.634   1.994   9.242
 1124POPC   GL217210  23.861   1.733   9.194
 1124POPC   C1A17211  23.523   2.084   8.812
 1124POPC   D2A17212  23.582   2.343   8.425
 1124POPC   C3A17213  23.653   2.112   8.020
 1124POPC   C4A17214  23.856   2.160   7.621
 1124POPC   C1B17215  24.052   1.842   8.808
 1124POPC   C2B17216  23.914   1.716   8.400
 1124POPC   C3B17217  24.080   1.622   8.003
 1124POPC   C4B17218  23.758   1.674   7.706
 1125POPC   NC317219  19.794   6.083   9.464
 1125POPC   PO417220  19.336   5.475   9.571
 1125POPC   GL117221  19.523   5.714   9.191
 1125POPC   GL217222  19.875   5.737   9.116
 1125POPC   C1A17223  19.526   5.890   8.751
 1125POPC   D2A17224  19.691   6.033   8.340
 1125POPC   C3A17225  19.781   5.760   7.957
 1125POPC   C4A17226  19.783   5.770   7.485
 1125POPC   C1B17227  20.035   6.060   8.809
 1125POPC   C2B17228  20.212   6.255   8.413
 1125POPC   C3B17229  20.338   6.332   7.995
 1125POPC   C4B17230  20.168   6.025   7.676
 1126POPC   NC317231  44.192  14.190   9.675
 1126POPC   PO417232  43.665  14.592   9.516
 1126POPC   GL117233  43.810  14.525   9.139
 1126POPC   GL217234  44.070  14.370   9.207
 1126POPC   C1A17235  43.782  14.515   8.721
 1126POPC   D2A17236  44.069  14.634   8.418
 1126POPC   C3A17237  43.860  14.597   8.083
 1126POPC   C4A17238  44.064  14.468   7.746
 1126POPC   C1B17239  44.078  14.119   8.832
 1126POPC   C2B17240  43.955  14.150   8.408
 1126POPC   C3B17241  43.878  14.070   8.023
 1126POPC   C4B17242  44.077  13.919   7.720
 1127POPC   NC317243  16.439  32.784   9.909
 1127POPC   PO417244  15.911  33.011   9.624
 1127POPC   GL117245  15.899  33.110   9.198
 1127POPC   GL217246  15.580  33.151   9.157
 1127POPC   C1A17247  16.192  33.137   8.865
 1127POPC   D2A17248  16.232  33.346   8.486
 1127POPC   C3A17249  16.014  33.142   8.184
 1127POPC   C4A17250  16.016  33.151   7.756
 1127POPC   C1B17251  15.674  33.112   8.710
 1127POPC   C2B17252  15.635  32.827   8.356
 1127POPC   C3B17253  15.563  33.005   7.963
 1127POPC   C4B17254  15.522  33.414   7.797
 1128POPC   NC317255   2.271  24.563   9.362
 1128POPC   PO417256   1.719  24.210   9.542
 1128POPC   GL117257   1.710  24.406   9.133
 1128POPC   GL217258   1.987  24.226   9.093
 1128POPC   C1A17259   1.854  24.505   8.706
 1128POPC   D2A17260   2.003  24.740   8.373
 1128POPC   C3A17261   1.921  24.524   8.001
 1128POPC   C4A17262   2.018  24.481   7.586
 1128POPC   C1B17263   2.158  24.079   8.699
 1128POPC   C2B17264   2.222  24.177   8.268
 1128POPC   C3B17265   2.092  24.057   7.863
 1128POPC   C4B17266   2.171  23.981   7.411
 1129POPC   NC317267  36.203  31.030   9.593
 1129POPC   PO417268  36.414  30.501   9.265
 1129POPC   GL117269  36.145  30.778   9.125
 1129POPC   GL217270  36.341  30.970   8.884
 1129POPC   C1A17271  35.883  30.769   8.773
 1129POPC   D2A17272  36.095  30.909   8.407
 1129POPC   C3A17273  35.931  30.755   8.047
 1129POPC   C4A17274  36.066  30.798   7.636
 1129POPC   C1B17275  36.297  30.513   8.644
 1129POPC   C2B17276  36.195  30.251   8.268
 1129POPC   C3B17277  36.121  30.311   7.820
 1129POPC   C4B17278  36.319  30.340   7.437
 1130POPC   NC317279   3.980  29.254   9.575
 1130POPC   PO417280   4.440  28.921   9.777
 1130POPC   GL117281   4.389  29.046   9.355
 1130POPC   GL217282   4.093  28.890   9.222
 1130POPC   C1A17283   4.440  29.069   8.906
 1130POPC   D2A17284   4.527  29.184   8.486
 1130POPC   C3A17285   4.336  28.947   8.171
 1130POPC   C4A17286   4.444  29.144   7.798
 1130POPC   C1B17287   3.965  28.967   8.768
 1130POPC   C2B17288   3.768  29.027   8.381
 1130POPC   C3B17289   3.853  28.976   7.981
 1130POPC   C4B17290   4.021  28.961   7.592
 1131POPC   NC317291  29.752   6.986   9.461
 1131POPC   PO417292  30.259   6.588   9.608
 1131POPC   GL117293  30.188   6.500   9.160
 1131POPC   GL217294  29.909   6.741   9.057
 1131POPC   C1A17295  30.008   6.391   8.731
 1131POPC   D2A17296  29.904   6.684   8.367
 1131POPC   C3A17297  30.083   6.589   7.939
 1131POPC   C4A17298  29.825   6.506   7.560
 1131POPC   C1B17299  30.248   6.856   8.747
 1131POPC   C2B17300  30.227   7.117   8.366
 1131POPC   C3B17301  29.993   7.101   7.976
 1131POPC   C4B17302  29.994   6.990   7.531
 1132POPC   NC317303  42.905   5.832   9.737
 1132POPC   PO417304  42.450   6.328   9.485
 1132POPC   GL117305  42.255   5.937   9.212
 1132POPC   GL217306  42.519   5.730   9.151
 1132POPC   C1A17307  42.188   5.647   8.805
 1132POPC   D2A17308  42.278   5.900   8.423
 1132POPC   C3A17309  42.092   5.905   8.012
 1132POPC   C4A17310  41.952   5.750   7.616
 1132POPC   C1B17311  42.678   5.883   8.741
 1132POPC   C2B17312  42.771   5.795   8.345
 1132POPC   C3B17313  42.483   5.576   8.080
 1132POPC   C4B17314  42.397   5.485   7.649
 1133POPC   NC317315  20.590   3.299   9.362
 1133POPC   PO417316  20.465   2.616   9.441
 1133POPC   GL117317  20.280   2.744   9.071
 1133POPC   GL217318  20.227   3.101   9.098
 1133POPC   C1A17319  20.416   2.634   8.661
 1133POPC   D2A17320  20.612   2.758   8.273
 1133POPC   C3A17321  20.570   2.440   7.950
 1133POPC   C4A17322  21.000   2.434   7.818
 1133POPC   C1B17323  20.503   3.130   8.744
 1133POPC   C2B17324  20.367   3.195   8.353
 1133POPC   C3B17325  20.608   3.227   8.000
 1133POPC   C4B17326  20.707   2.891   7.745
 1134POPC   NC317327  12.614  28.520   9.987
 1134POPC   PO417328  13.068  28.512   9.525
 1134POPC   GL117329  12.803  28.599   9.164
 1134POPC   GL217330  12.837  28.266   9.104
 1134POPC   C1A17331  12.676  28.488   8.700
 1134POPC   D2A17332  12.547  28.187   8.344
 1134POPC   C3A17333  12.693  28.321   7.938
 1134POPC   C4A17334  12.965  28.680   7.851
 1134POPC   C1B17335  13.096  28.169   8.766
 1134POPC   C2B17336  13.041  28.333   8.348
 1134POPC   C3B17337  13.211  28.214   7.982
 1134POPC   C4B17338  13.261  27.937   7.672
 1135POPC   NC317339  42.721  25.007   9.434
 1135POPC   PO417340  43.287  25.268   9.541
 1135POPC   GL117341  43.247  25.077   9.158
 1135POPC   GL217342  43.003  25.296   9.081
 1135POPC   C1A17343  43.444  25.137   8.726
 1135POPC   D2A17344  43.654  25.122   8.333
 1135POPC   C3A17345  43.352  25.185   8.081
 1135POPC   C4A17346  43.272  25.178   7.667
 1135POPC   C1B17347  42.806  25.420   8.711
 1135POPC   C2B17348  42.818  25.212   8.358
 1135POPC   C3B17349  42.855  25.245   7.950
 1135POPC   C4B17350  42.572  25.259   7.647
 1136POPC   NC317351   2.025  36.868   9.762
 1136POPC   PO417352   2.278  37.457   9.472
 1136POPC   GL117353   2.172  37.186   9.135
 1136POPC   GL217354   2.164  36.823   9.062
 1136POPC   C1A17355   2.109  37.199   8.697
 1136POPC   D2A17356   1.952  37.117   8.287
 1136POPC   C3A17357   2.165  36.871   8.013
 1136POPC   C4A17358   2.210  36.553   7.706
 1136POPC   C1B17359   1.914  36.722   8.654
 1136POPC   C2B17360   1.924  36.491   8.229
 1136POPC   C3B17361   1.725  36.513   7.807
 1136POPC   C4B17362   1.802  36.361   7.325
 1137POPC   NC317363  18.704  22.159   9.700
 1137POPC   PO417364  18.278  21.715   9.458
 1137POPC   GL117365  18.383  22.053   9.161
 1137POPC   GL217366  18.739  22.098   9.124
 1137POPC   C1A17367  18.233  22.377   8.822
 1137POPC   D2A17368  18.244  22.513   8.364
 1137POPC   C3A17369  17.993  22.295   8.025
 1137POPC   C4A17370  17.923  21.900   7.764
 1137POPC   C1B17371  18.599  22.040   8.668
 1137POPC   C2B17372  18.475  22.059   8.218
 1137POPC   C3B17373  18.570  22.299   7.845
 1137POPC   C4B17374  18.558  22.401   7.368
 1138POPC   NC317375  42.803  17.568   9.472
 1138POPC   PO417376  43.318  17.267   9.287
 1138POPC   GL117377  43.080  17.533   9.058
 1138POPC   GL217378  43.239  17.811   8.987
 1138POPC   C1A17379  42.777  17.647   8.758
 1138POPC   D2A17380  42.665  17.872   8.394
 1138POPC   C3A17381  42.761  17.611   8.060
 1138POPC   C4A17382  42.835  17.756   7.635
 1138POPC   C1B17383  43.396  17.495   8.682
 1138POPC   C2B17384  43.275  17.399   8.287
 1138POPC   C3B17385  43.243  17.582   7.884
 1138POPC   C4B17386  43.279  17.604   7.443
 1139POPC   NC317387  30.917  28.119   9.304
 1139POPC   PO417388  30.389  28.477   9.513
 1139POPC   GL117389  30.373  28.497   9.093
 1139POPC   GL217390  30.714  28.555   9.074
 1139POPC   C1A17391  30.493  28.212   8.763
 1139POPC   D2A17392  30.385  28.179   8.355
 1139POPC   C3A17393  30.705  28.367   8.191
 1139POPC   C4A17394  30.763  28.444   7.787
 1139POPC   C1B17395  31.016  28.533   8.738
 1139POPC   C2B17396  31.021  28.732   8.337
 1139POPC   C3B17397  30.752  28.895   8.034
 1139POPC   C4B17398  30.830  28.890   7.574
 1140POPC   NC317399  17.629  15.977   9.534
 1140POPC   PO417400  16.981  15.836   9.661
 1140POPC   GL117401  17.169  15.831   9.199
 1140POPC   GL217402  17.150  16.124   8.962
 1140POPC   C1A17403  17.291  15.614   8.846
 1140POPC   D2A17404  17.269  15.833   8.469
 1140POPC   C3A17405  17.456  15.616   8.167
 1140POPC   C4A17406  17.609  15.736   7.773
 1140POPC   C1B17407  17.607  16.019   8.858
 1140POPC   C2B17408  17.788  15.924   8.461
 1140POPC   C3B17409  17.612  16.115   8.132
 1140POPC   C4B17410  17.775  16.263   7.790
 1141POPC   NC317411  37.827  39.235   9.528
 1141POPC   PO417412  37.427  39.732   9.415
 1141POPC   GL117413  37.615  39.497   9.074
 1141POPC   GL217414  37.623  39.122   9.084
 1141POPC   C1A17415  37.592  39.381   8.643
 1141POPC   D2A17416  37.787  39.464   8.246
 1141POPC   C3A17417  37.416  39.314   8.026
 1141POPC   C4A17418  37.223  39.377   7.622
 1141POPC   C1B17419  38.013  39.164   8.836
 1141POPC   C2B17420  38.248  39.172   8.430
 1141POPC   C3B17421  38.172  38.960   8.043
 1141POPC   C4B17422  37.850  39.169   7.813
 1142POPC   NC317423   5.070  44.574   9.703
 1142POPC   PO417424   5.304   0.015   9.285
 1142POPC   GL117425   5.146  44.658   9.072
 1142POPC   GL217426   5.198  44.384   9.244
 1142POPC   C1A17427   4.952  44.613   8.681
 1142POPC   D2A17428   4.770  44.877   8.378
 1142POPC   C3A17429   4.925  44.789   7.971
 1142POPC   C4A17430   5.340  44.545   7.855
 1142POPC   C1B17431   4.863  44.202   8.988
 1142POPC   C2B17432   4.857  44.094   8.554
 1142POPC   C3B17433   4.991  44.310   8.193
 1142POPC   C4B17434   4.827  44.325   7.785
 1143POPC   NC317435  35.710  17.105   9.405
 1143POPC   PO417436  35.082  17.374   9.453
 1143POPC   GL117437  35.227  17.525   9.082
 1143POPC   GL217438  35.554  17.497   9.069
 1143POPC   C1A17439  35.072  17.669   8.727
 1143POPC   D2A17440  35.214  17.760   8.348
 1143POPC   C3A17441  35.544  17.533   8.218
 1143POPC   C4A17442  35.530  17.584   7.792
 1143POPC   C1B17443  35.574  17.269   8.689
 1143POPC   C2B17444  35.814  17.108   8.329
 1143POPC   C3B17445  35.672  17.118   7.911
 1143POPC   C4B17446  35.517  17.174   7.444
 1144POPC   NC317447   4.272  28.525   9.579
 1144POPC   PO417448   4.593  27.995   9.740
 1144POPC   GL117449   4.455  28.153   9.247
 1144POPC   GL217450   4.460  28.556   9.099
 1144POPC   C1A17451   4.190  28.197   8.862
 1144POPC   D2A17452   4.235  28.067   8.440
 1144POPC   C3A17453   4.410  28.244   8.083
 1144POPC   C4A17454   4.298  28.121   7.627
 1144POPC   C1B17455   4.356  28.642   8.645
 1144POPC   C2B17456   4.008  28.542   8.379
 1144POPC   C3B17457   3.992  28.490   7.940
 1144POPC   C4B17458   4.357  28.610   7.713
 1145POPC   NC317459  18.140  34.352   9.512
 1145POPC   PO417460  18.434  34.993   9.533
 1145POPC   GL117461  18.162  34.762   9.195
 1145POPC   GL217462  18.339  34.418   9.054
 1145POPC   C1A17463  17.967  34.662   8.777
 1145POPC   D2A17464  18.006  34.547   8.325
 1145POPC   C3A17465  18.291  34.765   8.010
 1145POPC   C4A17466  18.237  34.734   7.552
 1145POPC   C1B17467  18.391  34.263   8.619
 1145POPC   C2B17468  18.601  34.397   8.220
 1145POPC   C3B17469  18.456  34.329   7.801
 1145POPC   C4B17470  18.578  34.381   7.407
 1146POPC   NC317471   9.676  31.648   9.572
 1146POPC   PO417472  10.078  31.215   9.216
 1146POPC   GL117473   9.816  31.608   9.089
 1146POPC   GL217474   9.528  31.882   9.144
 1146POPC   C1A17475   9.825  31.578   8.668
 1146POPC   D2A17476   9.902  31.232   8.422
 1146POPC   C3A17477   9.954  31.438   8.045
 1146POPC   C4A17478   9.950  31.291   7.655
 1146POPC   C1B17479   9.341  31.648   8.804
 1146POPC   C2B17480   9.410  31.415   8.389
 1146POPC   C3B17481   9.467  31.306   7.917
 1146POPC   C4B17482   9.484  31.381   7.437
 1147POPC   NC317483   1.492  17.837   9.429
 1147POPC   PO417484   0.961  17.551   9.563
 1147POPC   GL117485   1.195  17.516   9.162
 1147POPC   GL217486   1.486  17.307   9.129
 1147POPC   C1A17487   1.329  17.547   8.726
 1147POPC   D2A17488   1.307  17.338   8.377
 1147POPC   C3A17489   1.054  17.553   8.137
 1147POPC   C4A17490   1.135  17.457   7.764
 1147POPC   C1B17491   1.627  17.113   8.735
 1147POPC   C2B17492   1.689  17.019   8.274
 1147POPC   C3B17493   1.595  17.327   7.919
 1147POPC   C4B17494   1.469  17.251   7.448
 1148POPC   NC317495  30.152  10.319   9.411
 1148POPC   PO417496  29.771  10.854   9.661
 1148POPC   GL117497  29.957  10.764   9.236
 1148POPC   GL217498  29.624  10.760   9.150
 1148POPC   C1A17499  30.228  10.648   8.813
 1148POPC   D2A17500  30.314  10.571   8.323
 1148POPC   C3A17501  30.056  10.289   8.031
 1148POPC   C4A17502  29.608  10.076   7.878
 1148POPC   C1B17503  29.741  10.507   8.791
 1148POPC   C2B17504  29.749  10.583   8.353
 1148POPC   C3B17505  29.660  10.569   7.909
 1148POPC   C4B17506  29.997  10.598   7.617
 1149POPC   NC317507  11.385   3.955   9.495
 1149POPC   PO417508  11.006   4.506   9.549
 1149POPC   GL117509  11.074   4.702   9.149
 1149POPC   GL217510  11.366   4.489   9.062
 1149POPC   C1A17511  11.172   4.769   8.696
 1149POPC   D2A17512  11.416   4.487   8.464
 1149POPC   C3A17513  11.250   4.402   8.082
 1149POPC   C4A17514  11.162   4.157   7.750
 1149POPC   C1B17515  11.373   4.061   8.831
 1149POPC   C2B17516  11.613   3.871   8.469
 1149POPC   C3B17517  11.529   3.909   8.031
 1149POPC   C4B17518  11.662   4.275   7.775
 1150POPC   NC317519  16.419   4.937   9.474
 1150POPC   PO417520  16.966   5.397   9.554
 1150POPC   GL117521  16.759   5.227   9.197
 1150POPC   GL217522  16.916   4.945   9.108
 1150POPC   C1A17523  16.826   5.335   8.753
 1150POPC   D2A17524  16.893   5.292   8.283
 1150POPC   C3A17525  16.580   5.083   8.058
 1150POPC   C4A17526  16.612   5.010   7.618
 1150POPC   C1B17527  16.632   4.847   8.785
 1150POPC   C2B17528  16.667   4.665   8.361
 1150POPC   C3B17529  16.958   4.700   7.975
 1150POPC   C4B17530  17.002   4.690   7.489
 1151POPC   NC317531  41.020  32.358  10.017
 1151POPC   PO417532  40.774  32.581   9.398
 1151POPC   GL117533  40.832  32.480   9.024
 1151POPC   GL217534  40.651  32.177   8.939
 1151POPC   C1A17535  41.055  32.367   8.663
 1151POPC   D2A17536  41.045  32.254   8.224
 1151POPC   C3A17537  40.634  32.317   7.998
 1151POPC   C4A17538  40.548  32.096   7.610
 1151POPC   C1B17539  40.828  31.908   8.670
 1151POPC   C2B17540  40.892  31.766   8.295
 1151POPC   C3B17541  40.879  31.860   7.900
 1151POPC   C4B17542  41.034  32.241   7.694
 1152POPC   NC317543  26.766  15.302   9.634
 1152POPC   PO417544  26.830  14.673   9.650
 1152POPC   GL117545  26.982  14.986   9.303
 1152POPC   GL217546  26.653  15.119   9.159
 1152POPC   C1A17547  27.027  15.124   8.841
 1152POPC   D2A17548  26.753  14.959   8.521
 1152POPC   C3A17549  26.830  15.058   8.088
 1152POPC   C4A17550  27.071  15.251   7.765
 1152POPC   C1B17551  26.383  15.227   8.812
 1152POPC   C2B17552  26.469  15.376   8.394
 1152POPC   C3B17553  26.531  15.507   7.980
 1152POPC   C4B17554  26.660  15.454   7.551
 1153POPC   NC317555  12.697   6.597   9.579
 1153POPC   PO417556  13.206   6.319   9.240
 1153POPC   GL117557  12.963   6.651   9.149
 1153POPC   GL217558  13.208   6.912   9.103
 1153POPC   C1A17559  12.680   6.719   8.785
 1153POPC   D2A17560  12.830   6.823   8.330
 1153POPC   C3A17561  12.884   6.496   8.014
 1153POPC   C4A17562  12.553   6.440   7.702
 1153POPC   C1B17563  13.171   6.657   8.691
 1153POPC   C2B17564  13.321   6.589   8.306
 1153POPC   C3B17565  13.246   6.846   7.973
 1153POPC   C4B17566  13.195   6.834   7.556
 1154POPC   NC317567   7.029  21.965   9.322
 1154POPC   PO417568   7.661  22.148   9.547
 1154POPC   GL117569   7.424  22.238   9.177
 1154POPC   GL217570   7.677  22.349   9.078
 1154POPC   C1A17571   7.268  22.423   8.779
 1154POPC   D2A17572   6.953  22.439   8.485
 1154POPC   C3A17573   7.201  22.192   8.178
 1154POPC   C4A17574   7.265  22.384   7.780
 1154POPC   C1B17575   7.844  22.352   8.716
 1154POPC   C2B17576   7.655  22.270   8.398
 1154POPC   C3B17577   7.683  22.471   8.059
 1154POPC   C4B17578   7.804  22.363   7.656
 1155POPC   NC317579  16.969  31.999   9.586
 1155POPC   PO417580  17.053  32.660   9.515
 1155POPC   GL117581  17.012  32.366   9.164
 1155POPC   GL217582  16.695  32.157   9.166
 1155POPC   C1A17583  16.865  32.415   8.733
 1155POPC   D2A17584  16.583  32.414   8.390
 1155POPC   C3A17585  16.791  32.563   8.061
 1155POPC   C4A17586  16.662  32.474   7.670
 1155POPC   C1B17587  16.896  31.926   8.845
 1155POPC   C2B17588  16.792  31.961   8.400
 1155POPC   C3B17589  16.646  32.045   7.961
 1155POPC   C4B17590  16.880  31.758   7.644
 1156POPC   NC317591  32.588   6.785   9.763
 1156POPC   PO417592  33.181   6.497   9.717
 1156POPC   GL117593  33.062   6.525   9.278
 1156POPC   GL217594  33.241   6.268   9.130
 1156POPC   C1A17595  32.981   6.743   8.874
 1156POPC   D2A17596  32.862   6.583   8.443
 1156POPC   C3A17597  32.868   6.718   8.019
 1156POPC   C4A17598  32.658   6.417   7.748
 1156POPC   C1B17599  33.236   6.325   8.671
 1156POPC   C2B17600  33.338   6.423   8.214
 1156POPC   C3B17601  33.266   6.525   7.740
 1156POPC   C4B17602  33.256   6.497   7.248
 1157POPC   NC317603  41.495  23.068   9.497
 1157POPC   PO417604  41.855  22.512   9.611
 1157POPC   GL117605  41.814  22.784   9.202
 1157POPC   GL217606  41.811  23.184   9.104
 1157POPC   C1A17607  41.564  22.830   8.818
 1157POPC   D2A17608  41.588  23.194   8.511
 1157POPC   C3A17609  41.567  23.132   8.051
 1157POPC   C4A17610  41.381  22.865   7.747
 1157POPC   C1B17611  42.030  23.033   8.725
 1157POPC   C2B17612  41.827  22.778   8.377
 1157POPC   C3B17613  41.769  22.630   7.986
 1157POPC   C4B17614  41.961  22.510   7.592
 1158POPC   NC317615   6.159  37.906   9.583
 1158POPC   PO417616   5.491  37.718   9.637
 1158POPC   GL117617   5.748  37.709   9.250
 1158POPC   GL217618   5.891  38.062   9.196
 1158POPC   C1A17619   5.837  37.697   8.773
 1158POPC   D2A17620   5.987  37.541   8.337
 1158POPC   C3A17621   5.804  37.694   7.954
 1158POPC   C4A17622   5.909  37.599   7.536
 1158POPC   C1B17623   6.152  38.105   8.825
 1158POPC   C2B17624   5.994  38.063   8.409
 1158POPC   C3B17625   6.228  37.983   8.035
 1158POPC   C4B17626   6.364  37.657   7.743
 1159POPC   NC317627  36.511  37.863   9.302
 1159POPC   PO417628  35.960  37.596   9.578
 1159POPC   GL117629  36.037  37.611   9.155
 1159POPC   GL217630  36.057  37.960   9.053
 1159POPC   C1A17631  36.268  37.481   8.796
 1159POPC   D2A17632  36.147  37.306   8.411
 1159POPC   C3A17633  36.037  37.557   8.072
 1159POPC   C4A17634  36.063  37.312   7.711
 1159POPC   C1B17635  36.308  38.009   8.680
 1159POPC   C2B17636  36.170  38.053   8.267
 1159POPC   C3B17637  36.363  37.967   7.901
 1159POPC   C4B17638  36.475  37.956   7.483
 1160POPC   NC317639  30.193  30.388   9.629
 1160POPC   PO417640  29.689  30.906   9.538
 1160POPC   GL117641  29.955  30.801   9.216
 1160POPC   GL217642  30.020  30.456   9.149
 1160POPC   C1A17643  29.891  30.841   8.764
 1160POPC   D2A17644  29.604  30.745   8.395
 1160POPC   C3A17645  29.766  30.853   7.972
 1160POPC   C4A17646  29.861  30.716   7.547
 1160POPC   C1B17647  29.810  30.339   8.768
 1160POPC   C2B17648  29.886  30.237   8.326
 1160POPC   C3B17649  30.110  30.370   7.935
 1160POPC   C4B17650  30.034  30.245   7.503
 1161POPC   NC317651  33.513  30.257   9.602
 1161POPC   PO417652  33.676  30.820   9.451
 1161POPC   GL117653  33.923  30.662   9.096
 1161POPC   GL217654  34.257  30.509   9.068
 1161POPC   C1A17655  33.809  30.602   8.685
 1161POPC   D2A17656  33.678  30.842   8.381
 1161POPC   C3A17657  33.823  30.769   7.978
 1161POPC   C4A17658  33.840  30.857   7.562
 1161POPC   C1B17659  34.267  30.444   8.591
 1161POPC   C2B17660  34.218  30.396   8.131
 1161POPC   C3B17661  34.325  30.519   7.714
 1161POPC   C4B17662  34.176  30.375   7.318
 1162POPC   NC317663  33.465  23.100   9.550
 1162POPC   PO417664  33.978  22.735   9.723
 1162POPC   GL117665  33.933  22.965   9.302
 1162POPC   GL217666  33.591  22.898   9.111
 1162POPC   C1A17667  34.001  23.165   8.889
 1162POPC   D2A17668  33.706  23.273   8.565
 1162POPC   C3A17669  33.762  23.076   8.170
 1162POPC   C4A17670  33.720  22.960   7.722
 1162POPC   C1B17671  33.769  22.722   8.761
 1162POPC   C2B17672  33.762  22.411   8.457
 1162POPC   C3B17673  33.742  22.543   8.063
 1162POPC   C4B17674  33.673  22.441   7.661
 1163POPC   NC317675  36.563   5.694   9.378
 1163POPC   PO417676  36.068   6.150   9.462
 1163POPC   GL117677  36.170   6.050   9.064
 1163POPC   GL217678  36.062   5.727   9.120
 1163POPC   C1A17679  36.404   5.789   8.739
 1163POPC   D2A17680  36.297   5.615   8.339
 1163POPC   C3A17681  36.165   5.951   8.067
 1163POPC   C4A17682  36.123   6.080   7.633
 1163POPC   C1B17683  35.890   5.642   8.697
 1163POPC   C2B17684  35.694   5.763   8.295
 1163POPC   C3B17685  35.785   5.687   7.867
 1163POPC   C4B17686  35.934   5.639   7.434
 1164POPC   NC317687  28.194  41.627   9.891
 1164POPC   PO417688  27.945  41.693   9.276
 1164POPC   GL117689  28.380  41.666   9.084
 1164POPC   GL217690  28.558  41.351   9.099
 1164POPC   C1A17691  28.579  41.692   8.688
 1164POPC   D2A17692  28.573  41.921   8.288
 1164POPC   C3A17693  28.420  41.690   7.968
 1164POPC   C4A17694  28.025  41.683   7.836
 1164POPC   C1B17695  28.271  41.249   8.765
 1164POPC   C2B17696  28.227  41.433   8.382
 1164POPC   C3B17697  28.155  41.233   8.012
 1164POPC   C4B17698  28.509  41.119   7.838
 1165POPC   NC317699  31.833  31.287   9.543
 1165POPC   PO417700  31.374  31.723   9.681
 1165POPC   GL117701  31.568  31.642   9.233
 1165POPC   GL217702  31.639  31.321   9.079
 1165POPC   C1A17703  31.525  31.678   8.758
 1165POPC   D2A17704  31.412  31.486   8.356
 1165POPC   C3A17705  31.376  31.672   7.940
 1165POPC   C4A17706  31.652  31.733   7.583
 1165POPC   C1B17707  31.730  31.146   8.656
 1165POPC   C2B17708  31.552  30.896   8.327
 1165POPC   C3B17709  31.398  31.136   7.982
 1165POPC   C4B17710  31.723  31.269   7.776
 1166POPC   NC317711   3.280  24.976   9.382
 1166POPC   PO417712   3.754  25.518   9.402
 1166POPC   GL117713   3.751  25.123   9.195
 1166POPC   GL217714   3.499  25.206   8.997
 1166POPC   C1A17715   3.886  24.880   8.807
 1166POPC   D2A17716   4.038  24.974   8.375
 1166POPC   C3A17717   3.760  25.169   8.075
 1166POPC   C4A17718   3.508  25.192   7.700
 1166POPC   C1B17719   3.590  25.243   8.573
 1166POPC   C2B17720   3.300  25.369   8.266
 1166POPC   C3B17721   3.144  25.511   7.876
 1166POPC   C4B17722   3.190  25.465   7.396
 1167POPC   NC317723  30.570  34.024   9.614
 1167POPC   PO417724  30.796  33.375   9.716
 1167POPC   GL117725  30.759  33.585   9.341
 1167POPC   GL217726  30.417  33.664   9.261
 1167POPC   C1A17727  30.848  33.783   8.962
 1167POPC   D2A17728  30.772  33.635   8.561
 1167POPC   C3A17729  30.908  33.925   8.230
 1167POPC   C4A17730  30.839  33.949   7.795
 1167POPC   C1B17731  30.361  33.784   8.839
 1167POPC   C2B17732  30.405  33.967   8.463
 1167POPC   C3B17733  30.452  33.735   8.102
 1167POPC   C4B17734  30.150  33.806   7.821
 1168POPC   NC317735   8.109  25.899   9.385
 1168POPC   PO417736   8.187  26.499   9.457
 1168POPC   GL117737   8.329  26.219   9.053
 1168POPC   GL217738   8.125  25.912   8.895
 1168POPC   C1A17739   8.515  26.087   8.641
 1168POPC   D2A17740   8.206  25.888   8.350
 1168POPC   C3A17741   8.305  25.773   7.935
 1168POPC   C4A17742   8.312  26.038   7.556
 1168POPC   C1B17743   7.833  25.694   8.643
 1168POPC   C2B17744   7.615  25.861   8.326
 1168POPC   C3B17745   7.837  25.987   7.963
 1168POPC   C4B17746   7.917  25.703   7.617
 1169POPC   NC317747  28.787  38.846   9.253
 1169POPC   PO417748  29.170  38.251   9.517
 1169POPC   GL117749  29.144  38.347   9.116
 1169POPC   GL217750  28.808  38.370   9.133
 1169POPC   C1A17751  29.270  38.423   8.708
 1169POPC   D2A17752  29.139  38.613   8.319
 1169POPC   C3A17753  29.324  38.392   8.010
 1169POPC   C4A17754  29.203  38.454   7.614
 1169POPC   C1B17755  28.779  38.362   8.723
 1169POPC   C2B17756  28.901  38.157   8.367
 1169POPC   C3B17757  28.826  38.238   7.944
 1169POPC   C4B17758  28.717  38.330   7.532
 1170POPC   NC317759   0.068  23.622   9.414
 1170POPC   PO417760   0.759  23.398   9.379
 1170POPC   GL117761   0.487  23.590   9.115
 1170POPC   GL217762   0.524  23.940   9.172
 1170POPC   C1A17763   0.236  23.672   8.757
 1170POPC   D2A17764   0.436  23.753   8.371
 1170POPC   C3A17765   0.401  23.485   8.039
 1170POPC   C4A17766   0.752  23.366   7.779
 1170POPC   C1B17767   0.626  24.083   8.760
 1170POPC   C2B17768   0.814  24.108   8.332
 1170POPC   C3B17769   0.687  23.914   7.936
 1170POPC   C4B17770   0.252  24.005   7.888
 1171POPC   NC317771   4.213  10.697   9.921
 1171POPC   PO417772   4.574  10.190   9.726
 1171POPC   GL117773   4.474  10.475   9.355
 1171POPC   GL217774   4.177  10.667   9.341
 1171POPC   C1A17775   4.425  10.518   8.884
 1171POPC   D2A17776   4.494  10.515   8.450
 1171POPC   C3A17777   4.566  10.332   8.066
 1171POPC   C4A17778   4.590  10.385   7.615
 1171POPC   C1B17779   4.134  10.935   8.963
 1171POPC   C2B17780   4.303  11.019   8.577
 1171POPC   C3B17781   4.265  10.898   8.184
 1171POPC   C4B17782   4.241  10.663   7.841
 1172POPC   NC317783  13.636  26.583   9.675
 1172POPC   PO417784  13.822  27.189   9.481
 1172POPC   GL117785  13.659  26.883   9.150
 1172POPC   GL217786  13.596  26.497   9.173
 1172POPC   C1A17787  13.804  26.712   8.749
 1172POPC   D2A17788  13.898  26.654   8.334
 1172POPC   C3A17789  13.695  26.845   8.029
 1172POPC   C4A17790  13.645  26.579   7.722
 1172POPC   C1B17791  13.306  26.636   8.841
 1172POPC   C2B17792  13.374  26.824   8.438
 1172POPC   C3B17793  13.236  26.618   8.050
 1172POPC   C4B17794  13.115  26.773   7.658
 1173POPC   NC317795  31.793   0.705   9.874
 1173POPC   PO417796  31.315   0.346   9.575
 1173POPC   GL117797  31.275   0.466   9.167
 1173POPC   GL217798  31.598   0.337   9.126
 1173POPC   C1A17799  31.303   0.673   8.785
 1173POPC   D2A17800  31.623   0.569   8.487
 1173POPC   C3A17801  31.408   0.610   8.115
 1173POPC   C4A17802  31.554   0.773   7.748
 1173POPC   C1B17803  31.422   0.176   8.746
 1173POPC   C2B17804  31.651   0.010   8.382
 1173POPC   C3B17805  31.584   0.017   7.944
 1173POPC   C4B17806  31.295   0.298   7.715
 1174POPC   NC317807  28.830  24.296   9.428
 1174POPC   PO417808  29.426  24.714   9.617
 1174POPC   GL117809  29.227  24.674   9.207
 1174POPC   GL217810  29.534  24.573   9.123
 1174POPC   C1A17811  29.214  24.478   8.747
 1174POPC   D2A17812  29.106  24.500   8.302
 1174POPC   C3A17813  29.277  24.395   7.880
 1174POPC   C4A17814  29.353  24.335   7.403
 1174POPC   C1B17815  29.629  24.801   8.808
 1174POPC   C2B17816  29.424  24.879   8.442
 1174POPC   C3B17817  29.547  24.792   8.042
 1174POPC   C4B17818  29.456  24.799   7.628
 1175POPC   NC317819  15.479  41.381   9.465
 1175POPC   PO417820  14.988  41.808   9.467
 1175POPC   GL117821  15.076  41.477   9.173
 1175POPC   GL217822  14.797  41.321   9.105
 1175POPC   C1A17823  15.376  41.450   8.788
 1175POPC   D2A17824  15.324  41.247   8.343
 1175POPC   C3A17825  15.357  41.520   7.983
 1175POPC   C4A17826  15.082  41.707   7.728
 1175POPC   C1B17827  14.962  41.160   8.743
 1175POPC   C2B17828  14.828  41.052   8.357
 1175POPC   C3B17829  14.881  41.297   8.001
 1175POPC   C4B17830  14.834  41.277   7.552
 1176POPC   NC317831   2.481  19.370   9.475
 1176POPC   PO417832   3.013  18.999   9.630
 1176POPC   GL117833   2.790  19.034   9.227
 1176POPC   GL217834   2.790  18.723   9.063
 1176POPC   C1A17835   2.672  19.193   8.805
 1176POPC   D2A17836   2.694  19.467   8.441
 1176POPC   C3A17837   2.784  19.200   8.099
 1176POPC   C4A17838   2.868  19.192   7.676
 1176POPC   C1B17839   2.624  18.679   8.671
 1176POPC   C2B17840   2.743  18.678   8.238
 1176POPC   C3B17841   2.649  18.767   7.832
 1176POPC   C4B17842   2.809  18.709   7.420
 1177POPC   NC317843  38.312   4.964   9.399
 1177POPC   PO417844  38.791   5.374   9.348
 1177POPC   GL117845  38.496   5.270   9.062
 1177POPC   GL217846  38.124   5.380   9.193
 1177POPC   C1A17847  38.672   5.092   8.714
 1177POPC   D2A17848  38.634   4.902   8.347
 1177POPC   C3A17849  38.730   5.165   8.016
 1177POPC   C4A17850  38.684   4.954   7.664
 1177POPC   C1B17851  38.035   5.180   8.820
 1177POPC   C2B17852  38.253   5.228   8.432
 1177POPC   C3B17853  38.218   5.035   8.039
 1177POPC   C4B17854  37.969   5.125   7.696
 1178POPC   NC317855  28.206  35.038   9.674
 1178POPC   PO417856  28.434  34.404   9.704
 1178POPC   GL117857  28.478  34.612   9.234
 1178POPC   GL217858  28.238  34.905   9.185
 1178POPC   C1A17859  28.426  34.756   8.742
 1178POPC   D2A17860  28.219  34.550   8.354
 1178POPC   C3A17861  28.420  34.375   7.948
 1178POPC   C4A17862  28.299  34.343   7.475
 1178POPC   C1B17863  28.083  35.155   8.810
 1178POPC   C2B17864  28.145  35.055   8.364
 1178POPC   C3B17865  28.234  34.886   7.921
 1178POPC   C4B17866  28.065  34.814   7.475
 1179POPC   NC317867   8.368   4.040   9.496
 1179POPC   PO417868   7.863   4.472   9.322
 1179POPC   GL117869   8.186   4.357   9.115
 1179POPC   GL217870   8.162   4.010   9.033
 1179POPC   C1A17871   8.018   4.359   8.698
 1179POPC   D2A17872   8.163   4.317   8.355
 1179POPC   C3A17873   8.117   4.093   8.027
 1179POPC   C4A17874   8.378   4.308   7.729
 1179POPC   C1B17875   8.495   4.157   8.768
 1179POPC   C2B17876   8.630   4.144   8.355
 1179POPC   C3B17877   8.611   3.913   8.023
 1179POPC   C4B17878   8.535   3.829   7.602
 1180POPC   NC317879  42.000   6.343   9.379
 1180POPC   PO417880  42.125   6.949   9.420
 1180POPC   GL117881  42.215   6.718   9.036
 1180POPC   GL217882  42.540   6.576   9.066
 1180POPC   C1A17883  42.413   6.767   8.604
 1180POPC   D2A17884  42.597   6.977   8.226
 1180POPC   C3A17885  42.416   6.932   7.788
 1180POPC   C4A17886  42.547   6.964   7.318
 1180POPC   C1B17887  42.334   6.278   8.796
 1180POPC   C2B17888  42.112   6.392   8.430
 1180POPC   C3B17889  42.251   6.417   7.988
 1180POPC   C4B17890  42.262   6.169   7.614
 1181POPC   NC317891   1.736   5.494   9.579
 1181POPC   PO417892   2.278   5.952   9.599
 1181POPC   GL117893   1.970   6.011   9.234
 1181POPC   GL217894   1.663   5.820   9.188
 1181POPC   C1A17895   1.969   6.105   8.782
 1181POPC   D2A17896   2.276   6.201   8.453
 1181POPC   C3A17897   2.168   6.028   8.085
 1181POPC   C4A17898   1.999   6.098   7.693
 1181POPC   C1B17899   1.470   6.038   8.877
 1181POPC   C2B17900   1.558   5.905   8.478
 1181POPC   C3B17901   1.672   5.901   8.085
 1181POPC   C4B17902   1.541   5.851   7.691
 1182POPC   NC317903   9.153  20.722   9.569
 1182POPC   PO417904   8.581  20.407   9.591
 1182POPC   GL117905   8.688  20.635   9.216
 1182POPC   GL217906   9.032  20.640   9.079
 1182POPC   C1A17907   8.624  20.826   8.830
 1182POPC   D2A17908   8.805  20.650   8.477
 1182POPC   C3A17909   8.621  20.569   8.091
 1182POPC   C4A17910   8.841  20.450   7.739
 1182POPC   C1B17911   9.178  20.913   8.732
 1182POPC   C2B17912   9.084  21.076   8.340
 1182POPC   C3B17913   9.085  20.791   8.040
 1182POPC   C4B17914   9.350  20.508   7.800
 1183POPC   NC317915   4.584  20.365   9.506
 1183POPC   PO417916   4.116  20.890   9.486
 1183POPC   GL117917   4.160  20.578   9.181
 1183POPC   GL217918   4.004  20.247   9.243
 1183POPC   C1A17919   4.291  20.648   8.769
 1183POPC   D2A17920   4.660  20.638   8.528
 1183POPC   C3A17921   4.582  20.527   8.106
 1183POPC   C4A17922   4.420  20.645   7.692
 1183POPC   C1B17923   3.891  20.333   8.794
 1183POPC   C2B17924   4.103  20.324   8.392
 1183POPC   C3B17925   4.048  20.458   7.977
 1183POPC   C4B17926   4.085  20.271   7.536
 1184POPC   NC317927   9.548  28.060   9.547
 1184POPC   PO417928   9.446  28.661   9.473
 1184POPC   GL117929   9.667  28.386   9.173
 1184POPC   GL217930  10.011  28.362   9.146
 1184POPC   C1A17931   9.682  28.318   8.736
 1184POPC   D2A17932   9.518  28.504   8.365
 1184POPC   C3A17933   9.628  28.277   8.011
 1184POPC   C4A17934   9.665  28.457   7.646
 1184POPC   C1B17935  10.139  28.116   8.813
 1184POPC   C2B17936  10.004  28.118   8.360
 1184POPC   C3B17937  10.154  28.241   7.925
 1184POPC   C4B17938  10.010  28.130   7.490
 1185POPC   NC317939   5.847   5.968   9.489
 1185POPC   PO417940   5.806   5.398   9.197
 1185POPC   GL117941   5.783   5.794   9.011
 1185POPC   GL217942   5.500   6.004   9.086
 1185POPC   C1A17943   6.004   5.948   8.684
 1185POPC   D2A17944   5.904   6.038   8.297
 1185POPC   C3A17945   5.877   5.682   8.004
 1185POPC   C4A17946   6.112   5.516   7.607
 1185POPC   C1B17947   5.513   6.165   8.668
 1185POPC   C2B17948   5.359   6.037   8.235
 1185POPC   C3B17949   5.640   6.113   7.883
 1185POPC   C4B17950   5.585   6.249   7.448
 1186POPC   NC317951  21.600  23.565   9.579
 1186POPC   PO417952  20.910  23.695   9.476
 1186POPC   GL117953  21.278  23.739   9.221
 1186POPC   GL217954  21.341  23.393   9.161
 1186POPC   C1A17955  21.468  23.848   8.813
 1186POPC   D2A17956  21.614  23.980   8.432
 1186POPC   C3A17957  21.474  23.809   8.052
 1186POPC   C4A17958  21.691  23.520   7.782
 1186POPC   C1B17959  21.088  23.527   8.811
 1186POPC   C2B17960  21.261  23.498   8.438
 1186POPC   C3B17961  21.036  23.507   8.096
 1186POPC   C4B17962  21.107  23.655   7.728
 1187POPC   NC317963   1.563  17.027   9.539
 1187POPC   PO417964   2.219  16.648   9.566
 1187POPC   GL117965   1.950  16.759   9.199
 1187POPC   GL217966   2.243  16.779   9.060
 1187POPC   C1A17967   1.896  16.682   8.712
 1187POPC   D2A17968   1.719  16.487   8.327
 1187POPC   C3A17969   1.900  16.632   7.959
 1187POPC   C4A17970   1.747  16.902   7.706
 1187POPC   C1B17971   2.439  16.641   8.699
 1187POPC   C2B17972   2.270  16.740   8.309
 1187POPC   C3B17973   2.428  16.801   7.902
 1187POPC   C4B17974   2.230  16.855   7.476
 1188POPC   NC317975   6.441   0.601   9.504
 1188POPC   PO417976   6.196   0.003   9.322
 1188POPC   GL117977   6.394   0.326   9.082
 1188POPC   GL217978   6.732   0.409   9.110
 1188POPC   C1A17979   6.456   0.590   8.723
 1188POPC   D2A17980   6.568   0.474   8.297
 1188POPC   C3A17981   6.630   0.659   7.877
 1188POPC   C4A17982   6.571   0.326   7.511
 1188POPC   C1B17983   6.819   0.216   8.711
 1188POPC   C2B17984   6.945   0.100   8.306
 1188POPC   C3B17985   6.921   0.235   7.865
 1188POPC   C4B17986   7.052   0.219   7.402
 1189POPC   NC317987  38.908  14.934   9.455
 1189POPC   PO417988  39.384  15.425   9.499
 1189POPC   GL117989  39.193  15.225   9.130
 1189POPC   GL217990  39.055  14.873   8.991
 1189POPC   C1A17991  39.076  15.277   8.700
 1189POPC   D2A17992  39.086  14.950   8.400
 1189POPC   C3A17993  39.142  15.134   8.049
 1189POPC   C4A17994  39.474  15.119   7.844
 1189POPC   C1B17995  39.447  14.904   8.787
 1189POPC   C2B17996  39.588  14.857   8.355
 1189POPC   C3B17997  39.337  14.656   8.044
 1189POPC   C4B17998  39.027  14.586   7.673
 1190POPC   NC317999  20.805  28.084   9.452
 1190POPC   PO418000  20.512  28.697   9.612
 1190POPC   GL118001  20.627  28.676   9.195
 1190POPC   GL218002  20.864  28.463   9.113
 1190POPC   C1A18003  20.384  28.628   8.854
 1190POPC   D2A18004  20.346  28.365   8.515
 1190POPC   C3A18005  20.201  28.583   8.184
 1190POPC   C4A18006  20.358  28.538   7.798
 1190POPC   C1B18007  20.830  28.465   8.677
 1190POPC   C2B18008  20.963  28.587   8.274
 1190POPC   C3B18009  20.860  28.443   7.855
 1190POPC   C4B18010  20.906  28.169   7.486
 1191POPC   NC318011  16.537   5.622   9.653
 1191POPC   PO418012  16.905   6.172   9.531
 1191POPC   GL118013  16.815   6.089   9.124
 1191POPC   GL218014  16.759   5.740   9.211
 1191POPC   C1A18015  16.824   5.847   8.739
 1191POPC   D2A18016  17.099   5.720   8.470
 1191POPC   C3A18017  16.900   5.822   8.095
 1191POPC   C4A18018  16.616   6.008   7.822
 1191POPC   C1B18019  16.416   5.599   8.913
 1191POPC   C2B18020  16.474   5.567   8.451
 1191POPC   C3B18021  16.364   5.616   8.034
 1191POPC   C4B18022  16.674   5.490   7.752
 1192POPC   NC318023  31.065  32.517   9.438
 1192POPC   PO418024  31.482  32.906   9.818
 1192POPC   GL118025  31.332  32.991   9.361
 1192POPC   GL218026  31.553  33.238   9.219
 1192POPC   C1A18027  31.282  32.919   8.897
 1192POPC   D2A18028  31.267  33.116   8.482
 1192POPC   C3A18029  31.309  32.958   8.085
 1192POPC   C4A18030  31.075  33.066   7.720
 1192POPC   C1B18031  31.687  33.252   8.774
 1192POPC   C2B18032  31.948  33.183   8.421
 1192POPC   C3B18033  31.871  33.310   8.005
 1192POPC   C4B18034  31.590  33.176   7.689
 1193POPC   NC318035  30.584  27.284   9.306
 1193POPC   PO418036  31.321  27.152   9.566
 1193POPC   GL118037  31.046  26.884   9.180
 1193POPC   GL218038  30.757  26.611   9.112
 1193POPC   C1A18039  30.971  26.775   8.694
 1193POPC   D2A18040  30.973  26.639   8.242
 1193POPC   C3A18041  30.797  26.878   7.915
 1193POPC   C4A18042  30.422  27.128   7.853
 1193POPC   C1B18043  30.476  26.463   8.823
 1193POPC   C2B18044  30.447  26.646   8.426
 1193POPC   C3B18045  30.486  26.460   8.046
 1193POPC   C4B18046  30.462  26.574   7.664
 1194POPC   NC318047  17.404  11.782   9.379
 1194POPC   PO418048  17.773  12.211   9.452
 1194POPC   GL118049  17.524  12.272   9.115
 1194POPC   GL218050  17.777  12.469   8.964
 1194POPC   C1A18051  17.499  12.110   8.687
 1194POPC   D2A18052  17.276  12.108   8.278
 1194POPC   C3A18053  17.484  12.028   7.848
 1194POPC   C4A18054  17.396  11.841   7.425
 1194POPC   C1B18055  17.992  12.405   8.588
 1194POPC   C2B18056  17.835  12.216   8.226
 1194POPC   C3B18057  17.993  12.091   7.866
 1194POPC   C4B18058  17.910  11.727   7.584
 1195POPC   NC318059   2.565  27.244   9.531
 1195POPC   PO418060   2.993  27.874   9.541
 1195POPC   GL118061   2.755  27.645   9.202
 1195POPC   GL218062   2.906  27.309   9.162
 1195POPC   C1A18063   2.723  27.769   8.747
 1195POPC   D2A18064   2.989  27.972   8.433
 1195POPC   C3A18065   2.820  27.931   7.993
 1195POPC   C4A18066   2.942  27.895   7.543
 1195POPC   C1B18067   2.672  27.254   8.817
 1195POPC   C2B18068   2.595  27.212   8.406
 1195POPC   C3B18069   2.575  27.476   8.068
 1195POPC   C4B18070   2.628  27.491   7.631
 1196POPC   NC318071   3.021   0.849   9.319
 1196POPC   PO418072   2.996   0.222   9.540
 1196POPC   GL118073   2.887   0.174   9.125
 1196POPC   GL218074   3.170   0.387   9.080
 1196POPC   C1A18075   2.603   0.240   8.745
 1196POPC   D2A18076   2.493   0.231   8.274
 1196POPC   C3A18077   2.609   0.507   7.937
 1196POPC   C4A18078   2.778   0.332   7.547
 1196POPC   C1B18079   3.035   0.507   8.701
 1196POPC   C2B18080   2.988   0.433   8.271
 1196POPC   C3B18081   3.134   0.551   7.852
 1196POPC   C4B18082   3.205   0.827   7.465
 1197POPC   NC318083   9.373  21.533  10.111
 1197POPC   PO418084   9.810  21.253   9.592
 1197POPC   GL118085   9.815  21.385   9.169
 1197POPC   GL218086   9.686  21.717   9.135
 1197POPC   C1A18087   9.958  21.460   8.758
 1197POPC   D2A18088  10.053  21.268   8.386
 1197POPC   C3A18089   9.899  21.408   7.979
 1197POPC   C4A18090   9.841  21.256   7.555
 1197POPC   C1B18091   9.612  21.836   8.688
 1197POPC   C2B18092   9.578  21.776   8.216
 1197POPC   C3B18093   9.494  21.654   7.766
 1197POPC   C4B18094   9.465  21.823   7.301
 1198POPC   NC318095  33.619   5.152   9.327
 1198POPC   PO418096  33.027   4.887   9.681
 1198POPC   GL118097  33.094   5.159   9.266
 1198POPC   GL218098  33.303   5.002   8.979
 1198POPC   C1A18099  33.041   5.380   8.836
 1198POPC   D2A18100  33.271   5.291   8.436
 1198POPC   C3A18101  33.126   5.126   8.014
 1198POPC   C4A18102  33.215   5.050   7.565
 1198POPC   C1B18103  33.077   4.828   8.652
 1198POPC   C2B18104  32.920   4.738   8.262
 1198POPC   C3B18105  33.098   4.592   7.873
 1198POPC   C4B18106  33.109   4.541   7.406
 1199POPC   NC318107   6.827  35.594   9.518
 1199POPC   PO418108   6.287  35.250   9.603
 1199POPC   GL118109   6.598  35.076   9.265
 1199POPC   GL218110   6.807  35.335   9.095
 1199POPC   C1A18111   6.630  34.972   8.811
 1199POPC   D2A18112   6.747  35.270   8.500
 1199POPC   C3A18113   6.425  35.234   8.182
 1199POPC   C4A18114   6.622  35.168   7.788
 1199POPC   C1B18115   6.462  35.554   8.848
 1199POPC   C2B18116   6.527  35.726   8.425
 1199POPC   C3B18117   6.709  35.618   8.028
 1199POPC   C4B18118   6.712  35.753   7.620
 1200POPC   NC318119  42.210  29.873   9.644
 1200POPC   PO418120  42.307  30.505   9.731
 1200POPC   GL118121  42.509  30.066   9.314
 1200POPC   GL218122  42.318  29.699   9.191
 1200POPC   C1A18123  42.434  30.043   8.826
 1200POPC   D2A18124  42.210  30.155   8.418
 1200POPC   C3A18125  42.401  30.108   8.004
 1200POPC   C4A18126  42.337  30.157   7.520
 1200POPC   C1B18127  42.491  29.522   8.838
 1200POPC   C2B18128  42.367  29.673   8.470
 1200POPC   C3B18129  42.363  29.561   8.093
 1200POPC   C4B18130  42.489  29.699   7.714
 1201POPC   NC318131  22.843  15.849   9.833
 1201POPC   PO418132  23.044  16.301   9.385
 1201POPC   GL118133  22.890  16.092   9.064
 1201POPC   GL218134  22.871  15.788   9.235
 1201POPC   C1A18135  22.856  16.075   8.629
 1201POPC   D2A18136  23.016  15.897   8.286
 1201POPC   C3A18137  22.992  16.057   7.886
 1201POPC   C4A18138  23.231  15.877   7.542
 1201POPC   C1B18139  22.771  15.589   8.823
 1201POPC   C2B18140  22.606  15.644   8.385
 1201POPC   C3B18141  22.801  15.545   7.980
 1201POPC   C4B18142  22.789  15.668   7.567
 1202POPC   NC318143  12.208  43.299   9.383
 1202POPC   PO418144  11.755  42.804   9.469
 1202POPC   GL118145  11.989  42.899   9.091
 1202POPC   GL218146  12.339  42.996   8.967
 1202POPC   C1A18147  11.905  43.182   8.759
 1202POPC   D2A18148  12.084  43.113   8.369
 1202POPC   C3A18149  11.942  43.306   8.008
 1202POPC   C4A18150  11.777  43.053   7.683
 1202POPC   C1B18151  12.381  43.396   8.728
 1202POPC   C2B18152  12.282  43.596   8.316
 1202POPC   C3B18153  12.455  43.379   7.950
 1202POPC   C4B18154  12.279  42.991   7.797
 1203POPC   NC318155  17.200  33.203   9.548
 1203POPC   PO418156  17.792  32.934   9.639
 1203POPC   GL118157  17.668  32.966   9.211
 1203POPC   GL218158  17.341  32.892   9.174
 1203POPC   C1A18159  17.550  33.178   8.798
 1203POPC   D2A18160  17.536  33.357   8.365
 1203POPC   C3A18161  17.595  33.202   7.950
 1203POPC   C4A18162  17.273  33.267   7.638
 1203POPC   C1B18163  17.292  32.725   8.769
 1203POPC   C2B18164  17.446  32.844   8.369
 1203POPC   C3B18165  17.188  32.909   8.031
 1203POPC   C4B18166  17.104  32.713   7.668
 1204POPC   NC318167   7.751  12.871   9.555
 1204POPC   PO418168   7.292  12.359   9.513
 1204POPC   GL118169   7.434  12.620   9.164
 1204POPC   GL218170   7.418  13.018   9.162
 1204POPC   C1A18171   7.274  12.766   8.723
 1204POPC   D2A18172   7.082  12.718   8.298
 1204POPC   C3A18173   7.355  12.856   7.914
 1204POPC   C4A18174   7.455  13.076   7.473
 1204POPC   C1B18175   7.756  12.881   8.881
 1204POPC   C2B18176   7.789  12.892   8.467
 1204POPC   C3B18177   7.901  12.731   8.097
 1204POPC   C4B18178   7.863  12.907   7.720
 1205POPC   NC318179  24.276  33.319   9.629
 1205POPC   PO418180  24.642  33.818   9.406
 1205POPC   GL118181  24.337  33.805   9.122
 1205POPC   GL218182  24.300  33.463   9.068
 1205POPC   C1A18183  24.318  33.961   8.703
 1205POPC   D2A18184  24.083  33.939   8.322
 1205POPC   C3A18185  24.272  33.819   7.962
 1205POPC   C4A18186  24.502  34.062   7.724
 1205POPC   C1B18187  24.626  33.567   8.720
 1205POPC   C2B18188  24.651  33.778   8.310
 1205POPC   C3B18189  24.754  33.633   7.874
 1205POPC   C4B18190  24.910  33.365   7.533
 1206POPC   NC318191  10.809  12.345   9.800
 1206POPC   PO418192  10.458  11.777   9.574
 1206POPC   GL118193  10.686  11.851   9.219
 1206POPC   GL218194  10.421  11.987   9.083
 1206POPC   C1A18195  10.740  11.844   8.733
 1206POPC   D2A18196  10.612  12.216   8.492
 1206POPC   C3A18197  10.607  12.200   8.042
 1206POPC   C4A18198  10.512  12.146   7.611
 1206POPC   C1B18199  10.193  12.160   8.785
 1206POPC   C2B18200  10.038  11.977   8.413
 1206POPC   C3B18201  10.134  11.962   7.981
 1206POPC   C4B18202  10.059  11.763   7.604
 1207POPC   NC318203  36.431   8.195   9.503
 1207POPC   PO418204  35.815   8.408   9.373
 1207POPC   GL118205  36.047   8.198   9.151
 1207POPC   GL218206  36.271   8.453   9.110
 1207POPC   C1A18207  36.055   7.974   8.793
 1207POPC   D2A18208  36.244   7.874   8.409
 1207POPC   C3A18209  35.975   7.944   8.073
 1207POPC   C4A18210  36.143   7.880   7.681
 1207POPC   C1B18211  36.476   8.502   8.733
 1207POPC   C2B18212  36.336   8.647   8.350
 1207POPC   C3B18213  36.245   8.393   8.008
 1207POPC   C4B18214  36.410   8.386   7.616
 1208POPC   NC318215   1.206  13.401   9.500
 1208POPC   PO418216   0.844  13.906   9.754
 1208POPC   GL118217   0.932  13.980   9.231
 1208POPC   GL218218   1.272  13.830   9.190
 1208POPC   C1A18219   0.988  13.862   8.754
 1208POPC   D2A18220   1.195  13.574   8.456
 1208POPC   C3A18221   1.105  13.606   8.010
 1208POPC   C4A18222   1.283  13.529   7.602
 1208POPC   C1B18223   1.471  14.053   8.834
 1208POPC   C2B18224   1.328  14.129   8.393
 1208POPC   C3B18225   1.401  14.007   7.947
 1208POPC   C4B18226   1.391  14.005   7.460
 1209POPC   NC318227  44.975  16.448   9.680
 1209POPC   PO418228   0.407  16.934   9.627
 1209POPC   GL118229   0.338  16.890   9.191
 1209POPC   GL218230   0.438  16.617   9.044
 1209POPC   C1A18231   0.493  17.048   8.783
 1209POPC   D2A18232   0.503  16.821   8.390
 1209POPC   C3A18233   0.291  16.942   8.030
 1209POPC   C4A18234   0.404  16.881   7.608
 1209POPC   C1B18235   0.119  16.742   8.718
 1209POPC   C2B18236   0.079  16.555   8.308
 1209POPC   C3B18237   0.238  16.459   7.886
 1209POPC   C4B18238   0.111  16.466   7.457
 1210POPC   NC318239   0.908  30.948   9.290
 1210POPC   PO418240   1.407  30.688   9.635
 1210POPC   GL118241   1.367  30.742   9.208
 1210POPC   GL218242   1.159  30.451   9.102
 1210POPC   C1A18243   1.429  30.680   8.757
 1210POPC   D2A18244   1.155  30.721   8.419
 1210POPC   C3A18245   1.428  30.654   8.113
 1210POPC   C4A18246   1.438  30.743   7.722
 1210POPC   C1B18247   0.916  30.319   8.730
 1210POPC   C2B18248   0.977  30.219   8.281
 1210POPC   C3B18249   0.969  30.519   7.937
 1210POPC   C4B18250   0.972  30.969   7.932
 1211POPC   NC318251  19.373  36.448   9.731
 1211POPC   PO418252  18.702  36.210   9.656
 1211POPC   GL118253  18.958  36.290   9.291
 1211POPC   GL218254  19.103  35.955   9.245
 1211POPC   C1A18255  19.118  36.294   8.865
 1211POPC   D2A18256  19.137  36.102   8.461
 1211POPC   C3A18257  19.194  36.371   8.093
 1211POPC   C4A18258  19.108  36.204   7.685
 1211POPC   C1B18259  18.845  35.824   8.877
 1211POPC   C2B18260  18.636  35.920   8.480
 1211POPC   C3B18261  18.809  35.982   8.056
 1211POPC   C4B18262  18.614  36.016   7.668
 1212POPC   NC318263  31.954  44.891   9.500
 1212POPC   PO418264  32.592  44.598   9.414
 1212POPC   GL118265  32.361  44.813   9.121
 1212POPC   GL218266  32.118  44.541   9.120
 1212POPC   C1A18267  32.215  44.824   8.696
 1212POPC   D2A18268  32.216  44.535   8.389
 1212POPC   C3A18269  32.057  44.734   8.063
 1212POPC   C4A18270  32.188   0.074   7.861
 1212POPC   C1B18271  32.467  44.369   8.812
 1212POPC   C2B18272  32.727  44.493   8.442
 1212POPC   C3B18273  32.597  44.495   8.009
 1212POPC   C4B18274  32.694  44.199   7.685
 1213POPC   NC318275  42.235   2.657   9.636
 1213POPC   PO418276  42.806   2.926   9.448
 1213POPC   GL118277  42.411   2.865   9.184
 1213POPC   GL218278  42.218   3.134   9.067
 1213POPC   C1A18279  42.200   2.661   8.801
 1213POPC   D2A18280  41.879   2.490   8.499
 1213POPC   C3A18281  42.086   2.520   8.113
 1213POPC   C4A18282  42.432   2.666   7.881
 1213POPC   C1B18283  42.465   3.104   8.723
 1213POPC   C2B18284  42.466   2.931   8.340
 1213POPC   C3B18285  42.351   3.170   8.004
 1213POPC   C4B18286  42.288   3.074   7.606
 1214POPC   NC318287  37.130  37.769   9.760
 1214POPC   PO418288  36.669  37.444   9.443
 1214POPC   GL118289  36.944  37.618   9.143
 1214POPC   GL218290  37.242  37.466   9.297
 1214POPC   C1A18291  36.805  37.772   8.714
 1214POPC   D2A18292  36.547  37.642   8.347
 1214POPC   C3A18293  36.809  37.745   7.984
 1214POPC   C4A18294  37.139  37.958   7.828
 1214POPC   C1B18295  37.268  37.330   8.869
 1214POPC   C2B18296  37.132  37.450   8.439
 1214POPC   C3B18297  37.289  37.381   8.013
 1214POPC   C4B18298  37.088  37.278   7.645
 1215POPC   NC318299  19.991  37.211   9.540
 1215POPC   PO418300  20.093  36.628   9.311
 1215POPC   GL118301  19.972  36.839   8.904
 1215POPC   GL218302  19.604  37.019   8.873
 1215POPC   C1A18303  19.745  36.713   8.505
 1215POPC   D2A18304  19.562  36.741   8.097
 1215POPC   C3A18305  19.887  36.847   7.806
 1215POPC   C4A18306  20.300  36.837   7.909
 1215POPC   C1B18307  19.885  37.234   8.623
 1215POPC   C2B18308  20.002  37.094   8.247
 1215POPC   C3B18309  19.978  37.344   7.907
 1215POPC   C4B18310  19.820  37.345   7.478
 1216POPC   NC318311  18.323  36.206   9.981
 1216POPC   PO418312  17.868  36.552   9.557
 1216POPC   GL118313  18.160  36.421   9.219
 1216POPC   GL218314  18.437  36.142   9.214
 1216POPC   C1A18315  18.090  36.289   8.815
 1216POPC   D2A18316  18.245  36.402   8.425
 1216POPC   C3A18317  18.034  36.331   8.069
 1216POPC   C4A18318  18.241  36.355   7.711
 1216POPC   C1B18319  18.298  35.834   8.884
 1216POPC   C2B18320  18.117  35.911   8.447
 1216POPC   C3B18321  18.266  35.844   8.018
 1216POPC   C4B18322  18.107  35.867   7.580
 1217POPC   NC318323  16.820  26.274   9.478
 1217POPC   PO418324  16.234  25.947   9.329
 1217POPC   GL118325  16.627  25.875   9.186
 1217POPC   GL218326  16.612  26.188   9.026
 1217POPC   C1A18327  16.663  25.766   8.765
 1217POPC   D2A18328  16.447  25.704   8.395
 1217POPC   C3A18329  16.686  25.847   8.069
 1217POPC   C4A18330  16.844  25.845   7.640
 1217POPC   C1B18331  16.904  26.234   8.707
 1217POPC   C2B18332  17.134  26.291   8.297
 1217POPC   C3B18333  16.845  26.302   7.891
 1217POPC   C4B18334  16.741  26.331   7.423
 1218POPC   NC318335   9.907  40.165   9.695
 1218POPC   PO418336   9.947  39.523   9.466
 1218POPC   GL118337   9.990  39.935   9.211
 1218POPC   GL218338   9.684  40.154   9.221
 1218POPC   C1A18339   9.907  39.994   8.744
 1218POPC   D2A18340   9.928  39.793   8.338
 1218POPC   C3A18341   9.810  39.978   7.924
 1218POPC   C4A18342  10.058  39.872   7.565
 1218POPC   C1B18343   9.537  39.771   9.019
 1218POPC   C2B18344   9.469  39.741   8.590
 1218POPC   C3B18345   9.415  39.753   8.169
 1218POPC   C4B18346   9.219  39.970   7.834
 1219POPC   NC318347  21.693  28.532   9.559
 1219POPC   PO418348  21.251  28.025   9.571
 1219POPC   GL118349  21.323  28.241   9.223
 1219POPC   GL218350  21.363  28.581   9.187
 1219POPC   C1A18351  21.241  28.188   8.817
 1219POPC   D2A18352  21.421  28.280   8.454
 1219POPC   C3A18353  21.265  28.207   8.082
 1219POPC   C4A18354  21.370  28.165   7.689
 1219POPC   C1B18355  21.663  28.487   8.856
 1219POPC   C2B18356  21.874  28.555   8.462
 1219POPC   C3B18357  21.766  28.405   8.062
 1219POPC   C4B18358  21.867  28.093   7.779
 1220POPC   NC318359   6.541  30.291   9.396
 1220POPC   PO418360   6.849  29.650   9.316
 1220POPC   GL118361   6.562  29.888   9.086
 1220POPC   GL218362   6.871  30.095   9.014
 1220POPC   C1A18363   6.473  30.111   8.698
 1220POPC   D2A18364   6.578  29.925   8.288
 1220POPC   C3A18365   6.542  30.124   7.906
 1220POPC   C4A18366   6.551  29.998   7.502
 1220POPC   C1B18367   6.858  29.725   8.684
 1220POPC   C2B18368   7.004  29.639   8.266
 1220POPC   C3B18369   6.846  29.668   7.849
 1220POPC   C4B18370   6.864  29.632   7.360
 1221POPC   NC318371  16.469  34.797   9.680
 1221POPC   PO418372  16.709  35.478   9.645
 1221POPC   GL118373  16.588  35.338   9.249
 1221POPC   GL218374  16.743  35.029   9.298
 1221POPC   C1A18375  16.675  35.475   8.824
 1221POPC   D2A18376  16.767  35.693   8.435
 1221POPC   C3A18377  16.766  35.690   7.991
 1221POPC   C4A18378  16.572  35.441   7.725
 1221POPC   C1B18379  16.939  34.988   8.891
 1221POPC   C2B18380  16.938  35.170   8.493
 1221POPC   C3B18381  16.833  35.085   8.101
 1221POPC   C4B18382  17.035  35.073   7.714
 1222POPC   NC318383  26.965  38.435   9.644
 1222POPC   PO418384  26.924  37.803   9.560
 1222POPC   GL118385  26.749  37.984   9.184
 1222POPC   GL218386  27.017  38.197   9.161
 1222POPC   C1A18387  26.590  38.325   8.855
 1222POPC   D2A18388  26.754  38.645   8.507
 1222POPC   C3A18389  26.756  38.526   8.054
 1222POPC   C4A18390  26.757  38.711   7.663
 1222POPC   C1B18391  27.083  38.313   8.747
 1222POPC   C2B18392  26.939  38.155   8.351
 1222POPC   C3B18393  26.850  38.026   7.908
 1222POPC   C4B18394  26.944  38.252   7.498
 1223POPC   NC318395  34.929  31.515   9.562
 1223POPC   PO418396  35.423  31.799   9.446
 1223POPC   GL118397  35.334  31.444   9.136
 1223POPC   GL218398  35.044  31.171   9.201
 1223POPC   C1A18399  35.408  31.460   8.647
 1223POPC   D2A18400  35.613  31.757   8.345
 1223POPC   C3A18401  35.421  31.847   7.939
 1223POPC   C4A18402  35.483  31.634   7.574
 1223POPC   C1B18403  34.962  31.032   8.802
 1223POPC   C2B18404  35.008  31.199   8.430
 1223POPC   C3B18405  35.281  31.396   8.130
 1223POPC   C4B18406  35.118  31.278   7.703
 1224POPC   NC318407  24.190  42.339   9.555
 1224POPC   PO418408  24.793  42.136   9.403
 1224POPC   GL118409  24.579  42.427   9.144
 1224POPC   GL218410  24.275  42.228   9.078
 1224POPC   C1A18411  24.495  42.486   8.694
 1224POPC   D2A18412  24.214  42.496   8.314
 1224POPC   C3A18413  24.401  42.549   7.882
 1224POPC   C4A18414  24.215  42.726   7.476
 1224POPC   C1B18415  24.347  41.992   8.705
 1224POPC   C2B18416  24.105  41.961   8.350
 1224POPC   C3B18417  24.189  42.050   7.944
 1224POPC   C4B18418  24.011  41.935   7.558
 1225POPC   NC318419  44.534  13.253   9.598
 1225POPC   PO418420  44.905  13.721   9.536
 1225POPC   GL118421  44.622  13.677   9.179
 1225POPC   GL218422  44.347  13.922   9.222
 1225POPC   C1A18423  44.613  13.587   8.711
 1225POPC   D2A18424  44.868  13.820   8.367
 1225POPC   C3A18425  44.936  13.632   7.915
 1225POPC   C4A18426  44.869  13.219   7.711
 1225POPC   C1B18427  44.579  14.073   8.817
 1225POPC   C2B18428  44.465  14.145   8.391
 1225POPC   C3B18429  44.465  13.876   8.034
 1225POPC   C4B18430  44.445  13.516   7.735
 1226POPC   NC318431   4.243   0.065  10.073
 1226POPC   PO418432   4.461   0.191   9.383
 1226POPC   GL118433   4.609   0.477   9.036
 1226POPC   GL218434   4.445   0.799   9.029
 1226POPC   C1A18435   4.430   0.559   8.591
 1226POPC   D2A18436   4.012   0.524   8.349
 1226POPC   C3A18437   4.120   0.424   7.903
 1226POPC   C4A18438   4.566   0.275   7.814
 1226POPC   C1B18439   4.141   0.963   8.739
 1226POPC   C2B18440   4.275   0.982   8.330
 1226POPC   C3B18441   4.497   0.787   8.007
 1226POPC   C4B18442   4.315   0.824   7.610
 1227POPC   NC318443  25.490  17.951   9.612
 1227POPC   PO418444  25.028  17.437   9.527
 1227POPC   GL118445  25.236  17.516   9.158
 1227POPC   GL218446  25.520  17.726   9.137
 1227POPC   C1A18447  25.294  17.342   8.764
 1227POPC   D2A18448  25.451  17.346   8.367
 1227POPC   C3A18449  25.225  17.420   7.958
 1227POPC   C4A18450  25.274  17.470   7.470
 1227POPC   C1B18451  25.286  17.856   8.788
 1227POPC   C2B18452  25.401  17.840   8.405
 1227POPC   C3B18453  25.153  17.936   8.099
 1227POPC   C4B18454  25.304  17.895   7.725
 1228POPC   NC318455  23.778   2.484   9.390
 1228POPC   PO418456  23.329   2.929   9.435
 1228POPC   GL118457  23.436   2.749   9.063
 1228POPC   GL218458  23.293   2.415   9.155
 1228POPC   C1A18459  23.651   2.913   8.673
 1228POPC   D2A18460  23.969   2.847   8.323
 1228POPC   C3A18461  23.859   2.919   7.875
 1228POPC   C4A18462  23.767   2.641   7.522
 1228POPC   C1B18463  23.157   2.483   8.727
 1228POPC   C2B18464  23.245   2.745   8.374
 1228POPC   C3B18465  23.436   2.611   7.988
 1228POPC   C4B18466  23.274   2.509   7.603
 1229POPC   NC318467  21.721  41.572   9.290
 1229POPC   PO418468  21.185  41.951   9.546
 1229POPC   GL118469  21.220  41.685   9.084
 1229POPC   GL218470  21.278  41.297   9.094
 1229POPC   C1A18471  21.209  41.545   8.636
 1229POPC   D2A18472  21.116  41.627   8.187
 1229POPC   C3A18473  21.511  41.647   8.005
 1229POPC   C4A18474  21.920  41.555   7.863
 1229POPC   C1B18475  21.087  41.033   8.740
 1229POPC   C2B18476  21.147  41.109   8.288
 1229POPC   C3B18477  21.185  41.222   7.867
 1229POPC   C4B18478  21.011  41.335   7.477
 1230POPC   NC318479  18.681  42.749   9.467
 1230POPC   PO418480  19.162  43.256   9.522
 1230POPC   GL118481  19.075  43.000   9.177
 1230POPC   GL218482  19.417  42.964   9.141
 1230POPC   C1A18483  18.897  43.058   8.749
 1230POPC   D2A18484  18.902  43.241   8.316
 1230POPC   C3A18485  19.069  42.951   7.995
 1230POPC   C4A18486  19.232  42.873   7.564
 1230POPC   C1B18487  19.326  43.372   8.889
 1230POPC   C2B18488  19.331  43.547   8.462
 1230POPC   C3B18489  19.284  43.424   8.009
 1230POPC   C4B18490  19.209  43.370   7.553
 1231POPC   NC318491  27.696  14.950   9.720
 1231POPC   PO418492  27.222  15.456   9.604
 1231POPC   GL118493  27.474  15.188   9.291
 1231POPC   GL218494  27.845  15.226   9.304
 1231POPC   C1A18495  27.537  15.078   8.826
 1231POPC   D2A18496  27.354  15.163   8.375
 1231POPC   C3A18497  27.384  14.921   7.957
 1231POPC   C4A18498  27.293  14.895   7.477
 1231POPC   C1B18499  27.953  15.381   8.899
 1231POPC   C2B18500  27.931  15.268   8.468
 1231POPC   C3B18501  27.791  15.191   8.092
 1231POPC   C4B18502  27.557  15.429   7.820
 1232POPC   NC318503  43.959  22.606   9.505
 1232POPC   PO418504  43.641  23.268   9.526
 1232POPC   GL118505  43.672  23.188   9.116
 1232POPC   GL218506  43.907  22.913   9.081
 1232POPC   C1A18507  43.839  23.261   8.691
 1232POPC   D2A18508  44.051  22.969   8.437
 1232POPC   C3A18509  44.043  23.153   8.030
 1232POPC   C4A18510  44.194  23.002   7.643
 1232POPC   C1B18511  43.602  22.824   8.748
 1232POPC   C2B18512  43.610  22.712   8.327
 1232POPC   C3B18513  43.759  22.722   7.929
 1232POPC   C4B18514  43.592  23.044   7.715
 1233POPC   NC318515   6.832   6.132   9.543
 1233POPC   PO418516   6.369   5.589   9.594
 1233POPC   GL118517   6.610   5.773   9.253
 1233POPC   GL218518   6.281   5.914   9.150
 1233POPC   C1A18519   6.784   6.012   8.864
 1233POPC   D2A18520   7.091   5.930   8.518
 1233POPC   C3A18521   6.888   5.841   8.104
 1233POPC   C4A18522   6.605   6.140   7.895
 1233POPC   C1B18523   6.415   5.654   8.804
 1233POPC   C2B18524   6.466   5.875   8.419
 1233POPC   C3B18525   6.370   5.725   8.042
 1233POPC   C4B18526   6.562   5.400   7.883
 1234POPC   NC318527  32.087  15.078   9.535
 1234POPC   PO418528  32.767  15.085   9.424
 1234POPC   GL118529  32.504  15.292   9.142
 1234POPC   GL218530  32.241  15.528   9.213
 1234POPC   C1A18531  32.596  15.402   8.748
 1234POPC   D2A18532  32.375  15.282   8.418
 1234POPC   C3A18533  32.582  15.213   8.043
 1234POPC   C4A18534  32.445  15.013   7.672
 1234POPC   C1B18535  32.045  15.361   8.825
 1234POPC   C2B18536  31.855  15.328   8.406
 1234POPC   C3B18537  32.065  15.238   8.005
 1234POPC   C4B18538  32.056  15.493   7.646
 1235POPC   NC318539  37.613  27.036   9.626
 1235POPC   PO418540  37.023  26.647   9.599
 1235POPC   GL118541  36.815  26.729   9.189
 1235POPC   GL218542  36.813  27.096   9.054
 1235POPC   C1A18543  36.803  26.597   8.787
 1235POPC   D2A18544  36.768  26.810   8.430
 1235POPC   C3A18545  36.971  26.708   8.069
 1235POPC   C4A18546  36.831  27.041   7.809
 1235POPC   C1B18547  37.149  26.999   8.793
 1235POPC   C2B18548  37.311  26.911   8.377
 1235POPC   C3B18549  37.312  27.112   7.976
 1235POPC   C4B18550  37.249  26.936   7.552
 1236POPC   NC318551  39.116   3.639   9.460
 1236POPC   PO418552  39.613   3.126   9.381
 1236POPC   GL118553  39.419   3.427   9.108
 1236POPC   GL218554  39.348   3.807   9.037
 1236POPC   C1A18555  39.531   3.479   8.692
 1236POPC   D2A18556  39.237   3.548   8.387
 1236POPC   C3A18557  39.416   3.585   8.005
 1236POPC   C4A18558  39.261   3.349   7.658
 1236POPC   C1B18559  38.977   3.753   8.788
 1236POPC   C2B18560  38.765   3.745   8.401
 1236POPC   C3B18561  38.883   3.611   8.007
 1236POPC   C4B18562  39.094   3.821   7.691
 1237POPC   NC318563  25.647  37.824   9.434
 1237POPC   PO418564  26.147  37.446   9.772
 1237POPC   GL118565  26.063  37.405   9.330
 1237POPC   GL218566  26.115  37.746   9.216
 1237POPC   C1A18567  26.128  37.374   8.874
 1237POPC   D2A18568  26.071  37.571   8.455
 1237POPC   C3A18569  26.097  37.391   8.031
 1237POPC   C4A18570  26.267  37.668   7.729
 1237POPC   C1B18571  25.888  37.874   8.831
 1237POPC   C2B18572  25.669  37.969   8.434
 1237POPC   C3B18573  25.834  37.851   8.030
 1237POPC   C4B18574  25.670  37.964   7.645
 1238POPC   NC318575  35.167  43.158   9.662
 1238POPC   PO418576  35.830  42.967   9.567
 1238POPC   GL118577  35.587  42.962   9.176
 1238POPC   GL218578  35.220  43.049   9.178
 1238POPC   C1A18579  35.465  42.911   8.751
 1238POPC   D2A18580  35.514  43.109   8.384
 1238POPC   C3A18581  35.379  42.954   8.005
 1238POPC   C4A18582  35.600  43.229   7.743
 1238POPC   C1B18583  35.164  43.350   8.832
 1238POPC   C2B18584  35.041  43.304   8.405
 1238POPC   C3B18585  35.180  43.411   7.985
 1238POPC   C4B18586  35.150  43.251   7.534
 1239POPC   NC318587  15.157  37.373   9.375
 1239POPC   PO418588  14.881  37.975   9.607
 1239POPC   GL118589  15.023  37.832   9.186
 1239POPC   GL218590  14.979  37.524   8.925
 1239POPC   C1A18591  15.177  37.980   8.793
 1239POPC   D2A18592  15.367  37.874   8.398
 1239POPC   C3A18593  15.062  37.894   8.058
 1239POPC   C4A18594  14.988  37.644   7.707
 1239POPC   C1B18595  15.158  37.241   8.644
 1239POPC   C2B18596  15.328  37.380   8.242
 1239POPC   C3B18597  15.348  37.304   7.836
 1239POPC   C4B18598  15.004  37.118   7.650
 1240POPC   NC318599  13.321  40.847   9.451
 1240POPC   PO418600  12.787  40.428   9.498
 1240POPC   GL118601  12.913  40.648   9.154
 1240POPC   GL218602  12.619  40.728   8.997
 1240POPC   C1A18603  13.059  40.784   8.742
 1240POPC   D2A18604  12.883  40.965   8.342
 1240POPC   C3A18605  12.962  40.856   7.917
 1240POPC   C4A18606  12.992  40.878   7.466
 1240POPC   C1B18607  12.642  41.088   8.795
 1240POPC   C2B18608  12.491  41.280   8.420
 1240POPC   C3B18609  12.621  41.275   8.013
 1240POPC   C4B18610  12.549  41.047   7.638
 1241POPC   NC318611  20.936  44.935   9.308
 1241POPC   PO418612  21.268   0.445   9.681
 1241POPC   GL118613  21.270   0.330   9.270
 1241POPC   GL218614  21.573   0.465   9.233
 1241POPC   C1A18615  21.189   0.429   8.831
 1241POPC   D2A18616  21.025   0.316   8.418
 1241POPC   C3A18617  21.153   0.498   8.017
 1241POPC   C4A18618  21.334   0.283   7.626
 1241POPC   C1B18619  21.683   0.543   8.810
 1241POPC   C2B18620  21.557   0.313   8.441
 1241POPC   C3B18621  21.639   0.386   8.040
 1241POPC   C4B18622  21.830   0.555   7.710
 1242POPC   NC318623   5.153  15.820   9.552
 1242POPC   PO418624   4.534  16.107   9.750
 1242POPC   GL118625   4.726  15.883   9.299
 1242POPC   GL218626   5.000  16.134   9.161
 1242POPC   C1A18627   5.027  15.729   8.877
 1242POPC   D2A18628   5.172  15.915   8.434
 1242POPC   C3A18629   5.302  15.665   8.041
 1242POPC   C4A18630   5.139  15.495   7.640
 1242POPC   C1B18631   4.761  16.147   8.730
 1242POPC   C2B18632   4.716  16.173   8.304
 1242POPC   C3B18633   4.902  16.030   7.937
 1242POPC   C4B18634   4.907  15.908   7.508
 1243POPC   NC318635  18.859  32.992   9.764
 1243POPC   PO418636  19.097  33.556   9.542
 1243POPC   GL118637  19.084  33.101   9.313
 1243POPC   GL218638  19.443  33.066   9.285
 1243POPC   C1A18639  19.054  32.905   8.857
 1243POPC   D2A18640  18.842  32.968   8.392
 1243POPC   C3A18641  18.982  32.945   7.982
 1243POPC   C4A18642  18.793  32.998   7.543
 1243POPC   C1B18643  19.524  33.151   8.846
 1243POPC   C2B18644  19.318  33.134   8.452
 1243POPC   C3B18645  19.399  33.252   8.026
 1243POPC   C4B18646  19.211  33.276   7.662
 1244POPC   NC318647  36.075  27.829   9.328
 1244POPC   PO418648  36.587  27.483   9.490
 1244POPC   GL118649  36.360  27.476   9.075
 1244POPC   GL218650  36.580  27.723   8.979
 1244POPC   C1A18651  36.040  27.497   8.673
 1244POPC   D2A18652  35.981  27.326   8.222
 1244POPC   C3A18653  36.054  27.584   7.830
 1244POPC   C4A18654  35.899  27.520   7.359
 1244POPC   C1B18655  36.529  27.412   8.593
 1244POPC   C2B18656  36.493  27.476   8.135
 1244POPC   C3B18657  36.526  27.413   7.680
 1244POPC   C4B18658  36.347  27.297   7.288
 1245POPC   NC318659  32.996   1.671   9.431
 1245POPC   PO418660  33.256   2.243   9.373
 1245POPC   GL118661  32.983   2.051   9.032
 1245POPC   GL218662  32.922   1.687   8.940
 1245POPC   C1A18663  33.073   2.052   8.598
 1245POPC   D2A18664  32.962   2.321   8.292
 1245POPC   C3A18665  33.065   2.213   7.898
 1245POPC   C4A18666  33.258   1.890   7.711
 1245POPC   C1B18667  32.724   1.688   8.541
 1245POPC   C2B18668  32.890   1.785   8.156
 1245POPC   C3B18669  32.729   1.863   7.782
 1245POPC   C4B18670  32.900   1.809   7.364
 1246POPC   NC318671   7.952  18.381   9.709
 1246POPC   PO418672   8.397  18.020   9.725
 1246POPC   GL118673   8.338  18.246   9.288
 1246POPC   GL218674   8.006  18.407   9.199
 1246POPC   C1A18675   8.431  18.128   8.809
 1246POPC   D2A18676   8.202  18.012   8.385
 1246POPC   C3A18677   8.411  18.027   7.971
 1246POPC   C4A18678   8.570  18.368   7.711
 1246POPC   C1B18679   7.972  18.316   8.751
 1246POPC   C2B18680   7.715  18.201   8.388
 1246POPC   C3B18681   7.900  18.377   8.078
 1246POPC   C4B18682   8.062  18.349   7.712
 1247POPC   NC318683   8.168  24.037   9.387
 1247POPC   PO418684   8.399  23.430   9.565
 1247POPC   GL118685   8.282  23.489   9.141
 1247POPC   GL218686   7.941  23.564   9.102
 1247POPC   C1A18687   8.258  23.655   8.714
 1247POPC   D2A18688   8.041  23.667   8.308
 1247POPC   C3A18689   8.286  23.625   7.905
 1247POPC   C4A18690   8.139  23.521   7.460
 1247POPC   C1B18691   7.779  23.795   8.764
 1247POPC   C2B18692   7.767  24.106   8.448
 1247POPC   C3B18693   7.887  24.053   8.021
 1247POPC   C4B18694   7.788  23.683   7.814
 1248POPC   NC318695   6.155   5.194   9.444
 1248POPC   PO418696   5.551   4.792   9.508
 1248POPC   GL118697   5.652   4.742   9.105
 1248POPC   GL218698   5.940   4.910   9.117
 1248POPC   C1A18699   5.733   4.923   8.677
 1248POPC   D2A18700   5.849   4.693   8.344
 1248POPC   C3A18701   5.753   4.857   7.963
 1248POPC   C4A18702   5.711   5.262   7.774
 1248POPC   C1B18703   6.187   5.165   8.774
 1248POPC   C2B18704   6.107   5.463   8.441
 1248POPC   C3B18705   6.124   5.227   8.083
 1248POPC   C4B18706   6.205   5.025   7.719
 1249POPC   NC318707  44.520   1.320   9.455
 1249POPC   PO418708   0.201   1.271   9.325
 1249POPC   GL118709  44.888   1.056   9.087
 1249POPC   GL218710  44.775   1.408   9.030
 1249POPC   C1A18711  44.987   0.840   8.696
 1249POPC   D2A18712  44.981   1.115   8.333
 1249POPC   C3A18713  44.680   1.122   7.997
 1249POPC   C4A18714  44.859   1.419   7.728
 1249POPC   C1B18715  44.555   1.198   8.713
 1249POPC   C2B18716  44.535   1.444   8.375
 1249POPC   C3B18717  44.436   1.576   7.993
 1249POPC   C4B18718  44.382   1.476   7.561
 1250POPC   NC318719   7.751  31.352   9.532
 1250POPC   PO418720   8.300  31.672   9.588
 1250POPC   GL118721   8.230  31.421   9.232
 1250POPC   GL218722   7.958  31.586   9.081
 1250POPC   C1A18723   8.490  31.224   8.928
 1250POPC   D2A18724   8.518  31.096   8.504
 1250POPC   C3A18725   8.330  31.330   8.134
 1250POPC   C4A18726   8.190  31.249   7.688
 1250POPC   C1B18727   8.152  31.497   8.661
 1250POPC   C2B18728   8.119  31.775   8.292
 1250POPC   C3B18729   7.935  31.710   7.890
 1250POPC   C4B18730   7.914  31.711   7.428
 1251POPC   NC318731  22.226   5.547   9.544
 1251POPC   PO418732  21.745   6.032   9.561
 1251POPC   GL118733  21.939   6.011   9.170
 1251POPC   GL218734  21.869   5.672   9.207
 1251POPC   C1A18735  22.278   5.878   8.878
 1251POPC   D2A18736  22.316   5.724   8.450
 1251POPC   C3A18737  22.182   5.955   8.070
 1251POPC   C4A18738  22.400   5.988   7.705
 1251POPC   C1B18739  21.834   5.624   8.792
 1251POPC   C2B18740  21.819   5.729   8.384
 1251POPC   C3B18741  21.837   5.591   7.968
 1251POPC   C4B18742  21.946   5.813   7.597
 1252POPC   NC318743  20.085   2.883   9.535
 1252POPC   PO418744  19.518   2.579   9.597
 1252POPC   GL118745  19.787   2.540   9.227
 1252POPC   GL218746  19.771   2.875   9.108
 1252POPC   C1A18747  19.861   2.460   8.768
 1252POPC   D2A18748  19.829   2.235   8.346
 1252POPC   C3A18749  19.850   2.489   7.955
 1252POPC   C4A18750  19.735   2.931   7.828
 1252POPC   C1B18751  20.003   2.947   8.686
 1252POPC   C2B18752  20.060   2.776   8.310
 1252POPC   C3B18753  20.229   2.882   7.927
 1252POPC   C4B18754  20.301   3.141   7.554
 1253POPC   NC318755  21.637  31.481   9.554
 1253POPC   PO418756  20.950  31.311   9.436
 1253POPC   GL118757  21.268  31.514   9.193
 1253POPC   GL218758  21.511  31.245   9.122
 1253POPC   C1A18759  21.495  31.729   8.867
 1253POPC   D2A18760  21.634  31.723   8.441
 1253POPC   C3A18761  21.358  31.614   8.095
 1253POPC   C4A18762  21.381  31.776   7.671
 1253POPC   C1B18763  21.358  31.293   8.675
 1253POPC   C2B18764  21.108  31.151   8.335
 1253POPC   C3B18765  21.277  30.983   7.967
 1253POPC   C4B18766  21.432  31.263   7.693
 1254POPC   NC318767  27.316  24.804   9.339
 1254POPC   PO418768  27.873  25.192   9.485
 1254POPC   GL118769  27.718  25.112   9.131
 1254POPC   GL218770  27.469  25.360   9.179
 1254POPC   C1A18771  27.490  25.051   8.758
 1254POPC   D2A18772  27.367  25.279   8.433
 1254POPC   C3A18773  27.593  25.203   8.058
 1254POPC   C4A18774  27.747  25.410   7.705
 1254POPC   C1B18775  27.720  25.515   8.816
 1254POPC   C2B18776  27.821  25.549   8.404
 1254POPC   C3B18777  27.524  25.705   8.148
 1254POPC   C4B18778  27.472  25.875   7.798
 1255POPC   NC318779  30.145  23.260   9.597
 1255POPC   PO418780  29.996  22.603   9.524
 1255POPC   GL118781  30.067  22.897   9.203
 1255POPC   GL218782  29.861  23.222   9.176
 1255POPC   C1A18783  30.028  22.769   8.787
 1255POPC   D2A18784  30.140  22.838   8.391
 1255POPC   C3A18785  29.847  22.895   8.087
 1255POPC   C4A18786  30.001  23.032   7.740
 1255POPC   C1B18787  30.078  23.275   8.781
 1255POPC   C2B18788  29.930  23.318   8.372
 1255POPC   C3B18789  30.174  23.395   8.038
 1255POPC   C4B18790  30.197  23.460   7.583
 1256POPC   NC318791  11.304  43.478   9.479
 1256POPC   PO418792  11.416  44.158   9.546
 1256POPC   GL118793  11.294  43.982   9.187
 1256POPC   GL218794  11.035  44.212   9.099
 1256POPC   C1A18795  11.379  44.001   8.764
 1256POPC   D2A18796  11.237  43.795   8.404
 1256POPC   C3A18797  11.398  43.921   7.978
 1256POPC   C4A18798  11.450  43.976   7.525
 1256POPC   C1B18799  10.692  44.300   8.798
 1256POPC   C2B18800  10.659  44.239   8.386
 1256POPC   C3B18801  10.940  44.101   8.115
 1256POPC   C4B18802  11.080  44.243   7.732
 1257POPC   NC318803   6.834  22.943   9.387
 1257POPC   PO418804   6.161  22.789   9.509
 1257POPC   GL118805   6.391  22.728   9.154
 1257POPC   GL218806   6.415  23.073   9.113
 1257POPC   C1A18807   6.667  22.773   8.779
 1257POPC   D2A18808   6.728  22.958   8.362
 1257POPC   C3A18809   6.514  22.848   7.970
 1257POPC   C4A18810   6.758  22.736   7.585
 1257POPC   C1B18811   6.632  23.293   8.796
 1257POPC   C2B18812   6.538  23.552   8.457
 1257POPC   C3B18813   6.561  23.354   8.064
 1257POPC   C4B18814   6.581  23.237   7.617
 1258POPC   NC318815  38.835  32.451   9.576
 1258POPC   PO418816  39.405  32.195   9.646
 1258POPC   GL118817  39.193  32.137   9.245
 1258POPC   GL218818  39.529  32.003   9.151
 1258POPC   C1A18819  38.973  32.364   8.907
 1258POPC   D2A18820  39.109  32.665   8.585
 1258POPC   C3A18821  39.191  32.521   8.148
 1258POPC   C4A18822  39.158  32.126   7.891
 1258POPC   C1B18823  39.385  32.094   8.738
 1258POPC   C2B18824  39.393  31.906   8.323
 1258POPC   C3B18825  39.653  31.976   7.979
 1258POPC   C4B18826  39.597  32.322   7.729
 1259POPC   NC318827  27.633  35.814   9.586
 1259POPC   PO418828  27.535  36.500   9.695
 1259POPC   GL118829  27.706  36.367   9.265
 1259POPC   GL218830  27.591  36.059   9.133
 1259POPC   C1A18831  27.638  36.500   8.822
 1259POPC   D2A18832  27.267  36.448   8.535
 1259POPC   C3A18833  27.418  36.324   8.108
 1259POPC   C4A18834  27.640  36.392   7.662
 1259POPC   C1B18835  27.477  36.025   8.693
 1259POPC   C2B18836  27.639  35.897   8.302
 1259POPC   C3B18837  27.592  35.926   7.851
 1259POPC   C4B18838  27.230  35.773   7.723
 1260POPC   NC318839   5.290  32.125   9.508
 1260POPC   PO418840   4.662  32.424   9.611
 1260POPC   GL118841   4.839  32.312   9.241
 1260POPC   GL218842   5.012  32.028   9.093
 1260POPC   C1A18843   4.911  32.498   8.865
 1260POPC   D2A18844   5.226  32.569   8.586
 1260POPC   C3A18845   5.194  32.409   8.168
 1260POPC   C4A18846   5.001  32.369   7.778
 1260POPC   C1B18847   5.149  32.054   8.646
 1260POPC   C2B18848   5.015  31.891   8.229
 1260POPC   C3B18849   4.807  31.733   7.858
 1260POPC   C4B18850   4.948  31.908   7.491
 1261POPC   NC318851  23.098  12.300   9.439
 1261POPC   PO418852  22.936  12.982   9.458
 1261POPC   GL118853  23.045  13.014   9.076
 1261POPC   GL218854  23.050  12.638   9.059
 1261POPC   C1A18855  22.960  13.062   8.654
 1261POPC   D2A18856  23.119  12.772   8.382
 1261POPC   C3A18857  23.236  12.899   7.989
 1261POPC   C4A18858  23.397  13.068   7.645
 1261POPC   C1B18859  22.769  12.597   8.744
 1261POPC   C2B18860  22.573  12.804   8.407
 1261POPC   C3B18861  22.766  13.094   8.146
 1261POPC   C4B18862  22.895  13.175   7.724
 1262POPC   NC318863  31.236  44.904   9.654
 1262POPC   PO418864  31.709  44.471   9.552
 1262POPC   GL118865  31.536  44.798   9.230
 1262POPC   GL218866  31.187  44.928   9.147
 1262POPC   C1A18867  31.737  44.791   8.859
 1262POPC   D2A18868  31.728  44.504   8.535
 1262POPC   C3A18869  31.463  44.563   8.195
 1262POPC   C4A18870  31.686  44.476   7.845
 1262POPC   C1B18871  31.257  44.700   8.727
 1262POPC   C2B18872  31.119  44.918   8.342
 1262POPC   C3B18873  31.070  44.858   7.904
 1262POPC   C4B18874  31.342  44.710   7.574
 1263POPC   NC318875   7.791  11.370   9.376
 1263POPC   PO418876   7.131  11.387   9.684
 1263POPC   GL118877   7.124  11.162   9.190
 1263POPC   GL218878   7.453  11.115   9.057
 1263POPC   C1A18879   7.101  11.367   8.781
 1263POPC   D2A18880   7.388  11.281   8.498
 1263POPC   C3A18881   7.175  11.286   8.140
 1263POPC   C4A18882   7.238  11.564   7.797
 1263POPC   C1B18883   7.755  11.010   8.733
 1263POPC   C2B18884   7.843  11.030   8.270
 1263POPC   C3B18885   7.630  11.208   7.880
 1263POPC   C4B18886   7.716  11.107   7.428
 1264POPC   NC318887  28.256  21.436   9.690
 1264POPC   PO418888  28.395  20.750   9.750
 1264POPC   GL118889  28.504  21.135   9.370
 1264POPC   GL218890  28.455  21.481   9.231
 1264POPC   C1A18891  28.399  21.151   8.853
 1264POPC   D2A18892  28.289  21.428   8.498
 1264POPC   C3A18893  28.280  21.263   8.065
 1264POPC   C4A18894  28.280  21.050   7.646
 1264POPC   C1B18895  28.639  21.614   8.852
 1264POPC   C2B18896  28.804  21.406   8.470
 1264POPC   C3B18897  28.732  21.484   8.025
 1264POPC   C4B18898  28.723  21.315   7.613
 1265POPC   NC318899  28.861  17.822   9.394
 1265POPC   PO418900  29.472  17.532   9.425
 1265POPC   GL118901  29.191  17.408   9.126
 1265POPC   GL218902  28.932  17.183   9.220
 1265POPC   C1A18903  28.949  17.545   8.814
 1265POPC   D2A18904  28.851  17.723   8.435
 1265POPC   C3A18905  29.097  17.636   8.089
 1265POPC   C4A18906  28.987  17.819   7.694
 1265POPC   C1B18907  28.765  17.074   8.845
 1265POPC   C2B18908  28.921  17.184   8.456
 1265POPC   C3B18909  28.852  17.168   8.057
 1265POPC   C4B18910  29.037  17.261   7.704
 1266POPC   NC318911  44.934  14.134   9.343
 1266POPC   PO418912  44.475  14.623   9.571
 1266POPC   GL118913  44.560  14.429   9.189
 1266POPC   GL218914  44.876  14.554   9.044
 1266POPC   C1A18915  44.414  14.551   8.788
 1266POPC   D2A18916  44.672  14.616   8.422
 1266POPC   C3A18917  44.530  14.528   7.989
 1266POPC   C4A18918  44.481  14.218   7.650
 1266POPC   C1B18919   0.053  14.314   8.675
 1266POPC   C2B18920   0.202  14.200   8.240
 1266POPC   C3B18921  44.908  14.146   7.909
 1266POPC   C4B18922  44.856  13.907   7.492
 1267POPC   NC318923  25.306  13.688   9.412
 1267POPC   PO418924  24.956  13.136   9.238
 1267POPC   GL118925  25.182  13.452   8.978
 1267POPC   GL218926  25.570  13.519   9.019
 1267POPC   C1A18927  25.167  13.830   8.763
 1267POPC   D2A18928  24.989  13.957   8.389
 1267POPC   C3A18929  25.111  13.685   8.135
 1267POPC   C4A18930  25.160  13.546   7.772
 1267POPC   C1B18931  25.690  13.895   8.790
 1267POPC   C2B18932  25.524  13.910   8.371
 1267POPC   C3B18933  25.606  13.701   7.982
 1267POPC   C4B18934  25.620  13.942   7.594
 1268POPC   NC318935  12.144  29.395   9.865
 1268POPC   PO418936  12.083  30.003   9.623
 1268POPC   GL118937  12.090  29.996   9.209
 1268POPC   GL218938  11.895  29.673   9.161
 1268POPC   C1A18939  12.178  30.219   8.852
 1268POPC   D2A18940  11.964  30.109   8.485
 1268POPC   C3A18941  12.203  30.150   8.131
 1268POPC   C4A18942  12.062  30.143   7.733
 1268POPC   C1B18943  12.216  29.710   8.813
 1268POPC   C2B18944  12.313  29.695   8.378
 1268POPC   C3B18945  12.096  29.637   7.980
 1268POPC   C4B18946  12.240  29.644   7.559
 1269POPC   NC318947  33.305  41.700   9.617
 1269POPC   PO418948  33.069  41.147   9.430
 1269POPC   GL118949  33.232  41.458   9.167
 1269POPC   GL218950  33.132  41.813   9.116
 1269POPC   C1A18951  33.123  41.416   8.746
 1269POPC   D2A18952  33.006  41.577   8.351
 1269POPC   C3A18953  33.032  41.334   8.003
 1269POPC   C4A18954  32.736  41.382   7.685
 1269POPC   C1B18955  33.238  41.932   8.668
 1269POPC   C2B18956  33.341  41.959   8.194
 1269POPC   C3B18957  33.344  41.696   7.800
 1269POPC   C4B18958  33.412  41.816   7.331
 1270POPC   NC318959  24.345  34.219   9.482
 1270POPC   PO418960  24.769  34.801   9.545
 1270POPC   GL118961  24.526  34.613   9.231
 1270POPC   GL218962  24.306  34.815   9.146
 1270POPC   C1A18963  24.324  34.452   8.828
 1270POPC   D2A18964  24.161  34.556   8.442
 1270POPC   C3A18965  24.386  34.506   8.055
 1270POPC   C4A18966  24.266  34.494   7.620
 1270POPC   C1B18967  24.576  34.934   8.834
 1270POPC   C2B18968  24.684  34.777   8.452
 1270POPC   C3B18969  24.820  34.829   8.051
 1270POPC   C4B18970  24.547  34.909   7.703
 1271POPC   NC318971   1.893  22.067   9.617
 1271POPC   PO418972   2.436  22.358   9.696
 1271POPC   GL118973   2.242  22.195   9.272
 1271POPC   GL218974   1.957  22.350   9.208
 1271POPC   C1A18975   2.171  22.050   8.813
 1271POPC   D2A18976   2.189  21.822   8.403
 1271POPC   C3A18977   2.053  22.093   8.045
 1271POPC   C4A18978   2.000  22.540   7.967
 1271POPC   C1B18979   1.888  22.487   8.839
 1271POPC   C2B18980   1.841  22.311   8.457
 1271POPC   C3B18981   1.556  22.363   8.152
 1271POPC   C4B18982   1.584  22.382   7.715
 1272POPC   NC318983  41.078  12.330   9.399
 1272POPC   PO418984  40.482  12.010   9.497
 1272POPC   GL118985  40.667  11.971   9.092
 1272POPC   GL218986  41.016  11.962   9.070
 1272POPC   C1A18987  40.639  11.741   8.695
 1272POPC   D2A18988  40.477  11.962   8.348
 1272POPC   C3A18989  40.754  12.170   8.060
 1272POPC   C4A18990  40.831  11.838   7.779
 1272POPC   C1B18991  40.956  12.126   8.684
 1272POPC   C2B18992  41.061  11.913   8.370
 1272POPC   C3B18993  41.250  12.035   8.049
 1272POPC   C4B18994  41.157  12.225   7.663
 1273POPC   NC318995  12.572  35.068   9.473
 1273POPC   PO418996  13.244  35.261   9.545
 1273POPC   GL118997  12.998  35.451   9.182
 1273POPC   GL218998  12.653  35.607   9.251
 1273POPC   C1A18999  12.991  35.291   8.737
 1273POPC   D2A19000  12.759  35.268   8.352
 1273POPC   C3A19001  12.970  35.298   7.941
 1273POPC   C4A19002  13.305  35.296   7.622
 1273POPC   C1B19003  12.531  35.511   8.823
 1273POPC   C2B19004  12.583  35.746   8.440
 1273POPC   C3B19005  12.597  35.699   8.004
 1273POPC   C4B19006  12.474  35.440   7.658
 1274POPC   NC319007  10.468   8.292   9.816
 1274POPC   PO419008  10.243   8.423   9.275
 1274POPC   GL119009  10.360   8.241   8.921
 1274POPC   GL219010  10.406   7.940   9.011
 1274POPC   C1A19011  10.615   8.062   8.574
 1274POPC   D2A19012  10.281   8.204   8.362
 1274POPC   C3A19013  10.342   8.328   7.959
 1274POPC   C4A19014  10.732   8.233   7.785
 1274POPC   C1B19015  10.156   7.821   8.717
 1274POPC   C2B19016  10.250   7.688   8.363
 1274POPC   C3B19017  10.190   7.832   8.028
 1274POPC   C4B19018  10.389   7.874   7.696
 1275POPC   NC319019  13.732  35.061   9.530
 1275POPC   PO419020  13.811  35.710   9.489
 1275POPC   GL119021  13.587  35.786   9.143
 1275POPC   GL219022  13.516  35.411   9.139
 1275POPC   C1A19023  13.441  35.737   8.762
 1275POPC   D2A19024  13.487  35.411   8.538
 1275POPC   C3A19025  13.498  35.418   8.108
 1275POPC   C4A19026  13.809  35.264   7.800
 1275POPC   C1B19027  13.405  35.037   8.878
 1275POPC   C2B19028  13.345  34.949   8.432
 1275POPC   C3B19029  13.362  34.943   7.974
 1275POPC   C4B19030  13.577  34.865   7.568
 1276POPC   NC319031  37.171  19.476   9.490
 1276POPC   PO419032  37.034  18.970   9.998
 1276POPC   GL119033  37.120  18.955   9.489
 1276POPC   GL219034  36.784  18.934   9.311
 1276POPC   C1A19035  37.162  19.028   8.983
 1276POPC   D2A19036  37.103  18.828   8.559
 1276POPC   C3A19037  37.057  18.911   8.090
 1276POPC   C4A19038  37.268  19.115   7.684
 1276POPC   C1B19039  36.676  18.958   8.838
 1276POPC   C2B19040  36.753  19.186   8.438
 1276POPC   C3B19041  36.642  19.193   7.993
 1276POPC   C4B19042  36.775  18.919   7.646
 1277POPC   NC319043  40.999  41.078   9.455
 1277POPC   PO419044  40.713  41.718   9.546
 1277POPC   GL119045  40.749  41.818   9.127
 1277POPC   GL219046  40.663  41.476   9.097
 1277POPC   C1A19047  40.868  41.699   8.701
 1277POPC   D2A19048  41.220  41.488   8.567
 1277POPC   C3A19049  41.244  41.609   8.171
 1277POPC   C4A19050  40.886  41.697   7.893
 1277POPC   C1B19051  40.307  41.408   8.835
 1277POPC   C2B19052  40.302  41.223   8.436
 1277POPC   C3B19053  40.459  41.349   8.043
 1277POPC   C4B19054  40.454  41.500   7.636
 1278POPC   NC319055   9.382  35.454   9.399
 1278POPC   PO419056   8.975  34.955   9.700
 1278POPC   GL119057   8.955  35.195   9.236
 1278POPC   GL219058   8.681  35.047   9.016
 1278POPC   C1A19059   9.055  35.491   8.838
 1278POPC   D2A19060   9.016  35.484   8.369
 1278POPC   C3A19061   9.029  35.675   7.949
 1278POPC   C4A19062   9.235  35.485   7.577
 1278POPC   C1B19063   8.907  35.039   8.644
 1278POPC   C2B19064   8.806  34.894   8.252
 1278POPC   C3B19065   8.922  35.157   7.934
 1278POPC   C4B19066   9.007  35.037   7.552
 1279POPC   NC319067  24.701   5.285   9.771
 1279POPC   PO419068  24.244   4.892   9.589
 1279POPC   GL119069  24.319   5.092   9.204
 1279POPC   GL219070  24.618   4.926   9.086
 1279POPC   C1A19071  24.306   5.177   8.753
 1279POPC   D2A19072  24.451   5.031   8.368
 1279POPC   C3A19073  24.434   5.248   8.000
 1279POPC   C4A19074  24.091   5.328   7.791
 1279POPC   C1B19075  24.591   4.641   8.700
 1279POPC   C2B19076  24.668   4.593   8.234
 1279POPC   C3B19077  24.595   4.789   7.831
 1279POPC   C4B19078  24.542   4.639   7.427
 1280POPC   NC319079  23.211   4.773   9.609
 1280POPC   PO419080  22.823   4.145   9.471
 1280POPC   GL119081  22.843   4.300   9.118
 1280POPC   GL219082  22.806   4.639   9.206
 1280POPC   C1A19083  22.807   4.264   8.699
 1280POPC   D2A19084  22.706   4.590   8.454
 1280POPC   C3A19085  22.867   4.450   8.084
 1280POPC   C4A19086  22.922   4.019   7.915
 1280POPC   C1B19087  23.065   4.680   8.850
 1280POPC   C2B19088  23.214   4.640   8.448
 1280POPC   C3B19089  23.188   4.844   8.054
 1280POPC   C4B19090  23.115   4.637   7.669
 1281POPC   NC319091  41.481  15.349   9.504
 1281POPC   PO419092  41.820  15.966   9.531
 1281POPC   GL119093  41.683  15.709   9.172
 1281POPC   GL219094  41.345  15.838   9.172
 1281POPC   C1A19095  41.538  15.778   8.714
 1281POPC   D2A19096  41.522  15.737   8.293
 1281POPC   C3A19097  41.741  15.975   8.004
 1281POPC   C4A19098  41.484  15.834   7.688
 1281POPC   C1B19099  41.337  16.224   8.827
 1281POPC   C2B19100  41.502  16.290   8.349
 1281POPC   C3B19101  41.322  16.266   7.881
 1281POPC   C4B19102  41.301  16.192   7.365
 1282POPC   NC319103   2.916   7.173   9.456
 1282POPC   PO419104   2.331   6.905   9.250
 1282POPC   GL119105   2.596   7.238   9.026
 1282POPC   GL219106   2.858   7.508   9.064
 1282POPC   C1A19107   2.727   7.368   8.610
 1282POPC   D2A19108   2.774   7.540   8.221
 1282POPC   C3A19109   2.526   7.375   7.874
 1282POPC   C4A19110   2.422   7.378   7.466
 1282POPC   C1B19111   3.018   7.810   8.721
 1282POPC   C2B19112   3.228   7.794   8.298
 1282POPC   C3B19113   3.216   7.514   7.930
 1282POPC   C4B19114   2.865   7.703   7.756
 1283POPC   NC319115  10.317  39.524   9.176
 1283POPC   PO419116  10.433  40.104   9.626
 1283POPC   GL119117  10.634  39.998   9.218
 1283POPC   GL219118  10.697  40.334   9.145
 1283POPC   C1A19119  10.700  39.912   8.735
 1283POPC   D2A19120  10.474  39.674   8.373
 1283POPC   C3A19121  10.708  39.656   7.976
 1283POPC   C4A19122  10.590  39.834   7.566
 1283POPC   C1B19123  10.352  40.247   8.854
 1283POPC   C2B19124  10.413  40.199   8.411
 1283POPC   C3B19125  10.328  40.054   7.994
 1283POPC   C4B19126  10.344  40.321   7.631
 1284POPC   NC319127   7.871  16.881   9.404
 1284POPC   PO419128   8.361  16.418   9.644
 1284POPC   GL119129   8.065  16.423   9.227
 1284POPC   GL219130   8.124  16.721   8.996
 1284POPC   C1A19131   8.082  16.309   8.731
 1284POPC   D2A19132   8.028  16.611   8.371
 1284POPC   C3A19133   8.213  16.548   7.967
 1284POPC   C4A19134   8.549  16.623   7.689
 1284POPC   C1B19135   8.136  17.028   8.652
 1284POPC   C2B19136   7.915  17.179   8.337
 1284POPC   C3B19137   7.911  16.984   7.956
 1284POPC   C4B19138   8.216  17.015   7.648
 1285POPC   NC319139  44.212  40.124   9.535
 1285POPC   PO419140  43.537  39.985   9.494
 1285POPC   GL119141  43.873  39.884   9.186
 1285POPC   GL219142  44.165  39.644   9.271
 1285POPC   C1A19143  43.847  40.085   8.774
 1285POPC   D2A19144  43.593  40.213   8.450
 1285POPC   C3A19145  43.842  40.063   8.128
 1285POPC   C4A19146  43.838  39.908   7.734
 1285POPC   C1B19147  44.212  39.728   8.821
 1285POPC   C2B19148  44.243  39.920   8.416
 1285POPC   C3B19149  44.320  39.738   8.003
 1285POPC   C4B19150  44.261  39.677   7.588
 1286POPC   NC319151  23.345   9.880   9.699
 1286POPC   PO419152  23.937   9.520   9.462
 1286POPC   GL119153  23.622   9.649   9.196
 1286POPC   GL219154  23.581   9.982   9.261
 1286POPC   C1A19155  23.685   9.529   8.781
 1286POPC   D2A19156  24.004   9.716   8.479
 1286POPC   C3A19157  23.817   9.683   8.054
 1286POPC   C4A19158  24.013   9.842   7.703
 1286POPC   C1B19159  23.767  10.015   8.850
 1286POPC   C2B19160  23.531   9.899   8.459
 1286POPC   C3B19161  23.781  10.150   8.209
 1286POPC   C4B19162  23.810  10.331   7.821
 1287POPC   NC319163  41.482  24.922   9.645
 1287POPC   PO419164  41.851  24.405   9.732
 1287POPC   GL119165  41.846  24.654   9.337
 1287POPC   GL219166  41.720  24.345   9.158
 1287POPC   C1A19167  41.681  24.813   8.920
 1287POPC   D2A19168  41.651  24.525   8.544
 1287POPC   C3A19169  41.675  24.644   8.116
 1287POPC   C4A19170  41.784  24.478   7.732
 1287POPC   C1B19171  41.428  24.167   8.826
 1287POPC   C2B19172  41.344  24.052   8.367
 1287POPC   C3B19173  41.372  24.211   7.919
 1287POPC   C4B19174  41.494  24.017   7.521
 1288POPC   NC319175  44.253   8.908   9.705
 1288POPC   PO419176  43.688   8.624   9.532
 1288POPC   GL119177  43.884   8.867   9.237
 1288POPC   GL219178  44.221   8.812   9.171
 1288POPC   C1A19179  43.847   8.818   8.794
 1288POPC   D2A19180  43.850   9.096   8.467
 1288POPC   C3A19181  43.594   9.047   8.115
 1288POPC   C4A19182  43.728   9.066   7.728
 1288POPC   C1B19183  44.344   8.889   8.719
 1288POPC   C2B19184  44.233   8.818   8.280
 1288POPC   C3B19185  44.222   9.015   7.875
 1288POPC   C4B19186  44.517   8.902   7.533
 1289POPC   NC319187  11.238  39.416   9.296
 1289POPC   PO419188  10.785  39.014   9.659
 1289POPC   GL119189  11.028  38.961   9.202
 1289POPC   GL219190  11.395  38.890   9.198
 1289POPC   C1A19191  11.217  39.089   8.738
 1289POPC   D2A19192  11.207  39.356   8.358
 1289POPC   C3A19193  11.552  39.303   8.075
 1289POPC   C4A19194  11.446  39.260   7.658
 1289POPC   C1B19195  11.564  38.723   8.783
 1289POPC   C2B19196  11.593  38.858   8.326
 1289POPC   C3B19197  11.307  38.855   7.946
 1289POPC   C4B19198  11.224  38.877   7.454
 1290POPC   NC319199  38.404  33.353   9.546
 1290POPC   PO419200  37.962  33.036   9.220
 1290POPC   GL119201  38.202  32.888   8.964
 1290POPC   GL219202  38.469  33.124   9.092
 1290POPC   C1A19203  38.189  32.969   8.538
 1290POPC   D2A19204  38.338  33.274   8.253
 1290POPC   C3A19205  38.262  33.096   7.863
 1290POPC   C4A19206  38.211  33.159   7.415
 1290POPC   C1B19207  38.618  33.236   8.703
 1290POPC   C2B19208  38.783  33.011   8.344
 1290POPC   C3B19209  38.757  33.179   7.940
 1290POPC   C4B19210  38.659  32.990   7.548
 1291POPC   NC319211  25.138  39.385   9.467
 1291POPC   PO419212  25.642  38.963   9.571
 1291POPC   GL119213  25.349  38.977   9.208
 1291POPC   GL219214  25.257  39.269   9.007
 1291POPC   C1A19215  25.436  38.886   8.754
 1291POPC   D2A19216  25.179  39.154   8.492
 1291POPC   C3A19217  25.209  39.021   8.087
 1291POPC   C4A19218  25.192  39.138   7.640
 1291POPC   C1B19219  25.024  39.573   8.787
 1291POPC   C2B19220  24.847  39.603   8.384
 1291POPC   C3B19221  25.043  39.502   7.985
 1291POPC   C4B19222  25.252  39.652   7.601
 1292POPC   NC319223  14.560  41.603   9.477
 1292POPC   PO419224  13.903  41.295   9.503
 1292POPC   GL119225  14.114  41.665   9.234
 1292POPC   GL219226  13.959  42.048   9.216
 1292POPC   C1A19227  14.485  41.664   8.850
 1292POPC   D2A19228  14.687  41.532   8.468
 1292POPC   C3A19229  14.738  41.792   8.101
 1292POPC   C4A19230  14.540  41.630   7.747
 1292POPC   C1B19231  14.049  41.886   8.804
 1292POPC   C2B19232  14.074  41.543   8.523
 1292POPC   C3B19233  14.204  41.528   8.118
 1292POPC   C4B19234  14.042  41.647   7.745
 1293POPC   NC319235   4.944  22.888   9.617
 1293POPC   PO419236   5.425  23.465   9.499
 1293POPC   GL119237   5.312  23.049   9.299
 1293POPC   GL219238   5.018  22.966   9.135
 1293POPC   C1A19239   5.447  22.891   8.880
 1293POPC   D2A19240   5.300  22.972   8.444
 1293POPC   C3A19241   5.068  22.871   8.108
 1293POPC   C4A19242   5.346  22.952   7.781
 1293POPC   C1B19243   4.923  22.845   8.750
 1293POPC   C2B19244   4.786  23.177   8.488
 1293POPC   C3B19245   4.738  23.272   8.074
 1293POPC   C4B19246   4.765  23.425   7.690
 1294POPC   NC319247  19.239  16.043   9.808
 1294POPC   PO419248  19.804  16.183   9.385
 1294POPC   GL119249  19.716  15.783   9.229
 1294POPC   GL219250  19.339  15.724   9.232
 1294POPC   C1A19251  19.985  15.732   8.853
 1294POPC   D2A19252  19.927  15.846   8.424
 1294POPC   C3A19253  20.050  16.121   8.080
 1294POPC   C4A19254  19.951  15.947   7.678
 1294POPC   C1B19255  19.482  15.815   8.783
 1294POPC   C2B19256  19.489  15.535   8.413
 1294POPC   C3B19257  19.662  15.654   8.016
 1294POPC   C4B19258  19.513  15.644   7.619
 1295POPC   NC319259  20.588  35.547   9.390
 1295POPC   PO419260  20.845  35.025   9.533
 1295POPC   GL119261  20.633  35.085   9.154
 1295POPC   GL219262  20.393  35.263   9.022
 1295POPC   C1A19263  20.824  35.199   8.744
 1295POPC   D2A19264  21.047  35.064   8.364
 1295POPC   C3A19265  20.831  35.107   7.973
 1295POPC   C4A19266  20.863  35.365   7.588
 1295POPC   C1B19267  20.419  35.568   8.738
 1295POPC   C2B19268  20.335  35.534   8.332
 1295POPC   C3B19269  20.545  35.520   7.985
 1295POPC   C4B19270  20.389  35.529   7.577
 1296POPC   NC319271   8.353  28.656   9.529
 1296POPC   PO419272   8.189  27.969   9.532
 1296POPC   GL119273   8.279  28.099   9.119
 1296POPC   GL219274   8.164  28.432   9.106
 1296POPC   C1A19275   8.178  28.101   8.676
 1296POPC   D2A19276   7.928  28.064   8.298
 1296POPC   C3A19277   8.182  28.064   7.928
 1296POPC   C4A19278   8.653  28.146   7.849
 1296POPC   C1B19279   8.417  28.574   8.748
 1296POPC   C2B19280   8.441  28.437   8.305
 1296POPC   C3B19281   8.296  28.555   7.901
 1296POPC   C4B19282   8.383  28.760   7.528
 1297POPC   NC319283  29.102  39.070   9.724
 1297POPC   PO419284  28.883  39.303   9.173
 1297POPC   GL119285  29.288  39.285   9.076
 1297POPC   GL219286  29.318  38.913   9.165
 1297POPC   C1A19287  29.354  39.420   8.628
 1297POPC   D2A19288  28.983  39.471   8.314
 1297POPC   C3A19289  28.958  39.155   7.972
 1297POPC   C4A19290  28.840  38.757   7.802
 1297POPC   C1B19291  29.308  38.924   8.696
 1297POPC   C2B19292  29.401  39.076   8.242
 1297POPC   C3B19293  29.430  38.879   7.816
 1297POPC   C4B19294  29.504  38.784   7.341
 1298POPC   NC319295  27.375  37.618   9.532
 1298POPC   PO419296  27.979  37.976   9.450
 1298POPC   GL119297  27.719  37.727   9.180
 1298POPC   GL219298  27.482  38.017   9.258
 1298POPC   C1A19299  27.651  37.521   8.775
 1298POPC   D2A19300  27.608  37.730   8.382
 1298POPC   C3A19301  27.701  37.590   7.989
 1298POPC   C4A19302  27.964  37.773   7.692
 1298POPC   C1B19303  27.464  37.991   8.806
 1298POPC   C2B19304  27.458  38.213   8.419
 1298POPC   C3B19305  27.355  38.083   8.013
 1298POPC   C4B19306  27.474  37.903   7.651
 1299POPC   NC319307  32.873  24.770   9.585
 1299POPC   PO419308  33.110  25.481   9.515
 1299POPC   GL119309  32.902  25.215   9.261
 1299POPC   GL219310  33.195  25.010   9.209
 1299POPC   C1A19311  32.860  25.098   8.836
 1299POPC   D2A19312  33.131  25.191   8.471
 1299POPC   C3A19313  33.016  25.296   8.053
 1299POPC   C4A19314  33.145  25.192   7.618
 1299POPC   C1B19315  33.331  24.822   8.814
 1299POPC   C2B19316  33.492  24.857   8.368
 1299POPC   C3B19317  33.228  24.810   7.970
 1299POPC   C4B19318  32.762  24.920   7.839
 1300POPC   NC319319  16.708   3.210   9.854
 1300POPC   PO419320  16.953   3.857   9.851
 1300POPC   GL119321  16.806   3.798   9.331
 1300POPC   GL219322  16.539   4.018   9.183
 1300POPC   C1A19323  16.610   3.606   8.888
 1300POPC   D2A19324  16.716   3.509   8.442
 1300POPC   C3A19325  16.803   3.191   8.131
 1300POPC   C4A19326  16.720   3.381   7.733
 1300POPC   C1B19327  16.836   4.061   8.831
 1300POPC   C2B19328  16.669   4.071   8.417
 1300POPC   C3B19329  16.597   3.862   8.021
 1300POPC   C4B19330  16.585   3.873   7.566
 1301POPC   NC319331  38.308   3.913   9.461
 1301POPC   PO419332  38.410   4.578   9.616
 1301POPC   GL119333  38.336   4.484   9.170
 1301POPC   GL219334  38.035   4.685   9.085
 1301POPC   C1A19335  38.565   4.326   8.771
 1301POPC   D2A19336  38.427   4.118   8.368
 1301POPC   C3A19337  38.676   4.089   7.982
 1301POPC   C4A19338  38.786   4.284   7.631
 1301POPC   C1B19339  38.268   4.745   8.719
 1301POPC   C2B19340  38.229   4.582   8.334
 1301POPC   C3B19341  38.481   4.566   7.992
 1301POPC   C4B19342  38.269   4.671   7.656
 1302POPC   NC319343  10.220  13.059   9.421
 1302POPC   PO419344  10.604  12.466   9.413
 1302POPC   GL119345  10.572  12.772   9.093
 1302POPC   GL219346  10.708  13.114   9.144
 1302POPC   C1A19347  10.590  12.753   8.649
 1302POPC   D2A19348  10.372  12.612   8.263
 1302POPC   C3A19349  10.539  12.688   7.854
 1302POPC   C4A19350  10.467  13.011   7.571
 1302POPC   C1B19351  10.793  13.311   8.734
 1302POPC   C2B19352  10.793  13.108   8.337
 1302POPC   C3B19353  10.898  13.078   7.921
 1302POPC   C4B19354  10.951  12.886   7.542
 1303POPC   NC319355  29.529  40.499   9.454
 1303POPC   PO419356  30.215  40.688   9.399
 1303POPC   GL119357  29.854  40.846   9.202
 1303POPC   GL219358  30.093  41.028   9.037
 1303POPC   C1A19359  29.688  40.838   8.766
 1303POPC   D2A19360  29.855  41.056   8.392
 1303POPC   C3A19361  29.848  40.857   7.980
 1303POPC   C4A19362  29.630  40.569   7.693
 1303POPC   C1B19363  30.239  41.268   8.740
 1303POPC   C2B19364  30.202  41.420   8.368
 1303POPC   C3B19365  30.242  41.243   7.973
 1303POPC   C4B19366  30.347  40.855   7.824
 1304POPC   NC319367  31.243  33.298   9.753
 1304POPC   PO419368  31.106  33.920   9.556
 1304POPC   GL119369  31.285  33.678   9.251
 1304POPC   GL219370  31.631  33.757   9.288
 1304POPC   C1A19371  31.222  33.454   8.864
 1304POPC   D2A19372  31.261  33.623   8.447
 1304POPC   C3A19373  31.363  33.487   8.033
 1304POPC   C4A19374  31.175  33.579   7.598
 1304POPC   C1B19375  31.635  33.754   8.817
 1304POPC   C2B19376  31.756  33.657   8.388
 1304POPC   C3B19377  31.811  33.876   8.006
 1304POPC   C4B19378  31.656  33.700   7.679
 1305POPC   NC319379   6.289  17.171   9.567
 1305POPC   PO419380   6.805  17.649   9.627
 1305POPC   GL119381   6.774  17.527   9.209
 1305POPC   GL219382   6.402  17.506   9.192
 1305POPC   C1A19383   6.865  17.747   8.812
 1305POPC   D2A19384   6.836  18.018   8.428
 1305POPC   C3A19385   6.859  17.797   8.040
 1305POPC   C4A19386   6.795  17.435   7.765
 1305POPC   C1B19387   6.534  17.309   8.818
 1305POPC   C2B19388   6.592  17.543   8.432
 1305POPC   C3B19389   6.364  17.591   8.074
 1305POPC   C4B19390   6.152  17.235   7.876
 1306POPC   NC319391  26.064  13.252   9.467
 1306POPC   PO419392  26.474  12.827   9.757
 1306POPC   GL119393  26.463  12.720   9.242
 1306POPC   GL219394  26.125  12.795   9.201
 1306POPC   C1A19395  26.456  12.922   8.770
 1306POPC   D2A19396  26.298  12.756   8.399
 1306POPC   C3A19397  26.131  12.874   7.991
 1306POPC   C4A19398  26.205  12.878   7.526
 1306POPC   C1B19399  25.953  12.949   8.826
 1306POPC   C2B19400  25.883  13.084   8.422
 1306POPC   C3B19401  25.685  13.183   8.042
 1306POPC   C4B19402  25.719  12.945   7.674
 1307POPC   NC319403  24.302  39.094   9.492
 1307POPC   PO419404  24.911  38.977   9.505
 1307POPC   GL119405  24.762  39.207   9.138
 1307POPC   GL219406  24.459  39.401   9.130
 1307POPC   C1A19407  24.706  39.195   8.694
 1307POPC   D2A19408  24.498  39.110   8.290
 1307POPC   C3A19409  24.728  39.078   7.895
 1307POPC   C4A19410  24.743  38.889   7.469
 1307POPC   C1B19411  24.237  39.363   8.737
 1307POPC   C2B19412  24.319  39.584   8.334
 1307POPC   C3B19413  24.414  39.548   7.877
 1307POPC   C4B19414  24.373  39.221   7.548
 1308POPC   NC319415  31.602  15.943   9.657
 1308POPC   PO419416  31.150  15.579   9.402
 1308POPC   GL119417  31.388  15.922   9.168
 1308POPC   GL219418  31.750  15.958   9.178
 1308POPC   C1A19419  31.448  16.177   8.784
 1308POPC   D2A19420  31.281  16.211   8.384
 1308POPC   C3A19421  31.491  16.117   7.987
 1308POPC   C4A19422  31.471  16.165   7.506
 1308POPC   C1B19423  31.769  15.785   8.807
 1308POPC   C2B19424  31.590  15.777   8.417
 1308POPC   C3B19425  31.762  15.683   8.030
 1308POPC   C4B19426  31.567  15.704   7.642
 1309POPC   NC319427  29.497  31.965   9.580
 1309POPC   PO419428  29.809  32.441   9.779
 1309POPC   GL119429  29.874  32.342   9.267
 1309POPC   GL219430  30.182  32.146   9.121
 1309POPC   C1A19431  29.806  32.351   8.776
 1309POPC   D2A19432  29.830  32.123   8.325
 1309POPC   C3A19433  30.020  32.326   7.956
 1309POPC   C4A19434  30.316  32.644   8.012
 1309POPC   C1B19435  30.198  32.050   8.701
 1309POPC   C2B19436  30.362  32.181   8.329
 1309POPC   C3B19437  30.381  31.967   7.957
 1309POPC   C4B19438  30.133  31.654   7.800
 1310POPC   NC319439  32.816   2.372   9.410
 1310POPC   PO419440  33.441   2.807   9.487
 1310POPC   GL119441  33.095   2.756   9.201
 1310POPC   GL219442  32.993   3.066   9.038
 1310POPC   C1A19443  32.971   2.606   8.766
 1310POPC   D2A19444  32.632   2.689   8.428
 1310POPC   C3A19445  32.840   2.751   8.024
 1310POPC   C4A19446  32.987   2.618   7.624
 1310POPC   C1B19447  33.373   2.945   8.815
 1310POPC   C2B19448  33.352   3.000   8.383
 1310POPC   C3B19449  33.495   3.085   7.976
 1310POPC   C4B19450  33.455   2.818   7.639
 1311POPC   NC319451  40.669  17.539   9.462
 1311POPC   PO419452  40.927  16.918   9.535
 1311POPC   GL119453  41.015  17.205   9.154
 1311POPC   GL219454  41.030  17.582   9.111
 1311POPC   C1A19455  40.765  17.246   8.787
 1311POPC   D2A19456  40.549  17.345   8.428
 1311POPC   C3A19457  40.747  17.254   8.059
 1311POPC   C4A19458  40.558  17.481   7.746
 1311POPC   C1B19459  41.117  17.610   8.666
 1311POPC   C2B19460  40.922  17.692   8.259
 1311POPC   C3B19461  41.018  17.686   7.806
 1311POPC   C4B19462  40.820  17.788   7.388
 1312POPC   NC319463   1.244  31.167   9.711
 1312POPC   PO419464   0.748  31.436   9.330
 1312POPC   GL119465   1.122  31.532   9.136
 1312POPC   GL219466   1.360  31.271   9.199
 1312POPC   C1A19467   1.065  31.518   8.699
 1312POPC   D2A19468   1.001  31.282   8.340
 1312POPC   C3A19469   1.038  31.558   7.983
 1312POPC   C4A19470   1.182  31.527   7.552
 1312POPC   C1B19471   1.451  31.199   8.756
 1312POPC   C2B19472   1.534  31.123   8.318
 1312POPC   C3B19473   1.411  31.214   7.891
 1312POPC   C4B19474   1.603  31.171   7.465
 1313POPC   NC319475  44.228   6.640   9.468
 1313POPC   PO419476  44.924   6.470   9.558
 1313POPC   GL119477  44.772   6.378   9.143
 1313POPC   GL219478  44.392   6.284   9.109
 1313POPC   C1A19479   0.013   6.469   8.765
 1313POPC   D2A19480  44.896   6.826   8.486
 1313POPC   C3A19481  44.798   6.759   8.044
 1313POPC   C4A19482  44.685   6.660   7.577
 1313POPC   C1B19483  44.506   6.514   8.737
 1313POPC   C2B19484  44.681   6.352   8.351
 1313POPC   C3B19485  44.468   6.363   7.939
 1313POPC   C4B19486  44.280   6.350   7.515
 1314POPC   NC319487   0.563  30.011   9.352
 1314POPC   PO419488   0.084  29.632   9.500
 1314POPC   GL119489   0.111  29.811   9.102
 1314POPC   GL219490   0.129  30.160   9.136
 1314POPC   C1A19491   0.281  29.718   8.699
 1314POPC   D2A19492   0.106  29.657   8.285
 1314POPC   C3A19493   0.379  29.770   7.955
 1314POPC   C4A19494   0.703  29.614   7.700
 1314POPC   C1B19495   0.380  30.224   8.756
 1314POPC   C2B19496   0.460  30.100   8.352
 1314POPC   C3B19497   0.534  30.262   7.945
 1314POPC   C4B19498   0.728  30.180   7.524
 1315POPC   NC319499  41.215  42.753   9.618
 1315POPC   PO419500  41.185  43.453   9.476
 1315POPC   GL119501  41.391  43.196   9.161
 1315POPC   GL219502  41.472  42.836   9.166
 1315POPC   C1A19503  41.638  43.232   8.791
 1315POPC   D2A19504  41.812  43.043   8.415
 1315POPC   C3A19505  41.933  43.249   8.033
 1315POPC   C4A19506  41.654  43.339   7.711
 1315POPC   C1B19507  41.107  42.663   8.928
 1315POPC   C2B19508  41.086  42.564   8.504
 1315POPC   C3B19509  41.379  42.757   8.248
 1315POPC   C4B19510  41.398  42.918   7.844
 1316POPC   NC319511  20.851  29.063   9.651
 1316POPC   PO419512  21.533  28.984   9.583
 1316POPC   GL119513  21.370  29.145   9.188
 1316POPC   GL219514  21.046  28.973   9.147
 1316POPC   C1A19515  21.209  29.297   8.786
 1316POPC   D2A19516  21.122  29.147   8.384
 1316POPC   C3A19517  21.414  29.198   8.002
 1316POPC   C4A19518  21.493  29.032   7.551
 1316POPC   C1B19519  21.222  28.773   8.743
 1316POPC   C2B19520  21.437  28.762   8.323
 1316POPC   C3B19521  21.353  28.676   7.903
 1316POPC   C4B19522  21.188  28.594   7.497
 1317POPC   NC319523  31.444   6.343   9.591
 1317POPC   PO419524  31.662   5.784   9.768
 1317POPC   GL119525  31.569   5.726   9.267
 1317POPC   GL219526  31.212   5.696   9.206
 1317POPC   C1A19527  31.722   5.803   8.808
 1317POPC   D2A19528  31.624   5.632   8.380
 1317POPC   C3A19529  31.692   5.743   7.927
 1317POPC   C4A19530  31.644   5.487   7.543
 1317POPC   C1B19531  31.264   5.583   8.769
 1317POPC   C2B19532  31.102   5.728   8.333
 1317POPC   C3B19533  31.212   6.022   7.971
 1317POPC   C4B19534  31.352   5.901   7.552
 1318POPC   NC319535  17.703  13.300   9.710
 1318POPC   PO419536  17.655  13.975   9.689
 1318POPC   GL119537  17.516  13.690   9.371
 1318POPC   GL219538  17.805  13.511   9.230
 1318POPC   C1A19539  17.320  13.570   8.990
 1318POPC   D2A19540  17.328  13.681   8.551
 1318POPC   C3A19541  17.189  13.462   8.174
 1318POPC   C4A19542  17.303  13.472   7.752
 1318POPC   C1B19543  17.803  13.506   8.777
 1318POPC   C2B19544  17.676  13.384   8.343
 1318POPC   C3B19545  17.786  13.569   7.939
 1318POPC   C4B19546  17.988  13.323   7.630
 1319POPC   NC319547  15.596  35.073   9.537
 1319POPC   PO419548  14.950  35.265   9.459
 1319POPC   GL119549  15.054  35.464   9.082
 1319POPC   GL219550  14.690  35.530   9.054
 1319POPC   C1A19551  15.303  35.308   8.704
 1319POPC   D2A19552  15.294  35.192   8.254
 1319POPC   C3A19553  15.198  35.519   7.965
 1319POPC   C4A19554  15.517  35.821   7.774
 1319POPC   C1B19555  14.805  35.199   8.745
 1319POPC   C2B19556  14.746  35.277   8.322
 1319POPC   C3B19557  14.762  35.039   7.992
 1319POPC   C4B19558  15.002  35.122   7.650
 1320POPC   NC319559  13.058  39.247   9.525
 1320POPC   PO419560  12.562  38.794   9.521
 1320POPC   GL119561  12.714  39.048   9.192
 1320POPC   GL219562  13.003  38.865   9.130
 1320POPC   C1A19563  12.829  39.381   8.877
 1320POPC   D2A19564  12.742  39.255   8.442
 1320POPC   C3A19565  12.562  39.399   8.043
 1320POPC   C4A19566  12.770  39.402   7.620
 1320POPC   C1B19567  13.067  38.961   8.734
 1320POPC   C2B19568  13.208  39.114   8.354
 1320POPC   C3B19569  13.071  39.311   8.038
 1320POPC   C4B19570  13.123  39.065   7.706
 1321POPC   NC319571  39.612   1.032   9.764
 1321POPC   PO419572  39.964   1.522   9.706
 1321POPC   GL119573  39.647   1.458   9.361
 1321POPC   GL219574  39.685   1.165   9.217
 1321POPC   C1A19575  39.726   1.531   8.873
 1321POPC   D2A19576  39.996   1.364   8.505
 1321POPC   C3A19577  40.111   1.542   8.100
 1321POPC   C4A19578  40.314   1.386   7.725
 1321POPC   C1B19579  39.750   1.012   8.795
 1321POPC   C2B19580  39.576   1.088   8.396
 1321POPC   C3B19581  39.725   1.197   8.049
 1321POPC   C4B19582  39.826   1.010   7.687
 1322POPC   NC319583  27.528   9.569   9.555
 1322POPC   PO419584  27.916  10.107   9.632
 1322POPC   GL119585  27.691   9.977   9.232
 1322POPC   GL219586  27.948  10.008   8.974
 1322POPC   C1A19587  27.572   9.658   8.872
 1322POPC   D2A19588  27.266   9.505   8.550
 1322POPC   C3A19589  27.268   9.628   8.103
 1322POPC   C4A19590  27.604   9.571   7.801
 1322POPC   C1B19591  28.036  10.183   8.589
 1322POPC   C2B19592  27.897  10.210   8.185
 1322POPC   C3B19593  27.730  10.118   7.810
 1322POPC   C4B19594  27.307  10.004   7.751
 1323POPC   NC319595  19.136  20.854   9.496
 1323POPC   PO419596  19.239  21.555   9.485
 1323POPC   GL119597  19.128  21.293   9.124
 1323POPC   GL219598  19.445  21.094   9.169
 1323POPC   C1A19599  18.825  21.250   8.744
 1323POPC   D2A19600  18.701  21.006   8.358
 1323POPC   C3A19601  18.723  21.248   7.948
 1323POPC   C4A19602  19.121  21.383   7.689
 1323POPC   C1B19603  19.475  21.216   8.761
 1323POPC   C2B19604  19.270  21.402   8.444
 1323POPC   C3B19605  19.445  21.357   8.074
 1323POPC   C4B19606  19.622  21.181   7.702
 1324POPC   NC319607   6.016  35.629   9.530
 1324POPC   PO419608   5.486  35.191   9.489
 1324POPC   GL119609   5.803  35.156   9.119
 1324POPC   GL219610   6.127  35.284   9.139
 1324POPC   C1A19611   6.037  35.151   8.668
 1324POPC   D2A19612   5.773  35.064   8.300
 1324POPC   C3A19613   5.932  35.178   7.942
 1324POPC   C4A19614   5.701  35.475   7.711
 1324POPC   C1B19615   5.928  35.596   8.874
 1324POPC   C2B19616   6.035  35.759   8.495
 1324POPC   C3B19617   5.988  35.687   8.078
 1324POPC   C4B19618   6.258  35.531   7.769
 1325POPC   NC319619   2.813   8.742   9.573
 1325POPC   PO419620   3.016   9.449   9.524
 1325POPC   GL119621   2.811   9.141   9.202
 1325POPC   GL219622   2.676   8.772   9.068
 1325POPC   C1A19623   2.571   9.247   8.835
 1325POPC   D2A19624   2.813   9.350   8.493
 1325POPC   C3A19625   2.726   9.191   8.103
 1325POPC   C4A19626   2.931   9.222   7.716
 1325POPC   C1B19627   2.450   8.777   8.643
 1325POPC   C2B19628   2.462   8.744   8.164
 1325POPC   C3B19629   2.693   8.753   7.743
 1325POPC   C4B19630   2.714   8.564   7.307
 1326POPC   NC319631  29.997   0.316   9.536
 1326POPC   PO419632  29.452   0.664   9.439
 1326POPC   GL119633  29.681   0.422   9.123
 1326POPC   GL219634  30.034   0.496   9.075
 1326POPC   C1A19635  29.734   0.531   8.677
 1326POPC   D2A19636  29.661   0.268   8.350
 1326POPC   C3A19637  29.733   0.391   7.931
 1326POPC   C4A19638  29.875   0.783   7.810
 1326POPC   C1B19639  30.248   0.546   8.697
 1326POPC   C2B19640  30.103   0.588   8.276
 1326POPC   C3B19641  30.279   0.448   7.908
 1326POPC   C4B19642  30.200   0.548   7.463
 1327POPC   NC319643  29.302  41.475   9.499
 1327POPC   PO419644  28.541  41.589   9.586
 1327POPC   GL119645  28.894  41.724   9.236
 1327POPC   GL219646  29.052  41.426   9.066
 1327POPC   C1A19647  29.054  41.841   8.783
 1327POPC   D2A19648  29.020  41.631   8.379
 1327POPC   C3A19649  28.946  41.769   7.963
 1327POPC   C4A19650  28.743  41.518   7.627
 1327POPC   C1B19651  29.283  41.325   8.699
 1327POPC   C2B19652  29.398  41.262   8.266
 1327POPC   C3B19653  29.335  41.446   7.847
 1327POPC   C4B19654  29.571  41.805   7.707
 1328POPC   NC319655  41.637  36.882   9.596
 1328POPC   PO419656  41.003  36.754   9.457
 1328POPC   GL119657  41.345  36.939   9.164
 1328POPC   GL219658  41.676  37.142   9.153
 1328POPC   C1A19659  41.590  36.836   8.759
 1328POPC   D2A19660  41.673  36.968   8.326
 1328POPC   C3A19661  41.350  36.752   8.049
 1328POPC   C4A19662  41.440  36.615   7.639
 1328POPC   C1B19663  41.643  37.348   8.737
 1328POPC   C2B19664  41.488  37.553   8.352
 1328POPC   C3B19665  41.729  37.398   8.016
 1328POPC   C4B19666  41.663  37.041   7.792
 1329POPC   NC319667  25.343  24.913   9.440
 1329POPC   PO419668  25.440  25.568   9.407
 1329POPC   GL119669  25.179  25.318   9.106
 1329POPC   GL219670  24.890  25.089   9.168
 1329POPC   C1A19671  24.893  25.476   8.773
 1329POPC   D2A19672  24.941  25.701   8.369
 1329POPC   C3A19673  24.963  25.454   7.990
 1329POPC   C4A19674  25.205  25.370   7.618
 1329POPC   C1B19675  24.953  24.958   8.746
 1329POPC   C2B19676  25.126  25.128   8.361
 1329POPC   C3B19677  25.313  25.013   7.954
 1329POPC   C4B19678  25.288  24.904   7.491
 1330POPC   NC319679  22.556  15.286   9.505
 1330POPC   PO419680  22.019  14.854   9.537
 1330POPC   GL119681  22.109  15.224   9.234
 1330POPC   GL219682  22.346  15.062   9.102
 1330POPC   C1A19683  22.238  15.427   8.792
 1330POPC   D2A19684  22.108  15.621   8.408
 1330POPC   C3A19685  22.194  15.430   8.003
 1330POPC   C4A19686  22.364  15.341   7.590
 1330POPC   C1B19687  22.213  14.893   8.712
 1330POPC   C2B19688  22.482  14.664   8.431
 1330POPC   C3B19689  22.461  14.589   7.973
 1330POPC   C4B19690  22.240  14.841   7.659
 1331POPC   NC319691   8.034  16.078   9.660
 1331POPC   PO419692   8.591  15.672   9.605
 1331POPC   GL119693   8.257  15.755   9.284
 1331POPC   GL219694   8.391  16.043   9.225
 1331POPC   C1A19695   8.007  15.825   8.863
 1331POPC   D2A19696   7.856  15.848   8.389
 1331POPC   C3A19697   8.063  16.056   8.025
 1331POPC   C4A19698   8.204  15.817   7.614
 1331POPC   C1B19699   8.514  15.805   8.856
 1331POPC   C2B19700   8.364  15.860   8.443
 1331POPC   C3B19701   8.523  15.841   8.017
 1331POPC   C4B19702   8.714  15.867   7.608
 1332POPC   NC319703   8.035  43.948   9.533
 1332POPC   PO419704   7.609  43.432   9.325
 1332POPC   GL119705   7.890  43.720   9.117
 1332POPC   GL219706   7.869  44.101   9.097
 1332POPC   C1A19707   8.244  43.760   8.880
 1332POPC   D2A19708   8.402  43.528   8.557
 1332POPC   C3A19709   8.416  43.635   8.117
 1332POPC   C4A19710   8.208  43.747   7.743
 1332POPC   C1B19711   8.084  44.236   8.766
 1332POPC   C2B19712   8.213  44.004   8.425
 1332POPC   C3B19713   8.146  44.168   8.045
 1332POPC   C4B19714   7.804  44.068   7.760
 1333POPC   NC319715  26.252  16.534   9.457
 1333POPC   PO419716  25.627  16.748   9.556
 1333POPC   GL119717  25.873  16.723   9.174
 1333POPC   GL219718  26.139  16.993   9.203
 1333POPC   C1A19719  26.000  16.616   8.744
 1333POPC   D2A19720  25.955  16.877   8.352
 1333POPC   C3A19721  25.980  16.689   7.935
 1333POPC   C4A19722  26.206  16.324   7.798
 1333POPC   C1B19723  26.249  17.071   8.768
 1333POPC   C2B19724  26.492  16.903   8.411
 1333POPC   C3B19725  26.431  16.925   7.998
 1333POPC   C4B19726  26.096  17.223   7.915
 1334POPC   NC319727  39.901   4.867   9.640
 1334POPC   PO419728  40.149   5.471   9.513
 1334POPC   GL119729  39.902   5.216   9.227
 1334POPC   GL219730  40.050   4.884   9.147
 1334POPC   C1A19731  39.838   5.199   8.778
 1334POPC   D2A19732  40.195   5.222   8.495
 1334POPC   C3A19733  40.134   5.439   8.108
 1334POPC   C4A19734  40.150   5.403   7.681
 1334POPC   C1B19735  40.055   4.748   8.702
 1334POPC   C2B19736  39.796   4.895   8.326
 1334POPC   C3B19737  39.861   5.013   7.872
 1334POPC   C4B19738  40.012   4.765   7.511
 1335POPC   NC319739  21.128   0.833   9.916
 1335POPC   PO419740  21.406   1.335   9.532
 1335POPC   GL119741  21.523   1.275   9.123
 1335POPC   GL219742  21.418   0.939   9.088
 1335POPC   C1A19743  21.487   1.253   8.692
 1335POPC   D2A19744  21.711   1.186   8.398
 1335POPC   C3A19745  21.681   1.364   8.064
 1335POPC   C4A19746  21.495   1.292   7.699
 1335POPC   C1B19747  21.111   0.931   8.766
 1335POPC   C2B19748  21.338   0.788   8.421
 1335POPC   C3B19749  21.504   0.882   8.026
 1335POPC   C4B19750  21.361   0.805   7.625
 1336POPC   NC319751   3.821  25.997   9.431
 1336POPC   PO419752   3.255  26.217   9.776
 1336POPC   GL119753   3.328  26.000   9.253
 1336POPC   GL219754   3.276  25.641   9.196
 1336POPC   C1A19755   3.533  26.132   8.787
 1336POPC   D2A19756   3.620  26.488   8.481
 1336POPC   C3A19757   3.744  26.434   8.031
 1336POPC   C4A19758   3.551  26.285   7.636
 1336POPC   C1B19759   3.360  25.657   8.760
 1336POPC   C2B19760   3.681  25.759   8.444
 1336POPC   C3B19761   3.591  25.941   8.060
 1336POPC   C4B19762   3.521  25.777   7.674
 1337POPC   NC319763  19.466  44.094   9.483
 1337POPC   PO419764  20.004  43.849   9.515
 1337POPC   GL119765  19.896  43.989   9.119
 1337POPC   GL219766  19.940  44.346   9.118
 1337POPC   C1A19767  19.771  44.068   8.699
 1337POPC   D2A19768  19.747  43.915   8.276
 1337POPC   C3A19769  19.633  44.143   7.850
 1337POPC   C4A19770  19.548  44.075   7.367
 1337POPC   C1B19771  20.244  44.261   8.801
 1337POPC   C2B19772  20.269  44.213   8.372
 1337POPC   C3B19773  20.122  44.104   7.979
 1337POPC   C4B19774  20.043  43.902   7.587
 1338POPC   NC319775  26.115  44.562   9.571
 1338POPC   PO419776  25.711   0.016   9.383
 1338POPC   GL119777  26.063  44.791   9.085
 1338POPC   GL219778  26.218  44.438   9.101
 1338POPC   C1A19779  26.174  44.653   8.617
 1338POPC   D2A19780  25.930  44.917   8.279
 1338POPC   C3A19781  26.028  44.874   7.848
 1338POPC   C4A19782  26.379  44.686   7.761
 1338POPC   C1B19783  25.867  44.329   8.865
 1338POPC   C2B19784  25.728  44.414   8.440
 1338POPC   C3B19785  26.036  44.446   8.140
 1338POPC   C4B19786  25.993  44.350   7.748
 1339POPC   NC319787  39.327  38.689   9.562
 1339POPC   PO419788  39.315  38.032   9.518
 1339POPC   GL119789  39.190  38.321   9.177
 1339POPC   GL219790  39.131  38.681   9.102
 1339POPC   C1A19791  39.293  38.334   8.756
 1339POPC   D2A19792  39.083  38.175   8.408
 1339POPC   C3A19793  39.283  38.351   8.082
 1339POPC   C4A19794  39.534  38.278   7.764
 1339POPC   C1B19795  39.453  38.810   8.796
 1339POPC   C2B19796  39.636  38.698   8.384
 1339POPC   C3B19797  39.545  38.784   7.945
 1339POPC   C4B19798  39.467  38.764   7.465
 1340POPC   NC319799   6.927   7.688   9.341
 1340POPC   PO419800   6.434   7.226   9.427
 1340POPC   GL119801   6.589   7.392   9.058
 1340POPC   GL219802   6.941   7.282   9.025
 1340POPC   C1A19803   6.483   7.721   8.738
 1340POPC   D2A19804   6.275   7.799   8.318
 1340POPC   C3A19805   6.497   7.516   8.005
 1340POPC   C4A19806   6.714   7.482   7.634
 1340POPC   C1B19807   6.778   7.098   8.656
 1340POPC   C2B19808   6.747   7.113   8.216
 1340POPC   C3B19809   6.994   7.133   7.848
 1340POPC   C4B19810   6.953   7.017   7.406
 1341POPC   NC319811  37.377  32.467   9.530
 1341POPC   PO419812  38.032  32.154   9.534
 1341POPC   GL119813  37.932  32.182   9.150
 1341POPC   GL219814  38.168  31.901   9.071
 1341POPC   C1A19815  37.546  32.214   8.907
 1341POPC   D2A19816  37.536  32.143   8.476
 1341POPC   C3A19817  37.379  32.253   8.090
 1341POPC   C4A19818  37.729  32.363   7.822
 1341POPC   C1B19819  37.819  31.800   8.806
 1341POPC   C2B19820  37.703  31.644   8.411
 1341POPC   C3B19821  37.692  31.854   8.021
 1341POPC   C4B19822  37.977  31.911   7.727
 1342POPC   NC319823  43.189  14.988   9.508
 1342POPC   PO419824  42.653  15.469   9.518
 1342POPC   GL119825  42.928  15.311   9.170
 1342POPC   GL219826  42.882  14.970   9.117
 1342POPC   C1A19827  43.144  15.316   8.729
 1342POPC   D2A19828  43.231  15.478   8.271
 1342POPC   C3A19829  43.279  15.233   7.862
 1342POPC   C4A19830  43.391  15.164   7.383
 1342POPC   C1B19831  42.966  14.825   8.732
 1342POPC   C2B19832  42.839  15.020   8.353
 1342POPC   C3B19833  42.926  14.878   7.950
 1342POPC   C4B19834  42.917  15.068   7.534
 1343POPC   NC319835   1.023  20.372   9.280
 1343POPC   PO419836   1.383  20.873   9.489
 1343POPC   GL119837   1.420  20.636   9.108
 1343POPC   GL219838   1.104  20.785   9.005
 1343POPC   C1A19839   1.342  20.448   8.685
 1343POPC   D2A19840   1.019  20.526   8.403
 1343POPC   C3A19841   1.088  20.455   7.970
 1343POPC   C4A19842   1.006  20.714   7.584
 1343POPC   C1B19843   1.424  20.977   8.735
 1343POPC   C2B19844   1.285  20.971   8.341
 1343POPC   C3B19845   1.378  20.873   7.941
 1343POPC   C4B19846   1.754  21.045   7.808
 1344POPC   NC319847  27.410   1.150   9.638
 1344POPC   PO419848  26.894   1.311   9.378
 1344POPC   GL119849  26.832   1.174   9.001
 1344POPC   GL219850  27.155   1.085   8.967
 1344POPC   C1A19851  26.669   0.979   8.633
 1344POPC   D2A19852  26.414   0.951   8.241
 1344POPC   C3A19853  26.582   1.150   7.867
 1344POPC   C4A19854  27.018   1.030   7.760
 1344POPC   C1B19855  27.052   1.420   8.649
 1344POPC   C2B19856  26.809   1.371   8.287
 1344POPC   C3B19857  26.968   1.519   7.911
 1344POPC   C4B19858  27.030   1.514   7.479
 1345POPC   NC319859  25.098   9.333   9.322
 1345POPC   PO419860  25.479   9.709   9.769
 1345POPC   GL119861  25.437   9.737   9.283
 1345POPC   GL219862  25.082   9.836   9.236
 1345POPC   C1A19863  25.514   9.604   8.814
 1345POPC   D2A19864  25.337   9.511   8.362
 1345POPC   C3A19865  25.463   9.600   7.900
 1345POPC   C4A19866  25.371   9.612   7.361
 1345POPC   C1B19867  25.135  10.082   8.850
 1345POPC   C2B19868  24.956  10.142   8.432
 1345POPC   C3B19869  25.005   9.841   8.100
 1345POPC   C4B19870  25.119   9.921   7.688
 1346POPC   NC319871  32.234  18.385   9.905
 1346POPC   PO419872  32.378  18.130   9.331
 1346POPC   GL119873  32.094  18.109   9.031
 1346POPC   GL219874  32.129  18.432   8.910
 1346POPC   C1A19875  32.111  18.041   8.600
 1346POPC   D2A19876  32.281  18.409   8.386
 1346POPC   C3A19877  32.313  18.274   7.979
 1346POPC   C4A19878  32.169  18.151   7.589
 1346POPC   C1B19879  32.313  18.794   8.766
 1346POPC   C2B19880  32.478  18.885   8.413
 1346POPC   C3B19881  32.574  18.698   8.053
 1346POPC   C4B19882  32.624  18.534   7.663
 1347POPC   NC319883   6.962  38.740   9.480
 1347POPC   PO419884   6.476  38.248   9.542
 1347POPC   GL119885   6.724  38.373   9.222
 1347POPC   GL219886   6.547  38.682   9.159
 1347POPC   C1A19887   6.748  38.262   8.809
 1347POPC   D2A19888   6.508  38.197   8.453
 1347POPC   C3A19889   6.694  38.305   8.068
 1347POPC   C4A19890   6.454  38.323   7.724
 1347POPC   C1B19891   6.794  38.780   8.832
 1347POPC   C2B19892   6.687  38.667   8.436
 1347POPC   C3B19893   6.580  38.812   8.032
 1347POPC   C4B19894   6.638  38.767   7.629
 1348POPC   NC319895  16.134  26.906   9.716
 1348POPC   PO419896  15.618  26.510   9.626
 1348POPC   GL119897  15.947  26.616   9.288
 1348POPC   GL219898  15.933  26.963   9.215
 1348POPC   C1A19899  15.972  26.615   8.812
 1348POPC   D2A19900  15.689  26.681   8.430
 1348POPC   C3A19901  15.881  26.807   8.030
 1348POPC   C4A19902  16.099  26.825   7.625
 1348POPC   C1B19903  15.743  27.078   8.788
 1348POPC   C2B19904  15.888  27.194   8.372
 1348POPC   C3B19905  15.740  27.299   7.945
 1348POPC   C4B19906  15.701  27.122   7.510
 1349POPC   NC319907  31.972  10.774   9.425
 1349POPC   PO419908  32.433  10.353   9.729
 1349POPC   GL119909  32.444  10.511   9.290
 1349POPC   GL219910  32.682  10.746   9.235
 1349POPC   C1A19911  32.293  10.630   8.856
 1349POPC   D2A19912  32.033  10.697   8.483
 1349POPC   C3A19913  32.156  10.422   8.124
 1349POPC   C4A19914  32.102  10.531   7.688
 1349POPC   C1B19915  32.740  10.867   8.810
 1349POPC   C2B19916  32.554  10.799   8.367
 1349POPC   C3B19917  32.531  10.745   7.898
 1349POPC   C4B19918  32.481  10.698   7.415
 1350POPC   NC319919  28.836  11.807   9.529
 1350POPC   PO419920  29.236  12.366   9.515
 1350POPC   GL119921  29.280  12.212   9.138
 1350POPC   GL219922  28.951  12.085   9.114
 1350POPC   C1A19923  29.316  12.064   8.745
 1350POPC   D2A19924  29.474  12.198   8.399
 1350POPC   C3A19925  29.203  12.216   8.063
 1350POPC   C4A19926  29.266  12.219   7.652
 1350POPC   C1B19927  28.870  11.816   8.783
 1350POPC   C2B19928  28.905  11.984   8.427
 1350POPC   C3B19929  28.693  12.213   8.143
 1350POPC   C4B19930  28.767  12.062   7.725
 1351POPC   NC319931  14.716  25.094   9.604
 1351POPC   PO419932  14.316  25.594   9.644
 1351POPC   GL119933  14.610  25.525   9.284
 1351POPC   GL219934  14.518  25.200   9.157
 1351POPC   C1A19935  14.707  25.495   8.800
 1351POPC   D2A19936  14.834  25.286   8.404
 1351POPC   C3A19937  14.627  25.383   7.973
 1351POPC   C4A19938  14.678  25.491   7.497
 1351POPC   C1B19939  14.486  25.014   8.757
 1351POPC   C2B19940  14.321  25.269   8.423
 1351POPC   C3B19941  14.113  25.295   8.043
 1351POPC   C4B19942  14.200  25.556   7.737
 1352POPC   NC319943  20.324  42.470   9.855
 1352POPC   PO419944  19.758  42.661   9.514
 1352POPC   GL119945  19.917  42.407   9.215
 1352POPC   GL219946  19.780  42.619   8.982
 1352POPC   C1A19947  20.052  42.202   8.838
 1352POPC   D2A19948  19.853  42.292   8.440
 1352POPC   C3A19949  19.698  42.100   8.057
 1352POPC   C4A19950  19.933  42.167   7.671
 1352POPC   C1B19951  20.105  42.691   8.708
 1352POPC   C2B19952  20.184  42.680   8.288
 1352POPC   C3B19953  19.908  42.578   7.972
 1352POPC   C4B19954  19.576  42.531   7.687
 1353POPC   NC319955  20.173  23.004   9.709
 1353POPC   PO419956  20.722  22.711   9.486
 1353POPC   GL119957  20.463  22.816   9.164
 1353POPC   GL219958  20.388  23.133   9.254
 1353POPC   C1A19959  20.628  22.994   8.793
 1353POPC   D2A19960  20.775  23.258   8.455
 1353POPC   C3A19961  20.739  23.028   8.089
 1353POPC   C4A19962  20.939  22.896   7.730
 1353POPC   C1B19963  20.194  23.260   8.871
 1353POPC   C2B19964  20.295  23.124   8.451
 1353POPC   C3B19965  20.256  23.143   8.029
 1353POPC   C4B19966  20.381  22.912   7.675
 1354POPC   NC319967  15.227  14.908   9.706
 1354POPC   PO419968  14.976  15.510   9.644
 1354POPC   GL119969  14.948  15.168   9.343
 1354POPC   GL219970  15.290  15.138   9.210
 1354POPC   C1A19971  14.907  15.173   8.885
 1354POPC   D2A19972  15.054  15.276   8.458
 1354POPC   C3A19973  15.167  15.116   8.024
 1354POPC   C4A19974  15.142  15.116   7.568
 1354POPC   C1B19975  15.347  14.935   8.805
 1354POPC   C2B19976  15.265  14.803   8.408
 1354POPC   C3B19977  15.567  14.761   8.021
 1354POPC   C4B19978  15.575  14.891   7.584
 1355POPC   NC319979  17.784   3.099   9.354
 1355POPC   PO419980  17.124   3.090   9.668
 1355POPC   GL119981  17.309   3.034   9.204
 1355POPC   GL219982  17.553   2.794   9.042
 1355POPC   C1A19983  17.280   3.113   8.744
 1355POPC   D2A19984  17.136   2.870   8.388
 1355POPC   C3A19985  17.286   2.883   7.982
 1355POPC   C4A19986  17.295   2.499   7.745
 1355POPC   C1B19987  17.537   2.651   8.651
 1355POPC   C2B19988  17.645   2.904   8.319
 1355POPC   C3B19989  17.746   2.662   7.949
 1355POPC   C4B19990  17.917   2.716   7.547
 1356POPC   NC319991  20.257  13.394   9.491
 1356POPC   PO419992  20.762  13.910   9.601
 1356POPC   GL119993  20.769  13.799   9.191
 1356POPC   GL219994  20.474  13.600   9.078
 1356POPC   C1A19995  20.678  13.971   8.786
 1356POPC   D2A19996  20.486  13.795   8.440
 1356POPC   C3A19997  20.680  13.802   8.043
 1356POPC   C4A19998  20.804  13.712   7.617
 1356POPC   C1B19999  20.390  13.309   8.710
 1356POPC   C2B20000  20.369  13.184   8.269
 1356POPC   C3B20001  20.551  13.285   7.809
 1356POPC   C4B20002  20.427  13.395   7.328
 1357POPC   NC320003  23.165  41.028   9.443
 1357POPC   PO420004  22.552  40.586   9.492
 1357POPC   GL120005  22.708  40.867   9.203
 1357POPC   GL220006  22.988  40.617   9.190
 1357POPC   C1A20007  22.932  40.953   8.815
 1357POPC   D2A20008  23.217  40.985   8.459
 1357POPC   C3A20009  23.017  41.247   8.153
 1357POPC   C4A20010  22.728  41.102   7.849
 1357POPC   C1B20011  23.155  40.471   8.792
 1357POPC   C2B20012  22.973  40.518   8.392
 1357POPC   C3B20013  23.035  40.733   8.010
 1357POPC   C4B20014  23.282  40.997   7.749
 1358POPC   NC320015  42.294   1.670   9.789
 1358POPC   PO420016  42.134   2.240   9.426
 1358POPC   GL120017  42.352   1.976   9.106
 1358POPC   GL220018  42.438   1.631   9.183
 1358POPC   C1A20019  42.504   2.103   8.715
 1358POPC   D2A20020  42.452   2.390   8.426
 1358POPC   C3A20021  42.511   2.193   8.059
 1358POPC   C4A20022  42.297   2.197   7.684
 1358POPC   C1B20023  42.296   1.619   8.752
 1358POPC   C2B20024  42.139   1.497   8.350
 1358POPC   C3B20025  42.297   1.664   7.980
 1358POPC   C4B20026  42.612   1.805   7.746
 1359POPC   NC320027  27.277  26.528   9.453
 1359POPC   PO420028  27.657  27.004   9.659
 1359POPC   GL120029  27.682  26.820   9.201
 1359POPC   GL220030  27.479  26.513   8.995
 1359POPC   C1A20031  27.788  26.842   8.756
 1359POPC   D2A20032  27.578  26.600   8.429
 1359POPC   C3A20033  27.674  26.841   8.017
 1359POPC   C4A20034  27.558  27.245   7.932
 1359POPC   C1B20035  27.277  26.885   8.786
 1359POPC   C2B20036  27.303  27.014   8.339
 1359POPC   C3B20037  27.203  26.680   8.002
 1359POPC   C4B20038  27.153  26.317   7.730
 1360POPC   NC320039  28.348  35.599   9.689
 1360POPC   PO420040  28.697  35.015   9.451
 1360POPC   GL120041  28.600  35.263   9.092
 1360POPC   GL220042  28.310  35.427   9.209
 1360POPC   C1A20043  28.595  35.249   8.634
 1360POPC   D2A20044  28.504  35.358   8.207
 1360POPC   C3A20045  28.692  35.114   7.889
 1360POPC   C4A20046  28.510  35.087   7.509
 1360POPC   C1B20047  28.280  35.645   8.809
 1360POPC   C2B20048  28.124  35.762   8.405
 1360POPC   C3B20049  28.295  35.831   8.018
 1360POPC   C4B20050  28.409  35.537   7.739
 1361POPC   NC320051  43.458   7.193   9.539
 1361POPC   PO420052  42.782   7.271   9.523
 1361POPC   GL120053  42.880   7.410   9.093
 1361POPC   GL220054  43.205   7.350   9.137
 1361POPC   C1A20055  43.066   7.705   8.802
 1361POPC   D2A20056  43.203   7.780   8.353
 1361POPC   C3A20057  42.976   7.484   8.064
 1361POPC   C4A20058  42.858   7.295   7.649
 1361POPC   C1B20059  43.395   7.319   8.745
 1361POPC   C2B20060  43.445   7.048   8.401
 1361POPC   C3B20061  43.589   7.169   8.006
 1361POPC   C4B20062  43.367   7.379   7.715
 1362POPC   NC320063  18.911  23.566   9.508
 1362POPC   PO420064  18.740  24.241   9.464
 1362POPC   GL120065  18.966  23.940   9.116
 1362POPC   GL220066  19.121  23.609   9.065
 1362POPC   C1A20067  19.126  23.883   8.642
 1362POPC   D2A20068  19.030  23.596   8.288
 1362POPC   C3A20069  19.078  23.691   7.841
 1362POPC   C4A20070  18.979  23.437   7.460
 1362POPC   C1B20071  19.231  23.381   8.731
 1362POPC   C2B20072  19.502  23.551   8.446
 1362POPC   C3B20073  19.460  23.410   8.039
 1362POPC   C4B20074  19.453  23.352   7.614
 1363POPC   NC320075  22.040  43.030   9.681
 1363POPC   PO420076  22.614  43.226   9.404
 1363POPC   GL120077  22.229  43.135   9.210
 1363POPC   GL220078  21.887  43.317   9.258
 1363POPC   C1A20079  22.233  43.195   8.779
 1363POPC   D2A20080  22.413  43.254   8.387
 1363POPC   C3A20081  22.152  43.066   8.107
 1363POPC   C4A20082  22.178  42.836   7.739
 1363POPC   C1B20083  21.885  43.561   8.872
 1363POPC   C2B20084  22.098  43.647   8.475
 1363POPC   C3B20085  21.961  43.568   8.047
 1363POPC   C4B20086  22.080  43.344   7.696
 1364POPC   NC320087  10.194  24.750   9.648
 1364POPC   PO420088   9.600  24.511   9.407
 1364POPC   GL120089   9.339  24.550   9.072
 1364POPC   GL220090   9.265  24.212   9.090
 1364POPC   C1A20091   9.398  24.691   8.670
 1364POPC   D2A20092   9.487  24.883   8.296
 1364POPC   C3A20093   9.742  24.696   7.958
 1364POPC   C4A20094   9.553  24.673   7.549
 1364POPC   C1B20095   9.646  24.242   8.801
 1364POPC   C2B20096   9.938  24.225   8.456
 1364POPC   C3B20097   9.732  24.105   8.103
 1364POPC   C4B20098   9.711  24.222   7.696
 1365POPC   NC320099  29.122  35.112   9.284
 1365POPC   PO420100  29.539  35.550   9.389
 1365POPC   GL120101  29.445  35.359   8.971
 1365POPC   GL220102  29.056  35.384   8.874
 1365POPC   C1A20103  29.318  35.113   8.573
 1365POPC   D2A20104  29.006  35.215   8.283
 1365POPC   C3A20105  29.195  35.222   7.879
 1365POPC   C4A20106  29.344  35.384   7.469
 1365POPC   C1B20107  28.786  35.722   8.815
 1365POPC   C2B20108  28.641  35.794   8.411
 1365POPC   C3B20109  28.869  35.672   8.012
 1365POPC   C4B20110  28.877  35.486   7.575
 1366POPC   NC320111  32.621  44.150   9.559
 1366POPC   PO420112  32.067  43.759   9.638
 1366POPC   GL120113  32.065  44.025   9.265
 1366POPC   GL220114  32.386  43.950   9.117
 1366POPC   C1A20115  31.972  44.155   8.827
 1366POPC   D2A20116  32.137  44.014   8.437
 1366POPC   C3A20117  32.162  44.200   8.010
 1366POPC   C4A20118  32.260  43.976   7.659
 1366POPC   C1B20119  32.122  43.663   8.862
 1366POPC   C2B20120  32.036  43.496   8.453
 1366POPC   C3B20121  32.064  43.675   8.042
 1366POPC   C4B20122  31.996  43.551   7.624
 1367POPC   NC320123   3.132  15.846   9.441
 1367POPC   PO420124   3.780  16.096   9.623
 1367POPC   GL120125   3.580  15.957   9.208
 1367POPC   GL220126   3.513  15.575   9.200
 1367POPC   C1A20127   3.298  15.965   8.805
 1367POPC   D2A20128   3.205  16.188   8.429
 1367POPC   C3A20129   3.403  15.868   8.180
 1367POPC   C4A20130   3.523  15.949   7.786
 1367POPC   C1B20131   3.726  15.647   8.804
 1367POPC   C2B20132   3.752  15.469   8.391
 1367POPC   C3B20133   3.883  15.644   7.981
 1367POPC   C4B20134   4.002  16.085   7.845
 1368POPC   NC320135  38.657  17.980   9.509
 1368POPC   PO420136  38.226  18.512   9.573
 1368POPC   GL120137  38.474  18.388   9.238
 1368POPC   GL220138  38.320  18.093   9.119
 1368POPC   C1A20139  38.649  18.524   8.838
 1368POPC   D2A20140  38.423  18.669   8.468
 1368POPC   C3A20141  38.419  18.315   8.212
 1368POPC   C4A20142  38.527  18.371   7.821
 1368POPC   C1B20143  38.675  17.982   8.829
 1368POPC   C2B20144  38.835  18.091   8.411
 1368POPC   C3B20145  38.698  17.928   7.992
 1368POPC   C4B20146  38.873  18.066   7.597
 1369POPC   NC320147   5.803  26.542   9.603
 1369POPC   PO420148   6.110  27.119   9.610
 1369POPC   GL120149   5.864  26.993   9.239
 1369POPC   GL220150   5.819  26.657   9.078
 1369POPC   C1A20151   5.772  27.136   8.814
 1369POPC   D2A20152   5.660  26.881   8.496
 1369POPC   C3A20153   5.787  26.986   8.095
 1369POPC   C4A20154   5.995  26.770   7.807
 1369POPC   C1B20155   5.979  26.498   8.654
 1369POPC   C2B20156   5.880  26.464   8.199
 1369POPC   C3B20157   5.553  26.539   7.857
 1369POPC   C4B20158   5.590  26.752   7.445
 1370POPC   NC320159  41.084  21.375   9.500
 1370POPC   PO420160  40.573  20.945   9.593
 1370POPC   GL120161  40.748  21.060   9.208
 1370POPC   GL220162  40.689  21.425   9.156
 1370POPC   C1A20163  40.650  21.059   8.789
 1370POPC   D2A20164  40.500  21.367   8.506
 1370POPC   C3A20165  40.535  21.279   8.055
 1370POPC   C4A20166  40.599  21.569   7.716
 1370POPC   C1B20167  41.012  21.434   8.803
 1370POPC   C2B20168  41.005  21.260   8.390
 1370POPC   C3B20169  41.013  21.502   8.032
 1370POPC   C4B20170  41.111  21.475   7.652
 1371POPC   NC320171   7.130  10.371   9.545
 1371POPC   PO420172   6.497  10.458   9.784
 1371POPC   GL120173   6.480  10.436   9.267
 1371POPC   GL220174   6.271  10.655   9.081
 1371POPC   C1A20175   6.720  10.431   8.859
 1371POPC   D2A20176   6.857  10.193   8.488
 1371POPC   C3A20177   6.966  10.425   8.093
 1371POPC   C4A20178   6.861  10.625   7.677
 1371POPC   C1B20179   6.216  10.323   8.821
 1371POPC   C2B20180   6.334  10.265   8.443
 1371POPC   C3B20181   6.408  10.538   8.107
 1371POPC   C4B20182   6.359  10.506   7.681
 1372POPC   NC320183  36.565  36.258   9.319
 1372POPC   PO420184  37.026  35.896   9.627
 1372POPC   GL120185  37.002  35.906   9.177
 1372POPC   GL220186  36.672  35.865   9.029
 1372POPC   C1A20187  37.092  36.024   8.745
 1372POPC   D2A20188  36.989  35.942   8.307
 1372POPC   C3A20189  37.139  36.286   8.052
 1372POPC   C4A20190  37.438  36.294   7.760
 1372POPC   C1B20191  36.613  36.169   8.628
 1372POPC   C2B20192  36.620  36.249   8.126
 1372POPC   C3B20193  36.824  36.010   7.758
 1372POPC   C4B20194  36.686  35.901   7.322
 1373POPC   NC320195   8.478  38.346   9.423
 1373POPC   PO420196   8.207  38.991   9.597
 1373POPC   GL120197   8.125  38.698   9.219
 1373POPC   GL220198   7.826  38.471   9.216
 1373POPC   C1A20199   8.154  38.419   8.826
 1373POPC   D2A20200   7.995  38.262   8.425
 1373POPC   C3A20201   8.156  38.357   8.040
 1373POPC   C4A20202   8.133  38.588   7.680
 1373POPC   C1B20203   7.642  38.298   8.784
 1373POPC   C2B20204   7.505  38.260   8.287
 1373POPC   C3B20205   7.677  38.365   7.842
 1373POPC   C4B20206   7.924  38.135   7.536
 1374POPC   NC320207  27.713  15.598   9.628
 1374POPC   PO420208  27.344  16.233   9.590
 1374POPC   GL120209  27.360  16.028   9.169
 1374POPC   GL220210  27.437  15.694   9.192
 1374POPC   C1A20211  27.467  16.027   8.687
 1374POPC   D2A20212  27.419  15.753   8.306
 1374POPC   C3A20213  27.494  15.927   7.884
 1374POPC   C4A20214  27.740  16.260   7.757
 1374POPC   C1B20215  27.825  15.864   8.996
 1374POPC   C2B20216  27.953  15.794   8.558
 1374POPC   C3B20217  27.927  15.698   8.128
 1374POPC   C4B20218  28.038  15.831   7.736
 1375POPC   NC320219   2.532  25.110   9.570
 1375POPC   PO420220   3.206  25.350   9.643
 1375POPC   GL120221   2.833  25.461   9.353
 1375POPC   GL220222   2.872  25.172   9.158
 1375POPC   C1A20223   2.599  25.520   8.933
 1375POPC   D2A20224   2.507  25.310   8.567
 1375POPC   C3A20225   2.766  25.434   8.229
 1375POPC   C4A20226   2.651  25.390   7.794
 1375POPC   C1B20227   3.023  25.261   8.735
 1375POPC   C2B20228   2.950  24.962   8.397
 1375POPC   C3B20229   2.813  24.890   7.988
 1375POPC   C4B20230   2.997  25.059   7.658
 1376POPC   NC320231  24.288   9.186   9.516
 1376POPC   PO420232  24.950   8.933   9.567
 1376POPC   GL120233  24.691   8.922   9.200
 1376POPC   GL220234  24.344   8.899   9.085
 1376POPC   C1A20235  24.737   8.787   8.764
 1376POPC   D2A20236  24.374   8.857   8.511
 1376POPC   C3A20237  24.494   8.926   8.127
 1376POPC   C4A20238  24.581   8.761   7.735
 1376POPC   C1B20239  24.060   9.164   8.844
 1376POPC   C2B20240  23.895   9.224   8.430
 1376POPC   C3B20241  24.079   9.249   8.035
 1376POPC   C4B20242  24.099   8.924   7.767
 1377POPC   NC320243   9.151  30.346   9.479
 1377POPC   PO420244   8.683  30.775   9.600
 1377POPC   GL120245   8.792  30.621   9.191
 1377POPC   GL220246   8.896  30.921   9.032
 1377POPC   C1A20247   8.880  30.483   8.760
 1377POPC   D2A20248   8.876  30.698   8.390
 1377POPC   C3A20249   9.045  30.441   8.082
 1377POPC   C4A20250   8.889  30.487   7.674
 1377POPC   C1B20251   9.233  30.924   8.697
 1377POPC   C2B20252   9.373  30.874   8.264
 1377POPC   C3B20253   9.142  30.903   7.866
 1377POPC   C4B20254   9.114  30.931   7.402
 1378POPC   NC320255  17.985  13.990   9.343
 1378POPC   PO420256  18.439  13.660   9.603
 1378POPC   GL120257  18.317  13.497   9.171
 1378POPC   GL220258  18.232  13.778   8.955
 1378POPC   C1A20259  18.304  13.352   8.719
 1378POPC   D2A20260  18.126  13.604   8.370
 1378POPC   C3A20261  18.312  13.500   7.988
 1378POPC   C4A20262  18.507  13.456   7.593
 1378POPC   C1B20263  18.021  14.056   8.674
 1378POPC   C2B20264  17.864  14.120   8.277
 1378POPC   C3B20265  18.121  14.121   7.934
 1378POPC   C4B20266  18.162  13.819   7.590
 1379POPC   NC320267   1.418   7.988   9.524
 1379POPC   PO420268   0.800   8.166   9.807
 1379POPC   GL120269   1.067   8.303   9.332
 1379POPC   GL220270   1.449   8.305   9.145
 1379POPC   C1A20271   1.064   8.243   8.847
 1379POPC   D2A20272   1.090   8.139   8.413
 1379POPC   C3A20273   0.980   8.399   8.059
 1379POPC   C4A20274   1.243   8.680   7.796
 1379POPC   C1B20275   1.499   7.971   8.813
 1379POPC   C2B20276   1.454   7.789   8.388
 1379POPC   C3B20277   1.383   8.009   7.990
 1379POPC   C4B20278   1.280   8.081   7.549
 1380POPC   NC320279  44.830  29.330   9.756
 1380POPC   PO420280  44.308  29.004   9.557
 1380POPC   GL120281  44.453  29.012   9.151
 1380POPC   GL220282  44.302  29.324   9.053
 1380POPC   C1A20283  44.726  28.829   8.812
 1380POPC   D2A20284  44.908  29.015   8.411
 1380POPC   C3A20285  44.753  28.968   8.003
 1380POPC   C4A20286  44.366  28.837   7.839
 1380POPC   C1B20287  44.465  29.227   8.641
 1380POPC   C2B20288  44.280  29.182   8.231
 1380POPC   C3B20289  44.415  29.352   7.832
 1380POPC   C4B20290  44.873  29.378   7.686
 1381POPC   NC320291  13.395  21.931   9.504
 1381POPC   PO420292  13.884  21.391   9.512
 1381POPC   GL120293  13.730  21.306   9.121
 1381POPC   GL220294  13.400  21.265   9.026
 1381POPC   C1A20295  13.771  21.438   8.688
 1381POPC   D2A20296  13.632  21.213   8.342
 1381POPC   C3A20297  13.585  21.427   7.955
 1381POPC   C4A20298  13.664  21.838   7.756
 1381POPC   C1B20299  13.260  21.541   8.727
 1381POPC   C2B20300  13.376  21.651   8.352
 1381POPC   C3B20301  13.096  21.597   8.016
 1381POPC   C4B20302  13.191  21.572   7.602
 1382POPC   NC320303  33.208  24.060   9.664
 1382POPC   PO420304  33.364  24.756   9.631
 1382POPC   GL120305  33.199  24.486   9.272
 1382POPC   GL220306  33.345  24.179   9.194
 1382POPC   C1A20307  33.003  24.446   8.844
 1382POPC   D2A20308  32.938  24.718   8.489
 1382POPC   C3A20309  32.857  24.516   8.165
 1382POPC   C4A20310  32.818  24.419   7.765
 1382POPC   C1B20311  33.501  24.327   8.789
 1382POPC   C2B20312  33.325  24.373   8.394
 1382POPC   C3B20313  33.247  24.242   7.985
 1382POPC   C4B20314  33.228  24.226   7.549
 1383POPC   NC320315   9.155  27.194   9.457
 1383POPC   PO420316   8.877  26.600   9.662
 1383POPC   GL120317   8.918  26.763   9.241
 1383POPC   GL220318   8.757  26.472   9.154
 1383POPC   C1A20319   9.107  26.876   8.811
 1383POPC   D2A20320   9.154  26.736   8.367
 1383POPC   C3A20321   9.059  27.044   8.055
 1383POPC   C4A20322   9.091  27.187   7.658
 1383POPC   C1B20323   8.895  26.414   8.756
 1383POPC   C2B20324   8.650  26.624   8.456
 1383POPC   C3B20325   8.698  26.673   8.055
 1383POPC   C4B20326   9.059  26.448   7.898
 1384POPC   NC320327  28.988  27.185   9.491
 1384POPC   PO420328  29.613  27.121   9.467
 1384POPC   GL120329  29.356  26.865   9.183
 1384POPC   GL220330  29.054  26.669   9.254
 1384POPC   C1A20331  29.285  26.609   8.814
 1384POPC   D2A20332  29.218  26.808   8.449
 1384POPC   C3A20333  29.013  26.649   8.135
 1384POPC   C4A20334  29.124  26.632   7.720
 1384POPC   C1B20335  28.950  26.997   8.881
 1384POPC   C2B20336  28.756  27.062   8.471
 1384POPC   C3B20337  28.945  27.153   8.060
 1384POPC   C4B20338  29.046  27.131   7.622
 1385POPC   NC320339   3.866   7.699   9.373
 1385POPC   PO420340   3.334   7.323   9.587
 1385POPC   GL120341   3.317   7.227   9.146
 1385POPC   GL220342   3.355   7.550   9.031
 1385POPC   C1A20343   3.511   7.179   8.731
 1385POPC   D2A20344   3.556   7.384   8.319
 1385POPC   C3A20345   3.890   7.326   8.051
 1385POPC   C4A20346   3.899   7.172   7.642
 1385POPC   C1B20347   3.588   7.739   8.696
 1385POPC   C2B20348   3.724   7.879   8.308
 1385POPC   C3B20349   3.675   7.767   7.907
 1385POPC   C4B20350   3.695   7.679   7.489
 1386POPC   NC320351  22.648  41.884   9.464
 1386POPC   PO420352  22.777  41.246   9.541
 1386POPC   GL120353  22.900  41.456   9.114
 1386POPC   GL220354  22.670  41.753   8.968
 1386POPC   C1A20355  22.954  41.437   8.644
 1386POPC   D2A20356  22.629  41.576   8.365
 1386POPC   C3A20357  22.729  41.623   7.920
 1386POPC   C4A20358  23.049  41.448   7.667
 1386POPC   C1B20359  23.021  41.935   8.719
 1386POPC   C2B20360  23.203  41.780   8.305
 1386POPC   C3B20361  23.160  41.922   7.860
 1386POPC   C4B20362  23.084  41.875   7.384
 1387POPC   NC320363  25.071  43.963   9.442
 1387POPC   PO420364  25.628  44.431   9.562
 1387POPC   GL120365  25.513  44.099   9.180
 1387POPC   GL220366  25.295  43.775   9.030
 1387POPC   C1A20367  25.405  44.154   8.748
 1387POPC   D2A20368  25.231  43.831   8.463
 1387POPC   C3A20369  25.219  43.997   8.048
 1387POPC   C4A20370  25.430  43.918   7.650
 1387POPC   C1B20371  25.482  43.428   8.808
 1387POPC   C2B20372  25.403  43.335   8.400
 1387POPC   C3B20373  25.520  43.559   8.051
 1387POPC   C4B20374  25.625  43.437   7.661
 1388POPC   NC320375  29.741  27.566   9.509
 1388POPC   PO420376  28.992  27.770   9.539
 1388POPC   GL120377  29.276  27.616   9.285
 1388POPC   GL220378  29.450  27.894   9.175
 1388POPC   C1A20379  29.346  27.404   8.920
 1388POPC   D2A20380  29.185  27.316   8.527
 1388POPC   C3A20381  29.256  27.545   8.164
 1388POPC   C4A20382  29.045  27.613   7.778
 1388POPC   C1B20383  29.478  28.086   8.774
 1388POPC   C2B20384  29.526  27.976   8.318
 1388POPC   C3B20385  29.481  27.911   7.875
 1388POPC   C4B20386  29.427  27.740   7.435
 1389POPC   NC320387   6.344  43.520   9.553
 1389POPC   PO420388   6.598  44.145   9.495
 1389POPC   GL120389   6.599  43.811   9.189
 1389POPC   GL220390   6.257  43.660   9.060
 1389POPC   C1A20391   6.693  43.714   8.772
 1389POPC   D2A20392   6.550  43.604   8.369
 1389POPC   C3A20393   6.896  43.690   8.120
 1389POPC   C4A20394   6.956  43.913   7.778
 1389POPC   C1B20395   6.203  43.965   8.687
 1389POPC   C2B20396   6.166  44.021   8.227
 1389POPC   C3B20397   6.444  43.853   7.924
 1389POPC   C4B20398   6.550  43.463   7.791
 1390POPC   NC320399   3.972   5.896   9.525
 1390POPC   PO420400   4.589   6.070   9.682
 1390POPC   GL120401   4.529   5.883   9.251
 1390POPC   GL220402   4.200   5.757   9.101
 1390POPC   C1A20403   4.514   6.010   8.825
 1390POPC   D2A20404   4.259   6.023   8.483
 1390POPC   C3A20405   4.412   5.888   8.070
 1390POPC   C4A20406   4.267   5.998   7.668
 1390POPC   C1B20407   3.979   5.639   8.737
 1390POPC   C2B20408   4.133   5.515   8.324
 1390POPC   C3B20409   4.050   5.577   7.880
 1390POPC   C4B20410   3.916   5.305   7.593
 1391POPC   NC320411  22.359   4.815   9.458
 1391POPC   PO420412  21.802   5.179   9.558
 1391POPC   GL120413  22.090   5.179   9.198
 1391POPC   GL220414  22.017   4.867   9.062
 1391POPC   C1A20415  22.245   5.324   8.785
 1391POPC   D2A20416  22.047   5.282   8.352
 1391POPC   C3A20417  22.270   5.262   7.950
 1391POPC   C4A20418  22.372   5.490   7.579
 1391POPC   C1B20419  22.144   4.843   8.643
 1391POPC   C2B20420  22.161   4.793   8.235
 1391POPC   C3B20421  21.954   4.624   7.902
 1391POPC   C4B20422  22.316   4.781   7.712
 1392POPC   NC320423  37.696   8.069   9.638
 1392POPC   PO420424  37.499   8.734   9.507
 1392POPC   GL120425  37.584   8.359   9.221
 1392POPC   GL220426  37.859   8.059   9.146
 1392POPC   C1A20427  37.499   8.379   8.797
 1392POPC   D2A20428  37.268   8.382   8.427
 1392POPC   C3A20429  37.306   8.573   8.079
 1392POPC   C4A20430  37.434   8.312   7.747
 1392POPC   C1B20431  37.971   8.138   8.675
 1392POPC   C2B20432  37.854   8.113   8.222
 1392POPC   C3B20433  37.920   8.210   7.776
 1392POPC   C4B20434  38.088   8.091   7.354
 1393POPC   NC320435  44.977  25.211   9.368
 1393POPC   PO420436  44.630  25.552   9.834
 1393POPC   GL120437  44.541  25.465   9.326
 1393POPC   GL220438  44.738  25.548   9.010
 1393POPC   C1A20439  44.519  25.136   8.896
 1393POPC   D2A20440  44.778  25.249   8.536
 1393POPC   C3A20441  44.596  25.209   8.144
 1393POPC   C4A20442  44.428  25.262   7.764
 1393POPC   C1B20443   0.109  25.516   8.803
 1393POPC   C2B20444   0.305  25.471   8.412
 1393POPC   C3B20445   0.062  25.419   8.082
 1393POPC   C4B20446  44.907  25.366   7.712
 1394POPC   NC320447  43.729  35.254   9.803
 1394POPC   PO420448  44.130  35.657   9.579
 1394POPC   GL120449  43.898  35.374   9.261
 1394POPC   GL220450  43.572  35.502   9.219
 1394POPC   C1A20451  43.752  35.190   8.811
 1394POPC   D2A20452  43.540  34.846   8.497
 1394POPC   C3A20453  43.512  34.884   8.017
 1394POPC   C4A20454  43.692  35.184   7.740
 1394POPC   C1B20455  43.390  35.584   8.801
 1394POPC   C2B20456  43.613  35.761   8.426
 1394POPC   C3B20457  43.879  35.698   8.031
 1394POPC   C4B20458  43.774  35.703   7.574
 1395POPC   NC320459  42.140  25.415   9.275
 1395POPC   PO420460  41.595  25.369   9.671
 1395POPC   GL120461  41.626  25.237   9.223
 1395POPC   GL220462  41.813  25.355   8.920
 1395POPC   C1A20463  41.364  25.210   8.818
 1395POPC   D2A20464  41.603  25.118   8.434
 1395POPC   C3A20465  41.367  25.062   8.041
 1395POPC   C4A20466  41.597  24.948   7.669
 1395POPC   C1B20467  41.950  25.691   8.709
 1395POPC   C2B20468  41.935  25.633   8.313
 1395POPC   C3B20469  41.698  25.434   8.003
 1395POPC   C4B20470  41.789  25.742   7.776
 1396POPC   NC320471  14.252  17.896   9.447
 1396POPC   PO420472  14.557  18.478   9.519
 1396POPC   GL120473  14.579  18.268   9.140
 1396POPC   GL220474  14.250  18.263   9.114
 1396POPC   C1A20475  14.526  18.394   8.705
 1396POPC   D2A20476  14.620  18.204   8.311
 1396POPC   C3A20477  14.432  18.333   7.921
 1396POPC   C4A20478  14.560  18.378   7.492
 1396POPC   C1B20479  14.149  18.017   8.778
 1396POPC   C2B20480  14.240  17.860   8.374
 1396POPC   C3B20481  14.029  18.008   8.012
 1396POPC   C4B20482  13.909  18.085   7.592
 1397POPC   NC320483  39.921  28.796   9.637
 1397POPC   PO420484  40.090  28.275   9.521
 1397POPC   GL120485  39.955  28.492   9.177
 1397POPC   GL220486  40.158  28.805   9.171
 1397POPC   C1A20487  39.766  28.469   8.771
 1397POPC   D2A20488  39.810  28.233   8.379
 1397POPC   C3A20489  39.624  28.418   8.023
 1397POPC   C4A20490  39.650  28.470   7.587
 1397POPC   C1B20491  40.252  28.650   8.765
 1397POPC   C2B20492  40.032  28.710   8.374
 1397POPC   C3B20493  40.156  28.441   8.045
 1397POPC   C4B20494  40.236  28.454   7.636
 1398POPC   NC320495  27.478  27.387   9.920
 1398POPC   PO420496  27.336  27.934   9.480
 1398POPC   GL120497  27.590  27.737   9.135
 1398POPC   GL220498  27.721  27.394   9.142
 1398POPC   C1A20499  27.590  27.627   8.695
 1398POPC   D2A20500  27.669  27.645   8.261
 1398POPC   C3A20501  27.344  27.695   7.975
 1398POPC   C4A20502  27.520  27.828   7.620
 1398POPC   C1B20503  28.014  27.329   8.777
 1398POPC   C2B20504  27.936  27.203   8.336
 1398POPC   C3B20505  28.064  27.316   7.903
 1398POPC   C4B20506  27.805  27.423   7.528
 1399POPC   NC320507  41.445  37.944   9.555
 1399POPC   PO420508  41.418  37.283   9.577
 1399POPC   GL120509  41.268  37.492   9.206
 1399POPC   GL220510  41.596  37.645   9.181
 1399POPC   C1A20511  41.273  37.728   8.805
 1399POPC   D2A20512  41.422  38.052   8.559
 1399POPC   C3A20513  41.329  38.046   8.115
 1399POPC   C4A20514  41.389  37.728   7.831
 1399POPC   C1B20515  41.792  37.819   8.827
 1399POPC   C2B20516  41.923  37.804   8.439
 1399POPC   C3B20517  41.843  37.903   8.046
 1399POPC   C4B20518  41.881  37.738   7.662
 1400POPC   NC320519   4.922   0.237   9.450
 1400POPC   PO420520   4.762   0.866   9.429
 1400POPC   GL120521   5.030   0.787   9.046
 1400POPC   GL220522   5.151   0.437   9.031
 1400POPC   C1A20523   4.969   0.653   8.601
 1400POPC   D2A20524   4.797   0.391   8.270
 1400POPC   C3A20525   5.051   0.421   7.913
 1400POPC   C4A20526   5.497   0.450   7.894
 1400POPC   C1B20527   5.145   0.155   8.645
 1400POPC   C2B20528   5.295   0.045   8.206
 1400POPC   C3B20529   5.316   0.024   7.725
 1400POPC   C4B20530   5.380  44.872   7.310
 1401POPC   NC320531  41.770  11.756   9.636
 1401POPC   PO420532  41.501  12.340   9.581
 1401POPC   GL120533  41.538  12.208   9.157
 1401POPC   GL220534  41.510  11.833   9.190
 1401POPC   C1A20535  41.582  12.426   8.733
 1401POPC   D2A20536  41.651  12.183   8.344
 1401POPC   C3A20537  41.642  12.320   7.901
 1401POPC   C4A20538  41.917  12.495   7.612
 1401POPC   C1B20539  41.429  11.905   8.750
 1401POPC   C2B20540  41.523  11.683   8.378
 1401POPC   C3B20541  41.718  11.800   7.999
 1401POPC   C4B20542  41.442  11.804   7.652
 1402POPC   NC320543  14.290   6.801   9.499
 1402POPC   PO420544  14.541   6.205   9.262
 1402POPC   GL120545  14.447   6.558   9.046
 1402POPC   GL220546  14.140   6.689   9.032
 1402POPC   C1A20547  14.365   6.507   8.609
 1402POPC   D2A20548  14.530   6.415   8.220
 1402POPC   C3A20549  14.522   6.728   7.879
 1402POPC   C4A20550  14.596   6.670   7.440
 1402POPC   C1B20551  14.086   6.932   8.662
 1402POPC   C2B20552  14.186   6.848   8.257
 1402POPC   C3B20553  14.120   7.067   7.887
 1402POPC   C4B20554  14.356   7.138   7.520
 1403POPC   NC320555  38.223  42.908   9.621
 1403POPC   PO420556  38.857  42.978   9.563
 1403POPC   GL120557  38.573  42.942   9.225
 1403POPC   GL220558  38.328  43.211   9.204
 1403POPC   C1A20559  38.684  43.044   8.807
 1403POPC   D2A20560  38.892  43.181   8.443
 1403POPC   C3A20561  38.772  42.942   8.087
 1403POPC   C4A20562  38.612  42.930   7.688
 1403POPC   C1B20563  38.184  43.141   8.793
 1403POPC   C2B20564  38.342  43.044   8.394
 1403POPC   C3B20565  38.401  43.278   8.025
 1403POPC   C4B20566  38.150  43.134   7.737
 1404POPC   NC320567  10.031  30.867   9.510
 1404POPC   PO420568   9.612  30.405   9.571
 1404POPC   GL120569   9.612  30.592   9.177
 1404POPC   GL220570   9.302  30.531   9.031
 1404POPC   C1A20571   9.731  30.791   8.785
 1404POPC   D2A20572   9.850  30.659   8.385
 1404POPC   C3A20573   9.857  30.905   8.023
 1404POPC   C4A20574  10.113  30.800   7.684
 1404POPC   C1B20575   9.387  30.437   8.600
 1404POPC   C2B20576   9.545  30.275   8.219
 1404POPC   C3B20577   9.502  30.542   7.871
 1404POPC   C4B20578   9.340  30.492   7.437
 1405POPC   NC320579  30.893  29.702   9.497
 1405POPC   PO420580  30.637  30.397   9.466
 1405POPC   GL120581  30.651  30.055   9.183
 1405POPC   GL220582  30.988  30.009   9.107
 1405POPC   C1A20583  30.540  29.841   8.794
 1405POPC   D2A20584  30.360  29.997   8.396
 1405POPC   C3A20585  30.524  29.885   8.003
 1405POPC   C4A20586  30.445  29.907   7.579
 1405POPC   C1B20587  31.144  29.942   8.725
 1405POPC   C2B20588  30.896  29.875   8.388
 1405POPC   C3B20589  31.046  29.838   7.992
 1405POPC   C4B20590  30.928  30.052   7.673
 1406POPC   NC320591  14.903  42.238   9.348
 1406POPC   PO420592  15.559  42.533   9.370
 1406POPC   GL120593  15.419  42.224   9.085
 1406POPC   GL220594  15.404  41.869   9.142
 1406POPC   C1A20595  15.359  42.145   8.660
 1406POPC   D2A20596  14.945  42.228   8.474
 1406POPC   C3A20597  14.998  42.504   8.145
 1406POPC   C4A20598  15.093  42.361   7.764
 1406POPC   C1B20599  15.018  41.812   8.816
 1406POPC   C2B20600  15.142  41.741   8.405
 1406POPC   C3B20601  15.293  42.032   8.115
 1406POPC   C4B20602  15.523  42.111   7.747
 1407POPC   NC320603  37.888  11.342   9.429
 1407POPC   PO420604  37.650  10.776   9.660
 1407POPC   GL120605  37.520  11.045   9.226
 1407POPC   GL220606  37.779  11.190   8.977
 1407POPC   C1A20607  37.315  11.230   8.808
 1407POPC   D2A20608  37.535  11.442   8.432
 1407POPC   C3A20609  37.529  11.273   7.994
 1407POPC   C4A20610  37.702  11.503   7.635
 1407POPC   C1B20611  38.084  11.159   8.684
 1407POPC   C2B20612  37.947  11.115   8.281
 1407POPC   C3B20613  38.036  11.180   7.881
 1407POPC   C4B20614  37.969  11.061   7.476
 1408POPC   NC320615   5.843  16.544   9.527
 1408POPC   PO420616   5.809  17.194   9.627
 1408POPC   GL120617   5.961  16.996   9.222
 1408POPC   GL220618   5.710  16.771   9.071
 1408POPC   C1A20619   6.101  16.957   8.776
 1408POPC   D2A20620   5.861  16.738   8.434
 1408POPC   C3A20621   5.824  16.861   7.997
 1408POPC   C4A20622   5.702  16.852   7.564
 1408POPC   C1B20623   6.012  16.442   8.898
 1408POPC   C2B20624   6.073  16.266   8.498
 1408POPC   C3B20625   6.091  16.390   8.081
 1408POPC   C4B20626   5.854  16.385   7.702
 1409POPC   NC320627  44.304  20.524   9.396
 1409POPC   PO420628  44.967  20.764   9.426
 1409POPC   GL120629  44.766  20.517   9.130
 1409POPC   GL220630  44.568  20.833   9.063
 1409POPC   C1A20631  44.557  20.466   8.718
 1409POPC   D2A20632  44.302  20.540   8.354
 1409POPC   C3A20633  44.567  20.612   7.995
 1409POPC   C4A20634  44.807  20.414   7.665
 1409POPC   C1B20635  44.896  20.869   8.724
 1409POPC   C2B20636   0.027  20.683   8.322
 1409POPC   C3B20637   0.020  20.843   7.892
 1409POPC   C4B20638   0.110  20.792   7.443
 1410POPC   NC320639  39.266  44.210   9.478
 1410POPC   PO420640  39.560  43.582   9.604
 1410POPC   GL120641  39.275  43.703   9.230
 1410POPC   GL220642  39.426  43.965   9.081
 1410POPC   C1A20643  39.034  43.830   8.805
 1410POPC   D2A20644  38.682  44.036   8.568
 1410POPC   C3A20645  38.892  44.178   8.177
 1410POPC   C4A20646  39.023  43.916   7.819
 1410POPC   C1B20647  39.572  43.779   8.729
 1410POPC   C2B20648  39.638  43.931   8.311
 1410POPC   C3B20649  39.567  44.005   7.863
 1410POPC   C4B20650  39.684  43.708   7.540
 1411POPC   NC320651  42.389  20.013   9.852
 1411POPC   PO420652  42.160  19.467   9.540
 1411POPC   GL120653  42.469  19.489   9.160
 1411POPC   GL220654  42.129  19.573   9.014
 1411POPC   C1A20655  42.535  19.739   8.760
 1411POPC   D2A20656  42.680  19.987   8.420
 1411POPC   C3A20657  42.564  19.801   8.001
 1411POPC   C4A20658  42.832  19.551   7.726
 1411POPC   C1B20659  42.041  19.902   8.735
 1411POPC   C2B20660  42.183  19.990   8.349
 1411POPC   C3B20661  42.011  19.943   7.990
 1411POPC   C4B20662  42.094  19.705   7.686
 1412POPC   NC320663   4.500  21.182   9.552
 1412POPC   PO420664   4.143  21.705   9.582
 1412POPC   GL120665   4.181  21.395   9.212
 1412POPC   GL220666   3.893  21.139   9.104
 1412POPC   C1A20667   4.507  21.374   8.868
 1412POPC   D2A20668   4.565  21.518   8.425
 1412POPC   C3A20669   4.224  21.420   8.121
 1412POPC   C4A20670   4.544  21.485   7.812
 1412POPC   C1B20671   4.036  21.257   8.683
 1412POPC   C2B20672   4.374  21.055   8.461
 1412POPC   C3B20673   4.484  21.011   8.043
 1412POPC   C4B20674   4.213  21.135   7.699
 1413POPC   NC320675  14.030  42.532   9.515
 1413POPC   PO420676  14.467  42.072   9.360
 1413POPC   GL120677  14.377  42.451   9.111
 1413POPC   GL220678  14.449  42.779   9.316
 1413POPC   C1A20679  14.343  42.318   8.662
 1413POPC   D2A20680  14.350  41.959   8.385
 1413POPC   C3A20681  14.314  42.062   7.952
 1413POPC   C4A20682  14.144  42.429   7.760
 1413POPC   C1B20683  14.526  42.918   8.891
 1413POPC   C2B20684  14.692  42.695   8.550
 1413POPC   C3B20685  14.493  42.510   8.178
 1413POPC   C4B20686  14.637  42.572   7.749
 1414POPC   NC320687  17.597   3.999   9.506
 1414POPC   PO420688  17.534   4.578   9.474
 1414POPC   GL120689  17.481   4.340   9.122
 1414POPC   GL220690  17.294   4.015   9.092
 1414POPC   C1A20691  17.675   4.508   8.787
 1414POPC   D2A20692  17.658   4.770   8.463
 1414POPC   C3A20693  17.605   4.505   8.123
 1414POPC   C4A20694  17.425   4.507   7.745
 1414POPC   C1B20695  17.473   4.056   8.667
 1414POPC   C2B20696  17.561   3.930   8.203
 1414POPC   C3B20697  17.411   3.917   7.734
 1414POPC   C4B20698  17.067   3.759   7.425
 1415POPC   NC320699  19.531  13.588   9.452
 1415POPC   PO420700  20.068  13.821   9.483
 1415POPC   GL120701  19.949  13.618   9.119
 1415POPC   GL220702  19.627  13.673   8.969
 1415POPC   C1A20703  20.075  13.724   8.719
 1415POPC   D2A20704  19.927  13.766   8.306
 1415POPC   C3A20705  20.215  13.611   8.059
 1415POPC   C4A20706  20.311  13.721   7.685
 1415POPC   C1B20707  19.730  13.362   8.675
 1415POPC   C2B20708  19.708  13.231   8.255
 1415POPC   C3B20709  19.815  13.420   7.860
 1415POPC   C4B20710  20.011  13.210   7.535
 1416POPC   NC320711  30.108  16.463   9.416
 1416POPC   PO420712  29.776  16.994   9.542
 1416POPC   GL120713  29.752  16.739   9.163
 1416POPC   GL220714  30.036  16.812   8.961
 1416POPC   C1A20715  29.580  16.577   8.763
 1416POPC   D2A20716  29.795  16.622   8.372
 1416POPC   C3A20717  29.911  16.447   7.971
 1416POPC   C4A20718  29.993  16.830   7.719
 1416POPC   C1B20719  30.054  16.400   8.756
 1416POPC   C2B20720  30.255  16.315   8.371
 1416POPC   C3B20721  30.501  16.443   8.073
 1416POPC   C4B20722  30.421  16.554   7.659
 1417POPC   NC320723  24.775   8.463   9.579
 1417POPC   PO420724  24.240   8.086   9.444
 1417POPC   GL120725  24.434   8.405   9.185
 1417POPC   GL220726  24.820   8.410   9.094
 1417POPC   C1A20727  24.399   8.400   8.756
 1417POPC   D2A20728  24.293   8.164   8.401
 1417POPC   C3A20729  24.251   8.464   8.115
 1417POPC   C4A20730  24.267   8.363   7.708
 1417POPC   C1B20731  24.870   8.171   8.746
 1417POPC   C2B20732  24.764   8.330   8.356
 1417POPC   C3B20733  24.660   8.143   7.971
 1417POPC   C4B20734  24.900   8.353   7.689
 1418POPC   NC320735  42.329  24.399   9.739
 1418POPC   PO420736  42.257  25.044   9.529
 1418POPC   GL120737  42.352  24.623   9.267
 1418POPC   GL220738  42.237  24.271   9.249
 1418POPC   C1A20739  42.078  24.519   8.858
 1418POPC   D2A20740  42.147  24.412   8.445
 1418POPC   C3A20741  42.193  24.540   8.026
 1418POPC   C4A20742  42.273  24.499   7.561
 1418POPC   C1B20743  42.397  24.135   8.818
 1418POPC   C2B20744  42.348  23.940   8.378
 1418POPC   C3B20745  42.434  24.102   7.934
 1418POPC   C4B20746  42.697  24.216   7.538
 1419POPC   NC320747  43.764  44.569   9.500
 1419POPC   PO420748  44.409  44.918   9.603
 1419POPC   GL120749  44.168  44.701   9.245
 1419POPC   GL220750  44.139  44.346   9.194
 1419POPC   C1A20751  43.894  44.701   8.861
 1419POPC   D2A20752  43.855  44.955   8.476
 1419POPC   C3A20753  43.696  44.766   8.069
 1419POPC   C4A20754  43.551  44.853   7.629
 1419POPC   C1B20755  44.374  44.236   8.818
 1419POPC   C2B20756  44.434  44.509   8.453
 1419POPC   C3B20757  44.199  44.573   8.067
 1419POPC   C4B20758  44.143  44.182   7.809
 1420POPC   NC320759  21.417   5.646   9.518
 1420POPC   PO420760  21.157   6.263   9.451
 1420POPC   GL120761  21.423   6.075   9.150
 1420POPC   GL220762  21.366   5.728   9.035
 1420POPC   C1A20763  21.557   6.063   8.723
 1420POPC   D2A20764  21.362   5.900   8.360
 1420POPC   C3A20765  21.592   6.040   8.003
 1420POPC   C4A20766  21.403   6.203   7.673
 1420POPC   C1B20767  21.356   5.492   8.679
 1420POPC   C2B20768  21.457   5.365   8.278
 1420POPC   C3B20769  21.365   5.404   7.839
 1420POPC   C4B20770  21.458   5.713   7.543
 1421POPC   NC320771  19.579  39.241   9.750
 1421POPC   PO420772  20.004  39.659   9.708
 1421POPC   GL120773  20.035  39.464   9.284
 1421POPC   GL220774  19.694  39.440   9.203
 1421POPC   C1A20775  20.044  39.143   8.927
 1421POPC   D2A20776  20.068  39.164   8.445
 1421POPC   C3A20777  19.949  39.111   7.975
 1421POPC   C4A20778  19.791  39.212   7.547
 1421POPC   C1B20779  19.741  39.504   8.729
 1421POPC   C2B20780  19.648  39.416   8.276
 1421POPC   C3B20781  19.425  39.304   7.891
 1421POPC   C4B20782  19.266  39.118   7.505
 1422POPC   NC320783  22.519  36.908   9.450
 1422POPC   PO420784  21.855  37.067   9.439
 1422POPC   GL120785  22.101  36.812   9.109
 1422POPC   GL220786  22.441  36.608   9.057
 1422POPC   C1A20787  22.103  36.993   8.692
 1422POPC   D2A20788  22.199  37.237   8.315
 1422POPC   C3A20789  22.027  37.011   7.982
 1422POPC   C4A20790  22.128  36.980   7.541
 1422POPC   C1B20791  22.249  36.505   8.678
 1422POPC   C2B20792  22.358  36.734   8.296
 1422POPC   C3B20793  22.333  36.638   7.874
 1422POPC   C4B20794  21.983  36.518   7.683
 1423POPC   NC320795  16.333  18.067   9.545
 1423POPC   PO420796  16.984  18.387   9.482
 1423POPC   GL120797  16.593  18.371   9.211
 1423POPC   GL220798  16.421  18.095   9.060
 1423POPC   C1A20799  16.685  18.447   8.788
 1423POPC   D2A20800  16.843  18.634   8.414
 1423POPC   C3A20801  16.650  18.522   8.045
 1423POPC   C4A20802  16.727  18.523   7.632
 1423POPC   C1B20803  16.459  17.934   8.652
 1423POPC   C2B20804  16.674  18.056   8.299
 1423POPC   C3B20805  16.596  18.022   7.882
 1423POPC   C4B20806  16.215  17.791   7.793
 1424POPC   NC320807  37.217  42.164   9.481
 1424POPC   PO420808  36.622  42.445   9.644
 1424POPC   GL120809  36.853  42.407   9.239
 1424POPC   GL220810  36.781  42.036   9.216
 1424POPC   C1A20811  36.924  42.493   8.785
 1424POPC   D2A20812  36.709  42.558   8.360
 1424POPC   C3A20813  36.868  42.769   7.998
 1424POPC   C4A20814  37.177  42.456   7.846
 1424POPC   C1B20815  36.496  41.939   8.860
 1424POPC   C2B20816  36.369  41.951   8.437
 1424POPC   C3B20817  36.540  41.970   8.057
 1424POPC   C4B20818  36.692  42.316   7.844
 1425POPC   NC320819  17.971  35.180   9.546
 1425POPC   PO420820  18.233  35.871   9.607
 1425POPC   GL120821  18.279  35.525   9.313
 1425POPC   GL220822  17.954  35.527   9.168
 1425POPC   C1A20823  18.377  35.313   8.920
 1425POPC   D2A20824  18.332  35.461   8.503
 1425POPC   C3A20825  18.260  35.288   8.104
 1425POPC   C4A20826  18.106  35.386   7.723
 1425POPC   C1B20827  17.884  35.185   8.860
 1425POPC   C2B20828  17.943  35.050   8.419
 1425POPC   C3B20829  17.843  34.984   7.946
 1425POPC   C4B20830  17.789  35.011   7.486
 1426POPC   NC320831  37.738  12.604   9.477
 1426POPC   PO420832  37.779  13.301   9.502
 1426POPC   GL120833  37.594  13.056   9.161
 1426POPC   GL220834  37.730  12.718   8.982
 1426POPC   C1A20835  37.645  13.184   8.727
 1426POPC   D2A20836  37.794  12.869   8.420
 1426POPC   C3A20837  37.674  12.847   7.987
 1426POPC   C4A20838  37.580  12.447   7.857
 1426POPC   C1B20839  38.092  12.962   8.861
 1426POPC   C2B20840  38.189  13.201   8.467
 1426POPC   C3B20841  38.135  13.023   8.029
 1426POPC   C4B20842  38.131  13.145   7.588
 1427POPC   NC320843   2.118  22.661   9.815
 1427POPC   PO420844   1.983  23.246   9.557
 1427POPC   GL120845   1.930  22.919   9.244
 1427POPC   GL220846   2.246  22.754   9.310
 1427POPC   C1A20847   1.755  22.983   8.815
 1427POPC   D2A20848   1.957  23.205   8.467
 1427POPC   C3A20849   2.007  23.043   8.075
 1427POPC   C4A20850   2.080  23.158   7.675
 1427POPC   C1B20851   2.260  22.857   8.852
 1427POPC   C2B20852   2.173  22.708   8.440
 1427POPC   C3B20853   2.448  22.735   8.086
 1427POPC   C4B20854   2.515  22.778   7.646
 1428POPC   NC320855  41.244  40.280   9.489
 1428POPC   PO420856  41.860  39.981   9.338
 1428POPC   GL120857  41.449  39.999   9.116
 1428POPC   GL220858  41.404  40.359   9.000
 1428POPC   C1A20859  41.350  39.946   8.686
 1428POPC   D2A20860  41.617  39.918   8.344
 1428POPC   C3A20861  41.437  39.916   7.948
 1428POPC   C4A20862  41.666  39.618   7.741
 1428POPC   C1B20863  41.648  40.397   8.617
 1428POPC   C2B20864  41.771  40.382   8.171
 1428POPC   C3B20865  41.668  40.571   7.785
 1428POPC   C4B20866  41.784  40.485   7.375
 1429POPC   NC320867   9.030  34.520   9.536
 1429POPC   PO420868   9.430  34.988   9.334
 1429POPC   GL120869   9.071  34.716   9.061
 1429POPC   GL220870   8.959  34.343   9.080
 1429POPC   C1A20871   8.751  34.563   8.676
 1429POPC   D2A20872   8.677  34.381   8.222
 1429POPC   C3A20873   8.839  34.598   7.816
 1429POPC   C4A20874   8.606  34.556   7.373
 1429POPC   C1B20875   9.239  34.362   8.749
 1429POPC   C2B20876   9.162  34.515   8.346
 1429POPC   C3B20877   9.375  34.514   7.976
 1429POPC   C4B20878   9.302  34.627   7.563
 1430POPC   NC320879  30.907  15.998   9.471
 1430POPC   PO420880  30.379  15.649   9.542
 1430POPC   GL120881  30.549  15.828   9.139
 1430POPC   GL220882  30.905  16.008   8.981
 1430POPC   C1A20883  30.455  16.102   8.816
 1430POPC   D2A20884  30.747  16.142   8.477
 1430POPC   C3A20885  30.649  15.919   8.124
 1430POPC   C4A20886  30.630  16.069   7.726
 1430POPC   C1B20887  31.143  15.768   8.692
 1430POPC   C2B20888  31.107  15.755   8.252
 1430POPC   C3B20889  31.098  15.854   7.813
 1430POPC   C4B20890  31.006  15.851   7.382
 1431POPC   NC320891   6.537  44.607   9.570
 1431POPC   PO420892   6.515   0.206   9.720
 1431POPC   GL120893   6.697  44.923   9.224
 1431POPC   GL220894   6.769  44.523   9.135
 1431POPC   C1A20895   6.578  44.785   8.764
 1431POPC   D2A20896   6.796  44.617   8.381
 1431POPC   C3A20897   6.683  44.797   7.970
 1431POPC   C4A20898   6.303  44.889   7.726
 1431POPC   C1B20899   6.630  44.255   8.785
 1431POPC   C2B20900   6.670  44.115   8.341
 1431POPC   C3B20901   6.626  44.307   7.917
 1431POPC   C4B20902   6.860  44.367   7.538
 1432POPC   NC320903  35.665   2.797   9.328
 1432POPC   PO420904  35.116   2.675   9.677
 1432POPC   GL120905  35.067   2.599   9.205
 1432POPC   GL220906  35.340   2.396   9.184
 1432POPC   C1A20907  35.062   2.689   8.783
 1432POPC   D2A20908  35.313   2.866   8.478
 1432POPC   C3A20909  35.101   2.760   8.117
 1432POPC   C4A20910  35.273   2.764   7.727
 1432POPC   C1B20911  35.516   2.446   8.795
 1432POPC   C2B20912  35.320   2.354   8.432
 1432POPC   C3B20913  35.471   2.374   8.051
 1432POPC   C4B20914  35.343   2.271   7.671
 1433POPC   NC320915  26.525  21.321   9.448
 1433POPC   PO420916  27.080  21.736   9.423
 1433POPC   GL120917  26.937  21.338   9.116
 1433POPC   GL220918  26.619  21.325   8.947
 1433POPC   C1A20919  27.017  21.104   8.716
 1433POPC   D2A20920  27.156  21.265   8.290
 1433POPC   C3A20921  26.868  21.226   7.913
 1433POPC   C4A20922  26.430  21.370   7.815
 1433POPC   C1B20923  26.858  21.669   8.746
 1433POPC   C2B20924  27.067  21.796   8.398
 1433POPC   C3B20925  27.106  21.715   7.977
 1433POPC   C4B20926  26.812  21.694   7.699
 1434POPC   NC320927  19.894  16.841   9.709
 1434POPC   PO420928  19.442  16.454   9.770
 1434POPC   GL120929  19.656  16.663   9.313
 1434POPC   GL220930  19.670  16.985   9.251
 1434POPC   C1A20931  19.931  16.637   8.915
 1434POPC   D2A20932  20.072  16.467   8.503
 1434POPC   C3A20933  19.750  16.526   8.179
 1434POPC   C4A20934  19.849  16.463   7.736
 1434POPC   C1B20935  19.739  17.095   8.842
 1434POPC   C2B20936  19.888  16.948   8.449
 1434POPC   C3B20937  19.858  17.047   8.011
 1434POPC   C4B20938  19.719  17.034   7.598
 1435POPC   NC320939   2.945  42.642   9.460
 1435POPC   PO420940   2.389  42.261   9.478
 1435POPC   GL120941   2.753  42.173   9.136
 1435POPC   GL220942   3.038  42.391   9.035
 1435POPC   C1A20943   2.730  42.217   8.674
 1435POPC   D2A20944   2.529  42.541   8.426
 1435POPC   C3A20945   2.496  42.344   8.046
 1435POPC   C4A20946   2.634  42.330   7.641
 1435POPC   C1B20947   3.045  42.657   8.689
 1435POPC   C2B20948   3.026  42.493   8.278
 1435POPC   C3B20949   3.089  42.404   7.852
 1435POPC   C4B20950   3.127  42.524   7.419
 1436POPC   NC320951  40.345  41.980   9.620
 1436POPC   PO420952  39.751  41.585   9.574
 1436POPC   GL120953  39.902  41.615   9.160
 1436POPC   GL220954  40.219  41.799   9.168
 1436POPC   C1A20955  39.922  41.780   8.748
 1436POPC   D2A20956  39.739  41.712   8.365
 1436POPC   C3A20957  39.995  41.643   8.007
 1436POPC   C4A20958  39.900  41.551   7.575
 1436POPC   C1B20959  40.403  41.923   8.778
 1436POPC   C2B20960  40.430  41.720   8.392
 1436POPC   C3B20961  40.427  41.910   7.979
 1436POPC   C4B20962  40.193  41.949   7.610
 1437POPC   NC320963   4.896  10.709   9.496
 1437POPC   PO420964   5.107  11.417   9.394
 1437POPC   GL120965   5.155  11.363   8.996
 1437POPC   GL220966   5.107  10.991   9.015
 1437POPC   C1A20967   5.311  11.245   8.628
 1437POPC   D2A20968   4.983  11.265   8.361
 1437POPC   C3A20969   5.069  11.189   7.953
 1437POPC   C4A20970   4.934  11.484   7.695
 1437POPC   C1B20971   4.857  10.840   8.640
 1437POPC   C2B20972   4.776  10.832   8.187
 1437POPC   C3B20973   4.924  10.730   7.784
 1437POPC   C4B20974   4.980  11.039   7.453
 1438POPC   NC320975   4.014  11.177   9.558
 1438POPC   PO420976   3.447  11.426   9.713
 1438POPC   GL120977   3.406  11.576   9.304
 1438POPC   GL220978   3.679  11.337   9.179
 1438POPC   C1A20979   3.311  11.527   8.878
 1438POPC   D2A20980   3.418  11.350   8.494
 1438POPC   C3A20981   3.285  11.381   8.067
 1438POPC   C4A20982   3.535  11.294   7.730
 1438POPC   C1B20983   3.665  11.039   8.820
 1438POPC   C2B20984   3.730  10.948   8.367
 1438POPC   C3B20985   3.813  10.921   7.935
 1438POPC   C4B20986   4.046  11.091   7.554
 1439POPC   NC320987  41.003   7.540   9.597
 1439POPC   PO420988  40.489   7.070   9.778
 1439POPC   GL120989  40.594   7.159   9.327
 1439POPC   GL220990  40.562   7.533   9.288
 1439POPC   C1A20991  40.899   7.251   8.971
 1439POPC   D2A20992  40.825   7.443   8.545
 1439POPC   C3A20993  41.059   7.464   8.135
 1439POPC   C4A20994  40.885   7.263   7.747
 1439POPC   C1B20995  40.368   7.681   8.906
 1439POPC   C2B20996  40.349   7.631   8.471
 1439POPC   C3B20997  40.553   7.536   8.098
 1439POPC   C4B20998  40.448   7.610   7.684
 1440POPC   NC320999  11.675  26.420   9.425
 1440POPC   PO421000  11.161  26.888   9.567
 1440POPC   GL121001  11.011  26.879   9.174
 1440POPC   GL221002  11.100  26.528   9.200
 1440POPC   C1A21003  11.275  26.869   8.826
 1440POPC   D2A21004  11.330  26.667   8.439
 1440POPC   C3A21005  11.216  26.840   8.048
 1440POPC   C4A21006  11.466  26.735   7.673
 1440POPC   C1B21007  10.966  26.473   8.793
 1440POPC   C2B21008  10.896  26.412   8.349
 1440POPC   C3B21009  10.849  26.478   7.928
 1440POPC   C4B21010  10.961  26.760   7.583
 1441POPC   NC321011  42.842  34.990   9.649
 1441POPC   PO421012  42.772  34.339   9.437
 1441POPC   GL121013  42.988  34.665   9.211
 1441POPC   GL221014  42.794  34.971   9.132
 1441POPC   C1A21015  43.241  34.571   8.831
 1441POPC   D2A21016  43.064  34.512   8.427
 1441POPC   C3A21017  43.043  34.677   8.048
 1441POPC   C4A21018  42.881  34.584   7.688
 1441POPC   C1B21019  42.757  34.772   8.763
 1441POPC   C2B21020  42.781  34.958   8.396
 1441POPC   C3B21021  42.565  35.022   8.025
 1441POPC   C4B21022  42.474  34.859   7.589
 1442POPC   NC321023  19.446   2.143   9.745
 1442POPC   PO421024  20.004   1.734   9.539
 1442POPC   GL121025  19.732   1.840   9.203
 1442POPC   GL221026  19.466   2.082   9.227
 1442POPC   C1A21027  19.803   1.941   8.788
 1442POPC   D2A21028  19.991   1.703   8.474
 1442POPC   C3A21029  19.922   1.802   8.067
 1442POPC   C4A21030  19.923   1.648   7.647
 1442POPC   C1B21031  19.309   1.813   8.885
 1442POPC   C2B21032  19.418   1.920   8.445
 1442POPC   C3B21033  19.428   1.826   8.013
 1442POPC   C4B21034  19.630   2.078   7.725
 1443POPC   NC321035   2.045   3.034  10.132
 1443POPC   PO421036   2.126   2.447   9.831
 1443POPC   GL121037   2.176   2.670   9.324
 1443POPC   GL221038   2.221   3.031   9.356
 1443POPC   C1A21039   2.027   2.528   8.860
 1443POPC   D2A21040   1.959   2.336   8.444
 1443POPC   C3A21041   2.031   2.562   8.070
 1443POPC   C4A21042   1.958   2.695   7.698
 1443POPC   C1B21043   2.232   3.001   8.890
 1443POPC   C2B21044   2.275   2.786   8.469
 1443POPC   C3B21045   2.416   2.937   8.066
 1443POPC   C4B21046   2.229   3.111   7.700
 1444POPC   NC321047  23.982  13.545   9.495
 1444POPC   PO421048  23.338  13.421   9.613
 1444POPC   GL121049  23.561  13.502   9.229
 1444POPC   GL221050  23.742  13.239   9.141
 1444POPC   C1A21051  23.517  13.808   8.896
 1444POPC   D2A21052  23.415  13.792   8.463
 1444POPC   C3A21053  23.741  13.868   8.160
 1444POPC   C4A21054  23.733  13.816   7.726
 1444POPC   C1B21055  23.898  13.456   8.782
 1444POPC   C2B21056  23.967  13.397   8.342
 1444POPC   C3B21057  23.725  13.361   7.976
 1444POPC   C4B21058  23.832  13.317   7.566
 1445POPC   NC321059  12.266  35.863   9.534
 1445POPC   PO421060  12.080  36.502   9.389
 1445POPC   GL121061  11.971  36.337   9.043
 1445POPC   GL221062  11.879  36.032   9.185
 1445POPC   C1A21063  12.029  36.256   8.580
 1445POPC   D2A21064  12.414  36.208   8.298
 1445POPC   C3A21065  12.274  36.233   7.893
 1445POPC   C4A21066  11.809  36.203   7.900
 1445POPC   C1B21067  12.284  35.963   8.908
 1445POPC   C2B21068  12.103  35.748   8.585
 1445POPC   C3B21069  12.088  35.840   8.174
 1445POPC   C4B21070  12.073  35.762   7.758
 1446POPC   NC321071  34.046  22.278   9.623
 1446POPC   PO421072  33.363  22.011   9.592
 1446POPC   GL121073  33.712  22.146   9.259
 1446POPC   GL221074  33.939  22.459   9.154
 1446POPC   C1A21075  33.825  22.040   8.843
 1446POPC   D2A21076  34.044  21.951   8.445
 1446POPC   C3A21077  33.809  22.026   8.053
 1446POPC   C4A21078  33.741  21.933   7.603
 1446POPC   C1B21079  34.189  22.378   8.730
 1446POPC   C2B21080  34.281  22.356   8.262
 1446POPC   C3B21081  34.156  22.354   7.827
 1446POPC   C4B21082  34.125  22.696   7.562
 1447POPC   NC321083  40.372  34.734   9.408
 1447POPC   PO421084  39.930  34.326   9.836
 1447POPC   GL121085  39.897  34.529   9.369
 1447POPC   GL221086  40.108  34.349   9.174
 1447POPC   C1A21087  39.949  34.717   8.881
 1447POPC   D2A21088  40.024  34.596   8.429
 1447POPC   C3A21089  39.875  34.829   8.042
 1447POPC   C4A21090  40.247  34.922   7.784
 1447POPC   C1B21091  39.879  34.160   8.831
 1447POPC   C2B21092  39.649  34.195   8.444
 1447POPC   C3B21093  39.777  34.328   8.044
 1447POPC   C4B21094  40.027  34.477   7.699
 1448POPC   NC321095  11.467  27.247   9.601
 1448POPC   PO421096  10.916  27.594   9.653
 1448POPC   GL121097  11.120  27.426   9.287
 1448POPC   GL221098  11.321  27.728   9.247
 1448POPC   C1A21099  11.291  27.369   8.865
 1448POPC   D2A21100  11.253  27.218   8.450
 1448POPC   C3A21101  11.475  27.419   8.137
 1448POPC   C4A21102  11.426  27.235   7.761
 1448POPC   C1B21103  11.010  27.782   8.929
 1448POPC   C2B21104  11.141  27.746   8.532
 1448POPC   C3B21105  11.072  27.761   8.139
 1448POPC   C4B21106  11.230  27.695   7.758
 1449POPC   NC321107  23.802  32.769   9.389
 1449POPC   PO421108  23.202  33.202   9.375
 1449POPC   GL121109  23.538  33.122   9.147
 1449POPC   GL221110  23.369  32.780   9.083
 1449POPC   C1A21111  23.898  33.172   8.859
 1449POPC   D2A21112  23.803  33.274   8.411
 1449POPC   C3A21113  23.836  33.134   7.961
 1449POPC   C4A21114  23.514  33.214   7.621
 1449POPC   C1B21115  23.497  32.911   8.686
 1449POPC   C2B21116  23.626  32.776   8.298
 1449POPC   C3B21117  23.462  32.764   7.892
 1449POPC   C4B21118  23.718  32.770   7.540
 1450POPC   NC321119   6.198  34.811   9.491
 1450POPC   PO421120   6.809  34.407   9.469
 1450POPC   GL121121   6.822  34.562   9.097
 1450POPC   GL221122   6.477  34.584   9.117
 1450POPC   C1A21123   6.839  34.517   8.675
 1450POPC   D2A21124   6.848  34.789   8.352
 1450POPC   C3A21125   6.885  34.543   8.043
 1450POPC   C4A21126   6.837  34.600   7.669
 1450POPC   C1B21127   6.332  34.521   8.739
 1450POPC   C2B21128   6.313  34.765   8.362
 1450POPC   C3B21129   6.406  34.737   7.926
 1450POPC   C4B21130   6.345  34.531   7.500
 1451POPC   NC321131  40.657  22.637   9.370
 1451POPC   PO421132  41.049  23.104   9.646
 1451POPC   GL121133  41.065  23.063   9.201
 1451POPC   GL221134  40.862  22.834   8.961
 1451POPC   C1A21135  41.173  23.179   8.796
 1451POPC   D2A21136  40.889  23.032   8.454
 1451POPC   C3A21137  40.986  22.854   8.071
 1451POPC   C4A21138  40.837  22.919   7.652
 1451POPC   C1B21139  40.717  22.479   8.712
 1451POPC   C2B21140  40.847  22.397   8.292
 1451POPC   C3B21141  40.618  22.519   7.941
 1451POPC   C4B21142  40.302  22.666   7.676
 1452POPC   NC321143  33.664  27.186   9.539
 1452POPC   PO421144  33.586  27.916   9.537
 1452POPC   GL121145  33.808  27.642   9.283
 1452POPC   GL221146  34.078  27.894   9.218
 1452POPC   C1A21147  33.743  27.389   8.893
 1452POPC   D2A21148  33.638  27.485   8.455
 1452POPC   C3A21149  33.903  27.541   8.083
 1452POPC   C4A21150  33.924  27.172   7.799
 1452POPC   C1B21151  33.866  27.882   8.822
 1452POPC   C2B21152  33.810  27.980   8.426
 1452POPC   C3B21153  34.002  28.104   8.080
 1452POPC   C4B21154  33.962  27.868   7.683
 1453POPC   NC321155  16.609  41.384   9.540
 1453POPC   PO421156  15.886  41.600   9.515
 1453POPC   GL121157  15.966  41.690   9.133
 1453POPC   GL221158  16.288  41.551   9.142
 1453POPC   C1A21159  15.778  41.816   8.759
 1453POPC   D2A21160  15.644  41.667   8.383
 1453POPC   C3A21161  15.834  41.697   7.978
 1453POPC   C4A21162  15.787  41.285   7.762
 1453POPC   C1B21163  16.232  41.548   8.694
 1453POPC   C2B21164  16.233  41.616   8.293
 1453POPC   C3B21165  16.256  41.378   7.936
 1453POPC   C4B21166  16.163  41.590   7.555
 1454POPC   NC321167  32.210  38.326   9.658
 1454POPC   PO421168  31.841  38.878   9.721
 1454POPC   GL121169  32.113  38.737   9.340
 1454POPC   GL221170  32.268  38.435   9.189
 1454POPC   C1A21171  32.041  38.707   8.848
 1454POPC   D2A21172  32.041  38.485   8.450
 1454POPC   C3A21173  32.078  38.651   8.041
 1454POPC   C4A21174  32.146  38.450   7.646
 1454POPC   C1B21175  32.187  38.184   8.843
 1454POPC   C2B21176  32.430  38.106   8.492
 1454POPC   C3B21177  32.327  38.192   8.108
 1454POPC   C4B21178  32.382  38.009   7.740
 1455POPC   NC321179   0.728  14.786   9.612
 1455POPC   PO421180   0.326  14.316   9.479
 1455POPC   GL121181   0.541  14.314   9.118
 1455POPC   GL221182   0.565  14.673   9.157
 1455POPC   C1A21183   0.573  14.189   8.685
 1455POPC   D2A21184   0.770  14.001   8.304
 1455POPC   C3A21185   0.665  14.256   7.945
 1455POPC   C4A21186   0.287  14.481   7.766
 1455POPC   C1B21187   0.653  14.692   8.765
 1455POPC   C2B21188   0.405  14.625   8.429
 1455POPC   C3B21189   0.571  14.762   8.071
 1455POPC   C4B21190   0.744  14.671   7.645
 1456POPC   NC321191  43.915  20.075   9.796
 1456POPC   PO421192  43.549  19.766   9.342
 1456POPC   GL121193  43.751  20.088   9.175
 1456POPC   GL221194  43.966  19.836   9.025
 1456POPC   C1A21195  43.644  20.231   8.762
 1456POPC   D2A21196  43.812  20.002   8.411
 1456POPC   C3A21197  43.598  19.963   8.046
 1456POPC   C4A21198  43.842  19.881   7.710
 1456POPC   C1B21199  44.156  20.153   8.801
 1456POPC   C2B21200  44.333  20.019   8.435
 1456POPC   C3B21201  44.211  19.733   8.110
 1456POPC   C4B21202  44.162  19.475   7.728
 1457POPC   NC321203  39.676  15.042   9.453
 1457POPC   PO421204  40.332  15.304   9.451
 1457POPC   GL121205  40.074  15.162   9.152
 1457POPC   GL221206  39.812  15.454   9.182
 1457POPC   C1A21207  39.901  15.152   8.754
 1457POPC   D2A21208  40.076  15.008   8.393
 1457POPC   C3A21209  39.930  15.207   8.048
 1457POPC   C4A21210  39.936  14.983   7.653
 1457POPC   C1B21211  40.096  15.608   8.880
 1457POPC   C2B21212  40.271  15.464   8.496
 1457POPC   C3B21213  40.429  15.321   8.093
 1457POPC   C4B21214  40.251  15.415   7.685
 1458POPC   NC321215  33.621   9.578   9.447
 1458POPC   PO421216  34.000  10.008   9.739
 1458POPC   GL121217  34.046   9.801   9.251
 1458POPC   GL221218  33.904   9.525   9.021
 1458POPC   C1A21219  33.947   9.951   8.778
 1458POPC   D2A21220  33.606   9.901   8.507
 1458POPC   C3A21221  33.669   9.985   8.092
 1458POPC   C4A21222  33.764   9.970   7.666
 1458POPC   C1B21223  33.871   9.461   8.612
 1458POPC   C2B21224  33.701   9.443   8.238
 1458POPC   C3B21225  33.735   9.514   7.832
 1458POPC   C4B21226  33.738   9.528   7.341
 1459POPC   NC321227  21.008  22.353   9.618
 1459POPC   PO421228  21.628  22.326   9.664
 1459POPC   GL121229  21.589  22.398   9.212
 1459POPC   GL221230  21.237  22.349   9.163
 1459POPC   C1A21231  21.513  22.186   8.779
 1459POPC   D2A21232  21.208  22.038   8.456
 1459POPC   C3A21233  21.374  22.121   8.052
 1459POPC   C4A21234  21.224  21.889   7.697
 1459POPC   C1B21235  21.020  22.397   8.766
 1459POPC   C2B21236  20.885  22.671   8.482
 1459POPC   C3B21237  20.981  22.564   8.102
 1459POPC   C4B21238  21.113  22.414   7.724
 1460POPC   NC321239  33.045  38.270   9.578
 1460POPC   PO421240  32.536  38.768   9.715
 1460POPC   GL121241  32.740  38.659   9.270
 1460POPC   GL221242  32.747  38.290   9.132
 1460POPC   C1A21243  33.032  38.619   8.865
 1460POPC   D2A21244  32.922  38.415   8.436
 1460POPC   C3A21245  33.188  38.368   8.077
 1460POPC   C4A21246  33.505  38.271   7.778
 1460POPC   C1B21247  32.539  38.544   8.766
 1460POPC   C2B21248  32.504  38.659   8.308
 1460POPC   C3B21249  32.699  38.471   7.919
 1460POPC   C4B21250  32.887  38.037   7.828
 1461POPC   NC321251  36.791  40.860   9.550
 1461POPC   PO421252  37.333  40.564   9.338
 1461POPC   GL121253  37.020  40.722   9.117
 1461POPC   GL221254  36.688  40.560   9.127
 1461POPC   C1A21255  36.937  40.853   8.727
 1461POPC   D2A21256  36.806  40.592   8.395
 1461POPC   C3A21257  36.934  40.810   8.014
 1461POPC   C4A21258  36.820  41.133   7.742
 1461POPC   C1B21259  36.449  40.417   8.754
 1461POPC   C2B21260  36.301  40.563   8.333
 1461POPC   C3B21261  36.564  40.469   7.958
 1461POPC   C4B21262  36.689  40.654   7.578
 1462POPC   NC321263  15.565  10.326   9.657
 1462POPC   PO421264  16.070  10.591   9.413
 1462POPC   GL121265  15.750  10.653   9.096
 1462POPC   GL221266  15.576  10.337   9.153
 1462POPC   C1A21267  15.897  10.722   8.635
 1462POPC   D2A21268  16.239  10.647   8.314
 1462POPC   C3A21269  16.022  10.567   7.954
 1462POPC   C4A21270  15.641  10.365   7.915
 1462POPC   C1B21271  15.697  10.238   8.754
 1462POPC   C2B21272  15.897  10.247   8.362
 1462POPC   C3B21273  16.192  10.109   8.065
 1462POPC   C4B21274  16.017  10.078   7.668
 1463POPC   NC321275  37.440  35.762   9.433
 1463POPC   PO421276  37.400  35.146   9.737
 1463POPC   GL121277  37.738  35.273   9.339
 1463POPC   GL221278  37.887  35.610   9.233
 1463POPC   C1A21279  37.768  35.256   8.840
 1463POPC   D2A21280  37.662  35.525   8.433
 1463POPC   C3A21281  37.539  35.345   7.999
 1463POPC   C4A21282  37.229  35.297   7.638
 1463POPC   C1B21283  38.039  35.671   8.810
 1463POPC   C2B21284  38.177  35.441   8.427
 1463POPC   C3B21285  38.055  35.416   7.978
 1463POPC   C4B21286  38.103  35.776   7.712
 1464POPC   NC321287  37.168  15.072   9.669
 1464POPC   PO421288  36.896  15.629   9.447
 1464POPC   GL121289  36.868  15.271   9.196
 1464POPC   GL221290  37.154  15.038   9.152
 1464POPC   C1A21291  36.783  15.114   8.813
 1464POPC   D2A21292  36.848  15.301   8.430
 1464POPC   C3A21293  36.833  15.106   8.057
 1464POPC   C4A21294  36.662  15.217   7.674
 1464POPC   C1B21295  37.309  15.193   8.725
 1464POPC   C2B21296  37.303  15.111   8.290
 1464POPC   C3B21297  37.331  15.236   7.933
 1464POPC   C4B21298  37.143  15.059   7.592
 1465POPC   NC321299  39.915  39.505   9.599
 1465POPC   PO421300  39.668  38.960   9.380
 1465POPC   GL121301  39.769  39.192   9.070
 1465POPC   GL221302  40.096  39.279   9.077
 1465POPC   C1A21303  39.811  39.145   8.637
 1465POPC   D2A21304  39.868  39.152   8.215
 1465POPC   C3A21305  40.026  39.194   7.839
 1465POPC   C4A21306  39.658  39.186   7.648
 1465POPC   C1B21307  40.279  39.335   8.621
 1465POPC   C2B21308  40.226  39.592   8.232
 1465POPC   C3B21309  40.308  39.656   7.777
 1465POPC   C4B21310  40.316  39.347   7.446
 1466POPC   NC321311  11.406   7.697   9.546
 1466POPC   PO421312  10.974   7.233   9.575
 1466POPC   GL121313  11.169   7.398   9.212
 1466POPC   GL221314  11.356   7.109   9.153
 1466POPC   C1A21315  11.425   7.555   8.835
 1466POPC   D2A21316  11.668   7.605   8.439
 1466POPC   C3A21317  11.414   7.741   8.101
 1466POPC   C4A21318  11.420   7.533   7.708
 1466POPC   C1B21319  11.073   7.185   8.771
 1466POPC   C2B21320  11.251   7.253   8.369
 1466POPC   C3B21321  11.047   7.354   7.994
 1466POPC   C4B21322  11.065   7.179   7.566
 1467POPC   NC321323  35.272   4.924   9.646
 1467POPC   PO421324  35.784   5.319   9.510
 1467POPC   GL121325  35.502   5.074   9.225
 1467POPC   GL221326  35.151   5.178   9.197
 1467POPC   C1A21327  35.371   4.882   8.854
 1467POPC   D2A21328  35.208   5.001   8.514
 1467POPC   C3A21329  35.490   4.999   8.185
 1467POPC   C4A21330  35.670   4.673   7.912
 1467POPC   C1B21331  34.923   5.347   8.838
 1467POPC   C2B21332  34.740   5.277   8.437
 1467POPC   C3B21333  34.724   5.461   8.040
 1467POPC   C4B21334  34.916   5.295   7.652
 1468POPC   NC321335  42.408  36.650   9.833
 1468POPC   PO421336  42.376  36.108   9.436
 1468POPC   GL121337  42.343  35.799   9.119
 1468POPC   GL221338  42.669  35.790   9.089
 1468POPC   C1A21339  42.329  35.696   8.666
 1468POPC   D2A21340  42.133  36.051   8.407
 1468POPC   C3A21341  42.142  35.994   7.953
 1468POPC   C4A21342  42.457  35.867   7.656
 1468POPC   C1B21343  42.580  36.115   8.749
 1468POPC   C2B21344  42.636  35.980   8.321
 1468POPC   C3B21345  42.627  36.209   7.972
 1468POPC   C4B21346  42.840  36.562   7.822
 1469POPC   NC321347  37.174  21.963   9.551
 1469POPC   PO421348  37.695  22.393   9.610
 1469POPC   GL121349  37.545  22.217   9.213
 1469POPC   GL221350  37.834  22.036   9.066
 1469POPC   C1A21351  37.377  22.237   8.782
 1469POPC   D2A21352  37.355  22.056   8.347
 1469POPC   C3A21353  37.509  22.250   7.973
 1469POPC   C4A21354  37.294  22.514   7.711
 1469POPC   C1B21355  37.745  21.894   8.646
 1469POPC   C2B21356  37.864  21.929   8.208
 1469POPC   C3B21357  37.921  21.999   7.769
 1469POPC   C4B21358  38.022  22.014   7.292
 1470POPC   NC321359  15.113  32.034   9.642
 1470POPC   PO421360  15.450  32.571   9.514
 1470POPC   GL121361  15.254  32.309   9.238
 1470POPC   GL221362  15.526  32.433   9.028
 1470POPC   C1A21363  15.049  32.307   8.864
 1470POPC   D2A21364  15.258  32.366   8.465
 1470POPC   C3A21365  15.040  32.239   8.124
 1470POPC   C4A21366  15.262  32.125   7.774
 1470POPC   C1B21367  15.523  32.068   8.805
 1470POPC   C2B21368  15.714  32.113   8.399
 1470POPC   C3B21369  15.627  32.376   8.059
 1470POPC   C4B21370  15.736  32.253   7.660
 1471POPC   NC321371  33.175   3.249   9.487
 1471POPC   PO421372  32.896   3.928   9.429
 1471POPC   GL121373  32.940   3.571   9.170
 1471POPC   GL221374  33.311   3.558   9.110
 1471POPC   C1A21375  32.892   3.491   8.738
 1471POPC   D2A21376  32.707   3.770   8.421
 1471POPC   C3A21377  32.743   3.549   8.049
 1471POPC   C4A21378  33.010   3.216   7.894
 1471POPC   C1B21379  33.418   3.451   8.690
 1471POPC   C2B21380  33.293   3.515   8.258
 1471POPC   C3B21381  33.366   3.644   7.835
 1471POPC   C4B21382  33.398   3.754   7.388
 1472POPC   NC321383  40.263   1.280   9.456
 1472POPC   PO421384  40.837   0.971   9.504
 1472POPC   GL121385  40.939   1.131   9.121
 1472POPC   GL221386  41.214   0.904   9.100
 1472POPC   C1A21387  40.742   1.376   8.770
 1472POPC   D2A21388  40.497   1.280   8.424
 1472POPC   C3A21389  40.651   1.517   8.116
 1472POPC   C4A21390  40.885   1.400   7.770
 1472POPC   C1B21391  40.973   0.749   8.719
 1472POPC   C2B21392  40.872   0.674   8.267
 1472POPC   C3B21393  40.638   0.972   7.976
 1472POPC   C4B21394  40.203   1.030   8.075
 1473POPC   NC321395   1.333  38.061   9.695
 1473POPC   PO421396   1.296  37.423   9.589
 1473POPC   GL121397   1.388  37.742   9.276
 1473POPC   GL221398   1.065  37.929   9.244
 1473POPC   C1A21399   1.378  37.840   8.828
 1473POPC   D2A21400   1.144  37.989   8.446
 1473POPC   C3A21401   1.360  37.737   8.151
 1473POPC   C4A21402   1.571  37.375   8.077
 1473POPC   C1B21403   0.983  37.567   8.957
 1473POPC   C2B21404   1.105  37.477   8.525
 1473POPC   C3B21405   0.949  37.468   8.099
 1473POPC   C4B21406   1.188  37.486   7.695
 1474POPC   NC321407  39.320  31.152   9.499
 1474POPC   PO421408  38.897  30.510   9.560
 1474POPC   GL121409  39.071  30.699   9.176
 1474POPC   GL221410  39.413  30.795   9.173
 1474POPC   C1A21411  39.211  30.720   8.727
 1474POPC   D2A21412  39.357  30.843   8.331
 1474POPC   C3A21413  39.315  30.562   7.999
 1474POPC   C4A21414  39.238  30.861   7.710
 1474POPC   C1B21415  39.644  30.975   8.797
 1474POPC   C2B21416  39.861  30.877   8.401
 1474POPC   C3B21417  39.707  30.942   7.950
 1474POPC   C4B21418  39.651  31.047   7.504
 1475POPC   NC321419  14.853  26.721   9.743
 1475POPC   PO421420  15.127  26.148   9.454
 1475POPC   GL121421  15.316  26.121   9.084
 1475POPC   GL221422  15.225  25.784   9.061
 1475POPC   C1A21423  15.295  26.312   8.668
 1475POPC   D2A21424  15.137  26.134   8.279
 1475POPC   C3A21425  15.435  25.968   7.983
 1475POPC   C4A21426  15.519  26.103   7.527
 1475POPC   C1B21427  15.077  25.817   8.679
 1475POPC   C2B21428  15.234  25.616   8.333
 1475POPC   C3B21429  15.084  25.599   7.908
 1475POPC   C4B21430  15.339  25.644   7.581
 1476POPC   NC321431   3.278  28.209   9.711
 1476POPC   PO421432   3.792  28.585   9.523
 1476POPC   GL121433   3.506  28.295   9.263
 1476POPC   GL221434   3.334  28.525   9.137
 1476POPC   C1A21435   3.395  28.120   8.827
 1476POPC   D2A21436   3.735  28.106   8.564
 1476POPC   C3A21437   3.666  28.122   8.152
 1476POPC   C4A21438   3.787  28.054   7.758
 1476POPC   C1B21439   3.577  28.597   8.727
 1476POPC   C2B21440   3.511  28.592   8.268
 1476POPC   C3B21441   3.516  28.607   7.788
 1476POPC   C4B21442   3.204  28.745   7.429
 1477POPC   NC321443  40.459  35.516   9.691
 1477POPC   PO421444  39.979  35.060   9.502
 1477POPC   GL121445  39.884  35.383   9.235
 1477POPC   GL221446  40.211  35.538   9.199
 1477POPC   C1A21447  39.891  35.265   8.825
 1477POPC   D2A21448  39.805  35.137   8.439
 1477POPC   C3A21449  40.084  35.307   8.143
 1477POPC   C4A21450  40.032  35.366   7.711
 1477POPC   C1B21451  40.130  35.723   8.791
 1477POPC   C2B21452  40.223  35.781   8.373
 1477POPC   C3B21453  40.335  35.724   7.966
 1477POPC   C4B21454  40.068  35.863   7.658
 1478POPC   NC321455  22.417  30.145   9.503
 1478POPC   PO421456  21.727  29.940   9.566
 1478POPC   GL121457  21.954  30.070   9.204
 1478POPC   GL221458  22.297  29.953   9.042
 1478POPC   C1A21459  21.859  30.003   8.787
 1478POPC   D2A21460  22.120  29.979   8.440
 1478POPC   C3A21461  21.841  30.022   8.103
 1478POPC   C4A21462  21.917  30.176   7.728
 1478POPC   C1B21463  22.528  29.743   8.678
 1478POPC   C2B21464  22.546  29.778   8.224
 1478POPC   C3B21465  22.292  29.794   7.892
 1478POPC   C4B21466  22.577  29.808   7.561
 1479POPC   NC321467  39.080   7.064   9.656
 1479POPC   PO421468  38.963   7.561   9.218
 1479POPC   GL121469  39.045   7.534   8.851
 1479POPC   GL221470  39.398   7.658   8.835
 1479POPC   C1A21471  39.007   7.229   8.559
 1479POPC   D2A21472  39.095   7.298   8.168
 1479POPC   C3A21473  38.814   7.167   7.884
 1479POPC   C4A21474  39.013   7.334   7.523
 1479POPC   C1B21475  39.447   7.482   8.502
 1479POPC   C2B21476  39.669   7.286   8.240
 1479POPC   C3B21477  39.551   7.605   7.992
 1479POPC   C4B21478  39.465   7.653   7.587
 1480POPC   NC321479   6.775  21.310   9.575
 1480POPC   PO421480   6.563  21.880   9.491
 1480POPC   GL121481   6.565  21.521   9.162
 1480POPC   GL221482   6.632  21.158   9.110
 1480POPC   C1A21483   6.680  21.524   8.739
 1480POPC   D2A21484   6.506  21.293   8.426
 1480POPC   C3A21485   6.599  21.502   8.082
 1480POPC   C4A21486   6.625  21.508   7.654
 1480POPC   C1B21487   6.860  21.055   8.748
 1480POPC   C2B21488   7.040  21.150   8.335
 1480POPC   C3B21489   6.936  21.173   7.896
 1480POPC   C4B21490   6.990  21.218   7.430
 1481POPC   NC321491  41.064  10.047   9.550
 1481POPC   PO421492  41.715  10.396   9.664
 1481POPC   GL121493  41.641  10.484   9.217
 1481POPC   GL221494  41.873  10.260   9.171
 1481POPC   C1A21495  41.376  10.696   8.841
 1481POPC   D2A21496  41.376  10.714   8.400
 1481POPC   C3A21497  41.344  10.797   7.955
 1481POPC   C4A21498  41.558  10.503   7.661
 1481POPC   C1B21499  41.730  10.105   8.815
 1481POPC   C2B21500  41.528  10.248   8.496
 1481POPC   C3B21501  41.712  10.422   8.147
 1481POPC   C4B21502  41.701  10.066   7.899
 1482POPC   NC321503  19.841  37.764   9.450
 1482POPC   PO421504  19.574  37.111   9.388
 1482POPC   GL121505  19.643  37.447   9.116
 1482POPC   GL221506  19.994  37.438   9.085
 1482POPC   C1A21507  19.537  37.593   8.698
 1482POPC   D2A21508  19.585  37.426   8.272
 1482POPC   C3A21509  19.619  37.707   7.888
 1482POPC   C4A21510  19.815  37.864   7.507
 1482POPC   C1B21511  20.143  37.703   8.756
 1482POPC   C2B21512  19.988  37.715   8.342
 1482POPC   C3B21513  20.082  37.911   7.977
 1482POPC   C4B21514  20.127  38.265   7.731
 1483POPC   NC321515   7.378  27.223   9.527
 1483POPC   PO421516   7.655  27.776   9.402
 1483POPC   GL121517   7.546  27.544   9.031
 1483POPC   GL221518   7.257  27.312   9.042
 1483POPC   C1A21519   7.322  27.668   8.640
 1483POPC   D2A21520   7.184  27.859   8.233
 1483POPC   C3A21521   7.328  27.698   7.866
 1483POPC   C4A21522   7.594  28.031   7.891
 1483POPC   C1B21523   7.087  27.201   8.646
 1483POPC   C2B21524   7.229  27.338   8.236
 1483POPC   C3B21525   7.286  27.167   7.836
 1483POPC   C4B21526   7.437  27.116   7.435
 1484POPC   NC321527  32.140  15.984   9.489
 1484POPC   PO421528  32.822  15.912   9.465
 1484POPC   GL121529  32.553  15.961   9.114
 1484POPC   GL221530  32.317  16.260   9.106
 1484POPC   C1A21531  32.293  15.823   8.800
 1484POPC   D2A21532  32.102  15.807   8.418
 1484POPC   C3A21533  32.328  15.685   8.072
 1484POPC   C4A21534  32.420  15.928   7.734
 1484POPC   C1B21535  31.987  16.232   8.794
 1484POPC   C2B21536  31.813  16.274   8.388
 1484POPC   C3B21537  32.023  16.135   8.018
 1484POPC   C4B21538  31.947  16.023   7.603
 1485POPC   NC321539  42.954  32.434   9.545
 1485POPC   PO421540  43.585  32.474   9.727
 1485POPC   GL121541  43.334  32.266   9.248
 1485POPC   GL221542  42.988  32.050   9.222
 1485POPC   C1A21543  43.249  31.979   8.798
 1485POPC   D2A21544  43.395  31.915   8.370
 1485POPC   C3A21545  43.303  32.132   7.982
 1485POPC   C4A21546  43.223  32.153   7.541
 1485POPC   C1B21547  42.923  32.346   8.855
 1485POPC   C2B21548  42.946  32.172   8.405
 1485POPC   C3B21549  42.786  32.170   7.964
 1485POPC   C4B21550  42.523  32.511   7.824
 1486POPC   NC321551  40.946  26.514   9.634
 1486POPC   PO421552  41.581  26.502   9.620
 1486POPC   GL121553  41.575  26.687   9.174
 1486POPC   GL221554  41.921  26.526   9.157
 1486POPC   C1A21555  41.430  26.918   8.773
 1486POPC   D2A21556  41.321  27.039   8.307
 1486POPC   C3A21557  41.321  26.715   7.971
 1486POPC   C4A21558  41.273  26.566   7.534
 1486POPC   C1B21559  41.912  26.761   8.780
 1486POPC   C2B21560  41.686  26.698   8.384
 1486POPC   C3B21561  41.782  26.925   7.986
 1486POPC   C4B21562  41.733  26.804   7.552
 1487POPC   NC321563  29.267  28.141   9.589
 1487POPC   PO421564  28.890  28.646   9.591
 1487POPC   GL121565  29.047  28.465   9.231
 1487POPC   GL221566  28.962  28.123   9.165
 1487POPC   C1A21567  29.122  28.527   8.817
 1487POPC   D2A21568  29.162  28.302   8.445
 1487POPC   C3A21569  29.424  28.447   8.137
 1487POPC   C4A21570  29.363  28.523   7.731
 1487POPC   C1B21571  29.017  27.816   8.839
 1487POPC   C2B21572  28.906  27.813   8.407
 1487POPC   C3B21573  28.982  28.051   8.022
 1487POPC   C4B21574  29.125  28.105   7.570
 1488POPC   NC321575  26.439  26.248   9.469
 1488POPC   PO421576  25.720  26.204   9.555
 1488POPC   GL121577  25.958  26.228   9.178
 1488POPC   GL221578  26.190  25.940   9.091
 1488POPC   C1A21579  25.819  26.081   8.764
 1488POPC   D2A21580  26.048  26.068   8.401
 1488POPC   C3A21581  25.788  25.966   8.043
 1488POPC   C4A21582  25.938  25.629   7.802
 1488POPC   C1B21583  26.470  26.162   8.827
 1488POPC   C2B21584  26.470  26.484   8.508
 1488POPC   C3B21585  26.257  26.447   8.127
 1488POPC   C4B21586  26.179  26.166   7.800
 1489POPC   NC321587  24.615  31.655   9.324
 1489POPC   PO421588  24.461  31.069   9.636
 1489POPC   GL121589  24.292  31.291   9.203
 1489POPC   GL221590  24.220  31.649   9.041
 1489POPC   C1A21591  24.430  31.294   8.734
 1489POPC   D2A21592  24.333  31.438   8.325
 1489POPC   C3A21593  24.613  31.369   7.964
 1489POPC   C4A21594  24.327  31.366   7.592
 1489POPC   C1B21595  24.514  31.797   8.692
 1489POPC   C2B21596  24.636  31.877   8.249
 1489POPC   C3B21597  24.465  31.835   7.829
 1489POPC   C4B21598  24.549  31.784   7.375
 1490POPC   NC321599  36.611   3.065   9.506
 1490POPC   PO421600  37.194   2.759   9.503
 1490POPC   GL121601  36.978   2.942   9.165
 1490POPC   GL221602  36.737   2.678   9.193
 1490POPC   C1A21603  37.113   3.074   8.752
 1490POPC   D2A21604  36.814   3.050   8.431
 1490POPC   C3A21605  36.825   2.894   8.020
 1490POPC   C4A21606  36.538   2.702   7.715
 1490POPC   C1B21607  36.936   2.590   8.784
 1490POPC   C2B21608  36.792   2.518   8.375
 1490POPC   C3B21609  37.024   2.410   8.004
 1490POPC   C4B21610  36.928   2.423   7.563
 1491POPC   NC321611  40.576   6.678   9.553
 1491POPC   PO421612  41.225   6.513   9.394
 1491POPC   GL121613  40.893   6.729   9.147
 1491POPC   GL221614  40.566   6.521   9.071
 1491POPC   C1A21615  40.788   6.811   8.729
 1491POPC   D2A21616  40.753   6.591   8.385
 1491POPC   C3A21617  40.796   6.861   8.072
 1491POPC   C4A21618  40.724   6.618   7.773
 1491POPC   C1B21619  40.894   6.289   8.842
 1491POPC   C2B21620  40.875   6.074   8.455
 1491POPC   C3B21621  40.846   6.186   8.050
 1491POPC   C4B21622  41.073   6.226   7.685
 1492POPC   NC321623  39.123  33.409   9.593
 1492POPC   PO421624  38.716  32.917   9.576
 1492POPC   GL121625  38.988  33.073   9.177
 1492POPC   GL221626  39.367  33.220   9.175
 1492POPC   C1A21627  39.120  33.180   8.723
 1492POPC   D2A21628  39.324  33.052   8.336
 1492POPC   C3A21629  39.236  33.079   7.899
 1492POPC   C4A21630  39.085  33.251   7.493
 1492POPC   C1B21631  39.526  32.885   8.866
 1492POPC   C2B21632  39.633  32.673   8.466
 1492POPC   C3B21633  39.631  32.748   8.006
 1492POPC   C4B21634  39.383  32.753   7.556
 1493POPC   NC321635  40.108  27.014   9.481
 1493POPC   PO421636  39.598  26.702   9.396
 1493POPC   GL121637  39.939  26.741   9.082
 1493POPC   GL221638  40.222  26.572   9.194
 1493POPC   C1A21639  40.190  27.001   8.757
 1493POPC   D2A21640  40.055  27.287   8.384
 1493POPC   C3A21641  39.972  27.103   7.961
 1493POPC   C4A21642  40.208  27.108   7.574
 1493POPC   C1B21643  40.199  26.474   8.737
 1493POPC   C2B21644  40.406  26.668   8.396
 1493POPC   C3B21645  40.426  26.824   7.967
 1493POPC   C4B21646  40.395  26.625   7.544
 1494POPC   NC321647  42.364  14.061   9.693
 1494POPC   PO421648  42.530  14.665   9.310
 1494POPC   GL121649  42.384  14.584   8.995
 1494POPC   GL221650  42.123  14.765   8.954
 1494POPC   C1A21651  42.587  14.490   8.620
 1494POPC   D2A21652  42.880  14.508   8.315
 1494POPC   C3A21653  42.665  14.277   8.003
 1494POPC   C4A21654  42.449  14.311   7.671
 1494POPC   C1B21655  42.079  14.390   8.659
 1494POPC   C2B21656  42.193  14.167   8.277
 1494POPC   C3B21657  42.009  14.224   7.881
 1494POPC   C4B21658  42.044  14.613   7.597
 1495POPC   NC321659   4.260   2.351   9.602
 1495POPC   PO421660   4.325   3.062   9.627
 1495POPC   GL121661   4.315   3.026   9.157
 1495POPC   GL221662   4.208   2.658   9.143
 1495POPC   C1A21663   4.229   2.942   8.703
 1495POPC   D2A21664   4.417   2.858   8.340
 1495POPC   C3A21665   4.287   2.843   7.918
 1495POPC   C4A21666   4.465   3.037   7.540
 1495POPC   C1B21667   4.202   2.419   8.743
 1495POPC   C2B21668   4.139   2.418   8.323
 1495POPC   C3B21669   4.232   2.321   7.923
 1495POPC   C4B21670   4.376   2.489   7.540
 1496POPC   NC321671  44.758  22.738   9.584
 1496POPC   PO421672  44.125  23.031   9.561
 1496POPC   GL121673  44.397  22.800   9.226
 1496POPC   GL221674  44.760  22.956   9.095
 1496POPC   C1A21675  44.462  22.651   8.810
 1496POPC   D2A21676  44.664  22.873   8.460
 1496POPC   C3A21677  44.519  22.749   8.056
 1496POPC   C4A21678  44.676  22.817   7.655
 1496POPC   C1B21679  44.904  23.230   8.754
 1496POPC   C2B21680  44.947  23.389   8.299
 1496POPC   C3B21681   0.030  23.133   7.911
 1496POPC   C4B21682   0.087  23.070   7.468
 1497POPC   NC321683  43.165  36.405   9.646
 1497POPC   PO421684  43.320  35.797   9.543
 1497POPC   GL121685  43.166  35.930   9.167
 1497POPC   GL221686  42.946  36.227   9.212
 1497POPC   C1A21687  43.046  35.947   8.747
 1497POPC   D2A21688  43.113  35.792   8.355
 1497POPC   C3A21689  43.106  36.043   7.985
 1497POPC   C4A21690  43.333  35.953   7.625
 1497POPC   C1B21691  43.148  36.441   8.857
 1497POPC   C2B21692  43.234  36.306   8.416
 1497POPC   C3B21693  43.296  36.529   8.014
 1497POPC   C4B21694  43.280  36.460   7.549
 1498POPC   NC321695  43.524  26.348   9.489
 1498POPC   PO421696  43.873  26.929   9.459
 1498POPC   GL121697  43.941  26.712   9.113
 1498POPC   GL221698  43.631  26.724   9.021
 1498POPC   C1A21699  44.067  26.824   8.697
 1498POPC   D2A21700  43.829  26.805   8.313
 1498POPC   C3A21701  44.118  26.840   7.997
 1498POPC   C4A21702  44.152  27.066   7.635
 1498POPC   C1B21703  43.701  26.459   8.701
 1498POPC   C2B21704  43.487  26.188   8.434
 1498POPC   C3B21705  43.449  26.403   8.050
 1498POPC   C4B21706  43.768  26.529   7.756
 1499POPC   NC321707  10.024  22.187   9.689
 1499POPC   PO421708   9.438  21.898   9.573
 1499POPC   GL121709   9.639  22.231   9.302
 1499POPC   GL221710   9.961  22.152   9.197
 1499POPC   C1A21711   9.677  22.342   8.842
 1499POPC   D2A21712   9.421  22.251   8.478
 1499POPC   C3A21713   9.633  22.309   8.091
 1499POPC   C4A21714   9.500  22.157   7.699
 1499POPC   C1B21715  10.097  21.942   8.814
 1499POPC   C2B21716  10.074  21.813   8.358
 1499POPC   C3B21717   9.955  21.918   7.903
 1499POPC   C4B21718   9.921  21.754   7.472
 1500POPC   NC321719  36.316  41.733   9.441
 1500POPC   PO421720  35.772  41.310   9.370
 1500POPC   GL121721  36.022  41.506   9.081
 1500POPC   GL221722  36.397  41.422   9.040
 1500POPC   C1A21723  36.078  41.610   8.677
 1500POPC   D2A21724  36.276  41.450   8.309
 1500POPC   C3A21725  36.029  41.319   7.949
 1500POPC   C4A21726  36.017  41.657   7.685
 1500POPC   C1B21727  36.664  41.487   8.677
 1500POPC   C2B21728  36.778  41.539   8.229
 1500POPC   C3B21729  36.492  41.497   7.836
 1500POPC   C4B21730  36.375  41.481   7.346
 1501POPC   NC321731   7.564  40.928   9.538
 1501POPC   PO421732   6.880  40.646   9.481
 1501POPC   GL121733   7.227  40.723   9.142
 1501POPC   GL221734   7.584  40.736   9.074
 1501POPC   C1A21735   7.313  41.006   8.746
 1501POPC   D2A21736   7.170  41.181   8.346
 1501POPC   C3A21737   7.347  40.996   7.986
 1501POPC   C4A21738   7.324  40.978   7.556
 1501POPC   C1B21739   7.800  40.793   8.690
 1501POPC   C2B21740   7.817  40.964   8.289
 1501POPC   C3B21741   7.850  40.983   7.863
 1501POPC   C4B21742   7.742  40.661   7.586
 1502POPC   NC321743   7.392  16.138   9.676
 1502POPC   PO421744   7.797  15.622   9.518
 1502POPC   GL121745   7.547  15.823   9.176
 1502POPC   GL221746   7.335  16.150   9.156
 1502POPC   C1A21747   7.517  15.965   8.740
 1502POPC   D2A21748   7.627  16.300   8.484
 1502POPC   C3A21749   7.521  16.103   8.110
 1502POPC   C4A21750   7.469  16.190   7.666
 1502POPC   C1B21751   7.037  16.135   8.795
 1502POPC   C2B21752   7.040  15.938   8.377
 1502POPC   C3B21753   7.031  16.145   7.965
 1502POPC   C4B21754   7.027  16.473   7.643
 1503POPC   NC321755  33.855  15.132   9.600
 1503POPC   PO421756  33.388  15.601   9.469
 1503POPC   GL121757  33.684  15.336   9.166
 1503POPC   GL221758  34.049  15.349   9.181
 1503POPC   C1A21759  33.659  15.134   8.755
 1503POPC   D2A21760  33.524  15.030   8.312
 1503POPC   C3A21761  33.800  15.216   7.975
 1503POPC   C4A21762  34.050  14.929   7.662
 1503POPC   C1B21763  34.247  15.255   8.767
 1503POPC   C2B21764  34.209  15.187   8.304
 1503POPC   C3B21765  34.294  15.335   7.853
 1503POPC   C4B21766  34.001  15.424   7.473
 1504POPC   NC321767  28.130  37.524   9.451
 1504POPC   PO421768  28.652  37.763   9.724
 1504POPC   GL121769  28.681  37.645   9.309
 1504POPC   GL221770  28.876  37.896   9.247
 1504POPC   C1A21771  28.498  37.536   8.898
 1504POPC   D2A21772  28.137  37.594   8.578
 1504POPC   C3A21773  28.217  37.617   8.132
 1504POPC   C4A21774  28.369  37.458   7.727
 1504POPC   C1B21775  28.893  37.872   8.819
 1504POPC   C2B21776  28.696  37.667   8.442
 1504POPC   C3B21777  28.717  37.724   8.010
 1504POPC   C4B21778  28.685  37.816   7.573
 1505POPC   NC321779  14.753  14.407   9.418
 1505POPC   PO421780  14.262  14.013   9.573
 1505POPC   GL121781  14.417  14.109   9.159
 1505POPC   GL221782  14.769  13.965   9.120
 1505POPC   C1A21783  14.278  14.431   8.829
 1505POPC   D2A21784  14.211  14.516   8.357
 1505POPC   C3A21785  14.580  14.533   8.065
 1505POPC   C4A21786  14.742  14.857   7.785
 1505POPC   C1B21787  14.641  14.083   8.693
 1505POPC   C2B21788  14.591  14.006   8.246
 1505POPC   C3B21789  14.362  14.104   7.885
 1505POPC   C4B21790  14.107  14.480   7.830
 1506POPC   NC321791  42.075  13.389   9.488
 1506POPC   PO421792  42.386  12.804   9.544
 1506POPC   GL121793  42.136  12.908   9.222
 1506POPC   GL221794  42.061  12.567   9.076
 1506POPC   C1A21795  42.253  13.176   8.867
 1506POPC   D2A21796  42.465  13.089   8.467
 1506POPC   C3A21797  42.204  12.976   8.113
 1506POPC   C4A21798  42.350  13.075   7.721
 1506POPC   C1B21799  42.482  12.727   8.889
 1506POPC   C2B21800  42.744  12.639   8.526
 1506POPC   C3B21801  42.672  12.741   8.103
 1506POPC   C4B21802  42.394  12.576   7.795
 1507POPC   NC321803   5.231  35.613   9.525
 1507POPC   PO421804   4.840  35.225   9.163
 1507POPC   GL121805   5.281  35.307   9.043
 1507POPC   GL221806   5.468  35.641   9.090
 1507POPC   C1A21807   5.545  35.315   8.694
 1507POPC   D2A21808   5.565  35.605   8.356
 1507POPC   C3A21809   5.323  35.426   8.051
 1507POPC   C4A21810   5.180  35.379   7.629
 1507POPC   C1B21811   5.234  35.713   8.733
 1507POPC   C2B21812   4.994  35.457   8.461
 1507POPC   C3B21813   4.808  35.323   8.082
 1507POPC   C4B21814   4.670  35.436   7.717
 1508POPC   NC321815  38.030  23.076   9.894
 1508POPC   PO421816  37.690  23.053   9.466
 1508POPC   GL121817  37.771  22.679   9.166
 1508POPC   GL221818  37.467  22.718   8.939
 1508POPC   C1A21819  37.845  22.446   8.751
 1508POPC   D2A21820  37.554  22.549   8.394
 1508POPC   C3A21821  37.690  22.756   7.994
 1508POPC   C4A21822  38.087  22.735   7.736
 1508POPC   C1B21823  37.480  23.032   8.575
 1508POPC   C2B21824  37.554  23.281   8.153
 1508POPC   C3B21825  37.472  23.474   7.712
 1508POPC   C4B21826  37.308  23.315   7.289
 1509POPC   NC321827  37.404  27.754   9.574
 1509POPC   PO421828  38.020  27.337   9.580
 1509POPC   GL121829  37.786  27.599   9.289
 1509POPC   GL221830  37.926  27.928   9.291
 1509POPC   C1A21831  37.491  27.478   8.974
 1509POPC   D2A21832  37.425  27.382   8.549
 1509POPC   C3A21833  37.525  27.548   8.166
 1509POPC   C4A21834  37.640  27.451   7.767
 1509POPC   C1B21835  37.836  27.867   8.823
 1509POPC   C2B21836  37.668  27.984   8.382
 1509POPC   C3B21837  37.847  27.934   7.916
 1509POPC   C4B21838  38.012  27.671   7.508
 1510POPC   NC321839  26.068   0.307   9.259
 1510POPC   PO421840  25.737   0.689   9.724
 1510POPC   GL121841  25.657   0.603   9.211
 1510POPC   GL221842  25.730   0.297   8.915
 1510POPC   C1A21843  25.814   0.772   8.812
 1510POPC   D2A21844  26.130   0.628   8.551
 1510POPC   C3A21845  26.018   0.542   8.147
 1510POPC   C4A21846  26.161   0.796   7.820
 1510POPC   C1B21847  26.154   0.144   8.671
 1510POPC   C2B21848  26.426   0.039   8.289
 1510POPC   C3B21849  26.346   0.260   7.889
 1510POPC   C4B21850  25.959   0.345   7.635
 1511POPC   NC321851  36.960  16.075   9.576
 1511POPC   PO421852  37.543  15.804   9.540
 1511POPC   GL121853  37.181  15.925   9.141
 1511POPC   GL221854  36.771  15.981   9.106
 1511POPC   C1A21855  36.962  15.667   8.782
 1511POPC   D2A21856  37.064  15.762   8.381
 1511POPC   C3A21857  36.902  15.632   8.010
 1511POPC   C4A21858  36.970  16.011   7.777
 1511POPC   C1B21859  36.620  16.163   8.710
 1511POPC   C2B21860  36.730  16.131   8.257
 1511POPC   C3B21861  36.480  15.929   7.939
 1511POPC   C4B21862  36.239  15.970   7.550
 1512POPC   NC321863  12.970  23.979   9.416
 1512POPC   PO421864  12.409  23.713   9.556
 1512POPC   GL121865  12.648  23.641   9.162
 1512POPC   GL221866  12.993  23.505   9.203
 1512POPC   C1A21867  12.647  23.763   8.710
 1512POPC   D2A21868  12.963  23.721   8.411
 1512POPC   C3A21869  13.084  23.944   8.059
 1512POPC   C4A21870  12.851  23.932   7.667
 1512POPC   C1B21871  13.157  23.393   8.789
 1512POPC   C2B21872  13.220  23.311   8.316
 1512POPC   C3B21873  12.982  23.472   7.908
 1512POPC   C4B21874  13.219  23.482   7.509
 1513POPC   NC321875  32.481   0.819   9.523
 1513POPC   PO421876  31.945   0.363   9.595
 1513POPC   GL121877  32.103   0.272   9.191
 1513POPC   GL221878  32.147   0.582   9.112
 1513POPC   C1A21879  31.936   0.256   8.760
 1513POPC   D2A21880  32.126   0.225   8.354
 1513POPC   C3A21881  31.891   0.446   8.044
 1513POPC   C4A21882  31.806   0.343   7.604
 1513POPC   C1B21883  32.424   0.347   8.780
 1513POPC   C2B21884  32.603   0.447   8.395
 1513POPC   C3B21885  32.520   0.435   7.987
 1513POPC   C4B21886  32.240   0.569   7.690
 1514POPC   NC321887  21.113  39.933   9.557
 1514POPC   PO421888  21.676  40.127   9.340
 1514POPC   GL121889  21.392  39.910   9.109
 1514POPC   GL221890  21.106  40.161   9.112
 1514POPC   C1A21891  21.561  39.899   8.698
 1514POPC   D2A21892  21.779  40.183   8.445
 1514POPC   C3A21893  21.639  40.062   8.063
 1514POPC   C4A21894  21.461  40.259   7.696
 1514POPC   C1B21895  21.072  40.017   8.716
 1514POPC   C2B21896  21.228  40.117   8.341
 1514POPC   C3B21897  21.165  39.929   7.944
 1514POPC   C4B21898  20.910  40.071   7.645
 1515POPC   NC321899   6.085   7.690   9.490
 1515POPC   PO421900   5.736   7.169   9.617
 1515POPC   GL121901   5.871   7.299   9.224
 1515POPC   GL221902   5.661   7.593   9.187
 1515POPC   C1A21903   6.078   7.410   8.829
 1515POPC   D2A21904   6.301   7.296   8.442
 1515POPC   C3A21905   6.018   7.363   8.064
 1515POPC   C4A21906   5.701   7.212   7.737
 1515POPC   C1B21907   5.616   7.711   8.749
 1515POPC   C2B21908   5.726   7.729   8.310
 1515POPC   C3B21909   5.647   7.682   7.875
 1515POPC   C4B21910   5.717   7.730   7.414
 1516POPC   NC321911  34.594  37.928   9.368
 1516POPC   PO421912  35.048  37.460   9.588
 1516POPC   GL121913  34.818  37.470   9.184
 1516POPC   GL221914  34.456  37.446   9.245
 1516POPC   C1A21915  34.876  37.741   8.769
 1516POPC   D2A21916  34.734  37.987   8.375
 1516POPC   C3A21917  34.462  37.818   8.004
 1516POPC   C4A21918  34.631  37.629   7.616
 1516POPC   C1B21919  34.408  37.519   8.793
 1516POPC   C2B21920  34.567  37.483   8.363
 1516POPC   C3B21921  34.433  37.301   7.940
 1516POPC   C4B21922  34.191  37.350   7.527
 1517POPC   NC321923   8.451  11.673   9.525
 1517POPC   PO421924   8.167  11.052   9.506
 1517POPC   GL121925   8.162  11.157   9.079
 1517POPC   GL221926   8.209  11.492   9.074
 1517POPC   C1A21927   8.239  11.117   8.651
 1517POPC   D2A21928   8.332  11.364   8.360
 1517POPC   C3A21929   8.177  11.388   7.981
 1517POPC   C4A21930   8.093  11.047   7.760
 1517POPC   C1B21931   7.949  11.537   8.706
 1517POPC   C2B21932   7.781  11.532   8.295
 1517POPC   C3B21933   7.714  11.731   7.922
 1517POPC   C4B21934   8.032  11.934   7.739
 1518POPC   NC321935  16.818  23.453   9.652
 1518POPC   PO421936  16.715  22.732   9.628
 1518POPC   GL121937  16.901  22.972   9.274
 1518POPC   GL221938  16.590  23.066   9.168
 1518POPC   C1A21939  16.942  22.873   8.803
 1518POPC   D2A21940  17.123  22.696   8.423
 1518POPC   C3A21941  16.886  22.699   8.050
 1518POPC   C4A21942  16.872  22.956   7.697
 1518POPC   C1B21943  16.632  23.257   8.744
 1518POPC   C2B21944  16.758  23.158   8.307
 1518POPC   C3B21945  16.639  23.366   7.904
 1518POPC   C4B21946  16.656  23.335   7.415
 1519POPC   NC321947  28.146   1.300   9.644
 1519POPC   PO421948  28.717   1.009   9.374
 1519POPC   GL121949  28.672   1.224   9.035
 1519POPC   GL221950  28.392   1.389   9.176
 1519POPC   C1A21951  28.556   1.056   8.638
 1519POPC   D2A21952  28.698   0.879   8.236
 1519POPC   C3A21953  28.539   1.008   7.873
 1519POPC   C4A21954  28.161   0.924   7.735
 1519POPC   C1B21955  28.361   1.519   8.735
 1519POPC   C2B21956  28.364   1.375   8.260
 1519POPC   C3B21957  28.408   1.555   7.814
 1519POPC   C4B21958  28.668   1.514   7.407
 1520POPC   NC321959  29.407  30.196   9.521
 1520POPC   PO421960  29.215  29.570   9.571
 1520POPC   GL121961  29.025  29.627   9.153
 1520POPC   GL221962  29.055  29.984   9.167
 1520POPC   C1A21963  29.042  29.732   8.719
 1520POPC   D2A21964  29.091  29.582   8.334
 1520POPC   C3A21965  28.839  29.772   8.015
 1520POPC   C4A21966  28.978  29.710   7.604
 1520POPC   C1B21967  29.358  30.100   8.870
 1520POPC   C2B21968  29.387  30.282   8.486
 1520POPC   C3B21969  29.424  30.355   8.068
 1520POPC   C4B21970  29.101  30.191   7.765
 1521POPC   NC321971  11.851  13.755   9.517
 1521POPC   PO421972  12.434  13.631   9.332
 1521POPC   GL121973  12.084  13.784   9.066
 1521POPC   GL221974  11.784  14.040   9.091
 1521POPC   C1A21975  12.066  13.652   8.658
 1521POPC   D2A21976  12.102  13.481   8.271
 1521POPC   C3A21977  12.280  13.689   7.962
 1521POPC   C4A21978  12.282  13.429   7.609
 1521POPC   C1B21979  11.589  13.817   8.768
 1521POPC   C2B21980  11.615  13.663   8.364
 1521POPC   C3B21981  11.798  13.895   8.029
 1521POPC   C4B21982  11.787  13.872   7.594
 1522POPC   NC321983   9.216   4.270   9.598
 1522POPC   PO421984   8.645   4.459   9.583
 1522POPC   GL121985   8.827   4.206   9.252
 1522POPC   GL221986   9.101   4.462   9.145
 1522POPC   C1A21987   9.002   4.067   8.847
 1522POPC   D2A21988   9.029   4.386   8.546
 1522POPC   C3A21989   9.066   4.328   8.136
 1522POPC   C4A21990   8.968   4.156   7.767
 1522POPC   C1B21991   8.736   4.586   8.919
 1522POPC   C2B21992   8.547   4.619   8.509
 1522POPC   C3B21993   8.640   4.583   8.064
 1522POPC   C4B21994   8.870   4.630   7.657
 1523POPC   NC321995  12.351  36.855   9.459
 1523POPC   PO421996  11.742  37.148   9.499
 1523POPC   GL121997  11.889  36.939   9.137
 1523POPC   GL221998  12.223  37.081   9.020
 1523POPC   C1A21999  11.822  36.955   8.715
 1523POPC   D2A22000  12.060  37.156   8.421
 1523POPC   C3A22001  11.849  37.152   8.045
 1523POPC   C4A22002  11.781  37.037   7.616
 1523POPC   C1B22003  12.258  36.699   8.748
 1523POPC   C2B22004  12.199  36.665   8.298
 1523POPC   C3B22005  12.016  36.681   7.899
 1523POPC   C4B22006  12.173  36.749   7.450
 1524POPC   NC322007  10.375  23.702   9.707
 1524POPC   PO422008  10.582  24.339   9.481
 1524POPC   GL122009  10.571  23.916   9.248
 1524POPC   GL222010  10.280  23.698   9.203
 1524POPC   C1A22011  10.640  23.690   8.846
 1524POPC   D2A22012  10.809  23.921   8.476
 1524POPC   C3A22013  10.626  23.742   8.113
 1524POPC   C4A22014  10.559  23.924   7.734
 1524POPC   C1B22015  10.159  23.399   8.845
 1524POPC   C2B22016   9.929  23.293   8.476
 1524POPC   C3B22017  10.004  23.247   8.047
 1524POPC   C4B22018  10.329  23.403   7.843
 1525POPC   NC322019  30.894  17.464   9.333
 1525POPC   PO422020  31.021  18.097   9.400
 1525POPC   GL122021  30.814  17.890   9.009
 1525POPC   GL222022  31.111  17.696   8.942
 1525POPC   C1A22023  30.475  17.642   8.716
 1525POPC   D2A22024  30.473  17.328   8.377
 1525POPC   C3A22025  30.549  17.518   7.979
 1525POPC   C4A22026  30.345  17.600   7.609
 1525POPC   C1B22027  30.918  17.420   8.658
 1525POPC   C2B22028  30.823  17.736   8.365
 1525POPC   C3B22029  31.002  17.824   8.002
 1525POPC   C4B22030  31.045  17.520   7.729
 1526POPC   NC322031  14.536  39.880   9.526
 1526POPC   PO422032  14.393  40.488   9.398
 1526POPC   GL122033  14.241  40.245   9.098
 1526POPC   GL222034  14.368  39.899   9.042
 1526POPC   C1A22035  14.318  40.244   8.668
 1526POPC   D2A22036  14.452  40.104   8.295
 1526POPC   C3A22037  14.309  40.200   7.916
 1526POPC   C4A22038  14.148  39.855   7.707
 1526POPC   C1B22039  14.692  39.920   8.724
 1526POPC   C2B22040  14.865  39.811   8.328
 1526POPC   C3B22041  14.724  39.888   7.907
 1526POPC   C4B22042  14.606  39.844   7.468
 1527POPC   NC322043  39.129  13.541   9.581
 1527POPC   PO422044  38.548  13.416   9.362
 1527POPC   GL122045  38.912  13.398   9.112
 1527POPC   GL222046  39.185  13.660   9.103
 1527POPC   C1A22047  38.971  13.518   8.681
 1527POPC   D2A22048  39.160  13.554   8.288
 1527POPC   C3A22049  39.063  13.550   7.862
 1527POPC   C4A22050  39.379  13.358   7.649
 1527POPC   C1B22051  39.427  13.788   8.738
 1527POPC   C2B22052  39.406  13.989   8.336
 1527POPC   C3B22053  39.506  13.786   7.932
 1527POPC   C4B22054  39.399  13.817   7.459
 1528POPC   NC322055  21.168  11.827   9.900
 1528POPC   PO422056  21.302  12.395   9.530
 1528POPC   GL122057  21.298  12.225   9.122
 1528POPC   GL222058  21.454  11.911   9.132
 1528POPC   C1A22059  21.437  12.201   8.700
 1528POPC   D2A22060  21.210  12.282   8.335
 1528POPC   C3A22061  21.404  12.139   7.972
 1528POPC   C4A22062  21.495  12.206   7.543
 1528POPC   C1B22063  21.304  11.707   8.732
 1528POPC   C2B22064  21.446  11.698   8.274
 1528POPC   C3B22065  21.419  11.660   7.795
 1528POPC   C4B22066  21.278  11.740   7.332
 1529POPC   NC322067  42.546  21.583   9.759
 1529POPC   PO422068  42.172  21.062   9.527
 1529POPC   GL122069  42.275  21.405   9.237
 1529POPC   GL222070  42.615  21.572   9.260
 1529POPC   C1A22071  42.161  21.421   8.792
 1529POPC   D2A22072  42.304  21.599   8.421
 1529POPC   C3A22073  42.299  21.314   8.102
 1529POPC   C4A22074  41.998  21.150   7.833
 1529POPC   C1B22075  42.617  21.694   8.838
 1529POPC   C2B22076  42.831  21.710   8.453
 1529POPC   C3B22077  42.735  21.649   8.028
 1529POPC   C4B22078  42.398  21.639   7.732
 1530POPC   NC322079   8.864  29.516   9.536
 1530POPC   PO422080   8.750  30.146   9.356
 1530POPC   GL122081   9.015  30.068   9.038
 1530POPC   GL222082   9.101  29.746   9.140
 1530POPC   C1A22083   9.083  30.024   8.595
 1530POPC   D2A22084   8.919  29.790   8.260
 1530POPC   C3A22085   8.849  29.993   7.871
 1530POPC   C4A22086   9.231  30.075   7.701
 1530POPC   C1B22087   9.386  29.654   8.811
 1530POPC   C2B22088   9.368  29.562   8.373
 1530POPC   C3B22089   9.521  29.782   8.025
 1530POPC   C4B22090   9.558  29.658   7.611
 1531POPC   NC322091   7.301  29.728   9.444
 1531POPC   PO422092   7.796  30.207   9.649
 1531POPC   GL122093   7.679  30.055   9.265
 1531POPC   GL222094   7.389  30.274   9.240
 1531POPC   C1A22095   7.559  29.981   8.843
 1531POPC   D2A22096   7.539  30.188   8.451
 1531POPC   C3A22097   7.456  29.881   8.159
 1531POPC   C4A22098   7.737  29.731   7.869
 1531POPC   C1B22099   7.247  30.393   8.824
 1531POPC   C2B22100   7.029  30.161   8.508
 1531POPC   C3B22101   7.027  30.151   8.071
 1531POPC   C4B22102   7.030  30.079   7.634
 1532POPC   NC322103  22.019  44.172   9.691
 1532POPC   PO422104  22.128  43.492   9.694
 1532POPC   GL122105  22.103  43.791   9.299
 1532POPC   GL222106  22.350  43.622   9.086
 1532POPC   C1A22107  22.101  44.016   8.858
 1532POPC   D2A22108  21.893  44.116   8.431
 1532POPC   C3A22109  22.166  44.033   8.061
 1532POPC   C4A22110  22.203  43.872   7.636
 1532POPC   C1B22111  22.597  43.580   8.732
 1532POPC   C2B22112  22.586  43.758   8.310
 1532POPC   C3B22113  22.469  43.541   7.951
 1532POPC   C4B22114  22.556  43.539   7.497
 1533POPC   NC322115  27.589  13.855   9.691
 1533POPC   PO422116  27.319  13.252   9.459
 1533POPC   GL122117  27.351  13.468   9.098
 1533POPC   GL222118  27.624  13.653   9.206
 1533POPC   C1A22119  27.475  13.504   8.666
 1533POPC   D2A22120  27.759  13.642   8.330
 1533POPC   C3A22121  27.659  13.565   7.900
 1533POPC   C4A22122  27.826  13.553   7.468
 1533POPC   C1B22123  27.755  13.893   8.859
 1533POPC   C2B22124  27.905  14.166   8.516
 1533POPC   C3B22125  27.873  14.087   8.071
 1533POPC   C4B22126  27.680  14.016   7.664
 1534POPC   NC322127  24.786   2.922   9.524
 1534POPC   PO422128  24.225   2.568   9.410
 1534POPC   GL122129  24.494   2.679   9.058
 1534POPC   GL222130  24.777   2.925   9.005
 1534POPC   C1A22131  24.433   2.725   8.608
 1534POPC   D2A22132  24.476   3.019   8.300
 1534POPC   C3A22133  24.387   2.917   7.852
 1534POPC   C4A22134  24.277   2.684   7.463
 1534POPC   C1B22135  24.903   2.587   8.764
 1534POPC   C2B22136  24.808   2.448   8.390
 1534POPC   C3B22137  24.557   2.473   8.070
 1534POPC   C4B22138  24.715   2.562   7.675
 1535POPC   NC322139   3.299  33.786   9.555
 1535POPC   PO422140   3.910  34.008   9.514
 1535POPC   GL122141   3.687  33.775   9.199
 1535POPC   GL222142   3.485  33.464   9.178
 1535POPC   C1A22143   3.491  33.869   8.810
 1535POPC   D2A22144   3.339  34.101   8.442
 1535POPC   C3A22145   3.433  33.961   8.013
 1535POPC   C4A22146   3.461  34.049   7.546
 1535POPC   C1B22147   3.236  33.404   8.784
 1535POPC   C2B22148   3.343  33.580   8.400
 1535POPC   C3B22149   3.261  33.459   8.004
 1535POPC   C4B22150   3.450  33.566   7.674
 1536POPC   NC322151   9.802   4.697   9.503
 1536POPC   PO422152   9.562   3.979   9.534
 1536POPC   GL122153   9.606   4.301   9.223
 1536POPC   GL222154   9.949   4.407   9.117
 1536POPC   C1A22155   9.467   4.363   8.808
 1536POPC   D2A22156   9.464   4.016   8.543
 1536POPC   C3A22157   9.485   4.046   8.090
 1536POPC   C4A22158   9.449   4.411   7.811
 1536POPC   C1B22159   9.918   4.151   8.768
 1536POPC   C2B22160   9.862   4.292   8.366
 1536POPC   C3B22161   9.881   4.596   8.061
 1536POPC   C4B22162   9.954   4.455   7.651
 1537POPC   NC322163   7.096   3.145   9.302
 1537POPC   PO422164   7.097   2.539   9.480
 1537POPC   GL122165   7.307   2.711   9.111
 1537POPC   GL222166   7.707   2.750   9.053
 1537POPC   C1A22167   7.378   2.975   8.741
 1537POPC   D2A22168   7.629   2.855   8.404
 1537POPC   C3A22169   7.381   2.941   8.041
 1537POPC   C4A22170   7.377   3.106   7.646
 1537POPC   C1B22171   7.513   2.466   8.732
 1537POPC   C2B22172   7.634   2.292   8.365
 1537POPC   C3B22173   7.674   2.511   8.031
 1537POPC   C4B22174   7.554   2.626   7.646
 1538POPC   NC322175  20.484  40.710   9.550
 1538POPC   PO422176  21.040  41.060   9.485
 1538POPC   GL122177  20.789  40.903   9.161
 1538POPC   GL222178  20.758  40.532   9.172
 1538POPC   C1A22179  20.571  40.954   8.778
 1538POPC   D2A22180  20.689  40.860   8.363
 1538POPC   C3A22181  20.475  40.912   7.991
 1538POPC   C4A22182  20.793  40.936   7.705
 1538POPC   C1B22183  20.796  40.462   8.744
 1538POPC   C2B22184  20.708  40.331   8.322
 1538POPC   C3B22185  20.724  40.462   7.898
 1538POPC   C4B22186  20.600  40.479   7.448
 1539POPC   NC322187   8.855  23.534   9.733
 1539POPC   PO422188   8.966  24.245   9.690
 1539POPC   GL122189   9.042  23.858   9.381
 1539POPC   GL222190   8.754  23.680   9.246
 1539POPC   C1A22191   9.193  23.712   8.948
 1539POPC   D2A22192   9.164  23.584   8.490
 1539POPC   C3A22193   9.183  23.866   8.112
 1539POPC   C4A22194   9.072  23.827   7.676
 1539POPC   C1B22195   8.736  23.477   8.838
 1539POPC   C2B22196   8.639  23.597   8.391
 1539POPC   C3B22197   8.790  23.489   7.995
 1539POPC   C4B22198   8.677  23.502   7.549
 1540POPC   NC322199  12.211  42.686   9.520
 1540POPC   PO422200  12.055  41.949   9.540
 1540POPC   GL122201  12.186  42.249   9.248
 1540POPC   GL222202  11.876  42.382   9.213
 1540POPC   C1A22203  12.231  42.478   8.838
 1540POPC   D2A22204  12.327  42.589   8.406
 1540POPC   C3A22205  12.110  42.386   8.103
 1540POPC   C4A22206  11.962  42.567   7.740
 1540POPC   C1B22207  11.842  42.141   8.825
 1540POPC   C2B22208  11.775  42.063   8.397
 1540POPC   C3B22209  11.806  41.927   7.976
 1540POPC   C4B22210  11.721  42.135   7.600
 1541POPC   NC322211  39.993  36.966   9.614
 1541POPC   PO422212  40.111  36.351   9.449
 1541POPC   GL122213  40.168  36.657   9.104
 1541POPC   GL222214  40.132  37.027   9.141
 1541POPC   C1A22215  40.092  36.774   8.665
 1541POPC   D2A22216  40.356  36.647   8.313
 1541POPC   C3A22217  40.282  36.814   7.933
 1541POPC   C4A22218  39.863  36.706   7.803
 1541POPC   C1B22219  39.932  37.252   8.811
 1541POPC   C2B22220  39.816  37.126   8.383
 1541POPC   C3B22221  39.958  37.225   7.957
 1541POPC   C4B22222  40.229  37.258   7.564
 1542POPC   NC322223  13.135  28.990   9.419
 1542POPC   PO422224  12.477  29.239   9.569
 1542POPC   GL122225  12.710  29.113   9.184
 1542POPC   GL222226  12.969  29.331   9.069
 1542POPC   C1A22227  12.644  29.005   8.748
 1542POPC   D2A22228  12.831  28.834   8.358
 1542POPC   C3A22229  12.839  29.150   8.045
 1542POPC   C4A22230  12.809  29.124   7.618
 1542POPC   C1B22231  13.105  29.197   8.623
 1542POPC   C2B22232  13.311  29.041   8.218
 1542POPC   C3B22233  13.292  29.148   7.756
 1542POPC   C4B22234  13.166  29.349   7.347
 1543POPC   NC322235  27.079  20.298   9.453
 1543POPC   PO422236  26.837  20.969   9.495
 1543POPC   GL122237  26.712  20.839   9.113
 1543POPC   GL222238  27.018  20.670   9.071
 1543POPC   C1A22239  26.681  20.641   8.688
 1543POPC   D2A22240  26.971  20.747   8.332
 1543POPC   C3A22241  26.789  20.714   7.943
 1543POPC   C4A22242  26.435  20.892   7.690
 1543POPC   C1B22243  27.051  20.282   8.775
 1543POPC   C2B22244  26.893  20.239   8.379
 1543POPC   C3B22245  27.170  20.331   8.076
 1543POPC   C4B22246  27.112  20.389   7.684
 1544POPC   NC322247  27.474  41.096   9.620
 1544POPC   PO422248  27.471  40.411   9.597
 1544POPC   GL122249  27.617  40.712   9.273
 1544POPC   GL222250  27.325  40.871   9.175
 1544POPC   C1A22251  27.766  40.833   8.837
 1544POPC   D2A22252  27.930  41.009   8.411
 1544POPC   C3A22253  27.767  40.882   8.001
 1544POPC   C4A22254  27.367  40.986   7.842
 1544POPC   C1B22255  27.263  41.042   8.754
 1544POPC   C2B22256  27.448  40.856   8.413
 1544POPC   C3B22257  27.432  40.524   8.146
 1544POPC   C4B22258  27.116  40.541   7.862
 1545POPC   NC322259   9.111  36.289   9.405
 1545POPC   PO422260   8.769  35.913   9.763
 1545POPC   GL122261   8.898  35.848   9.200
 1545POPC   GL222262   9.103  36.063   8.951
 1545POPC   C1A22263   8.716  35.888   8.713
 1545POPC   D2A22264   8.987  36.096   8.375
 1545POPC   C3A22265   8.861  36.170   7.919
 1545POPC   C4A22266   8.945  35.943   7.511
 1545POPC   C1B22267   9.247  36.434   8.767
 1545POPC   C2B22268   9.366  36.460   8.369
 1545POPC   C3B22269   9.353  36.241   8.011
 1545POPC   C4B22270   9.623  36.391   7.735
 1546POPC   NC322271  14.981  16.569   9.593
 1546POPC   PO422272  15.640  16.707   9.626
 1546POPC   GL122273  15.332  16.748   9.217
 1546POPC   GL222274  15.100  16.494   9.116
 1546POPC   C1A22275  15.298  16.674   8.706
 1546POPC   D2A22276  15.235  16.879   8.289
 1546POPC   C3A22277  15.383  16.758   7.856
 1546POPC   C4A22278  15.306  16.832   7.411
 1546POPC   C1B22279  14.876  16.290   8.834
 1546POPC   C2B22280  14.769  16.453   8.439
 1546POPC   C3B22281  14.958  16.499   8.078
 1546POPC   C4B22282  14.888  16.653   7.717
 1547POPC   NC322283  15.972   2.568   9.557
 1547POPC   PO422284  16.412   3.097   9.491
 1547POPC   GL122285  16.097   2.826   9.156
 1547POPC   GL222286  15.972   3.087   8.920
 1547POPC   C1A22287  15.714   2.692   8.845
 1547POPC   D2A22288  15.810   2.656   8.402
 1547POPC   C3A22289  15.733   2.912   8.050
 1547POPC   C4A22290  15.960   3.138   7.762
 1547POPC   C1B22291  16.236   2.718   8.697
 1547POPC   C2B22292  16.220   2.370   8.371
 1547POPC   C3B22293  16.097   2.495   7.955
 1547POPC   C4B22294  16.308   2.518   7.541
 1548POPC   NC322295   1.802  23.704   9.562
 1548POPC   PO422296   2.520  23.738   9.477
 1548POPC   GL122297   2.111  23.738   9.159
 1548POPC   GL222298   1.807  23.440   9.123
 1548POPC   C1A22299   2.055  23.604   8.744
 1548POPC   D2A22300   2.287  23.645   8.411
 1548POPC   C3A22301   2.059  23.577   8.080
 1548POPC   C4A22302   2.306  23.623   7.733
 1548POPC   C1B22303   1.541  23.453   8.728
 1548POPC   C2B22304   1.527  23.476   8.287
 1548POPC   C3B22305   1.623  23.353   7.881
 1548POPC   C4B22306   1.821  23.634   7.624
 1549POPC   NC322307  16.669  18.714   9.574
 1549POPC   PO422308  16.995  19.317   9.490
 1549POPC   GL122309  17.011  18.945   9.210
 1549POPC   GL222310  16.657  18.881   9.103
 1549POPC   C1A22311  16.985  19.005   8.752
 1549POPC   D2A22312  16.850  19.344   8.482
 1549POPC   C3A22313  16.747  19.097   8.151
 1549POPC   C4A22314  16.977  18.931   7.822
 1549POPC   C1B22315  16.525  19.286   8.895
 1549POPC   C2B22316  16.326  19.333   8.471
 1549POPC   C3B22317  16.333  19.367   8.023
 1549POPC   C4B22318  16.686  19.342   7.700
 1550POPC   NC322319  41.004  30.034   9.569
 1550POPC   PO422320  40.381  30.136   9.497
 1550POPC   GL122321  40.679  30.009   9.150
 1550POPC   GL222322  41.059  30.067   9.073
 1550POPC   C1A22323  40.571  29.888   8.734
 1550POPC   D2A22324  40.467  29.696   8.346
 1550POPC   C3A22325  40.578  29.937   7.993
 1550POPC   C4A22326  40.498  29.996   7.574
 1550POPC   C1B22327  41.040  29.724   8.811
 1550POPC   C2B22328  41.003  29.620   8.393
 1550POPC   C3B22329  41.054  29.776   7.982
 1550POPC   C4B22330  40.852  29.650   7.637
 1551POPC   NC322331   9.033  32.047   9.548
 1551POPC   PO422332   9.202  32.752   9.409
 1551POPC   GL122333   9.117  32.407   9.115
 1551POPC   GL222334   8.837  32.152   9.105
 1551POPC   C1A22335   9.222  32.153   8.757
 1551POPC   D2A22336   9.141  31.890   8.391
 1551POPC   C3A22337   9.168  32.120   7.988
 1551POPC   C4A22338   9.188  32.250   7.531
 1551POPC   C1B22339   8.684  32.247   8.740
 1551POPC   C2B22340   8.844  32.301   8.356
 1551POPC   C3B22341   8.733  32.410   7.964
 1551POPC   C4B22342   8.746  32.080   7.687
 1552POPC   NC322343  14.397  31.292   9.524
 1552POPC   PO422344  14.018  31.762   9.725
 1552POPC   GL122345  14.257  31.698   9.224
 1552POPC   GL222346  14.599  31.557   9.145
 1552POPC   C1A22347  14.227  31.584   8.784
 1552POPC   D2A22348  14.229  31.818   8.404
 1552POPC   C3A22349  14.260  31.580   8.023
 1552POPC   C4A22350  14.293  31.157   7.826
 1552POPC   C1B22351  14.722  31.387   8.788
 1552POPC   C2B22352  14.819  31.505   8.399
 1552POPC   C3B22353  14.738  31.340   7.995
 1552POPC   C4B22354  14.612  31.598   7.660
 1553POPC   NC322355   5.216   9.230   9.548
 1553POPC   PO422356   5.012   8.515   9.622
 1553POPC   GL122357   5.237   8.772   9.326
 1553POPC   GL222358   4.921   8.940   9.248
 1553POPC   C1A22359   5.243   8.887   8.886
 1553POPC   D2A22360   5.002   8.924   8.520
 1553POPC   C3A22361   5.283   8.994   8.205
 1553POPC   C4A22362   5.152   8.916   7.828
 1553POPC   C1B22363   4.905   9.283   8.917
 1553POPC   C2B22364   4.775   9.399   8.475
 1553POPC   C3B22365   4.899   9.313   8.040
 1553POPC   C4B22366   4.794   9.163   7.601
 1554POPC   NC322367  12.435   2.903   9.367
 1554POPC   PO422368  11.829   2.639   9.368
 1554POPC   GL122369  12.065   2.741   9.047
 1554POPC   GL222370  12.275   2.441   9.160
 1554POPC   C1A22371  12.037   2.852   8.604
 1554POPC   D2A22372  11.724   2.822   8.285
 1554POPC   C3A22373  11.879   2.782   7.839
 1554POPC   C4A22374  12.337   2.885   7.763
 1554POPC   C1B22375  12.358   2.456   8.724
 1554POPC   C2B22376  12.450   2.330   8.327
 1554POPC   C3B22377  12.238   2.402   7.931
 1554POPC   C4B22378  12.219   2.511   7.456
 1555POPC   NC322379  39.161  43.326   9.600
 1555POPC   PO422380  39.480  42.744   9.617
 1555POPC   GL122381  39.318  42.888   9.247
 1555POPC   GL222382  39.474  43.206   9.215
 1555POPC   C1A22383  39.179  42.872   8.833
 1555POPC   D2A22384  39.430  42.978   8.468
 1555POPC   C3A22385  39.267  43.071   8.094
 1555POPC   C4A22386  39.143  42.850   7.733
 1555POPC   C1B22387  39.257  43.371   8.820
 1555POPC   C2B22388  39.252  43.560   8.387
 1555POPC   C3B22389  39.340  43.536   7.939
 1555POPC   C4B22390  38.934  43.346   7.772
 1556POPC   NC322391  12.445  34.156   9.864
 1556POPC   PO422392  12.077  33.755   9.439
 1556POPC   GL122393  12.158  33.760   9.047
 1556POPC   GL222394  11.899  33.470   9.076
 1556POPC   C1A22395  12.450  33.964   8.730
 1556POPC   D2A22396  12.420  34.290   8.404
 1556POPC   C3A22397  12.349  34.097   8.004
 1556POPC   C4A22398  12.077  34.137   7.659
 1556POPC   C1B22399  12.116  33.473   8.648
 1556POPC   C2B22400  12.101  33.803   8.361
 1556POPC   C3B22401  11.949  33.734   7.968
 1556POPC   C4B22402  11.607  33.779   7.740
 1557POPC   NC322403  20.794  20.079   9.273
 1557POPC   PO422404  20.528  19.495   9.511
 1557POPC   GL122405  20.504  19.686   9.125
 1557POPC   GL222406  20.317  19.998   9.147
 1557POPC   C1A22407  20.788  19.557   8.753
 1557POPC   D2A22408  20.931  19.559   8.307
 1557POPC   C3A22409  20.674  19.891   8.103
 1557POPC   C4A22410  20.602  20.062   7.685
 1557POPC   C1B22411  20.316  19.892   8.709
 1557POPC   C2B22412  20.039  19.920   8.396
 1557POPC   C3B22413  20.203  20.068   8.046
 1557POPC   C4B22414  20.251  19.702   7.820
 1558POPC   NC322415  28.007   7.253   9.623
 1558POPC   PO422416  28.665   7.208   9.601
 1558POPC   GL122417  28.444   7.354   9.252
 1558POPC   GL222418  28.175   7.137   9.154
 1558POPC   C1A22419  28.376   7.576   8.854
 1558POPC   D2A22420  28.335   7.808   8.458
 1558POPC   C3A22421  28.258   7.514   8.133
 1558POPC   C4A22422  28.296   7.452   7.691
 1558POPC   C1B22423  28.508   7.068   8.831
 1558POPC   C2B22424  28.332   6.996   8.410
 1558POPC   C3B22425  28.220   7.012   7.961
 1558POPC   C4B22426  28.526   6.964   7.618
 1559POPC   NC322427  19.242  32.124   9.465
 1559POPC   PO422428  19.921  32.266   9.615
 1559POPC   GL122429  19.866  32.284   9.190
 1559POPC   GL222430  19.577  32.120   9.111
 1559POPC   C1A22431  19.873  32.205   8.734
 1559POPC   D2A22432  19.605  32.205   8.426
 1559POPC   C3A22433  19.834  32.321   8.088
 1559POPC   C4A22434  19.762  32.471   7.715
 1559POPC   C1B22435  19.375  31.905   8.782
 1559POPC   C2B22436  19.402  31.738   8.369
 1559POPC   C3B22437  19.487  31.925   8.013
 1559POPC   C4B22438  19.429  32.118   7.620
 1560POPC   NC322439  21.576   4.823   9.316
 1560POPC   PO422440  21.114   5.265   9.474
 1560POPC   GL122441  21.291   5.192   9.095
 1560POPC   GL222442  21.592   5.274   9.098
 1560POPC   C1A22443  21.222   4.978   8.704
 1560POPC   D2A22444  21.031   5.036   8.313
 1560POPC   C3A22445  21.310   4.941   8.025
 1560POPC   C4A22446  21.382   4.817   7.646
 1560POPC   C1B22447  21.721   5.122   8.721
 1560POPC   C2B22448  21.686   4.905   8.346
 1560POPC   C3B22449  21.779   5.087   7.912
 1560POPC   C4B22450  21.903   5.320   7.536
 1561POPC   NC322451  12.730  44.967   9.475
 1561POPC   PO422452  13.197   0.409   9.572
 1561POPC   GL122453  12.968   0.302   9.192
 1561POPC   GL222454  12.799   0.548   9.058
 1561POPC   C1A22455  12.905   0.109   8.774
 1561POPC   D2A22456  12.893   0.392   8.395
 1561POPC   C3A22457  12.691   0.278   7.997
 1561POPC   C4A22458  12.831   0.214   7.569
 1561POPC   C1B22459  12.471   0.428   8.781
 1561POPC   C2B22460  12.367   0.618   8.393
 1561POPC   C3B22461  12.541   0.792   8.032
 1561POPC   C4B22462  12.396   0.580   7.658
 1562POPC   NC322463  44.770  29.416   9.225
 1562POPC   PO422464  44.396  29.869   9.530
 1562POPC   GL122465  44.634  30.011   9.180
 1562POPC   GL222466  44.554  29.779   8.971
 1562POPC   C1A22467  44.791  30.168   8.765
 1562POPC   D2A22468  44.746  30.050   8.377
 1562POPC   C3A22469   0.020  30.129   8.052
 1562POPC   C4A22470  44.830  30.184   7.646
 1562POPC   C1B22471  44.329  29.728   8.613
 1562POPC   C2B22472  44.583  29.582   8.275
 1562POPC   C3B22473  44.681  29.781   7.914
 1562POPC   C4B22474  44.518  29.745   7.487
 1563POPC   NC322475  44.807  19.709   9.530
 1563POPC   PO422476   0.484  19.786   9.565
 1563POPC   GL122477   0.449  20.019   9.201
 1563POPC   GL222478   0.079  20.045   9.162
 1563POPC   C1A22479   0.694  19.996   8.822
 1563POPC   D2A22480   0.746  19.792   8.435
 1563POPC   C3A22481   0.677  20.039   8.068
 1563POPC   C4A22482   0.521  19.870   7.692
 1563POPC   C1B22483   0.220  19.807   8.791
 1563POPC   C2B22484   0.258  19.551   8.452
 1563POPC   C3B22485   0.199  19.767   8.077
 1563POPC   C4B22486  44.965  19.935   7.746
 1564POPC   NC322487  30.250  32.260   9.607
 1564POPC   PO422488  30.910  32.080   9.605
 1564POPC   GL122489  30.707  32.178   9.231
 1564POPC   GL222490  30.659  31.868   9.109
 1564POPC   C1A22491  30.765  32.399   8.847
 1564POPC   D2A22492  30.999  32.358   8.452
 1564POPC   C3A22493  30.775  32.310   8.065
 1564POPC   C4A22494  30.971  32.491   7.720
 1564POPC   C1B22495  30.695  31.926   8.658
 1564POPC   C2B22496  30.943  31.854   8.290
 1564POPC   C3B22497  30.880  31.835   7.840
 1564POPC   C4B22498  30.573  31.804   7.500
 1565POPC   NC322499   8.877   0.695   9.640
 1565POPC   PO422500   9.505   0.443   9.512
 1565POPC   GL122501   9.185   0.546   9.203
 1565POPC   GL222502   8.851   0.340   9.191
 1565POPC   C1A22503   9.033   0.517   8.764
 1565POPC   D2A22504   8.923   0.239   8.434
 1565POPC   C3A22505   8.976   0.494   8.097
 1565POPC   C4A22506   9.134   0.570   7.703
 1565POPC   C1B22507   8.571   0.194   8.807
 1565POPC   C2B22508   8.499  44.963   8.393
 1565POPC   C3B22509   8.767   0.023   7.987
 1565POPC   C4B22510   8.881   0.145   7.531
 1566POPC   NC322511  16.836  16.182   9.383
 1566POPC   PO422512  16.700  16.772   9.650
 1566POPC   GL122513  16.922  16.697   9.268
 1566POPC   GL222514  16.640  16.561   9.099
 1566POPC   C1A22515  16.903  16.928   8.868
 1566POPC   D2A22516  16.713  16.784   8.492
 1566POPC   C3A22517  16.598  17.011   8.141
 1566POPC   C4A22518  16.868  16.894   7.791
 1566POPC   C1B22519  16.714  16.315   8.728
 1566POPC   C2B22520  16.483  16.342   8.339
 1566POPC   C3B22521  16.302  16.582   8.015
 1566POPC   C4B22522  16.332  16.881   7.679
 1567POPC   NC322523  35.363  20.936   9.590
 1567POPC   PO422524  34.831  21.287   9.543
 1567POPC   GL122525  35.190  21.324   9.234
 1567POPC   GL222526  35.570  21.316   9.202
 1567POPC   C1A22527  35.278  21.367   8.789
 1567POPC   D2A22528  35.372  21.143   8.430
 1567POPC   C3A22529  35.358  21.349   8.107
 1567POPC   C4A22530  35.435  21.439   7.761
 1567POPC   C1B22531  35.729  21.135   8.782
 1567POPC   C2B22532  35.874  21.175   8.289
 1567POPC   C3B22533  35.870  21.212   7.815
 1567POPC   C4B22534  35.959  21.077   7.376
 1568POPC   NC322535   7.238  13.825  10.002
 1568POPC   PO422536   7.555  13.322   9.561
 1568POPC   GL122537   7.555  13.687   9.273
 1568POPC   GL222538   7.296  13.668   9.013
 1568POPC   C1A22539   7.735  13.900   8.899
 1568POPC   D2A22540   7.490  13.781   8.540
 1568POPC   C3A22541   7.591  13.704   8.122
 1568POPC   C4A22542   7.417  13.815   7.737
 1568POPC   C1B22543   7.291  13.318   8.710
 1568POPC   C2B22544   7.385  13.206   8.297
 1568POPC   C3B22545   7.270  13.355   7.878
 1568POPC   C4B22546   7.108  13.533   7.460
 1569POPC   NC322547  18.762   5.093   9.483
 1569POPC   PO422548  19.310   4.797   9.670
 1569POPC   GL122549  19.404   4.776   9.220
 1569POPC   GL222550  19.205   5.072   9.204
 1569POPC   C1A22551  19.327   4.904   8.752
 1569POPC   D2A22552  18.958   4.829   8.478
 1569POPC   C3A22553  18.916   5.027   8.080
 1569POPC   C4A22554  19.206   5.053   7.729
 1569POPC   C1B22555  18.873   5.173   8.851
 1569POPC   C2B22556  18.709   5.330   8.470
 1569POPC   C3B22557  18.767   5.530   8.066
 1569POPC   C4B22558  18.716   5.288   7.671
 1570POPC   NC322559  27.357  39.963   9.547
 1570POPC   PO422560  27.933  39.828   9.600
 1570POPC   GL122561  27.741  39.902   9.212
 1570POPC   GL222562  27.728  40.224   9.159
 1570POPC   C1A22563  27.566  39.888   8.785
 1570POPC   D2A22564  27.643  40.079   8.362
 1570POPC   C3A22565  27.741  39.822   8.036
 1570POPC   C4A22566  27.483  39.607   7.772
 1570POPC   C1B22567  27.907  40.325   8.752
 1570POPC   C2B22568  27.940  40.507   8.327
 1570POPC   C3B22569  27.878  40.325   7.908
 1570POPC   C4B22570  27.472  40.159   7.766
 1571POPC   NC322571  22.150  35.130   9.471
 1571POPC   PO422572  22.486  35.756   9.505
 1571POPC   GL122573  22.549  35.494   9.142
 1571POPC   GL222574  22.465  35.126   9.075
 1571POPC   C1A22575  22.272  35.532   8.794
 1571POPC   D2A22576  22.022  35.357   8.455
 1571POPC   C3A22577  22.294  35.257   8.144
 1571POPC   C4A22578  22.148  35.416   7.744
 1571POPC   C1B22579  22.085  34.996   8.806
 1571POPC   C2B22580  22.033  34.816   8.374
 1571POPC   C3B22581  21.909  34.980   7.955
 1571POPC   C4B22582  21.727  34.984   7.542
 1572POPC   NC322583   6.311  40.309   9.999
 1572POPC   PO422584   6.770  39.981   9.568
 1572POPC   GL122585   6.871  40.002   9.129
 1572POPC   GL222586   6.887  40.347   9.055
 1572POPC   C1A22587   6.723  40.007   8.702
 1572POPC   D2A22588   6.304  40.017   8.495
 1572POPC   C3A22589   6.372  39.909   8.061
 1572POPC   C4A22590   6.689  39.962   7.736
 1572POPC   C1B22591   6.978  40.625   8.697
 1572POPC   C2B22592   7.264  40.599   8.340
 1572POPC   C3B22593   7.204  40.481   7.893
 1572POPC   C4B22594   6.840  40.443   7.600
 1573POPC   NC322595   5.557   2.903   9.591
 1573POPC   PO422596   6.246   3.131   9.542
 1573POPC   GL122597   5.962   2.868   9.231
 1573POPC   GL222598   5.580   2.825   9.103
 1573POPC   C1A22599   5.933   2.775   8.748
 1573POPC   D2A22600   5.568   2.751   8.428
 1573POPC   C3A22601   5.668   2.594   8.005
 1573POPC   C4A22602   6.066   2.675   7.814
 1573POPC   C1B22603   5.521   3.120   8.792
 1573POPC   C2B22604   5.384   3.243   8.360
 1573POPC   C3B22605   5.646   3.126   7.993
 1573POPC   C4B22606   5.776   3.006   7.561
 1574POPC   NC322607  41.398  33.161   9.582
 1574POPC   PO422608  41.790  32.640   9.571
 1574POPC   GL122609  41.627  32.901   9.216
 1574POPC   GL222610  41.695  32.658   9.002
 1574POPC   C1A22611  41.554  33.114   8.820
 1574POPC   D2A22612  41.369  33.188   8.419
 1574POPC   C3A22613  41.487  33.052   8.018
 1574POPC   C4A22614  41.776  32.924   7.743
 1574POPC   C1B22615  41.477  32.635   8.603
 1574POPC   C2B22616  41.173  32.738   8.299
 1574POPC   C3B22617  41.086  32.701   7.894
 1574POPC   C4B22618  41.143  32.680   7.452
 1575POPC   NC322619   6.184  11.793   9.558
 1575POPC   PO422620   5.688  12.223   9.513
 1575POPC   GL122621   5.697  12.190   9.102
 1575POPC   GL222622   5.969  11.968   9.132
 1575POPC   C1A22623   5.921  12.213   8.704
 1575POPC   D2A22624   5.873  11.927   8.364
 1575POPC   C3A22625   5.581  12.069   8.032
 1575POPC   C4A22626   5.714  12.219   7.646
 1575POPC   C1B22627   6.144  11.736   8.803
 1575POPC   C2B22628   6.390  11.734   8.445
 1575POPC   C3B22629   6.251  11.704   8.046
 1575POPC   C4B22630   5.856  11.695   7.835
 1576POPC   NC322631  32.570  23.854   9.885
 1576POPC   PO422632  32.263  23.461   9.416
 1576POPC   GL122633  32.077  23.702   9.139
 1576POPC   GL222634  32.010  23.441   8.953
 1576POPC   C1A22635  32.089  23.873   8.717
 1576POPC   D2A22636  32.376  23.784   8.412
 1576POPC   C3A22637  32.136  23.795   8.028
 1576POPC   C4A22638  31.981  23.479   7.773
 1576POPC   C1B22639  32.410  23.225   8.818
 1576POPC   C2B22640  32.597  23.236   8.430
 1576POPC   C3B22641  32.377  23.356   8.105
 1576POPC   C4B22642  32.486  23.576   7.721
 1577POPC   NC322643  43.779   3.824   9.552
 1577POPC   PO422644  43.671   3.141   9.584
 1577POPC   GL122645  43.895   3.373   9.245
 1577POPC   GL222646  44.106   3.707   9.197
 1577POPC   C1A22647  43.663   3.499   8.875
 1577POPC   D2A22648  43.635   3.313   8.478
 1577POPC   C3A22649  43.667   3.497   8.086
 1577POPC   C4A22650  43.664   3.544   7.640
 1577POPC   C1B22651  44.156   3.556   8.830
 1577POPC   C2B22652  43.979   3.703   8.482
 1577POPC   C3B22653  44.093   3.787   8.098
 1577POPC   C4B22654  44.194   3.712   7.733
 1578POPC   NC322655   8.563  39.582   9.255
 1578POPC   PO422656   9.005  39.306   9.689
 1578POPC   GL122657   9.088  39.374   9.250
 1578POPC   GL222658   9.020  39.038   9.184
 1578POPC   C1A22659   9.269  39.329   8.821
 1578POPC   D2A22660   9.049  39.475   8.450
 1578POPC   C3A22661   9.140  39.353   8.025
 1578POPC   C4A22662   9.298  39.037   7.782
 1578POPC   C1B22663   8.795  39.143   8.779
 1578POPC   C2B22664   8.715  38.903   8.381
 1578POPC   C3B22665   8.786  38.995   7.915
 1578POPC   C4B22666   8.699  39.395   7.691
 1579POPC   NC322667  11.448  29.572   9.557
 1579POPC   PO422668  11.093  30.115   9.533
 1579POPC   GL122669  11.330  29.944   9.229
 1579POPC   GL222670  11.619  30.093   9.367
 1579POPC   C1A22671  11.367  29.757   8.839
 1579POPC   D2A22672  11.219  29.894   8.422
 1579POPC   C3A22673  11.461  29.757   8.067
 1579POPC   C4A22674  11.272  29.618   7.691
 1579POPC   C1B22675  11.664  30.204   8.923
 1579POPC   C2B22676  11.495  30.338   8.512
 1579POPC   C3B22677  11.623  30.288   8.069
 1579POPC   C4B22678  11.444  30.108   7.692
 1580POPC   NC322679  26.382  23.085   9.534
 1580POPC   PO422680  25.703  22.849   9.442
 1580POPC   GL122681  26.034  22.958   9.143
 1580POPC   GL222682  26.249  22.654   9.130
 1580POPC   C1A22683  26.100  22.965   8.681
 1580POPC   D2A22684  26.020  23.108   8.248
 1580POPC   C3A22685  26.174  22.828   7.938
 1580POPC   C4A22686  26.205  22.794   7.484
 1580POPC   C1B22687  26.032  22.466   8.742
 1580POPC   C2B22688  25.891  22.610   8.318
 1580POPC   C3B22689  25.709  22.620   7.853
 1580POPC   C4B22690  25.794  22.506   7.353
 1581POPC   NC322691  22.927   8.516   9.385
 1581POPC   PO422692  23.369   8.068   9.525
 1581POPC   GL122693  23.124   8.033   9.155
 1581POPC   GL222694  22.765   8.068   9.189
 1581POPC   C1A22695  23.094   8.188   8.736
 1581POPC   D2A22696  22.899   8.003   8.391
 1581POPC   C3A22697  22.926   8.219   8.007
 1581POPC   C4A22698  22.793   8.029   7.635
 1581POPC   C1B22699  22.644   8.358   8.834
 1581POPC   C2B22700  22.671   8.467   8.410
 1581POPC   C3B22701  22.450   8.396   8.032
 1581POPC   C4B22702  22.548   8.460   7.600
 1582POPC   NC322703   5.999  27.481   9.319
 1582POPC   PO422704   6.347  28.050   9.522
 1582POPC   GL122705   6.327  27.797   9.086
 1582POPC   GL222706   6.116  27.542   8.850
 1582POPC   C1A22707   6.424  27.871   8.665
 1582POPC   D2A22708   6.793  27.715   8.516
 1582POPC   C3A22709   6.710  27.692   8.109
 1582POPC   C4A22710   6.850  27.779   7.726
 1582POPC   C1B22711   6.479  27.317   8.625
 1582POPC   C2B22712   6.747  27.195   8.257
 1582POPC   C3B22713   6.770  27.272   7.825
 1582POPC   C4B22714   6.418  27.474   7.684
 1583POPC   NC322715   8.656  10.972   9.681
 1583POPC   PO422716   8.815  11.601   9.821
 1583POPC   GL122717   8.847  11.337   9.389
 1583POPC   GL222718   9.137  11.131   9.278
 1583POPC   C1A22719   8.682  11.227   8.965
 1583POPC   D2A22720   8.768  11.089   8.528
 1583POPC   C3A22721   8.798  11.430   8.200
 1583POPC   C4A22722   8.744  11.322   7.783
 1583POPC   C1B22723   9.265  11.189   8.835
 1583POPC   C2B22724   9.237  11.371   8.458
 1583POPC   C3B22725   9.249  11.247   8.028
 1583POPC   C4B22726   9.268  11.390   7.619
 1584POPC   NC322727  25.696  20.778   9.614
 1584POPC   PO422728  25.158  21.041   9.791
 1584POPC   GL122729  25.231  20.857   9.327
 1584POPC   GL222730  24.942  20.962   9.112
 1584POPC   C1A22731  25.343  20.705   8.850
 1584POPC   D2A22732  25.593  20.531   8.451
 1584POPC   C3A22733  25.435  20.398   8.007
 1584POPC   C4A22734  25.516  20.618   7.589
 1584POPC   C1B22735  24.839  20.794   8.687
 1584POPC   C2B22736  25.032  20.590   8.290
 1584POPC   C3B22737  24.970  20.503   7.814
 1584POPC   C4B22738  25.038  20.670   7.378
 1585POPC   NC322739   6.455  10.039   9.572
 1585POPC   PO422740   7.054   9.803   9.708
 1585POPC   GL122741   6.830   9.868   9.292
 1585POPC   GL222742   6.890   9.612   9.094
 1585POPC   C1A22743   6.576   9.942   8.876
 1585POPC   D2A22744   6.531   9.759   8.449
 1585POPC   C3A22745   6.611  10.030   8.074
 1585POPC   C4A22746   6.736  10.141   7.665
 1585POPC   C1B22747   7.037   9.751   8.710
 1585POPC   C2B22748   7.030   9.684   8.331
 1585POPC   C3B22749   6.808   9.562   7.994
 1585POPC   C4B22750   6.682   9.642   7.569
 1586POPC   NC322751  13.194  24.954   9.433
 1586POPC   PO422752  12.472  25.020   9.465
 1586POPC   GL122753  12.625  25.256   9.135
 1586POPC   GL222754  12.968  25.365   9.182
 1586POPC   C1A22755  12.860  25.132   8.768
 1586POPC   D2A22756  13.032  25.029   8.409
 1586POPC   C3A22757  12.846  25.155   8.063
 1586POPC   C4A22758  12.842  25.301   7.642
 1586POPC   C1B22759  13.231  25.509   8.761
 1586POPC   C2B22760  13.295  25.472   8.310
 1586POPC   C3B22761  13.278  25.329   7.886
 1586POPC   C4B22762  13.269  25.460   7.423
 1587POPC   NC322763  39.112  22.067   9.630
 1587POPC   PO422764  39.492  22.565   9.854
 1587POPC   GL122765  39.529  22.274   9.379
 1587POPC   GL222766  39.182  22.213   9.154
 1587POPC   C1A22767  39.590  22.108   8.892
 1587POPC   D2A22768  39.348  22.214   8.550
 1587POPC   C3A22769  39.385  22.137   8.117
 1587POPC   C4A22770  39.198  22.384   7.812
 1587POPC   C1B22771  39.007  21.915   8.827
 1587POPC   C2B22772  39.049  21.835   8.390
 1587POPC   C3B22773  38.875  22.036   8.053
 1587POPC   C4B22774  38.925  21.960   7.669
 1588POPC   NC322775  18.582  29.318   9.812
 1588POPC   PO422776  19.049  28.906   9.783
 1588POPC   GL122777  19.015  29.123   9.330
 1588POPC   GL222778  19.335  29.321   9.217
 1588POPC   C1A22779  19.085  29.072   8.850
 1588POPC   D2A22780  19.017  29.294   8.438
 1588POPC   C3A22781  19.065  29.095   8.012
 1588POPC   C4A22782  18.848  29.230   7.658
 1588POPC   C1B22783  19.207  29.582   8.833
 1588POPC   C2B22784  19.344  29.707   8.398
 1588POPC   C3B22785  19.221  29.585   7.968
 1588POPC   C4B22786  19.181  29.809   7.597
 1589POPC   NC322787  35.245  12.309   9.820
 1589POPC   PO422788  35.225  12.833   9.402
 1589POPC   GL122789  35.483  12.951   9.106
 1589POPC   GL222790  35.608  12.622   9.147
 1589POPC   C1A22791  35.340  12.953   8.682
 1589POPC   D2A22792  35.152  12.621   8.433
 1589POPC   C3A22793  35.090  12.851   8.064
 1589POPC   C4A22794  35.392  13.115   7.893
 1589POPC   C1B22795  35.567  12.502   8.767
 1589POPC   C2B22796  35.725  12.459   8.375
 1589POPC   C3B22797  35.492  12.540   8.058
 1589POPC   C4B22798  35.536  12.682   7.688
 1590POPC   NC322799  16.627   4.202   9.641
 1590POPC   PO422800  16.839   4.807   9.578
 1590POPC   GL122801  16.643   4.532   9.234
 1590POPC   GL222802  16.946   4.348   9.265
 1590POPC   C1A22803  16.433   4.376   8.827
 1590POPC   D2A22804  16.173   4.269   8.452
 1590POPC   C3A22805  16.382   4.351   8.064
 1590POPC   C4A22806  16.588   4.484   7.713
 1590POPC   C1B22807  17.073   4.526   8.885
 1590POPC   C2B22808  17.111   4.402   8.482
 1590POPC   C3B22809  17.150   4.216   8.109
 1590POPC   C4B22810  16.967   4.160   7.754
 1591POPC   NC322811   7.395  22.517   9.600
 1591POPC   PO422812   7.432  23.179   9.532
 1591POPC   GL122813   7.249  23.081   9.140
 1591POPC   GL222814   7.341  22.757   9.153
 1591POPC   C1A22815   7.144  22.948   8.701
 1591POPC   D2A22816   7.322  22.739   8.318
 1591POPC   C3A22817   7.093  22.871   7.965
 1591POPC   C4A22818   7.013  23.283   7.886
 1591POPC   C1B22819   7.616  22.823   8.823
 1591POPC   C2B22820   7.805  22.830   8.453
 1591POPC   C3B22821   7.751  22.993   8.048
 1591POPC   C4B22822   7.532  22.805   7.711
 1592POPC   NC322823   4.746   8.163   9.472
 1592POPC   PO422824   5.326   7.806   9.529
 1592POPC   GL122825   5.164   8.006   9.158
 1592POPC   GL222826   5.111   8.317   9.158
 1592POPC   C1A22827   5.262   8.083   8.731
 1592POPC   D2A22828   5.199   7.919   8.373
 1592POPC   C3A22829   5.384   8.094   8.069
 1592POPC   C4A22830   5.307   7.998   7.640
 1592POPC   C1B22831   4.915   8.493   8.845
 1592POPC   C2B22832   4.952   8.387   8.446
 1592POPC   C3B22833   5.059   8.505   8.088
 1592POPC   C4B22834   4.848   8.507   7.700
 1593POPC   NC322835   8.534  14.516   9.427
 1593POPC   PO422836   9.116  14.168   9.615
 1593POPC   GL122837   9.001  14.339   9.225
 1593POPC   GL222838   8.744  14.099   9.183
 1593POPC   C1A22839   8.930  14.368   8.770
 1593POPC   D2A22840   8.766  14.584   8.405
 1593POPC   C3A22841   8.956  14.387   8.047
 1593POPC   C4A22842   8.851  14.547   7.648
 1593POPC   C1B22843   8.609  13.939   8.821
 1593POPC   C2B22844   8.593  14.101   8.419
 1593POPC   C3B22845   8.592  13.971   8.038
 1593POPC   C4B22846   8.840  14.039   7.682
 1594POPC   NC322847   1.358  44.925   9.564
 1594POPC   PO422848   1.583  44.463   9.922
 1594POPC   GL122849   1.492  44.470   9.347
 1594POPC   GL222850   1.309  44.738   9.100
 1594POPC   C1A22851   1.398  44.293   8.887
 1594POPC   D2A22852   1.227  44.551   8.545
 1594POPC   C3A22853   1.242  44.374   8.117
 1594POPC   C4A22854   1.156  44.526   7.692
 1594POPC   C1B22855   1.198   0.023   8.747
 1594POPC   C2B22856   1.254   0.043   8.271
 1594POPC   C3B22857   1.177   0.061   7.786
 1594POPC   C4B22858   0.924  44.994   7.394
 1595POPC   NC322859  38.409  38.871   9.854
 1595POPC   PO422860  38.870  38.535   9.540
 1595POPC   GL122861  38.600  38.402   9.202
 1595POPC   GL222862  38.612  38.732   9.068
 1595POPC   C1A22863  38.368  38.186   8.835
 1595POPC   D2A22864  38.153  38.354   8.446
 1595POPC   C3A22865  38.284  38.388   7.978
 1595POPC   C4A22866  38.552  38.668   7.758
 1595POPC   C1B22867  38.789  38.464   8.743
 1595POPC   C2B22868  38.664  38.449   8.311
 1595POPC   C3B22869  38.806  38.253   7.933
 1595POPC   C4B22870  39.048  38.485   7.616
 1596POPC   NC322871  30.439   3.780   9.430
 1596POPC   PO422872  31.105   3.428   9.521
 1596POPC   GL122873  30.859   3.587   9.177
 1596POPC   GL222874  30.568   3.406   9.093
 1596POPC   C1A22875  30.789   3.702   8.728
 1596POPC   D2A22876  30.750   3.495   8.319
 1596POPC   C3A22877  30.541   3.680   7.973
 1596POPC   C4A22878  30.642   3.723   7.541
 1596POPC   C1B22879  30.345   3.411   8.699
 1596POPC   C2B22880  30.206   3.508   8.298
 1596POPC   C3B22881  30.283   3.236   7.905
 1596POPC   C4B22882  30.381   3.166   7.439
 1597POPC   NC322883  10.887  40.191   9.655
 1597POPC   PO422884  11.405  39.781   9.554
 1597POPC   GL122885  11.166  39.918   9.190
 1597POPC   GL222886  11.218  40.283   9.263
 1597POPC   C1A22887  11.192  39.772   8.713
 1597POPC   D2A22888  11.341  39.899   8.283
 1597POPC   C3A22889  11.244  39.657   7.892
 1597POPC   C4A22890  11.541  39.698   7.473
 1597POPC   C1B22891  11.131  40.266   8.821
 1597POPC   C2B22892  10.946  40.238   8.390
 1597POPC   C3B22893  11.020  40.133   7.936
 1597POPC   C4B22894  11.469  40.088   7.787
 1598POPC   NC322895  10.093   2.987   9.568
 1598POPC   PO422896  10.435   3.687   9.509
 1598POPC   GL122897  10.381   3.592   9.109
 1598POPC   GL222898  10.120   3.363   9.173
 1598POPC   C1A22899  10.513   3.845   8.739
 1598POPC   D2A22900  10.333   4.007   8.354
 1598POPC   C3A22901  10.436   3.719   8.028
 1598POPC   C4A22902  10.582   3.592   7.628
 1598POPC   C1B22903   9.879   3.187   8.783
 1598POPC   C2B22904  10.062   3.158   8.349
 1598POPC   C3B22905  10.336   3.156   7.950
 1598POPC   C4B22906  10.331   3.150   7.478
 1599POPC   NC322907  40.118  38.866   9.392
 1599POPC   PO422908  40.392  38.300   9.578
 1599POPC   GL122909  40.084  38.365   9.199
 1599POPC   GL222910  39.711  38.492   9.157
 1599POPC   C1A22911  40.080  38.169   8.776
 1599POPC   D2A22912  40.245  38.300   8.368
 1599POPC   C3A22913  40.132  38.196   7.959
 1599POPC   C4A22914  40.434  38.324   7.699
 1599POPC   C1B22915  39.959  38.679   8.803
 1599POPC   C2B22916  40.174  38.811   8.446
 1599POPC   C3B22917  40.051  38.705   8.041
 1599POPC   C4B22918  39.928  38.575   7.644
 1600POPC   NC322919  23.456   7.602   9.539
 1600POPC   PO422920  22.857   7.221   9.662
 1600POPC   GL122921  22.760   7.374   9.280
 1600POPC   GL222922  23.099   7.494   9.180
 1600POPC   C1A22923  22.697   7.301   8.857
 1600POPC   D2A22924  22.646   7.545   8.478
 1600POPC   C3A22925  22.631   7.346   8.073
 1600POPC   C4A22926  22.826   7.259   7.689
 1600POPC   C1B22927  23.053   7.674   8.771
 1600POPC   C2B22928  23.141   7.523   8.344
 1600POPC   C3B22929  23.085   7.698   7.915
 1600POPC   C4B22930  23.097   7.625   7.433
 1601POPC   NC322931  34.484   9.267   9.492
 1601POPC   PO422932  34.473   8.671   9.630
 1601POPC   GL122933  34.295   8.883   9.229
 1601POPC   GL222934  34.595   9.031   9.046
 1601POPC   C1A22935  34.139   9.078   8.829
 1601POPC   D2A22936  34.307   9.260   8.422
 1601POPC   C3A22937  34.115   9.213   8.014
 1601POPC   C4A22938  34.238   9.008   7.627
 1601POPC   C1B22939  34.760   9.327   8.717
 1601POPC   C2B22940  34.771   9.564   8.362
 1601POPC   C3B22941  34.593   9.407   7.995
 1601POPC   C4B22942  34.702   8.996   7.825
 1602POPC   NC322943   0.721   0.017   9.401
 1602POPC   PO422944   0.121  44.643   9.431
 1602POPC   GL122945   0.422  44.747   9.101
 1602POPC   GL222946   0.383   0.070   8.987
 1602POPC   C1A22947   0.738  44.729   8.768
 1602POPC   D2A22948   0.578  44.486   8.426
 1602POPC   C3A22949   0.705  44.489   8.002
 1602POPC   C4A22950   0.330  44.453   7.780
 1602POPC   C1B22951   0.249  44.826   8.611
 1602POPC   C2B22952   0.286  44.827   8.150
 1602POPC   C3B22953   0.502  44.927   7.744
 1602POPC   C4B22954   0.459   0.220   7.413
 1603POPC   NC322955  18.473  32.601   9.484
 1603POPC   PO422956  17.969  32.240   9.570
 1603POPC   GL122957  18.165  32.287   9.197
 1603POPC   GL222958  18.053  32.622   9.135
 1603POPC   C1A22959  18.377  32.125   8.830
 1603POPC   D2A22960  18.494  32.169   8.398
 1603POPC   C3A22961  18.259  32.389   8.056
 1603POPC   C4A22962  18.261  32.156   7.655
 1603POPC   C1B22963  18.442  32.623   8.863
 1603POPC   C2B22964  18.783  32.531   8.617
 1603POPC   C3B22965  18.813  32.496   8.175
 1603POPC   C4B22966  18.639  32.588   7.792
 1604POPC   NC322967  34.821   2.971   9.449
 1604POPC   PO422968  34.584   2.365   9.276
 1604POPC   GL122969  34.600   2.508   8.891
 1604POPC   GL222970  34.574   2.845   9.012
 1604POPC   C1A22971  34.627   2.751   8.490
 1604POPC   D2A22972  34.296   2.803   8.195
 1604POPC   C3A22973  34.349   2.636   7.786
 1604POPC   C4A22974  34.423   2.709   7.326
 1604POPC   C1B22975  34.777   3.150   8.791
 1604POPC   C2B22976  34.907   3.213   8.392
 1604POPC   C3B22977  34.704   3.111   8.029
 1604POPC   C4B22978  34.778   2.852   7.689
 1605POPC   NC322979   5.469  10.120   9.428
 1605POPC   PO422980   5.362  10.745   9.458
 1605POPC   GL122981   5.283  10.500   9.106
 1605POPC   GL222982   4.917  10.510   9.038
 1605POPC   C1A22983   5.315  10.622   8.684
 1605POPC   D2A22984   5.308  10.853   8.287
 1605POPC   C3A22985   5.431  10.626   7.924
 1605POPC   C4A22986   5.294  10.448   7.522
 1605POPC   C1B22987   4.905  10.309   8.671
 1605POPC   C2B22988   5.041  10.402   8.247
 1605POPC   C3B22989   5.002  10.221   7.834
 1605POPC   C4B22990   4.950  10.059   7.382
 1606POPC   NC322991  21.077  13.531   9.591
 1606POPC   PO422992  21.589  13.931   9.432
 1606POPC   GL122993  21.527  13.605   9.099
 1606POPC   GL222994  21.178  13.456   9.100
 1606POPC   C1A22995  21.370  13.634   8.647
 1606POPC   D2A22996  21.032  13.857   8.412
 1606POPC   C3A22997  21.174  13.937   7.990
 1606POPC   C4A22998  21.451  13.680   7.755
 1606POPC   C1B22999  20.876  13.497   8.767
 1606POPC   C2B23000  20.812  13.401   8.346
 1606POPC   C3B23001  21.035  13.427   7.978
 1606POPC   C4B23002  21.134  13.342   7.548
 1607POPC   NC323003  22.547   1.685   9.548
 1607POPC   PO423004  23.036   2.159   9.531
 1607POPC   GL123005  23.032   1.957   9.153
 1607POPC   GL223006  22.680   1.955   9.135
 1607POPC   C1A23007  22.952   2.020   8.704
 1607POPC   D2A23008  22.763   2.153   8.308
 1607POPC   C3A23009  23.111   2.147   7.992
 1607POPC   C4A23010  23.304   1.731   7.934
 1607POPC   C1B23011  22.471   1.863   8.758
 1607POPC   C2B23012  22.544   1.679   8.365
 1607POPC   C3B23013  22.751   1.751   7.982
 1607POPC   C4B23014  22.662   2.148   7.725
 1608POPC   NC323015  15.753  33.436   9.585
 1608POPC   PO423016  16.148  33.982   9.631
 1608POPC   GL123017  16.134  33.864   9.228
 1608POPC   GL223018  16.217  33.510   9.223
 1608POPC   C1A23019  16.124  34.037   8.819
 1608POPC   D2A23020  16.187  33.856   8.414
 1608POPC   C3A23021  16.443  34.030   8.076
 1608POPC   C4A23022  16.268  33.921   7.677
 1608POPC   C1B23023  15.927  33.560   8.864
 1608POPC   C2B23024  15.754  33.535   8.435
 1608POPC   C3B23025  15.914  33.627   8.036
 1608POPC   C4B23026  15.710  33.932   7.804
 1609POPC   NC323027  43.627  36.968   9.609
 1609POPC   PO423028  44.109  37.368   9.496
 1609POPC   GL123029  43.922  37.058   9.197
 1609POPC   GL223030  44.006  37.342   9.021
 1609POPC   C1A23031  43.625  36.733   8.958
 1609POPC   D2A23032  43.520  36.718   8.496
 1609POPC   C3A23033  43.783  36.606   8.092
 1609POPC   C4A23034  43.686  36.729   7.666
 1609POPC   C1B23035  44.103  37.129   8.690
 1609POPC   C2B23036  43.929  37.035   8.308
 1609POPC   C3B23037  43.984  37.074   7.872
 1609POPC   C4B23038  44.262  36.895   7.548
 1610POPC   NC323039  13.619  24.253   9.488
 1610POPC   PO423040  13.648  24.890   9.401
 1610POPC   GL123041  13.492  24.619   9.107
 1610POPC   GL223042  13.385  24.258   9.038
 1610POPC   C1A23043  13.650  24.612   8.710
 1610POPC   D2A23044  13.540  24.615   8.321
 1610POPC   C3A23045  13.819  24.530   8.018
 1610POPC   C4A23046  13.565  24.572   7.728
 1610POPC   C1B23047  13.786  24.142   8.807
 1610POPC   C2B23048  13.709  24.131   8.357
 1610POPC   C3B23049  13.593  24.082   7.930
 1610POPC   C4B23050  13.813  24.187   7.535
 1611POPC   NC323051  33.058   6.049   9.584
 1611POPC   PO423052  32.435   5.597   9.567
 1611POPC   GL123053  32.832   5.702   9.254
 1611POPC   GL223054  32.781   6.033   9.179
 1611POPC   C1A23055  33.090   5.871   8.837
 1611POPC   D2A23056  33.261   5.873   8.399
 1611POPC   C3A23057  33.032   5.611   8.119
 1611POPC   C4A23058  33.117   5.542   7.689
 1611POPC   C1B23059  32.720   6.276   8.842
 1611POPC   C2B23060  32.788   6.088   8.476
 1611POPC   C3B23061  32.830   6.063   8.053
 1611POPC   C4B23062  33.218   6.025   7.832
 1612POPC   NC323063   7.038  39.519   9.578
 1612POPC   PO423064   6.499  39.025   9.539
 1612POPC   GL123065   6.730  39.197   9.217
 1612POPC   GL223066   6.644  39.539   9.248
 1612POPC   C1A23067   6.844  39.284   8.782
 1612POPC   D2A23068   6.812  39.151   8.363
 1612POPC   C3A23069   7.013  39.101   7.933
 1612POPC   C4A23070   6.812  39.214   7.518
 1612POPC   C1B23071   6.448  39.613   8.863
 1612POPC   C2B23072   6.431  39.505   8.423
 1612POPC   C3B23073   6.611  39.449   7.998
 1612POPC   C4B23074   6.338  39.541   7.682
 1613POPC   NC323075  15.659   6.459   9.463
 1613POPC   PO423076  15.005   6.363   9.771
 1613POPC   GL123077  15.021   6.413   9.279
 1613POPC   GL223078  15.277   6.662   9.198
 1613POPC   C1A23079  14.899   6.552   8.802
 1613POPC   D2A23080  15.083   6.500   8.349
 1613POPC   C3A23081  14.937   6.396   7.900
 1613POPC   C4A23082  14.910   6.278   7.459
 1613POPC   C1B23083  15.369   6.792   8.781
 1613POPC   C2B23084  15.423   6.899   8.344
 1613POPC   C3B23085  15.306   6.769   7.922
 1613POPC   C4B23086  15.446   6.910   7.514
 1614POPC   NC323087  41.954  35.842   9.458
 1614POPC   PO423088  41.425  36.266   9.701
 1614POPC   GL123089  41.524  36.020   9.244
 1614POPC   GL223090  41.838  35.969   8.985
 1614POPC   C1A23091  41.399  36.162   8.800
 1614POPC   D2A23092  41.428  36.442   8.456
 1614POPC   C3A23093  41.250  36.248   8.070
 1614POPC   C4A23094  41.154  35.987   7.719
 1614POPC   C1B23095  41.962  36.399   8.811
 1614POPC   C2B23096  41.983  36.572   8.400
 1614POPC   C3B23097  41.771  36.317   8.112
 1614POPC   C4B23098  41.695  36.200   7.725
 1615POPC   NC323099   9.976   8.801   9.406
 1615POPC   PO423100   9.489   9.310   9.466
 1615POPC   GL123101   9.831   9.292   9.215
 1615POPC   GL223102   9.696   9.034   9.042
 1615POPC   C1A23103  10.065   9.325   8.812
 1615POPC   D2A23104   9.878   9.120   8.456
 1615POPC   C3A23105  10.000   9.240   8.051
 1615POPC   C4A23106   9.842   9.043   7.684
 1615POPC   C1B23107   9.706   8.701   8.774
 1615POPC   C2B23108  10.010   8.614   8.468
 1615POPC   C3B23109   9.943   8.711   8.056
 1615POPC   C4B23110   9.536   8.658   7.837
 1616POPC   NC323111   6.221  10.761   9.579
 1616POPC   PO423112   5.988  10.054   9.509
 1616POPC   GL123113   5.899  10.278   9.188
 1616POPC   GL223114   5.806  10.557   9.319
 1616POPC   C1A23115   5.694  10.254   8.795
 1616POPC   D2A23116   5.690  10.442   8.407
 1616POPC   C3A23117   5.935  10.300   8.101
 1616POPC   C4A23118   5.773  10.305   7.689
 1616POPC   C1B23119   5.801  10.735   8.913
 1616POPC   C2B23120   6.070  10.768   8.577
 1616POPC   C3B23121   5.836  10.902   8.245
 1616POPC   C4B23122   5.952  10.751   7.860
 1617POPC   NC323123  17.907  31.786   9.611
 1617POPC   PO423124  18.541  31.434   9.728
 1617POPC   GL123125  18.589  31.567   9.290
 1617POPC   GL223126  18.302  31.789   9.268
 1617POPC   C1A23127  18.489  31.625   8.804
 1617POPC   D2A23128  18.506  31.665   8.311
 1617POPC   C3A23129  18.482  31.322   7.994
 1617POPC   C4A23130  18.451  31.339   7.504
 1617POPC   C1B23131  17.996  31.799   8.944
 1617POPC   C2B23132  18.032  31.889   8.508
 1617POPC   C3B23133  18.097  31.923   8.100
 1617POPC   C4B23134  18.168  31.661   7.803
 1618POPC   NC323135  43.580   6.237   9.505
 1618POPC   PO423136  43.830   6.912   9.506
 1618POPC   GL123137  43.796   6.616   9.178
 1618POPC   GL223138  43.469   6.736   9.152
 1618POPC   C1A23139  43.997   6.437   8.789
 1618POPC   D2A23140  44.176   6.539   8.352
 1618POPC   C3A23141  43.950   6.353   8.012
 1618POPC   C4A23142  43.786   6.464   7.607
 1618POPC   C1B23143  43.472   6.499   8.770
 1618POPC   C2B23144  43.661   6.552   8.404
 1618POPC   C3B23145  43.532   6.660   8.036
 1618POPC   C4B23146  43.268   6.478   7.778
 1619POPC   NC323147   8.647  19.897   9.491
 1619POPC   PO423148   9.376  20.034   9.535
 1619POPC   GL123149   9.080  20.021   9.189
 1619POPC   GL223150   8.985  19.671   9.156
 1619POPC   C1A23151   8.760  20.209   8.871
 1619POPC   D2A23152   8.614  20.159   8.411
 1619POPC   C3A23153   8.954  20.109   8.083
 1619POPC   C4A23154   9.287  20.007   7.758
 1619POPC   C1B23155   9.016  19.790   8.720
 1619POPC   C2B23156   8.905  19.664   8.322
 1619POPC   C3B23157   8.999  19.612   7.896
 1619POPC   C4B23158   9.296  19.479   7.553
 1620POPC   NC323159  12.265   4.432   9.511
 1620POPC   PO423160  11.832   3.944   9.494
 1620POPC   GL123161  11.800   4.237   9.187
 1620POPC   GL223162  11.870   4.592   9.212
 1620POPC   C1A23163  11.792   4.325   8.773
 1620POPC   D2A23164  12.066   4.154   8.529
 1620POPC   C3A23165  12.035   4.152   8.097
 1620POPC   C4A23166  12.364   4.087   7.741
 1620POPC   C1B23167  12.224   4.571   8.864
 1620POPC   C2B23168  12.374   4.576   8.399
 1620POPC   C3B23169  12.283   4.552   7.917
 1620POPC   C4B23170  12.066   4.450   7.501
 1621POPC   NC323171  18.505  15.935   9.565
 1621POPC   PO423172  17.925  16.329   9.475
 1621POPC   GL123173  18.181  16.127   9.157
 1621POPC   GL223174  18.522  16.260   9.193
 1621POPC   C1A23175  18.140  15.816   8.811
 1621POPC   D2A23176  18.310  15.839   8.378
 1621POPC   C3A23177  18.085  15.834   7.954
 1621POPC   C4A23178  18.014  15.595   7.516
 1621POPC   C1B23179  18.586  16.070   8.780
 1621POPC   C2B23180  18.648  16.254   8.383
 1621POPC   C3B23181  18.585  16.049   8.011
 1621POPC   C4B23182  18.512  16.259   7.654
 1622POPC   NC323183  37.374   3.895   9.461
 1622POPC   PO423184  36.881   3.410   9.379
 1622POPC   GL123185  36.801   3.425   8.991
 1622POPC   GL223186  36.794   3.769   9.010
 1622POPC   C1A23187  36.862   3.543   8.565
 1622POPC   D2A23188  37.092   3.459   8.201
 1622POPC   C3A23189  36.822   3.375   7.815
 1622POPC   C4A23190  36.534   3.168   7.498
 1622POPC   C1B23191  37.133   3.948   8.809
 1622POPC   C2B23192  37.014   4.017   8.431
 1622POPC   C3B23193  36.737   3.818   8.122
 1622POPC   C4B23194  36.687   3.934   7.704
 1623POPC   NC323195  33.201  26.533   9.466
 1623POPC   PO423196  33.187  27.183   9.515
 1623POPC   GL123197  32.932  26.971   9.197
 1623POPC   GL223198  32.761  26.614   9.210
 1623POPC   C1A23199  32.905  27.132   8.788
 1623POPC   D2A23200  33.165  27.250   8.445
 1623POPC   C3A23201  33.072  27.058   8.032
 1623POPC   C4A23202  33.058  27.247   7.614
 1623POPC   C1B23203  32.986  26.613   8.812
 1623POPC   C2B23204  32.850  26.770   8.408
 1623POPC   C3B23205  32.847  26.597   7.984
 1623POPC   C4B23206  33.125  26.505   7.640
 1624POPC   NC323207   5.860   9.546   9.532
 1624POPC   PO423208   6.468   9.538   9.434
 1624POPC   GL123209   6.161   9.777   9.125
 1624POPC   GL223210   5.761   9.789   9.114
 1624POPC   C1A23211   6.030   9.861   8.679
 1624POPC   D2A23212   5.716   9.766   8.349
 1624POPC   C3A23213   5.856   9.811   7.932
 1624POPC   C4A23214   6.208  10.029   7.757
 1624POPC   C1B23215   5.462   9.807   8.812
 1624POPC   C2B23216   5.302  10.037   8.483
 1624POPC   C3B23217   5.448  10.125   8.077
 1624POPC   C4B23218   5.417   9.952   7.689
 1625POPC   NC323219  14.931  33.877   9.525
 1625POPC   PO423220  15.324  33.428   9.749
 1625POPC   GL123221  15.319  33.572   9.300
 1625POPC   GL223222  15.003  33.670   9.079
 1625POPC   C1A23223  15.420  33.541   8.854
 1625POPC   D2A23224  15.149  33.737   8.569
 1625POPC   C3A23225  15.321  33.834   8.182
 1625POPC   C4A23226  15.148  33.750   7.806
 1625POPC   C1B23227  14.742  33.932   8.835
 1625POPC   C2B23228  14.789  34.078   8.444
 1625POPC   C3B23229  14.792  34.076   8.022
 1625POPC   C4B23230  14.506  34.058   7.702
 1626POPC   NC323231   3.231  29.727   9.400
 1626POPC   PO423232   2.561  30.044   9.474
 1626POPC   GL123233   2.709  30.050   9.100
 1626POPC   GL223234   3.031  30.141   9.162
 1626POPC   C1A23235   2.789  29.843   8.728
 1626POPC   D2A23236   2.594  29.701   8.370
 1626POPC   C3A23237   2.782  29.851   8.004
 1626POPC   C4A23238   3.067  29.980   7.674
 1626POPC   C1B23239   3.143  30.238   8.741
 1626POPC   C2B23240   2.933  30.226   8.350
 1626POPC   C3B23241   3.161  30.359   8.004
 1626POPC   C4B23242   3.262  30.456   7.612
 1627POPC   NC323243  43.359  37.870   9.726
 1627POPC   PO423244  42.694  37.702   9.580
 1627POPC   GL123245  43.093  37.794   9.246
 1627POPC   GL223246  43.290  38.102   9.217
 1627POPC   C1A23247  43.199  37.541   8.856
 1627POPC   D2A23248  42.929  37.369   8.513
 1627POPC   C3A23249  43.094  37.440   8.098
 1627POPC   C4A23250  43.105  37.564   7.673
 1627POPC   C1B23251  43.398  38.011   8.799
 1627POPC   C2B23252  43.378  37.768   8.402
 1627POPC   C3B23253  43.256  37.936   7.982
 1627POPC   C4B23254  43.509  37.879   7.596
 1628POPC   NC323255  25.044  42.533   9.438
 1628POPC   PO423256  25.629  42.182   9.550
 1628POPC   GL123257  25.347  42.181   9.178
 1628POPC   GL223258  25.365  42.530   9.038
 1628POPC   C1A23259  25.300  42.132   8.715
 1628POPC   D2A23260  25.327  42.365   8.303
 1628POPC   C3A23261  25.267  42.135   7.891
 1628POPC   C4A23262  25.457  42.139   7.451
 1628POPC   C1B23263  25.001  42.551   8.728
 1628POPC   C2B23264  24.823  42.433   8.311
 1628POPC   C3B23265  24.928  42.512   7.882
 1628POPC   C4B23266  24.904  42.178   7.539
 1629POPC   NC323267  11.346   8.697   9.562
 1629POPC   PO423268  11.281   9.435   9.658
 1629POPC   GL123269  11.259   9.102   9.274
 1629POPC   GL223270  11.536   8.921   9.121
 1629POPC   C1A23271  11.122   9.002   8.826
 1629POPC   D2A23272  10.977   9.250   8.453
 1629POPC   C3A23273  11.025   9.021   8.073
 1629POPC   C4A23274  11.362   8.979   7.787
 1629POPC   C1B23275  11.580   8.737   8.714
 1629POPC   C2B23276  11.433   8.735   8.270
 1629POPC   C3B23277  11.608   8.560   7.891
 1629POPC   C4B23278  11.513   8.518   7.433
 1630POPC   NC323279   4.481  31.926   9.579
 1630POPC   PO423280   4.089  31.298   9.610
 1630POPC   GL123281   4.397  31.444   9.259
 1630POPC   GL223282   4.199  31.733   9.182
 1630POPC   C1A23283   4.359  31.495   8.758
 1630POPC   D2A23284   4.174  31.341   8.336
 1630POPC   C3A23285   4.402  31.347   7.905
 1630POPC   C4A23286   4.154  31.295   7.517
 1630POPC   C1B23287   4.077  31.958   8.814
 1630POPC   C2B23288   4.261  32.096   8.439
 1630POPC   C3B23289   4.366  31.782   8.149
 1630POPC   C4B23290   4.333  31.810   7.683
 1631POPC   NC323291  16.441  33.618   9.666
 1631POPC   PO423292  16.824  34.102   9.457
 1631POPC   GL123293  16.639  33.845   9.187
 1631POPC   GL223294  16.608  34.118   8.974
 1631POPC   C1A23295  16.474  33.663   8.805
 1631POPC   D2A23296  16.655  33.633   8.382
 1631POPC   C3A23297  16.418  33.514   8.009
 1631POPC   C4A23298  16.713  33.689   7.707
 1631POPC   C1B23299  16.580  34.171   8.564
 1631POPC   C2B23300  16.910  34.232   8.299
 1631POPC   C3B23301  16.964  34.079   7.908
 1631POPC   C4B23302  16.867  34.112   7.445
 1632POPC   NC323303  44.163  38.716   9.567
 1632POPC   PO423304  43.605  38.243   9.592
 1632POPC   GL123305  43.764  38.458   9.225
 1632POPC   GL223306  44.095  38.423   9.160
 1632POPC   C1A23307  43.666  38.453   8.785
 1632POPC   D2A23308  43.644  38.616   8.352
 1632POPC   C3A23309  43.885  38.428   7.987
 1632POPC   C4A23310  43.724  38.330   7.555
 1632POPC   C1B23311  44.029  38.788   8.882
 1632POPC   C2B23312  43.983  38.953   8.498
 1632POPC   C3B23313  43.951  38.929   8.073
 1632POPC   C4B23314  43.862  38.804   7.635
 1633POPC   NC323315  41.915  27.751   9.560
 1633POPC   PO423316  41.504  27.186   9.439
 1633POPC   GL123317  41.820  27.365   9.224
 1633POPC   GL223318  41.648  27.675   9.120
 1633POPC   C1A23319  41.950  27.336   8.817
 1633POPC   D2A23320  41.793  27.194   8.436
 1633POPC   C3A23321  41.739  27.456   8.066
 1633POPC   C4A23322  41.991  27.696   7.763
 1633POPC   C1B23323  41.434  27.439   8.782
 1633POPC   C2B23324  41.203  27.518   8.398
 1633POPC   C3B23325  41.240  27.452   7.934
 1633POPC   C4B23326  41.467  27.766   7.657
 1634POPC   NC323327   5.988   0.048   9.734
 1634POPC   PO423328   5.714   0.561   9.444
 1634POPC   GL123329   5.705   0.707   9.067
 1634POPC   GL223330   5.935   0.466   8.874
 1634POPC   C1A23331   5.481   0.666   8.718
 1634POPC   D2A23332   5.586   0.416   8.404
 1634POPC   C3A23333   5.907   0.599   8.166
 1634POPC   C4A23334   5.888   0.733   7.731
 1634POPC   C1B23335   6.202   0.141   8.645
 1634POPC   C2B23336   6.296   0.036   8.227
 1634POPC   C3B23337   6.229   0.350   7.880
 1634POPC   C4B23338   6.070   0.360   7.446
 1635POPC   NC323339  10.143   6.362   9.769
 1635POPC   PO423340  10.475   6.806   9.397
 1635POPC   GL123341  10.638   6.609   9.065
 1635POPC   GL223342  10.570   6.291   8.982
 1635POPC   C1A23343  10.877   6.537   8.683
 1635POPC   D2A23344  10.693   6.316   8.365
 1635POPC   C3A23345  10.817   6.495   8.031
 1635POPC   C4A23346  10.844   6.583   7.627
 1635POPC   C1B23347  10.330   6.539   8.651
 1635POPC   C2B23348  10.376   6.710   8.251
 1635POPC   C3B23349  10.362   6.622   7.831
 1635POPC   C4B23350  10.215   6.583   7.412
 1636POPC   NC323351  21.219   1.760   9.553
 1636POPC   PO423352  21.434   2.375   9.490
 1636POPC   GL123353  21.642   2.167   9.122
 1636POPC   GL223354  21.673   1.813   9.219
 1636POPC   C1A23355  21.554   2.208   8.637
 1636POPC   D2A23356  21.240   2.174   8.304
 1636POPC   C3A23357  21.372   2.067   7.874
 1636POPC   C4A23358  21.696   1.769   7.776
 1636POPC   C1B23359  21.456   1.741   8.837
 1636POPC   C2B23360  21.375   1.666   8.384
 1636POPC   C3B23361  21.192   1.603   7.956
 1636POPC   C4B23362  21.281   1.702   7.477
 1637POPC   NC323363  32.698  13.335   9.454
 1637POPC   PO423364  32.324  13.887   9.592
 1637POPC   GL123365  32.257  13.948   9.177
 1637POPC   GL223366  32.333  13.586   9.132
 1637POPC   C1A23367  32.181  13.868   8.743
 1637POPC   D2A23368  32.345  13.675   8.391
 1637POPC   C3A23369  32.324  13.752   7.963
 1637POPC   C4A23370  32.057  13.535   7.728
 1637POPC   C1B23371  32.537  13.399   8.792
 1637POPC   C2B23372  32.442  13.174   8.435
 1637POPC   C3B23373  32.353  13.224   8.023
 1637POPC   C4B23374  32.506  13.297   7.653
 1638POPC   NC323375  24.409  36.138   9.399
 1638POPC   PO423376  24.976  36.067   9.699
 1638POPC   GL123377  24.880  36.014   9.184
 1638POPC   GL223378  24.584  35.866   8.990
 1638POPC   C1A23379  24.849  36.208   8.730
 1638POPC   D2A23380  24.532  36.207   8.359
 1638POPC   C3A23381  24.597  35.940   7.992
 1638POPC   C4A23382  24.840  36.127   7.675
 1638POPC   C1B23383  24.244  36.118   8.779
 1638POPC   C2B23384  24.072  35.980   8.408
 1638POPC   C3B23385  24.096  36.139   8.024
 1638POPC   C4B23386  24.349  36.270   7.685
 1639POPC   NC323387   9.805  23.232   9.655
 1639POPC   PO423388  10.129  22.620   9.570
 1639POPC   GL123389   9.811  22.735   9.237
 1639POPC   GL223390   9.562  23.037   9.252
 1639POPC   C1A23391   9.777  22.920   8.822
 1639POPC   D2A23392   9.689  22.707   8.468
 1639POPC   C3A23393   9.915  22.764   8.138
 1639POPC   C4A23394   9.815  22.684   7.716
 1639POPC   C1B23395   9.339  23.197   8.840
 1639POPC   C2B23396   9.436  23.146   8.426
 1639POPC   C3B23397   9.517  23.075   8.009
 1639POPC   C4B23398   9.256  23.372   7.804
 1640POPC   NC323399  15.170  23.093   9.460
 1640POPC   PO423400  15.048  22.454   9.383
 1640POPC   GL123401  15.225  22.732   9.082
 1640POPC   GL223402  15.022  22.999   8.970
 1640POPC   C1A23403  15.515  22.944   8.798
 1640POPC   D2A23404  15.580  23.124   8.387
 1640POPC   C3A23405  15.312  22.992   8.024
 1640POPC   C4A23406  15.347  23.202   7.626
 1640POPC   C1B23407  14.936  22.638   8.660
 1640POPC   C2B23408  14.971  22.561   8.216
 1640POPC   C3B23409  14.880  22.653   7.772
 1640POPC   C4B23410  15.085  22.520   7.350
 1641POPC   NC323411   8.253  29.424   9.417
 1641POPC   PO423412   7.894  28.745   9.465
 1641POPC   GL123413   7.935  29.081   9.167
 1641POPC   GL223414   8.277  28.973   9.125
 1641POPC   C1A23415   7.859  29.388   8.806
 1641POPC   D2A23416   8.077  29.581   8.437
 1641POPC   C3A23417   8.054  29.384   8.012
 1641POPC   C4A23418   7.922  29.474   7.496
 1641POPC   C1B23419   8.280  29.117   8.718
 1641POPC   C2B23420   8.241  28.969   8.309
 1641POPC   C3B23421   8.453  29.036   7.951
 1641POPC   C4B23422   8.353  29.293   7.622
 1642POPC   NC323423  10.244  33.256   9.735
 1642POPC   PO423424  10.831  33.237   9.382
 1642POPC   GL123425  10.828  33.759   9.209
 1642POPC   GL223426  11.010  34.050   8.976
 1642POPC   C1A23427  10.517  34.090   8.999
 1642POPC   D2A23428  10.307  34.277   8.616
 1642POPC   C3A23429  10.344  34.043   8.222
 1642POPC   C4A23430  10.581  33.912   7.863
 1642POPC   C1B23431  10.848  33.940   8.563
 1642POPC   C2B23432  10.598  33.579   8.415
 1642POPC   C3B23433  10.405  33.439   8.049
 1642POPC   C4B23434  10.540  33.384   7.652
 1643POPC   NC323435   7.116  13.426   9.413
 1643POPC   PO423436   6.778  13.934   9.677
 1643POPC   GL123437   6.806  13.771   9.199
 1643POPC   GL223438   6.608  13.471   9.145
 1643POPC   C1A23439   6.856  13.638   8.725
 1643POPC   D2A23440   7.071  13.626   8.300
 1643POPC   C3A23441   6.819  13.620   7.928
 1643POPC   C4A23442   6.398  13.772   7.877
 1643POPC   C1B23443   6.386  13.324   8.805
 1643POPC   C2B23444   6.421  13.532   8.423
 1643POPC   C3B23445   6.445  13.299   8.098
 1643POPC   C4B23446   6.228  12.978   7.904
 1644POPC   NC323447  37.037   8.664   9.484
 1644POPC   PO423448  36.859   8.009   9.475
 1644POPC   GL123449  37.076   8.211   9.181
 1644POPC   GL223450  36.778   8.402   9.135
 1644POPC   C1A23451  37.061   8.065   8.766
 1644POPC   D2A23452  36.820   8.125   8.389
 1644POPC   C3A23453  37.045   8.055   8.001
 1644POPC   C4A23454  36.802   8.078   7.638
 1644POPC   C1B23455  36.985   8.588   8.800
 1644POPC   C2B23456  36.850   8.666   8.386
 1644POPC   C3B23457  36.775   8.489   8.002
 1644POPC   C4B23458  37.014   8.545   7.653
 1645POPC   NC323459  10.434  42.992   9.567
 1645POPC   PO423460  10.933  43.305   9.743
 1645POPC   GL123461  10.437  43.362   9.265
 1645POPC   GL223462  10.394  43.022   9.047
 1645POPC   C1A23463  10.435  43.473   8.806
 1645POPC   D2A23464  10.450  43.244   8.398
 1645POPC   C3A23465  10.474  43.443   8.003
 1645POPC   C4A23466  10.791  43.258   7.676
 1645POPC   C1B23467  10.232  42.729   8.682
 1645POPC   C2B23468  10.154  42.848   8.233
 1645POPC   C3B23469  10.469  42.950   7.934
 1645POPC   C4B23470  10.868  42.758   7.865
 1646POPC   NC323471  29.767  20.859   9.455
 1646POPC   PO423472  29.940  20.203   9.374
 1646POPC   GL123473  29.834  20.520   9.092
 1646POPC   GL223474  29.599  20.316   8.952
 1646POPC   C1A23475  29.680  20.776   8.721
 1646POPC   D2A23476  29.530  20.682   8.265
 1646POPC   C3A23477  29.649  20.986   7.956
 1646POPC   C4A23478  30.017  20.971   7.700
 1646POPC   C1B23479  29.899  20.292   8.655
 1646POPC   C2B23480  29.828  20.138   8.293
 1646POPC   C3B23481  29.955  20.225   7.937
 1646POPC   C4B23482  29.786  20.536   7.739
 1647POPC   NC323483  12.898  28.023   9.529
 1647POPC   PO423484  12.706  27.284   9.450
 1647POPC   GL123485  12.983  27.433   9.139
 1647POPC   GL223486  12.858  27.750   9.119
 1647POPC   C1A23487  13.116  27.630   8.727
 1647POPC   D2A23488  12.919  27.822   8.374
 1647POPC   C3A23489  13.110  27.636   8.060
 1647POPC   C4A23490  13.090  27.429   7.674
 1647POPC   C1B23491  12.602  27.900   8.777
 1647POPC   C2B23492  12.421  27.660   8.403
 1647POPC   C3B23493  12.609  27.517   8.025
 1647POPC   C4B23494  12.760  27.805   7.728
 1648POPC   NC323495  15.967   3.240   9.401
 1648POPC   PO423496  15.619   3.683   9.655
 1648POPC   GL123497  15.780   3.707   9.207
 1648POPC   GL223498  16.158   3.656   9.168
 1648POPC   C1A23499  15.831   3.558   8.768
 1648POPC   D2A23500  15.825   3.267   8.456
 1648POPC   C3A23501  15.759   3.456   8.107
 1648POPC   C4A23502  15.767   3.642   7.755
 1648POPC   C1B23503  16.219   3.892   8.788
 1648POPC   C2B23504  16.248   3.721   8.399
 1648POPC   C3B23505  16.297   3.439   8.055
 1648POPC   C4B23506  16.249   3.505   7.616
 1649POPC   NC323507  33.560  11.126   9.683
 1649POPC   PO423508  33.837  11.757   9.437
 1649POPC   GL123509  33.809  11.395   9.144
 1649POPC   GL223510  33.555  11.109   9.170
 1649POPC   C1A23511  33.856  11.478   8.698
 1649POPC   D2A23512  33.940  11.226   8.333
 1649POPC   C3A23513  33.945  11.467   7.993
 1649POPC   C4A23514  33.754  11.603   7.645
 1649POPC   C1B23515  33.603  11.044   8.714
 1649POPC   C2B23516  33.445  11.340   8.378
 1649POPC   C3B23517  33.426  11.285   7.953
 1649POPC   C4B23518  33.719  11.068   7.758
 1650POPC   NC323519  21.193  38.946   9.529
 1650POPC   PO423520  21.483  39.574   9.636
 1650POPC   GL123521  21.353  39.385   9.231
 1650POPC   GL223522  21.532  39.076   9.119
 1650POPC   C1A23523  21.383  39.398   8.758
 1650POPC   D2A23524  21.306  39.609   8.347
 1650POPC   C3A23525  21.312  39.428   7.916
 1650POPC   C4A23526  21.491  39.690   7.547
 1650POPC   C1B23527  21.427  38.827   8.774
 1650POPC   C2B23528  21.258  38.972   8.382
 1650POPC   C3B23529  21.445  38.910   8.001
 1650POPC   C4B23530  21.708  39.127   7.762
 1651POPC   NC323531   8.839   7.447   9.790
 1651POPC   PO423532   9.484   7.699   9.509
 1651POPC   GL123533   9.219   7.624   9.171
 1651POPC   GL223534   9.027   7.296   9.057
 1651POPC   C1A23535   9.327   7.585   8.755
 1651POPC   D2A23536   8.945   7.436   8.548
 1651POPC   C3A23537   8.930   7.345   8.137
 1651POPC   C4A23538   9.002   7.625   7.776
 1651POPC   C1B23539   8.654   7.099   8.783
 1651POPC   C2B23540   8.532   7.066   8.362
 1651POPC   C3B23541   8.606   6.978   7.972
 1651POPC   C4B23542   8.879   7.100   7.666
 1652POPC   NC323543  29.709   3.616   9.411
 1652POPC   PO423544  30.276   3.273   9.481
 1652POPC   GL123545  30.024   3.258   9.117
 1652POPC   GL223546  30.092   3.607   9.096
 1652POPC   C1A23547  29.798   3.412   8.733
 1652POPC   D2A23548  29.677   3.574   8.336
 1652POPC   C3A23549  29.799   3.387   7.954
 1652POPC   C4A23550  29.931   3.359   7.513
 1652POPC   C1B23551  30.066   3.853   8.773
 1652POPC   C2B23552  30.055   4.018   8.399
 1652POPC   C3B23553  29.997   3.893   8.017
 1652POPC   C4B23554  30.157   3.816   7.664
 1653POPC   NC323555  15.397  24.135   9.419
 1653POPC   PO423556  15.466  23.478   9.457
 1653POPC   GL123557  15.169  23.547   9.142
 1653POPC   GL223558  15.088  23.897   9.094
 1653POPC   C1A23559  14.947  23.460   8.767
 1653POPC   D2A23560  14.866  23.308   8.334
 1653POPC   C3A23561  15.159  23.474   8.016
 1653POPC   C4A23562  15.028  23.592   7.572
 1653POPC   C1B23563  15.313  23.965   8.747
 1653POPC   C2B23564  15.144  23.793   8.413
 1653POPC   C3B23565  14.949  23.924   8.051
 1653POPC   C4B23566  15.094  24.091   7.689
 1654POPC   NC323567   2.531  28.828   9.469
 1654POPC   PO423568   3.084  29.271   9.447
 1654POPC   GL123569   2.858  29.097   9.161
 1654POPC   GL223570   2.515  29.185   9.096
 1654POPC   C1A23571   2.845  29.305   8.755
 1654POPC   D2A23572   2.581  29.195   8.414
 1654POPC   C3A23573   2.728  29.331   8.030
 1654POPC   C4A23574   2.938  29.122   7.676
 1654POPC   C1B23575   2.617  28.816   8.803
 1654POPC   C2B23576   2.498  28.691   8.395
 1654POPC   C3B23577   2.619  28.846   7.986
 1654POPC   C4B23578   2.436  29.155   7.646
 1655POPC   NC323579  24.934  35.646   9.521
 1655POPC   PO423580  25.535  35.812   9.516
 1655POPC   GL123581  25.393  35.555   9.204
 1655POPC   GL223582  25.665  35.621   8.997
 1655POPC   C1A23583  25.116  35.341   8.914
 1655POPC   D2A23584  25.110  35.054   8.562
 1655POPC   C3A23585  25.075  35.266   8.144
 1655POPC   C4A23586  24.978  35.185   7.692
 1655POPC   C1B23587  25.679  35.274   8.734
 1655POPC   C2B23588  25.575  35.086   8.344
 1655POPC   C3B23589  25.481  35.027   7.920
 1655POPC   C4B23590  25.441  35.388   7.691
 1656POPC   NC323591   3.806  24.278   9.351
 1656POPC   PO423592   3.769  23.628   9.605
 1656POPC   GL123593   3.601  23.823   9.247
 1656POPC   GL223594   3.955  23.817   9.147
 1656POPC   C1A23595   3.361  23.939   8.857
 1656POPC   D2A23596   3.184  23.868   8.416
 1656POPC   C3A23597   3.378  23.820   8.014
 1656POPC   C4A23598   3.318  24.040   7.633
 1656POPC   C1B23599   3.795  23.689   8.743
 1656POPC   C2B23600   3.859  23.654   8.303
 1656POPC   C3B23601   3.764  23.494   7.890
 1656POPC   C4B23602   3.828  23.856   7.665
 1657POPC   NC323603  25.490   8.695   9.488
 1657POPC   PO423604  25.106   8.115   9.492
 1657POPC   GL123605  25.363   8.287   9.139
 1657POPC   GL223606  25.628   8.543   9.021
 1657POPC   C1A23607  25.433   8.073   8.740
 1657POPC   D2A23608  25.173   7.955   8.381
 1657POPC   C3A23609  25.180   8.000   7.920
 1657POPC   C4A23610  25.384   7.981   7.493
 1657POPC   C1B23611  25.709   8.482   8.574
 1657POPC   C2B23612  25.682   8.132   8.283
 1657POPC   C3B23613  25.658   8.172   7.873
 1657POPC   C4B23614  25.403   8.476   7.645
 1658POPC   NC323615  10.754  20.397   9.617
 1658POPC   PO423616  10.613  21.011   9.334
 1658POPC   GL123617  10.500  20.640   9.206
 1658POPC   GL223618  10.853  20.574   9.128
 1658POPC   C1A23619  10.349  20.502   8.810
 1658POPC   D2A23620  10.518  20.513   8.383
 1658POPC   C3A23621  10.248  20.440   8.023
 1658POPC   C4A23622  10.319  20.572   7.595
 1658POPC   C1B23623  10.827  20.801   8.712
 1658POPC   C2B23624  10.971  20.743   8.275
 1658POPC   C3B23625  10.705  20.692   7.909
 1658POPC   C4B23626  10.774  20.732   7.454
 1659POPC   NC323627   5.423   5.181   9.294
 1659POPC   PO423628   4.846   5.106   9.620
 1659POPC   GL123629   4.783   4.907   9.236
 1659POPC   GL223630   5.115   4.812   9.159
 1659POPC   C1A23631   4.818   5.066   8.824
 1659POPC   D2A23632   5.011   5.246   8.452
 1659POPC   C3A23633   4.877   5.152   8.033
 1659POPC   C4A23634   4.854   4.931   7.657
 1659POPC   C1B23635   5.275   4.733   8.769
 1659POPC   C2B23636   5.334   4.839   8.350
 1659POPC   C3B23637   5.156   4.671   8.010
 1659POPC   C4B23638   5.371   4.692   7.659
 1660POPC   NC323639  36.156  18.415   9.415
 1660POPC   PO423640  35.796  17.825   9.371
 1660POPC   GL123641  35.916  18.123   9.051
 1660POPC   GL223642  36.298  18.188   9.003
 1660POPC   C1A23643  35.874  18.307   8.656
 1660POPC   D2A23644  36.071  18.524   8.318
 1660POPC   C3A23645  36.086  18.301   7.934
 1660POPC   C4A23646  36.389  18.010   7.816
 1660POPC   C1B23647  36.363  18.550   8.749
 1660POPC   C2B23648  36.636  18.654   8.401
 1660POPC   C3B23649  36.736  18.518   7.991
 1660POPC   C4B23650  36.509  18.474   7.633
 1661POPC   NC323651  34.476   4.665   9.494
 1661POPC   PO423652  34.975   4.122   9.456
 1661POPC   GL123653  34.801   4.399   9.158
 1661POPC   GL223654  34.495   4.275   9.143
 1661POPC   C1A23655  34.676   4.388   8.707
 1661POPC   D2A23656  34.883   4.226   8.374
 1661POPC   C3A23657  34.631   4.381   8.059
 1661POPC   C4A23658  34.749   4.647   7.790
 1661POPC   C1B23659  34.289   4.021   8.827
 1661POPC   C2B23660  34.388   4.083   8.400
 1661POPC   C3B23661  34.255   4.045   7.970
 1661POPC   C4B23662  34.577   4.093   7.617
 1662POPC   NC323663   5.038   4.658   9.628
 1662POPC   PO423664   5.505   4.171   9.710
 1662POPC   GL123665   5.313   4.349   9.300
 1662POPC   GL223666   4.937   4.321   9.242
 1662POPC   C1A23667   5.264   4.201   8.858
 1662POPC   D2A23668   5.201   4.347   8.441
 1662POPC   C3A23669   5.005   4.155   8.100
 1662POPC   C4A23670   5.171   4.216   7.722
 1662POPC   C1B23671   4.825   4.532   8.865
 1662POPC   C2B23672   4.837   4.718   8.454
 1662POPC   C3B23673   4.639   4.706   8.075
 1662POPC   C4B23674   4.740   4.453   7.756
 1663POPC   NC323675  29.606  32.834   9.891
 1663POPC   PO423676  29.931  33.332   9.572
 1663POPC   GL123677  30.054  33.124   9.205
 1663POPC   GL223678  29.832  32.860   9.262
 1663POPC   C1A23679  30.286  33.231   8.827
 1663POPC   D2A23680  30.240  33.050   8.418
 1663POPC   C3A23681  30.425  33.157   8.033
 1663POPC   C4A23682  30.280  33.196   7.564
 1663POPC   C1B23683  29.905  32.858   8.786
 1663POPC   C2B23684  29.915  32.668   8.345
 1663POPC   C3B23685  29.804  32.812   7.894
 1663POPC   C4B23686  29.442  32.810   7.568
 1664POPC   NC323687  10.184  13.956   9.437
 1664POPC   PO423688  10.662  13.456   9.531
 1664POPC   GL123689  10.479  13.574   9.115
 1664POPC   GL223690  10.530  13.905   9.041
 1664POPC   C1A23691  10.274  13.348   8.758
 1664POPC   D2A23692  10.276  13.104   8.369
 1664POPC   C3A23693  10.444  13.290   8.010
 1664POPC   C4A23694  10.339  13.528   7.672
 1664POPC   C1B23695  10.541  13.775   8.623
 1664POPC   C2B23696  10.461  13.789   8.174
 1664POPC   C3B23697  10.535  13.979   7.770
 1664POPC   C4B23698  10.199  14.062   7.504
 1665POPC   NC323699  15.400  31.328   9.510
 1665POPC   PO423700  14.797  31.702   9.579
 1665POPC   GL123701  15.109  31.699   9.246
 1665POPC   GL223702  15.121  31.378   9.094
 1665POPC   C1A23703  15.054  31.802   8.814
 1665POPC   D2A23704  15.248  31.848   8.394
 1665POPC   C3A23705  15.046  31.736   7.995
 1665POPC   C4A23706  15.107  31.696   7.551
 1665POPC   C1B23707  15.323  31.403   8.666
 1665POPC   C2B23708  15.267  31.334   8.219
 1665POPC   C3B23709  15.412  31.361   7.781
 1665POPC   C4B23710  15.435  31.361   7.315
 1666POPC   NC323711   0.734  31.891   9.385
 1666POPC   PO423712   1.250  32.306   9.521
 1666POPC   GL123713   1.295  32.013   9.197
 1666POPC   GL223714   1.281  32.281   8.971
 1666POPC   C1A23715   1.482  31.826   8.794
 1666POPC   D2A23716   1.429  31.998   8.355
 1666POPC   C3A23717   1.463  31.844   7.901
 1666POPC   C4A23718   1.324  32.025   7.493
 1666POPC   C1B23719   1.000  32.013   8.782
 1666POPC   C2B23720   0.920  31.922   8.375
 1666POPC   C3B23721   1.033  32.120   8.011
 1666POPC   C4B23722   0.872  31.934   7.672
 1667POPC   NC323723   2.321  17.098   9.450
 1667POPC   PO423724   1.792  17.483   9.514
 1667POPC   GL123725   1.903  17.597   9.146
 1667POPC   GL223726   2.033  17.282   9.046
 1667POPC   C1A23727   1.785  17.752   8.750
 1667POPC   D2A23728   1.857  17.542   8.332
 1667POPC   C3A23729   1.819  17.781   7.926
 1667POPC   C4A23730   2.035  17.801   7.506
 1667POPC   C1B23731   2.331  17.163   8.715
 1667POPC   C2B23732   2.447  17.232   8.273
 1667POPC   C3B23733   2.092  17.186   7.981
 1667POPC   C4B23734   1.992  17.308   7.551
 1668POPC   NC323735  15.948  16.403   9.785
 1668POPC   PO423736  15.969  17.050   9.423
 1668POPC   GL123737  15.940  16.774   9.138
 1668POPC   GL223738  16.158  16.515   9.286
 1668POPC   C1A23739  15.817  16.792   8.712
 1668POPC   D2A23740  16.101  16.921   8.365
 1668POPC   C3A23741  15.871  16.932   7.956
 1668POPC   C4A23742  15.831  16.853   7.505
 1668POPC   C1B23743  16.201  16.458   8.809
 1668POPC   C2B23744  15.967  16.415   8.400
 1668POPC   C3B23745  15.784  16.438   7.975
 1668POPC   C4B23746  16.053  16.385   7.614
 1669POPC   NC323747  31.080  43.220   9.470
 1669POPC   PO423748  31.719  43.045   9.432
 1669POPC   GL123749  31.430  43.062   9.128
 1669POPC   GL223750  31.204  42.797   9.168
 1669POPC   C1A23751  31.442  43.218   8.738
 1669POPC   D2A23752  31.658  43.081   8.398
 1669POPC   C3A23753  31.427  43.107   8.032
 1669POPC   C4A23754  31.635  43.219   7.679
 1669POPC   C1B23755  31.329  42.687   8.756
 1669POPC   C2B23756  31.190  42.729   8.323
 1669POPC   C3B23757  31.256  42.639   7.892
 1669POPC   C4B23758  31.478  42.774   7.572
 1670POPC   NC323759   2.197  21.129   9.451
 1670POPC   PO423760   1.740  21.641   9.636
 1670POPC   GL123761   1.843  21.526   9.229
 1670POPC   GL223762   1.885  21.830   9.155
 1670POPC   C1A23763   1.951  21.519   8.757
 1670POPC   D2A23764   1.784  21.269   8.409
 1670POPC   C3A23765   2.099  21.298   8.080
 1670POPC   C4A23766   2.055  21.493   7.658
 1670POPC   C1B23767   1.670  21.966   8.792
 1670POPC   C2B23768   1.671  21.796   8.427
 1670POPC   C3B23769   1.777  21.679   8.046
 1670POPC   C4B23770   1.727  21.916   7.680
 1671POPC   NC323771  12.355  25.492   9.518
 1671POPC   PO423772  11.840  25.942   9.389
 1671POPC   GL123773  12.253  25.980   9.201
 1671POPC   GL223774  12.399  26.344   9.309
 1671POPC   C1A23775  12.304  25.857   8.767
 1671POPC   D2A23776  12.516  25.892   8.358
 1671POPC   C3A23777  12.233  25.857   8.028
 1671POPC   C4A23778  11.965  26.076   7.768
 1671POPC   C1B23779  12.485  26.315   8.888
 1671POPC   C2B23780  12.531  26.384   8.453
 1671POPC   C3B23781  12.292  26.386   8.089
 1671POPC   C4B23782  12.459  26.223   7.736
 1672POPC   NC323783   6.150   6.861   9.496
 1672POPC   PO423784   5.698   6.378   9.361
 1672POPC   GL123785   5.935   6.306   9.029
 1672POPC   GL223786   6.251   6.466   9.102
 1672POPC   C1A23787   5.939   6.529   8.641
 1672POPC   D2A23788   5.910   6.955   8.500
 1672POPC   C3A23789   5.788   6.903   8.103
 1672POPC   C4A23790   5.810   6.573   7.812
 1672POPC   C1B23791   6.373   6.300   8.701
 1672POPC   C2B23792   6.278   6.359   8.212
 1672POPC   C3B23793   6.301   6.536   7.758
 1672POPC   C4B23794   6.075   6.918   7.546
 1673POPC   NC323795  14.483  44.455   9.410
 1673POPC   PO423796  14.458  43.761   9.449
 1673POPC   GL123797  14.395  44.037   9.120
 1673POPC   GL223798  14.725  44.192   9.047
 1673POPC   C1A23799  14.341  43.904   8.734
 1673POPC   D2A23800  14.266  43.613   8.418
 1673POPC   C3A23801  14.492  43.635   8.048
 1673POPC   C4A23802  14.274  43.587   7.668
 1673POPC   C1B23803  14.604  44.323   8.634
 1673POPC   C2B23804  14.263  44.197   8.319
 1673POPC   C3B23805  14.248  44.048   7.890
 1673POPC   C4B23806  14.427  44.247   7.487
 1674POPC   NC323807  12.917  19.677   9.643
 1674POPC   PO423808  12.941  20.273   9.456
 1674POPC   GL123809  12.990  19.945   9.186
 1674POPC   GL223810  12.647  19.820   9.216
 1674POPC   C1A23811  12.974  19.986   8.761
 1674POPC   D2A23812  12.731  20.226   8.497
 1674POPC   C3A23813  12.836  20.070   8.124
 1674POPC   C4A23814  13.035  19.883   7.775
 1674POPC   C1B23815  12.484  19.897   8.797
 1674POPC   C2B23816  12.607  19.723   8.429
 1674POPC   C3B23817  12.678  19.593   8.036
 1674POPC   C4B23818  12.530  19.844   7.727
 1675POPC   NC323819   4.285  41.291   9.509
 1675POPC   PO423820   4.186  42.059   9.511
 1675POPC   GL123821   4.149  41.734   9.162
 1675POPC   GL223822   4.389  41.457   9.049
 1675POPC   C1A23823   4.062  41.683   8.711
 1675POPC   D2A23824   4.020  41.410   8.369
 1675POPC   C3A23825   4.232  41.546   7.978
 1675POPC   C4A23826   4.270  41.766   7.564
 1675POPC   C1B23827   4.589  41.692   8.728
 1675POPC   C2B23828   4.726  41.680   8.284
 1675POPC   C3B23829   4.674  41.809   7.876
 1675POPC   C4B23830   4.684  41.455   7.596
 1676POPC   NC323831  31.909   2.259   9.433
 1676POPC   PO423832  32.597   1.880   9.356
 1676POPC   GL123833  32.430   1.845   8.981
 1676POPC   GL223834  32.206   2.076   9.073
 1676POPC   C1A23835  32.087   1.772   8.695
 1676POPC   D2A23836  32.005   1.971   8.323
 1676POPC   C3A23837  32.284   1.880   8.041
 1676POPC   C4A23838  32.209   1.844   7.638
 1676POPC   C1B23839  31.989   2.293   8.762
 1676POPC   C2B23840  31.945   2.467   8.350
 1676POPC   C3B23841  32.046   2.345   7.918
 1676POPC   C4B23842  32.133   2.309   7.475
 1677POPC   NC323843  30.757   9.258   9.451
 1677POPC   PO423844  30.576   8.659   9.473
 1677POPC   GL123845  30.538   8.923   9.133
 1677POPC   GL223846  30.916   8.962   9.067
 1677POPC   C1A23847  30.515   9.192   8.799
 1677POPC   D2A23848  30.675   9.303   8.428
 1677POPC   C3A23849  30.573   9.144   8.052
 1677POPC   C4A23850  30.854   8.907   7.807
 1677POPC   C1B23851  30.772   8.643   8.785
 1677POPC   C2B23852  30.692   8.738   8.374
 1677POPC   C3B23853  30.464   8.617   8.070
 1677POPC   C4B23854  30.583   8.505   7.690
 1678POPC   NC323855   7.663   1.617   9.475
 1678POPC   PO423856   7.496   2.190   9.819
 1678POPC   GL123857   7.457   2.093   9.350
 1678POPC   GL223858   7.682   2.243   9.152
 1678POPC   C1A23859   7.189   2.144   8.979
 1678POPC   D2A23860   7.142   2.123   8.528
 1678POPC   C3A23861   7.119   2.003   8.100
 1678POPC   C4A23862   7.408   2.128   7.789
 1678POPC   C1B23863   7.594   1.949   8.765
 1678POPC   C2B23864   7.557   1.792   8.311
 1678POPC   C3B23865   7.778   1.773   7.930
 1678POPC   C4B23866   7.698   1.802   7.484
 1679POPC   NC323867  13.671   3.227   9.632
 1679POPC   PO423868  13.360   3.798   9.504
 1679POPC   GL123869  13.549   3.598   9.150
 1679POPC   GL223870  13.516   3.214   9.148
 1679POPC   C1A23871  13.655   3.818   8.753
 1679POPC   D2A23872  13.889   3.949   8.373
 1679POPC   C3A23873  13.580   3.945   8.047
 1679POPC   C4A23874  13.398   3.759   7.696
 1679POPC   C1B23875  13.735   3.294   8.782
 1679POPC   C2B23876  13.745   3.447   8.405
 1679POPC   C3B23877  13.662   3.387   7.997
 1679POPC   C4B23878  13.904   3.654   7.754
 1680POPC   NC323879   6.412  15.941   9.705
 1680POPC   PO423880   6.979  16.023   9.498
 1680POPC   GL123881   6.664  15.972   9.184
 1680POPC   GL223882   6.391  16.236   9.241
 1680POPC   C1A23883   6.683  15.766   8.753
 1680POPC   D2A23884   6.635  15.502   8.374
 1680POPC   C3A23885   6.795  15.684   7.990
 1680POPC   C4A23886   6.604  15.675   7.596
 1680POPC   C1B23887   6.513  16.264   8.781
 1680POPC   C2B23888   6.562  16.138   8.327
 1680POPC   C3B23889   6.574  16.359   7.912
 1680POPC   C4B23890   6.621  16.197   7.501
 1681POPC   NC323891  14.709   0.948   9.503
 1681POPC   PO423892  15.348   1.177   9.703
 1681POPC   GL123893  15.290   1.391   9.268
 1681POPC   GL223894  14.926   1.337   9.211
 1681POPC   C1A23895  15.188   1.372   8.771
 1681POPC   D2A23896  15.142   0.986   8.476
 1681POPC   C3A23897  15.284   1.025   8.034
 1681POPC   C4A23898  15.497   1.318   7.784
 1681POPC   C1B23899  14.748   1.093   8.855
 1681POPC   C2B23900  14.705   1.264   8.468
 1681POPC   C3B23901  15.002   1.425   8.179
 1681POPC   C4B23902  14.935   1.294   7.763
 1682POPC   NC323903  40.150  30.545   9.472
 1682POPC   PO423904  39.788  31.100   9.625
 1682POPC   GL123905  39.940  30.928   9.204
 1682POPC   GL223906  39.854  30.590   9.077
 1682POPC   C1A23907  40.200  30.846   8.810
 1682POPC   D2A23908  40.430  30.691   8.437
 1682POPC   C3A23909  40.262  30.796   8.032
 1682POPC   C4A23910  40.127  30.782   7.613
 1682POPC   C1B23911  39.564  30.367   8.843
 1682POPC   C2B23912  39.501  30.357   8.435
 1682POPC   C3B23913  39.800  30.446   8.128
 1682POPC   C4B23914  39.729  30.500   7.711
 1683POPC   NC323915  40.387  12.604   9.366
 1683POPC   PO423916  41.026  12.796   9.456
 1683POPC   GL123917  40.800  12.858   9.099
 1683POPC   GL223918  40.759  12.500   9.013
 1683POPC   C1A23919  40.753  13.040   8.685
 1683POPC   D2A23920  40.914  12.925   8.257
 1683POPC   C3A23921  40.693  12.892   7.848
 1683POPC   C4A23922  40.683  13.137   7.466
 1683POPC   C1B23923  41.081  12.606   8.702
 1683POPC   C2B23924  41.255  12.513   8.289
 1683POPC   C3B23925  41.169  12.681   7.875
 1683POPC   C4B23926  40.939  12.663   7.457
 1684POPC   NC323927  40.001  41.116   9.485
 1684POPC   PO423928  39.782  40.445   9.570
 1684POPC   GL123929  40.015  40.585   9.182
 1684POPC   GL223930  39.996  40.954   9.013
 1684POPC   C1A23931  40.262  40.579   8.815
 1684POPC   D2A23932  40.043  40.789   8.503
 1684POPC   C3A23933  39.946  40.565   8.164
 1684POPC   C4A23934  40.189  40.635   7.806
 1684POPC   C1B23935  39.821  41.250   8.689
 1684POPC   C2B23936  39.829  41.199   8.219
 1684POPC   C3B23937  40.057  41.130   7.821
 1684POPC   C4B23938  40.120  41.106   7.357
 1685POPC   NC323939  35.841  20.303   9.489
 1685POPC   PO423940  35.811  21.011   9.547
 1685POPC   GL123941  35.933  20.720   9.193
 1685POPC   GL223942  36.282  20.565   9.154
 1685POPC   C1A23943  36.074  20.784   8.756
 1685POPC   D2A23944  36.274  20.883   8.377
 1685POPC   C3A23945  36.122  20.800   7.963
 1685POPC   C4A23946  36.189  20.643   7.518
 1685POPC   C1B23947  36.322  20.362   8.731
 1685POPC   C2B23948  36.146  20.399   8.311
 1685POPC   C3B23949  36.004  20.319   7.888
 1685POPC   C4B23950  36.291  20.144   7.578
 1686POPC   NC323951  21.776  32.226   9.536
 1686POPC   PO423952  22.468  32.309   9.614
 1686POPC   GL123953  22.208  32.306   9.212
 1686POPC   GL223954  21.979  31.991   9.147
 1686POPC   C1A23955  22.115  32.428   8.749
 1686POPC   D2A23956  21.999  32.200   8.359
 1686POPC   C3A23957  22.254  32.134   8.034
 1686POPC   C4A23958  22.073  32.266   7.673
 1686POPC   C1B23959  22.063  31.867   8.737
 1686POPC   C2B23960  22.122  31.713   8.296
 1686POPC   C3B23961  21.841  31.841   7.927
 1686POPC   C4B23962  21.828  31.905   7.432
 1687POPC   NC323963   6.108  36.321   9.488
 1687POPC   PO423964   5.575  35.945   9.518
 1687POPC   GL123965   5.769  36.050   9.142
 1687POPC   GL223966   6.101  35.987   9.107
 1687POPC   C1A23967   5.665  36.013   8.712
 1687POPC   D2A23968   5.725  36.135   8.283
 1687POPC   C3A23969   5.530  35.957   7.909
 1687POPC   C4A23970   5.526  36.317   7.539
 1687POPC   C1B23971   6.307  36.121   8.760
 1687POPC   C2B23972   6.264  36.221   8.343
 1687POPC   C3B23973   6.367  36.005   7.990
 1687POPC   C4B23974   5.983  36.142   7.807
 1688POPC   NC323975   1.050  42.036   9.462
 1688POPC   PO423976   1.462  42.540   9.731
 1688POPC   GL123977   1.407  42.356   9.294
 1688POPC   GL223978   1.076  42.447   9.151
 1688POPC   C1A23979   1.513  42.384   8.826
 1688POPC   D2A23980   1.454  42.203   8.419
 1688POPC   C3A23981   1.499  42.463   8.059
 1688POPC   C4A23982   1.307  42.407   7.650
 1688POPC   C1B23983   1.030  42.213   8.766
 1688POPC   C2B23984   0.943  42.365   8.345
 1688POPC   C3B23985   0.891  42.286   7.925
 1688POPC   C4B23986   0.831  42.570   7.550
 1689POPC   NC323987  27.293  19.075   9.590
 1689POPC   PO423988  27.970  19.307   9.434
 1689POPC   GL123989  27.670  19.059   9.116
 1689POPC   GL223990  27.311  18.908   9.121
 1689POPC   C1A23991  27.602  18.867   8.698
 1689POPC   D2A23992  27.648  18.959   8.270
 1689POPC   C3A23993  27.361  18.792   7.980
 1689POPC   C4A23994  27.601  18.854   7.658
 1689POPC   C1B23995  27.263  19.238   8.814
 1689POPC   C2B23996  27.428  19.392   8.407
 1689POPC   C3B23997  27.348  19.434   7.964
 1689POPC   C4B23998  27.274  19.506   7.518
 1690POPC   NC323999  22.366  11.131  10.015
 1690POPC   PO424000  22.134  11.501   9.530
 1690POPC   GL124001  22.265  11.313   9.136
 1690POPC   GL224002  21.944  11.187   9.061
 1690POPC   C1A24003  22.305  11.265   8.665
 1690POPC   D2A24004  22.183  11.366   8.229
 1690POPC   C3A24005  22.411  11.455   7.888
 1690POPC   C4A24006  22.679  11.780   7.709
 1690POPC   C1B24007  22.010  10.865   8.789
 1690POPC   C2B24008  22.158  10.850   8.375
 1690POPC   C3B24009  22.107  10.959   7.937
 1690POPC   C4B24010  22.389  10.936   7.609
 1691POPC   NC324011  32.320   1.504   9.410
 1691POPC   PO424012  32.042   0.935   9.569
 1691POPC   GL124013  32.174   1.084   9.145
 1691POPC   GL224014  32.540   1.090   9.096
 1691POPC   C1A24015  32.251   0.883   8.716
 1691POPC   D2A24016  32.023   0.894   8.327
 1691POPC   C3A24017  32.276   0.990   7.973
 1691POPC   C4A24018  32.300   1.055   7.516
 1691POPC   C1B24019  32.418   1.366   8.776
 1691POPC   C2B24020  32.301   1.439   8.340
 1691POPC   C3B24021  32.522   1.430   7.950
 1691POPC   C4B24022  32.548   1.479   7.501
 1692POPC   NC324023  24.828  11.862   9.411
 1692POPC   PO424024  24.069  11.936   9.406
 1692POPC   GL124025  24.417  12.084   9.145
 1692POPC   GL224026  24.542  11.748   9.006
 1692POPC   C1A24027  24.563  12.236   8.728
 1692POPC   D2A24028  24.491  12.393   8.301
 1692POPC   C3A24029  24.364  12.077   8.026
 1692POPC   C4A24030  24.379  12.071   7.620
 1692POPC   C1B24031  24.806  11.755   8.621
 1692POPC   C2B24032  24.888  12.062   8.274
 1692POPC   C3B24033  24.847  12.058   7.848
 1692POPC   C4B24034  24.833  11.705   7.564
 1693POPC   NC324035  10.764   2.444   9.436
 1693POPC   PO424036  10.535   3.032   9.658
 1693POPC   GL124037  10.380   2.734   9.258
 1693POPC   GL224038  10.115   2.865   9.087
 1693POPC   C1A24039  10.374   2.529   8.832
 1693POPC   D2A24040  10.651   2.455   8.483
 1693POPC   C3A24041  10.563   2.663   8.096
 1693POPC   C4A24042  10.886   2.619   7.801
 1693POPC   C1B24043  10.380   3.081   8.805
 1693POPC   C2B24044  10.694   2.988   8.488
 1693POPC   C3B24045  10.944   3.132   8.138
 1693POPC   C4B24046  10.816   3.163   7.727
 1694POPC   NC324047   1.474  21.269   9.675
 1694POPC   PO424048   0.982  21.715   9.566
 1694POPC   GL124049   1.330  21.587   9.278
 1694POPC   GL224050   1.247  21.248   9.182
 1694POPC   C1A24051   1.456  21.500   8.821
 1694POPC   D2A24052   1.244  21.487   8.422
 1694POPC   C3A24053   1.377  21.376   8.022
 1694POPC   C4A24054   1.536  21.472   7.628
 1694POPC   C1B24055   0.977  21.230   8.781
 1694POPC   C2B24056   0.818  21.202   8.333
 1694POPC   C3B24057   0.871  21.421   7.911
 1694POPC   C4B24058   1.045  21.458   7.477
 1695POPC   NC324059  36.548  23.781   9.470
 1695POPC   PO424060  36.074  23.390   9.384
 1695POPC   GL124061  36.287  23.587   9.059
 1695POPC   GL224062  35.980  23.622   8.904
 1695POPC   C1A24063  36.357  23.766   8.627
 1695POPC   D2A24064  36.205  23.704   8.215
 1695POPC   C3A24065  36.533  23.742   7.902
 1695POPC   C4A24066  36.275  23.833   7.540
 1695POPC   C1B24067  35.777  23.704   8.509
 1695POPC   C2B24068  35.739  24.039   8.169
 1695POPC   C3B24069  35.743  24.165   7.699
 1695POPC   C4B24070  35.865  24.011   7.271
 1696POPC   NC324071  27.875   8.667   9.814
 1696POPC   PO424072  27.412   8.294   9.432
 1696POPC   GL124073  27.467   8.433   9.020
 1696POPC   GL224074  27.822   8.522   8.947
 1696POPC   C1A24075  27.411   8.603   8.642
 1696POPC   D2A24076  27.159   8.580   8.269
 1696POPC   C3A24077  27.375   8.602   7.894
 1696POPC   C4A24078  27.678   8.250   7.814
 1696POPC   C1B24079  27.827   8.285   8.580
 1696POPC   C2B24080  28.058   8.296   8.193
 1696POPC   C3B24081  28.173   7.996   7.920
 1696POPC   C4B24082  27.883   7.708   7.846
 1697POPC   NC324083  14.658  13.638   9.519
 1697POPC   PO424084  14.086  13.570   9.251
 1697POPC   GL124085  14.456  13.569   9.033
 1697POPC   GL224086  14.619  13.258   9.144
 1697POPC   C1A24087  14.480  13.607   8.583
 1697POPC   D2A24088  14.409  13.512   8.140
 1697POPC   C3A24089  14.710  13.649   7.827
 1697POPC   C4A24090  14.730  13.970   7.496
 1697POPC   C1B24091  14.378  13.136   8.770
 1697POPC   C2B24092  14.142  13.169   8.423
 1697POPC   C3B24093  14.048  13.122   7.998
 1697POPC   C4B24094  14.265  13.310   7.689
 1698POPC   NC324095  19.051  37.196   9.389
 1698POPC   PO424096  19.389  37.748   9.462
 1698POPC   GL124097  19.149  37.614   9.062
 1698POPC   GL224098  18.826  37.434   9.012
 1698POPC   C1A24099  19.032  37.691   8.607
 1698POPC   D2A24100  19.230  37.786   8.227
 1698POPC   C3A24101  19.135  37.563   7.819
 1698POPC   C4A24102  19.283  37.809   7.456
 1698POPC   C1B24103  19.145  37.219   8.722
 1698POPC   C2B24104  19.105  37.287   8.274
 1698POPC   C3B24105  18.716  37.258   8.027
 1698POPC   C4B24106  18.421  37.449   7.723
 1699POPC   NC324107  21.191   2.759   9.493
 1699POPC   PO424108  21.828   2.922   9.488
 1699POPC   GL124109  21.597   2.691   9.115
 1699POPC   GL224110  21.251   2.486   9.034
 1699POPC   C1A24111  21.480   2.747   8.674
 1699POPC   D2A24112  21.185   2.699   8.339
 1699POPC   C3A24113  21.471   2.540   8.036
 1699POPC   C4A24114  21.834   2.593   7.824
 1699POPC   C1B24115  20.946   2.776   8.832
 1699POPC   C2B24116  21.014   3.152   8.604
 1699POPC   C3B24117  21.124   3.205   8.191
 1699POPC   C4B24118  21.194   2.918   7.857
 1700POPC   NC324119  31.954  12.700   9.350
 1700POPC   PO424120  31.326  12.669   9.475
 1700POPC   GL124121  31.514  12.557   9.124
 1700POPC   GL224122  31.563  12.909   9.090
 1700POPC   C1A24123  31.376  12.503   8.747
 1700POPC   D2A24124  31.224  12.823   8.501
 1700POPC   C3A24125  31.524  12.766   8.185
 1700POPC   C4A24126  31.420  12.811   7.750
 1700POPC   C1B24127  31.688  12.926   8.706
 1700POPC   C2B24128  31.522  13.240   8.461
 1700POPC   C3B24129  31.323  13.210   8.071
 1700POPC   C4B24130  31.599  13.306   7.714
 1701POPC   NC324131  40.218  40.146   9.369
 1701POPC   PO424132  40.783  40.392   9.593
 1701POPC   GL124133  40.800  40.027   9.308
 1701POPC   GL224134  40.915  40.266   9.096
 1701POPC   C1A24135  40.911  39.798   8.896
 1701POPC   D2A24136  40.607  39.749   8.537
 1701POPC   C3A24137  40.730  39.775   8.086
 1701POPC   C4A24138  40.777  39.987   7.677
 1701POPC   C1B24139  40.593  40.187   8.823
 1701POPC   C2B24140  40.714  40.245   8.417
 1701POPC   C3B24141  40.546  40.322   8.041
 1701POPC   C4B24142  40.686  40.483   7.669
 1702POPC   NC324143  31.898  20.822   9.551
 1702POPC   PO424144  31.236  20.613   9.418
 1702POPC   GL124145  31.200  20.647   9.033
 1702POPC   GL224146  31.533  20.766   9.029
 1702POPC   C1A24147  31.226  20.659   8.596
 1702POPC   D2A24148  31.403  20.338   8.357
 1702POPC   C3A24149  31.437  20.523   8.012
 1702POPC   C4A24150  31.577  20.445   7.660
 1702POPC   C1B24151  31.708  20.567   8.705
 1702POPC   C2B24152  31.875  20.676   8.303
 1702POPC   C3B24153  31.951  20.769   7.868
 1702POPC   C4B24154  31.879  20.760   7.409
 1703POPC   NC324155  10.691  43.654   9.549
 1703POPC   PO424156  10.007  43.644   9.521
 1703POPC   GL124157  10.244  43.839   9.141
 1703POPC   GL224158  10.600  43.911   9.134
 1703POPC   C1A24159  10.326  43.948   8.700
 1703POPC   D2A24160  10.200  43.778   8.315
 1703POPC   C3A24161  10.450  43.953   8.003
 1703POPC   C4A24162  10.580  44.366   7.857
 1703POPC   C1B24163  10.857  43.823   8.786
 1703POPC   C2B24164  10.719  43.701   8.402
 1703POPC   C3B24165  10.957  43.542   8.077
 1703POPC   C4B24166  10.926  43.756   7.728
 1704POPC   NC324167  14.522  34.550   9.859
 1704POPC   PO424168  14.093  34.756   9.381
 1704POPC   GL124169  14.304  34.688   9.046
 1704POPC   GL224170  14.506  34.430   9.159
 1704POPC   C1A24171  14.227  34.415   8.712
 1704POPC   D2A24172  14.040  34.518   8.336
 1704POPC   C3A24173  14.193  34.346   7.973
 1704POPC   C4A24174  14.291  34.493   7.540
 1704POPC   C1B24175  14.723  34.504   8.740
 1704POPC   C2B24176  14.603  34.526   8.254
 1704POPC   C3B24177  14.753  34.530   7.781
 1704POPC   C4B24178  14.713  34.423   7.293
 1705POPC   NC324179   9.969  37.942  10.001
 1705POPC   PO424180   9.473  37.578   9.797
 1705POPC   GL124181   9.562  37.659   9.329
 1705POPC   GL224182   9.832  37.467   9.189
 1705POPC   C1A24183   9.473  37.609   8.869
 1705POPC   D2A24184   9.729  37.450   8.504
 1705POPC   C3A24185   9.579  37.717   8.149
 1705POPC   C4A24186   9.449  37.906   7.760
 1705POPC   C1B24187   9.958  37.784   8.863
 1705POPC   C2B24188  10.170  37.798   8.471
 1705POPC   C3B24189  10.074  37.629   8.070
 1705POPC   C4B24190   9.951  37.928   7.780
 1706POPC   NC324191  36.023  33.677   9.647
 1706POPC   PO424192  36.425  34.201   9.633
 1706POPC   GL124193  36.183  34.014   9.259
 1706POPC   GL224194  35.808  33.974   9.297
 1706POPC   C1A24195  36.033  33.663   8.971
 1706POPC   D2A24196  36.113  33.516   8.543
 1706POPC   C3A24197  35.918  33.693   8.203
 1706POPC   C4A24198  35.994  33.821   7.783
 1706POPC   C1B24199  35.786  34.135   8.892
 1706POPC   C2B24200  35.990  34.098   8.514
 1706POPC   C3B24201  35.852  34.203   8.087
 1706POPC   C4B24202  35.652  34.258   7.685
 1707POPC   NC324203  34.874  26.803   9.624
 1707POPC   PO424204  34.175  27.097   9.522
 1707POPC   GL124205  34.527  26.997   9.244
 1707POPC   GL224206  34.653  26.634   9.196
 1707POPC   C1A24207  34.561  26.928   8.802
 1707POPC   D2A24208  34.805  26.929   8.449
 1707POPC   C3A24209  34.574  27.024   8.076
 1707POPC   C4A24210  34.724  27.156   7.698
 1707POPC   C1B24211  34.504  26.410   8.833
 1707POPC   C2B24212  34.567  26.436   8.426
 1707POPC   C3B24213  34.580  26.309   8.019
 1707POPC   C4B24214  34.565  26.632   7.695
 1708POPC   NC324215   0.524  44.386   9.448
 1708POPC   PO424216   0.368  43.700   9.455
 1708POPC   GL124217   0.585  43.930   9.179
 1708POPC   GL224218   0.629  43.647   9.002
 1708POPC   C1A24219   0.752  44.211   8.858
 1708POPC   D2A24220   0.937  44.143   8.471
 1708POPC   C3A24221   0.584  44.016   8.201
 1708POPC   C4A24222   0.579  44.010   7.757
 1708POPC   C1B24223   0.588  43.335   8.730
 1708POPC   C2B24224   0.423  43.440   8.357
 1708POPC   C3B24225   0.629  43.554   7.951
 1708POPC   C4B24226   0.931  43.637   7.605
 1709POPC   NC324227  35.533   7.766   9.413
 1709POPC   PO424228  35.185   7.267   9.714
 1709POPC   GL124229  35.131   7.245   9.278
 1709POPC   GL224230  35.132   7.555   9.170
 1709POPC   C1A24231  35.105   7.134   8.861
 1709POPC   D2A24232  35.343   7.189   8.478
 1709POPC   C3A24233  35.137   7.277   8.093
 1709POPC   C4A24234  35.351   7.261   7.730
 1709POPC   C1B24235  35.288   7.618   8.757
 1709POPC   C2B24236  35.223   7.737   8.317
 1709POPC   C3B24237  35.411   7.730   7.900
 1709POPC   C4B24238  35.344   7.710   7.446
 1710POPC   NC324239  15.950  26.197   9.577
 1710POPC   PO424240  15.804  25.533   9.513
 1710POPC   GL124241  15.755  25.761   9.119
 1710POPC   GL224242  15.835  26.135   9.068
 1710POPC   C1A24243  15.591  25.866   8.702
 1710POPC   D2A24244  15.720  26.155   8.398
 1710POPC   C3A24245  16.065  25.977   8.186
 1710POPC   C4A24246  15.906  25.915   7.814
 1710POPC   C1B24247  16.148  26.144   8.701
 1710POPC   C2B24248  16.170  26.447   8.341
 1710POPC   C3B24249  16.129  26.382   7.890
 1710POPC   C4B24250  16.387  26.074   7.711
 1711POPC   NC324251  12.673  39.972   9.501
 1711POPC   PO424252  13.294  39.657   9.510
 1711POPC   GL124253  13.026  39.751   9.173
 1711POPC   GL224254  13.014  40.118   9.135
 1711POPC   C1A24255  13.135  39.802   8.734
 1711POPC   D2A24256  13.087  39.993   8.341
 1711POPC   C3A24257  12.847  39.816   7.983
 1711POPC   C4A24258  12.847  39.874   7.501
 1711POPC   C1B24259  12.859  40.319   8.757
 1711POPC   C2B24260  12.903  40.470   8.365
 1711POPC   C3B24261  12.887  40.348   7.980
 1711POPC   C4B24262  12.571  40.176   7.771
 1712POPC   NC324263  39.419  40.323   9.307
 1712POPC   PO424264  39.031  39.786   9.497
 1712POPC   GL124265  39.113  39.964   9.085
 1712POPC   GL224266  39.076  40.330   8.968
 1712POPC   C1A24267  39.392  39.817   8.762
 1712POPC   D2A24268  39.216  39.644   8.417
 1712POPC   C3A24269  39.334  39.872   8.077
 1712POPC   C4A24270  39.033  40.009   7.824
 1712POPC   C1B24271  39.162  40.217   8.604
 1712POPC   C2B24272  39.441  40.320   8.293
 1712POPC   C3B24273  39.314  40.413   7.878
 1712POPC   C4B24274  38.983  40.375   7.484
 1713POPC   NC324275  29.921   7.688   9.358
 1713POPC   PO424276  29.939   8.388   9.505
 1713POPC   GL124277  29.970   8.168   9.169
 1713POPC   GL224278  30.276   8.018   9.143
 1713POPC   C1A24279  29.819   8.058   8.787
 1713POPC   D2A24280  29.534   8.161   8.507
 1713POPC   C3A24281  29.715   7.982   8.190
 1713POPC   C4A24282  29.697   8.001   7.763
 1713POPC   C1B24283  30.290   8.405   8.864
 1713POPC   C2B24284  30.120   8.469   8.459
 1713POPC   C3B24285  30.057   8.318   8.069
 1713POPC   C4B24286  30.190   8.220   7.696
 1714POPC   NC324287  13.788  15.388   9.528
 1714POPC   PO424288  13.501  14.917   9.224
 1714POPC   GL124289  13.580  15.351   9.064
 1714POPC   GL224290  13.976  15.437   9.070
 1714POPC   C1A24291  13.394  15.361   8.668
 1714POPC   D2A24292  13.548  14.971   8.429
 1714POPC   C3A24293  13.443  15.008   7.993
 1714POPC   C4A24294  13.228  15.412   7.925
 1714POPC   C1B24295  13.919  15.344   8.635
 1714POPC   C2B24296  13.684  15.442   8.253
 1714POPC   C3B24297  13.746  15.371   7.838
 1714POPC   C4B24298  13.883  14.938   7.744
 1715POPC   NC324299  26.982  16.559   9.493
 1715POPC   PO424300  26.641  17.148   9.451
 1715POPC   GL124301  26.652  16.867   9.161
 1715POPC   GL224302  26.989  16.896   9.109
 1715POPC   C1A24303  26.667  16.613   8.802
 1715POPC   D2A24304  26.585  16.398   8.417
 1715POPC   C3A24305  26.797  16.550   8.068
 1715POPC   C4A24306  26.664  16.524   7.671
 1715POPC   C1B24307  27.230  16.855   8.782
 1715POPC   C2B24308  27.133  16.729   8.406
 1715POPC   C3B24309  27.175  16.939   8.033
 1715POPC   C4B24310  26.898  16.963   7.754
 1716POPC   NC324311  21.892  42.128   9.496
 1716POPC   PO424312  22.285  42.618   9.710
 1716POPC   GL124313  22.328  42.472   9.290
 1716POPC   GL224314  22.295  42.105   9.164
 1716POPC   C1A24315  22.408  42.710   8.922
 1716POPC   D2A24316  22.323  42.750   8.494
 1716POPC   C3A24317  22.400  42.439   8.175
 1716POPC   C4A24318  22.182  42.309   7.786
 1716POPC   C1B24319  22.147  42.293   8.813
 1716POPC   C2B24320  21.951  42.370   8.425
 1716POPC   C3B24321  21.826  42.073   8.136
 1716POPC   C4B24322  21.749  42.028   7.731
 1717POPC   NC324323   6.234   8.669   9.475
 1717POPC   PO424324   5.666   9.107   9.497
 1717POPC   GL124325   5.704   8.879   9.144
 1717POPC   GL224326   5.763   8.571   9.300
 1717POPC   C1A24327   5.726   8.954   8.709
 1717POPC   D2A24328   5.922   9.298   8.459
 1717POPC   C3A24329   5.936   9.241   8.013
 1717POPC   C4A24330   5.646   8.986   7.803
 1717POPC   C1B24331   5.999   8.531   8.860
 1717POPC   C2B24332   5.989   8.663   8.395
 1717POPC   C3B24333   6.114   8.650   7.960
 1717POPC   C4B24334   5.921   8.572   7.584
 1718POPC   NC324335  18.074   1.182   9.333
 1718POPC   PO424336  18.298   1.757   9.654
 1718POPC   GL124337  18.373   1.555   9.148
 1718POPC   GL224338  18.017   1.451   8.895
 1718POPC   C1A24339  18.456   1.298   8.739
 1718POPC   D2A24340  18.152   1.149   8.407
 1718POPC   C3A24341  18.226   1.404   8.039
 1718POPC   C4A24342  18.640   1.494   7.897
 1718POPC   C1B24343  17.747   1.061   8.802
 1718POPC   C2B24344  17.625   0.862   8.438
 1718POPC   C3B24345  17.874   0.825   8.085
 1718POPC   C4B24346  17.873   1.137   7.785
 1719POPC   NC324347  12.682   8.365   9.581
 1719POPC   PO424348  13.343   8.249   9.334
 1719POPC   GL124349  13.067   8.287   9.017
 1719POPC   GL224350  12.766   8.155   9.109
 1719POPC   C1A24351  12.902   8.230   8.614
 1719POPC   D2A24352  13.055   8.173   8.209
 1719POPC   C3A24353  12.850   8.351   7.863
 1719POPC   C4A24354  12.941   8.350   7.418
 1719POPC   C1B24355  12.478   7.982   8.770
 1719POPC   C2B24356  12.574   7.943   8.335
 1719POPC   C3B24357  12.387   8.142   7.999
 1719POPC   C4B24358  12.498   8.079   7.597
 1720POPC   NC324359  38.746  16.300   9.746
 1720POPC   PO424360  38.219  16.789   9.509
 1720POPC   GL124361  38.202  16.831   9.097
 1720POPC   GL224362  38.022  16.536   8.995
 1720POPC   C1A24363  38.492  16.906   8.778
 1720POPC   D2A24364  38.729  17.080   8.439
 1720POPC   C3A24365  38.695  16.883   8.031
 1720POPC   C4A24366  38.804  17.050   7.633
 1720POPC   C1B24367  37.920  16.837   8.675
 1720POPC   C2B24368  38.224  16.795   8.344
 1720POPC   C3B24369  38.260  16.485   8.029
 1720POPC   C4B24370  38.499  16.562   7.655
 1721POPC   NC324371   4.294   6.425   9.644
 1721POPC   PO424372   4.617   6.872   9.309
 1721POPC   GL124373   4.174   6.664   9.215
 1721POPC   GL224374   4.165   6.277   9.164
 1721POPC   C1A24375   3.926   6.765   8.843
 1721POPC   D2A24376   3.983   7.031   8.471
 1721POPC   C3A24377   4.023   6.835   8.057
 1721POPC   C4A24378   4.216   6.727   7.673
 1721POPC   C1B24379   4.352   6.482   8.786
 1721POPC   C2B24380   4.509   6.528   8.398
 1721POPC   C3B24381   4.387   6.389   8.009
 1721POPC   C4B24382   4.591   6.383   7.592
 1722POPC   NC324383   6.263  24.841   9.382
 1722POPC   PO424384   5.712  25.166   9.636
 1722POPC   GL124385   5.860  25.282   9.205
 1722POPC   GL224386   5.857  24.961   9.090
 1722POPC   C1A24387   5.597  25.483   8.848
 1722POPC   D2A24388   5.450  25.439   8.402
 1722POPC   C3A24389   5.782  25.240   8.178
 1722POPC   C4A24390   5.917  25.487   7.876
 1722POPC   C1B24391   6.186  24.887   8.759
 1722POPC   C2B24392   6.253  25.082   8.379
 1722POPC   C3B24393   6.225  24.944   7.975
 1722POPC   C4B24394   5.901  24.977   7.717
 1723POPC   NC324395  30.909   2.197   9.361
 1723POPC   PO424396  30.543   1.651   9.415
 1723POPC   GL124397  30.738   1.815   9.072
 1723POPC   GL224398  31.118   1.802   9.083
 1723POPC   C1A24399  30.610   2.068   8.740
 1723POPC   D2A24400  30.600   1.868   8.368
 1723POPC   C3A24401  30.510   2.173   8.101
 1723POPC   C4A24402  30.565   2.080   7.700
 1723POPC   C1B24403  31.087   1.937   8.650
 1723POPC   C2B24404  31.024   2.178   8.253
 1723POPC   C3B24405  31.091   2.138   7.807
 1723POPC   C4B24406  31.139   1.836   7.486
 1724POPC   NC324407   1.391  29.580   9.462
 1724POPC   PO424408   1.374  28.939   9.509
 1724POPC   GL124409   1.082  29.069   9.215
 1724POPC   GL224410   1.135  29.415   9.063
 1724POPC   C1A24411   1.165  28.968   8.814
 1724POPC   D2A24412   1.177  29.226   8.451
 1724POPC   C3A24413   1.284  28.951   8.140
 1724POPC   C4A24414   1.179  28.845   7.749
 1724POPC   C1B24415   1.476  29.526   8.763
 1724POPC   C2B24416   1.470  29.629   8.311
 1724POPC   C3B24417   1.401  29.406   7.898
 1724POPC   C4B24418   1.111  29.357   7.521
 1725POPC   NC324419   5.288  14.938   9.416
 1725POPC   PO424420   4.855  15.450   9.589
 1725POPC   GL124421   4.878  15.292   9.188
 1725POPC   GL224422   5.226  15.287   9.041
 1725POPC   C1A24423   4.815  15.266   8.755
 1725POPC   D2A24424   5.112  15.387   8.437
 1725POPC   C3A24425   5.098  15.132   8.077
 1725POPC   C4A24426   4.928  15.030   7.675
 1725POPC   C1B24427   5.328  14.987   8.676
 1725POPC   C2B24428   5.450  14.767   8.299
 1725POPC   C3B24429   5.356  14.747   7.878
 1725POPC   C4B24430   5.573  14.749   7.540
 1726POPC   NC324431  20.415  21.633   9.562
 1726POPC   PO424432  20.607  20.972   9.458
 1726POPC   GL124433  20.433  21.116   9.053
 1726POPC   GL224434  20.335  21.490   9.085
 1726POPC   C1A24435  20.517  21.365   8.629
 1726POPC   D2A24436  20.788  21.678   8.371
 1726POPC   C3A24437  20.777  21.581   7.918
 1726POPC   C4A24438  20.910  21.210   7.728
 1726POPC   C1B24439  20.149  21.732   8.739
 1726POPC   C2B24440  20.289  21.740   8.286
 1726POPC   C3B24441  20.275  21.692   7.800
 1726POPC   C4B24442  20.458  21.377   7.483
 1727POPC   NC324443  25.051  28.164   9.547
 1727POPC   PO424444  25.500  28.639   9.341
 1727POPC   GL124445  25.311  28.332   9.137
 1727POPC   GL224446  24.954  28.359   9.094
 1727POPC   C1A24447  25.296  28.148   8.764
 1727POPC   D2A24448  25.394  28.393   8.442
 1727POPC   C3A24449  25.223  28.318   8.085
 1727POPC   C4A24450  25.422  28.493   7.730
 1727POPC   C1B24451  25.058  28.641   8.757
 1727POPC   C2B24452  25.092  28.811   8.332
 1727POPC   C3B24453  24.968  28.744   7.895
 1727POPC   C4B24454  24.945  28.354   7.671
 1728POPC   NC324455  33.447   5.073   9.815
 1728POPC   PO424456  34.056   4.984   9.414
 1728POPC   GL124457  33.970   4.931   9.024
 1728POPC   GL224458  33.719   4.729   9.038
 1728POPC   C1A24459  33.855   5.165   8.690
 1728POPC   D2A24460  33.729   5.147   8.305
 1728POPC   C3A24461  33.989   5.189   7.999
 1728POPC   C4A24462  34.041   4.886   7.680
 1728POPC   C1B24463  33.569   4.642   8.663
 1728POPC   C2B24464  33.598   4.658   8.235
 1728POPC   C3B24465  33.569   4.877   7.898
 1728POPC   C4B24466  33.553   4.649   7.571
 1729POPC   NC324467  19.974  40.127   9.705
 1729POPC   PO424468  20.670  40.132   9.534
 1729POPC   GL124469  20.551  40.052   9.110
 1729POPC   GL224470  20.190  39.953   9.104
 1729POPC   C1A24471  20.584  39.952   8.674
 1729POPC   D2A24472  20.805  39.837   8.295
 1729POPC   C3A24473  20.542  39.938   7.985
 1729POPC   C4A24474  20.402  40.050   7.596
 1729POPC   C1B24475  20.255  39.600   8.817
 1729POPC   C2B24476  20.395  39.541   8.372
 1729POPC   C3B24477  20.163  39.580   7.976
 1729POPC   C4B24478  20.340  39.556   7.572
 1730POPC   NC324479  35.758  40.851   9.353
 1730POPC   PO424480  36.366  40.612   9.587
 1730POPC   GL124481  36.176  40.580   9.180
 1730POPC   GL224482  36.221  40.944   9.162
 1730POPC   C1A24483  36.000  40.717   8.749
 1730POPC   D2A24484  36.041  41.010   8.401
 1730POPC   C3A24485  35.934  40.813   8.009
 1730POPC   C4A24486  36.153  40.587   7.722
 1730POPC   C1B24487  36.452  40.962   8.789
 1730POPC   C2B24488  36.601  41.058   8.384
 1730POPC   C3B24489  36.425  40.969   8.017
 1730POPC   C4B24490  36.319  41.052   7.609
 1731POPC   NC324491  25.041  40.195   9.520
 1731POPC   PO424492  25.435  39.684   9.284
 1731POPC   GL124493  25.273  39.966   9.057
 1731POPC   GL224494  25.335  40.305   9.112
 1731POPC   C1A24495  25.396  39.910   8.645
 1731POPC   D2A24496  25.389  39.627   8.346
 1731POPC   C3A24497  25.432  39.884   8.012
 1731POPC   C4A24498  25.180  40.147   7.766
 1731POPC   C1B24499  25.272  40.417   8.676
 1731POPC   C2B24500  25.552  40.298   8.333
 1731POPC   C3B24501  25.582  40.437   7.919
 1731POPC   C4B24502  25.234  40.694   7.753
 1732POPC   NC324503   9.828  38.614   9.314
 1732POPC   PO424504   9.867  37.998   9.550
 1732POPC   GL124505   9.752  38.133   9.143
 1732POPC   GL224506   9.427  38.224   9.273
 1732POPC   C1A24507   9.843  38.239   8.659
 1732POPC   D2A24508  10.154  38.324   8.297
 1732POPC   C3A24509  10.042  38.419   7.835
 1732POPC   C4A24510   9.809  38.341   7.402
 1732POPC   C1B24511   9.368  38.329   8.857
 1732POPC   C2B24512   9.430  38.474   8.475
 1732POPC   C3B24513   9.635  38.258   8.162
 1732POPC   C4B24514   9.529  38.453   7.814
 1733POPC   NC324515  38.303  31.747   9.543
 1733POPC   PO424516  38.879  31.486   9.780
 1733POPC   GL124517  38.731  31.628   9.313
 1733POPC   GL224518  38.421  31.360   9.236
 1733POPC   C1A24519  38.587  31.636   8.848
 1733POPC   D2A24520  38.501  31.420   8.436
 1733POPC   C3A24521  38.629  31.593   7.999
 1733POPC   C4A24522  38.439  31.734   7.583
 1733POPC   C1B24523  38.389  31.035   8.910
 1733POPC   C2B24524  38.347  30.910   8.511
 1733POPC   C3B24525  38.460  31.046   8.098
 1733POPC   C4B24526  38.402  31.222   7.727
 1734POPC   NC324527  23.281  16.703   9.532
 1734POPC   PO424528  22.733  17.032   9.392
 1734POPC   GL124529  23.061  16.966   9.114
 1734POPC   GL224530  23.173  16.615   9.023
 1734POPC   C1A24531  22.970  17.113   8.688
 1734POPC   D2A24532  23.073  16.926   8.294
 1734POPC   C3A24533  22.750  16.894   7.990
 1734POPC   C4A24534  22.688  17.176   7.680
 1734POPC   C1B24535  22.972  16.577   8.649
 1734POPC   C2B24536  22.889  16.441   8.244
 1734POPC   C3B24537  23.162  16.572   7.902
 1734POPC   C4B24538  23.244  16.376   7.513
 1735POPC   NC324539  27.751  28.141   9.405
 1735POPC   PO424540  27.232  28.663   9.366
 1735POPC   GL124541  27.479  28.462   9.086
 1735POPC   GL224542  27.800  28.583   9.126
 1735POPC   C1A24543  27.525  28.137   8.790
 1735POPC   D2A24544  27.738  28.126   8.409
 1735POPC   C3A24545  27.497  28.156   8.061
 1735POPC   C4A24546  27.406  28.416   7.743
 1735POPC   C1B24547  28.024  28.304   8.800
 1735POPC   C2B24548  28.175  28.409   8.388
 1735POPC   C3B24549  27.907  28.456   8.025
 1735POPC   C4B24550  27.878  28.172   7.679
 1736POPC   NC324551   3.979  39.158   9.801
 1736POPC   PO424552   3.397  38.794   9.589
 1736POPC   GL124553   3.562  38.994   9.226
 1736POPC   GL224554   3.793  39.283   9.227
 1736POPC   C1A24555   3.655  38.987   8.791
 1736POPC   D2A24556   3.454  39.074   8.400
 1736POPC   C3A24557   3.661  38.918   8.065
 1736POPC   C4A24558   3.434  38.998   7.714
 1736POPC   C1B24559   3.872  39.494   8.798
 1736POPC   C2B24560   3.796  39.436   8.342
 1736POPC   C3B24561   3.712  39.411   7.899
 1736POPC   C4B24562   3.843  39.697   7.615
 1737POPC   NC324563  25.883  44.051   9.520
 1737POPC   PO424564  25.407  43.588   9.477
 1737POPC   GL124565  25.778  43.647   9.180
 1737POPC   GL224566  26.139  43.786   9.165
 1737POPC   C1A24567  25.801  43.825   8.781
 1737POPC   D2A24568  25.976  43.975   8.413
 1737POPC   C3A24569  25.733  44.031   8.070
 1737POPC   C4A24570  25.934  43.848   7.733
 1737POPC   C1B24571  26.305  44.035   8.793
 1737POPC   C2B24572  26.434  44.229   8.391
 1737POPC   C3B24573  26.439  44.183   7.925
 1737POPC   C4B24574  26.442  44.290   7.468
 1738POPC   NC324575  30.581  24.772   9.495
 1738POPC   PO424576  30.840  24.113   9.475
 1738POPC   GL124577  30.851  24.440   9.180
 1738POPC   GL224578  30.507  24.511   9.060
 1738POPC   C1A24579  30.976  24.304   8.770
 1738POPC   D2A24580  30.819  24.023   8.442
 1738POPC   C3A24581  30.879  24.214   8.025
 1738POPC   C4A24582  30.670  24.359   7.651
 1738POPC   C1B24583  30.749  24.782   8.752
 1738POPC   C2B24584  30.818  24.823   8.288
 1738POPC   C3B24585  30.526  24.771   7.932
 1738POPC   C4B24586  30.540  24.821   7.470
 1739POPC   NC324587  32.073  43.314   9.544
 1739POPC   PO424588  32.471  42.779   9.532
 1739POPC   GL124589  32.308  43.046   9.176
 1739POPC   GL224590  32.409  43.415   9.173
 1739POPC   C1A24591  32.024  43.117   8.821
 1739POPC   D2A24592  32.173  42.992   8.410
 1739POPC   C3A24593  32.020  43.163   8.015
 1739POPC   C4A24594  32.129  43.060   7.577
 1739POPC   C1B24595  32.499  43.305   8.756
 1739POPC   C2B24596  32.671  43.398   8.378
 1739POPC   C3B24597  32.532  43.221   8.017
 1739POPC   C4B24598  32.484  43.425   7.651
 1740POPC   NC324599   2.964  18.559   9.524
 1740POPC   PO424600   2.597  18.043   9.708
 1740POPC   GL124601   2.793  18.041   9.274
 1740POPC   GL224602   3.036  18.255   9.153
 1740POPC   C1A24603   2.743  17.989   8.817
 1740POPC   D2A24604   2.685  18.209   8.430
 1740POPC   C3A24605   2.686  18.052   8.031
 1740POPC   C4A24606   2.508  18.303   7.706
 1740POPC   C1B24607   3.066  18.407   8.774
 1740POPC   C2B24608   3.189  18.138   8.493
 1740POPC   C3B24609   3.144  18.277   8.131
 1740POPC   C4B24610   3.005  18.386   7.765
 1741POPC   NC324611  28.095  20.801   9.357
 1741POPC   PO424612  27.596  20.377   9.505
 1741POPC   GL124613  27.468  20.422   9.077
 1741POPC   GL224614  27.737  20.638   9.030
 1741POPC   C1A24615  27.342  20.687   8.687
 1741POPC   D2A24616  27.489  20.867   8.297
 1741POPC   C3A24617  27.291  20.894   7.873
 1741POPC   C4A24618  27.354  20.775   7.423
 1741POPC   C1B24619  27.821  20.540   8.601
 1741POPC   C2B24620  28.017  20.248   8.322
 1741POPC   C3B24621  27.910  20.237   7.908
 1741POPC   C4B24622  27.752  20.591   7.688
 1742POPC   NC324623  20.470   5.378   9.345
 1742POPC   PO424624  20.310   4.821   9.702
 1742POPC   GL124625  20.553   4.746   9.204
 1742POPC   GL224626  20.828   4.968   9.139
 1742POPC   C1A24627  20.525   4.819   8.753
 1742POPC   D2A24628  20.557   5.135   8.463
 1742POPC   C3A24629  20.523   4.957   8.076
 1742POPC   C4A24630  20.373   5.226   7.753
 1742POPC   C1B24631  20.878   5.346   8.833
 1742POPC   C2B24632  20.917   5.536   8.424
 1742POPC   C3B24633  20.793   5.433   8.018
 1742POPC   C4B24634  20.909   5.110   7.772
 1743POPC   NC324635  17.577   7.350   9.667
 1743POPC   PO424636  17.118   7.714   9.509
 1743POPC   GL124637  17.278   7.565   9.129
 1743POPC   GL224638  17.617   7.463   9.178
 1743POPC   C1A24639  17.179   7.494   8.674
 1743POPC   D2A24640  17.088   7.535   8.215
 1743POPC   C3A24641  17.450   7.521   7.913
 1743POPC   C4A24642  17.720   7.614   7.560
 1743POPC   C1B24643  17.640   7.678   8.789
 1743POPC   C2B24644  17.629   7.504   8.385
 1743POPC   C3B24645  17.947   7.469   8.046
 1743POPC   C4B24646  18.229   7.673   7.748
 1744POPC   NC324647  21.240  42.448   9.536
 1744POPC   PO424648  21.608  42.002   9.168
 1744POPC   GL124649  21.174  42.199   9.082
 1744POPC   GL224650  21.247  42.571   9.056
 1744POPC   C1A24651  20.977  42.024   8.708
 1744POPC   D2A24652  21.331  42.011   8.417
 1744POPC   C3A24653  21.317  42.146   7.998
 1744POPC   C4A24654  21.554  42.507   7.898
 1744POPC   C1B24655  21.001  42.534   8.711
 1744POPC   C2B24656  21.055  42.475   8.314
 1744POPC   C3B24657  20.824  42.295   8.035
 1744POPC   C4B24658  20.939  42.241   7.625
 1745POPC   NC324659  26.281  28.649   9.478
 1745POPC   PO424660  26.855  28.550   9.789
 1745POPC   GL124661  26.750  28.374   9.256
 1745POPC   GL224662  27.035  28.206   9.125
 1745POPC   C1A24663  26.597  28.272   8.832
 1745POPC   D2A24664  26.509  28.489   8.425
 1745POPC   C3A24665  26.564  28.237   8.065
 1745POPC   C4A24666  26.571  28.360   7.660
 1745POPC   C1B24667  27.080  28.349   8.673
 1745POPC   C2B24668  27.034  28.315   8.215
 1745POPC   C3B24669  27.007  28.112   7.803
 1745POPC   C4B24670  27.093  27.963   7.404
 1746POPC   NC324671  20.730  11.178   9.624
 1746POPC   PO424672  20.564  11.725   9.449
 1746POPC   GL124673  20.676  11.535   9.075
 1746POPC   GL224674  20.639  11.198   9.111
 1746POPC   C1A24675  20.811  11.616   8.666
 1746POPC   D2A24676  20.837  11.322   8.358
 1746POPC   C3A24677  20.866  11.399   7.943
 1746POPC   C4A24678  20.821  11.067   7.656
 1746POPC   C1B24679  20.442  11.250   8.684
 1746POPC   C2B24680  20.373  11.144   8.216
 1746POPC   C3B24681  20.343  11.250   7.752
 1746POPC   C4B24682  20.115  11.068   7.368
 1747POPC   NC324683  38.919  29.220   9.516
 1747POPC   PO424684  39.498  28.701   9.772
 1747POPC   GL124685  39.634  28.878   9.239
 1747POPC   GL224686  39.422  29.202   9.142
 1747POPC   C1A24687  39.659  28.976   8.761
 1747POPC   D2A24688  39.427  29.297   8.487
 1747POPC   C3A24689  39.306  29.158   8.059
 1747POPC   C4A24690  39.439  28.962   7.669
 1747POPC   C1B24691  39.088  29.082   8.824
 1747POPC   C2B24692  38.907  29.266   8.466
 1747POPC   C3B24693  39.021  29.561   8.180
 1747POPC   C4B24694  39.168  29.667   7.789
 1748POPC   NC324695   5.325  36.351   9.576
 1748POPC   PO424696   4.853  35.948   9.650
 1748POPC   GL124697   5.063  36.022   9.270
 1748POPC   GL224698   4.868  35.869   9.050
 1748POPC   C1A24699   5.253  36.196   8.928
 1748POPC   D2A24700   5.394  36.455   8.618
 1748POPC   C3A24701   5.272  36.453   8.186
 1748POPC   C4A24702   5.123  36.237   7.811
 1748POPC   C1B24703   4.884  36.049   8.612
 1748POPC   C2B24704   5.140  35.949   8.271
 1748POPC   C3B24705   4.978  35.779   7.908
 1748POPC   C4B24706   4.767  35.898   7.493
 1749POPC   NC324707  37.321   6.968   9.532
 1749POPC   PO424708  37.602   7.631   9.508
 1749POPC   GL124709  37.681   7.256   9.248
 1749POPC   GL224710  37.707   7.546   9.032
 1749POPC   C1A24711  37.741   7.127   8.780
 1749POPC   D2A24712  37.744   7.471   8.465
 1749POPC   C3A24713  37.670   7.345   8.041
 1749POPC   C4A24714  37.489   7.326   7.628
 1749POPC   C1B24715  37.548   7.867   8.778
 1749POPC   C2B24716  37.386   7.894   8.369
 1749POPC   C3B24717  37.514   7.834   7.952
 1749POPC   C4B24718  37.858   7.703   7.729
 1750POPC   NC324719  18.108  22.981   9.622
 1750POPC   PO424720  18.468  22.479   9.475
 1750POPC   GL124721  18.339  22.787   9.150
 1750POPC   GL224722  18.208  23.136   9.152
 1750POPC   C1A24723  18.496  22.836   8.735
 1750POPC   D2A24724  18.753  22.595   8.445
 1750POPC   C3A24725  18.620  22.764   8.052
 1750POPC   C4A24726  18.258  22.711   7.824
 1750POPC   C1B24727  18.223  23.378   8.786
 1750POPC   C2B24728  18.336  23.369   8.348
 1750POPC   C3B24729  18.277  23.222   7.921
 1750POPC   C4B24730  17.977  23.148   7.587
 1751POPC   NC324731  17.126  26.796   9.654
 1751POPC   PO424732  16.510  26.633   9.652
 1751POPC   GL124733  16.586  26.670   9.200
 1751POPC   GL224734  16.952  26.617   9.119
 1751POPC   C1A24735  16.511  26.596   8.738
 1751POPC   D2A24736  16.712  26.571   8.319
 1751POPC   C3A24737  16.515  26.710   7.914
 1751POPC   C4A24738  16.491  27.135   7.717
 1751POPC   C1B24739  17.209  26.626   8.761
 1751POPC   C2B24740  17.270  26.789   8.379
 1751POPC   C3B24741  17.128  26.725   8.019
 1751POPC   C4B24742  16.949  26.748   7.635
 1752POPC   NC324743   9.724  37.233   9.641
 1752POPC   PO424744   9.421  36.626   9.503
 1752POPC   GL124745   9.523  37.008   9.245
 1752POPC   GL224746   9.261  37.273   9.188
 1752POPC   C1A24747   9.816  37.027   8.893
 1752POPC   D2A24748   9.790  36.713   8.562
 1752POPC   C3A24749   9.900  36.909   8.180
 1752POPC   C4A24750   9.709  36.891   7.800
 1752POPC   C1B24751   9.302  37.035   8.800
 1752POPC   C2B24752   9.356  36.970   8.370
 1752POPC   C3B24753   9.400  37.229   8.017
 1752POPC   C4B24754   9.667  37.433   7.718
 1753POPC   NC324755  18.718  14.627   9.347
 1753POPC   PO424756  19.075  14.194   9.720
 1753POPC   GL124757  19.011  14.298   9.148
 1753POPC   GL224758  19.363  14.364   8.958
 1753POPC   C1A24759  18.976  14.584   8.754
 1753POPC   D2A24760  18.955  14.466   8.353
 1753POPC   C3A24761  19.033  14.753   8.014
 1753POPC   C4A24762  18.839  14.638   7.622
 1753POPC   C1B24763  19.112  14.055   8.689
 1753POPC   C2B24764  19.040  13.965   8.254
 1753POPC   C3B24765  19.025  14.235   7.906
 1753POPC   C4B24766  19.336  14.431   7.671
 1754POPC   NC324767  28.934   7.607   9.499
 1754POPC   PO424768  29.598   7.414   9.546
 1754POPC   GL124769  29.353   7.297   9.219
 1754POPC   GL224770  28.999   7.181   9.213
 1754POPC   C1A24771  29.325   7.224   8.799
 1754POPC   D2A24772  29.064   7.100   8.469
 1754POPC   C3A24773  29.125   7.401   8.144
 1754POPC   C4A24774  29.287   7.452   7.737
 1754POPC   C1B24775  28.873   7.450   8.852
 1754POPC   C2B24776  28.653   7.395   8.457
 1754POPC   C3B24777  28.677   7.201   8.064
 1754POPC   C4B24778  28.790   7.402   7.696
 1755POPC   NC324779  14.999  12.795   9.626
 1755POPC   PO424780  15.590  12.544   9.594
 1755POPC   GL124781  15.396  12.911   9.304
 1755POPC   GL224782  15.060  12.974   9.165
 1755POPC   C1A24783  15.414  13.094   8.864
 1755POPC   D2A24784  15.238  13.136   8.474
 1755POPC   C3A24785  15.526  13.093   8.189
 1755POPC   C4A24786  15.476  12.944   7.813
 1755POPC   C1B24787  14.851  12.942   8.757
 1755POPC   C2B24788  14.722  13.179   8.396
 1755POPC   C3B24789  14.970  13.195   8.014
 1755POPC   C4B24790  14.999  12.790   7.819
 1756POPC   NC324791   4.476  12.386   9.571
 1756POPC   PO424792   4.155  11.702   9.505
 1756POPC   GL124793   4.324  11.995   9.238
 1756POPC   GL224794   4.062  12.252   9.269
 1756POPC   C1A24795   4.312  11.950   8.788
 1756POPC   D2A24796   4.104  11.875   8.379
 1756POPC   C3A24797   4.387  11.909   8.013
 1756POPC   C4A24798   4.657  12.243   7.822
 1756POPC   C1B24799   3.897  12.270   8.834
 1756POPC   C2B24800   3.797  12.342   8.407
 1756POPC   C3B24801   4.011  12.286   8.036
 1756POPC   C4B24802   3.825  12.448   7.681
 1757POPC   NC324803  25.530   6.500   9.608
 1757POPC   PO424804  24.941   6.354   9.500
 1757POPC   GL124805  25.065   6.490   9.091
 1757POPC   GL224806  25.324   6.721   9.153
 1757POPC   C1A24807  25.031   6.646   8.671
 1757POPC   D2A24808  25.050   6.936   8.334
 1757POPC   C3A24809  25.033   6.716   7.941
 1757POPC   C4A24810  24.680   6.727   7.693
 1757POPC   C1B24811  25.394   6.989   8.773
 1757POPC   C2B24812  25.553   6.911   8.343
 1757POPC   C3B24813  25.407   7.080   7.944
 1757POPC   C4B24814  25.443   7.071   7.486
 1758POPC   NC324815  29.606  38.283   9.368
 1758POPC   PO424816  30.165  38.456   9.261
 1758POPC   GL124817  29.899  38.283   8.956
 1758POPC   GL224818  29.704  38.617   8.942
 1758POPC   C1A24819  29.727  38.290   8.557
 1758POPC   D2A24820  29.656  38.663   8.358
 1758POPC   C3A24821  29.820  38.589   7.974
 1758POPC   C4A24822  30.036  38.211   7.914
 1758POPC   C1B24823  30.099  38.639   8.642
 1758POPC   C2B24824  30.298  38.612   8.217
 1758POPC   C3B24825  30.287  38.690   7.764
 1758POPC   C4B24826  30.458  38.673   7.302
 1759POPC   NC324827  27.829  36.792   9.522
 1759POPC   PO424828  28.541  36.809   9.446
 1759POPC   GL124829  28.195  37.005   9.214
 1759POPC   GL224830  28.005  36.747   9.067
 1759POPC   C1A24831  28.227  37.115   8.785
 1759POPC   D2A24832  28.590  37.151   8.504
 1759POPC   C3A24833  28.469  37.115   8.082
 1759POPC   C4A24834  28.653  37.030   7.672
 1759POPC   C1B24835  28.164  36.587   8.740
 1759POPC   C2B24836  28.183  36.768   8.388
 1759POPC   C3B24837  28.321  36.629   8.048
 1759POPC   C4B24838  28.236  36.746   7.682
 1760POPC   NC324839   4.557  42.069   9.792
 1760POPC   PO424840   4.346  42.655   9.555
 1760POPC   GL124841   4.369  42.527   9.136
 1760POPC   GL224842   4.725  42.612   9.114
 1760POPC   C1A24843   4.197  42.325   8.746
 1760POPC   D2A24844   4.359  42.026   8.417
 1760POPC   C3A24845   4.221  42.077   8.004
 1760POPC   C4A24846   3.951  42.396   7.833
 1760POPC   C1B24847   4.668  42.501   8.679
 1760POPC   C2B24848   4.385  42.566   8.317
 1760POPC   C3B24849   4.446  42.524   7.885
 1760POPC   C4B24850   4.505  42.212   7.585
 1761POPC   NC324851  13.463   5.317   9.613
 1761POPC   PO424852  13.892   4.868   9.660
 1761POPC   GL124853  13.738   5.122   9.220
 1761POPC   GL224854  13.499   5.402   9.100
 1761POPC   C1A24855  13.567   5.011   8.756
 1761POPC   D2A24856  13.648   5.169   8.342
 1761POPC   C3A24857  13.597   4.959   7.931
 1761POPC   C4A24858  13.515   5.241   7.609
 1761POPC   C1B24859  13.884   5.409   8.801
 1761POPC   C2B24860  14.064   5.489   8.367
 1761POPC   C3B24861  13.920   5.365   7.923
 1761POPC   C4B24862  13.943   5.468   7.441
 1762POPC   NC324863  31.480  12.224   9.511
 1762POPC   PO424864  31.093  11.730   9.222
 1762POPC   GL124865  31.376  12.039   9.038
 1762POPC   GL224866  31.734  12.065   9.100
 1762POPC   C1A24867  31.457  12.007   8.626
 1762POPC   D2A24868  31.239  11.759   8.322
 1762POPC   C3A24869  31.163  12.052   7.988
 1762POPC   C4A24870  31.076  12.053   7.558
 1762POPC   C1B24871  31.872  12.341   8.794
 1762POPC   C2B24872  31.778  12.345   8.389
 1762POPC   C3B24873  31.842  12.411   7.970
 1762POPC   C4B24874  31.567  12.263   7.693
 1763POPC   NC324875   5.453  21.797   9.471
 1763POPC   PO424876   5.201  22.512   9.499
 1763POPC   GL124877   5.288  22.213   9.158
 1763POPC   GL224878   5.050  21.932   9.183
 1763POPC   C1A24879   5.156  22.212   8.713
 1763POPC   D2A24880   5.417  22.222   8.341
 1763POPC   C3A24881   5.293  22.374   7.925
 1763POPC   C4A24882   5.471  22.186   7.564
 1763POPC   C1B24883   4.826  21.812   8.825
 1763POPC   C2B24884   4.753  21.992   8.427
 1763POPC   C3B24885   4.821  21.861   8.016
 1763POPC   C4B24886   5.008  21.994   7.653
 1764POPC   NC324887   6.225  39.409   9.574
 1764POPC   PO424888   5.592  39.262   9.542
 1764POPC   GL124889   5.766  39.368   9.193
 1764POPC   GL224890   6.116  39.305   9.106
 1764POPC   C1A24891   5.714  39.145   8.821
 1764POPC   D2A24892   5.845  39.243   8.434
 1764POPC   C3A24893   5.732  38.939   8.136
 1764POPC   C4A24894   5.671  39.082   7.734
 1764POPC   C1B24895   6.369  39.092   8.820
 1764POPC   C2B24896   6.295  39.007   8.398
 1764POPC   C3B24897   6.172  39.162   7.994
 1764POPC   C4B24898   6.161  39.079   7.548
 1765POPC   NC324899  37.484  14.126   9.753
 1765POPC   PO424900  37.995  14.249   9.393
 1765POPC   GL124901  37.796  14.550   9.145
 1765POPC   GL224902  37.462  14.614   9.292
 1765POPC   C1A24903  37.769  14.407   8.764
 1765POPC   D2A24904  37.676  14.136   8.464
 1765POPC   C3A24905  37.906  14.197   8.130
 1765POPC   C4A24906  37.729  14.033   7.786
 1765POPC   C1B24907  37.357  14.688   8.859
 1765POPC   C2B24908  37.496  14.658   8.424
 1765POPC   C3B24909  37.485  14.449   8.027
 1765POPC   C4B24910  37.340  14.590   7.634
 1766POPC   NC324911  10.646   4.925   9.403
 1766POPC   PO424912   9.956   5.144   9.387
 1766POPC   GL124913  10.322   5.116   9.069
 1766POPC   GL224914  10.255   4.801   8.950
 1766POPC   C1A24915  10.709   5.237   8.775
 1766POPC   D2A24916  10.755   5.358   8.328
 1766POPC   C3A24917  10.396   5.156   8.120
 1766POPC   C4A24918  10.334   4.839   7.817
 1766POPC   C1B24919  10.660   4.743   8.733
 1766POPC   C2B24920  10.758   4.795   8.286
 1766POPC   C3B24921  10.791   4.584   7.860
 1766POPC   C4B24922  10.776   4.821   7.434
 1767POPC   NC324923  37.748  43.787   9.665
 1767POPC   PO424924  37.405  44.393   9.577
 1767POPC   GL124925  37.515  44.016   9.258
 1767POPC   GL224926  37.873  43.834   9.179
 1767POPC   C1A24927  37.669  44.075   8.808
 1767POPC   D2A24928  37.675  43.833   8.471
 1767POPC   C3A24929  37.755  44.066   8.130
 1767POPC   C4A24930  37.667  43.914   7.749
 1767POPC   C1B24931  38.015  43.614   8.817
 1767POPC   C2B24932  37.982  43.429   8.396
 1767POPC   C3B24933  38.046  43.643   8.005
 1767POPC   C4B24934  38.065  43.604   7.567
 1768POPC   NC324935   2.552   1.331   9.583
 1768POPC   PO424936   3.202   1.202   9.549
 1768POPC   GL124937   2.906   1.366   9.169
 1768POPC   GL224938   2.670   1.153   9.104
 1768POPC   C1A24939   2.761   1.309   8.665
 1768POPC   D2A24940   2.971   0.960   8.456
 1768POPC   C3A24941   2.939   1.000   8.016
 1768POPC   C4A24942   3.188   1.260   7.741
 1768POPC   C1B24943   2.414   0.958   8.764
 1768POPC   C2B24944   2.497   0.882   8.300
 1768POPC   C3B24945   2.341   1.020   7.890
 1768POPC   C4B24946   2.502   1.328   7.577
 1769POPC   NC324947  15.034   4.953   9.483
 1769POPC   PO424948  15.599   5.197   9.525
 1769POPC   GL124949  15.354   5.276   9.169
 1769POPC   GL224950  15.052   5.448   9.277
 1769POPC   C1A24951  15.251   4.979   8.845
 1769POPC   D2A24952  15.085   4.686   8.570
 1769POPC   C3A24953  15.099   4.949   8.210
 1769POPC   C4A24954  15.003   4.952   7.803
 1769POPC   C1B24955  14.911   5.341   8.875
 1769POPC   C2B24956  15.127   5.398   8.472
 1769POPC   C3B24957  14.939   5.460   8.050
 1769POPC   C4B24958  14.785   5.397   7.642
 1770POPC   NC324959  30.806  35.020   9.471
 1770POPC   PO424960  30.434  34.448   9.766
 1770POPC   GL124961  30.437  34.470   9.285
 1770POPC   GL224962  30.622  34.727   9.086
 1770POPC   C1A24963  30.365  34.328   8.851
 1770POPC   D2A24964  30.344  34.486   8.406
 1770POPC   C3A24965  30.501  34.262   8.051
 1770POPC   C4A24966  30.566  34.562   7.744
 1770POPC   C1B24967  30.631  34.843   8.632
 1770POPC   C2B24968  30.786  34.681   8.204
 1770POPC   C3B24969  30.988  34.837   7.807
 1770POPC   C4B24970  31.150  34.780   7.352
 1771POPC   NC324971  10.548  38.634   9.570
 1771POPC   PO424972  10.366  38.029   9.784
 1771POPC   GL124973  10.310  38.196   9.343
 1771POPC   GL224974  10.527  37.977   9.145
 1771POPC   C1A24975  10.282  38.345   8.893
 1771POPC   D2A24976  10.542  38.550   8.585
 1771POPC   C3A24977  10.407  38.788   8.291
 1771POPC   C4A24978  10.450  38.740   7.860
 1771POPC   C1B24979  10.775  38.168   8.798
 1771POPC   C2B24980  10.645  38.105   8.376
 1771POPC   C3B24981  10.548  38.237   7.960
 1771POPC   C4B24982  10.641  38.231   7.521
 1772POPC   NC324983   6.661  33.145   9.811
 1772POPC   PO424984   7.012  32.652   9.457
 1772POPC   GL124985   6.851  33.156   9.327
 1772POPC   GL224986   6.476  33.233   9.173
 1772POPC   C1A24987   6.892  33.334   8.909
 1772POPC   D2A24988   6.944  33.079   8.549
 1772POPC   C3A24989   7.047  33.277   8.179
 1772POPC   C4A24990   6.792  33.221   7.819
 1772POPC   C1B24991   6.436  33.087   8.713
 1772POPC   C2B24992   6.482  33.012   8.239
 1772POPC   C3B24993   6.327  33.008   7.801
 1772POPC   C4B24994   6.162  32.857   7.395
 1773POPC   NC324995   9.344   5.875   9.416
 1773POPC   PO424996   8.822   6.230   9.496
 1773POPC   GL124997   8.998   6.138   9.128
 1773POPC   GL224998   8.905   5.824   9.056
 1773POPC   C1A24999   9.051   6.337   8.719
 1773POPC   D2A25000   8.993   5.981   8.448
 1773POPC   C3A25001   9.078   6.006   8.038
 1773POPC   C4A25002   9.273   5.727   7.728
 1773POPC   C1B25003   8.611   5.589   8.801
 1773POPC   C2B25004   8.721   5.427   8.409
 1773POPC   C3B25005   8.982   5.503   8.091
 1773POPC   C4B25006   8.794   5.597   7.708
 1774POPC   NC325007  30.726  44.143   9.442
 1774POPC   PO425008  30.784  44.851   9.530
 1774POPC   GL125009  30.601  44.708   9.163
 1774POPC   GL225010  30.370  44.452   9.080
 1774POPC   C1A25011  30.792  44.526   8.821
 1774POPC   D2A25012  30.935  44.424   8.427
 1774POPC   C3A25013  30.686  44.617   8.154
 1774POPC   C4A25014  30.728  44.436   7.786
 1774POPC   C1B25015  30.242  44.647   8.691
 1774POPC   C2B25016  30.136  44.523   8.266
 1774POPC   C3B25017  30.238  44.575   7.810
 1774POPC   C4B25018  30.464  44.611   7.397
 1775POPC   NC325019  44.839  14.937   9.575
 1775POPC   PO425020  44.924  15.492   9.361
 1775POPC   GL125021  44.514  15.242   9.299
 1775POPC   GL225022  44.464  14.923   9.169
 1775POPC   C1A25023  44.385  15.331   8.893
 1775POPC   D2A25024  44.692  15.443   8.534
 1775POPC   C3A25025  44.789  15.269   8.094
 1775POPC   C4A25026  44.561  15.267   7.703
 1775POPC   C1B25027  44.770  15.012   8.851
 1775POPC   C2B25028  44.995  15.008   8.475
 1775POPC   C3B25029   0.039  14.788   8.094
 1775POPC   C4B25030  44.865  14.846   7.700
 1776POPC   NC325031  41.912  38.524   9.470
 1776POPC   PO425032  41.334  38.389   9.527
 1776POPC   GL125033  41.507  38.465   9.151
 1776POPC   GL225034  41.680  38.179   9.138
 1776POPC   C1A25035  41.364  38.523   8.752
 1776POPC   D2A25036  41.221  38.492   8.346
 1776POPC   C3A25037  41.423  38.655   7.988
 1776POPC   C4A25038  41.408  38.339   7.674
 1776POPC   C1B25039  41.847  38.349   8.751
 1776POPC   C2B25040  41.757  38.340   8.326
 1776POPC   C3B25041  41.915  38.389   7.951
 1776POPC   C4B25042  41.883  38.213   7.527
 1777POPC   NC325043  15.568  17.597   9.315
 1777POPC   PO425044  15.120  17.176   9.615
 1777POPC   GL125045  15.216  17.272   9.173
 1777POPC   GL225046  15.589  17.159   9.101
 1777POPC   C1A25047  15.136  17.559   8.790
 1777POPC   D2A25048  15.093  17.362   8.377
 1777POPC   C3A25049  15.059  17.630   8.039
 1777POPC   C4A25050  15.260  17.694   7.686
 1777POPC   C1B25051  15.454  17.160   8.712
 1777POPC   C2B25052  15.659  17.199   8.354
 1777POPC   C3B25053  15.439  17.264   7.997
 1777POPC   C4B25054  15.536  17.263   7.611
 1778POPC   NC325055  42.794  26.662   9.573
 1778POPC   PO425056  43.108  27.194   9.744
 1778POPC   GL125057  43.299  26.931   9.370
 1778POPC   GL225058  43.175  26.620   9.230
 1778POPC   C1A25059  43.232  26.991   8.896
 1778POPC   D2A25060  43.351  26.809   8.499
 1778POPC   C3A25061  43.196  26.898   8.097
 1778POPC   C4A25062  43.373  26.845   7.734
 1778POPC   C1B25063  43.192  26.454   8.807
 1778POPC   C2B25064  43.011  26.444   8.346
 1778POPC   C3B25065  42.945  26.511   7.879
 1778POPC   C4B25066  43.263  26.387   7.571
 1779POPC   NC325067  31.754  14.206   9.570
 1779POPC   PO425068  31.275  14.665   9.617
 1779POPC   GL125069  31.482  14.559   9.226
 1779POPC   GL225070  31.441  14.179   9.168
 1779POPC   C1A25071  31.431  14.516   8.772
 1779POPC   D2A25072  31.319  14.162   8.478
 1779POPC   C3A25073  31.302  14.136   8.026
 1779POPC   C4A25074  31.447  14.306   7.677
 1779POPC   C1B25075  31.821  14.200   8.919
 1779POPC   C2B25076  31.881  14.449   8.574
 1779POPC   C3B25077  31.729  14.381   8.190
 1779POPC   C4B25078  31.924  14.275   7.824
 1780POPC   NC325079  13.876  29.287   9.214
 1780POPC   PO425080  14.475  29.131   9.563
 1780POPC   GL125081  14.348  29.081   9.141
 1780POPC   GL225082  14.321  29.426   9.012
 1780POPC   C1A25083  14.268  28.766   8.799
 1780POPC   D2A25084  14.515  28.763   8.411
 1780POPC   C3A25085  14.456  28.547   8.024
 1780POPC   C4A25086  14.434  28.931   7.744
 1780POPC   C1B25087  14.116  29.233   8.619
 1780POPC   C2B25088  13.952  29.143   8.195
 1780POPC   C3B25089  14.134  29.328   7.808
 1780POPC   C4B25090  14.141  29.133   7.371
 1781POPC   NC325091  32.703  41.437   9.386
 1781POPC   PO425092  32.051  41.296   9.283
 1781POPC   GL125093  32.191  41.678   9.061
 1781POPC   GL225094  32.473  41.796   9.137
 1781POPC   C1A25095  32.217  41.712   8.658
 1781POPC   D2A25096  32.393  41.357   8.430
 1781POPC   C3A25097  32.152  41.310   8.028
 1781POPC   C4A25098  32.066  41.559   7.647
 1781POPC   C1B25099  32.732  41.799   8.789
 1781POPC   C2B25100  32.613  41.883   8.398
 1781POPC   C3B25101  32.544  41.666   8.053
 1781POPC   C4B25102  32.491  41.829   7.679
 1782POPC   NC325103   2.966  31.363   9.487
 1782POPC   PO425104   2.464  31.713   9.645
 1782POPC   GL125105   2.603  31.648   9.227
 1782POPC   GL225106   2.549  31.307   9.147
 1782POPC   C1A25107   2.868  31.584   8.839
 1782POPC   D2A25108   2.754  31.771   8.450
 1782POPC   C3A25109   2.749  31.627   8.029
 1782POPC   C4A25110   3.041  31.769   7.704
 1782POPC   C1B25111   2.368  31.500   8.780
 1782POPC   C2B25112   2.386  31.405   8.344
 1782POPC   C3B25113   2.319  31.219   7.944
 1782POPC   C4B25114   2.473  31.015   7.617
 1783POPC   NC325115  39.447  21.271   9.420
 1783POPC   PO425116  39.085  21.653   9.811
 1783POPC   GL125117  39.188  21.696   9.272
 1783POPC   GL225118  39.068  21.406   9.098
 1783POPC   C1A25119  39.416  21.616   8.796
 1783POPC   D2A25120  39.568  21.676   8.345
 1783POPC   C3A25121  39.300  21.664   7.965
 1783POPC   C4A25122  39.442  21.540   7.543
 1783POPC   C1B25123  39.172  21.147   8.768
 1783POPC   C2B25124  39.237  21.283   8.354
 1783POPC   C3B25125  39.210  21.154   7.931
 1783POPC   C4B25126  38.978  21.418   7.657
 1784POPC   NC325127  36.043   8.758   9.541
 1784POPC   PO425128  35.732   9.392   9.536
 1784POPC   GL125129  36.125   9.274   9.255
 1784POPC   GL225130  36.232   8.960   9.105
 1784POPC   C1A25131  36.226   9.401   8.813
 1784POPC   D2A25132  36.168   9.125   8.456
 1784POPC   C3A25133  36.190   9.285   8.044
 1784POPC   C4A25134  36.182   9.103   7.575
 1784POPC   C1B25135  36.008   8.743   8.785
 1784POPC   C2B25136  35.805   8.764   8.389
 1784POPC   C3B25137  35.969   8.837   7.999
 1784POPC   C4B25138  35.950   8.618   7.641
 1785POPC   NC325139   1.901  15.554   9.433
 1785POPC   PO425140   2.189  14.990   9.545
 1785POPC   GL125141   2.086  15.153   9.136
 1785POPC   GL225142   2.175  15.508   9.021
 1785POPC   C1A25143   1.927  15.153   8.726
 1785POPC   D2A25144   2.125  15.202   8.319
 1785POPC   C3A25145   2.060  15.099   7.899
 1785POPC   C4A25146   2.351  15.322   7.687
 1785POPC   C1B25147   1.863  15.672   8.761
 1785POPC   C2B25148   1.764  15.584   8.335
 1785POPC   C3B25149   1.962  15.596   7.937
 1785POPC   C4B25150   1.906  15.516   7.492
 1786POPC   NC325151  28.613  15.484   9.327
 1786POPC   PO425152  28.936  14.950   9.599
 1786POPC   GL125153  29.079  14.988   9.137
 1786POPC   GL225154  29.223  15.330   9.130
 1786POPC   C1A25155  29.263  14.996   8.700
 1786POPC   D2A25156  29.449  15.107   8.315
 1786POPC   C3A25157  29.171  15.044   7.967
 1786POPC   C4A25158  29.179  14.986   7.514
 1786POPC   C1B25159  29.205  15.601   8.764
 1786POPC   C2B25160  29.341  15.611   8.342
 1786POPC   C3B25161  29.336  15.525   7.899
 1786POPC   C4B25162  29.028  15.477   7.527
 1787POPC   NC325163  26.934  10.966   9.638
 1787POPC   PO425164  26.840  11.597   9.717
 1787POPC   GL125165  26.939  11.570   9.248
 1787POPC   GL225166  27.030  11.218   9.179
 1787POPC   C1A25167  26.799  11.451   8.786
 1787POPC   D2A25168  26.579  11.323   8.404
 1787POPC   C3A25169  26.758  11.377   7.956
 1787POPC   C4A25170  26.540  11.214   7.569
 1787POPC   C1B25171  26.949  10.925   8.818
 1787POPC   C2B25172  26.843  10.891   8.373
 1787POPC   C3B25173  26.975  10.883   7.943
 1787POPC   C4B25174  26.840  10.795   7.511
 1788POPC   NC325175  43.759  17.246   9.405
 1788POPC   PO425176  44.095  17.797   9.564
 1788POPC   GL125177  44.013  17.683   9.134
 1788POPC   GL225178  43.684  17.679   9.142
 1788POPC   C1A25179  43.919  17.361   8.781
 1788POPC   D2A25180  43.942  17.100   8.391
 1788POPC   C3A25181  44.169  17.362   8.096
 1788POPC   C4A25182  44.270  17.631   7.722
 1788POPC   C1B25183  43.749  17.857   8.712
 1788POPC   C2B25184  43.768  17.596   8.341
 1788POPC   C3B25185  43.684  17.369   7.978
 1788POPC   C4B25186  43.735  17.722   7.706
 1789POPC   NC325187  40.001  10.081   9.593
 1789POPC   PO425188  40.133  10.726   9.536
 1789POPC   GL125189  39.918  10.568   9.188
 1789POPC   GL225190  39.789  10.249   9.166
 1789POPC   C1A25191  40.098  10.449   8.774
 1789POPC   D2A25192  40.494  10.371   8.497
 1789POPC   C3A25193  40.363  10.354   8.038
 1789POPC   C4A25194  40.130  10.583   7.718
 1789POPC   C1B25195  39.561  10.384   8.851
 1789POPC   C2B25196  39.636  10.415   8.455
 1789POPC   C3B25197  39.797  10.584   8.109
 1789POPC   C4B25198  39.592  10.569   7.725
 1790POPC   NC325199  15.688  25.080   9.564
 1790POPC   PO425200  16.356  25.002   9.426
 1790POPC   GL125201  16.182  25.074   9.059
 1790POPC   GL225202  15.859  25.227   9.092
 1790POPC   C1A25203  16.022  24.952   8.665
 1790POPC   D2A25204  15.761  25.080   8.287
 1790POPC   C3A25205  15.929  24.937   7.884
 1790POPC   C4A25206  16.265  25.120   7.591
 1790POPC   C1B25207  15.934  25.469   8.705
 1790POPC   C2B25208  15.771  25.583   8.285
 1790POPC   C3B25209  15.993  25.443   7.904
 1790POPC   C4B25210  15.871  25.462   7.459
 1791POPC   NC325211  35.384  23.071   9.566
 1791POPC   PO425212  35.277  22.522   9.160
 1791POPC   GL125213  35.374  22.966   9.046
 1791POPC   GL225214  35.646  23.221   9.168
 1791POPC   C1A25215  35.287  22.980   8.604
 1791POPC   D2A25216  35.223  22.607   8.394
 1791POPC   C3A25217  35.081  22.708   8.011
 1791POPC   C4A25218  35.044  23.018   7.735
 1791POPC   C1B25219  35.686  23.249   8.748
 1791POPC   C2B25220  35.757  22.976   8.411
 1791POPC   C3B25221  35.526  22.931   8.071
 1791POPC   C4B25222  35.623  23.107   7.698
 1792POPC   NC325223  31.387   1.483   9.396
 1792POPC   PO425224  31.367   2.216   9.415
 1792POPC   GL125225  31.542   2.131   9.058
 1792POPC   GL225226  31.744   1.864   9.096
 1792POPC   C1A25227  31.476   2.284   8.681
 1792POPC   D2A25228  31.510   2.038   8.363
 1792POPC   C3A25229  31.541   2.257   8.024
 1792POPC   C4A25230  31.692   2.052   7.684
 1792POPC   C1B25231  31.533   1.668   8.758
 1792POPC   C2B25232  31.316   1.566   8.376
 1792POPC   C3B25233  31.408   1.714   7.947
 1792POPC   C4B25234  31.601   1.593   7.504
 1793POPC   NC325235   5.529  17.429   9.329
 1793POPC   PO425236   4.931  17.672   9.605
 1793POPC   GL125237   5.000  17.455   9.199
 1793POPC   GL225238   5.184  17.697   9.070
 1793POPC   C1A25239   5.056  17.236   8.778
 1793POPC   D2A25240   5.004  16.971   8.398
 1793POPC   C3A25241   4.818  17.148   8.035
 1793POPC   C4A25242   5.084  17.438   7.793
 1793POPC   C1B25243   4.899  17.721   8.723
 1793POPC   C2B25244   5.018  17.555   8.330
 1793POPC   C3B25245   5.326  17.769   8.063
 1793POPC   C4B25246   4.902  17.898   7.908
 1794POPC   NC325247   5.296  25.089   9.426
 1794POPC   PO425248   4.668  24.930   9.501
 1794POPC   GL125249   4.746  25.220   9.135
 1794POPC   GL225250   5.111  25.319   9.014
 1794POPC   C1A25251   4.743  25.419   8.711
 1794POPC   D2A25252   4.999  25.219   8.429
 1794POPC   C3A25253   5.022  25.354   7.997
 1794POPC   C4A25254   5.414  25.427   7.809
 1794POPC   C1B25255   5.374  25.019   8.772
 1794POPC   C2B25256   5.411  24.915   8.352
 1794POPC   C3B25257   5.434  24.951   7.936
 1794POPC   C4B25258   5.471  24.824   7.503
 1795POPC   NC325259  40.142  19.055   9.629
 1795POPC   PO425260  39.478  19.426   9.550
 1795POPC   GL125261  39.868  19.282   9.259
 1795POPC   GL225262  40.081  18.961   9.147
 1795POPC   C1A25263  39.950  19.268   8.779
 1795POPC   D2A25264  39.662  19.081   8.463
 1795POPC   C3A25265  39.671  19.098   8.000
 1795POPC   C4A25266  39.543  19.166   7.543
 1795POPC   C1B25267  40.295  18.839   8.743
 1795POPC   C2B25268  40.108  18.866   8.363
 1795POPC   C3B25269  40.172  19.138   8.038
 1795POPC   C4B25270  40.114  19.006   7.624
 1796POPC   NC325271  28.018  20.467   9.752
 1796POPC   PO425272  28.521  20.665   9.256
 1796POPC   GL125273  28.383  20.379   9.079
 1796POPC   GL225274  28.609  20.095   9.165
 1796POPC   C1A25275  28.320  20.530   8.657
 1796POPC   D2A25276  28.194  20.874   8.418
 1796POPC   C3A25277  28.214  20.680   8.029
 1796POPC   C4A25278  28.279  20.536   7.635
 1796POPC   C1B25279  28.732  20.233   8.729
 1796POPC   C2B25280  28.532  20.215   8.299
 1796POPC   C3B25281  28.680  20.364   7.903
 1796POPC   C4B25282  28.665  20.322   7.414
 1797POPC   NC325283   8.512  35.134   9.489
 1797POPC   PO425284   8.554  34.416   9.415
 1797POPC   GL125285   8.413  34.602   9.080
 1797POPC   GL225286   8.173  34.878   9.173
 1797POPC   C1A25287   8.129  34.437   8.762
 1797POPC   D2A25288   7.768  34.581   8.506
 1797POPC   C3A25289   7.847  34.610   8.053
 1797POPC   C4A25290   8.197  34.534   7.775
 1797POPC   C1B25291   8.248  34.941   8.740
 1797POPC   C2B25292   8.301  34.740   8.374
 1797POPC   C3B25293   8.315  34.950   8.038
 1797POPC   C4B25294   8.510  34.952   7.686
 1798POPC   NC325295  28.596  19.632   9.442
 1798POPC   PO425296  28.058  19.971   9.710
 1798POPC   GL125297  28.116  19.942   9.232
 1798POPC   GL225298  28.260  19.630   9.065
 1798POPC   C1A25299  28.220  20.029   8.770
 1798POPC   D2A25300  28.314  19.738   8.473
 1798POPC   C3A25301  28.213  19.820   8.095
 1798POPC   C4A25302  28.347  20.042   7.736
 1798POPC   C1B25303  28.687  19.710   8.814
 1798POPC   C2B25304  28.858  19.840   8.412
 1798POPC   C3B25305  28.709  19.775   7.971
 1798POPC   C4B25306  28.459  19.563   7.616
 1799POPC   NC325307  15.615  13.359   9.439
 1799POPC   PO425308  14.968  13.306   9.593
 1799POPC   GL125309  15.080  13.503   9.200
 1799POPC   GL225310  15.290  13.791   9.266
 1799POPC   C1A25311  14.959  13.457   8.769
 1799POPC   D2A25312  14.939  13.629   8.328
 1799POPC   C3A25313  15.310  13.596   8.057
 1799POPC   C4A25314  15.424  13.421   7.665
 1799POPC   C1B25315  15.230  13.886   8.835
 1799POPC   C2B25316  15.283  13.996   8.410
 1799POPC   C3B25317  15.055  14.042   8.009
 1799POPC   C4B25318  15.212  13.946   7.619
 1800POPC   NC325319  19.555  33.611   9.392
 1800POPC   PO425320  20.035  34.142   9.356
 1800POPC   GL125321  19.913  33.813   9.088
 1800POPC   GL225322  20.122  33.536   9.101
 1800POPC   C1A25323  19.812  33.596   8.697
 1800POPC   D2A25324  19.552  33.637   8.318
 1800POPC   C3A25325  19.577  34.007   8.040
 1800POPC   C4A25326  19.824  33.972   7.656
 1800POPC   C1B25327  20.369  33.446   8.748
 1800POPC   C2B25328  20.213  33.489   8.366
 1800POPC   C3B25329  20.011  33.719   8.068
 1800POPC   C4B25330  20.242  33.669   7.710
 1801POPC   NC325331   2.858   3.112   9.537
 1801POPC   PO425332   2.696   3.775   9.571
 1801POPC   GL125333   2.800   3.514   9.205
 1801POPC   GL225334   3.049   3.260   9.108
 1801POPC   C1A25335   2.529   3.448   8.865
 1801POPC   D2A25336   2.670   3.578   8.452
 1801POPC   C3A25337   2.565   3.762   8.039
 1801POPC   C4A25338   2.529   3.500   7.682
 1801POPC   C1B25339   2.910   3.161   8.731
 1801POPC   C2B25340   3.079   3.304   8.388
 1801POPC   C3B25341   2.933   3.348   7.992
 1801POPC   C4B25342   3.213   3.317   7.611
 1802POPC   NC325343  34.281   2.068   9.458
 1802POPC   PO425344  34.858   1.714   9.580
 1802POPC   GL125345  34.638   1.864   9.163
 1802POPC   GL225346  34.299   1.734   9.075
 1802POPC   C1A25347  34.514   2.011   8.723
 1802POPC   D2A25348  34.411   2.287   8.360
 1802POPC   C3A25349  34.615   2.199   7.958
 1802POPC   C4A25350  34.515   2.216   7.498
 1802POPC   C1B25351  34.152   1.637   8.660
 1802POPC   C2B25352  34.168   1.798   8.231
 1802POPC   C3B25353  34.329   1.799   7.790
 1802POPC   C4B25354  34.589   1.664   7.401
 1803POPC   NC325355  32.939  40.617   9.512
 1803POPC   PO425356  32.238  40.630   9.632
 1803POPC   GL125357  32.229  40.702   9.205
 1803POPC   GL225358  32.582  40.690   9.100
 1803POPC   C1A25359  32.121  40.730   8.783
 1803POPC   D2A25360  32.007  40.986   8.435
 1803POPC   C3A25361  32.135  40.786   8.080
 1803POPC   C4A25362  31.939  40.912   7.710
 1803POPC   C1B25363  32.729  41.051   8.847
 1803POPC   C2B25364  32.872  41.061   8.430
 1803POPC   C3B25365  32.608  41.046   8.084
 1803POPC   C4B25366  32.421  40.998   7.714
 1804POPC   NC325367   4.208   1.753   9.521
 1804POPC   PO425368   4.666   2.163   9.758
 1804POPC   GL125369   4.614   2.277   9.234
 1804POPC   GL225370   4.259   2.121   9.149
 1804POPC   C1A25371   4.596   2.071   8.781
 1804POPC   D2A25372   4.412   1.997   8.360
 1804POPC   C3A25373   4.640   2.011   8.003
 1804POPC   C4A25374   4.807   2.218   7.672
 1804POPC   C1B25375   4.098   1.899   8.753
 1804POPC   C2B25376   3.915   1.897   8.310
 1804POPC   C3B25377   4.141   1.781   7.935
 1804POPC   C4B25378   4.315   1.963   7.558
 1805POPC   NC325379  31.100  10.816   9.386
 1805POPC   PO425380  31.608  10.405   9.711
 1805POPC   GL125381  31.462  10.453   9.277
 1805POPC   GL225382  31.550  10.763   9.134
 1805POPC   C1A25383  31.414  10.376   8.782
 1805POPC   D2A25384  31.699  10.276   8.381
 1805POPC   C3A25385  31.671  10.417   7.920
 1805POPC   C4A25386  31.663  10.668   7.489
 1805POPC   C1B25387  31.435  10.884   8.721
 1805POPC   C2B25388  31.518  10.753   8.285
 1805POPC   C3B25389  31.332  10.834   7.877
 1805POPC   C4B25390  31.046  11.128   7.705
 1806POPC   NC325391  19.967  27.069   9.348
 1806POPC   PO425392  19.787  26.459   9.434
 1806POPC   GL125393  19.771  26.655   9.072
 1806POPC   GL225394  19.514  26.903   9.148
 1806POPC   C1A25395  20.088  26.714   8.750
 1806POPC   D2A25396  20.268  26.498   8.400
 1806POPC   C3A25397  20.109  26.657   7.964
 1806POPC   C4A25398  19.734  26.655   7.711
 1806POPC   C1B25399  19.669  27.008   8.716
 1806POPC   C2B25400  19.723  26.871   8.263
 1806POPC   C3B25401  19.496  27.040   7.912
 1806POPC   C4B25402  19.711  27.332   7.681
 1807POPC   NC325403  23.401   0.218   9.544
 1807POPC   PO425404  24.104   0.083   9.590
 1807POPC   GL125405  23.994   0.358   9.230
 1807POPC   GL225406  23.627   0.491   9.200
 1807POPC   C1A25407  23.855   0.275   8.803
 1807POPC   D2A25408  24.024   0.217   8.403
 1807POPC   C3A25409  23.756   0.338   8.081
 1807POPC   C4A25410  23.841   0.192   7.718
 1807POPC   C1B25411  23.339   0.328   8.835
 1807POPC   C2B25412  23.317   0.447   8.378
 1807POPC   C3B25413  23.260   0.608   7.948
 1807POPC   C4B25414  23.479   0.716   7.559
 1808POPC   NC325415  31.344   6.777   9.323
 1808POPC   PO425416  31.773   6.194   9.312
 1808POPC   GL125417  31.350   6.190   9.089
 1808POPC   GL225418  31.209   6.504   8.929
 1808POPC   C1A25419  31.278   6.106   8.638
 1808POPC   D2A25420  31.325   6.477   8.364
 1808POPC   C3A25421  31.283   6.568   7.923
 1808POPC   C4A25422  31.588   6.324   7.690
 1808POPC   C1B25423  31.580   6.704   8.749
 1808POPC   C2B25424  31.681   6.857   8.391
 1808POPC   C3B25425  31.766   6.651   8.061
 1808POPC   C4B25426  31.723   6.805   7.700
 1809POPC   NC325427   9.963  44.106   9.470
 1809POPC   PO425428   9.914  44.847   9.512
 1809POPC   GL125429   9.746  44.585   9.206
 1809POPC   GL225430   9.377  44.445   9.287
 1809POPC   C1A25431   9.831  44.793   8.783
 1809POPC   D2A25432   9.751  44.624   8.381
 1809POPC   C3A25433   9.778  44.839   7.998
 1809POPC   C4A25434   9.971  44.670   7.635
 1809POPC   C1B25435   9.400  44.525   8.839
 1809POPC   C2B25436   9.336  44.332   8.431
 1809POPC   C3B25437   9.526  44.344   7.990
 1809POPC   C4B25438   9.490  44.528   7.560
 1810POPC   NC325439  32.754  39.157   9.539
 1810POPC   PO425440  33.329  39.532   9.598
 1810POPC   GL125441  33.087  39.590   9.184
 1810POPC   GL225442  32.730  39.516   9.158
 1810POPC   C1A25443  32.973  39.657   8.738
 1810POPC   D2A25444  32.673  39.439   8.450
 1810POPC   C3A25445  32.765  39.486   8.014
 1810POPC   C4A25446  33.109  39.339   7.773
 1810POPC   C1B25447  32.912  39.166   8.888
 1810POPC   C2B25448  32.882  38.946   8.490
 1810POPC   C3B25449  32.905  38.934   8.049
 1810POPC   C4B25450  33.212  38.776   7.770
 1811POPC   NC325451  42.674  27.362   9.804
 1811POPC   PO425452  43.242  27.704   9.449
 1811POPC   GL125453  43.189  27.393   9.187
 1811POPC   GL225454  42.865  27.191   9.283
 1811POPC   C1A25455  43.275  27.501   8.747
 1811POPC   D2A25456  42.953  27.723   8.457
 1811POPC   C3A25457  43.103  27.937   8.051
 1811POPC   C4A25458  42.951  27.935   7.644
 1811POPC   C1B25459  42.822  27.286   8.835
 1811POPC   C2B25460  43.005  27.221   8.423
 1811POPC   C3B25461  43.063  27.420   8.018
 1811POPC   C4B25462  42.969  27.446   7.568
 1812POPC   NC325463   3.680  21.753   9.567
 1812POPC   PO425464   3.275  21.238   9.414
 1812POPC   GL125465   3.399  21.597   9.151
 1812POPC   GL225466   3.755  21.620   9.036
 1812POPC   C1A25467   3.400  21.825   8.738
 1812POPC   D2A25468   3.462  21.882   8.322
 1812POPC   C3A25469   3.696  21.537   8.193
 1812POPC   C4A25470   3.786  21.408   7.794
 1812POPC   C1B25471   3.519  21.307   8.750
 1812POPC   C2B25472   3.498  21.069   8.359
 1812POPC   C3B25473   3.346  21.197   7.953
 1812POPC   C4B25474   3.391  21.240   7.519
 1813POPC   NC325475  38.719  40.886   9.451
 1813POPC   PO425476  38.089  40.838   9.369
 1813POPC   GL125477  38.352  41.016   9.109
 1813POPC   GL225478  38.444  40.668   9.039
 1813POPC   C1A25479  38.628  41.031   8.745
 1813POPC   D2A25480  38.505  40.832   8.362
 1813POPC   C3A25481  38.610  41.039   7.971
 1813POPC   C4A25482  38.502  41.139   7.559
 1813POPC   C1B25483  38.678  40.497   8.708
 1813POPC   C2B25484  38.894  40.499   8.301
 1813POPC   C3B25485  38.744  40.417   7.950
 1813POPC   C4B25486  38.525  40.606   7.647
 1814POPC   NC325487  25.857  24.095   9.461
 1814POPC   PO425488  26.038  23.423   9.607
 1814POPC   GL125489  26.017  23.490   9.144
 1814POPC   GL225490  25.893  23.825   9.041
 1814POPC   C1A25491  26.050  23.471   8.690
 1814POPC   D2A25492  26.110  23.727   8.329
 1814POPC   C3A25493  26.278  23.502   7.992
 1814POPC   C4A25494  26.033  23.251   7.730
 1814POPC   C1B25495  25.897  24.101   8.671
 1814POPC   C2B25496  25.756  24.070   8.228
 1814POPC   C3B25497  26.040  23.971   7.861
 1814POPC   C4B25498  25.923  23.932   7.432
 1815POPC   NC325499   8.718  16.133   9.629
 1815POPC   PO425500   9.279  15.830   9.684
 1815POPC   GL125501   9.002  15.817   9.296
 1815POPC   GL225502   8.881  16.119   9.114
 1815POPC   C1A25503   9.018  15.704   8.855
 1815POPC   D2A25504   8.876  15.905   8.461
 1815POPC   C3A25505   9.015  15.769   8.051
 1815POPC   C4A25506   9.140  15.515   7.739
 1815POPC   C1B25507   8.612  16.281   8.737
 1815POPC   C2B25508   8.552  16.301   8.266
 1815POPC   C3B25509   8.844  16.264   7.900
 1815POPC   C4B25510   8.916  16.335   7.420
 1816POPC   NC325511  36.175  39.233   9.536
 1816POPC   PO425512  36.117  39.870   9.671
 1816POPC   GL125513  36.036  39.590   9.207
 1816POPC   GL225514  36.335  39.341   9.083
 1816POPC   C1A25515  36.016  39.460   8.727
 1816POPC   D2A25516  36.249  39.083   8.556
 1816POPC   C3A25517  36.115  38.932   8.170
 1816POPC   C4A25518  36.094  38.889   7.715
 1816POPC   C1B25519  36.511  39.512   8.719
 1816POPC   C2B25520  36.356  39.523   8.300
 1816POPC   C3B25521  36.387  39.284   7.913
 1816POPC   C4B25522  36.223  39.362   7.488
 1817POPC   NC325523  24.292  35.036   9.580
 1817POPC   PO425524  24.482  35.680   9.446
 1817POPC   GL125525  24.634  35.377   9.159
 1817POPC   GL225526  24.313  35.312   9.134
 1817POPC   C1A25527  24.633  35.417   8.692
 1817POPC   D2A25528  24.405  35.572   8.311
 1817POPC   C3A25529  24.583  35.410   7.945
 1817POPC   C4A25530  24.644  35.589   7.560
 1817POPC   C1B25531  24.091  35.113   8.813
 1817POPC   C2B25532  24.279  35.080   8.419
 1817POPC   C3B25533  24.152  35.143   8.017
 1817POPC   C4B25534  24.204  35.269   7.601
 1818POPC   NC325535  21.859  22.713   9.586
 1818POPC   PO425536  22.502  22.733   9.545
 1818POPC   GL125537  22.188  22.919   9.190
 1818POPC   GL225538  21.837  22.872   9.105
 1818POPC   C1A25539  22.138  23.046   8.715
 1818POPC   D2A25540  22.416  23.141   8.305
 1818POPC   C3A25541  22.535  22.860   7.930
 1818POPC   C4A25542  22.431  22.531   7.626
 1818POPC   C1B25543  21.942  22.513   8.831
 1818POPC   C2B25544  21.887  22.407   8.372
 1818POPC   C3B25545  22.014  22.662   7.972
 1818POPC   C4B25546  21.921  23.058   7.745
 1819POPC   NC325547  34.214  16.491   9.338
 1819POPC   PO425548  34.460  17.080   9.554
 1819POPC   GL125549  34.462  16.907   9.128
 1819POPC   GL225550  34.787  16.819   8.998
 1819POPC   C1A25551  34.394  16.682   8.711
 1819POPC   D2A25552  34.294  16.851   8.299
 1819POPC   C3A25553  34.268  16.637   7.907
 1819POPC   C4A25554  34.321  16.724   7.467
 1819POPC   C1B25555  34.928  16.566   8.696
 1819POPC   C2B25556  34.813  16.818   8.389
 1819POPC   C3B25557  34.732  16.972   8.022
 1819POPC   C4B25558  34.764  16.723   7.706
 1820POPC   NC325559  40.739  16.603   9.806
 1820POPC   PO425560  40.433  17.129   9.554
 1820POPC   GL125561  40.582  16.951   9.148
 1820POPC   GL225562  40.740  16.583   9.189
 1820POPC   C1A25563  40.521  16.762   8.770
 1820POPC   D2A25564  40.682  16.857   8.419
 1820POPC   C3A25565  40.576  16.698   8.075
 1820POPC   C4A25566  40.671  16.873   7.740
 1820POPC   C1B25567  40.822  16.337   8.801
 1820POPC   C2B25568  40.634  16.295   8.420
 1820POPC   C3B25569  40.821  16.256   8.035
 1820POPC   C4B25570  40.583  16.294   7.699
 1821POPC   NC325571  42.303  34.321   9.517
 1821POPC   PO425572  42.416  34.951   9.870
 1821POPC   GL125573  42.293  34.879   9.384
 1821POPC   GL225574  42.438  34.624   9.141
 1821POPC   C1A25575  42.075  34.904   8.925
 1821POPC   D2A25576  42.295  34.737   8.506
 1821POPC   C3A25577  42.225  34.641   8.047
 1821POPC   C4A25578  42.423  34.346   7.733
 1821POPC   C1B25579  42.161  34.389   8.862
 1821POPC   C2B25580  42.043  34.083   8.572
 1821POPC   C3B25581  42.137  34.125   8.152
 1821POPC   C4B25582  41.937  34.278   7.809
 1822POPC   NC325583  30.503  38.189   9.460
 1822POPC   PO425584  30.656  38.875   9.596
 1822POPC   GL125585  30.680  38.650   9.191
 1822POPC   GL225586  30.932  38.371   9.172
 1822POPC   C1A25587  30.769  38.576   8.744
 1822POPC   D2A25588  30.915  38.326   8.415
 1822POPC   C3A25589  30.810  38.585   8.107
 1822POPC   C4A25590  30.789  38.672   7.698
 1822POPC   C1B25591  30.726  38.096   8.861
 1822POPC   C2B25592  30.415  38.204   8.543
 1822POPC   C3B25593  30.516  38.158   8.098
 1822POPC   C4B25594  30.908  38.161   7.840
 1823POPC   NC325595   0.654  38.793   9.642
 1823POPC   PO425596   0.259  38.298   9.473
 1823POPC   GL125597   0.446  38.313   9.084
 1823POPC   GL225598   0.473  38.658   9.142
 1823POPC   C1A25599   0.384  38.379   8.638
 1823POPC   D2A25600   0.239  38.642   8.309
 1823POPC   C3A25601   0.400  38.603   7.879
 1823POPC   C4A25602   0.276  38.362   7.525
 1823POPC   C1B25603   0.780  38.614   8.790
 1823POPC   C2B25604   0.800  38.438   8.325
 1823POPC   C3B25605   0.913  38.516   7.873
 1823POPC   C4B25606   0.736  38.651   7.461
 1824POPC   NC325607  30.774   9.900   9.619
 1824POPC   PO425608  30.310   9.405   9.509
 1824POPC   GL125609  30.498   9.666   9.202
 1824POPC   GL225610  30.861   9.713   9.157
 1824POPC   C1A25611  30.524   9.717   8.766
 1824POPC   D2A25612  30.775   9.791   8.412
 1824POPC   C3A25613  30.513   9.658   8.087
 1824POPC   C4A25614  30.513   9.818   7.723
 1824POPC   C1B25615  30.968   9.452   8.840
 1824POPC   C2B25616  31.197   9.481   8.463
 1824POPC   C3B25617  31.052   9.371   8.064
 1824POPC   C4B25618  30.979   9.676   7.781
 1825POPC   NC325619  25.686  39.452   9.585
 1825POPC   PO425620  26.357  39.361   9.497
 1825POPC   GL125621  26.083  39.448   9.173
 1825POPC   GL225622  25.783  39.246   9.130
 1825POPC   C1A25623  26.146  39.386   8.748
 1825POPC   D2A25624  26.200  39.131   8.365
 1825POPC   C3A25625  26.036  39.178   7.949
 1825POPC   C4A25626  26.359  39.098   7.629
 1825POPC   C1B25627  25.646  39.355   8.712
 1825POPC   C2B25628  25.658  39.181   8.313
 1825POPC   C3B25629  25.567  39.374   7.914
 1825POPC   C4B25630  25.661  39.386   7.464
 1826POPC   NC325631  22.884  25.773   9.818
 1826POPC   PO425632  23.001  25.184   9.578
 1826POPC   GL125633  22.824  25.128   9.197
 1826POPC   GL225634  22.528  24.957   9.274
 1826POPC   C1A25635  22.899  25.248   8.806
 1826POPC   D2A25636  23.000  25.484   8.459
 1826POPC   C3A25637  22.853  25.330   8.081
 1826POPC   C4A25638  23.089  25.411   7.669
 1826POPC   C1B25639  22.594  24.824   8.863
 1826POPC   C2B25640  22.669  24.953   8.462
 1826POPC   C3B25641  22.685  24.826   8.069
 1826POPC   C4B25642  22.716  25.059   7.675
 1827POPC   NC325643  35.209  33.264   9.833
 1827POPC   PO425644  35.002  32.705   9.488
 1827POPC   GL125645  35.235  32.817   9.097
 1827POPC   GL225646  35.222  33.167   9.075
 1827POPC   C1A25647  35.297  32.918   8.629
 1827POPC   D2A25648  35.112  32.646   8.296
 1827POPC   C3A25649  35.219  32.767   7.927
 1827POPC   C4A25650  35.651  32.868   7.787
 1827POPC   C1B25651  35.143  33.405   8.696
 1827POPC   C2B25652  35.460  33.484   8.386
 1827POPC   C3B25653  35.585  33.347   8.025
 1827POPC   C4B25654  35.232  33.254   7.847
 1828POPC   NC325655  38.906  37.072   9.476
 1828POPC   PO425656  38.232  36.985   9.520
 1828POPC   GL125657  38.265  36.888   9.132
 1828POPC   GL225658  38.625  36.920   9.073
 1828POPC   C1A25659  38.238  37.041   8.748
 1828POPC   D2A25660  38.423  36.939   8.374
 1828POPC   C3A25661  38.148  36.972   8.053
 1828POPC   C4A25662  38.171  36.917   7.634
 1828POPC   C1B25663  38.712  37.242   8.714
 1828POPC   C2B25664  38.823  37.238   8.264
 1828POPC   C3B25665  38.623  37.084   7.895
 1828POPC   C4B25666  38.645  37.094   7.447
 1829POPC   NC325667  24.984  36.848   9.482
 1829POPC   PO425668  25.635  36.668   9.547
 1829POPC   GL125669  25.406  36.890   9.164
 1829POPC   GL225670  25.106  37.118   9.091
 1829POPC   C1A25671  25.230  36.824   8.725
 1829POPC   D2A25672  25.415  36.951   8.346
 1829POPC   C3A25673  25.289  36.664   8.072
 1829POPC   C4A25674  24.947  36.601   7.824
 1829POPC   C1B25675  25.141  37.318   8.673
 1829POPC   C2B25676  25.114  37.347   8.207
 1829POPC   C3B25677  25.115  37.105   7.866
 1829POPC   C4B25678  24.950  37.008   7.470
 1830POPC   NC325679  30.526   6.224   9.479
 1830POPC   PO425680  30.677   5.622   9.705
 1830POPC   GL125681  30.704   5.782   9.244
 1830POPC   GL225682  30.460   5.629   8.999
 1830POPC   C1A25683  30.848   5.848   8.787
 1830POPC   D2A25684  30.583   5.751   8.408
 1830POPC   C3A25685  30.707   5.930   8.030
 1830POPC   C4A25686  30.838   5.902   7.607
 1830POPC   C1B25687  30.393   6.057   8.788
 1830POPC   C2B25688  30.331   6.206   8.373
 1830POPC   C3B25689  30.195   5.941   8.046
 1830POPC   C4B25690  30.367   6.175   7.717
 1831POPC   NC325691  20.982  31.772   9.574
 1831POPC   PO425692  20.327  31.651   9.715
 1831POPC   GL125693  20.346  31.663   9.270
 1831POPC   GL225694  20.697  31.715   9.164
 1831POPC   C1A25695  20.383  31.425   8.880
 1831POPC   D2A25696  20.617  31.336   8.494
 1831POPC   C3A25697  20.437  31.526   8.129
 1831POPC   C4A25698  20.425  31.364   7.712
 1831POPC   C1B25699  20.948  31.623   8.801
 1831POPC   C2B25700  20.913  31.754   8.378
 1831POPC   C3B25701  20.871  31.732   7.959
 1831POPC   C4B25702  20.936  31.406   7.742
 1832POPC   NC325703  15.441   6.442   9.911
 1832POPC   PO425704  16.047   6.686   9.550
 1832POPC   GL125705  15.874   6.807   9.158
 1832POPC   GL225706  16.155   7.018   9.106
 1832POPC   C1A25707  15.794   6.505   8.824
 1832POPC   D2A25708  16.001   6.328   8.488
 1832POPC   C3A25709  15.811   6.555   8.176
 1832POPC   C4A25710  15.800   6.566   7.750
 1832POPC   C1B25711  16.297   6.639   8.851
 1832POPC   C2B25712  16.451   6.605   8.401
 1832POPC   C3B25713  16.254   6.726   7.992
 1832POPC   C4B25714  16.237   6.717   7.547
 1833POPC   NC325715  21.719  11.088   9.512
 1833POPC   PO425716  21.135  11.432   9.653
 1833POPC   GL125717  21.127  11.346   9.250
 1833POPC   GL225718  21.461  11.397   9.166
 1833POPC   C1A25719  21.070  11.218   8.844
 1833POPC   D2A25720  21.316  11.251   8.493
 1833POPC   C3A25721  21.231  11.033   8.143
 1833POPC   C4A25722  21.307  11.170   7.741
 1833POPC   C1B25723  21.771  11.600   8.881
 1833POPC   C2B25724  21.807  11.306   8.559
 1833POPC   C3B25725  21.697  11.245   8.117
 1833POPC   C4B25726  21.896  11.407   7.760
 1834POPC   NC325727  35.818  29.492   9.520
 1834POPC   PO425728  35.726  28.848   9.426
 1834POPC   GL125729  36.092  28.921   9.155
 1834POPC   GL225730  36.160  29.290   9.164
 1834POPC   C1A25731  36.201  29.001   8.717
 1834POPC   D2A25732  36.204  29.210   8.292
 1834POPC   C3A25733  36.107  28.965   7.905
 1834POPC   C4A25734  36.127  28.965   7.431
 1834POPC   C1B25735  36.082  29.489   8.759
 1834POPC   C2B25736  35.739  29.458   8.455
 1834POPC   C3B25737  35.763  29.312   8.032
 1834POPC   C4B25738  36.107  29.417   7.692
 1835POPC   NC325739   2.492   9.404   9.484
 1835POPC   PO425740   2.491  10.099   9.658
 1835POPC   GL125741   2.707   9.816   9.285
 1835POPC   GL225742   2.769  10.041   9.035
 1835POPC   C1A25743   2.972   9.617   8.901
 1835POPC   D2A25744   2.984   9.868   8.505
 1835POPC   C3A25745   3.054   9.639   8.142
 1835POPC   C4A25746   3.127   9.696   7.716
 1835POPC   C1B25747   2.528   9.826   8.743
 1835POPC   C2B25748   2.477   9.688   8.323
 1835POPC   C3B25749   2.603   9.651   7.909
 1835POPC   C4B25750   2.415   9.338   7.717
 1836POPC   NC325751  14.346  27.114   9.478
 1836POPC   PO425752  14.498  26.473   9.603
 1836POPC   GL125753  14.517  26.705   9.233
 1836POPC   GL225754  14.168  26.751   9.128
 1836POPC   C1A25755  14.550  26.955   8.849
 1836POPC   D2A25756  14.344  26.850   8.533
 1836POPC   C3A25757  14.561  26.781   8.158
 1836POPC   C4A25758  14.334  26.794   7.788
 1836POPC   C1B25759  14.061  27.141   8.875
 1836POPC   C2B25760  13.906  27.158   8.476
 1836POPC   C3B25761  14.121  27.089   8.150
 1836POPC   C4B25762  13.997  27.201   7.780
 1837POPC   NC325763  43.483  39.445   9.452
 1837POPC   PO425764  44.103  39.178   9.666
 1837POPC   GL125765  43.986  39.151   9.231
 1837POPC   GL225766  43.661  38.977   9.187
 1837POPC   C1A25767  43.852  39.347   8.818
 1837POPC   D2A25768  44.092  39.439   8.413
 1837POPC   C3A25769  43.913  39.440   8.056
 1837POPC   C4A25770  44.059  39.257   7.717
 1837POPC   C1B25771  43.499  38.962   8.742
 1837POPC   C2B25772  43.539  39.161   8.324
 1837POPC   C3B25773  43.466  39.012   7.904
 1837POPC   C4B25774  43.427  38.989   7.440
 1838POPC   NC325775  13.349  27.188   9.425
 1838POPC   PO425776  13.376  27.873   9.541
 1838POPC   GL125777  13.448  27.666   9.165
 1838POPC   GL225778  13.760  27.497   9.103
 1838POPC   C1A25779  13.570  27.838   8.778
 1838POPC   D2A25780  13.405  27.959   8.397
 1838POPC   C3A25781  13.590  27.800   8.044
 1838POPC   C4A25782  13.839  27.719   7.698
 1838POPC   C1B25783  13.538  27.287   8.797
 1838POPC   C2B25784  13.406  27.360   8.384
 1838POPC   C3B25785  13.514  27.316   7.963
 1838POPC   C4B25786  13.524  27.107   7.600
 1839POPC   NC325787  43.404  43.014   9.334
 1839POPC   PO425788  42.815  43.157   9.492
 1839POPC   GL125789  42.945  43.374   9.129
 1839POPC   GL225790  43.298  43.492   9.165
 1839POPC   C1A25791  42.927  43.151   8.740
 1839POPC   D2A25792  43.182  43.058   8.380
 1839POPC   C3A25793  42.965  43.072   7.998
 1839POPC   C4A25794  42.986  42.852   7.614
 1839POPC   C1B25795  43.417  43.334   8.770
 1839POPC   C2B25796  43.531  43.488   8.373
 1839POPC   C3B25797  43.384  43.414   7.965
 1839POPC   C4B25798  43.430  43.034   7.784
 1840POPC   NC325799  34.664  34.788   9.395
 1840POPC   PO425800  34.159  34.367   9.533
 1840POPC   GL125801  34.286  34.480   9.146
 1840POPC   GL225802  34.580  34.327   9.168
 1840POPC   C1A25803  34.425  34.658   8.759
 1840POPC   D2A25804  34.767  34.705   8.490
 1840POPC   C3A25805  34.593  34.860   8.128
 1840POPC   C4A25806  34.719  34.807   7.719
 1840POPC   C1B25807  34.818  34.321   8.830
 1840POPC   C2B25808  34.776  34.184   8.423
 1840POPC   C3B25809  34.851  34.414   8.025
 1840POPC   C4B25810  34.838  34.361   7.514
 1841POPC   NC325811   9.673   7.258   9.492
 1841POPC   PO425812   9.672   6.574   9.501
 1841POPC   GL125813   9.795   6.710   9.084
 1841POPC   GL225814  10.121   6.904   9.004
 1841POPC   C1A25815   9.730   6.449   8.725
 1841POPC   D2A25816   9.449   6.662   8.462
 1841POPC   C3A25817   9.631   6.891   8.107
 1841POPC   C4A25818   9.455   6.893   7.709
 1841POPC   C1B25819   9.950   6.863   8.546
 1841POPC   C2B25820   9.909   6.496   8.241
 1841POPC   C3B25821   9.863   6.563   7.799
 1841POPC   C4B25822  10.021   6.986   7.667
 1842POPC   NC325823  28.607   8.450   9.511
 1842POPC   PO425824  27.946   8.388   9.433
 1842POPC   GL125825  28.262   8.311   9.101
 1842POPC   GL225826  28.160   8.031   8.918
 1842POPC   C1A25827  28.327   8.396   8.628
 1842POPC   D2A25828  28.577   8.208   8.274
 1842POPC   C3A25829  28.480   8.407   7.903
 1842POPC   C4A25830  28.092   8.622   7.709
 1842POPC   C1B25831  28.634   8.034   8.824
 1842POPC   C2B25832  28.885   7.844   8.504
 1842POPC   C3B25833  28.735   7.745   8.082
 1842POPC   C4B25834  28.617   7.899   7.687
 1843POPC   NC325835  36.409  19.298   9.809
 1843POPC   PO425836  36.008  18.854   9.530
 1843POPC   GL125837  36.126  18.848   9.110
 1843POPC   GL225838  36.325  19.125   9.157
 1843POPC   C1A25839  36.024  18.933   8.670
 1843POPC   D2A25840  36.280  19.018   8.344
 1843POPC   C3A25841  36.279  18.819   7.957
 1843POPC   C4A25842  36.301  19.044   7.603
 1843POPC   C1B25843  36.314  19.340   8.757
 1843POPC   C2B25844  36.369  19.523   8.361
 1843POPC   C3B25845  36.162  19.379   7.979
 1843POPC   C4B25846  36.388  19.553   7.635
 1844POPC   NC325847   0.960  19.724   9.666
 1844POPC   PO425848   1.385  20.096   9.262
 1844POPC   GL125849   1.351  19.782   9.073
 1844POPC   GL225850   0.993  19.704   9.146
 1844POPC   C1A25851   1.414  19.880   8.634
 1844POPC   D2A25852   1.193  20.048   8.286
 1844POPC   C3A25853   1.356  19.994   7.860
 1844POPC   C4A25854   1.285  20.273   7.528
 1844POPC   C1B25855   1.111  19.493   8.748
 1844POPC   C2B25856   1.190  19.510   8.337
 1844POPC   C3B25857   1.023  19.644   7.998
 1844POPC   C4B25858   1.280  19.474   7.696
 1845POPC   NC325859  42.241  30.965   9.671
 1845POPC   PO425860  42.227  30.451   9.232
 1845POPC   GL125861  42.344  30.901   9.163
 1845POPC   GL225862  42.704  30.996   9.161
 1845POPC   C1A25863  42.376  30.909   8.728
 1845POPC   D2A25864  42.521  30.570   8.481
 1845POPC   C3A25865  42.283  30.580   8.113
 1845POPC   C4A25866  42.559  30.530   7.763
 1845POPC   C1B25867  42.723  31.258   8.793
 1845POPC   C2B25868  42.712  31.227   8.377
 1845POPC   C3B25869  42.657  30.912   8.080
 1845POPC   C4B25870  42.500  31.013   7.688
 1846POPC   NC325871  11.300  42.861   9.523
 1846POPC   PO425872  10.921  43.342   9.249
 1846POPC   GL125873  11.224  43.077   9.065
 1846POPC   GL225874  11.540  43.149   9.137
 1846POPC   C1A25875  11.398  43.014   8.662
 1846POPC   D2A25876  11.178  43.091   8.300
 1846POPC   C3A25877  11.384  42.891   7.991
 1846POPC   C4A25878  11.245  42.962   7.590
 1846POPC   C1B25879  11.503  43.497   8.825
 1846POPC   C2B25880  11.597  43.409   8.385
 1846POPC   C3B25881  11.442  43.409   7.959
 1846POPC   C4B25882  11.671  43.542   7.617
 1847POPC   NC325883  42.210   8.085   9.543
 1847POPC   PO425884  42.196   8.696   9.248
 1847POPC   GL125885  42.353   8.283   9.116
 1847POPC   GL225886  42.710   8.135   9.136
 1847POPC   C1A25887  42.335   8.020   8.771
 1847POPC   D2A25888  42.310   8.208   8.370
 1847POPC   C3A25889  41.966   8.032   8.133
 1847POPC   C4A25890  42.131   7.768   7.838
 1847POPC   C1B25891  42.678   8.456   8.785
 1847POPC   C2B25892  42.748   8.511   8.348
 1847POPC   C3B25893  42.561   8.516   7.925
 1847POPC   C4B25894  42.641   8.265   7.557
 1848POPC   NC325895  16.987  37.300   9.527
 1848POPC   PO425896  16.373  37.594   9.552
 1848POPC   GL125897  16.545  37.333   9.202
 1848POPC   GL225898  16.834  37.536   9.092
 1848POPC   C1A25899  16.564  37.321   8.733
 1848POPC   D2A25900  16.776  37.495   8.345
 1848POPC   C3A25901  16.656  37.684   7.932
 1848POPC   C4A25902  16.967  37.614   7.574
 1848POPC   C1B25903  16.775  37.831   8.723
 1848POPC   C2B25904  16.891  38.004   8.291
 1848POPC   C3B25905  16.934  38.091   7.818
 1848POPC   C4B25906  16.983  38.073   7.339
 1849POPC   NC325907  23.958  26.699   9.782
 1849POPC   PO425908  23.438  27.087   9.854
 1849POPC   GL125909  23.623  26.939   9.422
 1849POPC   GL225910  23.923  26.720   9.274
 1849POPC   C1A25911  23.572  27.013   8.960
 1849POPC   D2A25912  23.445  26.869   8.539
 1849POPC   C3A25913  23.658  26.981   8.153
 1849POPC   C4A25914  23.573  26.945   7.710
 1849POPC   C1B25915  24.031  26.782   8.857
 1849POPC   C2B25916  24.002  26.688   8.445
 1849POPC   C3B25917  24.177  26.813   8.077
 1849POPC   C4B25918  24.068  26.868   7.686
 1850POPC   NC325919   9.815  27.389   9.387
 1850POPC   PO425920  10.029  28.048   9.564
 1850POPC   GL125921   9.839  27.870   9.165
 1850POPC   GL225922   9.489  27.903   9.028
 1850POPC   C1A25923   9.914  27.642   8.780
 1850POPC   D2A25924   9.810  27.464   8.373
 1850POPC   C3A25925   9.902  27.730   8.021
 1850POPC   C4A25926   9.797  27.668   7.601
 1850POPC   C1B25927   9.405  27.475   8.816
 1850POPC   C2B25928   9.346  27.229   8.437
 1850POPC   C3B25929   9.423  27.446   7.994
 1850POPC   C4B25930   9.292  27.634   7.606
 1851POPC   NC325931  22.096   3.212   9.246
 1851POPC   PO425932  22.382   2.609   9.463
 1851POPC   GL125933  22.148   2.702   9.079
 1851POPC   GL225934  21.944   2.966   8.856
 1851POPC   C1A25935  21.959   2.491   8.764
 1851POPC   D2A25936  21.896   2.605   8.355
 1851POPC   C3A25937  22.266   2.508   8.114
 1851POPC   C4A25938  22.351   2.559   7.696
 1851POPC   C1B25939  22.380   2.958   8.675
 1851POPC   C2B25940  22.416   2.998   8.238
 1851POPC   C3B25941  22.113   2.996   7.912
 1851POPC   C4B25942  21.930   2.964   7.447
 1852POPC   NC325943  33.052  32.628   9.521
 1852POPC   PO425944  32.997  31.970   9.514
 1852POPC   GL125945  32.703  32.150   9.159
 1852POPC   GL225946  32.696  32.518   9.155
 1852POPC   C1A25947  32.785  32.036   8.708
 1852POPC   D2A25948  33.201  32.111   8.483
 1852POPC   C3A25949  33.175  32.095   8.046
 1852POPC   C4A25950  32.935  32.226   7.675
 1852POPC   C1B25951  33.012  32.480   8.813
 1852POPC   C2B25952  33.015  32.652   8.399
 1852POPC   C3B25953  33.083  32.640   7.948
 1852POPC   C4B25954  33.188  32.664   7.501
 1853POPC   NC325955  33.492  25.220   9.606
 1853POPC   PO425956  34.158  24.978   9.627
 1853POPC   GL125957  33.889  25.225   9.286
 1853POPC   GL225958  33.527  25.424   9.166
 1853POPC   C1A25959  34.024  25.406   8.917
 1853POPC   D2A25960  33.995  25.160   8.555
 1853POPC   C3A25961  34.118  25.354   8.216
 1853POPC   C4A25962  34.072  25.288   7.789
 1853POPC   C1B25963  33.548  25.266   8.773
 1853POPC   C2B25964  33.585  25.408   8.356
 1853POPC   C3B25965  33.561  25.230   7.966
 1853POPC   C4B25966  33.626  25.383   7.561
 1854POPC   NC325967  41.993   7.486   9.459
 1854POPC   PO425968  41.353   7.247   9.514
 1854POPC   GL125969  41.573   7.439   9.177
 1854POPC   GL225970  41.640   7.119   9.071
 1854POPC   C1A25971  41.735   7.499   8.742
 1854POPC   D2A25972  41.573   7.282   8.373
 1854POPC   C3A25973  41.569   7.500   7.970
 1854POPC   C4A25974  41.392   7.604   7.570
 1854POPC   C1B25975  41.319   6.925   8.818
 1854POPC   C2B25976  41.140   7.010   8.412
 1854POPC   C3B25977  41.292   7.042   7.987
 1854POPC   C4B25978  41.539   7.100   7.641
 1855POPC   NC325979  33.157  18.274   9.506
 1855POPC   PO425980  32.567  18.657   9.698
 1855POPC   GL125981  32.740  18.458   9.252
 1855POPC   GL225982  32.848  18.092   9.142
 1855POPC   C1A25983  32.642  18.396   8.780
 1855POPC   D2A25984  32.886  18.528   8.414
 1855POPC   C3A25985  32.892  18.287   8.037
 1855POPC   C4A25986  33.045  18.213   7.635
 1855POPC   C1B25987  33.087  18.132   8.738
 1855POPC   C2B25988  33.098  17.923   8.323
 1855POPC   C3B25989  33.361  17.944   7.929
 1855POPC   C4B25990  33.404  17.849   7.441
 1856POPC   NC325991   8.026  27.535   9.519
 1856POPC   PO425992   8.672  27.373   9.499
 1856POPC   GL125993   8.423  27.526   9.103
 1856POPC   GL225994   8.066  27.643   9.041
 1856POPC   C1A25995   8.389  27.611   8.648
 1856POPC   D2A25996   8.156  27.453   8.287
 1856POPC   C3A25997   8.365  27.577   7.900
 1856POPC   C4A25998   8.293  27.442   7.480
 1856POPC   C1B25999   7.859  27.688   8.653
 1856POPC   C2B26000   7.665  27.631   8.253
 1856POPC   C3B26001   7.856  27.610   7.874
 1856POPC   C4B26002   7.975  27.837   7.518
 1857POPC   NC326003  32.884  28.798   9.572
 1857POPC   PO426004  32.841  29.441   9.500
 1857POPC   GL126005  32.914  29.172   9.141
 1857POPC   GL226006  32.661  28.895   9.126
 1857POPC   C1A26007  32.894  29.403   8.734
 1857POPC   D2A26008  32.692  29.358   8.295
 1857POPC   C3A26009  32.954  29.194   7.964
 1857POPC   C4A26010  33.225  29.564   8.019
 1857POPC   C1B26011  32.655  28.976   8.667
 1857POPC   C2B26012  32.795  28.807   8.284
 1857POPC   C3B26013  32.692  28.667   7.866
 1857POPC   C4B26014  32.636  28.968   7.491
 1858POPC   NC326015  15.029   2.547   9.559
 1858POPC   PO426016  15.633   2.940   9.515
 1858POPC   GL126017  15.328   2.755   9.178
 1858POPC   GL226018  15.214   2.408   9.121
 1858POPC   C1A26019  15.099   2.736   8.755
 1858POPC   D2A26020  14.910   2.803   8.321
 1858POPC   C3A26021  15.138   2.713   7.947
 1858POPC   C4A26022  15.390   2.920   7.651
 1858POPC   C1B26023  15.382   2.306   8.753
 1858POPC   C2B26024  15.347   2.482   8.357
 1858POPC   C3B26025  15.562   2.435   7.959
 1858POPC   C4B26026  15.212   2.208   7.842
 1859POPC   NC326027  19.070  31.245   9.335
 1859POPC   PO426028  19.169  30.665   9.617
 1859POPC   GL126029  19.235  30.509   9.182
 1859POPC   GL226030  19.552  30.410   9.091
 1859POPC   C1A26031  19.240  30.400   8.699
 1859POPC   D2A26032  19.153  30.458   8.251
 1859POPC   C3A26033  18.960  30.444   7.833
 1859POPC   C4A26034  18.671  30.589   7.496
 1859POPC   C1B26035  19.435  30.848   8.876
 1859POPC   C2B26036  19.183  30.937   8.497
 1859POPC   C3B26037  19.231  30.915   8.032
 1859POPC   C4B26038  19.469  30.573   7.846
 1860POPC   NC326039   7.507  35.525   9.765
 1860POPC   PO426040   8.047  35.272   9.501
 1860POPC   GL126041   7.632  35.201   9.129
 1860POPC   GL226042   7.423  35.468   9.045
 1860POPC   C1A26043   7.272  35.228   8.662
 1860POPC   D2A26044   7.342  35.015   8.251
 1860POPC   C3A26045   7.082  35.029   7.928
 1860POPC   C4A26046   7.449  35.147   7.703
 1860POPC   C1B26047   7.473  35.689   8.651
 1860POPC   C2B26048   7.523  35.499   8.262
 1860POPC   C3B26049   7.220  35.522   7.943
 1860POPC   C4B26050   7.202  35.771   7.609
 1861POPC   NC326051  18.938   0.788   9.416
 1861POPC   PO426052  18.808   0.119   9.337
 1861POPC   GL126053  19.188   0.235   9.165
 1861POPC   GL226054  19.051   0.511   8.998
 1861POPC   C1A26055  19.490   0.145   8.856
 1861POPC   D2A26056  19.516   0.324   8.468
 1861POPC   C3A26057  19.368   0.173   8.074
 1861POPC   C4A26058  19.298   0.426   7.710
 1861POPC   C1B26059  18.995   0.236   8.653
 1861POPC   C2B26060  18.884   0.269   8.229
 1861POPC   C3B26061  18.830   0.548   7.894
 1861POPC   C4B26062  18.656   0.739   7.555
 1862POPC   NC326063  25.079  12.715   9.369
 1862POPC   PO426064  25.745  12.591   9.523
 1862POPC   GL126065  25.601  12.693   9.129
 1862POPC   GL226066  25.438  12.387   9.086
 1862POPC   C1A26067  25.469  13.056   8.843
 1862POPC   D2A26068  25.426  13.372   8.483
 1862POPC   C3A26069  25.164  13.171   8.137
 1862POPC   C4A26070  25.199  13.051   7.694
 1862POPC   C1B26071  25.303  12.578   8.731
 1862POPC   C2B26072  25.437  12.826   8.396
 1862POPC   C3B26073  25.423  12.714   8.012
 1862POPC   C4B26074  25.106  12.537   7.825
 1863POPC   NC326075  27.034  14.315   9.886
 1863POPC   PO426076  26.514  14.301   9.428
 1863POPC   GL126077  26.573  14.360   9.055
 1863POPC   GL226078  26.761  14.635   9.015
 1863POPC   C1A26079  26.777  14.156   8.761
 1863POPC   D2A26080  26.957  14.198   8.382
 1863POPC   C3A26081  26.796  14.020   8.015
 1863POPC   C4A26082  26.638  14.168   7.632
 1863POPC   C1B26083  27.100  14.608   8.738
 1863POPC   C2B26084  27.157  14.661   8.314
 1863POPC   C3B26085  26.971  14.521   7.915
 1863POPC   C4B26086  27.018  14.487   7.464
 1864POPC   NC326087  25.868  25.764   9.460
 1864POPC   PO426088  26.061  25.118   9.532
 1864POPC   GL126089  25.850  25.309   9.189
 1864POPC   GL226090  25.741  24.979   9.136
 1864POPC   C1A26091  25.881  25.564   8.791
 1864POPC   D2A26092  25.940  25.557   8.339
 1864POPC   C3A26093  26.256  25.298   8.223
 1864POPC   C4A26094  26.333  25.306   7.821
 1864POPC   C1B26095  25.537  25.155   8.776
 1864POPC   C2B26096  25.643  25.135   8.356
 1864POPC   C3B26097  25.828  25.155   7.962
 1864POPC   C4B26098  25.711  25.195   7.550
 1865POPC   NC326099  33.613  15.987   9.575
 1865POPC   PO426100  34.243  16.105   9.590
 1865POPC   GL126101  33.963  16.090   9.205
 1865POPC   GL226102  33.817  15.818   9.157
 1865POPC   C1A26103  34.067  16.101   8.790
 1865POPC   D2A26104  34.278  15.856   8.495
 1865POPC   C3A26105  34.112  15.677   8.179
 1865POPC   C4A26106  34.042  15.811   7.785
 1865POPC   C1B26107  33.879  15.622   8.776
 1865POPC   C2B26108  33.681  15.526   8.415
 1865POPC   C3B26109  33.620  15.783   8.085
 1865POPC   C4B26110  33.441  15.707   7.715
 1866POPC   NC326111  17.178  22.645   9.599
 1866POPC   PO426112  17.661  23.055   9.662
 1866POPC   GL126113  17.452  22.952   9.266
 1866POPC   GL226114  17.787  22.824   9.161
 1866POPC   C1A26115  17.439  22.873   8.800
 1866POPC   D2A26116  17.543  23.020   8.395
 1866POPC   C3A26117  17.259  23.060   8.076
 1866POPC   C4A26118  17.395  23.044   7.698
 1866POPC   C1B26119  17.974  22.887   8.736
 1866POPC   C2B26120  18.029  22.964   8.288
 1866POPC   C3B26121  17.785  22.823   7.936
 1866POPC   C4B26122  17.744  22.710   7.479
 1867POPC   NC326123  23.040  24.262   9.776
 1867POPC   PO426124  22.889  23.652   9.629
 1867POPC   GL126125  22.842  23.873   9.208
 1867POPC   GL226126  22.484  23.949   9.095
 1867POPC   C1A26127  23.072  23.930   8.799
 1867POPC   D2A26128  23.040  24.006   8.339
 1867POPC   C3A26129  23.218  23.757   7.985
 1867POPC   C4A26130  23.113  23.609   7.531
 1867POPC   C1B26131  22.582  23.957   8.653
 1867POPC   C2B26132  22.522  23.886   8.218
 1867POPC   C3B26133  22.726  23.757   7.877
 1867POPC   C4B26134  22.598  23.747   7.479
 1868POPC   NC326135  36.842  20.163   9.555
 1868POPC   PO426136  36.663  19.497   9.476
 1868POPC   GL126137  36.639  19.812   9.146
 1868POPC   GL226138  36.659  20.210   9.101
 1868POPC   C1A26139  36.737  19.613   8.755
 1868POPC   D2A26140  36.927  19.674   8.375
 1868POPC   C3A26141  36.701  19.710   8.015
 1868POPC   C4A26142  36.933  19.956   7.779
 1868POPC   C1B26143  36.768  20.117   8.705
 1868POPC   C2B26144  36.555  20.076   8.340
 1868POPC   C3B26145  36.560  20.317   7.957
 1868POPC   C4B26146  36.757  20.327   7.506
 1869POPC   NC326147  36.348   7.199   9.531
 1869POPC   PO426148  35.961   7.890   9.592
 1869POPC   GL126149  36.252   7.729   9.262
 1869POPC   GL226150  36.067   7.430   9.180
 1869POPC   C1A26151  36.389   7.582   8.823
 1869POPC   D2A26152  36.144   7.359   8.482
 1869POPC   C3A26153  36.176   7.486   8.057
 1869POPC   C4A26154  36.341   7.313   7.716
 1869POPC   C1B26155  35.802   7.532   8.842
 1869POPC   C2B26156  35.717   7.640   8.428
 1869POPC   C3B26157  35.690   7.363   8.103
 1869POPC   C4B26158  35.824   7.454   7.667
 1870POPC   NC326159   5.340  38.084   9.872
 1870POPC   PO426160   5.030  38.519   9.464
 1870POPC   GL126161   5.256  38.460   9.115
 1870POPC   GL226162   5.005  38.237   8.949
 1870POPC   C1A26163   5.272  38.627   8.708
 1870POPC   D2A26164   5.068  38.459   8.337
 1870POPC   C3A26165   5.315  38.436   7.942
 1870POPC   C4A26166   5.201  38.448   7.481
 1870POPC   C1B26167   4.884  37.944   8.622
 1870POPC   C2B26168   4.929  37.984   8.186
 1870POPC   C3B26169   4.888  38.217   7.820
 1870POPC   C4B26170   4.677  38.272   7.454
 1871POPC   NC326171   9.228   8.143   9.495
 1871POPC   PO426172   8.659   7.799   9.521
 1871POPC   GL126173   8.852   7.998   9.145
 1871POPC   GL226174   8.997   8.310   9.079
 1871POPC   C1A26175   8.984   7.942   8.711
 1871POPC   D2A26176   9.209   7.842   8.322
 1871POPC   C3A26177   8.934   8.033   8.055
 1871POPC   C4A26178   8.954   8.283   7.694
 1871POPC   C1B26179   8.949   8.576   8.732
 1871POPC   C2B26180   8.920   8.499   8.286
 1871POPC   C3B26181   9.048   8.741   7.927
 1871POPC   C4B26182   9.015   8.734   7.454
 1872POPC   NC326183  12.507  32.098   9.618
 1872POPC   PO426184  13.119  32.329   9.383
 1872POPC   GL126185  12.728  32.313   9.202
 1872POPC   GL226186  12.704  31.946   9.195
 1872POPC   C1A26187  12.584  32.219   8.795
 1872POPC   D2A26188  12.854  32.186   8.477
 1872POPC   C3A26189  12.723  32.233   8.100
 1872POPC   C4A26190  12.720  32.502   7.763
 1872POPC   C1B26191  12.921  31.823   8.822
 1872POPC   C2B26192  12.914  31.684   8.410
 1872POPC   C3B26193  13.034  31.811   8.001
 1872POPC   C4B26194  12.902  32.037   7.659
 1873POPC   NC326195  21.601  15.017   9.627
 1873POPC   PO426196  21.180  15.375   9.378
 1873POPC   GL126197  21.327  15.165   9.076
 1873POPC   GL226198  21.647  15.067   9.125
 1873POPC   C1A26199  21.240  15.331   8.696
 1873POPC   D2A26200  21.315  15.121   8.319
 1873POPC   C3A26201  21.164  15.299   7.951
 1873POPC   C4A26202  21.319  15.291   7.560
 1873POPC   C1B26203  21.692  15.011   8.698
 1873POPC   C2B26204  21.907  15.119   8.343
 1873POPC   C3B26205  21.700  15.284   7.998
 1873POPC   C4B26206  21.785  15.111   7.632
 1874POPC   NC326207  27.930  38.472   9.383
 1874POPC   PO426208  27.282  38.595   9.359
 1874POPC   GL126209  27.568  38.448   9.003
 1874POPC   GL226210  27.876  38.181   8.978
 1874POPC   C1A26211  27.840  38.600   8.687
 1874POPC   D2A26212  27.946  38.564   8.250
 1874POPC   C3A26213  27.550  38.569   8.062
 1874POPC   C4A26214  27.268  38.520   7.750
 1874POPC   C1B26215  27.943  38.103   8.541
 1874POPC   C2B26216  27.872  38.085   8.089
 1874POPC   C3B26217  27.813  38.313   7.684
 1874POPC   C4B26218  27.915  38.410   7.227
 1875POPC   NC326219  22.563  25.398   9.518
 1875POPC   PO426220  22.045  24.961   9.495
 1875POPC   GL126221  22.049  25.154   9.100
 1875POPC   GL226222  22.313  25.397   9.086
 1875POPC   C1A26223  22.210  25.115   8.684
 1875POPC   D2A26224  22.389  25.374   8.373
 1875POPC   C3A26225  22.329  25.181   8.009
 1875POPC   C4A26226  22.014  25.272   7.738
 1875POPC   C1B26227  22.056  25.612   8.768
 1875POPC   C2B26228  22.132  25.838   8.380
 1875POPC   C3B26229  22.295  25.717   7.980
 1875POPC   C4B26230  22.476  25.496   7.630
 1876POPC   NC326231  39.924  42.886   9.588
 1876POPC   PO426232  40.286  43.389   9.439
 1876POPC   GL126233  40.011  43.137   9.161
 1876POPC   GL226234  40.130  42.754   9.142
 1876POPC   C1A26235  39.743  43.200   8.802
 1876POPC   D2A26236  39.743  43.405   8.419
 1876POPC   C3A26237  39.797  43.152   8.086
 1876POPC   C4A26238  39.619  43.105   7.708
 1876POPC   C1B26239  40.172  42.947   8.730
 1876POPC   C2B26240  40.240  43.117   8.336
 1876POPC   C3B26241  40.276  42.902   7.952
 1876POPC   C4B26242  40.383  42.950   7.533
 1877POPC   NC326243  34.491  34.037   9.644
 1877POPC   PO426244  34.919  33.536   9.584
 1877POPC   GL126245  34.680  33.801   9.237
 1877POPC   GL226246  34.292  33.898   9.170
 1877POPC   C1A26247  34.633  33.696   8.812
 1877POPC   D2A26248  34.665  33.543   8.427
 1877POPC   C3A26249  34.505  33.869   8.142
 1877POPC   C4A26250  34.458  33.829   7.719
 1877POPC   C1B26251  34.353  34.110   8.722
 1877POPC   C2B26252  34.342  34.388   8.297
 1877POPC   C3B26253  34.394  34.384   7.810
 1877POPC   C4B26254  34.296  34.140   7.375
 1878POPC   NC326255   2.600  33.420   9.543
 1878POPC   PO426256   2.954  33.988   9.808
 1878POPC   GL126257   2.912  34.016   9.311
 1878POPC   GL226258   2.628  33.804   9.205
 1878POPC   C1A26259   2.973  33.838   8.846
 1878POPC   D2A26260   2.838  33.649   8.489
 1878POPC   C3A26261   2.956  33.847   8.151
 1878POPC   C4A26262   2.978  33.804   7.719
 1878POPC   C1B26263   2.545  33.467   8.875
 1878POPC   C2B26264   2.416  33.368   8.451
 1878POPC   C3B26265   2.420  33.699   8.140
 1878POPC   C4B26266   2.463  33.701   7.704
 1879POPC   NC326267  31.837   5.420   9.567
 1879POPC   PO426268  31.287   4.980   9.539
 1879POPC   GL126269  31.350   5.194   9.196
 1879POPC   GL226270  31.674   5.066   9.174
 1879POPC   C1A26271  31.209   5.080   8.783
 1879POPC   D2A26272  31.280   5.240   8.381
 1879POPC   C3A26273  31.084   5.045   8.052
 1879POPC   C4A26274  31.138   4.711   7.780
 1879POPC   C1B26275  31.686   5.277   8.810
 1879POPC   C2B26276  31.803   5.159   8.425
 1879POPC   C3B26277  31.652   5.204   8.000
 1879POPC   C4B26278  31.672   4.865   7.725
 1880POPC   NC326279  34.499  13.892   9.555
 1880POPC   PO426280  34.892  13.405   9.423
 1880POPC   GL126281  34.490  13.512   9.199
 1880POPC   GL226282  34.423  13.880   9.048
 1880POPC   C1A26283  34.492  13.441   8.780
 1880POPC   D2A26284  34.712  13.653   8.466
 1880POPC   C3A26285  34.642  13.440   8.094
 1880POPC   C4A26286  34.493  13.583   7.713
 1880POPC   C1B26287  34.249  13.883   8.624
 1880POPC   C2B26288  34.299  13.836   8.179
 1880POPC   C3B26289  34.156  13.990   7.812
 1880POPC   C4B26290  34.135  13.986   7.394
 1881POPC   NC326291   2.943  38.669   9.640
 1881POPC   PO426292   2.392  38.359   9.418
 1881POPC   GL126293   2.651  38.555   9.174
 1881POPC   GL226294   2.916  38.352   9.230
 1881POPC   C1A26295   2.828  38.639   8.778
 1881POPC   D2A26296   2.695  38.476   8.387
 1881POPC   C3A26297   2.718  38.713   8.005
 1881POPC   C4A26298   2.684  38.514   7.580
 1881POPC   C1B26299   2.956  38.153   8.796
 1881POPC   C2B26300   3.132  38.193   8.373
 1881POPC   C3B26301   3.244  38.064   7.941
 1881POPC   C4B26302   2.969  38.018   7.558
 1882POPC   NC326303  41.372  16.997   9.449
 1882POPC   PO426304  41.576  17.661   9.373
 1882POPC   GL126305  41.503  17.383   9.089
 1882POPC   GL226306  41.746  17.154   9.103
 1882POPC   C1A26307  41.389  17.171   8.734
 1882POPC   D2A26308  41.109  17.126   8.414
 1882POPC   C3A26309  41.291  17.326   8.095
 1882POPC   C4A26310  41.512  17.530   7.775
 1882POPC   C1B26311  41.890  17.390   8.754
 1882POPC   C2B26312  41.755  17.363   8.341
 1882POPC   C3B26313  41.961  17.548   8.003
 1882POPC   C4B26314  41.955  17.870   7.707
 1883POPC   NC326315  35.997  40.299   9.657
 1883POPC   PO426316  36.495  39.766   9.317
 1883POPC   GL126317  36.319  39.975   9.007
 1883POPC   GL226318  36.031  40.085   9.106
 1883POPC   C1A26319  36.238  39.936   8.590
 1883POPC   D2A26320  36.468  40.091   8.266
 1883POPC   C3A26321  36.222  40.051   7.889
 1883POPC   C4A26322  36.050  39.643   7.911
 1883POPC   C1B26323  35.848  40.233   8.703
 1883POPC   C2B26324  35.894  40.245   8.243
 1883POPC   C3B26325  35.749  40.322   7.813
 1883POPC   C4B26326  35.932  40.276   7.372
 1884POPC   NC326327   1.802  44.071  10.068
 1884POPC   PO426328   2.306  43.829   9.650
 1884POPC   GL126329   2.080  43.901   9.265
 1884POPC   GL226330   1.886  43.629   9.262
 1884POPC   C1A26331   1.900  44.140   8.901
 1884POPC   D2A26332   1.792  43.999   8.475
 1884POPC   C3A26333   1.758  44.129   8.036
 1884POPC   C4A26334   2.091  44.145   7.706
 1884POPC   C1B26335   2.028  43.548   8.825
 1884POPC   C2B26336   1.909  43.488   8.377
 1884POPC   C3B26337   2.073  43.658   7.984
 1884POPC   C4B26338   2.194  43.553   7.559
 1885POPC   NC326339  20.381  29.074   9.367
 1885POPC   PO426340  20.939  29.419   9.380
 1885POPC   GL126341  20.664  29.349   9.054
 1885POPC   GL226342  20.284  29.504   9.146
 1885POPC   C1A26343  20.724  29.009   8.754
 1885POPC   D2A26344  20.567  28.903   8.365
 1885POPC   C3A26345  20.780  29.154   8.028
 1885POPC   C4A26346  21.024  29.027   7.721
 1885POPC   C1B26347  20.256  29.259   8.767
 1885POPC   C2B26348  20.406  29.410   8.427
 1885POPC   C3B26349  20.298  29.235   8.078
 1885POPC   C4B26350  20.401  29.120   7.690
 1886POPC   NC326351  39.497  37.600   9.588
 1886POPC   PO426352  38.872  37.538   9.463
 1886POPC   GL126353  39.219  37.599   9.165
 1886POPC   GL226354  39.524  37.346   9.143
 1886POPC   C1A26355  39.236  37.835   8.801
 1886POPC   D2A26356  39.046  37.668   8.419
 1886POPC   C3A26357  39.201  37.836   8.008
 1886POPC   C4A26358  39.111  37.968   7.597
 1886POPC   C1B26359  39.455  37.406   8.680
 1886POPC   C2B26360  39.464  37.452   8.225
 1886POPC   C3B26361  39.545  37.466   7.787
 1886POPC   C4B26362  39.759  37.403   7.367
 1887POPC   NC326363  28.636  38.203   9.598
 1887POPC   PO426364  28.355  38.637   9.275
 1887POPC   GL126365  28.320  38.394   9.000
 1887POPC   GL226366  28.385  38.063   9.149
 1887POPC   C1A26367  28.324  38.502   8.589
 1887POPC   D2A26368  28.617  38.597   8.280
 1887POPC   C3A26369  28.386  38.546   7.945
 1887POPC   C4A26370  28.240  38.614   7.575
 1887POPC   C1B26371  28.413  38.004   8.708
 1887POPC   C2B26372  28.398  38.100   8.276
 1887POPC   C3B26373  28.343  38.054   7.861
 1887POPC   C4B26374  28.253  38.130   7.457
 1888POPC   NC326375  18.268  25.656   9.530
 1888POPC   PO426376  18.148  26.337   9.382
 1888POPC   GL126377  18.494  26.182   9.104
 1888POPC   GL226378  18.486  25.826   9.083
 1888POPC   C1A26379  18.485  26.199   8.644
 1888POPC   D2A26380  18.252  26.479   8.390
 1888POPC   C3A26381  18.163  26.242   8.016
 1888POPC   C4A26382  18.458  25.932   7.798
 1888POPC   C1B26383  18.127  25.865   8.755
 1888POPC   C2B26384  18.004  25.659   8.361
 1888POPC   C3B26385  18.011  25.682   7.897
 1888POPC   C4B26386  17.834  25.578   7.473
 1889POPC   NC326387  14.815  30.532   9.634
 1889POPC   PO426388  15.345  30.871   9.481
 1889POPC   GL126389  15.022  30.675   9.173
 1889POPC   GL226390  14.806  30.974   9.226
 1889POPC   C1A26391  14.872  30.521   8.704
 1889POPC   D2A26392  14.799  30.384   8.268
 1889POPC   C3A26393  15.102  30.485   7.908
 1889POPC   C4A26394  15.056  30.340   7.450
 1889POPC   C1B26395  15.055  30.984   8.784
 1889POPC   C2B26396  15.147  30.833   8.336
 1889POPC   C3B26397  15.088  30.984   7.889
 1889POPC   C4B26398  14.972  31.216   7.511
 1890POPC   NC326399  42.620   8.830   9.357
 1890POPC   PO426400  42.103   9.348   9.422
 1890POPC   GL126401  42.308   9.176   9.085
 1890POPC   GL226402  42.646   9.202   8.965
 1890POPC   C1A26403  42.141   9.122   8.701
 1890POPC   D2A26404  41.871   9.274   8.420
 1890POPC   C3A26405  42.120   9.234   8.068
 1890POPC   C4A26406  42.250   8.935   7.793
 1890POPC   C1B26407  42.662   8.970   8.580
 1890POPC   C2B26408  42.319   8.805   8.313
 1890POPC   C3B26409  42.060   8.535   8.072
 1890POPC   C4B26410  42.097   8.368   7.675
 1891POPC   NC326411  41.215   5.065   9.461
 1891POPC   PO426412  41.868   4.914   9.496
 1891POPC   GL126413  41.625   4.981   9.153
 1891POPC   GL226414  41.605   5.310   9.171
 1891POPC   C1A26415  41.473   4.933   8.753
 1891POPC   D2A26416  41.661   4.710   8.444
 1891POPC   C3A26417  41.834   4.909   8.098
 1891POPC   C4A26418  41.579   4.895   7.761
 1891POPC   C1B26419  41.535   5.446   8.728
 1891POPC   C2B26420  41.549   5.258   8.350
 1891POPC   C3B26421  41.404   5.344   7.967
 1891POPC   C4B26422  41.593   5.384   7.602
 1892POPC   NC326423   4.778  14.063   9.439
 1892POPC   PO426424   4.890  14.680   9.454
 1892POPC   GL126425   5.133  14.569   9.120
 1892POPC   GL226426   4.970  14.831   8.978
 1892POPC   C1A26427   5.257  14.252   8.883
 1892POPC   D2A26428   5.344  14.285   8.461
 1892POPC   C3A26429   5.238  14.272   8.055
 1892POPC   C4A26430   5.331  14.236   7.661
 1892POPC   C1B26431   4.943  14.575   8.624
 1892POPC   C2B26432   4.947  14.642   8.193
 1892POPC   C3B26433   4.925  14.524   7.733
 1892POPC   C4B26434   4.928  14.691   7.283
 1893POPC   NC326435  32.817  35.186   9.795
 1893POPC   PO426436  32.102  35.293   9.627
 1893POPC   GL126437  32.071  35.240   9.202
 1893POPC   GL226438  31.828  34.994   9.210
 1893POPC   C1A26439  32.378  35.247   8.846
 1893POPC   D2A26440  32.481  35.496   8.492
 1893POPC   C3A26441  32.292  35.456   8.097
 1893POPC   C4A26442  32.467  35.697   7.820
 1893POPC   C1B26443  31.960  34.942   8.786
 1893POPC   C2B26444  32.039  35.188   8.455
 1893POPC   C3B26445  31.930  35.096   8.035
 1893POPC   C4B26446  31.927  34.854   7.666
 1894POPC   NC326447  24.370  26.476   9.484
 1894POPC   PO426448  24.637  25.927   9.458
 1894POPC   GL126449  24.622  26.110   9.098
 1894POPC   GL226450  24.273  26.124   9.126
 1894POPC   C1A26451  24.629  25.966   8.688
 1894POPC   D2A26452  24.551  26.093   8.273
 1894POPC   C3A26453  24.817  25.969   7.939
 1894POPC   C4A26454  24.618  25.944   7.549
 1894POPC   C1B26455  24.172  26.281   8.740
 1894POPC   C2B26456  24.032  26.121   8.352
 1894POPC   C3B26457  24.159  26.015   7.935
 1894POPC   C4B26458  24.290  26.392   7.731
 1895POPC   NC326459   3.190  26.624   9.535
 1895POPC   PO426460   2.465  26.808   9.642
 1895POPC   GL126461   2.758  26.813   9.276
 1895POPC   GL226462   2.540  26.590   9.143
 1895POPC   C1A26463   2.934  26.806   8.822
 1895POPC   D2A26464   2.787  26.720   8.378
 1895POPC   C3A26465   2.958  26.787   7.969
 1895POPC   C4A26466   2.970  27.076   7.639
 1895POPC   C1B26467   2.597  26.338   8.787
 1895POPC   C2B26468   2.657  26.204   8.381
 1895POPC   C3B26469   2.645  26.396   7.984
 1895POPC   C4B26470   2.568  26.589   7.599
 1896POPC   NC326471  29.049  42.493   9.545
 1896POPC   PO426472  29.398  41.932   9.361
 1896POPC   GL126473  29.159  42.228   9.110
 1896POPC   GL226474  29.273  42.587   9.111
 1896POPC   C1A26475  29.258  42.317   8.695
 1896POPC   D2A26476  29.537  42.390   8.423
 1896POPC   C3A26477  29.545  42.178   8.073
 1896POPC   C4A26478  29.239  42.183   7.778
 1896POPC   C1B26479  28.930  42.681   8.856
 1896POPC   C2B26480  28.960  42.704   8.421
 1896POPC   C3B26481  29.245  42.654   8.081
 1896POPC   C4B26482  29.129  42.672   7.671
 1897POPC   NC326483  14.596   9.085   9.539
 1897POPC   PO426484  14.111   8.589   9.672
 1897POPC   GL126485  14.222   8.799   9.297
 1897POPC   GL226486  14.550   8.648   9.251
 1897POPC   C1A26487  14.391   8.962   8.881
 1897POPC   D2A26488  14.547   9.224   8.529
 1897POPC   C3A26489  14.316   9.088   8.177
 1897POPC   C4A26490  14.464   9.105   7.761
 1897POPC   C1B26491  14.621   8.482   8.844
 1897POPC   C2B26492  14.447   8.590   8.455
 1897POPC   C3B26493  14.699   8.736   8.138
 1897POPC   C4B26494  14.782   8.725   7.727
 1898POPC   NC326495  14.052  16.917   9.467
 1898POPC   PO426496  14.544  16.388   9.570
 1898POPC   GL126497  14.587  16.617   9.208
 1898POPC   GL226498  14.226  16.639   9.084
 1898POPC   C1A26499  14.632  16.756   8.807
 1898POPC   D2A26500  14.295  16.730   8.502
 1898POPC   C3A26501  14.428  16.589   8.088
 1898POPC   C4A26502  14.327  16.363   7.713
 1898POPC   C1B26503  14.253  17.091   8.889
 1898POPC   C2B26504  14.271  17.291   8.507
 1898POPC   C3B26505  14.224  17.075   8.125
 1898POPC   C4B26506  14.466  16.963   7.751
 1899POPC   NC326507  26.731  19.770   9.851
 1899POPC   PO426508  27.140  19.856   9.330
 1899POPC   GL126509  26.840  19.932   9.098
 1899POPC   GL226510  26.700  20.283   9.118
 1899POPC   C1A26511  26.932  19.760   8.682
 1899POPC   D2A26512  27.202  19.839   8.308
 1899POPC   C3A26513  26.981  19.865   7.916
 1899POPC   C4A26514  26.699  19.835   7.547
 1899POPC   C1B26515  26.544  20.097   8.741
 1899POPC   C2B26516  26.572  19.844   8.348
 1899POPC   C3B26517  26.396  19.934   7.991
 1899POPC   C4B26518  26.644  20.238   7.872
 1900POPC   NC326519  25.188  19.421  10.017
 1900POPC   PO426520  25.603  19.123   9.644
 1900POPC   GL126521  25.508  19.099   9.162
 1900POPC   GL226522  25.753  19.367   9.076
 1900POPC   C1A26523  25.281  18.810   8.810
 1900POPC   D2A26524  25.047  18.757   8.384
 1900POPC   C3A26525  25.300  18.745   8.012
 1900POPC   C4A26526  25.199  18.949   7.628
 1900POPC   C1B26527  25.667  19.149   8.675
 1900POPC   C2B26528  25.585  19.125   8.229
 1900POPC   C3B26529  25.605  19.307   7.829
 1900POPC   C4B26530  25.479  19.692   7.598
 1901POPC   NC326531   6.060   1.875   9.533
 1901POPC   PO426532   5.647   2.341   9.674
 1901POPC   GL126533   5.810   2.371   9.222
 1901POPC   GL226534   6.182   2.417   9.096
 1901POPC   C1A26535   5.615   2.368   8.787
 1901POPC   D2A26536   5.489   2.077   8.436
 1901POPC   C3A26537   5.643   2.045   8.012
 1901POPC   C4A26538   5.808   1.673   7.764
 1901POPC   C1B26539   6.217   2.324   8.623
 1901POPC   C2B26540   6.120   2.038   8.239
 1901POPC   C3B26541   6.112   2.130   7.776
 1901POPC   C4B26542   6.117   2.391   7.382
 1902POPC   NC326543  11.793  24.694   9.301
 1902POPC   PO426544  11.792  25.283   9.711
 1902POPC   GL126545  12.001  25.164   9.272
 1902POPC   GL226546  12.096  25.459   9.073
 1902POPC   C1A26547  11.995  25.031   8.783
 1902POPC   D2A26548  11.902  25.289   8.408
 1902POPC   C3A26549  11.988  25.162   7.983
 1902POPC   C4A26550  11.955  25.516   7.712
 1902POPC   C1B26551  12.380  25.352   8.713
 1902POPC   C2B26552  12.403  25.233   8.297
 1902POPC   C3B26553  12.431  25.420   7.890
 1902POPC   C4B26554  12.370  25.302   7.452
 1903POPC   NC326555  30.175  25.682   9.506
 1903POPC   PO426556  29.833  26.302   9.617
 1903POPC   GL126557  29.916  26.059   9.248
 1903POPC   GL226558  29.744  25.766   9.189
 1903POPC   C1A26559  30.130  26.023   8.861
 1903POPC   D2A26560  30.203  26.196   8.466
 1903POPC   C3A26561  30.278  25.987   8.107
 1903POPC   C4A26562  30.080  26.234   7.798
 1903POPC   C1B26563  29.585  25.805   8.812
 1903POPC   C2B26564  29.823  25.830   8.468
 1903POPC   C3B26565  29.751  25.982   8.093
 1903POPC   C4B26566  29.471  25.799   7.804
 1904POPC   NC326567  20.854  16.611   9.553
 1904POPC   PO426568  20.332  16.905   9.831
 1904POPC   GL126569  20.381  16.792   9.359
 1904POPC   GL226570  20.186  17.014   9.155
 1904POPC   C1A26571  20.631  16.812   8.939
 1904POPC   D2A26572  20.924  16.729   8.559
 1904POPC   C3A26573  20.718  16.539   8.198
 1904POPC   C4A26574  20.644  16.762   7.813
 1904POPC   C1B26575  20.261  17.123   8.748
 1904POPC   C2B26576  20.403  16.911   8.378
 1904POPC   C3B26577  20.212  16.680   8.032
 1904POPC   C4B26578  20.190  16.816   7.564
 1905POPC   NC326579  13.374  12.818   9.522
 1905POPC   PO426580  14.027  12.592   9.453
 1905POPC   GL126581  13.741  12.792   9.123
 1905POPC   GL226582  13.408  12.777   9.034
 1905POPC   C1A26583  13.725  12.997   8.694
 1905POPC   D2A26584  13.627  13.188   8.300
 1905POPC   C3A26585  13.498  12.907   8.020
 1905POPC   C4A26586  13.216  12.955   7.667
 1905POPC   C1B26587  13.468  12.534   8.667
 1905POPC   C2B26588  13.538  12.410   8.235
 1905POPC   C3B26589  13.257  12.495   7.896
 1905POPC   C4B26590  13.235  12.483   7.463
 1906POPC   NC326591  17.050  15.426   9.456
 1906POPC   PO426592  16.563  15.077   9.780
 1906POPC   GL126593  16.637  15.041   9.287
 1906POPC   GL226594  16.982  14.951   9.240
 1906POPC   C1A26595  16.636  15.264   8.812
 1906POPC   D2A26596  16.458  15.521   8.500
 1906POPC   C3A26597  16.600  15.403   8.113
 1906POPC   C4A26598  16.666  15.553   7.710
 1906POPC   C1B26599  16.767  14.786   8.858
 1906POPC   C2B26600  16.741  14.910   8.437
 1906POPC   C3B26601  16.641  14.838   8.024
 1906POPC   C4B26602  16.792  15.051   7.676
 1907POPC   NC326603   0.637  39.550   9.460
 1907POPC   PO426604   0.228  39.041   9.605
 1907POPC   GL126605   0.311  39.142   9.163
 1907POPC   GL226606   0.528  39.398   8.991
 1907POPC   C1A26607   0.402  38.961   8.741
 1907POPC   D2A26608   0.540  39.194   8.394
 1907POPC   C3A26609   0.707  38.930   8.116
 1907POPC   C4A26610   0.668  39.071   7.695
 1907POPC   C1B26611   0.171  39.412   8.720
 1907POPC   C2B26612  44.997  39.138   8.408
 1907POPC   C3B26613   0.181  39.059   8.015
 1907POPC   C4B26614   0.217  39.327   7.706
 1908POPC   NC326615   0.492   4.766  10.012
 1908POPC   PO426616   0.603   5.285   9.558
 1908POPC   GL126617   0.371   5.179   9.191
 1908POPC   GL226618   0.226   4.843   9.146
 1908POPC   C1A26619   0.436   5.383   8.831
 1908POPC   D2A26620   0.689   5.321   8.498
 1908POPC   C3A26621   0.506   5.149   8.154
 1908POPC   C4A26622   0.696   4.853   7.862
 1908POPC   C1B26623   0.409   4.869   8.694
 1908POPC   C2B26624   0.370   4.674   8.265
 1908POPC   C3B26625   0.204   4.862   7.835
 1908POPC   C4B26626   0.111   5.214   7.638
 1909POPC   NC326627  30.236  11.209   9.666
 1909POPC   PO426628  30.916  11.128   9.685
 1909POPC   GL126629  30.754  11.159   9.265
 1909POPC   GL226630  30.469  10.910   9.262
 1909POPC   C1A26631  30.957  11.135   8.842
 1909POPC   D2A26632  30.879  11.442   8.564
 1909POPC   C3A26633  30.827  11.344   8.122
 1909POPC   C4A26634  30.881  11.658   7.831
 1909POPC   C1B26635  30.441  11.109   8.855
 1909POPC   C2B26636  30.586  11.016   8.445
 1909POPC   C3B26637  30.406  11.035   8.038
 1909POPC   C4B26638  30.546  11.035   7.625
 1910POPC   NC326639  25.789  26.783   9.321
 1910POPC   PO426640  25.268  27.103   9.332
 1910POPC   GL126641  25.330  26.755   9.063
 1910POPC   GL226642  25.584  26.523   8.939
 1910POPC   C1A26643  25.140  26.682   8.691
 1910POPC   D2A26644  25.333  26.724   8.328
 1910POPC   C3A26645  25.071  26.801   8.031
 1910POPC   C4A26646  25.096  27.029   7.701
 1910POPC   C1B26647  25.619  26.946   8.707
 1910POPC   C2B26648  25.548  27.255   8.406
 1910POPC   C3B26649  25.540  27.070   8.000
 1910POPC   C4B26650  25.602  27.097   7.587
 1911POPC   NC326651  11.868  32.242   9.506
 1911POPC   PO426652  12.332  31.664   9.564
 1911POPC   GL126653  12.165  31.922   9.196
 1911POPC   GL226654  12.229  32.262   9.160
 1911POPC   C1A26655  12.003  32.095   8.746
 1911POPC   D2A26656  11.721  32.112   8.345
 1911POPC   C3A26657  11.934  32.117   7.907
 1911POPC   C4A26658  12.383  32.094   7.726
 1911POPC   C1B26659  12.230  32.567   8.826
 1911POPC   C2B26660  12.437  32.563   8.427
 1911POPC   C3B26661  12.261  32.488   8.049
 1911POPC   C4B26662  12.173  32.577   7.631
 1912POPC   NC326663   3.197  39.315   9.489
 1912POPC   PO426664   2.644  39.026   9.650
 1912POPC   GL126665   2.738  39.072   9.205
 1912POPC   GL226666   3.047  38.894   9.204
 1912POPC   C1A26667   2.637  39.286   8.777
 1912POPC   D2A26668   2.409  39.452   8.376
 1912POPC   C3A26669   2.585  39.255   7.995
 1912POPC   C4A26670   2.877  39.435   7.669
 1912POPC   C1B26671   3.130  39.049   8.822
 1912POPC   C2B26672   2.937  38.998   8.421
 1912POPC   C3B26673   3.063  39.112   8.021
 1912POPC   C4B26674   2.930  38.943   7.605
 1913POPC   NC326675  42.022   3.931   9.927
 1913POPC   PO426676  42.453   4.414   9.747
 1913POPC   GL126677  42.445   4.384   9.288
 1913POPC   GL226678  42.454   4.680   9.078
 1913POPC   C1A26679  42.403   4.061   9.002
 1913POPC   D2A26680  42.367   3.959   8.565
 1913POPC   C3A26681  42.376   4.226   8.195
 1913POPC   C4A26682  42.240   4.133   7.772
 1913POPC   C1B26683  42.512   4.463   8.689
 1913POPC   C2B26684  42.821   4.422   8.350
 1913POPC   C3B26685  42.676   4.665   8.028
 1913POPC   C4B26686  42.246   4.649   7.822
 1914POPC   NC326687  22.844  44.388   9.544
 1914POPC   PO426688  22.246  44.752   9.574
 1914POPC   GL126689  22.640  44.720   9.202
 1914POPC   GL226690  22.988  44.588   9.118
 1914POPC   C1A26691  22.614  44.544   8.786
 1914POPC   D2A26692  22.908  44.453   8.487
 1914POPC   C3A26693  22.786  44.567   8.081
 1914POPC   C4A26694  22.827  44.430   7.652
 1914POPC   C1B26695  23.243  44.275   8.926
 1914POPC   C2B26696  23.386  44.275   8.509
 1914POPC   C3B26697  23.297  44.510   8.120
 1914POPC   C4B26698  23.333  44.282   7.726
 1915POPC   NC326699  33.856  38.106   9.525
 1915POPC   PO426700  33.381  38.623   9.505
 1915POPC   GL126701  33.716  38.496   9.176
 1915POPC   GL226702  33.882  38.169   9.023
 1915POPC   C1A26703  33.541  38.486   8.751
 1915POPC   D2A26704  33.352  38.727   8.404
 1915POPC   C3A26705  33.648  38.690   8.036
 1915POPC   C4A26706  33.969  38.721   7.728
 1915POPC   C1B26707  34.246  38.100   8.717
 1915POPC   C2B26708  34.288  38.225   8.277
 1915POPC   C3B26709  34.061  38.138   7.870
 1915POPC   C4B26710  34.176  37.864   7.520
 1916POPC   NC326711  39.399  18.964   9.453
 1916POPC   PO426712  38.809  19.294   9.352
 1916POPC   GL126713  39.213  19.292   9.106
 1916POPC   GL226714  39.527  19.045   8.978
 1916POPC   C1A26715  39.185  19.222   8.668
 1916POPC   D2A26716  39.196  19.065   8.273
 1916POPC   C3A26717  39.225  19.343   7.965
 1916POPC   C4A26718  38.927  19.265   7.720
 1916POPC   C1B26719  39.810  18.725   8.794
 1916POPC   C2B26720  39.753  18.501   8.440
 1916POPC   C3B26721  39.456  18.622   8.136
 1916POPC   C4B26722  39.227  18.842   7.814
 1917POPC   NC326723   1.091  18.752   9.471
 1917POPC   PO426724   1.664  18.308   9.463
 1917POPC   GL126725   1.382  18.421   9.155
 1917POPC   GL226726   1.105  18.175   9.152
 1917POPC   C1A26727   1.350  18.587   8.743
 1917POPC   D2A26728   1.241  18.398   8.365
 1917POPC   C3A26729   1.239  18.604   7.974
 1917POPC   C4A26730   0.990  18.323   7.717
 1917POPC   C1B26731   1.338  18.060   8.766
 1917POPC   C2B26732   1.461  17.902   8.348
 1917POPC   C3B26733   1.316  17.914   7.908
 1917POPC   C4B26734   1.498  17.761   7.507
 1918POPC   NC326735  42.286  37.436   9.588
 1918POPC   PO426736  41.963  38.054   9.541
 1918POPC   GL126737  42.100  37.743   9.221
 1918POPC   GL226738  42.426  37.797   9.181
 1918POPC   C1A26739  42.218  37.520   8.806
 1918POPC   D2A26740  42.420  37.685   8.416
 1918POPC   C3A26741  42.264  37.567   8.004
 1918POPC   C4A26742  42.568  37.400   7.705
 1918POPC   C1B26743  42.724  37.748   8.840
 1918POPC   C2B26744  42.881  37.908   8.406
 1918POPC   C3B26745  42.740  37.838   7.964
 1918POPC   C4B26746  42.713  37.846   7.496
 1919POPC   NC326747  25.876   7.154   9.830
 1919POPC   PO426748  25.862   7.732   9.586
 1919POPC   GL126749  25.790   7.475   9.232
 1919POPC   GL226750  26.071   7.255   9.267
 1919POPC   C1A26751  25.832   7.249   8.825
 1919POPC   D2A26752  26.013   7.129   8.433
 1919POPC   C3A26753  25.871   7.285   8.039
 1919POPC   C4A26754  25.970   7.347   7.613
 1919POPC   C1B26755  26.300   7.420   8.845
 1919POPC   C2B26756  26.462   7.356   8.374
 1919POPC   C3B26757  26.374   7.394   7.919
 1919POPC   C4B26758  26.400   7.075   7.550
 1920POPC   NC326759   8.451  40.843   9.407
 1920POPC   PO426760   7.796  40.516   9.517
 1920POPC   GL126761   8.069  40.575   9.178
 1920POPC   GL226762   8.045  40.962   9.129
 1920POPC   C1A26763   8.248  40.545   8.780
 1920POPC   D2A26764   8.052  40.412   8.379
 1920POPC   C3A26765   8.123  40.569   7.979
 1920POPC   C4A26766   8.429  40.495   7.682
 1920POPC   C1B26767   8.222  41.086   8.729
 1920POPC   C2B26768   8.326  40.865   8.360
 1920POPC   C3B26769   8.374  41.004   7.950
 1920POPC   C4B26770   8.715  40.904   7.707
 1921POPC   NC326771  30.535  36.617   9.606
 1921POPC   PO426772  30.953  37.139   9.649
 1921POPC   GL126773  30.693  37.022   9.292
 1921POPC   GL226774  30.876  36.756   9.149
 1921POPC   C1A26775  30.559  36.983   8.835
 1921POPC   D2A26776  30.250  37.078   8.539
 1921POPC   C3A26777  30.490  37.262   8.198
 1921POPC   C4A26778  30.835  37.155   7.922
 1921POPC   C1B26779  31.057  36.570   8.735
 1921POPC   C2B26780  30.844  36.425   8.358
 1921POPC   C3B26781  30.666  36.626   7.979
 1921POPC   C4B26782  30.912  36.520   7.621
 1922POPC   NC326783  19.424  17.644   9.454
 1922POPC   PO426784  19.981  17.262   9.534
 1922POPC   GL126785  19.829  17.474   9.163
 1922POPC   GL226786  19.764  17.827   9.130
 1922POPC   C1A26787  19.937  17.533   8.730
 1922POPC   D2A26788  19.698  17.414   8.389
 1922POPC   C3A26789  19.783  17.562   7.999
 1922POPC   C4A26790  19.798  17.525   7.568
 1922POPC   C1B26791  19.493  17.749   8.771
 1922POPC   C2B26792  19.475  17.885   8.344
 1922POPC   C3B26793  19.376  17.852   7.906
 1922POPC   C4B26794  19.368  17.746   7.469
 1923POPC   NC326795  13.123   2.441   9.346
 1923POPC   PO426796  13.693   2.766   9.561
 1923POPC   GL126797  13.811   2.587   9.167
 1923POPC   GL226798  13.520   2.419   9.025
 1923POPC   C1A26799  14.065   2.749   8.786
 1923POPC   D2A26800  14.024   2.995   8.383
 1923POPC   C3A26801  13.759   2.830   8.047
 1923POPC   C4A26802  13.488   2.942   7.696
 1923POPC   C1B26803  13.561   2.817   8.772
 1923POPC   C2B26804  13.433   3.063   8.395
 1923POPC   C3B26805  13.182   2.867   8.085
 1923POPC   C4B26806  13.194   2.468   7.831
 1924POPC   NC326807  41.941  20.655   9.620
 1924POPC   PO426808  41.325  20.981   9.441
 1924POPC   GL126809  41.567  20.670   9.184
 1924POPC   GL226810  41.940  20.727   9.119
 1924POPC   C1A26811  41.524  20.626   8.724
 1924POPC   D2A26812  41.747  20.834   8.351
 1924POPC   C3A26813  41.632  20.793   7.903
 1924POPC   C4A26814  41.532  20.757   7.455
 1924POPC   C1B26815  41.993  20.410   8.828
 1924POPC   C2B26816  41.846  20.330   8.451
 1924POPC   C3B26817  41.969  20.436   8.072
 1924POPC   C4B26818  41.759  20.314   7.688
 1925POPC   NC326819  39.455  42.368   9.860
 1925POPC   PO426820  39.119  42.127   9.256
 1925POPC   GL126821  39.289  42.370   8.972
 1925POPC   GL226822  39.543  42.148   8.919
 1925POPC   C1A26823  39.289  42.479   8.538
 1925POPC   D2A26824  39.124  42.585   8.181
 1925POPC   C3A26825  39.205  42.306   7.831
 1925POPC   C4A26826  39.123  42.491   7.375
 1925POPC   C1B26827  39.686  42.198   8.564
 1925POPC   C2B26828  39.609  42.184   8.160
 1925POPC   C3B26829  39.667  42.004   7.763
 1925POPC   C4B26830  39.424  42.090   7.411
 1926POPC   NC326831  39.722  10.928   9.605
 1926POPC   PO426832  39.961  11.567   9.491
 1926POPC   GL126833  39.902  11.446   9.100
 1926POPC   GL226834  40.011  11.085   9.140
 1926POPC   C1A26835  40.009  11.326   8.680
 1926POPC   D2A26836  39.978  11.062   8.317
 1926POPC   C3A26837  39.992  11.311   7.961
 1926POPC   C4A26838  40.137  11.394   7.557
 1926POPC   C1B26839  39.775  10.859   8.786
 1926POPC   C2B26840  39.492  10.914   8.416
 1926POPC   C3B26841  39.560  11.025   7.959
 1926POPC   C4B26842  39.836  10.994   7.592
 1927POPC   NC326843  20.242  26.394   9.507
 1927POPC   PO426844  19.754  25.949   9.734
 1927POPC   GL126845  19.884  25.992   9.263
 1927POPC   GL226846  19.956  25.681   9.063
 1927POPC   C1A26847  19.991  26.205   8.865
 1927POPC   D2A26848  19.907  26.064   8.453
 1927POPC   C3A26849  20.118  26.151   8.061
 1927POPC   C4A26850  19.903  26.173   7.656
 1927POPC   C1B26851  19.506  25.730   8.959
 1927POPC   C2B26852  19.372  25.850   8.546
 1927POPC   C3B26853  19.592  25.787   8.148
 1927POPC   C4B26854  19.557  25.801   7.724
 1928POPC   NC326855  26.005  21.693   9.684
 1928POPC   PO426856  26.130  21.050   9.555
 1928POPC   GL126857  26.189  21.107   9.130
 1928POPC   GL226858  26.157  21.507   9.130
 1928POPC   C1A26859  26.144  21.234   8.700
 1928POPC   D2A26860  25.916  21.498   8.412
 1928POPC   C3A26861  25.945  21.288   8.027
 1928POPC   C4A26862  25.807  21.436   7.634
 1928POPC   C1B26863  26.345  21.697   8.743
 1928POPC   C2B26864  26.396  21.631   8.285
 1928POPC   C3B26865  26.125  21.749   7.925
 1928POPC   C4B26866  26.209  21.685   7.475
 1929POPC   NC326867  17.165   1.470   9.538
 1929POPC   PO426868  17.681   0.979   9.522
 1929POPC   GL126869  17.569   1.321   9.246
 1929POPC   GL226870  17.332   1.078   9.172
 1929POPC   C1A26871  17.441   1.480   8.830
 1929POPC   D2A26872  17.679   1.406   8.425
 1929POPC   C3A26873  17.504   1.503   8.024
 1929POPC   C4A26874  17.461   1.353   7.594
 1929POPC   C1B26875  17.230   1.010   8.758
 1929POPC   C2B26876  17.209   1.180   8.344
 1929POPC   C3B26877  17.387   0.985   7.961
 1929POPC   C4B26878  17.239   0.927   7.519
 1930POPC   NC326879   1.573  39.559   9.445
 1930POPC   PO426880   0.941  39.185   9.583
 1930POPC   GL126881   1.028  39.299   9.163
 1930POPC   GL226882   1.392  39.248   9.084
 1930POPC   C1A26883   0.923  39.205   8.737
 1930POPC   D2A26884   1.175  39.277   8.373
 1930POPC   C3A26885   0.988  39.327   7.986
 1930POPC   C4A26886   1.082  39.387   7.541
 1930POPC   C1B26887   1.606  39.465   8.733
 1930POPC   C2B26888   1.510  39.638   8.297
 1930POPC   C3B26889   1.489  39.348   7.968
 1930POPC   C4B26890   1.777  39.074   7.815
 1931POPC   NC326891  16.908  20.683   9.628
 1931POPC   PO426892  16.431  20.140   9.582
 1931POPC   GL126893  16.561  20.506   9.286
 1931POPC   GL226894  16.297  20.399   9.104
 1931POPC   C1A26895  16.722  20.589   8.853
 1931POPC   D2A26896  16.957  20.467   8.464
 1931POPC   C3A26897  16.796  20.602   8.088
 1931POPC   C4A26898  16.705  20.850   7.747
 1931POPC   C1B26899  16.210  20.271   8.736
 1931POPC   C2B26900  16.447  20.330   8.408
 1931POPC   C3B26901  16.460  20.180   8.043
 1931POPC   C4B26902  16.522  20.364   7.684
 1932POPC   NC326903  38.043  19.668   9.601
 1932POPC   PO426904  37.324  19.932   9.537
 1932POPC   GL126905  37.705  19.990   9.255
 1932POPC   GL226906  37.822  19.675   9.121
 1932POPC   C1A26907  37.889  20.103   8.840
 1932POPC   D2A26908  37.728  19.852   8.516
 1932POPC   C3A26909  37.776  19.910   8.074
 1932POPC   C4A26910  37.426  20.132   7.908
 1932POPC   C1B26911  37.965  19.462   8.757
 1932POPC   C2B26912  37.958  19.461   8.303
 1932POPC   C3B26913  38.071  19.528   7.859
 1932POPC   C4B26914  37.818  19.641   7.495
 1933POPC   NC326915   6.872  30.991   9.501
 1933POPC   PO426916   6.246  30.679   9.511
 1933POPC   GL126917   6.508  30.744   9.153
 1933POPC   GL226918   6.233  30.928   9.036
 1933POPC   C1A26919   6.761  30.581   8.769
 1933POPC   D2A26920   6.635  30.439   8.339
 1933POPC   C3A26921   6.769  30.578   7.929
 1933POPC   C4A26922   6.691  30.508   7.491
 1933POPC   C1B26923   6.366  30.868   8.627
 1933POPC   C2B26924   6.389  30.838   8.160
 1933POPC   C3B26925   6.306  30.785   7.730
 1933POPC   C4B26926   6.461  30.968   7.342
 1934POPC   NC326927  35.794   6.505   9.318
 1934POPC   PO426928  36.193   6.829   9.758
 1934POPC   GL126929  36.260   6.685   9.268
 1934POPC   GL226930  36.481   6.850   9.172
 1934POPC   C1A26931  36.223   6.576   8.798
 1934POPC   D2A26932  35.940   6.669   8.401
 1934POPC   C3A26933  36.020   6.494   7.966
 1934POPC   C4A26934  35.865   6.543   7.525
 1934POPC   C1B26935  36.383   7.072   8.842
 1934POPC   C2B26936  36.413   6.917   8.443
 1934POPC   C3B26937  36.241   6.965   8.064
 1934POPC   C4B26938  36.298   6.804   7.637
 1935POPC   NC326939  30.168  43.574   9.263
 1935POPC   PO426940  30.641  43.130   9.596
 1935POPC   GL126941  30.715  42.958   9.174
 1935POPC   GL226942  30.701  43.294   9.107
 1935POPC   C1A26943  30.938  43.019   8.744
 1935POPC   D2A26944  30.714  42.964   8.329
 1935POPC   C3A26945  30.901  43.025   7.911
 1935POPC   C4A26946  30.998  42.890   7.498
 1935POPC   C1B26947  30.453  43.200   8.765
 1935POPC   C2B26948  30.342  43.357   8.360
 1935POPC   C3B26949  30.442  43.278   7.924
 1935POPC   C4B26950  30.321  43.414   7.495
 1936POPC   NC326951  34.833  14.984   9.547
 1936POPC   PO426952  34.579  14.340   9.462
 1936POPC   GL126953  34.680  14.390   9.081
 1936POPC   GL226954  34.826  14.708   9.123
 1936POPC   C1A26955  34.662  14.243   8.671
 1936POPC   D2A26956  34.410  14.325   8.342
 1936POPC   C3A26957  34.531  14.315   7.931
 1936POPC   C4A26958  34.303  14.463   7.547
 1936POPC   C1B26959  35.024  14.616   8.740
 1936POPC   C2B26960  35.057  14.449   8.330
 1936POPC   C3B26961  34.934  14.641   7.942
 1936POPC   C4B26962  34.805  14.534   7.534
 1937POPC   NC326963  36.646  32.282   9.420
 1937POPC   PO426964  37.216  31.972   9.507
 1937POPC   GL126965  36.919  31.906   9.185
 1937POPC   GL226966  37.026  32.221   9.018
 1937POPC   C1A26967  36.798  31.820   8.759
 1937POPC   D2A26968  36.998  32.146   8.483
 1937POPC   C3A26969  36.864  32.146   8.039
 1937POPC   C4A26970  36.710  31.964   7.635
 1937POPC   C1B26971  37.215  32.565   8.741
 1937POPC   C2B26972  37.415  32.737   8.344
 1937POPC   C3B26973  37.363  32.714   7.892
 1937POPC   C4B26974  36.919  32.590   7.767
 1938POPC   NC326975  31.046   5.380   9.609
 1938POPC   PO426976  30.570   4.928   9.437
 1938POPC   GL126977  30.828   4.973   9.108
 1938POPC   GL226978  30.856   5.310   9.122
 1938POPC   C1A26979  30.733   4.863   8.694
 1938POPC   D2A26980  30.429   4.663   8.420
 1938POPC   C3A26981  30.594   4.740   7.988
 1938POPC   C4A26982  30.771   5.021   7.629
 1938POPC   C1B26983  30.782   5.359   8.683
 1938POPC   C2B26984  30.632   5.200   8.290
 1938POPC   C3B26985  30.701   5.430   7.923
 1938POPC   C4B26986  31.123   5.470   7.743
 1939POPC   NC326987  42.261  29.270   9.574
 1939POPC   PO426988  42.314  28.629   9.531
 1939POPC   GL126989  42.368  28.949   9.215
 1939POPC   GL226990  42.649  29.191   9.217
 1939POPC   C1A26991  42.199  29.124   8.844
 1939POPC   D2A26992  42.436  29.118   8.427
 1939POPC   C3A26993  42.198  29.085   8.019
 1939POPC   C4A26994  42.079  29.401   7.687
 1939POPC   C1B26995  42.726  28.936   8.829
 1939POPC   C2B26996  42.919  28.945   8.422
 1939POPC   C3B26997  42.698  28.927   8.013
 1939POPC   C4B26998  42.549  29.169   7.648
 1940POPC   NC326999  32.585  33.387   9.270
 1940POPC   PO427000  33.159  33.080   9.551
 1940POPC   GL127001  32.916  32.995   9.198
 1940POPC   GL227002  33.203  32.842   9.069
 1940POPC   C1A27003  32.840  33.006   8.760
 1940POPC   D2A27004  33.001  33.296   8.464
 1940POPC   C3A27005  32.867  33.078   8.119
 1940POPC   C4A27006  32.864  33.034   7.679
 1940POPC   C1B27007  33.358  32.951   8.670
 1940POPC   C2B27008  33.391  33.022   8.240
 1940POPC   C3B27009  33.470  32.963   7.825
 1940POPC   C4B27010  33.320  33.155   7.453
 1941POPC   NC327011  13.218   4.717   9.415
 1941POPC   PO427012  12.720   4.297   9.553
 1941POPC   GL127013  12.711   4.339   9.148
 1941POPC   GL227014  12.695   4.709   9.217
 1941POPC   C1A27015  12.554   4.190   8.735
 1941POPC   D2A27016  12.505   4.064   8.299
 1941POPC   C3A27017  12.855   4.063   8.074
 1941POPC   C4A27018  12.867   4.203   7.696
 1941POPC   C1B27019  12.737   4.677   8.786
 1941POPC   C2B27020  12.889   4.452   8.449
 1941POPC   C3B27021  12.774   4.577   8.064
 1941POPC   C4B27022  12.978   4.688   7.728
 1942POPC   NC327023  26.860   9.329   9.531
 1942POPC   PO427024  27.106   9.888   9.504
 1942POPC   GL127025  26.887   9.694   9.172
 1942POPC   GL227026  27.125   9.401   9.088
 1942POPC   C1A27027  26.776   9.894   8.782
 1942POPC   D2A27028  26.845   9.769   8.366
 1942POPC   C3A27029  26.590   9.800   7.998
 1942POPC   C4A27030  26.816   9.899   7.642
 1942POPC   C1B27031  26.805   9.366   8.736
 1942POPC   C2B27032  26.895   9.271   8.276
 1942POPC   C3B27033  26.860   9.382   7.825
 1942POPC   C4B27034  26.478   9.472   7.572
 1943POPC   NC327035  28.631  36.328   9.454
 1943POPC   PO427036  28.075  35.939   9.516
 1943POPC   GL127037  28.375  35.963   9.195
 1943POPC   GL227038  28.215  36.288   9.156
 1943POPC   C1A27039  28.511  36.154   8.780
 1943POPC   D2A27040  28.342  36.226   8.390
 1943POPC   C3A27041  28.609  36.221   8.051
 1943POPC   C4A27042  28.652  36.461   7.690
 1943POPC   C1B27043  27.989  36.110   8.797
 1943POPC   C2B27044  27.851  36.334   8.414
 1943POPC   C3B27045  27.952  36.244   8.040
 1943POPC   C4B27046  28.196  36.236   7.712
 1944POPC   NC327047  33.867  34.796   9.460
 1944POPC   PO427048  33.488  35.381   9.477
 1944POPC   GL127049  33.719  35.216   9.132
 1944POPC   GL227050  33.647  35.551   9.020
 1944POPC   C1A27051  34.001  35.193   8.742
 1944POPC   D2A27052  34.138  35.063   8.303
 1944POPC   C3A27053  34.075  35.400   7.989
 1944POPC   C4A27054  33.835  35.306   7.638
 1944POPC   C1B27055  33.475  35.524   8.645
 1944POPC   C2B27056  33.665  35.711   8.290
 1944POPC   C3B27057  33.659  35.729   7.857
 1944POPC   C4B27058  33.460  35.775   7.487
 1945POPC   NC327059  43.040  28.849   9.418
 1945POPC   PO427060  43.466  29.369   9.585
 1945POPC   GL127061  43.334  29.191   9.198
 1945POPC   GL227062  43.307  29.526   9.085
 1945POPC   C1A27063  43.447  29.081   8.763
 1945POPC   D2A27064  43.307  29.308   8.371
 1945POPC   C3A27065  43.182  29.082   7.978
 1945POPC   C4A27066  43.092  29.168   7.528
 1945POPC   C1B27067  43.007  29.354   8.803
 1945POPC   C2B27068  42.819  29.458   8.395
 1945POPC   C3B27069  42.846  29.437   7.963
 1945POPC   C4B27070  43.045  29.655   7.629
 1946POPC   NC327071  26.681  37.179   9.836
 1946POPC   PO427072  26.545  36.531   9.834
 1946POPC   GL127073  26.715  36.621   9.361
 1946POPC   GL227074  26.854  36.925   9.205
 1946POPC   C1A27075  26.616  36.625   8.875
 1946POPC   D2A27076  26.705  36.783   8.455
 1946POPC   C3A27077  26.932  36.542   8.155
 1946POPC   C4A27078  26.835  36.711   7.777
 1946POPC   C1B27079  26.685  37.128   8.851
 1946POPC   C2B27080  26.843  37.296   8.464
 1946POPC   C3B27081  26.966  37.123   8.049
 1946POPC   C4B27082  27.111  37.105   7.587
 1947POPC   NC327083  16.793  43.649   9.715
 1947POPC   PO427084  16.804  42.932   9.653
 1947POPC   GL127085  16.723  43.111   9.244
 1947POPC   GL227086  17.006  43.168   9.064
 1947POPC   C1A27087  16.596  42.934   8.852
 1947POPC   D2A27088  16.582  42.995   8.411
 1947POPC   C3A27089  16.810  42.768   8.106
 1947POPC   C4A27090  16.601  42.832   7.758
 1947POPC   C1B27091  16.931  43.281   8.667
 1947POPC   C2B27092  17.049  43.167   8.283
 1947POPC   C3B27093  16.916  43.233   7.855
 1947POPC   C4B27094  17.079  43.347   7.452
 1948POPC   NC327095  24.676  32.404   9.546
 1948POPC   PO427096  24.180  31.907   9.537
 1948POPC   GL127097  24.280  32.175   9.213
 1948POPC   GL227098  24.604  32.121   9.106
 1948POPC   C1A27099  24.239  32.225   8.773
 1948POPC   D2A27100  24.431  32.363   8.398
 1948POPC   C3A27101  24.244  32.274   7.999
 1948POPC   C4A27102  24.386  32.240   7.534
 1948POPC   C1B27103  24.817  32.210   8.734
 1948POPC   C2B27104  24.942  32.315   8.314
 1948POPC   C3B27105  24.740  32.312   7.914
 1948POPC   C4B27106  24.892  32.352   7.496
 1949POPC   NC327107   6.448  34.133   9.390
 1949POPC   PO427108   6.588  33.543   9.589
 1949POPC   GL127109   6.651  33.715   9.161
 1949POPC   GL227110   6.870  34.016   9.106
 1949POPC   C1A27111   6.474  33.599   8.760
 1949POPC   D2A27112   6.623  33.485   8.371
 1949POPC   C3A27113   6.596  33.713   7.979
 1949POPC   C4A27114   6.983  33.685   7.838
 1949POPC   C1B27115   6.605  34.079   8.726
 1949POPC   C2B27116   6.522  34.298   8.326
 1949POPC   C3B27117   6.518  34.223   7.918
 1949POPC   C4B27118   6.807  34.094   7.606
 1950POPC   NC327119  13.797  13.804   9.511
 1950POPC   PO427120  13.652  13.184   9.487
 1950POPC   GL127121  13.699  13.326   9.063
 1950POPC   GL227122  13.612  13.688   9.062
 1950POPC   C1A27123  13.802  13.514   8.645
 1950POPC   D2A27124  13.631  13.734   8.301
 1950POPC   C3A27125  13.877  13.605   7.966
 1950POPC   C4A27126  13.619  13.314   7.774
 1950POPC   C1B27127  13.353  13.841   8.728
 1950POPC   C2B27128  13.129  13.933   8.352
 1950POPC   C3B27129  13.250  13.883   7.947
 1950POPC   C4B27130  13.529  13.786   7.625
 1951POPC   NC327131  16.896   7.299   9.509
 1951POPC   PO427132  16.247   7.504   9.493
 1951POPC   GL127133  16.468   7.446   9.106
 1951POPC   GL227134  16.822   7.375   9.024
 1951POPC   C1A27135  16.508   7.604   8.694
 1951POPC   D2A27136  16.317   7.613   8.312
 1951POPC   C3A27137  16.595   7.458   8.036
 1951POPC   C4A27138  16.683   7.785   7.830
 1951POPC   C1B27139  17.053   7.025   8.795
 1951POPC   C2B27140  17.307   7.088   8.399
 1951POPC   C3B27141  17.217   7.065   7.982
 1951POPC   C4B27142  17.009   7.367   7.736
 1952POPC   NC327143  36.796  27.889   9.581
 1952POPC   PO427144  37.215  27.304   9.600
 1952POPC   GL127145  37.035  27.513   9.238
 1952POPC   GL227146  37.085  27.829   9.149
 1952POPC   C1A27147  36.990  27.491   8.775
 1952POPC   D2A27148  36.962  27.285   8.341
 1952POPC   C3A27149  36.984  27.544   7.973
 1952POPC   C4A27150  36.744  27.882   7.750
 1952POPC   C1B27151  37.304  27.895   8.751
 1952POPC   C2B27152  37.132  27.830   8.386
 1952POPC   C3B27153  37.140  28.063   8.041
 1952POPC   C4B27154  37.357  27.859   7.784
 1953POPC   NC327155  25.322  23.339   9.839
 1953POPC   PO427156  25.549  23.768   9.433
 1953POPC   GL127157  25.326  23.701   9.111
 1953POPC   GL227158  25.528  23.488   8.945
 1953POPC   C1A27159  25.074  23.631   8.770
 1953POPC   D2A27160  25.191  23.391   8.436
 1953POPC   C3A27161  25.237  23.664   8.127
 1953POPC   C4A27162  24.976  23.801   7.818
 1953POPC   C1B27163  25.587  23.695   8.620
 1953POPC   C2B27164  25.680  23.478   8.307
 1953POPC   C3B27165  25.731  23.595   7.938
 1953POPC   C4B27166  25.488  23.861   7.702
 1954POPC   NC327167  22.724  42.835   9.627
 1954POPC   PO427168  22.999  42.197   9.409
 1954POPC   GL127169  22.758  42.291   9.077
 1954POPC   GL227170  22.862  42.630   9.115
 1954POPC   C1A27171  22.653  42.324   8.637
 1954POPC   D2A27172  22.791  42.069   8.267
 1954POPC   C3A27173  22.684  42.151   7.863
 1954POPC   C4A27174  22.624  42.580   7.718
 1954POPC   C1B27175  23.143  42.445   8.790
 1954POPC   C2B27176  23.262  42.509   8.377
 1954POPC   C3B27177  23.049  42.491   8.004
 1954POPC   C4B27178  23.062  42.356   7.563
 1955POPC   NC327179   4.091  37.477   9.480
 1955POPC   PO427180   4.731  37.850   9.519
 1955POPC   GL127181   4.378  37.841   9.181
 1955POPC   GL227182   4.181  38.160   9.128
 1955POPC   C1A27183   4.396  37.640   8.761
 1955POPC   D2A27184   4.525  37.698   8.312
 1955POPC   C3A27185   4.186  37.590   7.996
 1955POPC   C4A27186   4.334  37.557   7.632
 1955POPC   C1B27187   4.406  38.174   8.726
 1955POPC   C2B27188   4.433  38.204   8.255
 1955POPC   C3B27189   4.447  38.001   7.873
 1955POPC   C4B27190   4.234  38.022   7.485
 1956POPC   NC327191   5.596  24.136   9.436
 1956POPC   PO427192   6.236  24.460   9.660
 1956POPC   GL127193   5.952  24.461   9.258
 1956POPC   GL227194   6.041  24.159   9.171
 1956POPC   C1A27195   5.748  24.564   8.805
 1956POPC   D2A27196   5.872  24.740   8.390
 1956POPC   C3A27197   5.786  24.570   7.999
 1956POPC   C4A27198   6.148  24.463   7.774
 1956POPC   C1B27199   5.772  24.060   8.807
 1956POPC   C2B27200   5.848  24.212   8.377
 1956POPC   C3B27201   5.887  24.064   7.961
 1956POPC   C4B27202   5.587  23.830   7.748
 1957POPC   NC327203  11.775  39.906   9.297
 1957POPC   PO427204  12.383  39.589   9.471
 1957POPC   GL127205  12.274  39.941   9.174
 1957POPC   GL227206  12.497  40.228   9.110
 1957POPC   C1A27207  12.145  39.992   8.741
 1957POPC   D2A27208  11.866  39.910   8.402
 1957POPC   C3A27209  11.880  40.206   8.071
 1957POPC   C4A27210  11.951  39.968   7.708
 1957POPC   C1B27211  12.635  39.881   8.820
 1957POPC   C2B27212  12.574  40.035   8.395
 1957POPC   C3B27213  12.308  39.885   8.080
 1957POPC   C4B27214  12.377  39.708   7.675
 1958POPC   NC327215  11.663   6.826   9.525
 1958POPC   PO427216  12.251   6.460   9.521
 1958POPC   GL127217  11.962   6.574   9.184
 1958POPC   GL227218  11.750   6.325   9.064
 1958POPC   C1A27219  12.081   6.815   8.805
 1958POPC   D2A27220  12.353   6.957   8.459
 1958POPC   C3A27221  12.361   6.646   8.133
 1958POPC   C4A27222  12.095   6.689   7.766
 1958POPC   C1B27223  11.752   6.446   8.647
 1958POPC   C2B27224  11.790   6.601   8.219
 1958POPC   C3B27225  11.621   6.525   7.792
 1958POPC   C4B27226  11.763   6.503   7.345
 1959POPC   NC327227  38.898  35.711   9.444
 1959POPC   PO427228  39.483  35.927   9.460
 1959POPC   GL127229  39.174  36.004   9.123
 1959POPC   GL227230  38.995  36.341   9.080
 1959POPC   C1A27231  39.298  36.086   8.710
 1959POPC   D2A27232  39.532  36.119   8.350
 1959POPC   C3A27233  39.364  35.927   8.006
 1959POPC   C4A27234  39.267  35.979   7.581
 1959POPC   C1B27235  38.802  36.136   8.728
 1959POPC   C2B27236  38.960  36.053   8.297
 1959POPC   C3B27237  38.953  36.260   7.904
 1959POPC   C4B27238  38.908  36.286   7.443
 1960POPC   NC327239  38.623  19.729   9.367
 1960POPC   PO427240  38.094  20.151   9.546
 1960POPC   GL127241  38.226  19.983   9.197
 1960POPC   GL227242  38.464  20.182   9.128
 1960POPC   C1A27243  38.324  19.841   8.781
 1960POPC   D2A27244  38.217  19.943   8.378
 1960POPC   C3A27245  38.444  19.643   8.191
 1960POPC   C4A27246  38.564  19.609   7.772
 1960POPC   C1B27247  38.787  20.188   8.834
 1960POPC   C2B27248  38.728  19.999   8.468
 1960POPC   C3B27249  38.741  20.023   8.046
 1960POPC   C4B27250  38.993  20.293   7.805
 1961POPC   NC327251  35.620  15.358   9.299
 1961POPC   PO427252  35.264  14.918   9.739
 1961POPC   GL127253  35.258  14.962   9.267
 1961POPC   GL227254  35.079  15.269   9.176
 1961POPC   C1A27255  35.354  14.998   8.806
 1961POPC   D2A27256  35.608  14.796   8.490
 1961POPC   C3A27257  35.328  14.896   8.191
 1961POPC   C4A27258  35.257  15.039   7.804
 1961POPC   C1B27259  35.140  15.481   8.762
 1961POPC   C2B27260  35.352  15.392   8.360
 1961POPC   C3B27261  35.425  15.549   7.932
 1961POPC   C4B27262  35.339  15.423   7.509
 1962POPC   NC327263   9.135  10.111   9.550
 1962POPC   PO427264   8.851  10.605   9.912
 1962POPC   GL127265   8.957  10.652   9.385
 1962POPC   GL227266   9.024  10.348   9.111
 1962POPC   C1A27267   8.986  10.784   8.911
 1962POPC   D2A27268   8.852  10.475   8.574
 1962POPC   C3A27269   8.826  10.535   8.139
 1962POPC   C4A27270   8.960  10.848   7.883
 1962POPC   C1B27271   9.330  10.431   8.705
 1962POPC   C2B27272   9.326  10.489   8.258
 1962POPC   C3B27273   9.292  10.429   7.828
 1962POPC   C4B27274   9.451  10.185   7.454
 1963POPC   NC327275  41.974   0.913   9.607
 1963POPC   PO427276  42.480   1.315   9.586
 1963POPC   GL127277  42.232   1.162   9.243
 1963POPC   GL227278  42.308   0.800   9.210
 1963POPC   C1A27279  42.182   1.130   8.812
 1963POPC   D2A27280  42.407   1.056   8.455
 1963POPC   C3A27281  42.220   1.039   8.042
 1963POPC   C4A27282  42.278   1.276   7.657
 1963POPC   C1B27283  42.584   0.625   8.871
 1963POPC   C2B27284  42.734   0.670   8.423
 1963POPC   C3B27285  42.594   0.682   7.983
 1963POPC   C4B27286  42.576   0.874   7.568
 1964POPC   NC327287  35.902  25.501   9.467
 1964POPC   PO427288  36.445  25.142   9.297
 1964POPC   GL127289  36.021  25.194   9.065
 1964POPC   GL227290  36.022  25.588   8.975
 1964POPC   C1A27291  35.854  25.266   8.622
 1964POPC   D2A27292  36.076  25.422   8.242
 1964POPC   C3A27293  35.889  25.197   7.907
 1964POPC   C4A27294  35.912  25.150   7.498
 1964POPC   C1B27295  36.338  25.386   8.706
 1964POPC   C2B27296  36.435  25.068   8.408
 1964POPC   C3B27297  36.389  25.039   7.975
 1964POPC   C4B27298  36.374  25.376   7.668
 1965POPC   NC327299  14.658  18.664   9.943
 1965POPC   PO427300  15.256  18.706   9.635
 1965POPC   GL127301  15.272  18.907   9.144
 1965POPC   GL227302  15.019  19.173   9.056
 1965POPC   C1A27303  15.227  18.916   8.676
 1965POPC   D2A27304  15.560  18.910   8.375
 1965POPC   C3A27305  15.451  19.130   8.039
 1965POPC   C4A27306  15.343  19.070   7.621
 1965POPC   C1B27307  14.941  19.408   8.721
 1965POPC   C2B27308  14.993  19.272   8.332
 1965POPC   C3B27309  14.965  19.012   7.984
 1965POPC   C4B27310  14.846  19.184   7.581
 1966POPC   NC327311  44.768   2.256   9.704
 1966POPC   PO427312  44.385   1.710   9.701
 1966POPC   GL127313  44.665   1.890   9.301
 1966POPC   GL227314  44.833   2.244   9.168
 1966POPC   C1A27315  44.713   1.891   8.818
 1966POPC   D2A27316  44.933   1.780   8.431
 1966POPC   C3A27317  44.733   1.971   8.072
 1966POPC   C4A27318  44.785   1.920   7.642
 1966POPC   C1B27319  44.755   2.442   8.698
 1966POPC   C2B27320  44.804   2.445   8.199
 1966POPC   C3B27321   0.093   2.297   7.799
 1966POPC   C4B27322   0.107   2.175   7.327
 1967POPC   NC327323  35.610  22.337   9.405
 1967POPC   PO427324  36.131  21.894   9.374
 1967POPC   GL127325  36.049  22.262   9.151
 1967POPC   GL227326  36.339  22.385   9.071
 1967POPC   C1A27327  35.865  22.296   8.753
 1967POPC   D2A27328  35.985  21.973   8.463
 1967POPC   C3A27329  36.257  22.030   8.120
 1967POPC   C4A27330  35.966  22.141   7.815
 1967POPC   C1B27331  36.370  22.267   8.626
 1967POPC   C2B27332  36.525  22.455   8.264
 1967POPC   C3B27333  36.371  22.516   7.851
 1967POPC   C4B27334  36.181  22.444   7.459
 1968POPC   NC327335  32.259  40.215   9.384
 1968POPC   PO427336  31.779  39.749   9.534
 1968POPC   GL127337  32.126  39.751   9.161
 1968POPC   GL227338  32.101  40.069   8.907
 1968POPC   C1A27339  32.459  39.760   8.793
 1968POPC   D2A27340  32.278  39.866   8.369
 1968POPC   C3A27341  32.420  39.997   7.933
 1968POPC   C4A27342  32.575  40.137   7.525
 1968POPC   C1B27343  32.482  40.306   8.705
 1968POPC   C2B27344  32.621  40.572   8.340
 1968POPC   C3B27345  32.569  40.539   7.885
 1968POPC   C4B27346  32.181  40.412   7.720
 1969POPC   NC327347  15.430  11.927   9.324
 1969POPC   PO427348  14.959  12.315   9.686
 1969POPC   GL127349  14.976  12.323   9.212
 1969POPC   GL227350  15.290  12.401   9.211
 1969POPC   C1A27351  15.076  12.131   8.761
 1969POPC   D2A27352  15.189  12.176   8.294
 1969POPC   C3A27353  14.928  11.966   7.933
 1969POPC   C4A27354  14.902  11.679   7.542
 1969POPC   C1B27355  15.246  12.610   8.841
 1969POPC   C2B27356  15.523  12.681   8.514
 1969POPC   C3B27357  15.545  12.529   8.103
 1969POPC   C4B27358  15.237  12.346   7.810
 1970POPC   NC327359  20.036  23.914   9.427
 1970POPC   PO427360  19.343  23.733   9.521
 1970POPC   GL127361  19.592  23.813   9.188
 1970POPC   GL227362  19.852  23.564   9.099
 1970POPC   C1A27363  19.622  23.939   8.780
 1970POPC   D2A27364  19.800  23.964   8.364
 1970POPC   C3A27365  19.497  23.934   8.070
 1970POPC   C4A27366  19.647  23.817   7.696
 1970POPC   C1B27367  20.108  23.776   8.797
 1970POPC   C2B27368  20.162  23.608   8.413
 1970POPC   C3B27369  19.961  23.570   8.027
 1970POPC   C4B27370  20.197  23.639   7.669
 1971POPC   NC327371  30.779  42.012   9.387
 1971POPC   PO427372  30.685  41.370   9.500
 1971POPC   GL127373  30.556  41.292   9.122
 1971POPC   GL227374  30.593  41.650   9.027
 1971POPC   C1A27375  30.741  41.251   8.730
 1971POPC   D2A27376  30.661  41.570   8.497
 1971POPC   C3A27377  30.684  41.455   8.123
 1971POPC   C4A27378  30.617  41.536   7.714
 1971POPC   C1B27379  31.007  41.737   8.824
 1971POPC   C2B27380  31.152  41.739   8.391
 1971POPC   C3B27381  31.035  41.759   7.945
 1971POPC   C4B27382  30.958  41.813   7.460
 1972POPC   NC327383  13.863  32.795   9.528
 1972POPC   PO427384  13.229  33.040   9.553
 1972POPC   GL127385  13.502  33.000   9.184
 1972POPC   GL227386  13.617  32.653   9.079
 1972POPC   C1A27387  13.578  33.061   8.734
 1972POPC   D2A27388  13.417  32.907   8.323
 1972POPC   C3A27389  13.642  33.097   7.982
 1972POPC   C4A27390  14.082  33.272   7.968
 1972POPC   C1B27391  13.938  32.656   8.718
 1972POPC   C2B27392  14.164  32.774   8.310
 1972POPC   C3B27393  14.004  32.750   7.877
 1972POPC   C4B27394  13.615  32.744   7.617
 1973POPC   NC327395  22.269  37.846   9.653
 1973POPC   PO427396  22.712  37.391   9.454
 1973POPC   GL127397  22.525  37.549   9.061
 1973POPC   GL227398  22.268  37.818   9.130
 1973POPC   C1A27399  22.173  37.501   8.752
 1973POPC   D2A27400  21.917  37.678   8.407
 1973POPC   C3A27401  21.772  37.482   8.057
 1973POPC   C4A27402  22.102  37.474   7.823
 1973POPC   C1B27403  21.939  38.003   8.800
 1973POPC   C2B27404  21.762  38.161   8.385
 1973POPC   C3B27405  22.004  38.195   8.000
 1973POPC   C4B27406  22.141  37.955   7.645
 1974POPC   NC327407   6.181  21.607   9.484
 1974POPC   PO427408   5.607  21.313   9.488
 1974POPC   GL127409   5.808  21.497   9.150
 1974POPC   GL227410   6.095  21.266   9.081
 1974POPC   C1A27411   5.693  21.380   8.738
 1974POPC   D2A27412   5.452  21.146   8.428
 1974POPC   C3A27413   5.755  21.046   8.085
 1974POPC   C4A27414   5.643  20.925   7.666
 1974POPC   C1B27415   6.185  21.615   8.780
 1974POPC   C2B27416   6.253  21.893   8.399
 1974POPC   C3B27417   6.259  21.839   7.930
 1974POPC   C4B27418   6.155  21.362   7.780
 1975POPC   NC327419  24.742  16.648   9.482
 1975POPC   PO427420  24.095  16.463   9.383
 1975POPC   GL127421  24.273  16.756   9.102
 1975POPC   GL227422  24.588  16.925   9.092
 1975POPC   C1A27423  24.551  16.631   8.699
 1975POPC   D2A27424  24.749  16.604   8.312
 1975POPC   C3A27425  24.501  16.649   7.947
 1975POPC   C4A27426  24.775  16.551   7.623
 1975POPC   C1B27427  24.327  17.078   8.738
 1975POPC   C2B27428  24.464  17.017   8.337
 1975POPC   C3B27429  24.572  17.149   7.965
 1975POPC   C4B27430  24.172  17.065   7.797
 1976POPC   NC327431  11.848   5.382   9.426
 1976POPC   PO427432  12.106   4.855   9.610
 1976POPC   GL127433  12.138   5.025   9.167
 1976POPC   GL227434  12.188   5.374   9.081
 1976POPC   C1A27435  12.184   5.046   8.706
 1976POPC   D2A27436  12.237   5.313   8.384
 1976POPC   C3A27437  12.180   5.001   8.115
 1976POPC   C4A27438  12.025   4.957   7.712
 1976POPC   C1B27439  11.831   5.414   8.789
 1976POPC   C2B27440  11.786   5.549   8.383
 1976POPC   C3B27441  11.871   5.382   7.985
 1976POPC   C4B27442  12.313   5.386   7.801
 1977POPC   NC327443  28.239  24.894   9.565
 1977POPC   PO427444  28.273  24.193   9.574
 1977POPC   GL127445  28.377  24.469   9.194
 1977POPC   GL227446  28.688  24.662   9.102
 1977POPC   C1A27447  28.279  24.618   8.758
 1977POPC   D2A27448  28.283  24.800   8.327
 1977POPC   C3A27449  28.226  24.476   8.013
 1977POPC   C4A27450  27.939  24.393   7.651
 1977POPC   C1B27451  28.704  24.328   8.778
 1977POPC   C2B27452  28.614  24.414   8.359
 1977POPC   C3B27453  28.749  24.527   7.942
 1977POPC   C4B27454  28.601  24.661   7.561
 1978POPC   NC327455  40.863  38.362   9.529
 1978POPC   PO427456  40.553  39.010   9.461
 1978POPC   GL127457  40.541  38.600   9.196
 1978POPC   GL227458  40.580  38.181   9.132
 1978POPC   C1A27459  40.462  38.534   8.784
 1978POPC   D2A27460  40.729  38.478   8.456
 1978POPC   C3A27461  40.553  38.648   8.081
 1978POPC   C4A27462  40.398  38.856   7.697
 1978POPC   C1B27463  40.943  38.160   8.852
 1978POPC   C2B27464  40.920  37.982   8.446
 1978POPC   C3B27465  40.692  38.129   8.095
 1978POPC   C4B27466  40.959  38.426   7.902
 1979POPC   NC327467  15.701  22.155   9.725
 1979POPC   PO427468  16.269  21.786   9.731
 1979POPC   GL127469  16.244  22.043   9.304
 1979POPC   GL227470  15.971  22.268   9.185
 1979POPC   C1A27471  16.306  22.179   8.826
 1979POPC   D2A27472  16.338  22.034   8.390
 1979POPC   C3A27473  16.055  22.096   8.039
 1979POPC   C4A27474  15.860  22.404   7.770
 1979POPC   C1B27475  15.798  22.096   8.740
 1979POPC   C2B27476  15.605  22.133   8.318
 1979POPC   C3B27477  15.575  21.997   7.899
 1979POPC   C4B27478  15.454  22.180   7.500
 1980POPC   NC327479  23.213  11.119   9.483
 1980POPC   PO427480  23.830  11.148   9.427
 1980POPC   GL127481  23.691  11.479   9.135
 1980POPC   GL227482  23.376  11.529   9.189
 1980POPC   C1A27483  23.849  11.615   8.742
 1980POPC   D2A27484  24.038  11.356   8.407
 1980POPC   C3A27485  23.949  11.381   7.973
 1980POPC   C4A27486  23.808  11.027   7.743
 1980POPC   C1B27487  23.333  11.204   8.862
 1980POPC   C2B27488  23.475  11.354   8.504
 1980POPC   C3B27489  23.467  11.256   8.091
 1980POPC   C4B27490  23.513  11.432   7.691
 1981POPC   NC327491  19.459  24.862   9.285
 1981POPC   PO427492  19.740  24.273   9.476
 1981POPC   GL127493  19.974  24.339   9.112
 1981POPC   GL227494  19.927  24.685   9.137
 1981POPC   C1A27495  19.889  24.364   8.651
 1981POPC   D2A27496  19.959  24.451   8.178
 1981POPC   C3A27497  19.740  24.334   7.782
 1981POPC   C4A27498  19.461  24.580   7.510
 1981POPC   C1B27499  20.000  24.838   8.724
 1981POPC   C2B27500  19.673  24.852   8.401
 1981POPC   C3B27501  19.600  24.829   7.969
 1981POPC   C4B27502  19.936  24.853   7.694
 1982POPC   NC327503   4.181  15.807   9.638
 1982POPC   PO427504   4.572  16.359   9.284
 1982POPC   GL127505   4.254  16.096   9.079
 1982POPC   GL227506   4.135  15.741   9.135
 1982POPC   C1A27507   4.118  15.962   8.669
 1982POPC   D2A27508   4.217  15.649   8.379
 1982POPC   C3A27509   4.394  15.829   8.051
 1982POPC   C4A27510   4.435  15.901   7.639
 1982POPC   C1B27511   4.520  15.701   8.878
 1982POPC   C2B27512   4.709  15.689   8.460
 1982POPC   C3B27513   4.793  15.532   8.029
 1982POPC   C4B27514   4.634  15.454   7.611
 1983POPC   NC327515   9.022  44.108   9.547
 1983POPC   PO427516   8.528  43.626   9.474
 1983POPC   GL127517   8.659  43.994   9.205
 1983POPC   GL227518   9.051  44.071   9.040
 1983POPC   C1A27519   8.590  44.131   8.812
 1983POPC   D2A27520   8.893  44.077   8.503
 1983POPC   C3A27521   8.700  44.051   8.135
 1983POPC   C4A27522   8.651  44.008   7.730
 1983POPC   C1B27523   9.303  43.730   8.833
 1983POPC   C2B27524   9.408  43.662   8.423
 1983POPC   C3B27525   9.213  43.906   8.091
 1983POPC   C4B27526   9.130  43.721   7.709
 1984POPC   NC327527   6.570  32.750   9.312
 1984POPC   PO427528   6.592  32.072   9.435
 1984POPC   GL127529   6.920  32.133   9.152
 1984POPC   GL227530   6.893  32.450   8.992
 1984POPC   C1A27531   6.988  31.946   8.796
 1984POPC   D2A27532   6.767  31.950   8.418
 1984POPC   C3A27533   6.965  32.011   8.047
 1984POPC   C4A27534   6.691  32.191   7.759
 1984POPC   C1B27535   6.494  32.364   8.754
 1984POPC   C2B27536   6.217  32.556   8.412
 1984POPC   C3B27537   6.386  32.544   7.980
 1984POPC   C4B27538   6.728  32.698   7.678
 1985POPC   NC327539  14.155   2.771   9.504
 1985POPC   PO427540  14.829   3.026   9.589
 1985POPC   GL127541  14.799   2.823   9.170
 1985POPC   GL227542  14.693   2.475   9.162
 1985POPC   C1A27543  14.609   2.898   8.749
 1985POPC   D2A27544  14.531   3.147   8.357
 1985POPC   C3A27545  14.382   2.951   7.982
 1985POPC   C4A27546  14.041   3.152   7.753
 1985POPC   C1B27547  14.461   2.414   8.769
 1985POPC   C2B27548  14.396   2.608   8.369
 1985POPC   C3B27549  14.228   2.470   7.964
 1985POPC   C4B27550  14.438   2.603   7.591
 1986POPC   NC327551  42.982  37.369   9.468
 1986POPC   PO427552  42.799  36.707   9.561
 1986POPC   GL127553  43.171  36.807   9.256
 1986POPC   GL227554  43.376  37.136   9.205
 1986POPC   C1A27555  43.143  36.954   8.802
 1986POPC   D2A27556  42.994  36.768   8.427
 1986POPC   C3A27557  42.789  37.011   8.126
 1986POPC   C4A27558  43.017  37.048   7.753
 1986POPC   C1B27559  43.582  37.210   8.818
 1986POPC   C2B27560  43.428  37.229   8.445
 1986POPC   C3B27561  43.443  37.022   8.078
 1986POPC   C4B27562  43.516  37.250   7.751
 1987POPC   NC327563   0.344  30.897   9.762
 1987POPC   PO427564   0.746  30.442   9.409
 1987POPC   GL127565   0.482  30.577   9.136
 1987POPC   GL227566   0.182  30.627   9.327
 1987POPC   C1A27567   0.520  30.723   8.722
 1987POPC   D2A27568   0.646  30.596   8.343
 1987POPC   C3A27569   0.487  30.816   8.022
 1987POPC   C4A27570   0.282  31.050   7.713
 1987POPC   C1B27571   0.049  30.598   8.858
 1987POPC   C2B27572   0.114  30.521   8.384
 1987POPC   C3B27573   0.048  30.602   7.895
 1987POPC   C4B27574   0.268  30.395   7.537
 1988POPC   NC327575   8.727  13.042   9.422
 1988POPC   PO427576   8.128  12.513   9.431
 1988POPC   GL127577   8.196  12.781   9.111
 1988POPC   GL227578   8.500  12.932   8.999
 1988POPC   C1A27579   8.217  12.663   8.673
 1988POPC   D2A27580   8.460  12.638   8.307
 1988POPC   C3A27581   8.389  12.784   7.882
 1988POPC   C4A27582   8.255  12.821   7.404
 1988POPC   C1B27583   8.199  13.154   8.760
 1988POPC   C2B27584   8.255  13.113   8.342
 1988POPC   C3B27585   8.458  13.306   8.019
 1988POPC   C4B27586   8.254  13.230   7.691
 1989POPC   NC327587  20.796  43.088   9.656
 1989POPC   PO427588  21.486  42.904   9.581
 1989POPC   GL127589  21.424  43.063   9.168
 1989POPC   GL227590  21.099  43.035   9.242
 1989POPC   C1A27591  21.414  43.380   8.815
 1989POPC   D2A27592  21.595  43.551   8.407
 1989POPC   C3A27593  21.460  43.381   7.986
 1989POPC   C4A27594  21.661  43.020   7.764
 1989POPC   C1B27595  21.031  43.043   8.806
 1989POPC   C2B27596  21.057  43.158   8.360
 1989POPC   C3B27597  21.195  42.900   8.007
 1989POPC   C4B27598  21.252  42.767   7.564
 1990POPC   NC327599  17.584  32.513   9.594
 1990POPC   PO427600  17.417  31.864   9.589
 1990POPC   GL127601  17.645  32.100   9.206
 1990POPC   GL227602  17.530  32.425   9.115
 1990POPC   C1A27603  17.863  32.275   8.790
 1990POPC   D2A27604  17.770  32.336   8.347
 1990POPC   C3A27605  17.594  32.001   8.073
 1990POPC   C4A27606  17.754  32.028   7.646
 1990POPC   C1B27607  17.343  32.210   8.765
 1990POPC   C2B27608  17.234  32.372   8.358
 1990POPC   C3B27609  17.417  32.455   7.962
 1990POPC   C4B27610  17.097  32.216   7.768
 1991POPC   NC327611  37.256   6.254   9.545
 1991POPC   PO427612  37.748   6.724   9.491
 1991POPC   GL127613  37.579   6.482   9.192
 1991POPC   GL227614  37.472   6.785   9.052
 1991POPC   C1A27615  37.698   6.414   8.770
 1991POPC   D2A27616  37.465   6.466   8.409
 1991POPC   C3A27617  37.675   6.326   8.058
 1991POPC   C4A27618  38.017   6.262   7.779
 1991POPC   C1B27619  37.278   6.915   8.674
 1991POPC   C2B27620  37.420   6.949   8.261
 1991POPC   C3B27621  37.820   6.852   8.130
 1991POPC   C4B27622  37.832   6.729   7.735
 1992POPC   NC327623   3.639  35.856   9.504
 1992POPC   PO427624   3.226  36.382   9.418
 1992POPC   GL127625   3.480  36.148   9.132
 1992POPC   GL227626   3.674  36.363   9.031
 1992POPC   C1A27627   3.612  35.889   8.782
 1992POPC   D2A27628   3.341  35.777   8.423
 1992POPC   C3A27629   3.525  35.695   7.987
 1992POPC   C4A27630   3.401  35.807   7.570
 1992POPC   C1B27631   3.585  36.354   8.559
 1992POPC   C2B27632   3.490  36.199   8.118
 1992POPC   C3B27633   3.645  36.245   7.662
 1992POPC   C4B27634   3.910  36.398   7.301
 1993POPC   NC327635  23.016  10.436   9.707
 1993POPC   PO427636  22.494  10.051   9.641
 1993POPC   GL127637  22.733  10.366   9.300
 1993POPC   GL227638  23.127  10.283   9.246
 1993POPC   C1A27639  22.941  10.668   8.953
 1993POPC   D2A27640  22.794  10.706   8.516
 1993POPC   C3A27641  23.009  10.665   8.124
 1993POPC   C4A27642  22.809  10.663   7.695
 1993POPC   C1B27643  23.300  10.189   8.854
 1993POPC   C2B27644  23.366  10.370   8.444
 1993POPC   C3B27645  23.314  10.216   8.030
 1993POPC   C4B27646  23.212  10.354   7.643
 1994POPC   NC327647  22.396   9.672   9.883
 1994POPC   PO427648  22.032   9.956   9.371
 1994POPC   GL127649  22.128   9.837   8.984
 1994POPC   GL227650  22.373  10.101   9.020
 1994POPC   C1A27651  22.197   9.397   8.824
 1994POPC   D2A27652  22.373   9.331   8.465
 1994POPC   C3A27653  22.128   9.504   8.150
 1994POPC   C4A27654  21.953   9.486   7.786
 1994POPC   C1B27655  22.558   9.780   8.733
 1994POPC   C2B27656  22.293   9.849   8.472
 1994POPC   C3B27657  22.403   9.952   8.097
 1994POPC   C4B27658  22.421   9.679   7.748
 1995POPC   NC327659   6.044  14.296   9.541
 1995POPC   PO427660   5.763  14.875   9.496
 1995POPC   GL127661   5.659  14.554   9.183
 1995POPC   GL227662   5.798  14.206   9.095
 1995POPC   C1A27663   5.657  14.580   8.743
 1995POPC   D2A27664   5.838  14.361   8.388
 1995POPC   C3A27665   5.738  14.417   7.934
 1995POPC   C4A27666   5.801  14.291   7.486
 1995POPC   C1B27667   6.149  14.361   8.856
 1995POPC   C2B27668   6.332  14.491   8.486
 1995POPC   C3B27669   6.234  14.518   8.084
 1995POPC   C4B27670   6.293  14.277   7.759
 1996POPC   NC327671  42.823  33.930   9.618
 1996POPC   PO427672  43.280  33.475   9.643
 1996POPC   GL127673  42.952  33.564   9.270
 1996POPC   GL227674  42.991  33.919   9.145
 1996POPC   C1A27675  42.778  33.575   8.824
 1996POPC   D2A27676  42.870  33.727   8.395
 1996POPC   C3A27677  43.056  33.585   7.986
 1996POPC   C4A27678  42.837  33.593   7.584
 1996POPC   C1B27679  43.009  34.108   8.751
 1996POPC   C2B27680  43.262  34.059   8.394
 1996POPC   C3B27681  43.084  34.094   8.010
 1996POPC   C4B27682  43.299  33.941   7.643
 1997POPC   NC327683  32.436   3.827   9.436
 1997POPC   PO427684  32.693   3.146   9.447
 1997POPC   GL127685  32.489   3.283   9.081
 1997POPC   GL227686  32.457   3.640   8.970
 1997POPC   C1A27687  32.153   3.284   8.779
 1997POPC   D2A27688  32.263   3.479   8.418
 1997POPC   C3A27689  32.176   3.322   8.025
 1997POPC   C4A27690  32.483   3.168   7.756
 1997POPC   C1B27691  32.061   3.825   8.796
 1997POPC   C2B27692  31.939   3.863   8.380
 1997POPC   C3B27693  32.297   3.879   8.106
 1997POPC   C4B27694  32.381   3.699   7.721
 1998POPC   NC327695  21.617  25.091   9.416
 1998POPC   PO427696  21.299  25.639   9.425
 1998POPC   GL127697  21.235  25.302   9.121
 1998POPC   GL227698  21.112  24.939   9.154
 1998POPC   C1A27699  21.493  25.117   8.777
 1998POPC   D2A27700  21.369  25.207   8.365
 1998POPC   C3A27701  21.605  25.258   8.015
 1998POPC   C4A27702  21.491  25.130   7.580
 1998POPC   C1B27703  20.997  25.083   8.720
 1998POPC   C2B27704  20.903  24.960   8.305
 1998POPC   C3B27705  21.106  25.147   7.934
 1998POPC   C4B27706  21.010  25.458   7.637
 1999POPC   NC327707  33.248  28.264   9.456
 1999POPC   PO427708  32.648  28.406   9.666
 1999POPC   GL127709  32.787  28.361   9.245
 1999POPC   GL227710  33.053  28.577   9.121
 1999POPC   C1A27711  32.879  28.144   8.864
 1999POPC   D2A27712  32.739  28.273   8.468
 1999POPC   C3A27713  32.890  28.097   8.117
 1999POPC   C4A27714  32.711  28.104   7.726
 1999POPC   C1B27715  33.030  28.637   8.726
 1999POPC   C2B27716  33.322  28.712   8.419
 1999POPC   C3B27717  33.198  28.629   8.015
 1999POPC   C4B27718  33.203  28.290   7.751
 2000POPC   NC327719   6.347  25.817   9.584
 2000POPC   PO427720   7.051  25.583   9.548
 2000POPC   GL127721   6.757  25.735   9.216
 2000POPC   GL227722   6.982  25.962   9.010
 2000POPC   C1A27723   6.534  25.858   8.831
 2000POPC   D2A27724   6.474  26.072   8.427
 2000POPC   C3A27725   6.633  25.875   8.036
 2000POPC   C4A27726   6.572  25.991   7.591
 2000POPC   C1B27727   6.834  26.304   8.749
 2000POPC   C2B27728   6.885  26.373   8.302
 2000POPC   C3B27729   6.821  26.309   7.887
 2000POPC   C4B27730   6.976  26.314   7.477
 2001POPC   NC327731  35.029  29.396   9.465
 2001POPC   PO427732  34.907  28.719   9.349
 2001POPC   GL127733  35.109  29.066   9.086
 2001POPC   GL227734  35.440  29.236   9.196
 2001POPC   C1A27735  35.239  29.259   8.691
 2001POPC   D2A27736  35.235  29.525   8.324
 2001POPC   C3A27737  35.076  29.327   7.999
 2001POPC   C4A27738  35.318  28.992   7.882
 2001POPC   C1B27739  35.718  29.139   8.852
 2001POPC   C2B27740  35.767  28.934   8.446
 2001POPC   C3B27741  35.667  28.655   8.107
 2001POPC   C4B27742  35.707  28.757   7.669
 2002POPC   NC327743  42.020  28.327   9.344
 2002POPC   PO427744  41.490  28.016   9.494
 2002POPC   GL127745  41.334  28.332   9.158
 2002POPC   GL227746  41.347  28.729   9.153
 2002POPC   C1A27747  41.211  28.299   8.726
 2002POPC   D2A27748  41.105  28.153   8.305
 2002POPC   C3A27749  41.436  28.155   8.000
 2002POPC   C4A27750  41.413  28.278   7.566
 2002POPC   C1B27751  41.587  28.864   8.788
 2002POPC   C2B27752  41.550  28.632   8.394
 2002POPC   C3B27753  41.500  28.651   7.945
 2002POPC   C4B27754  41.835  28.541   7.666
 2003POPC   NC327755  14.827  17.532   9.614
 2003POPC   PO427756  14.172  17.454   9.549
 2003POPC   GL127757  14.452  17.463   9.199
 2003POPC   GL227758  14.695  17.176   9.191
 2003POPC   C1A27759  14.559  17.719   8.848
 2003POPC   D2A27760  14.735  17.712   8.447
 2003POPC   C3A27761  14.566  17.473   8.131
 2003POPC   C4A27762  14.273  17.462   7.805
 2003POPC   C1B27763  14.730  17.242   8.724
 2003POPC   C2B27764  14.722  16.998   8.307
 2003POPC   C3B27765  14.925  17.146   7.900
 2003POPC   C4B27766  14.748  17.512   7.648
 2004POPC   NC327767  14.967  19.027   9.519
 2004POPC   PO427768  15.120  19.693   9.551
 2004POPC   GL127769  15.179  19.736   9.105
 2004POPC   GL227770  15.412  19.485   9.049
 2004POPC   C1A27771  15.214  19.857   8.665
 2004POPC   D2A27772  15.008  20.114   8.336
 2004POPC   C3A27773  15.134  20.033   7.928
 2004POPC   C4A27774  15.466  19.820   7.697
 2004POPC   C1B27775  15.439  19.388   8.610
 2004POPC   C2B27776  15.410  19.619   8.225
 2004POPC   C3B27777  15.142  19.501   7.903
 2004POPC   C4B27778  14.815  19.657   7.766
 2005POPC   NC327779  12.478  20.445   9.507
 2005POPC   PO427780  12.880  20.987   9.423
 2005POPC   GL127781  12.764  20.659   9.122
 2005POPC   GL227782  12.639  20.320   9.039
 2005POPC   C1A27783  12.677  20.710   8.702
 2005POPC   D2A27784  12.905  20.682   8.334
 2005POPC   C3A27785  12.750  20.774   7.949
 2005POPC   C4A27786  12.960  20.740   7.550
 2005POPC   C1B27787  12.300  20.390   8.742
 2005POPC   C2B27788  12.375  20.543   8.315
 2005POPC   C3B27789  12.418  20.314   7.961
 2005POPC   C4B27790  12.750  20.308   7.695
 2006POPC   NC327791  29.195  16.340   9.422
 2006POPC   PO427792  28.749  15.882   9.505
 2006POPC   GL127793  29.030  15.897   9.170
 2006POPC   GL227794  29.416  15.839   9.228
 2006POPC   C1A27795  28.894  16.039   8.770
 2006POPC   D2A27796  28.839  15.786   8.418
 2006POPC   C3A27797  29.027  15.941   8.063
 2006POPC   C4A27798  28.879  16.289   7.816
 2006POPC   C1B27799  29.389  16.103   8.862
 2006POPC   C2B27800  29.312  16.100   8.471
 2006POPC   C3B27801  29.403  16.380   8.156
 2006POPC   C4B27802  29.383  16.413   7.731
 2007POPC   NC327803  32.229  34.856   9.555
 2007POPC   PO427804  31.902  34.312   9.454
 2007POPC   GL127805  32.117  34.509   9.096
 2007POPC   GL227806  32.328  34.796   9.081
 2007POPC   C1A27807  32.027  34.453   8.651
 2007POPC   D2A27808  32.102  34.650   8.251
 2007POPC   C3A27809  31.982  34.385   7.888
 2007POPC   C4A27810  32.038  34.402   7.434
 2007POPC   C1B27811  32.455  34.765   8.673
 2007POPC   C2B27812  32.482  35.009   8.298
 2007POPC   C3B27813  32.387  34.919   7.886
 2007POPC   C4B27814  32.476  34.506   7.730
 2008POPC   NC327815  30.893  12.502   9.469
 2008POPC   PO427816  30.643  13.203   9.478
 2008POPC   GL127817  30.710  12.889   9.148
 2008POPC   GL227818  31.049  12.813   9.054
 2008POPC   C1A27819  30.580  12.937   8.738
 2008POPC   D2A27820  30.738  12.926   8.339
 2008POPC   C3A27821  30.506  12.891   7.959
 2008POPC   C4A27822  30.603  13.169   7.627
 2008POPC   C1B27823  30.875  12.522   8.760
 2008POPC   C2B27824  30.981  12.391   8.348
 2008POPC   C3B27825  31.023  12.649   8.009
 2008POPC   C4B27826  30.911  12.752   7.578
 2009POPC   NC327827   0.490   7.818   9.853
 2009POPC   PO427828   0.093   7.954   9.307
 2009POPC   GL127829   0.303   8.105   8.955
 2009POPC   GL227830   0.625   8.209   9.070
 2009POPC   C1A27831   0.460   8.355   8.597
 2009POPC   D2A27832   0.224   8.398   8.228
 2009POPC   C3A27833   0.470   8.420   7.868
 2009POPC   C4A27834   0.410   8.227   7.470
 2009POPC   C1B27835   0.690   7.914   8.688
 2009POPC   C2B27836   0.619   8.012   8.232
 2009POPC   C3B27837   0.768   8.004   7.797
 2009POPC   C4B27838   0.881   8.389   7.537
 2010POPC   NC327839  26.803  28.818   9.435
 2010POPC   PO427840  26.685  29.443   9.374
 2010POPC   GL127841  26.933  29.206   9.129
 2010POPC   GL227842  26.600  29.054   9.036
 2010POPC   C1A27843  26.985  29.206   8.707
 2010POPC   D2A27844  26.576  29.136   8.453
 2010POPC   C3A27845  26.675  29.199   8.002
 2010POPC   C4A27846  27.064  29.412   7.841
 2010POPC   C1B27847  26.785  28.754   8.768
 2010POPC   C2B27848  26.957  28.808   8.338
 2010POPC   C3B27849  26.850  28.706   7.897
 2010POPC   C4B27850  26.637  28.836   7.469
 2011POPC   NC327851   6.834  14.289   9.986
 2011POPC   PO427852   6.374  14.650   9.625
 2011POPC   GL127853   6.489  14.529   9.199
 2011POPC   GL227854   6.619  14.233   9.072
 2011POPC   C1A27855   6.691  14.666   8.800
 2011POPC   D2A27856   6.835  14.563   8.387
 2011POPC   C3A27857   6.724  14.651   7.976
 2011POPC   C4A27858   6.543  14.672   7.584
 2011POPC   C1B27859   6.706  14.145   8.642
 2011POPC   C2B27860   6.614  14.132   8.191
 2011POPC   C3B27861   6.815  14.137   7.785
 2011POPC   C4B27862   7.101  14.044   7.408
 2012POPC   NC327863  24.895  37.701   9.576
 2012POPC   PO427864  24.193  37.864   9.492
 2012POPC   GL127865  24.404  37.556   9.229
 2012POPC   GL227866  24.768  37.494   9.121
 2012POPC   C1A27867  24.402  37.532   8.784
 2012POPC   D2A27868  24.713  37.512   8.496
 2012POPC   C3A27869  24.699  37.626   8.098
 2012POPC   C4A27870  24.684  37.375   7.736
 2012POPC   C1B27871  24.877  37.838   8.870
 2012POPC   C2B27872  24.736  38.050   8.490
 2012POPC   C3B27873  24.896  38.092   8.080
 2012POPC   C4B27874  24.716  37.908   7.668
 2013POPC   NC327875  15.392  12.152   9.785
 2013POPC   PO427876  15.936  12.080   9.399
 2013POPC   GL127877  15.795  12.133   9.044
 2013POPC   GL227878  16.074  12.063   8.864
 2013POPC   C1A27879  15.604  12.188   8.665
 2013POPC   D2A27880  15.861  12.117   8.307
 2013POPC   C3A27881  15.653  12.068   7.897
 2013POPC   C4A27882  15.727  12.206   7.443
 2013POPC   C1B27883  16.291  11.699   8.687
 2013POPC   C2B27884  16.473  11.586   8.307
 2013POPC   C3B27885  16.324  11.944   8.073
 2013POPC   C4B27886  16.087  11.916   7.715
 2014POPC   NC327887  14.552  29.568   9.467
 2014POPC   PO427888  14.627  30.122   9.650
 2014POPC   GL127889  14.444  30.019   9.206
 2014POPC   GL227890  14.102  30.105   9.088
 2014POPC   C1A27891  14.490  30.151   8.759
 2014POPC   D2A27892  14.211  30.160   8.404
 2014POPC   C3A27893  14.444  30.057   8.018
 2014POPC   C4A27894  14.632  30.366   7.761
 2014POPC   C1B27895  14.081  29.787   8.740
 2014POPC   C2B27896  14.071  29.645   8.281
 2014POPC   C3B27897  14.013  29.829   7.846
 2014POPC   C4B27898  14.192  29.685   7.446
 2015POPC   NC327899  14.151  30.204   9.578
 2015POPC   PO427900  14.448  30.825   9.616
 2015POPC   GL127901  14.324  30.605   9.245
 2015POPC   GL227902  14.192  30.937   9.128
 2015POPC   C1A27903  14.153  30.525   8.817
 2015POPC   D2A27904  14.307  30.678   8.425
 2015POPC   C3A27905  14.230  30.517   8.039
 2015POPC   C4A27906  14.164  30.688   7.655
 2015POPC   C1B27907  14.530  30.896   8.828
 2015POPC   C2B27908  14.685  31.009   8.423
 2015POPC   C3B27909  14.638  30.819   8.042
 2015POPC   C4B27910  14.645  30.839   7.622
 2016POPC   NC327911  41.331  35.910   9.982
 2016POPC   PO427912  41.671  35.449   9.618
 2016POPC   GL127913  41.557  35.223   9.247
 2016POPC   GL227914  41.393  35.519   9.162
 2016POPC   C1A27915  41.549  35.079   8.808
 2016POPC   D2A27916  41.467  35.286   8.413
 2016POPC   C3A27917  41.467  35.121   8.011
 2016POPC   C4A27918  41.537  35.337   7.651
 2016POPC   C1B27919  41.470  35.654   8.768
 2016POPC   C2B27920  41.379  35.811   8.341
 2016POPC   C3B27921  41.552  35.776   7.929
 2016POPC   C4B27922  41.592  35.797   7.449
 2017POPC   NC327923  41.858  39.520   9.398
 2017POPC   PO427924  41.272  39.565   9.427
 2017POPC   GL127925  41.472  39.249   9.179
 2017POPC   GL227926  41.182  39.161   9.031
 2017POPC   C1A27927  41.660  38.946   8.871
 2017POPC   D2A27928  41.657  38.825   8.434
 2017POPC   C3A27929  41.554  39.162   8.144
 2017POPC   C4A27930  41.544  39.129   7.694
 2017POPC   C1B27931  41.374  39.409   8.687
 2017POPC   C2B27932  41.200  39.561   8.291
 2017POPC   C3B27933  41.166  39.460   7.840
 2017POPC   C4B27934  41.151  39.257   7.412
 2018POPC   NC327935   8.324  42.277   9.449
 2018POPC   PO427936   7.787  42.575   9.349
 2018POPC   GL127937   8.006  42.522   8.998
 2018POPC   GL227938   8.356  42.407   8.962
 2018POPC   C1A27939   8.083  42.496   8.545
 2018POPC   D2A27940   8.508  42.584   8.381
 2018POPC   C3A27941   8.430  42.379   8.017
 2018POPC   C4A27942   8.021  42.447   7.806
 2018POPC   C1B27943   8.017  42.064   8.840
 2018POPC   C2B27944   7.837  41.953   8.472
 2018POPC   C3B27945   8.040  41.988   8.081
 2018POPC   C4B27946   7.896  41.877   7.680
 2019POPC   NC327947  27.873  22.937   9.534
 2019POPC   PO427948  27.437  23.308   9.293
 2019POPC   GL127949  27.549  22.920   9.107
 2019POPC   GL227950  27.851  22.662   9.125
 2019POPC   C1A27951  27.680  22.999   8.707
 2019POPC   D2A27952  27.574  23.289   8.372
 2019POPC   C3A27953  27.533  23.072   7.974
 2019POPC   C4A27954  27.824  23.078   7.645
 2019POPC   C1B27955  27.554  22.510   8.794
 2019POPC   C2B27956  27.439  22.691   8.385
 2019POPC   C3B27957  27.476  22.526   7.992
 2019POPC   C4B27958  27.681  22.586   7.615
 2020POPC   NC327959  35.138   9.160   9.684
 2020POPC   PO427960  35.406   8.623   9.987
 2020POPC   GL127961  35.450   8.789   9.472
 2020POPC   GL227962  35.716   8.929   9.216
 2020POPC   C1A27963  35.279   8.937   8.999
 2020POPC   D2A27964  35.373   9.039   8.544
 2020POPC   C3A27965  35.125   8.991   8.145
 2020POPC   C4A27966  35.188   8.998   7.686
 2020POPC   C1B27967  35.758   9.198   8.840
 2020POPC   C2B27968  35.740   9.350   8.376
 2020POPC   C3B27969  35.588   9.186   7.980
 2020POPC   C4B27970  35.676   9.033   7.560
 2021POPC   NC327971   8.578  24.486   9.856
 2021POPC   PO427972   7.976  24.377   9.632
 2021POPC   GL127973   7.889  24.465   9.201
 2021POPC   GL227974   8.235  24.525   9.162
 2021POPC   C1A27975   7.920  24.748   8.819
 2021POPC   D2A27976   8.022  24.591   8.401
 2021POPC   C3A27977   7.989  24.786   8.007
 2021POPC   C4A27978   7.929  24.457   7.735
 2021POPC   C1B27979   8.150  24.263   8.792
 2021POPC   C2B27980   8.277  24.112   8.427
 2021POPC   C3B27981   8.326  24.304   8.059
 2021POPC   C4B27982   8.334  24.122   7.658
 2022POPC   NC327983  19.987  27.972   9.619
 2022POPC   PO427984  19.549  27.430   9.446
 2022POPC   GL127985  19.902  27.600   9.236
 2022POPC   GL227986  19.857  27.939   9.141
 2022POPC   C1A27987  19.968  27.521   8.810
 2022POPC   D2A27988  20.022  27.294   8.430
 2022POPC   C3A27989  19.921  27.552   8.087
 2022POPC   C4A27990  20.034  27.707   7.680
 2022POPC   C1B27991  19.670  27.928   8.747
 2022POPC   C2B27992  19.573  27.843   8.319
 2022POPC   C3B27993  19.635  27.941   7.879
 2022POPC   C4B27994  19.646  27.907   7.414
 2023POPC   NC327995  31.624   0.786   9.386
 2023POPC   PO427996  31.849   1.449   9.376
 2023POPC   GL127997  31.620   1.181   9.079
 2023POPC   GL227998  31.762   0.880   8.898
 2023POPC   C1A27999  31.332   1.185   8.750
 2023POPC   D2A28000  31.541   1.064   8.397
 2023POPC   C3A28001  31.375   1.169   8.029
 2023POPC   C4A28002  31.211   1.335   7.681
 2023POPC   C1B28003  31.910   1.278   8.692
 2023POPC   C2B28004  31.804   1.513   8.335
 2023POPC   C3B28005  31.913   1.525   7.926
 2023POPC   C4B28006  31.837   1.177   7.671
 2024POPC   NC328007   7.526  36.486   9.620
 2024POPC   PO428008   7.238  35.855   9.576
 2024POPC   GL128009   7.276  35.932   9.105
 2024POPC   GL228010   7.594  36.005   9.031
 2024POPC   C1A28011   7.189  36.145   8.703
 2024POPC   D2A28012   7.141  36.496   8.413
 2024POPC   C3A28013   7.207  36.479   7.976
 2024POPC   C4A28014   7.427  36.240   7.686
 2024POPC   C1B28015   7.690  36.149   8.624
 2024POPC   C2B28016   7.507  36.052   8.214
 2024POPC   C3B28017   7.652  35.805   7.849
 2024POPC   C4B28018   7.643  35.893   7.382
 2025POPC   NC328019  16.416  21.431   9.459
 2025POPC   PO428020  17.058  21.189   9.584
 2025POPC   GL128021  16.907  21.298   9.145
 2025POPC   GL228022  16.653  21.054   9.127
 2025POPC   C1A28023  16.905  21.566   8.729
 2025POPC   D2A28024  16.677  21.630   8.352
 2025POPC   C3A28025  16.957  21.610   8.008
 2025POPC   C4A28026  16.941  21.393   7.624
 2025POPC   C1B28027  16.639  21.126   8.655
 2025POPC   C2B28028  16.603  21.121   8.166
 2025POPC   C3B28029  16.442  21.315   7.774
 2025POPC   C4B28030  16.546  21.136   7.378
 2026POPC   NC328031  12.559   2.883   9.845
 2026POPC   PO428032  12.778   2.681   9.166
 2026POPC   GL128033  13.110   2.874   9.024
 2026POPC   GL228034  13.015   3.146   9.238
 2026POPC   C1A28035  13.080   2.766   8.592
 2026POPC   D2A28036  12.961   2.441   8.314
 2026POPC   C3A28037  12.721   2.602   7.973
 2026POPC   C4A28038  12.719   2.463   7.561
 2026POPC   C1B28039  12.804   3.240   8.816
 2026POPC   C2B28040  12.919   3.215   8.388
 2026POPC   C3B28041  12.733   3.107   7.990
 2026POPC   C4B28042  12.954   2.934   7.620
 2027POPC   NC328043  41.934  41.707   9.764
 2027POPC   PO428044  41.396  41.378   9.420
 2027POPC   GL128045  41.431  41.630   9.074
 2027POPC   GL228046  41.668  41.830   9.227
 2027POPC   C1A28047  41.679  41.494   8.749
 2027POPC   D2A28048  41.786  41.331   8.358
 2027POPC   C3A28049  41.688  41.502   7.929
 2027POPC   C4A28050  41.306  41.495   7.674
 2027POPC   C1B28051  41.759  41.989   8.816
 2027POPC   C2B28052  41.672  41.847   8.364
 2027POPC   C3B28053  41.844  41.997   7.996
 2027POPC   C4B28054  42.091  41.858   7.689
 2028POPC   NC328055  31.794  30.103   9.885
 2028POPC   PO428056  31.377  30.239   9.356
 2028POPC   GL128057  31.544  29.906   9.092
 2028POPC   GL228058  31.318  29.611   9.131
 2028POPC   C1A28059  31.732  29.876   8.673
 2028POPC   D2A28060  31.483  29.845   8.298
 2028POPC   C3A28061  31.581  30.027   7.905
 2028POPC   C4A28062  31.359  30.354   7.705
 2028POPC   C1B28063  31.401  29.487   8.703
 2028POPC   C2B28064  31.174  29.448   8.323
 2028POPC   C3B28065  31.380  29.446   7.937
 2028POPC   C4B28066  31.335  29.674   7.580
 2029POPC   NC328067  30.393  33.248   9.555
 2029POPC   PO428068  30.619  32.609   9.506
 2029POPC   GL128069  30.539  32.895   9.196
 2029POPC   GL228070  30.276  32.658   9.113
 2029POPC   C1A28071  30.781  33.204   8.946
 2029POPC   D2A28072  30.746  33.134   8.499
 2029POPC   C3A28073  30.887  33.363   8.139
 2029POPC   C4A28074  30.699  33.468   7.745
 2029POPC   C1B28075  30.293  32.550   8.700
 2029POPC   C2B28076  30.591  32.654   8.430
 2029POPC   C3B28077  30.806  32.823   8.085
 2029POPC   C4B28078  30.620  32.850   7.662
 2030POPC   NC328079  31.044  41.071   9.597
 2030POPC   PO428080  30.489  40.845   9.852
 2030POPC   GL128081  30.673  40.853   9.350
 2030POPC   GL228082  30.818  40.562   9.263
 2030POPC   C1A28083  30.543  40.813   8.872
 2030POPC   D2A28084  30.406  40.899   8.432
 2030POPC   C3A28085  30.720  40.950   8.143
 2030POPC   C4A28086  30.830  41.082   7.758
 2030POPC   C1B28087  30.805  40.378   8.866
 2030POPC   C2B28088  30.571  40.375   8.502
 2030POPC   C3B28089  30.504  40.462   8.099
 2030POPC   C4B28090  30.740  40.494   7.712
 2031POPC   NC328091  18.727  33.499   9.276
 2031POPC   PO428092  18.422  33.991   9.592
 2031POPC   GL128093  18.237  33.808   9.261
 2031POPC   GL228094  18.505  33.910   9.076
 2031POPC   C1A28095  18.070  33.879   8.836
 2031POPC   D2A28096  18.228  33.790   8.419
 2031POPC   C3A28097  18.180  34.095   8.165
 2031POPC   C4A28098  18.053  34.002   7.797
 2031POPC   C1B28099  18.629  33.794   8.705
 2031POPC   C2B28100  18.734  33.925   8.319
 2031POPC   C3B28101  18.584  33.861   7.942
 2031POPC   C4B28102  18.473  33.893   7.514
 2032POPC   NC328103  42.853  44.720   9.463
 2032POPC   PO428104  43.527  44.983   9.408
 2032POPC   GL128105  43.285  44.757   9.191
 2032POPC   GL228106  43.288  44.396   9.301
 2032POPC   C1A28107  43.105  44.846   8.802
 2032POPC   D2A28108  43.001  44.703   8.403
 2032POPC   C3A28109  43.173  44.842   8.030
 2032POPC   C4A28110  42.952  44.935   7.686
 2032POPC   C1B28111  43.409  44.409   8.855
 2032POPC   C2B28112  43.188  44.237   8.502
 2032POPC   C3B28113  43.079  44.325   8.053
 2032POPC   C4B28114  43.450  44.380   7.816
 2033POPC   NC328115  35.993  21.450   9.480
 2033POPC   PO428116  36.499  20.968   9.454
 2033POPC   GL128117  36.221  21.145   9.120
 2033POPC   GL228118  36.287  21.522   9.083
 2033POPC   C1A28119  36.209  21.272   8.679
 2033POPC   D2A28120  36.257  21.552   8.356
 2033POPC   C3A28121  36.352  21.284   8.062
 2033POPC   C4A28122  36.360  21.165   7.684
 2033POPC   C1B28123  35.879  21.624   8.846
 2033POPC   C2B28124  35.665  21.586   8.467
 2033POPC   C3B28125  35.795  21.686   8.050
 2033POPC   C4B28126  36.151  21.652   7.765
 2034POPC   NC328127   8.597  31.234   9.565
 2034POPC   PO428128   9.217  31.618   9.526
 2034POPC   GL128129   8.967  31.475   9.178
 2034POPC   GL228130   8.712  31.674   9.291
 2034POPC   C1A28131   8.944  31.340   8.730
 2034POPC   D2A28132   8.961  31.211   8.303
 2034POPC   C3A28133   9.001  31.546   8.038
 2034POPC   C4A28134   8.991  31.349   7.675
 2034POPC   C1B28135   8.623  31.725   8.866
 2034POPC   C2B28136   8.634  31.644   8.454
 2034POPC   C3B28137   8.591  31.882   8.118
 2034POPC   C4B28138   8.417  31.695   7.747
 2035POPC   NC328139  32.797  22.337   9.288
 2035POPC   PO428140  33.032  22.936   9.469
 2035POPC   GL128141  33.072  22.749   9.092
 2035POPC   GL228142  33.286  22.427   9.156
 2035POPC   C1A28143  32.923  22.883   8.671
 2035POPC   D2A28144  32.913  22.874   8.240
 2035POPC   C3A28145  32.835  23.177   7.968
 2035POPC   C4A28146  32.864  22.895   7.651
 2035POPC   C1B28147  33.306  22.512   8.718
 2035POPC   C2B28148  33.392  22.786   8.369
 2035POPC   C3B28149  33.289  22.744   7.910
 2035POPC   C4B28150  33.183  22.504   7.520
 2036POPC   NC328151  38.468  30.252   9.558
 2036POPC   PO428152  38.547  29.612   9.495
 2036POPC   GL128153  38.392  29.866   9.191
 2036POPC   GL228154  38.154  29.671   9.084
 2036POPC   C1A28155  38.628  30.002   8.838
 2036POPC   D2A28156  38.747  29.892   8.428
 2036POPC   C3A28157  38.581  30.084   8.055
 2036POPC   C4A28158  38.122  30.194   7.916
 2036POPC   C1B28159  38.143  29.979   8.746
 2036POPC   C2B28160  38.212  29.884   8.336
 2036POPC   C3B28161  38.182  29.684   7.940
 2036POPC   C4B28162  38.246  29.749   7.509
 2037POPC   NC328163   3.898  42.453   9.512
 2037POPC   PO428164   3.192  42.158   9.459
 2037POPC   GL128165   3.507  42.318   9.212
 2037POPC   GL228166   3.738  42.050   9.263
 2037POPC   C1A28167   3.540  42.508   8.799
 2037POPC   D2A28168   3.782  42.614   8.429
 2037POPC   C3A28169   3.532  42.529   8.073
 2037POPC   C4A28170   3.549  42.704   7.663
 2037POPC   C1B28171   3.768  42.072   8.847
 2037POPC   C2B28172   3.836  42.101   8.430
 2037POPC   C3B28173   3.793  41.814   8.141
 2037POPC   C4B28174   3.810  41.851   7.736
 2038POPC   NC328175  44.942  40.167   9.341
 2038POPC   PO428176   0.524  39.882   9.158
 2038POPC   GL128177   0.306  40.107   8.997
 2038POPC   GL228178   0.072  39.871   8.929
 2038POPC   C1A28179   0.190  40.360   8.729
 2038POPC   D2A28180   0.093  40.301   8.339
 2038POPC   C3A28181   0.329  40.407   7.970
 2038POPC   C4A28182   0.532  40.074   7.706
 2038POPC   C1B28183   0.332  39.868   8.512
 2038POPC   C2B28184   0.402  39.631   8.102
 2038POPC   C3B28185   0.656  39.592   7.712
 2038POPC   C4B28186   0.770  39.712   7.265
 2039POPC   NC328187  13.956  21.840   9.429
 2039POPC   PO428188  13.521  22.283   9.240
 2039POPC   GL128189  13.794  22.038   8.981
 2039POPC   GL228190  13.575  21.783   9.029
 2039POPC   C1A28191  13.859  21.926   8.537
 2039POPC   D2A28192  14.115  22.128   8.206
 2039POPC   C3A28193  13.851  22.310   7.887
 2039POPC   C4A28194  13.566  22.293   7.525
 2039POPC   C1B28195  13.383  22.061   8.664
 2039POPC   C2B28196  13.355  22.144   8.205
 2039POPC   C3B28197  13.186  22.053   7.802
 2039POPC   C4B28198  13.165  22.015   7.363
 2040POPC   NC328199  21.371  43.439   9.514
 2040POPC   PO428200  21.600  44.136   9.466
 2040POPC   GL128201  21.551  43.807   9.184
 2040POPC   GL228202  21.192  43.751   9.168
 2040POPC   C1A28203  21.488  43.908   8.754
 2040POPC   D2A28204  21.365  44.131   8.382
 2040POPC   C3A28205  21.509  43.923   8.010
 2040POPC   C4A28206  21.721  43.787   7.634
 2040POPC   C1B28207  21.007  43.683   8.782
 2040POPC   C2B28208  21.117  43.684   8.356
 2040POPC   C3B28209  21.032  43.683   7.923
 2040POPC   C4B28210  21.239  43.765   7.523
 2041POPC   NC328211  40.569  36.470   9.412
 2041POPC   PO428212  40.902  35.931   9.824
 2041POPC   GL128213  41.010  36.105   9.314
 2041POPC   GL228214  41.201  36.400   9.196
 2041POPC   C1A28215  40.857  36.197   8.859
 2041POPC   D2A28216  40.660  36.029   8.467
 2041POPC   C3A28217  40.816  35.896   8.091
 2041POPC   C4A28218  40.651  36.052   7.707
 2041POPC   C1B28219  41.106  36.651   8.808
 2041POPC   C2B28220  40.910  36.506   8.422
 2041POPC   C3B28221  40.724  36.410   8.051
 2041POPC   C4B28222  40.971  36.469   7.686
 2042POPC   NC328223   7.905  40.012   9.514
 2042POPC   PO428224   8.566  39.941   9.540
 2042POPC   GL128225   8.248  40.051   9.145
 2042POPC   GL228226   7.885  39.892   9.033
 2042POPC   C1A28227   8.207  40.035   8.698
 2042POPC   D2A28228   8.472  39.898   8.421
 2042POPC   C3A28229   8.391  40.131   8.082
 2042POPC   C4A28230   8.129  40.107   7.757
 2042POPC   C1B28231   7.600  39.793   8.716
 2042POPC   C2B28232   7.697  39.605   8.382
 2042POPC   C3B28233   7.959  39.830   8.148
 2042POPC   C4B28234   7.757  39.769   7.768
 2043POPC   NC328235  35.218  19.661   9.625
 2043POPC   PO428236  35.831  19.836   9.464
 2043POPC   GL128237  35.460  20.010   9.251
 2043POPC   GL228238  35.181  19.776   9.150
 2043POPC   C1A28239  35.440  20.036   8.805
 2043POPC   D2A28240  35.509  19.809   8.423
 2043POPC   C3A28241  35.644  19.986   8.058
 2043POPC   C4A28242  35.451  19.950   7.670
 2043POPC   C1B28243  35.287  19.537   8.797
 2043POPC   C2B28244  35.082  19.534   8.359
 2043POPC   C3B28245  35.148  19.612   7.918
 2043POPC   C4B28246  35.164  19.537   7.404
 2044POPC   NC328247  41.811  30.495   9.430
 2044POPC   PO428248  41.530  31.102   9.532
 2044POPC   GL128249  41.550  30.862   9.124
 2044POPC   GL228250  41.882  30.744   8.990
 2044POPC   C1A28251  41.489  30.713   8.678
 2044POPC   D2A28252  41.232  30.533   8.357
 2044POPC   C3A28253  41.321  30.489   7.920
 2044POPC   C4A28254  41.570  30.651   7.595
 2044POPC   C1B28255  41.843  30.337   8.732
 2044POPC   C2B28256  41.729  30.345   8.319
 2044POPC   C3B28257  41.776  30.717   8.075
 2044POPC   C4B28258  42.046  30.804   7.716
 2045POPC   NC328259  10.361  35.351   9.571
 2045POPC   PO428260  10.905  35.687   9.348
 2045POPC   GL128261  10.823  35.259   9.145
 2045POPC   GL228262  10.467  35.172   9.113
 2045POPC   C1A28263  10.771  35.076   8.706
 2045POPC   D2A28264  10.836  35.281   8.329
 2045POPC   C3A28265  10.652  35.221   7.921
 2045POPC   C4A28266  10.671  35.636   7.835
 2045POPC   C1B28267  10.289  35.310   8.771
 2045POPC   C2B28268  10.333  35.186   8.365
 2045POPC   C3B28269  10.258  35.515   8.124
 2045POPC   C4B28270  10.136  35.667   7.762
 2046POPC   NC328271  17.535   3.264   9.850
 2046POPC   PO428272  17.831   3.627   9.349
 2046POPC   GL128273  17.545   3.496   9.080
 2046POPC   GL228274  17.254   3.532   9.299
 2046POPC   C1A28275  17.546   3.538   8.625
 2046POPC   D2A28276  17.368   3.349   8.265
 2046POPC   C3A28277  17.638   3.488   7.939
 2046POPC   C4A28278  17.901   3.406   7.613
 2046POPC   C1B28279  17.105   3.611   8.849
 2046POPC   C2B28280  17.112   3.805   8.429
 2046POPC   C3B28281  17.067   3.674   8.003
 2046POPC   C4B28282  17.207   3.323   7.752
 2047POPC   NC328283  34.396  21.146   9.448
 2047POPC   PO428284  34.344  21.824   9.537
 2047POPC   GL128285  34.455  21.578   9.150
 2047POPC   GL228286  34.703  21.342   9.074
 2047POPC   C1A28287  34.319  21.345   8.765
 2047POPC   D2A28288  34.303  21.509   8.360
 2047POPC   C3A28289  34.410  21.233   8.066
 2047POPC   C4A28290  34.580  21.062   7.742
 2047POPC   C1B28291  34.793  21.471   8.669
 2047POPC   C2B28292  34.862  21.359   8.287
 2047POPC   C3B28293  34.945  21.018   8.082
 2047POPC   C4B28294  35.180  20.941   7.752
 2048POPC   NC328295  30.977  23.891   9.848
 2048POPC   PO428296  30.518  23.532   9.554
 2048POPC   GL128297  30.728  23.649   9.202
 2048POPC   GL228298  31.096  23.722   9.279
 2048POPC   C1A28299  30.576  23.501   8.804
 2048POPC   D2A28300  30.322  23.664   8.468
 2048POPC   C3A28301  30.568  23.719   8.101
 2048POPC   C4A28302  30.635  23.382   7.844
 2048POPC   C1B28303  31.075  23.702   8.822
 2048POPC   C2B28304  30.931  23.519   8.434
 2048POPC   C3B28305  31.084  23.500   8.034
 2048POPC   C4B28306  30.938  23.791   7.734
 2049POPC   NC328307  43.517  30.649   9.494
 2049POPC   PO428308  44.219  30.558   9.567
 2049POPC   GL128309  44.068  30.577   9.168
 2049POPC   GL228310  43.779  30.378   9.112
 2049POPC   C1A28311  44.121  30.653   8.727
 2049POPC   D2A28312  43.968  30.664   8.328
 2049POPC   C3A28313  44.080  30.532   7.942
 2049POPC   C4A28314  44.073  30.518   7.491
 2049POPC   C1B28315  43.490  30.521   8.810
 2049POPC   C2B28316  43.492  30.767   8.452
 2049POPC   C3B28317  43.534  30.601   8.054
 2049POPC   C4B28318  43.642  30.757   7.687
 2050POPC   NC328319  42.597  41.774   9.485
 2050POPC   PO428320  42.157  41.304   9.789
 2050POPC   GL128321  42.091  41.563   9.307
 2050POPC   GL228322  42.199  41.914   9.168
 2050POPC   C1A28323  42.161  41.464   8.839
 2050POPC   D2A28324  42.128  41.750   8.538
 2050POPC   C3A28325  42.157  41.626   8.152
 2050POPC   C4A28326  42.187  41.362   7.827
 2050POPC   C1B28327  42.538  41.810   8.840
 2050POPC   C2B28328  42.599  41.494   8.493
 2050POPC   C3B28329  42.640  41.493   8.032
 2050POPC   C4B28330  42.566  41.729   7.620
 2051POPC   NC328331   7.490  37.196   9.512
 2051POPC   PO428332   7.869  36.744   9.767
 2051POPC   GL128333   7.709  36.747   9.239
 2051POPC   GL228334   7.361  36.942   9.108
 2051POPC   C1A28335   7.552  36.618   8.800
 2051POPC   D2A28336   7.407  36.914   8.474
 2051POPC   C3A28337   7.606  36.789   8.107
 2051POPC   C4A28338   7.408  36.876   7.723
 2051POPC   C1B28339   7.672  37.164   8.825
 2051POPC   C2B28340   7.747  37.299   8.405
 2051POPC   C3B28341   7.563  37.299   8.011
 2051POPC   C4B28342   7.651  37.297   7.585
 2052POPC   NC328343  40.701   3.137   9.449
 2052POPC   PO428344  41.088   2.530   9.316
 2052POPC   GL128345  40.744   2.757   9.111
 2052POPC   GL228346  40.912   3.019   8.986
 2052POPC   C1A28347  40.510   2.882   8.691
 2052POPC   D2A28348  40.530   3.121   8.283
 2052POPC   C3A28349  40.762   2.875   7.981
 2052POPC   C4A28350  40.753   2.663   7.579
 2052POPC   C1B28351  40.992   2.657   8.680
 2052POPC   C2B28352  41.113   2.603   8.265
 2052POPC   C3B28353  41.090   2.432   7.859
 2052POPC   C4B28354  41.130   2.378   7.386
 2053POPC   NC328355  42.533   9.519   9.416
 2053POPC   PO428356  42.213  10.079   9.537
 2053POPC   GL128357  42.145   9.821   9.195
 2053POPC   GL228358  42.476   9.903   9.074
 2053POPC   C1A28359  42.114   9.768   8.759
 2053POPC   D2A28360  42.234   9.620   8.390
 2053POPC   C3A28361  42.164   9.742   7.972
 2053POPC   C4A28362  42.522   9.504   7.771
 2053POPC   C1B28363  42.573   9.961   8.623
 2053POPC   C2B28364  42.595   9.917   8.170
 2053POPC   C3B28365  42.531  10.032   7.731
 2053POPC   C4B28366  42.422  10.293   7.362
 2054POPC   NC328367  10.029   7.891   9.347
 2054POPC   PO428368   9.911   8.438   9.714
 2054POPC   GL128369   9.741   8.335   9.238
 2054POPC   GL228370   9.542   8.028   9.106
 2054POPC   C1A28371   9.873   8.225   8.785
 2054POPC   D2A28372   9.749   7.971   8.447
 2054POPC   C3A28373   9.855   8.209   8.093
 2054POPC   C4A28374   9.879   8.327   7.678
 2054POPC   C1B28375   9.376   8.271   8.734
 2054POPC   C2B28376   9.403   8.341   8.287
 2054POPC   C3B28377   9.407   8.164   7.870
 2054POPC   C4B28378   9.385   8.336   7.420
 2055POPC   NC328379   1.030   1.415   9.625
 2055POPC   PO428380   1.657   1.153   9.505
 2055POPC   GL128381   1.325   1.226   9.250
 2055POPC   GL228382   1.132   0.942   9.416
 2055POPC   C1A28383   1.323   1.334   8.814
 2055POPC   D2A28384   1.495   1.133   8.437
 2055POPC   C3A28385   1.372   1.299   8.028
 2055POPC   C4A28386   1.022   1.475   7.806
 2055POPC   C1B28387   1.046   0.918   8.974
 2055POPC   C2B28388   1.001   1.038   8.549
 2055POPC   C3B28389   0.932   1.045   8.100
 2055POPC   C4B28390   0.986   0.958   7.659
 2056POPC   NC328391  15.045   7.275   9.525
 2056POPC   PO428392  15.519   6.850   9.665
 2056POPC   GL128393  15.492   7.155   9.244
 2056POPC   GL228394  15.212   7.391   9.065
 2056POPC   C1A28395  15.599   7.250   8.792
 2056POPC   D2A28396  15.492   7.446   8.402
 2056POPC   C3A28397  15.115   7.313   8.196
 2056POPC   C4A28398  15.276   7.276   7.806
 2056POPC   C1B28399  14.851   7.471   8.749
 2056POPC   C2B28400  14.636   7.611   8.352
 2056POPC   C3B28401  14.824   7.724   7.947
 2056POPC   C4B28402  14.938   7.558   7.560
 2057POPC   NC328403   4.582  17.751   9.317
 2057POPC   PO428404   4.410  18.378   9.535
 2057POPC   GL128405   4.317  18.150   9.130
 2057POPC   GL228406   4.001  17.982   9.047
 2057POPC   C1A28407   4.554  18.220   8.729
 2057POPC   D2A28408   4.756  18.472   8.403
 2057POPC   C3A28409   4.542  18.379   8.044
 2057POPC   C4A28410   4.412  18.033   7.802
 2057POPC   C1B28411   4.029  18.255   8.707
 2057POPC   C2B28412   4.161  18.187   8.309
 2057POPC   C3B28413   4.015  18.328   7.923
 2057POPC   C4B28414   3.999  18.079   7.503
 2058POPC   NC328415  30.376  12.817   9.527
 2058POPC   PO428416  29.723  12.855   9.531
 2058POPC   GL128417  29.932  12.763   9.162
 2058POPC   GL228418  30.201  13.022   9.097
 2058POPC   C1A28419  29.906  12.826   8.734
 2058POPC   D2A28420  30.176  12.840   8.414
 2058POPC   C3A28421  29.932  12.836   8.068
 2058POPC   C4A28422  29.773  12.855   7.662
 2058POPC   C1B28423  30.193  13.266   8.707
 2058POPC   C2B28424  30.283  13.286   8.267
 2058POPC   C3B28425  30.131  13.244   7.868
 2058POPC   C4B28426  30.114  13.138   7.418
 2059POPC   NC328427  32.709  29.890   9.542
 2059POPC   PO428428  33.140  30.323   9.864
 2059POPC   GL128429  33.152  30.245   9.288
 2059POPC   GL228430  33.099  29.864   9.213
 2059POPC   C1A28431  33.108  30.183   8.828
 2059POPC   D2A28432  33.135  29.836   8.538
 2059POPC   C3A28433  33.176  30.068   8.176
 2059POPC   C4A28434  33.390  30.045   7.804
 2059POPC   C1B28435  32.725  29.854   8.893
 2059POPC   C2B28436  32.642  29.916   8.429
 2059POPC   C3B28437  32.765  29.880   7.970
 2059POPC   C4B28438  32.921  30.251   7.708
 2060POPC   NC328439  25.561  29.098   9.415
 2060POPC   PO428440  24.930  29.388   9.541
 2060POPC   GL128441  25.186  29.374   9.177
 2060POPC   GL228442  25.304  29.056   8.986
 2060POPC   C1A28443  25.141  29.487   8.762
 2060POPC   D2A28444  25.240  29.522   8.359
 2060POPC   C3A28445  25.340  29.176   8.092
 2060POPC   C4A28446  25.239  29.138   7.675
 2060POPC   C1B28447  25.628  28.845   8.736
 2060POPC   C2B28448  25.671  28.855   8.319
 2060POPC   C3B28449  25.742  28.820   7.914
 2060POPC   C4B28450  25.683  28.932   7.493
 2061POPC   NC328451   5.538  28.931   9.373
 2061POPC   PO428452   5.985  29.319   9.525
 2061POPC   GL128453   5.918  29.229   9.117
 2061POPC   GL228454   5.599  29.365   9.063
 2061POPC   C1A28455   5.804  29.037   8.725
 2061POPC   D2A28456   5.677  29.211   8.332
 2061POPC   C3A28457   5.708  28.950   8.023
 2061POPC   C4A28458   5.726  29.023   7.641
 2061POPC   C1B28459   5.645  29.576   8.688
 2061POPC   C2B28460   5.645  29.750   8.268
 2061POPC   C3B28461   5.691  29.559   7.871
 2061POPC   C4B28462   5.374  29.399   7.665
 2062POPC   NC328463  40.125  11.890   9.779
 2062POPC   PO428464  39.513  12.147   9.812
 2062POPC   GL128465  39.628  12.078   9.335
 2062POPC   GL228466  40.002  11.991   9.216
 2062POPC   C1A28467  39.692  12.245   8.895
 2062POPC   D2A28468  39.737  12.412   8.459
 2062POPC   C3A28469  40.043  12.230   8.218
 2062POPC   C4A28470  40.285  12.167   7.872
 2062POPC   C1B28471  40.008  11.842   8.750
 2062POPC   C2B28472  40.012  11.718   8.278
 2062POPC   C3B28473  40.353  11.672   7.930
 2062POPC   C4B28474  40.417  11.810   7.479
 2063POPC   NC328475   1.210  14.134   9.606
 2063POPC   PO428476   1.184  14.808   9.635
 2063POPC   GL128477   1.375  14.554   9.301
 2063POPC   GL228478   1.040  14.484   9.225
 2063POPC   C1A28479   1.527  14.569   8.857
 2063POPC   D2A28480   1.366  14.663   8.453
 2063POPC   C3A28481   1.573  14.507   8.075
 2063POPC   C4A28482   1.728  14.290   7.701
 2063POPC   C1B28483   1.050  14.367   8.799
 2063POPC   C2B28484   0.901  14.478   8.384
 2063POPC   C3B28485   1.068  14.614   8.027
 2063POPC   C4B28486   1.221  14.433   7.681
 2064POPC   NC328487  20.536  38.976   9.868
 2064POPC   PO428488  20.971  38.475   9.645
 2064POPC   GL128489  20.723  38.411   9.258
 2064POPC   GL228490  20.439  38.165   9.256
 2064POPC   C1A28491  20.520  38.631   8.881
 2064POPC   D2A28492  20.327  38.484   8.484
 2064POPC   C3A28493  20.221  38.676   8.070
 2064POPC   C4A28494  20.532  38.730   7.764
 2064POPC   C1B28495  20.561  38.103   8.814
 2064POPC   C2B28496  20.446  37.981   8.390
 2064POPC   C3B28497  20.539  38.276   8.056
 2064POPC   C4B28498  20.653  38.254   7.620
 2065POPC   NC328499  21.019  24.160   9.403
 2065POPC   PO428500  21.449  24.666   9.445
 2065POPC   GL128501  21.326  24.435   9.107
 2065POPC   GL228502  21.538  24.183   9.193
 2065POPC   C1A28503  21.344  24.347   8.687
 2065POPC   D2A28504  21.340  24.711   8.458
 2065POPC   C3A28505  21.418  24.761   8.015
 2065POPC   C4A28506  21.172  24.725   7.613
 2065POPC   C1B28507  21.829  24.248   8.847
 2065POPC   C2B28508  21.804  24.444   8.409
 2065POPC   C3B28509  21.709  24.348   7.989
 2065POPC   C4B28510  21.294  24.263   7.862
 2066POPC   NC328511  15.947  43.588   9.434
 2066POPC   PO428512  16.352  44.139   9.478
 2066POPC   GL128513  16.154  44.227   9.085
 2066POPC   GL228514  15.996  43.905   9.022
 2066POPC   C1A28515  16.165  44.369   8.649
 2066POPC   D2A28516  16.257  44.089   8.346
 2066POPC   C3A28517  16.063  44.022   7.965
 2066POPC   C4A28518  16.145  43.730   7.647
 2066POPC   C1B28519  15.714  44.178   8.775
 2066POPC   C2B28520  15.715  44.179   8.327
 2066POPC   C3B28521  15.576  43.832   8.025
 2066POPC   C4B28522  15.503  43.862   7.567
 2067POPC   NC328523  11.512  14.571   9.483
 2067POPC   PO428524  10.880  14.402   9.770
 2067POPC   GL128525  11.090  14.355   9.288
 2067POPC   GL228526  11.006  14.087   9.157
 2067POPC   C1A28527  11.346  14.287   8.862
 2067POPC   D2A28528  11.318  14.106   8.429
 2067POPC   C3A28529  11.488  14.345   8.082
 2067POPC   C4A28530  11.355  14.627   7.756
 2067POPC   C1B28531  10.812  14.256   8.772
 2067POPC   C2B28532  10.776  14.157   8.365
 2067POPC   C3B28533  10.991  14.096   8.024
 2067POPC   C4B28534  10.950  14.298   7.689
 2068POPC   NC328535  42.720  39.058   9.279
 2068POPC   PO428536  42.303  39.543   9.563
 2068POPC   GL128537  42.338  39.400   9.161
 2068POPC   GL228538  42.261  39.069   9.007
 2068POPC   C1A28539  42.246  39.519   8.742
 2068POPC   D2A28540  41.961  39.236   8.495
 2068POPC   C3A28541  42.088  39.166   8.058
 2068POPC   C4A28542  42.180  39.554   7.829
 2068POPC   C1B28543  42.441  39.058   8.593
 2068POPC   C2B28544  42.511  39.376   8.299
 2068POPC   C3B28545  42.618  39.264   7.885
 2068POPC   C4B28546  42.538  38.971   7.564
 2069POPC   NC328547  37.089  44.965   9.636
 2069POPC   PO428548  36.576  44.653   9.640
 2069POPC   GL128549  36.773  44.742   9.261
 2069POPC   GL228550  37.097  44.638   9.243
 2069POPC   C1A28551  36.791  44.548   8.831
 2069POPC   D2A28552  36.774  44.342   8.409
 2069POPC   C3A28553  36.722  44.617   8.055
 2069POPC   C4A28554  36.835   0.018   7.840
 2069POPC   C1B28555  37.248  44.800   8.813
 2069POPC   C2B28556  37.146  44.798   8.356
 2069POPC   C3B28557  37.287  44.831   7.921
 2069POPC   C4B28558  37.187  44.841   7.479
 2070POPC   NC328559  32.317  36.740   9.674
 2070POPC   PO428560  32.574  37.236   9.261
 2070POPC   GL128561  32.300  36.933   9.123
 2070POPC   GL228562  32.171  36.592   9.111
 2070POPC   C1A28563  32.246  37.009   8.697
 2070POPC   D2A28564  31.997  37.012   8.348
 2070POPC   C3A28565  32.240  37.158   8.023
 2070POPC   C4A28566  32.117  37.091   7.560
 2070POPC   C1B28567  32.343  36.506   8.712
 2070POPC   C2B28568  32.374  36.682   8.297
 2070POPC   C3B28569  32.240  36.668   7.867
 2070POPC   C4B28570  32.315  36.641   7.414
 2071POPC   NC328571  31.837  19.392   9.417
 2071POPC   PO428572  31.756  18.728   9.461
 2071POPC   GL128573  31.536  19.023   9.229
 2071POPC   GL228574  31.233  18.922   9.196
 2071POPC   C1A28575  31.558  19.246   8.849
 2071POPC   D2A28576  31.507  19.095   8.453
 2071POPC   C3A28577  31.649  19.227   8.079
 2071POPC   C4A28578  31.388  19.181   7.744
 2071POPC   C1B28579  31.292  18.782   8.792
 2071POPC   C2B28580  31.325  18.598   8.385
 2071POPC   C3B28581  31.501  18.700   8.000
 2071POPC   C4B28582  31.341  18.703   7.572
 2072POPC   NC328583   1.063  27.785   9.607
 2072POPC   PO428584   1.505  27.458   9.296
 2072POPC   GL128585   1.124  27.475   9.141
 2072POPC   GL228586   1.046  27.822   9.111
 2072POPC   C1A28587   1.049  27.416   8.712
 2072POPC   D2A28588   1.271  27.579   8.359
 2072POPC   C3A28589   1.377  27.413   7.992
 2072POPC   C4A28590   1.413  27.703   7.671
 2072POPC   C1B28591   1.289  27.900   8.779
 2072POPC   C2B28592   1.016  27.990   8.447
 2072POPC   C3B28593   0.965  27.873   8.025
 2072POPC   C4B28594   0.748  28.114   7.729
 2073POPC   NC328595  19.368  27.867   9.403
 2073POPC   PO428596  18.848  27.587   9.626
 2073POPC   GL128597  18.933  27.517   9.201
 2073POPC   GL228598  19.199  27.306   9.106
 2073POPC   C1A28599  18.925  27.596   8.770
 2073POPC   D2A28600  19.072  27.616   8.368
 2073POPC   C3A28601  18.810  27.603   7.998
 2073POPC   C4A28602  18.846  27.772   7.595
 2073POPC   C1B28603  19.432  27.460   8.753
 2073POPC   C2B28604  19.495  27.334   8.330
 2073POPC   C3B28605  19.336  27.533   7.945
 2073POPC   C4B28606  19.295  27.558   7.496
 2074POPC   NC328607   9.380  12.431   9.429
 2074POPC   PO428608  10.014  12.646   9.512
 2074POPC   GL128609   9.964  12.596   9.093
 2074POPC   GL228610   9.613  12.746   9.085
 2074POPC   C1A28611   9.993  12.873   8.730
 2074POPC   D2A28612   9.764  12.923   8.326
 2074POPC   C3A28613   9.985  12.844   7.947
 2074POPC   C4A28614   9.987  13.137   7.600
 2074POPC   C1B28615   9.353  12.650   8.737
 2074POPC   C2B28616   9.442  12.529   8.348
 2074POPC   C3B28617   9.395  12.644   7.936
 2074POPC   C4B28618   9.620  12.784   7.569
 2075POPC   NC328619   6.512  40.353   9.416
 2075POPC   PO428620   6.272  40.920   9.638
 2075POPC   GL128621   6.301  41.054   9.185
 2075POPC   GL228622   6.517  40.763   9.129
 2075POPC   C1A28623   6.535  41.069   8.757
 2075POPC   D2A28624   6.610  40.888   8.396
 2075POPC   C3A28625   6.858  40.813   8.070
 2075POPC   C4A28626   6.576  40.865   7.749
 2075POPC   C1B28627   6.500  40.466   8.754
 2075POPC   C2B28628   6.666  40.382   8.355
 2075POPC   C3B28629   6.508  40.402   7.979
 2075POPC   C4B28630   6.257  40.256   7.648
 2076POPC   NC328631  44.860  38.044   9.540
 2076POPC   PO428632  44.417  37.662   9.841
 2076POPC   GL128633  44.461  37.672   9.316
 2076POPC   GL228634  44.330  37.951   9.212
 2076POPC   C1A28635  44.358  37.606   8.808
 2076POPC   D2A28636  44.748  37.640   8.516
 2076POPC   C3A28637  44.686  37.830   8.098
 2076POPC   C4A28638  44.516  37.671   7.717
 2076POPC   C1B28639  44.677  37.950   8.921
 2076POPC   C2B28640  44.495  38.060   8.533
 2076POPC   C3B28641  44.273  38.132   8.177
 2076POPC   C4B28642  44.526  38.217   7.813
 2077POPC   NC328643   2.607  12.474   9.618
 2077POPC   PO428644   3.082  13.001   9.506
 2077POPC   GL128645   2.888  12.971   9.118
 2077POPC   GL228646   2.656  12.690   9.150
 2077POPC   C1A28647   2.792  12.898   8.715
 2077POPC   D2A28648   2.663  13.014   8.345
 2077POPC   C3A28649   2.897  12.863   8.010
 2077POPC   C4A28650   2.634  13.069   7.763
 2077POPC   C1B28651   2.387  12.595   8.736
 2077POPC   C2B28652   2.234  12.726   8.304
 2077POPC   C3B28653   2.430  12.608   7.908
 2077POPC   C4B28654   2.724  12.592   7.548
 2078POPC   NC328655  32.267  34.022   9.468
 2078POPC   PO428656  32.197  33.358   9.521
 2078POPC   GL128657  32.122  33.633   9.141
 2078POPC   GL228658  32.004  34.005   9.037
 2078POPC   C1A28659  32.163  33.639   8.707
 2078POPC   D2A28660  32.160  33.952   8.383
 2078POPC   C3A28661  32.268  33.692   8.063
 2078POPC   C4A28662  32.144  33.540   7.644
 2078POPC   C1B28663  32.374  34.122   8.818
 2078POPC   C2B28664  32.498  34.323   8.412
 2078POPC   C3B28665  32.620  34.100   8.020
 2078POPC   C4B28666  32.317  34.023   7.669
 2079POPC   NC328667  29.803  24.998   9.682
 2079POPC   PO428668  30.360  25.230   9.542
 2079POPC   GL128669  29.983  25.261   9.232
 2079POPC   GL228670  29.614  25.086   9.239
 2079POPC   C1A28671  30.032  25.526   8.862
 2079POPC   D2A28672  30.244  25.509   8.490
 2079POPC   C3A28673  30.054  25.514   8.103
 2079POPC   C4A28674  29.997  25.718   7.744
 2079POPC   C1B28675  29.574  25.303   8.880
 2079POPC   C2B28676  29.773  25.267   8.495
 2079POPC   C3B28677  29.611  25.285   8.108
 2079POPC   C4B28678  29.791  25.210   7.724
 2080POPC   NC328679   2.024   1.438   9.511
 2080POPC   PO428680   2.498   0.874   9.461
 2080POPC   GL128681   2.118   1.031   9.215
 2080POPC   GL228682   2.215   1.351   9.068
 2080POPC   C1A28683   1.838   1.105   8.838
 2080POPC   D2A28684   2.010   1.006   8.434
 2080POPC   C3A28685   1.834   1.070   8.036
 2080POPC   C4A28686   1.585   1.024   7.643
 2080POPC   C1B28687   2.223   1.445   8.685
 2080POPC   C2B28688   2.379   1.377   8.311
 2080POPC   C3B28689   2.234   1.539   7.967
 2080POPC   C4B28690   1.976   1.416   7.692
 2081POPC   NC328691  32.212  18.579   9.390
 2081POPC   PO428692  32.325  19.374   9.493
 2081POPC   GL128693  32.240  19.299   9.066
 2081POPC   GL228694  32.050  19.010   9.135
 2081POPC   C1A28695  32.054  19.263   8.642
 2081POPC   D2A28696  32.141  19.173   8.195
 2081POPC   C3A28697  32.112  19.333   7.808
 2081POPC   C4A28698  32.392  19.018   7.712
 2081POPC   C1B28699  31.806  18.812   8.815
 2081POPC   C2B28700  31.912  18.788   8.413
 2081POPC   C3B28701  32.034  18.708   7.995
 2081POPC   C4B28702  31.843  18.935   7.674
 2082POPC   NC328703  24.093  36.930   9.484
 2082POPC   PO428704  24.728  37.230   9.560
 2082POPC   GL128705  24.560  37.022   9.185
 2082POPC   GL228706  24.220  37.118   9.039
 2082POPC   C1A28707  24.673  37.056   8.746
 2082POPC   D2A28708  24.871  36.926   8.348
 2082POPC   C3A28709  24.613  36.947   7.977
 2082POPC   C4A28710  24.541  36.724   7.542
 2082POPC   C1B28711  24.259  36.725   8.818
 2082POPC   C2B28712  24.344  36.706   8.374
 2082POPC   C3B28713  24.199  36.655   7.951
 2082POPC   C4B28714  24.008  36.631   7.539
 2083POPC   NC328715  14.206   1.684   9.410
 2083POPC   PO428716  14.143   2.303   9.503
 2083POPC   GL128717  14.357   2.086   9.153
 2083POPC   GL228718  14.650   1.842   9.238
 2083POPC   C1A28719  14.313   1.914   8.752
 2083POPC   D2A28720  14.361   2.104   8.355
 2083POPC   C3A28721  14.201   1.934   8.002
 2083POPC   C4A28722  14.408   2.062   7.674
 2083POPC   C1B28723  14.689   1.607   8.851
 2083POPC   C2B28724  14.755   1.780   8.446
 2083POPC   C3B28725  14.775   1.899   8.014
 2083POPC   C4B28726  14.791   1.747   7.573
 2084POPC   NC328727  25.616  15.138   9.590
 2084POPC   PO428728  26.320  15.295   9.496
 2084POPC   GL128729  26.049  15.047   9.220
 2084POPC   GL228730  25.833  15.283   9.137
 2084POPC   C1A28731  25.910  14.956   8.772
 2084POPC   D2A28732  26.046  15.118   8.399
 2084POPC   C3A28733  26.282  15.022   8.028
 2084POPC   C4A28734  26.020  14.969   7.662
 2084POPC   C1B28735  25.919  15.480   8.750
 2084POPC   C2B28736  25.692  15.499   8.363
 2084POPC   C3B28737  25.886  15.372   7.990
 2084POPC   C4B28738  26.153  15.443   7.630
 2085POPC   NC328739   3.456  13.300   9.526
 2085POPC   PO428740   3.034  13.711   9.226
 2085POPC   GL128741   3.286  13.380   9.039
 2085POPC   GL228742   3.591  13.572   9.126
 2085POPC   C1A28743   3.619  13.287   8.708
 2085POPC   D2A28744   3.856  13.465   8.319
 2085POPC   C3A28745   3.605  13.489   7.920
 2085POPC   C4A28746   3.687  13.416   7.458
 2085POPC   C1B28747   3.757  13.789   8.779
 2085POPC   C2B28748   3.709  13.981   8.395
 2085POPC   C3B28749   3.736  14.155   8.030
 2085POPC   C4B28750   3.691  13.924   7.659
 2086POPC   NC328751   4.816  39.707   9.620
 2086POPC   PO428752   5.261  40.158   9.482
 2086POPC   GL128753   5.216  40.011   9.112
 2086POPC   GL228754   4.919  39.895   9.148
 2086POPC   C1A28755   5.378  40.063   8.728
 2086POPC   D2A28756   5.165  39.876   8.384
 2086POPC   C3A28757   5.090  40.177   8.055
 2086POPC   C4A28758   5.288  40.132   7.682
 2086POPC   C1B28759   4.945  39.636   8.800
 2086POPC   C2B28760   4.812  39.479   8.423
 2086POPC   C3B28761   4.968  39.569   8.016
 2086POPC   C4B28762   4.841  39.864   7.713
 2087POPC   NC328763  14.460  33.476   9.683
 2087POPC   PO428764  14.548  34.145   9.617
 2087POPC   GL128765  14.425  33.928   9.245
 2087POPC   GL228766  14.502  33.603   9.202
 2087POPC   C1A28767  14.239  33.862   8.818
 2087POPC   D2A28768  14.291  34.022   8.396
 2087POPC   C3A28769  14.234  33.770   8.052
 2087POPC   C4A28770  13.977  33.946   7.750
 2087POPC   C1B28771  14.610  33.426   8.850
 2087POPC   C2B28772  14.578  33.578   8.477
 2087POPC   C3B28773  14.832  33.592   8.174
 2087POPC   C4B28774  14.661  33.544   7.772
 2088POPC   NC328775  35.918  14.800   9.700
 2088POPC   PO428776  36.075  15.395   9.400
 2088POPC   GL128777  36.070  15.303   9.003
 2088POPC   GL228778  36.424  15.449   8.990
 2088POPC   C1A28779  35.818  15.272   8.641
 2088POPC   D2A28780  35.875  15.447   8.241
 2088POPC   C3A28781  35.759  15.146   7.936
 2088POPC   C4A28782  35.809  15.224   7.514
 2088POPC   C1B28783  36.341  15.238   8.584
 2088POPC   C2B28784  36.128  15.006   8.281
 2088POPC   C3B28785  36.240  14.955   7.836
 2088POPC   C4B28786  36.271  15.057   7.395
 2089POPC   NC328787  26.007   9.143   9.694
 2089POPC   PO428788  26.533   9.084   9.343
 2089POPC   GL128789  26.105   9.249   9.190
 2089POPC   GL228790  25.934   8.933   9.217
 2089POPC   C1A28791  26.001   9.355   8.738
 2089POPC   D2A28792  26.360   9.132   8.502
 2089POPC   C3A28793  26.434   9.192   8.063
 2089POPC   C4A28794  26.100   9.145   7.775
 2089POPC   C1B28795  25.986   8.865   8.781
 2089POPC   C2B28796  25.875   8.960   8.312
 2089POPC   C3B28797  25.817   8.718   7.891
 2089POPC   C4B28798  25.766   8.782   7.412
 2090POPC   NC328799  23.218  14.896   9.375
 2090POPC   PO428800  23.017  15.483   9.629
 2090POPC   GL128801  23.130  15.360   9.201
 2090POPC   GL228802  22.864  15.186   9.120
 2090POPC   C1A28803  23.203  15.202   8.753
 2090POPC   D2A28804  22.969  15.284   8.386
 2090POPC   C3A28805  23.069  15.038   8.043
 2090POPC   C4A28806  23.333  15.206   7.758
 2090POPC   C1B28807  22.695  15.049   8.738
 2090POPC   C2B28808  22.452  15.169   8.367
 2090POPC   C3B28809  22.579  15.082   7.960
 2090POPC   C4B28810  22.864  15.192   7.603
 2091POPC   NC328811  19.285  44.884   9.516
 2091POPC   PO428812  18.645  44.697   9.727
 2091POPC   GL128813  18.915  44.604   9.287
 2091POPC   GL228814  19.200  44.397   9.149
 2091POPC   C1A28815  19.107  44.785   8.868
 2091POPC   D2A28816  19.298  44.827   8.464
 2091POPC   C3A28817  19.030  44.769   8.111
 2091POPC   C4A28818  18.923   0.036   7.767
 2091POPC   C1B28819  18.902  44.322   8.745
 2091POPC   C2B28820  18.848  44.279   8.259
 2091POPC   C3B28821  19.081  44.320   7.841
 2091POPC   C4B28822  19.048  44.170   7.382
 2092POPC   NC328823  17.456   2.406   9.341
 2092POPC   PO428824  17.371   1.891   9.792
 2092POPC   GL128825  17.282   1.916   9.290
 2092POPC   GL228826  17.518   1.988   9.053
 2092POPC   C1A28827  17.082   2.023   8.829
 2092POPC   D2A28828  17.150   2.313   8.454
 2092POPC   C3A28829  17.341   2.088   8.090
 2092POPC   C4A28830  17.600   2.080   7.710
 2092POPC   C1B28831  17.606   1.929   8.627
 2092POPC   C2B28832  17.994   1.817   8.415
 2092POPC   C3B28833  17.933   1.827   7.998
 2092POPC   C4B28834  17.865   1.647   7.628
 2093POPC   NC328835  16.345  42.948   9.561
 2093POPC   PO428836  15.812  43.250   9.718
 2093POPC   GL128837  15.933  43.093   9.281
 2093POPC   GL228838  16.213  43.240   9.087
 2093POPC   C1A28839  15.694  43.027   8.897
 2093POPC   D2A28840  15.542  43.166   8.513
 2093POPC   C3A28841  15.793  42.944   8.212
 2093POPC   C4A28842  15.986  42.898   7.829
 2093POPC   C1B28843  16.129  43.144   8.620
 2093POPC   C2B28844  16.217  43.242   8.149
 2093POPC   C3B28845  16.324  43.266   7.699
 2093POPC   C4B28846  16.197  43.358   7.235
 2094POPC   NC328847  19.412  28.863   9.490
 2094POPC   PO428848  20.000  29.154   9.597
 2094POPC   GL128849  19.900  28.947   9.217
 2094POPC   GL228850  19.835  29.258   9.077
 2094POPC   C1A28851  19.929  28.859   8.752
 2094POPC   D2A28852  19.933  29.016   8.327
 2094POPC   C3A28853  19.962  28.894   7.846
 2094POPC   C4A28854  20.129  28.779   7.418
 2094POPC   C1B28855  19.566  29.239   8.706
 2094POPC   C2B28856  19.484  29.234   8.268
 2094POPC   C3B28857  19.640  29.288   7.877
 2094POPC   C4B28858  20.021  29.455   7.746
 2095POPC   NC328859  37.287  36.361   9.664
 2095POPC   PO428860  37.914  36.069   9.549
 2095POPC   GL128861  37.700  36.138   9.189
 2095POPC   GL228862  37.593  36.471   9.262
 2095POPC   C1A28863  37.599  35.924   8.801
 2095POPC   D2A28864  37.502  36.044   8.387
 2095POPC   C3A28865  37.678  35.879   8.009
 2095POPC   C4A28866  37.328  35.778   7.756
 2095POPC   C1B28867  37.444  36.440   8.823
 2095POPC   C2B28868  37.427  36.544   8.397
 2095POPC   C3B28869  37.775  36.404   8.127
 2095POPC   C4B28870  37.967  36.321   7.746
 2096POPC   NC328871  42.257  31.920   9.374
 2096POPC   PO428872  42.507  31.314   9.526
 2096POPC   GL128873  42.159  31.380   9.291
 2096POPC   GL228874  42.391  31.545   9.054
 2096POPC   C1A28875  42.002  31.247   8.902
 2096POPC   D2A28876  42.251  31.384   8.546
 2096POPC   C3A28877  42.222  31.174   8.121
 2096POPC   C4A28878  42.194  31.399   7.723
 2096POPC   C1B28879  42.729  31.771   8.814
 2096POPC   C2B28880  42.534  31.841   8.428
 2096POPC   C3B28881  42.291  31.694   8.134
 2096POPC   C4B28882  42.560  31.732   7.805
 2097POPC   NC328883  30.502  18.747   9.667
 2097POPC   PO428884  30.053  18.301   9.496
 2097POPC   GL128885  29.935  18.128   9.108
 2097POPC   GL228886  30.251  18.004   8.991
 2097POPC   C1A28887  29.868  18.288   8.686
 2097POPC   D2A28888  29.850  18.112   8.268
 2097POPC   C3A28889  29.972  18.328   7.903
 2097POPC   C4A28890  29.624  18.388   7.654
 2097POPC   C1B28891  29.987  17.794   8.672
 2097POPC   C2B28892  30.111  17.674   8.264
 2097POPC   C3B28893  29.950  17.800   7.845
 2097POPC   C4B28894  30.153  18.058   7.501
 2098POPC   NC328895  29.387  14.877   9.507
 2098POPC   PO428896  29.861  15.326   9.536
 2098POPC   GL128897  29.872  15.183   9.123
 2098POPC   GL228898  29.611  14.981   9.072
 2098POPC   C1A28899  29.684  15.375   8.758
 2098POPC   D2A28900  29.840  15.513   8.387
 2098POPC   C3A28901  29.903  15.183   8.099
 2098POPC   C4A28902  29.878  15.524   7.849
 2098POPC   C1B28903  29.775  14.842   8.687
 2098POPC   C2B28904  29.664  14.616   8.317
 2098POPC   C3B28905  29.594  14.770   7.909
 2098POPC   C4B28906  29.613  15.145   7.680
 2099POPC   NC328907  14.846  10.517   9.555
 2099POPC   PO428908  15.465  10.841   9.614
 2099POPC   GL128909  15.232  10.678   9.259
 2099POPC   GL228910  14.983  10.897   9.232
 2099POPC   C1A28911  15.222  10.455   8.814
 2099POPC   D2A28912  15.462  10.546   8.398
 2099POPC   C3A28913  15.178  10.531   8.053
 2099POPC   C4A28914  14.754  10.572   7.994
 2099POPC   C1B28915  15.171  10.970   8.844
 2099POPC   C2B28916  15.033  10.816   8.473
 2099POPC   C3B28917  15.003  11.052   8.131
 2099POPC   C4B28918  15.000  10.929   7.739
 2100POPC   NC328919   0.226  28.331   9.640
 2100POPC   PO428920   0.648  28.773   9.540
 2100POPC   GL128921   0.512  28.413   9.239
 2100POPC   GL228922   0.812  28.284   9.183
 2100POPC   C1A28923   0.519  28.186   8.808
 2100POPC   D2A28924   0.652  28.351   8.429
 2100POPC   C3A28925   0.374  28.279   8.098
 2100POPC   C4A28926   0.253  28.118   7.684
 2100POPC   C1B28927   0.723  28.694   8.876
 2100POPC   C2B28928   0.867  28.809   8.437
 2100POPC   C3B28929   0.797  28.638   8.014
 2100POPC   C4B28930   0.475  28.576   7.703
 2101POPC   NC328931  27.294  42.556   9.427
 2101POPC   PO428932  27.960  42.532   9.283
 2101POPC   GL128933  27.591  42.421   9.015
 2101POPC   GL228934  27.453  42.109   9.152
 2101POPC   C1A28935  27.348  42.562   8.639
 2101POPC   D2A28936  27.388  42.599   8.189
 2101POPC   C3A28937  27.793  42.489   8.012
 2101POPC   C4A28938  27.873  42.423   7.573
 2101POPC   C1B28939  27.131  42.144   8.818
 2101POPC   C2B28940  27.005  42.248   8.402
 2101POPC   C3B28941  27.125  42.133   8.008
 2101POPC   C4B28942  27.380  42.342   7.733
 2102POPC   NC328943  15.256  26.586   9.362
 2102POPC   PO428944  14.816  27.083   9.463
 2102POPC   GL128945  14.979  26.856   9.058
 2102POPC   GL228946  14.921  26.477   9.010
 2102POPC   C1A28947  15.265  26.863   8.701
 2102POPC   D2A28948  15.395  27.109   8.326
 2102POPC   C3A28949  15.372  26.939   7.912
 2102POPC   C4A28950  14.951  26.836   7.810
 2102POPC   C1B28951  14.833  26.594   8.584
 2102POPC   C2B28952  15.121  26.648   8.253
 2102POPC   C3B28953  15.255  26.432   7.867
 2102POPC   C4B28954  15.125  26.423   7.426
 2103POPC   NC328955  23.633   3.277   9.481
 2103POPC   PO428956  24.007   3.923   9.402
 2103POPC   GL128957  23.697   3.715   9.114
 2103POPC   GL228958  23.753   3.366   8.988
 2103POPC   C1A28959  23.551   3.743   8.685
 2103POPC   D2A28960  23.486   3.372   8.407
 2103POPC   C3A28961  23.697   3.400   8.004
 2103POPC   C4A28962  23.660   3.288   7.565
 2103POPC   C1B28963  24.080   3.656   8.802
 2103POPC   C2B28964  24.008   3.917   8.445
 2103POPC   C3B28965  24.025   3.827   8.006
 2103POPC   C4B28966  23.813   3.754   7.627
 2104POPC   NC328967  15.925  18.876   9.483
 2104POPC   PO428968  15.504  18.452   9.198
 2104POPC   GL128969  15.775  18.809   8.985
 2104POPC   GL228970  16.152  18.910   9.039
 2104POPC   C1A28971  15.892  19.168   8.691
 2104POPC   D2A28972  15.858  19.355   8.266
 2104POPC   C3A28973  15.922  19.099   7.887
 2104POPC   C4A28974  15.955  18.685   7.768
 2104POPC   C1B28975  16.399  18.863   8.642
 2104POPC   C2B28976  16.283  18.869   8.200
 2104POPC   C3B28977  16.418  18.902   7.765
 2104POPC   C4B28978  16.327  18.720   7.339
 2105POPC   NC328979  28.789  18.657   9.528
 2105POPC   PO428980  28.118  18.319   9.462
 2105POPC   GL128981  28.472  18.176   9.213
 2105POPC   GL228982  28.731  18.364   9.117
 2105POPC   C1A28983  28.556  17.937   8.814
 2105POPC   D2A28984  28.361  17.867   8.377
 2105POPC   C3A28985  28.476  18.135   7.994
 2105POPC   C4A28986  28.212  18.431   7.704
 2105POPC   C1B28987  28.470  18.429   8.740
 2105POPC   C2B28988  28.219  18.417   8.381
 2105POPC   C3B28989  28.466  18.648   8.095
 2105POPC   C4B28990  28.751  18.587   7.819
 2106POPC   NC328991  29.228  21.644   9.580
 2106POPC   PO428992  29.137  22.284   9.531
 2106POPC   GL128993  29.065  22.274   9.143
 2106POPC   GL228994  28.960  21.943   9.133
 2106POPC   C1A28995  29.128  22.526   8.785
 2106POPC   D2A28996  29.283  22.403   8.396
 2106POPC   C3A28997  29.364  22.683   8.066
 2106POPC   C4A28998  29.252  22.440   7.731
 2106POPC   C1B28999  29.391  22.000   8.860
 2106POPC   C2B29000  29.549  21.965   8.381
 2106POPC   C3B29001  29.464  21.995   7.893
 2106POPC   C4B29002  29.593  21.763   7.479
 2107POPC   NC329003  36.304  38.011   9.798
 2107POPC   PO429004  35.877  38.447   9.543
 2107POPC   GL129005  35.810  38.607   9.143
 2107POPC   GL229006  35.678  38.329   9.023
 2107POPC   C1A29007  36.129  38.644   8.826
 2107POPC   D2A29008  36.335  38.497   8.486
 2107POPC   C3A29009  36.332  38.489   8.036
 2107POPC   C4A29010  36.483  38.476   7.594
 2107POPC   C1B29011  35.838  38.252   8.645
 2107POPC   C2B29012  35.829  38.543   8.356
 2107POPC   C3B29013  35.813  38.540   7.944
 2107POPC   C4B29014  36.036  38.277   7.674
 2108POPC   NC329015  36.053  37.137   9.496
 2108POPC   PO429016  36.257  36.578   9.438
 2108POPC   GL129017  36.015  36.782   9.123
 2108POPC   GL229018  35.823  37.119   9.046
 2108POPC   C1A29019  36.213  36.943   8.753
 2108POPC   D2A29020  36.339  36.710   8.377
 2108POPC   C3A29021  36.290  36.976   8.043
 2108POPC   C4A29022  36.270  36.745   7.728
 2108POPC   C1B29023  35.715  36.803   8.726
 2108POPC   C2B29024  35.848  36.855   8.320
 2108POPC   C3B29025  35.796  36.738   7.915
 2108POPC   C4B29026  35.819  36.921   7.508
 2109POPC   NC329027  29.696  12.383   9.465
 2109POPC   PO429028  30.404  12.379   9.402
 2109POPC   GL129029  30.068  12.249   9.133
 2109POPC   GL229030  29.799  11.985   9.139
 2109POPC   C1A29031  29.879  12.325   8.761
 2109POPC   D2A29032  29.957  12.404   8.348
 2109POPC   C3A29033  29.700  12.387   7.996
 2109POPC   C4A29034  29.766  12.307   7.611
 2109POPC   C1B29035  29.777  11.853   8.673
 2109POPC   C2B29036  29.867  11.923   8.226
 2109POPC   C3B29037  29.570  11.890   7.913
 2109POPC   C4B29038  29.555  11.817   7.505
 2110POPC   NC329039  14.701  34.844   9.412
 2110POPC   PO429040  15.249  34.418   9.603
 2110POPC   GL129041  15.105  34.551   9.211
 2110POPC   GL229042  14.969  34.232   9.161
 2110POPC   C1A29043  15.167  34.791   8.824
 2110POPC   D2A29044  14.982  34.824   8.419
 2110POPC   C3A29045  15.171  34.758   8.009
 2110POPC   C4A29046  15.221  34.675   7.571
 2110POPC   C1B29047  15.179  34.243   8.763
 2110POPC   C2B29048  15.202  34.351   8.322
 2110POPC   C3B29049  15.261  34.259   7.880
 2110POPC   C4B29050  15.512  34.265   7.495
 2111POPC   NC329051   5.263   6.400   9.535
 2111POPC   PO429052   5.016   6.971   9.762
 2111POPC   GL129053   5.105   6.797   9.241
 2111POPC   GL229054   5.317   6.516   9.050
 2111POPC   C1A29055   4.902   6.598   8.787
 2111POPC   D2A29056   5.060   6.487   8.365
 2111POPC   C3A29057   4.827   6.663   8.003
 2111POPC   C4A29058   4.729   6.865   7.616
 2111POPC   C1B29059   5.440   6.693   8.661
 2111POPC   C2B29060   5.569   6.494   8.273
 2111POPC   C3B29061   5.311   6.486   7.904
 2111POPC   C4B29062   5.087   6.496   7.539
 2112POPC   NC329063  29.776  43.899   9.640
 2112POPC   PO429064  30.384  44.079   9.773
 2112POPC   GL129065  29.941  44.285   9.342
 2112POPC   GL229066  29.726  43.985   9.154
 2112POPC   C1A29067  29.979  44.224   8.804
 2112POPC   D2A29068  29.651  44.176   8.469
 2112POPC   C3A29069  29.837  44.069   8.056
 2112POPC   C4A29070  30.214  44.067   7.796
 2112POPC   C1B29071  29.780  43.752   8.756
 2112POPC   C2B29072  30.098  43.815   8.418
 2112POPC   C3B29073  30.068  43.622   7.990
 2112POPC   C4B29074  29.732  43.488   7.755
 2113POPC   NC329075  10.882  21.678   9.748
 2113POPC   PO429076  11.454  21.383   9.550
 2113POPC   GL129077  11.227  21.448   9.184
 2113POPC   GL229078  11.086  21.791   9.213
 2113POPC   C1A29079  11.199  21.196   8.805
 2113POPC   D2A29080  10.965  21.236   8.435
 2113POPC   C3A29081  11.248  21.257   8.115
 2113POPC   C4A29082  11.398  21.272   7.709
 2113POPC   C1B29083  11.274  21.740   8.767
 2113POPC   C2B29084  11.321  21.741   8.309
 2113POPC   C3B29085  11.292  21.745   7.863
 2113POPC   C4B29086  11.101  21.608   7.499
 2114POPC   NC329087   9.469  40.655   9.385
 2114POPC   PO429088   8.894  40.884   9.507
 2114POPC   GL129089   8.843  40.642   9.144
 2114POPC   GL229090   8.631  40.378   9.264
 2114POPC   C1A29091   9.011  40.587   8.729
 2114POPC   D2A29092   8.879  40.869   8.388
 2114POPC   C3A29093   9.109  40.955   8.003
 2114POPC   C4A29094   9.094  41.267   7.669
 2114POPC   C1B29095   8.678  40.205   8.852
 2114POPC   C2B29096   8.613  40.402   8.450
 2114POPC   C3B29097   8.773  40.502   8.054
 2114POPC   C4B29098   8.926  40.426   7.650
 2115POPC   NC329099  10.945   5.836   9.485
 2115POPC   PO429100  11.409   5.390   9.545
 2115POPC   GL129101  11.458   5.606   9.164
 2115POPC   GL229102  11.445   5.950   9.213
 2115POPC   C1A29103  11.179   5.729   8.833
 2115POPC   D2A29104  11.296   5.655   8.415
 2115POPC   C3A29105  11.059   5.749   8.076
 2115POPC   C4A29106  11.073   5.570   7.717
 2115POPC   C1B29107  11.662   5.911   8.766
 2115POPC   C2B29108  11.687   6.046   8.344
 2115POPC   C3B29109  11.587   5.849   7.989
 2115POPC   C4B29110  11.577   6.051   7.602
 2116POPC   NC329111  20.724   6.345   9.337
 2116POPC   PO429112  20.271   5.800   9.426
 2116POPC   GL129113  20.545   5.920   9.086
 2116POPC   GL229114  20.898   5.868   9.189
 2116POPC   C1A29115  20.498   5.874   8.642
 2116POPC   D2A29116  20.130   5.731   8.399
 2116POPC   C3A29117  20.284   5.648   8.013
 2116POPC   C4A29118  20.617   5.913   7.897
 2116POPC   C1B29119  21.005   5.959   8.749
 2116POPC   C2B29120  20.886   6.026   8.307
 2116POPC   C3B29121  21.108   5.838   7.916
 2116POPC   C4B29122  21.007   5.949   7.472
 2117POPC   NC329123  20.957   7.387   9.510
 2117POPC   PO429124  20.295   7.439   9.558
 2117POPC   GL129125  20.461   7.247   9.189
 2117POPC   GL229126  20.820   7.315   9.019
 2117POPC   C1A29127  20.415   7.088   8.781
 2117POPC   D2A29128  20.670   7.140   8.415
 2117POPC   C3A29129  20.499   7.452   8.162
 2117POPC   C4A29130  20.179   7.403   7.863
 2117POPC   C1B29131  21.132   7.171   8.688
 2117POPC   C2B29132  21.140   7.013   8.248
 2117POPC   C3B29133  20.921   7.167   7.850
 2117POPC   C4B29134  21.019   7.398   7.433
 2118POPC   NC329135  44.128   2.973   9.614
 2118POPC   PO429136  44.729   2.715   9.680
 2118POPC   GL129137  44.775   2.778   9.234
 2118POPC   GL229138  44.464   2.626   9.155
 2118POPC   C1A29139  44.810   2.968   8.817
 2118POPC   D2A29140  44.743   2.918   8.375
 2118POPC   C3A29141  44.860   3.121   7.981
 2118POPC   C4A29142  44.839   2.883   7.594
 2118POPC   C1B29143  44.308   2.713   8.747
 2118POPC   C2B29144  44.218   2.782   8.316
 2118POPC   C3B29145  44.469   2.785   7.952
 2118POPC   C4B29146  44.605   2.399   7.735
 2119POPC   NC329147   5.637  22.691   9.578
 2119POPC   PO429148   5.892  22.020   9.501
 2119POPC   GL129149   5.812  22.362   9.225
 2119POPC   GL229150   6.093  22.308   9.023
 2119POPC   C1A29151   5.638  22.415   8.791
 2119POPC   D2A29152   5.927  22.295   8.443
 2119POPC   C3A29153   5.830  22.169   8.001
 2119POPC   C4A29154   5.997  22.208   7.549
 2119POPC   C1B29155   5.824  21.955   8.858
 2119POPC   C2B29156   5.722  21.812   8.454
 2119POPC   C3B29157   5.813  21.593   8.100
 2119POPC   C4B29158   5.826  21.751   7.685
 2120POPC   NC329159  41.573   4.540   9.475
 2120POPC   PO429160  41.616   3.879   9.655
 2120POPC   GL129161  41.605   4.102   9.244
 2120POPC   GL229162  41.953   4.201   9.328
 2120POPC   C1A29163  41.519   4.316   8.819
 2120POPC   D2A29164  41.517   4.190   8.397
 2120POPC   C3A29165  41.407   4.413   8.024
 2120POPC   C4A29166  41.350   4.098   7.711
 2120POPC   C1B29167  42.009   4.470   8.960
 2120POPC   C2B29168  42.017   4.354   8.535
 2120POPC   C3B29169  41.910   4.403   8.115
 2120POPC   C4B29170  41.807   4.413   7.694
 2121POPC   NC329171   9.752  41.908   9.593
 2121POPC   PO429172   9.378  41.306   9.687
 2121POPC   GL129173   9.509  41.498   9.262
 2121POPC   GL229174   9.810  41.711   9.133
 2121POPC   C1A29175   9.457  41.470   8.802
 2121POPC   D2A29176   9.647  41.358   8.400
 2121POPC   C3A29177   9.581  41.719   8.149
 2121POPC   C4A29178   9.595  41.747   7.709
 2121POPC   C1B29179   9.989  41.540   8.759
 2121POPC   C2B29180  10.095  41.641   8.334
 2121POPC   C3B29181  10.004  41.526   7.915
 2121POPC   C4B29182  10.035  41.698   7.482
 2122POPC   NC329183  36.504  17.480   9.438
 2122POPC   PO429184  36.078  17.053   9.666
 2122POPC   GL129185  36.050  17.385   9.195
 2122POPC   GL229186  36.203  17.687   9.084
 2122POPC   C1A29187  36.109  17.341   8.697
 2122POPC   D2A29188  36.382  17.170   8.308
 2122POPC   C3A29189  36.255  17.189   7.844
 2122POPC   C4A29190  35.952  17.378   7.537
 2122POPC   C1B29191  36.155  17.862   8.664
 2122POPC   C2B29192  36.238  17.685   8.308
 2122POPC   C3B29193  36.024  17.613   7.978
 2122POPC   C4B29194  35.929  17.864   7.646
 2123POPC   NC329195  25.247  27.509   9.537
 2123POPC   PO429196  25.485  28.033   9.675
 2123POPC   GL129197  25.484  27.865   9.233
 2123POPC   GL229198  25.132  27.837   9.148
 2123POPC   C1A29199  25.458  27.662   8.796
 2123POPC   D2A29200  25.218  27.729   8.415
 2123POPC   C3A29201  25.339  27.770   7.959
 2123POPC   C4A29202  25.136  27.895   7.566
 2123POPC   C1B29203  24.985  27.485   8.867
 2123POPC   C2B29204  25.038  27.176   8.531
 2123POPC   C3B29205  25.113  27.317   8.124
 2123POPC   C4B29206  24.893  27.494   7.800
 2124POPC   NC329207   6.175  32.035   9.669
 2124POPC   PO429208   5.658  32.417   9.531
 2124POPC   GL129209   5.792  32.183   9.196
 2124POPC   GL229210   5.475  32.248   9.019
 2124POPC   C1A29211   5.920  32.263   8.758
 2124POPC   D2A29212   5.606  32.233   8.439
 2124POPC   C3A29213   5.696  32.471   8.081
 2124POPC   C4A29214   5.931  32.644   7.777
 2124POPC   C1B29215   5.604  31.858   8.809
 2124POPC   C2B29216   5.483  31.723   8.365
 2124POPC   C3B29217   5.497  31.993   7.969
 2124POPC   C4B29218   5.889  32.142   7.732
 2125POPC   NC329219   6.015  31.089   9.543
 2125POPC   PO429220   5.898  31.729   9.442
 2125POPC   GL129221   5.932  31.386   9.131
 2125POPC   GL229222   5.605  31.231   9.139
 2125POPC   C1A29223   6.113  31.322   8.712
 2125POPC   D2A29224   5.945  31.468   8.296
 2125POPC   C3A29225   6.103  31.215   7.928
 2125POPC   C4A29226   6.204  31.395   7.493
 2125POPC   C1B29227   5.613  31.352   8.711
 2125POPC   C2B29228   5.510  31.187   8.330
 2125POPC   C3B29229   5.616  31.285   7.921
 2125POPC   C4B29230   5.850  31.642   7.794
 2126POPC   NC329231  39.392   8.696   9.584
 2126POPC   PO429232  39.219   9.293   9.474
 2126POPC   GL129233  39.264   8.969   9.118
 2126POPC   GL229234  39.555   8.707   9.100
 2126POPC   C1A29235  39.312   9.053   8.659
 2126POPC   D2A29236  39.024   9.078   8.316
 2126POPC   C3A29237  39.146   9.026   7.917
 2126POPC   C4A29238  39.507   9.160   7.698
 2126POPC   C1B29239  39.676   8.694   8.646
 2126POPC   C2B29240  39.433   8.735   8.253
 2126POPC   C3B29241  39.456   8.630   7.809
 2126POPC   C4B29242  39.478   8.496   7.374
 2127POPC   NC329243  37.412  26.392   9.619
 2127POPC   PO429244  36.940  25.976   9.689
 2127POPC   GL129245  36.977  26.154   9.231
 2127POPC   GL229246  36.670  26.237   9.151
 2127POPC   C1A29247  36.898  26.101   8.711
 2127POPC   D2A29248  36.901  26.027   8.230
 2127POPC   C3A29249  37.129  26.214   7.890
 2127POPC   C4A29250  37.390  25.940   7.615
 2127POPC   C1B29251  36.463  25.869   8.916
 2127POPC   C2B29252  36.545  25.771   8.476
 2127POPC   C3B29253  36.431  25.855   8.045
 2127POPC   C4B29254  36.617  26.148   7.778
 2128POPC   NC329255   4.294   8.860   9.660
 2128POPC   PO429256   4.652   9.445   9.580
 2128POPC   GL129257   4.448   9.126   9.233
 2128POPC   GL229258   4.179   8.811   9.171
 2128POPC   C1A29259   4.575   8.888   8.845
 2128POPC   D2A29260   4.455   8.968   8.421
 2128POPC   C3A29261   4.641   8.882   8.027
 2128POPC   C4A29262   4.329   9.046   7.741
 2128POPC   C1B29263   4.057   8.758   8.734
 2128POPC   C2B29264   3.876   8.916   8.323
 2128POPC   C3B29265   3.868   9.154   7.922
 2128POPC   C4B29266   3.877   9.008   7.470
 2129POPC   NC329267  42.641  30.543   9.410
 2129POPC   PO429268  43.136  31.011   9.489
 2129POPC   GL129269  43.184  30.795   9.140
 2129POPC   GL229270  43.103  30.500   9.196
 2129POPC   C1A29271  43.126  30.940   8.777
 2129POPC   D2A29272  42.984  30.801   8.439
 2129POPC   C3A29273  43.173  30.966   8.062
 2129POPC   C4A29274  42.984  30.859   7.673
 2129POPC   C1B29275  42.964  30.391   8.798
 2129POPC   C2B29276  43.175  30.334   8.418
 2129POPC   C3B29277  43.008  30.455   8.048
 2129POPC   C4B29278  43.232  30.428   7.684
 2130POPC   NC329279  15.137  11.198   9.626
 2130POPC   PO429280  14.979  11.801   9.321
 2130POPC   GL129281  15.272  11.477   9.109
 2130POPC   GL229282  15.446  11.173   9.228
 2130POPC   C1A29283  15.344  11.466   8.673
 2130POPC   D2A29284  15.480  11.766   8.367
 2130POPC   C3A29285  15.333  11.670   7.966
 2130POPC   C4A29286  15.260  11.343   7.690
 2130POPC   C1B29287  15.661  11.119   8.850
 2130POPC   C2B29288  15.511  11.057   8.398
 2130POPC   C3B29289  15.491  10.928   7.943
 2130POPC   C4B29290  15.421  10.796   7.494
 2131POPC   NC329291  21.258  35.772   9.514
 2131POPC   PO429292  21.769  35.404   9.485
 2131POPC   GL129293  21.403  35.288   9.206
 2131POPC   GL229294  21.049  35.391   9.213
 2131POPC   C1A29295  21.353  35.154   8.772
 2131POPC   D2A29296  21.579  35.045   8.395
 2131POPC   C3A29297  21.566  35.328   8.095
 2131POPC   C4A29298  21.323  35.124   7.831
 2131POPC   C1B29299  21.106  35.618   8.820
 2131POPC   C2B29300  21.171  35.561   8.350
 2131POPC   C3B29301  21.200  35.657   7.882
 2131POPC   C4B29302  21.175  35.775   7.435
 2132POPC   NC329303  13.514   8.351   9.753
 2132POPC   PO429304  13.678   8.927   9.384
 2132POPC   GL129305  13.757   8.764   9.008
 2132POPC   GL229306  13.388   8.698   9.013
 2132POPC   C1A29307  13.896   9.005   8.673
 2132POPC   D2A29308  13.600   9.258   8.452
 2132POPC   C3A29309  13.617   9.075   8.078
 2132POPC   C4A29310  13.960   9.113   7.794
 2132POPC   C1B29311  13.327   8.533   8.605
 2132POPC   C2B29312  13.377   8.590   8.180
 2132POPC   C3B29313  13.202   8.820   7.843
 2132POPC   C4B29314  13.201   8.827   7.363
 2133POPC   NC329315   3.628  41.035   9.648
 2133POPC   PO429316   3.302  40.438   9.509
 2133POPC   GL129317   3.440  40.683   9.163
 2133POPC   GL229318   3.755  40.773   9.210
 2133POPC   C1A29319   3.468  40.891   8.766
 2133POPC   D2A29320   3.654  40.888   8.359
 2133POPC   C3A29321   3.400  40.961   7.983
 2133POPC   C4A29322   3.226  40.797   7.603
 2133POPC   C1B29323   3.986  40.877   8.818
 2133POPC   C2B29324   4.164  40.891   8.403
 2133POPC   C3B29325   3.987  41.061   8.008
 2133POPC   C4B29326   3.848  40.857   7.664
 2134POPC   NC329327  11.711  20.310   9.564
 2134POPC   PO429328  12.150  20.834   9.580
 2134POPC   GL129329  12.245  20.726   9.152
 2134POPC   GL229330  11.937  20.556   9.126
 2134POPC   C1A29331  12.192  20.899   8.744
 2134POPC   D2A29332  11.972  20.825   8.373
 2134POPC   C3A29333  12.196  20.911   7.951
 2134POPC   C4A29334  12.384  20.666   7.598
 2134POPC   C1B29335  11.793  20.489   8.702
 2134POPC   C2B29336  11.911  20.307   8.292
 2134POPC   C3B29337  11.942  20.460   7.860
 2134POPC   C4B29338  11.934  20.486   7.395
 2135POPC   NC329339  29.429  13.218   9.556
 2135POPC   PO429340  28.779  13.118   9.334
 2135POPC   GL129341  29.174  13.022   9.157
 2135POPC   GL229342  29.372  12.726   9.177
 2135POPC   C1A29343  29.296  13.035   8.763
 2135POPC   D2A29344  28.990  12.981   8.524
 2135POPC   C3A29345  29.072  13.250   8.226
 2135POPC   C4A29346  28.977  13.086   7.859
 2135POPC   C1B29347  29.453  12.569   8.755
 2135POPC   C2B29348  29.443  12.724   8.300
 2135POPC   C3B29349  29.326  12.702   7.835
 2135POPC   C4B29350  29.383  12.631   7.374
 2136POPC   NC329351  20.683  24.904   9.529
 2136POPC   PO429352  20.640  25.612   9.425
 2136POPC   GL129353  20.540  25.482   9.036
 2136POPC   GL229354  20.648  25.161   9.077
 2136POPC   C1A29355  20.643  25.449   8.602
 2136POPC   D2A29356  20.789  25.457   8.199
 2136POPC   C3A29357  20.549  25.565   7.886
 2136POPC   C4A29358  20.259  25.242   7.784
 2136POPC   C1B29359  20.511  24.932   8.708
 2136POPC   C2B29360  20.377  24.663   8.387
 2136POPC   C3B29361  20.402  24.771   7.959
 2136POPC   C4B29362  20.718  24.967   7.700
 2137POPC   NC329363  38.932   4.691   9.534
 2137POPC   PO429364  39.109   4.102   9.402
 2137POPC   GL129365  39.300   4.420   9.121
 2137POPC   GL229366  39.669   4.541   9.142
 2137POPC   C1A29367  39.192   4.277   8.727
 2137POPC   D2A29368  38.929   4.268   8.404
 2137POPC   C3A29369  39.151   4.028   8.162
 2137POPC   C4A29370  39.246   4.257   7.846
 2137POPC   C1B29371  39.575   4.605   8.706
 2137POPC   C2B29372  39.466   4.445   8.302
 2137POPC   C3B29373  39.487   4.682   7.936
 2137POPC   C4B29374  39.625   4.448   7.595
 2138POPC   NC329375  44.033  37.804   9.622
 2138POPC   PO429376  43.421  37.432   9.612
 2138POPC   GL129377  43.611  37.627   9.212
 2138POPC   GL229378  43.808  37.947   9.184
 2138POPC   C1A29379  43.767  37.675   8.754
 2138POPC   D2A29380  43.849  37.524   8.364
 2138POPC   C3A29381  44.106  37.569   8.010
 2138POPC   C4A29382  43.916  37.537   7.599
 2138POPC   C1B29383  44.043  38.090   8.796
 2138POPC   C2B29384  43.791  38.104   8.424
 2138POPC   C3B29385  43.764  37.940   8.033
 2138POPC   C4B29386  44.083  37.998   7.723
 2139POPC   NC329387   9.431  34.868   9.779
 2139POPC   PO429388   9.908  35.292   9.578
 2139POPC   GL129389   9.981  35.415   9.176
 2139POPC   GL229390   9.782  35.169   9.017
 2139POPC   C1A29391   9.795  35.622   8.795
 2139POPC   D2A29392   9.487  35.397   8.551
 2139POPC   C3A29393   9.466  35.462   8.098
 2139POPC   C4A29394   9.708  35.406   7.731
 2139POPC   C1B29395   9.869  35.047   8.612
 2139POPC   C2B29396   9.853  35.109   8.169
 2139POPC   C3B29397  10.126  35.134   7.809
 2139POPC   C4B29398   9.999  35.161   7.343
 2140POPC   NC329399  18.602  13.222   9.514
 2140POPC   PO429400  18.001  13.066   9.459
 2140POPC   GL129401  18.043  13.056   9.065
 2140POPC   GL229402  18.403  12.978   9.091
 2140POPC   C1A29403  17.877  12.895   8.712
 2140POPC   D2A29404  17.845  12.898   8.299
 2140POPC   C3A29405  18.079  12.659   8.029
 2140POPC   C4A29406  18.320  12.911   7.744
 2140POPC   C1B29407  18.382  12.842   8.661
 2140POPC   C2B29408  18.363  13.061   8.272
 2140POPC   C3B29409  18.705  13.145   7.979
 2140POPC   C4B29410  18.760  13.044   7.524
 2141POPC   NC329411  12.970  38.573   9.532
 2141POPC   PO429412  13.157  37.990   9.526
 2141POPC   GL129413  12.919  38.238   9.172
 2141POPC   GL229414  12.631  38.494   9.118
 2141POPC   C1A29415  13.028  38.451   8.795
 2141POPC   D2A29416  13.140  38.307   8.407
 2141POPC   C3A29417  12.858  38.324   8.071
 2141POPC   C4A29418  12.986  38.577   7.762
 2141POPC   C1B29419  12.594  38.766   8.754
 2141POPC   C2B29420  12.820  38.746   8.365
 2141POPC   C3B29421  12.712  38.908   8.006
 2141POPC   C4B29422  12.459  38.598   7.793
 2142POPC   NC329423   9.381  21.452   9.475
 2142POPC   PO429424   8.838  21.045   9.481
 2142POPC   GL129425   9.036  21.185   9.143
 2142POPC   GL229426   9.394  21.055   9.162
 2142POPC   C1A29427   8.856  21.312   8.733
 2142POPC   D2A29428   8.588  21.129   8.385
 2142POPC   C3A29429   8.657  21.092   7.975
 2142POPC   C4A29430   8.634  21.476   7.753
 2142POPC   C1B29431   9.382  21.397   8.823
 2142POPC   C2B29432   9.183  21.618   8.487
 2142POPC   C3B29433   8.916  21.532   8.174
 2142POPC   C4B29434   9.102  21.306   7.856
 2143POPC   NC329435   0.008  21.219   9.328
 2143POPC   PO429436  44.518  21.657   9.441
 2143POPC   GL129437  44.845  21.700   9.131
 2143POPC   GL229438  44.586  21.618   8.898
 2143POPC   C1A29439   0.096  21.624   8.754
 2143POPC   D2A29440  44.841  21.445   8.433
 2143POPC   C3A29441  44.912  21.466   8.007
 2143POPC   C4A29442  44.550  21.615   7.761
 2143POPC   C1B29443  44.481  21.211   8.720
 2143POPC   C2B29444  44.590  21.002   8.326
 2143POPC   C3B29445  44.554  21.115   7.899
 2143POPC   C4B29446  44.755  21.173   7.540
 2144POPC   NC329447  13.391  20.240   9.368
 2144POPC   PO429448  13.375  19.561   9.606
 2144POPC   GL129449  13.488  19.685   9.216
 2144POPC   GL229450  13.841  19.661   9.242
 2144POPC   C1A29451  13.409  19.722   8.769
 2144POPC   D2A29452  13.209  19.744   8.337
 2144POPC   C3A29453  13.477  19.948   8.010
 2144POPC   C4A29454  13.487  19.863   7.528
 2144POPC   C1B29455  13.853  19.954   8.912
 2144POPC   C2B29456  13.707  20.087   8.500
 2144POPC   C3B29457  13.946  20.140   8.135
 2144POPC   C4B29458  13.928  19.979   7.731
 2145POPC   NC329459   3.695  34.555   9.537
 2145POPC   PO429460   4.027  34.858   8.999
 2145POPC   GL129461   3.641  34.712   9.064
 2145POPC   GL229462   3.468  34.987   9.256
 2145POPC   C1A29463   3.599  34.389   8.778
 2145POPC   D2A29464   3.673  34.536   8.354
 2145POPC   C3A29465   3.523  34.459   7.947
 2145POPC   C4A29466   3.819  34.447   7.648
 2145POPC   C1B29467   3.170  34.883   8.967
 2145POPC   C2B29468   3.227  34.701   8.572
 2145POPC   C3B29469   3.275  34.838   8.169
 2145POPC   C4B29470   3.060  34.774   7.828
 2146POPC   NC329471  10.789  11.403   9.467
 2146POPC   PO429472  10.283  10.888   9.542
 2146POPC   GL129473  10.476  11.075   9.178
 2146POPC   GL229474  10.382  11.444   9.127
 2146POPC   C1A29475  10.548  11.135   8.720
 2146POPC   D2A29476  10.455  11.227   8.270
 2146POPC   C3A29477  10.592  10.920   7.959
 2146POPC   C4A29478  10.485  10.852   7.527
 2146POPC   C1B29479  10.303  11.584   8.678
 2146POPC   C2B29480  10.489  11.751   8.286
 2146POPC   C3B29481  10.492  11.617   7.869
 2146POPC   C4B29482  10.259  11.280   7.775
 2147POPC   NC329483  37.378  43.124   9.481
 2147POPC   PO429484  37.993  43.388   9.570
 2147POPC   GL129485  37.802  43.297   9.200
 2147POPC   GL229486  37.491  43.501   9.177
 2147POPC   C1A29487  37.740  42.932   8.924
 2147POPC   D2A29488  37.671  42.752   8.520
 2147POPC   C3A29489  37.874  42.945   8.161
 2147POPC   C4A29490  37.790  42.759   7.768
 2147POPC   C1B29491  37.554  43.382   8.767
 2147POPC   C2B29492  37.501  43.230   8.413
 2147POPC   C3B29493  37.592  43.385   8.036
 2147POPC   C4B29494  37.682  43.257   7.634
 2148POPC   NC329495  21.908  24.510   9.534
 2148POPC   PO429496  22.596  24.354   9.676
 2148POPC   GL129497  22.489  24.447   9.210
 2148POPC   GL229498  22.163  24.635   9.123
 2148POPC   C1A29499  22.342  24.399   8.746
 2148POPC   D2A29500  22.254  24.668   8.405
 2148POPC   C3A29501  22.232  24.388   8.077
 2148POPC   C4A29502  22.552  24.238   7.845
 2148POPC   C1B29503  21.852  24.759   8.814
 2148POPC   C2B29504  21.814  24.951   8.388
 2148POPC   C3B29505  21.956  24.813   7.985
 2148POPC   C4B29506  22.345  24.727   7.707
 2149POPC   NC329507   0.148   0.835   9.455
 2149POPC   PO429508   0.684   1.144   9.738
 2149POPC   GL129509   0.642   1.027   9.318
 2149POPC   GL229510   0.794   1.300   9.187
 2149POPC   C1A29511   0.557   0.970   8.863
 2149POPC   D2A29512   0.502   1.176   8.482
 2149POPC   C3A29513   0.437   0.932   8.130
 2149POPC   C4A29514   0.145   0.991   7.798
 2149POPC   C1B29515   0.810   1.463   8.785
 2149POPC   C2B29516   0.898   1.501   8.338
 2149POPC   C3B29517   0.566   1.441   8.048
 2149POPC   C4B29518   0.535   1.284   7.654
 2150POPC   NC329519  11.183   0.156   9.896
 2150POPC   PO429520  11.345   0.664   9.536
 2150POPC   GL129521  11.226   0.470   9.176
 2150POPC   GL229522  11.549   0.345   9.139
 2150POPC   C1A29523  11.123   0.424   8.755
 2150POPC   D2A29524  11.087   0.208   8.362
 2150POPC   C3A29525  10.943   0.506   8.036
 2150POPC   C4A29526  11.010   0.500   7.589
 2150POPC   C1B29527  11.456   0.060   8.796
 2150POPC   C2B29528  11.496  44.846   8.404
 2150POPC   C3B29529  11.458   0.045   7.991
 2150POPC   C4B29530  11.696   0.405   7.813
 2151POPC   NC329531  16.132  20.523   9.555
 2151POPC   PO429532  15.528  20.268   9.412
 2151POPC   GL129533  15.785  20.491   9.124
 2151POPC   GL229534  15.895  20.777   9.191
 2151POPC   C1A29535  15.860  20.644   8.701
 2151POPC   D2A29536  15.935  20.438   8.322
 2151POPC   C3A29537  15.775  20.701   7.999
 2151POPC   C4A29538  15.749  20.641   7.583
 2151POPC   C1B29539  16.268  20.840   8.883
 2151POPC   C2B29540  16.283  20.816   8.444
 2151POPC   C3B29541  16.293  20.677   8.032
 2151POPC   C4B29542  16.211  20.841   7.647
 2152POPC   NC329543   7.534   5.293   9.531
 2152POPC   PO429544   6.989   4.948   9.421
 2152POPC   GL129545   7.293   5.151   9.101
 2152POPC   GL229546   7.696   5.070   9.109
 2152POPC   C1A29547   7.374   5.501   8.801
 2152POPC   D2A29548   7.498   5.656   8.368
 2152POPC   C3A29549   7.640   5.354   8.043
 2152POPC   C4A29550   7.415   5.258   7.662
 2152POPC   C1B29551   7.612   5.063   8.669
 2152POPC   C2B29552   7.610   4.848   8.282
 2152POPC   C3B29553   7.320   4.906   7.992
 2152POPC   C4B29554   7.243   4.750   7.578
 2153POPC   NC329555  35.184  39.264   9.672
 2153POPC   PO429556  34.516  39.230   9.388
 2153POPC   GL129557  34.544  39.128   8.986
 2153POPC   GL229558  34.349  39.382   8.857
 2153POPC   C1A29559  34.788  39.125   8.605
 2153POPC   D2A29560  34.938  39.164   8.183
 2153POPC   C3A29561  34.751  39.459   7.915
 2153POPC   C4A29562  34.681  39.293   7.538
 2153POPC   C1B29563  34.276  39.072   8.567
 2153POPC   C2B29564  34.414  39.206   8.225
 2153POPC   C3B29565  34.481  38.999   7.891
 2153POPC   C4B29566  34.457  38.856   7.460
 2154POPC   NC329567  10.525  27.861   9.627
 2154POPC   PO429568  10.285  27.261   9.429
 2154POPC   GL129569  10.306  27.626   9.197
 2154POPC   GL229570  10.648  27.591   9.219
 2154POPC   C1A29571  10.455  27.694   8.773
 2154POPC   D2A29572  10.269  27.680   8.404
 2154POPC   C3A29573  10.392  27.466   8.094
 2154POPC   C4A29574  10.240  27.460   7.706
 2154POPC   C1B29575  10.780  27.307   8.885
 2154POPC   C2B29576  10.768  27.389   8.440
 2154POPC   C3B29577  10.952  27.293   8.032
 2154POPC   C4B29578  10.748  27.569   7.771
 2155POPC   NC329579   7.221  33.778   9.463
 2155POPC   PO429580   7.574  34.393   9.447
 2155POPC   GL129581   7.604  33.953   9.146
 2155POPC   GL229582   7.290  33.745   8.980
 2155POPC   C1A29583   7.715  33.658   8.768
 2155POPC   D2A29584   7.459  33.621   8.330
 2155POPC   C3A29585   7.701  33.637   7.940
 2155POPC   C4A29586   7.804  33.639   7.479
 2155POPC   C1B29587   7.015  33.755   8.634
 2155POPC   C2B29588   6.970  34.047   8.295
 2155POPC   C3B29589   7.213  34.125   7.930
 2155POPC   C4B29590   7.368  33.852   7.577
 2156POPC   NC329591   2.967  11.542   9.665
 2156POPC   PO429592   2.936  12.231   9.813
 2156POPC   GL129593   2.757  12.171   9.270
 2156POPC   GL229594   2.790  11.801   9.239
 2156POPC   C1A29595   2.871  12.382   8.812
 2156POPC   D2A29596   2.737  12.504   8.357
 2156POPC   C3A29597   2.905  12.331   7.939
 2156POPC   C4A29598   3.043  12.157   7.517
 2156POPC   C1B29599   2.953  11.887   8.816
 2156POPC   C2B29600   3.110  11.752   8.428
 2156POPC   C3B29601   3.075  11.850   7.993
 2156POPC   C4B29602   2.702  11.847   7.702
 2157POPC   NC329603  20.936  12.670   9.612
 2157POPC   PO429604  20.717  13.278   9.458
 2157POPC   GL129605  20.497  13.054   9.144
 2157POPC   GL229606  20.733  12.786   9.169
 2157POPC   C1A29607  20.426  12.776   8.762
 2157POPC   D2A29608  20.514  12.555   8.380
 2157POPC   C3A29609  20.525  12.792   7.999
 2157POPC   C4A29610  20.393  12.856   7.565
 2157POPC   C1B29611  20.948  13.009   8.877
 2157POPC   C2B29612  20.850  12.916   8.496
 2157POPC   C3B29613  21.001  12.718   8.169
 2157POPC   C4B29614  20.977  12.929   7.795
 2158POPC   NC329615  34.272  39.661   9.566
 2158POPC   PO429616  34.998  39.721   9.557
 2158POPC   GL129617  34.819  39.968   9.211
 2158POPC   GL229618  34.538  39.775   9.143
 2158POPC   C1A29619  34.758  40.294   8.860
 2158POPC   D2A29620  34.831  40.498   8.460
 2158POPC   C3A29621  34.651  40.239   8.135
 2158POPC   C4A29622  34.562  39.952   7.803
 2158POPC   C1B29623  34.363  39.930   8.748
 2158POPC   C2B29624  34.410  39.746   8.318
 2158POPC   C3B29625  34.218  39.604   7.938
 2158POPC   C4B29626  34.296  39.659   7.463
 2159POPC   NC329627  13.199  10.897   9.418
 2159POPC   PO429628  12.827  10.356   9.614
 2159POPC   GL129629  12.790  10.285   9.215
 2159POPC   GL229630  12.831  10.623   9.148
 2159POPC   C1A29631  12.862  10.227   8.782
 2159POPC   D2A29632  12.685  10.338   8.390
 2159POPC   C3A29633  12.960  10.306   8.008
 2159POPC   C4A29634  12.870  10.355   7.572
 2159POPC   C1B29635  12.447  10.509   8.914
 2159POPC   C2B29636  12.245  10.673   8.561
 2159POPC   C3B29637  12.438  10.739   8.175
 2159POPC   C4B29638  12.474  10.413   7.900
 2160POPC   NC329639   9.038   9.124   9.532
 2160POPC   PO429640   8.925   8.490   9.558
 2160POPC   GL129641   8.821   8.772   9.228
 2160POPC   GL229642   9.188   8.803   9.152
 2160POPC   C1A29643   8.786   9.071   8.890
 2160POPC   D2A29644   8.847   8.987   8.429
 2160POPC   C3A29645   8.840   9.203   8.027
 2160POPC   C4A29646   8.728   9.125   7.597
 2160POPC   C1B29647   9.271   8.995   8.761
 2160POPC   C2B29648   9.377   8.854   8.370
 2160POPC   C3B29649   9.479   9.116   8.057
 2160POPC   C4B29650   9.267   9.171   7.692
 2161POPC   NC329651  10.418  25.464   9.456
 2161POPC   PO429652  11.060  25.567   9.428
 2161POPC   GL129653  10.793  25.308   9.147
 2161POPC   GL229654  10.598  25.521   8.976
 2161POPC   C1A29655  10.587  25.071   8.774
 2161POPC   D2A29656  10.471  25.286   8.407
 2161POPC   C3A29657  10.578  25.148   8.001
 2161POPC   C4A29658  10.380  24.862   7.775
 2161POPC   C1B29659  10.179  25.417   8.810
 2161POPC   C2B29660  10.009  25.549   8.407
 2161POPC   C3B29661  10.320  25.609   8.052
 2161POPC   C4B29662  10.271  25.365   7.654
 2162POPC   NC329663   2.355  23.333   9.305
 2162POPC   PO429664   2.875  23.036   9.663
 2162POPC   GL129665   3.002  22.856   9.248
 2162POPC   GL229666   2.692  22.974   9.156
 2162POPC   C1A29667   2.969  22.754   8.773
 2162POPC   D2A29668   3.027  23.069   8.402
 2162POPC   C3A29669   2.903  22.943   7.985
 2162POPC   C4A29670   2.887  22.510   7.905
 2162POPC   C1B29671   2.678  23.175   8.776
 2162POPC   C2B29672   2.467  23.132   8.422
 2162POPC   C3B29673   2.478  23.262   8.037
 2162POPC   C4B29674   2.637  23.272   7.635
 2163POPC   NC329675  20.609  23.902   9.764
 2163POPC   PO429676  20.105  23.459   9.560
 2163POPC   GL129677  20.427  23.639   9.240
 2163POPC   GL229678  20.564  23.990   9.168
 2163POPC   C1A29679  20.585  23.581   8.822
 2163POPC   D2A29680  20.663  23.763   8.424
 2163POPC   C3A29681  20.533  23.572   8.057
 2163POPC   C4A29682  20.668  23.364   7.686
 2163POPC   C1B29683  20.900  24.025   8.804
 2163POPC   C2B29684  21.114  23.981   8.400
 2163POPC   C3B29685  20.882  24.014   8.023
 2163POPC   C4B29686  20.649  23.920   7.677
 2164POPC   NC329687   7.726  38.939   9.585
 2164POPC   PO429688   7.274  38.351   9.468
 2164POPC   GL129689   7.246  38.487   9.090
 2164POPC   GL229690   7.409  38.775   9.173
 2164POPC   C1A29691   7.199  38.515   8.661
 2164POPC   D2A29692   7.175  38.785   8.337
 2164POPC   C3A29693   7.182  38.576   7.955
 2164POPC   C4A29694   7.343  38.691   7.563
 2164POPC   C1B29695   7.702  38.812   8.869
 2164POPC   C2B29696   7.689  38.706   8.462
 2164POPC   C3B29697   7.827  38.788   8.069
 2164POPC   C4B29698   7.769  38.945   7.682
 2165POPC   NC329699  26.404  11.609   9.554
 2165POPC   PO429700  26.690  12.263   9.553
 2165POPC   GL129701  26.727  12.052   9.186
 2165POPC   GL229702  26.441  12.219   9.105
 2165POPC   C1A29703  26.705  11.960   8.737
 2165POPC   D2A29704  26.582  11.829   8.336
 2165POPC   C3A29705  26.779  12.078   8.040
 2165POPC   C4A29706  26.950  12.080   7.616
 2165POPC   C1B29707  26.599  12.451   8.783
 2165POPC   C2B29708  26.759  12.484   8.381
 2165POPC   C3B29709  26.547  12.546   8.008
 2165POPC   C4B29710  26.560  12.416   7.641
 2166POPC   NC329711   0.589  21.946   9.456
 2166POPC   PO429712   0.078  22.387   9.580
 2166POPC   GL129713   0.235  22.202   9.196
 2166POPC   GL229714   0.575  22.359   9.168
 2166POPC   C1A29715   0.304  22.166   8.754
 2166POPC   D2A29716   0.148  21.972   8.378
 2166POPC   C3A29717   0.217  22.124   7.953
 2166POPC   C4A29718   0.012  21.834   7.655
 2166POPC   C1B29719   0.815  22.288   8.791
 2166POPC   C2B29720   0.675  22.124   8.402
 2166POPC   C3B29721   0.821  21.897   8.115
 2166POPC   C4B29722   0.715  22.021   7.765
 2167POPC   NC329723  19.878  31.594   9.605
 2167POPC   PO429724  19.228  31.402   9.753
 2167POPC   GL129725  19.553  31.310   9.305
 2167POPC   GL229726  19.624  31.604   9.123
 2167POPC   C1A29727  19.812  31.196   8.865
 2167POPC   D2A29728  20.086  31.264   8.489
 2167POPC   C3A29729  19.946  31.410   8.077
 2167POPC   C4A29730  19.937  31.208   7.680
 2167POPC   C1B29731  19.822  31.678   8.689
 2167POPC   C2B29732  20.018  31.883   8.316
 2167POPC   C3B29733  19.991  31.886   7.857
 2167POPC   C4B29734  19.687  31.652   7.638
 2168POPC   NC329735  26.439  41.147  10.104
 2168POPC   PO429736  26.274  41.522   9.553
 2168POPC   GL129737  26.235  41.668   9.158
 2168POPC   GL229738  26.191  41.295   9.069
 2168POPC   C1A29739  26.102  41.645   8.723
 2168POPC   D2A29740  26.203  41.311   8.482
 2168POPC   C3A29741  26.294  41.538   8.133
 2168POPC   C4A29742  26.135  41.797   7.814
 2168POPC   C1B29743  25.792  41.251   8.819
 2168POPC   C2B29744  25.604  41.381   8.452
 2168POPC   C3B29745  25.782  41.442   8.072
 2168POPC   C4B29746  26.033  41.311   7.744
 2169POPC   NC329747  13.629  36.983   9.659
 2169POPC   PO429748  14.156  36.617   9.397
 2169POPC   GL129749  13.840  36.899   9.192
 2169POPC   GL229750  13.479  36.811   9.203
 2169POPC   C1A29751  13.687  37.114   8.835
 2169POPC   D2A29752  13.685  37.072   8.399
 2169POPC   C3A29753  13.730  37.266   7.999
 2169POPC   C4A29754  13.614  37.076   7.663
 2169POPC   C1B29755  13.619  36.626   8.788
 2169POPC   C2B29756  13.556  36.560   8.356
 2169POPC   C3B29757  13.642  36.633   7.914
 2169POPC   C4B29758  13.408  36.648   7.501
 2170POPC   NC329759  43.084  16.514   9.507
 2170POPC   PO429760  43.639  16.854   9.624
 2170POPC   GL129761  43.376  16.786   9.188
 2170POPC   GL229762  43.026  16.829   9.074
 2170POPC   C1A29763  43.369  16.982   8.737
 2170POPC   D2A29764  42.976  17.033   8.504
 2170POPC   C3A29765  42.988  17.049   8.053
 2170POPC   C4A29766  43.248  16.785   7.770
 2170POPC   C1B29767  43.113  16.546   8.664
 2170POPC   C2B29768  43.047  16.569   8.220
 2170POPC   C3B29769  42.784  16.615   7.833
 2170POPC   C4B29770  42.964  16.448   7.443
 2171POPC   NC329771  22.656  14.294   9.427
 2171POPC   PO429772  23.319  14.471   9.519
 2171POPC   GL129773  23.045  14.466   9.136
 2171POPC   GL229774  23.017  14.096   9.035
 2171POPC   C1A29775  22.940  14.532   8.696
 2171POPC   D2A29776  23.179  14.272   8.370
 2171POPC   C3A29777  23.086  14.430   7.956
 2171POPC   C4A29778  22.871  14.693   7.658
 2171POPC   C1B29779  22.775  14.058   8.644
 2171POPC   C2B29780  22.659  14.224   8.281
 2171POPC   C3B29781  22.621  14.083   7.891
 2171POPC   C4B29782  22.827  14.150   7.563
 2172POPC   NC329783  11.041  30.556   9.655
 2172POPC   PO429784  11.699  30.892   9.621
 2172POPC   GL129785  11.347  30.803   9.321
 2172POPC   GL229786  10.966  30.951   9.318
 2172POPC   C1A29787  11.237  30.501   8.977
 2172POPC   D2A29788  11.038  30.618   8.568
 2172POPC   C3A29789  11.114  30.465   8.153
 2172POPC   C4A29790  11.250  30.580   7.746
 2172POPC   C1B29791  11.149  31.001   8.906
 2172POPC   C2B29792  11.306  31.071   8.486
 2172POPC   C3B29793  11.286  30.970   8.087
 2172POPC   C4B29794  11.347  31.127   7.713
 2173POPC   NC329795  23.087   5.471   9.592
 2173POPC   PO429796  22.762   4.915   9.634
 2173POPC   GL129797  22.728   5.166   9.287
 2173POPC   GL229798  23.065   5.105   9.224
 2173POPC   C1A29799  22.664   5.018   8.864
 2173POPC   D2A29800  22.892   5.068   8.489
 2173POPC   C3A29801  22.664   4.963   8.120
 2173POPC   C4A29802  22.754   5.056   7.733
 2173POPC   C1B29803  23.295   5.129   8.862
 2173POPC   C2B29804  23.391   5.153   8.439
 2173POPC   C3B29805  23.155   5.351   8.097
 2173POPC   C4B29806  23.234   5.251   7.669
 2174POPC   NC329807  14.330  32.053   9.549
 2174POPC   PO429808  14.910  32.452   9.648
 2174POPC   GL129809  14.715  32.411   9.258
 2174POPC   GL229810  14.749  32.069   9.232
 2174POPC   C1A29811  14.387  32.465   8.924
 2174POPC   D2A29812  14.336  32.315   8.507
 2174POPC   C3A29813  14.159  32.273   8.120
 2174POPC   C4A29814  14.194  32.026   7.749
 2174POPC   C1B29815  14.563  31.981   8.857
 2174POPC   C2B29816  14.740  32.008   8.470
 2174POPC   C3B29817  14.594  31.983   8.076
 2174POPC   C4B29818  14.737  32.098   7.702
 2175POPC   NC329819  24.585  29.042   9.576
 2175POPC   PO429820  24.254  29.507   9.041
 2175POPC   GL129821  24.480  29.125   9.087
 2175POPC   GL229822  24.815  28.978   9.125
 2175POPC   C1A29823  24.351  28.845   8.808
 2175POPC   D2A29824  24.177  28.915   8.386
 2175POPC   C3A29825  24.447  28.866   8.011
 2175POPC   C4A29826  24.224  28.819   7.612
 2175POPC   C1B29827  24.800  29.095   8.688
 2175POPC   C2B29828  24.728  29.457   8.431
 2175POPC   C3B29829  24.853  29.487   8.002
 2175POPC   C4B29830  24.710  29.179   7.729
 2176POPC   NC329831   9.856  36.328   9.505
 2176POPC   PO429832   9.393  35.920   9.331
 2176POPC   GL129833   9.614  36.194   9.066
 2176POPC   GL229834   9.670  36.546   9.055
 2176POPC   C1A29835   9.711  36.186   8.650
 2176POPC   D2A29836   9.510  35.905   8.380
 2176POPC   C3A29837   9.725  35.893   7.983
 2176POPC   C4A29838   9.477  35.920   7.613
 2176POPC   C1B29839  10.107  36.438   8.892
 2176POPC   C2B29840  10.216  36.274   8.478
 2176POPC   C3B29841  10.012  36.377   8.087
 2176POPC   C4B29842  10.072  36.157   7.691
 2177POPC   NC329843  42.654  28.353   9.674
 2177POPC   PO429844  42.280  27.945   9.325
 2177POPC   GL129845  42.523  28.203   9.103
 2177POPC   GL229846  42.680  28.530   9.162
 2177POPC   C1A29847  42.502  28.212   8.663
 2177POPC   D2A29848  42.551  28.568   8.366
 2177POPC   C3A29849  42.591  28.331   7.975
 2177POPC   C4A29850  42.229  28.166   7.758
 2177POPC   C1B29851  42.315  28.632   8.841
 2177POPC   C2B29852  42.055  28.773   8.486
 2177POPC   C3B29853  42.110  28.588   8.085
 2177POPC   C4B29854  42.343  28.686   7.705
 2178POPC   NC329855  14.892   9.752   9.484
 2178POPC   PO429856  14.326   9.500   9.653
 2178POPC   GL129857  14.396   9.786   9.269
 2178POPC   GL229858  14.687   9.621   9.043
 2178POPC   C1A29859  14.319   9.865   8.799
 2178POPC   D2A29860  14.674   9.741   8.496
 2178POPC   C3A29861  14.556   9.543   8.081
 2178POPC   C4A29862  14.261   9.572   7.709
 2178POPC   C1B29863  14.774  10.084   8.910
 2178POPC   C2B29864  14.817  10.283   8.491
 2178POPC   C3B29865  14.630  10.092   8.114
 2178POPC   C4B29866  14.854   9.874   7.805
 2179POPC   NC329867  29.908   7.309   9.904
 2179POPC   PO429868  30.185   7.095   9.347
 2179POPC   GL129869  29.899   7.264   9.051
 2179POPC   GL229870  29.708   7.553   8.923
 2179POPC   C1A29871  29.805   7.116   8.659
 2179POPC   D2A29872  29.552   7.127   8.304
 2179POPC   C3A29873  29.663   7.489   8.063
 2179POPC   C4A29874  29.783   7.458   7.631
 2179POPC   C1B29875  30.125   7.655   8.743
 2179POPC   C2B29876  30.200   7.907   8.387
 2179POPC   C3B29877  30.132   7.777   7.941
 2179POPC   C4B29878  30.084   7.805   7.457
 2180POPC   NC329879  18.653  26.404   9.545
 2180POPC   PO429880  18.309  27.032   9.528
 2180POPC   GL129881  18.301  26.978   9.076
 2180POPC   GL229882  18.197  26.636   8.968
 2180POPC   C1A29883  18.342  26.988   8.613
 2180POPC   D2A29884  17.995  26.912   8.339
 2180POPC   C3A29885  18.169  26.790   7.960
 2180POPC   C4A29886  18.222  26.868   7.535
 2180POPC   C1B29887  18.633  26.621   8.858
 2180POPC   C2B29888  18.775  26.662   8.413
 2180POPC   C3B29889  18.692  26.717   7.946
 2180POPC   C4B29890  18.443  26.446   7.644
 2181POPC   NC329891   1.492  20.431   9.575
 2181POPC   PO429892   2.098  20.708   9.605
 2181POPC   GL129893   1.926  20.723   9.190
 2181POPC   GL229894   1.748  21.038   9.134
 2181POPC   C1A29895   1.818  20.620   8.742
 2181POPC   D2A29896   1.748  20.741   8.282
 2181POPC   C3A29897   1.627  20.426   7.944
 2181POPC   C4A29898   1.775  20.149   7.586
 2181POPC   C1B29899   2.090  21.036   8.802
 2181POPC   C2B29900   2.225  20.902   8.381
 2181POPC   C3B29901   2.212  20.790   7.922
 2181POPC   C4B29902   2.120  20.920   7.489
 2182POPC   NC329903  20.362  14.164   9.533
 2182POPC   PO429904  20.898  14.537   9.298
 2182POPC   GL129905  20.623  14.356   9.114
 2182POPC   GL229906  20.339  14.550   9.160
 2182POPC   C1A29907  20.559  14.492   8.688
 2182POPC   D2A29908  20.695  14.267   8.357
 2182POPC   C3A29909  20.607  14.476   8.039
 2182POPC   C4A29910  20.726  14.212   7.757
 2182POPC   C1B29911  20.213  14.180   8.890
 2182POPC   C2B29912  20.159  14.211   8.446
 2182POPC   C3B29913  20.257  14.115   8.019
 2182POPC   C4B29914  20.265  14.203   7.556
 2183POPC   NC329915  43.435  21.019   9.312
 2183POPC   PO429916  43.877  20.494   9.579
 2183POPC   GL129917  43.728  20.618   9.164
 2183POPC   GL229918  43.925  20.936   9.199
 2183POPC   C1A29919  43.558  20.746   8.722
 2183POPC   D2A29920  43.664  20.794   8.267
 2183POPC   C3A29921  43.866  20.444   8.004
 2183POPC   C4A29922  43.733  20.365   7.555
 2183POPC   C1B29923  44.093  20.814   8.803
 2183POPC   C2B29924  44.092  21.025   8.435
 2183POPC   C3B29925  44.118  20.911   8.022
 2183POPC   C4B29926  43.955  20.808   7.638
 2184POPC   NC329927  26.994   0.024   9.455
 2184POPC   PO429928  27.286  44.407   9.462
 2184POPC   GL129929  26.850  44.481   9.244
 2184POPC   GL229930  26.612  44.787   9.192
 2184POPC   C1A29931  26.643  44.433   8.837
 2184POPC   D2A29932  26.891  44.449   8.494
 2184POPC   C3A29933  26.719  44.597   8.144
 2184POPC   C4A29934  26.857  44.486   7.750
 2184POPC   C1B29935  26.674  44.931   8.752
 2184POPC   C2B29936  27.020  44.944   8.439
 2184POPC   C3B29937  27.143  44.893   8.021
 2184POPC   C4B29938  26.764  44.996   7.806
 2185POPC   NC329939  30.145   8.816   9.461
 2185POPC   PO429940  29.559   9.155   9.538
 2185POPC   GL129941  29.808   9.067   9.197
 2185POPC   GL229942  29.723   8.727   9.178
 2185POPC   C1A29943  30.074   8.936   8.824
 2185POPC   D2A29944  30.243   8.962   8.408
 2185POPC   C3A29945  29.973   8.834   8.073
 2185POPC   C4A29946  29.801   9.075   7.672
 2185POPC   C1B29947  29.747   8.558   8.802
 2185POPC   C2B29948  29.608   8.649   8.400
 2185POPC   C3B29949  29.561   8.474   8.007
 2185POPC   C4B29950  29.825   8.572   7.669
 2186POPC   NC329951   8.590   5.619   9.464
 2186POPC   PO429952   7.876   5.585   9.399
 2186POPC   GL129953   8.219   5.717   9.134
 2186POPC   GL229954   8.443   6.038   9.187
 2186POPC   C1A29955   8.153   5.844   8.740
 2186POPC   D2A29956   7.969   5.863   8.343
 2186POPC   C3A29957   8.057   5.730   7.914
 2186POPC   C4A29958   7.885   5.915   7.530
 2186POPC   C1B29959   8.593   6.107   8.767
 2186POPC   C2B29960   8.497   5.903   8.373
 2186POPC   C3B29961   8.526   5.965   7.968
 2186POPC   C4B29962   8.769   6.162   7.675
 2187POPC   NC329963  20.363  33.363   9.503
 2187POPC   PO429964  20.775  32.783   9.561
 2187POPC   GL129965  20.750  33.111   9.237
 2187POPC   GL229966  20.446  33.086   9.094
 2187POPC   C1A29967  20.890  33.312   8.820
 2187POPC   D2A29968  20.733  33.369   8.371
 2187POPC   C3A29969  20.943  33.201   7.966
 2187POPC   C4A29970  20.705  32.945   7.621
 2187POPC   C1B29971  20.545  32.944   8.700
 2187POPC   C2B29972  20.335  32.994   8.320
 2187POPC   C3B29973  20.398  33.194   7.930
 2187POPC   C4B29974  20.144  32.886   7.673
 2188POPC   NC329975  24.296  30.714   9.391
 2188POPC   PO429976  24.798  31.172   9.258
 2188POPC   GL129977  24.576  30.887   9.005
 2188POPC   GL229978  24.198  30.887   8.929
 2188POPC   C1A29979  24.555  30.675   8.638
 2188POPC   D2A29980  24.633  30.353   8.374
 2188POPC   C3A29981  24.545  30.455   7.937
 2188POPC   C4A29982  24.564  30.481   7.477
 2188POPC   C1B29983  24.128  30.938   8.500
 2188POPC   C2B29984  24.418  30.932   8.216
 2188POPC   C3B29985  24.404  30.923   7.830
 2188POPC   C4B29986  24.760  30.906   7.646
 2189POPC   NC329987  17.865  21.933   9.508
 2189POPC   PO429988  17.179  22.181   9.614
 2189POPC   GL129989  17.430  22.133   9.274
 2189POPC   GL229990  17.364  22.459   9.134
 2189POPC   C1A29991  17.358  22.008   8.852
 2189POPC   D2A29992  17.345  22.187   8.426
 2189POPC   C3A29993  17.489  21.949   8.065
 2189POPC   C4A29994  17.341  21.772   7.672
 2189POPC   C1B29995  17.688  22.425   8.813
 2189POPC   C2B29996  17.700  22.550   8.383
 2189POPC   C3B29997  17.400  22.518   8.026
 2189POPC   C4B29998  17.560  22.284   7.696
 2190POPC   NC329999   9.868  43.688  10.008
 2190POPC   PO430000   9.475  43.948   9.497
 2190POPC   GL130001   9.716  43.841   9.123
 2190POPC   GL230002   9.616  44.104   8.975
 2190POPC   C1A30003   9.859  43.720   8.733
 2190POPC   D2A30004   9.768  44.049   8.445
 2190POPC   C3A30005   9.729  43.861   8.057
 2190POPC   C4A30006  10.020  43.652   7.834
 2190POPC   C1B30007   9.993  44.302   8.852
 2190POPC   C2B30008  10.189  44.388   8.476
 2190POPC   C3B30009  10.047  44.286   8.080
 2190POPC   C4B30010  10.058  44.140   7.694
 2191POPC   NC330011  29.802  10.447   9.920
 2191POPC   PO430012  29.061  10.474   9.911
 2191POPC   GL130013  29.155  10.664   9.357
 2191POPC   GL230014  29.147  10.974   9.161
 2191POPC   C1A30015  29.250  10.497   8.908
 2191POPC   D2A30016  28.998  10.396   8.509
 2191POPC   C3A30017  29.224  10.319   8.116
 2191POPC   C4A30018  29.196  10.278   7.664
 2191POPC   C1B30019  29.348  10.975   8.739
 2191POPC   C2B30020  29.271  10.785   8.331
 2191POPC   C3B30021  29.228  10.806   7.879
 2191POPC   C4B30022  29.525  10.910   7.534
 2192POPC   NC330023  28.879  34.559   9.678
 2192POPC   PO430024  29.483  34.831   9.411
 2192POPC   GL130025  29.106  34.631   9.172
 2192POPC   GL230026  29.189  34.298   9.217
 2192POPC   C1A30027  28.934  34.776   8.743
 2192POPC   D2A30028  28.720  34.794   8.306
 2192POPC   C3A30029  29.060  34.682   7.982
 2192POPC   C4A30030  29.177  34.234   7.810
 2192POPC   C1B30031  29.416  34.434   8.805
 2192POPC   C2B30032  29.501  34.263   8.361
 2192POPC   C3B30033  29.605  34.464   7.980
 2192POPC   C4B30034  29.554  34.864   7.891
 2193POPC   NC330035  40.343   0.287   9.541
 2193POPC   PO430036  39.882   0.792   9.478
 2193POPC   GL130037  40.008   0.475   9.180
 2193POPC   GL230038  39.789   0.191   9.198
 2193POPC   C1A30039  40.093   0.483   8.741
 2193POPC   D2A30040  39.807   0.624   8.397
 2193POPC   C3A30041  39.983   0.580   7.996
 2193POPC   C4A30042  39.839   0.459   7.626
 2193POPC   C1B30043  39.787   0.084   8.739
 2193POPC   C2B30044  39.967   0.134   8.303
 2193POPC   C3B30045  40.112   0.092   7.861
 2193POPC   C4B30046  39.889  44.993   7.438
 2194POPC   NC330047  12.802  17.432   9.682
 2194POPC   PO430048  12.361  17.606   9.423
 2194POPC   GL130049  12.728  17.377   9.162
 2194POPC   GL230050  13.041  17.570   9.124
 2194POPC   C1A30051  12.966  17.255   8.732
 2194POPC   D2A30052  12.914  17.433   8.297
 2194POPC   C3A30053  12.951  17.155   7.961
 2194POPC   C4A30054  13.137  17.081   7.586
 2194POPC   C1B30055  12.731  17.708   8.754
 2194POPC   C2B30056  12.494  17.728   8.327
 2194POPC   C3B30057  12.537  17.599   7.875
 2194POPC   C4B30058  12.686  17.814   7.499
 2195POPC   NC330059  35.337  14.439   9.567
 2195POPC   PO430060  35.776  14.914   9.284
 2195POPC   GL130061  35.513  14.545   9.072
 2195POPC   GL230062  35.199  14.313   9.110
 2195POPC   C1A30063  35.453  14.317   8.664
 2195POPC   D2A30064  35.594  14.185   8.244
 2195POPC   C3A30065  35.427  14.474   7.933
 2195POPC   C4A30066  35.299  14.619   7.537
 2195POPC   C1B30067  35.079  13.975   8.833
 2195POPC   C2B30068  35.176  13.882   8.407
 2195POPC   C3B30069  35.138  14.040   7.990
 2195POPC   C4B30070  35.480  14.024   7.715
 2196POPC   NC330071   1.903  12.999   9.487
 2196POPC   PO430072   2.231  12.456   9.367
 2196POPC   GL130073   2.196  12.898   9.089
 2196POPC   GL230074   1.877  13.101   8.985
 2196POPC   C1A30075   2.267  13.089   8.680
 2196POPC   D2A30076   1.921  13.248   8.416
 2196POPC   C3A30077   1.854  13.063   8.006
 2196POPC   C4A30078   2.129  12.973   7.678
 2196POPC   C1B30079   1.827  12.797   8.656
 2196POPC   C2B30080   1.721  12.625   8.232
 2196POPC   C3B30081   1.857  12.504   7.792
 2196POPC   C4B30082   1.723  12.521   7.325
 2197POPC   NC330083  29.189  30.931   9.524
 2197POPC   PO430084  28.924  30.263   9.572
 2197POPC   GL130085  29.132  30.506   9.225
 2197POPC   GL230086  29.494  30.543   9.143
 2197POPC   C1A30087  29.029  30.490   8.809
 2197POPC   D2A30088  29.062  30.672   8.431
 2197POPC   C3A30089  28.955  30.558   8.064
 2197POPC   C4A30090  28.848  30.761   7.708
 2197POPC   C1B30091  29.362  30.888   8.841
 2197POPC   C2B30092  29.193  31.146   8.470
 2197POPC   C3B30093  29.261  30.994   8.043
 2197POPC   C4B30094  29.355  30.697   7.690
 2198POPC   NC330095  11.692   9.290   9.501
 2198POPC   PO430096  12.205   9.749   9.547
 2198POPC   GL130097  12.080   9.921   9.188
 2198POPC   GL230098  12.385   9.995   9.073
 2198POPC   C1A30099  11.975   9.747   8.790
 2198POPC   D2A30100  11.978   9.480   8.461
 2198POPC   C3A30101  11.824   9.697   8.121
 2198POPC   C4A30102  12.043   9.490   7.837
 2198POPC   C1B30103  12.423   9.967   8.646
 2198POPC   C2B30104  12.224  10.093   8.316
 2198POPC   C3B30105  12.190   9.989   7.896
 2198POPC   C4B30106  12.345  10.017   7.490
 2199POPC   NC330107  16.911  44.798   9.639
 2199POPC   PO430108  16.303  44.912   9.667
 2199POPC   GL130109  16.499  44.760   9.307
 2199POPC   GL230110  16.667   0.055   9.205
 2199POPC   C1A30111  16.566  44.523   8.932
 2199POPC   D2A30112  16.680  44.538   8.504
 2199POPC   C3A30113  16.581  44.385   8.093
 2199POPC   C4A30114  16.927  44.231   7.796
 2199POPC   C1B30115  16.627   0.015   8.747
 2199POPC   C2B30116  16.737  44.996   8.316
 2199POPC   C3B30117  16.856  44.778   7.963
 2199POPC   C4B30118  16.478  44.716   7.728
 2200POPC   NC330119  21.882  13.540   9.500
 2200POPC   PO430120  22.342  14.030   9.675
 2200POPC   GL130121  22.078  13.889   9.207
 2200POPC   GL230122  22.229  13.488   9.136
 2200POPC   C1A30123  22.132  13.735   8.725
 2200POPC   D2A30124  22.411  13.786   8.340
 2200POPC   C3A30125  22.251  13.715   7.902
 2200POPC   C4A30126  21.897  13.899   7.735
 2200POPC   C1B30127  22.017  13.220   8.787
 2200POPC   C2B30128  21.806  13.167   8.395
 2200POPC   C3B30129  21.784  13.502   8.119
 2200POPC   C4B30130  21.904  13.380   7.730
 2201POPC   NC330131  21.052   0.786   9.405
 2201POPC   PO430132  20.628   0.196   9.527
 2201POPC   GL130133  20.742   0.425   9.177
 2201POPC   GL230134  20.542   0.716   9.218
 2201POPC   C1A30135  20.721   0.608   8.749
 2201POPC   D2A30136  20.824   0.774   8.330
 2201POPC   C3A30137  20.638   0.507   8.026
 2201POPC   C4A30138  20.818   0.328   7.680
 2201POPC   C1B30139  20.250   0.773   8.864
 2201POPC   C2B30140  20.319   0.638   8.435
 2201POPC   C3B30141  20.162   0.686   8.035
 2201POPC   C4B30142  20.364   0.828   7.665
 2202POPC   NC330143  29.361   4.293   9.502
 2202POPC   PO430144  30.001   3.981   9.464
 2202POPC   GL130145  30.064   4.225   9.129
 2202POPC   GL230146  29.704   4.154   9.054
 2202POPC   C1A30147  30.030   4.423   8.733
 2202POPC   D2A30148  29.803   4.469   8.346
 2202POPC   C3A30149  30.133   4.404   8.057
 2202POPC   C4A30150  30.135   4.364   7.653
 2202POPC   C1B30151  29.585   3.979   8.647
 2202POPC   C2B30152  29.530   4.036   8.183
 2202POPC   C3B30153  29.674   4.244   7.815
 2202POPC   C4B30154  29.430   4.336   7.457
 2203POPC   NC330155  30.314  21.488   9.896
 2203POPC   PO430156  30.975  21.498   9.620
 2203POPC   GL130157  30.644  21.369   9.313
 2203POPC   GL230158  30.877  21.510   9.086
 2203POPC   C1A30159  30.498  21.255   8.864
 2203POPC   D2A30160  30.441  21.424   8.441
 2203POPC   C3A30161  30.782  21.433   8.167
 2203POPC   C4A30162  30.873  21.350   7.730
 2203POPC   C1B30163  31.167  21.629   8.777
 2203POPC   C2B30164  31.111  21.803   8.392
 2203POPC   C3B30165  31.228  21.612   8.014
 2203POPC   C4B30166  31.372  21.438   7.642
 2204POPC   NC330167  29.166  10.210   9.537
 2204POPC   PO430168  28.796   9.680   9.837
 2204POPC   GL130169  29.091   9.753   9.349
 2204POPC   GL230170  29.350   9.930   9.145
 2204POPC   C1A30171  28.966   9.845   8.850
 2204POPC   D2A30172  29.187   9.937   8.469
 2204POPC   C3A30173  29.107   9.765   8.077
 2204POPC   C4A30174  28.993   9.763   7.666
 2204POPC   C1B30175  29.404   9.584   8.763
 2204POPC   C2B30176  29.524   9.560   8.308
 2204POPC   C3B30177  29.600   9.551   7.846
 2204POPC   C4B30178  29.805   9.527   7.425
 2205POPC   NC330179  11.425   9.889   9.628
 2205POPC   PO430180  11.045   9.546   9.195
 2205POPC   GL130181  11.321   9.880   9.109
 2205POPC   GL230182  11.615   9.706   9.181
 2205POPC   C1A30183  11.496   9.916   8.688
 2205POPC   D2A30184  11.209   9.909   8.321
 2205POPC   C3A30185  11.331   9.907   7.885
 2205POPC   C4A30186  11.051   9.816   7.526
 2205POPC   C1B30187  11.603   9.371   8.862
 2205POPC   C2B30188  11.534   9.201   8.465
 2205POPC   C3B30189  11.396   9.399   8.097
 2205POPC   C4B30190  11.542   9.474   7.687
 2206POPC   NC330191   9.706  32.785   9.499
 2206POPC   PO430192   9.807  32.114   9.562
 2206POPC   GL130193   9.652  32.383   9.201
 2206POPC   GL230194   9.952  32.581   9.103
 2206POPC   C1A30195   9.572  32.548   8.761
 2206POPC   D2A30196   9.402  32.435   8.349
 2206POPC   C3A30197   9.669  32.295   8.018
 2206POPC   C4A30198   9.689  32.286   7.575
 2206POPC   C1B30199   9.930  32.164   8.838
 2206POPC   C2B30200   9.654  32.011   8.478
 2206POPC   C3B30201   9.557  31.795   8.081
 2206POPC   C4B30202   9.715  31.767   7.674
 2207POPC   NC330203   9.453  24.081   9.593
 2207POPC   PO430204   9.927  23.666   9.826
 2207POPC   GL130205   9.780  23.665   9.379
 2207POPC   GL230206   9.801  23.997   9.224
 2207POPC   C1A30207   9.690  23.549   8.945
 2207POPC   D2A30208   9.676  23.764   8.539
 2207POPC   C3A30209   9.604  23.566   8.162
 2207POPC   C4A30210   9.578  23.747   7.773
 2207POPC   C1B30211  10.045  23.926   8.853
 2207POPC   C2B30212  10.259  23.773   8.514
 2207POPC   C3B30213  10.095  23.737   8.168
 2207POPC   C4B30214  10.068  23.834   7.778
 2208POPC   NC330215  31.560  28.864   9.482
 2208POPC   PO430216  31.099  29.288   9.490
 2208POPC   GL130217  31.233  29.079   9.131
 2208POPC   GL230218  31.603  29.174   9.073
 2208POPC   C1A30219  31.182  29.030   8.703
 2208POPC   D2A30220  31.429  29.026   8.270
 2208POPC   C3A30221  31.245  28.939   7.858
 2208POPC   C4A30222  31.189  29.211   7.437
 2208POPC   C1B30223  31.667  28.918   8.705
 2208POPC   C2B30224  31.860  28.776   8.352
 2208POPC   C3B30225  31.893  29.020   7.974
 2208POPC   C4B30226  31.655  29.127   7.635
 2209POPC   NC330227  15.357  38.095   9.686
 2209POPC   PO430228  15.009  38.651   9.478
 2209POPC   GL130229  14.996  38.355   9.143
 2209POPC   GL230230  14.664  38.206   9.135
 2209POPC   C1A30231  15.097  38.480   8.694
 2209POPC   D2A30232  15.203  38.353   8.274
 2209POPC   C3A30233  15.119  38.398   7.833
 2209POPC   C4A30234  14.903  38.117   7.526
 2209POPC   C1B30235  14.643  38.602   8.878
 2209POPC   C2B30236  14.789  38.852   8.500
 2209POPC   C3B30237  14.826  38.744   8.062
 2209POPC   C4B30238  14.699  38.609   7.627
 2210POPC   NC330239  40.585  26.182   9.198
 2210POPC   PO430240  40.590  26.785   9.491
 2210POPC   GL130241  40.679  26.950   9.083
 2210POPC   GL230242  40.651  26.637   8.921
 2210POPC   C1A30243  40.933  26.976   8.684
 2210POPC   D2A30244  40.913  26.735   8.303
 2210POPC   C3A30245  40.896  27.052   7.980
 2210POPC   C4A30246  40.714  27.057   7.574
 2210POPC   C1B30247  41.090  26.509   8.835
 2210POPC   C2B30248  41.216  26.302   8.447
 2210POPC   C3B30249  41.081  26.267   8.024
 2210POPC   C4B30250  40.840  26.568   7.793
 2211POPC   NC330251  13.226   9.088   9.376
 2211POPC   PO430252  13.084   8.524   9.743
 2211POPC   GL130253  12.891   8.708   9.270
 2211POPC   GL230254  12.632   9.004   9.161
 2211POPC   C1A30255  12.884   8.721   8.796
 2211POPC   D2A30256  12.885   8.658   8.334
 2211POPC   C3A30257  12.629   8.773   8.012
 2211POPC   C4A30258  12.761   8.808   7.605
 2211POPC   C1B30259  12.879   9.223   8.831
 2211POPC   C2B30260  13.058   9.141   8.426
 2211POPC   C3B30261  12.838   9.231   8.056
 2211POPC   C4B30262  12.931   9.305   7.634
 2212POPC   NC330263  42.253  32.646   9.517
 2212POPC   PO430264  41.916  33.274   9.487
 2212POPC   GL130265  42.108  33.008   9.162
 2212POPC   GL230266  42.454  32.920   9.101
 2212POPC   C1A30267  42.058  33.085   8.750
 2212POPC   D2A30268  41.944  33.074   8.340
 2212POPC   C3A30269  42.244  32.799   8.160
 2212POPC   C4A30270  42.267  32.948   7.804
 2212POPC   C1B30271  42.525  32.890   8.650
 2212POPC   C2B30272  42.498  33.202   8.347
 2212POPC   C3B30273  42.679  33.240   7.918
 2212POPC   C4B30274  42.695  32.927   7.558
 2213POPC   NC330275   9.141  24.646   9.520
 2213POPC   PO430276   8.458  24.809   9.537
 2213POPC   GL130277   8.748  24.570   9.198
 2213POPC   GL230278   8.699  24.213   9.211
 2213POPC   C1A30279   8.931  24.428   8.770
 2213POPC   D2A30280   9.031  24.548   8.325
 2213POPC   C3A30281   9.280  24.433   7.952
 2213POPC   C4A30282   9.083  24.544   7.541
 2213POPC   C1B30283   8.652  23.999   8.790
 2213POPC   C2B30284   8.776  24.102   8.337
 2213POPC   C3B30285   8.805  24.244   7.884
 2213POPC   C4B30286   8.794  24.161   7.415
 2214POPC   NC330287  14.230  39.445  10.092
 2214POPC   PO430288  14.631  39.133   9.695
 2214POPC   GL130289  14.348  39.097   9.293
 2214POPC   GL230290  14.188  39.399   9.108
 2214POPC   C1A30291  14.454  39.057   8.852
 2214POPC   D2A30292  14.439  39.300   8.477
 2214POPC   C3A30293  14.481  39.137   8.085
 2214POPC   C4A30294  14.467  39.460   7.787
 2214POPC   C1B30295  13.993  39.166   8.678
 2214POPC   C2B30296  13.955  39.013   8.276
 2214POPC   C3B30297  14.035  38.966   7.876
 2214POPC   C4B30298  14.345  38.976   7.554
 2215POPC   NC330299   1.787   9.015   9.466
 2215POPC   PO430300   2.427   8.944   9.473
 2215POPC   GL130301   2.157   8.848   9.140
 2215POPC   GL230302   1.898   8.576   9.224
 2215POPC   C1A30303   2.040   9.066   8.768
 2215POPC   D2A30304   2.285   9.196   8.388
 2215POPC   C3A30305   2.086   9.075   8.017
 2215POPC   C4A30306   2.214   8.900   7.615
 2215POPC   C1B30307   1.943   8.546   8.792
 2215POPC   C2B30308   1.910   8.747   8.389
 2215POPC   C3B30309   1.955   8.566   7.997
 2215POPC   C4B30310   1.633   8.388   7.745
 2216POPC   NC330311  24.580  17.614   9.599
 2216POPC   PO430312  24.386  16.937   9.587
 2216POPC   GL130313  24.317  17.313   9.264
 2216POPC   GL230314  24.663  17.433   9.147
 2216POPC   C1A30315  24.246  17.561   8.859
 2216POPC   D2A30316  24.434  17.494   8.467
 2216POPC   C3A30317  24.239  17.502   8.110
 2216POPC   C4A30318  24.354  17.680   7.761
 2216POPC   C1B30319  24.793  17.349   8.788
 2216POPC   C2B30320  24.949  17.599   8.456
 2216POPC   C3B30321  24.757  17.612   8.071
 2216POPC   C4B30322  24.794  17.462   7.624
 2217POPC   NC330323   7.201  11.879   9.589
 2217POPC   PO430324   6.548  12.092   9.507
 2217POPC   GL130325   6.882  12.042   9.215
 2217POPC   GL230326   6.781  11.777   8.966
 2217POPC   C1A30327   6.999  12.232   8.824
 2217POPC   D2A30328   6.863  11.940   8.474
 2217POPC   C3A30329   6.644  12.076   8.092
 2217POPC   C4A30330   6.833  12.229   7.684
 2217POPC   C1B30331   6.488  12.126   8.818
 2217POPC   C2B30332   6.336  12.314   8.431
 2217POPC   C3B30333   6.135  12.217   8.041
 2217POPC   C4B30334   6.210  12.019   7.647
 2218POPC   NC330335  42.572  20.816   9.597
 2218POPC   PO430336  43.271  20.650   9.538
 2218POPC   GL130337  43.105  20.491   9.136
 2218POPC   GL230338  42.821  20.672   9.142
 2218POPC   C1A30339  42.996  20.332   8.699
 2218POPC   D2A30340  43.240  20.522   8.345
 2218POPC   C3A30341  43.363  20.430   7.901
 2218POPC   C4A30342  43.164  20.402   7.481
 2218POPC   C1B30343  42.948  20.831   8.749
 2218POPC   C2B30344  42.768  20.732   8.350
 2218POPC   C3B30345  42.888  20.628   7.949
 2218POPC   C4B30346  43.229  20.922   7.952
 2219POPC   NC330347  33.501  20.861   9.270
 2219POPC   PO430348  33.590  20.307   9.604
 2219POPC   GL130349  33.735  20.410   9.197
 2219POPC   GL230350  34.046  20.580   9.200
 2219POPC   C1A30351  33.710  20.556   8.744
 2219POPC   D2A30352  34.014  20.524   8.432
 2219POPC   C3A30353  33.847  20.530   8.039
 2219POPC   C4A30354  33.770  20.376   7.609
 2219POPC   C1B30355  34.144  20.852   8.830
 2219POPC   C2B30356  34.069  21.046   8.418
 2219POPC   C3B30357  33.952  21.040   7.993
 2219POPC   C4B30358  33.691  20.872   7.700
 2220POPC   NC330359  22.707  16.578   9.243
 2220POPC   PO430360  22.098  16.655   9.389
 2220POPC   GL130361  22.197  16.396   9.028
 2220POPC   GL230362  21.843  16.451   8.935
 2220POPC   C1A30363  22.461  16.433   8.647
 2220POPC   D2A30364  22.386  16.604   8.233
 2220POPC   C3A30365  22.534  16.394   7.865
 2220POPC   C4A30366  22.330  16.331   7.477
 2220POPC   C1B30367  22.107  16.811   8.724
 2220POPC   C2B30368  22.244  17.074   8.351
 2220POPC   C3B30369  22.150  17.030   7.890
 2220POPC   C4B30370  21.971  17.075   7.435
 2221POPC   NC330371  43.159   3.059   9.722
 2221POPC   PO430372  42.910   3.728   9.589
 2221POPC   GL130373  43.118   3.591   9.201
 2221POPC   GL230374  43.209   3.237   9.236
 2221POPC   C1A30375  43.224   3.752   8.786
 2221POPC   D2A30376  43.226   3.592   8.376
 2221POPC   C3A30377  43.188   3.794   7.999
 2221POPC   C4A30378  43.052   3.732   7.596
 2221POPC   C1B30379  43.220   3.237   8.772
 2221POPC   C2B30380  43.191   3.077   8.339
 2221POPC   C3B30381  43.227   3.290   7.902
 2221POPC   C4B30382  43.276   3.328   7.396
 2222POPC   NC330383   5.545  23.610   9.960
 2222POPC   PO430384   6.126  23.900   9.635
 2222POPC   GL130385   6.209  23.694   9.265
 2222POPC   GL230386   5.819  23.705   9.240
 2222POPC   C1A30387   6.186  23.738   8.838
 2222POPC   D2A30388   5.977  23.706   8.447
 2222POPC   C3A30389   6.194  23.683   8.078
 2222POPC   C4A30390   6.075  23.653   7.664
 2222POPC   C1B30391   5.670  23.566   8.836
 2222POPC   C2B30392   5.667  23.306   8.499
 2222POPC   C3B30393   5.730  23.422   8.081
 2222POPC   C4B30394   5.667  23.333   7.667
 2223POPC   NC330395  17.922   6.520   9.514
 2223POPC   PO430396  18.438   6.078   9.506
 2223POPC   GL130397  18.522   6.338   9.094
 2223POPC   GL230398  18.249   6.564   9.114
 2223POPC   C1A30399  18.355   6.421   8.633
 2223POPC   D2A30400  18.399   6.792   8.334
 2223POPC   C3A30401  18.245   6.844   7.897
 2223POPC   C4A30402  18.473   6.842   7.488
 2223POPC   C1B30403  17.876   6.626   8.846
 2223POPC   C2B30404  17.768   6.487   8.429
 2223POPC   C3B30405  18.036   6.406   8.058
 2223POPC   C4B30406  18.188   6.440   7.601
 2224POPC   NC330407  24.327  23.621   9.673
 2224POPC   PO430408  25.056  23.609   9.568
 2224POPC   GL130409  24.671  23.771   9.277
 2224POPC   GL230410  24.259  23.812   9.216
 2224POPC   C1A30411  24.579  23.799   8.833
 2224POPC   D2A30412  24.777  23.959   8.479
 2224POPC   C3A30413  24.547  23.881   8.162
 2224POPC   C4A30414  24.462  23.876   7.767
 2224POPC   C1B30415  24.141  23.524   8.862
 2224POPC   C2B30416  24.154  23.314   8.462
 2224POPC   C3B30417  24.256  23.475   8.058
 2224POPC   C4B30418  24.019  23.661   7.721
 2225POPC   NC330419  32.878  22.280   9.804
 2225POPC   PO430420  32.704  21.888   9.282
 2225POPC   GL130421  33.001  21.949   8.987
 2225POPC   GL230422  33.336  21.845   9.079
 2225POPC   C1A30423  32.891  22.197   8.630
 2225POPC   D2A30424  32.662  22.460   8.365
 2225POPC   C3A30425  32.849  22.390   7.948
 2225POPC   C4A30426  32.739  21.962   7.758
 2225POPC   C1B30427  33.372  21.998   8.631
 2225POPC   C2B30428  33.291  22.277   8.267
 2225POPC   C3B30429  33.316  22.151   7.874
 2225POPC   C4B30430  33.201  21.981   7.516
 2226POPC   NC330431  34.642   3.924   9.696
 2226POPC   PO430432  34.375   3.325   9.511
 2226POPC   GL130433  34.574   3.465   9.156
 2226POPC   GL230434  34.628   3.796   9.203
 2226POPC   C1A30435  34.412   3.519   8.763
 2226POPC   D2A30436  34.360   3.269   8.405
 2226POPC   C3A30437  34.395   3.533   8.038
 2226POPC   C4A30438  34.261   3.662   7.638
 2226POPC   C1B30439  34.790   3.909   8.809
 2226POPC   C2B30440  34.758   3.711   8.420
 2226POPC   C3B30441  34.908   3.610   8.030
 2226POPC   C4B30442  34.771   3.616   7.593
 2227POPC   NC330443   7.655  38.026   9.381
 2227POPC   PO430444   7.234  37.596   9.512
 2227POPC   GL130445   7.404  37.557   9.111
 2227POPC   GL230446   7.353  37.903   8.978
 2227POPC   C1A30447   7.189  37.330   8.778
 2227POPC   D2A30448   6.969  37.315   8.384
 2227POPC   C3A30449   7.180  37.636   8.119
 2227POPC   C4A30450   7.241  37.562   7.688
 2227POPC   C1B30451   7.725  37.780   8.697
 2227POPC   C2B30452   7.930  37.770   8.281
 2227POPC   C3B30453   7.687  37.816   7.896
 2227POPC   C4B30454   7.294  38.053   7.808
 2228POPC   NC330455  23.737  24.059   9.573
 2228POPC   PO430456  23.325  24.614   9.684
 2228POPC   GL130457  23.732  24.561   9.425
 2228POPC   GL230458  23.544  24.601   9.153
 2228POPC   C1A30459  24.029  24.509   9.027
 2228POPC   D2A30460  23.834  24.426   8.587
 2228POPC   C3A30461  24.015  24.665   8.223
 2228POPC   C4A30462  23.931  24.654   7.770
 2228POPC   C1B30463  23.373  24.353   8.828
 2228POPC   C2B30464  23.323  24.428   8.429
 2228POPC   C3B30465  23.554  24.432   8.057
 2228POPC   C4B30466  23.414  24.571   7.663
 2229POPC   NC330467   0.488   1.607   9.458
 2229POPC   PO430468   0.235   2.197   9.675
 2229POPC   GL130469   0.385   2.113   9.239
 2229POPC   GL230470   0.170   1.834   9.091
 2229POPC   C1A30471   0.650   1.988   8.868
 2229POPC   D2A30472   0.503   1.783   8.485
 2229POPC   C3A30473   0.709   1.943   8.103
 2229POPC   C4A30474   0.652   1.804   7.687
 2229POPC   C1B30475   0.179   2.151   8.734
 2229POPC   C2B30476   0.242   2.164   8.270
 2229POPC   C3B30477   0.208   1.811   7.941
 2229POPC   C4B30478   0.220   1.672   7.479
 2230POPC   NC330479  16.773  42.434   9.712
 2230POPC   PO430480  16.804  41.824   9.482
 2230POPC   GL130481  16.829  42.258   9.228
 2230POPC   GL230482  16.636  42.591   9.256
 2230POPC   C1A30483  16.960  42.493   8.831
 2230POPC   D2A30484  17.049  42.367   8.368
 2230POPC   C3A30485  16.735  42.280   8.010
 2230POPC   C4A30486  16.946  42.357   7.632
 2230POPC   C1B30487  16.468  42.446   8.874
 2230POPC   C2B30488  16.563  42.495   8.471
 2230POPC   C3B30489  16.314  42.597   8.134
 2230POPC   C4B30490  16.279  42.470   7.720
 2231POPC   NC330491  41.419  31.532   9.620
 2231POPC   PO430492  41.835  32.051   9.455
 2231POPC   GL130493  41.811  31.743   9.122
 2231POPC   GL230494  41.581  31.457   9.144
 2231POPC   C1A30495  41.807  31.672   8.671
 2231POPC   D2A30496  41.789  31.400   8.292
 2231POPC   C3A30497  41.813  31.652   7.921
 2231POPC   C4A30498  41.816  31.684   7.443
 2231POPC   C1B30499  41.485  31.243   8.760
 2231POPC   C2B30500  41.312  31.084   8.364
 2231POPC   C3B30501  41.434  31.068   7.933
 2231POPC   C4B30502  41.411  31.443   7.726
 2232POPC   NC330503  13.843  23.469   9.552
 2232POPC   PO430504  13.395  23.853   9.475
 2232POPC   GL130505  13.455  23.737   9.087
 2232POPC   GL230506  13.787  23.742   9.124
 2232POPC   C1A30507  13.443  23.789   8.647
 2232POPC   D2A30508  13.677  23.609   8.314
 2232POPC   C3A30509  13.515  23.573   7.913
 2232POPC   C4A30510  13.715  23.307   7.608
 2232POPC   C1B30511  13.969  23.659   8.748
 2232POPC   C2B30512  14.146  23.877   8.383
 2232POPC   C3B30513  14.118  24.085   7.984
 2232POPC   C4B30514  13.996  23.761   7.755
 2233POPC   NC330515   4.786  42.913   9.540
 2233POPC   PO430516   5.337  43.141   9.806
 2233POPC   GL130517   5.326  43.210   9.317
 2233POPC   GL230518   4.984  43.125   9.148
 2233POPC   C1A30519   5.292  43.390   8.873
 2233POPC   D2A30520   5.226  43.122   8.487
 2233POPC   C3A30521   5.045  43.256   8.096
 2233POPC   C4A30522   5.189  43.068   7.724
 2233POPC   C1B30523   4.787  43.183   8.748
 2233POPC   C2B30524   4.763  42.918   8.394
 2233POPC   C3B30525   4.885  42.756   8.019
 2233POPC   C4B30526   4.817  42.710   7.583
 2234POPC   NC330527   7.807  35.619   9.318
 2234POPC   PO430528   8.503  35.488   9.189
 2234POPC   GL130529   8.148  35.383   8.976
 2234POPC   GL230530   7.908  35.603   8.843
 2234POPC   C1A30531   8.221  35.398   8.515
 2234POPC   D2A30532   8.548  35.332   8.273
 2234POPC   C3A30533   8.457  35.434   7.859
 2234POPC   C4A30534   8.272  35.311   7.441
 2234POPC   C1B30535   7.774  35.208   8.663
 2234POPC   C2B30536   7.871  35.069   8.308
 2234POPC   C3B30537   7.952  35.325   7.978
 2234POPC   C4B30538   7.943  34.996   7.692
 2235POPC   NC330539  17.775  12.667   9.424
 2235POPC   PO430540  17.300  13.066   9.665
 2235POPC   GL130541  17.497  13.095   9.240
 2235POPC   GL230542  17.338  12.794   9.163
 2235POPC   C1A30543  17.437  13.130   8.756
 2235POPC   D2A30544  17.308  12.984   8.327
 2235POPC   C3A30545  17.555  13.068   7.927
 2235POPC   C4A30546  17.529  13.097   7.464
 2235POPC   C1B30547  17.341  12.619   8.776
 2235POPC   C2B30548  17.519  12.544   8.437
 2235POPC   C3B30549  17.470  12.531   8.024
 2235POPC   C4B30550  17.697  12.627   7.673
 2236POPC   NC330551  24.021  41.365   9.399
 2236POPC   PO430552  23.882  42.015   9.447
 2236POPC   GL130553  23.742  41.781   9.134
 2236POPC   GL230554  24.063  41.726   9.030
 2236POPC   C1A30555  23.553  41.721   8.725
 2236POPC   D2A30556  23.700  41.609   8.311
 2236POPC   C3A30557  23.463  41.457   7.980
 2236POPC   C4A30558  23.504  41.622   7.584
 2236POPC   C1B30559  24.070  41.529   8.646
 2236POPC   C2B30560  24.178  41.468   8.188
 2236POPC   C3B30561  23.956  41.512   7.824
 2236POPC   C4B30562  23.844  41.272   7.463
 2237POPC   NC330563  28.671  22.334   9.545
 2237POPC   PO430564  28.171  21.908   9.657
 2237POPC   GL130565  28.368  21.987   9.250
 2237POPC   GL230566  28.364  22.306   9.144
 2237POPC   C1A30567  28.252  21.929   8.796
 2237POPC   D2A30568  28.524  21.892   8.420
 2237POPC   C3A30569  28.416  22.120   8.039
 2237POPC   C4A30570  28.412  21.798   7.738
 2237POPC   C1B30571  28.674  22.224   8.808
 2237POPC   C2B30572  28.787  22.332   8.371
 2237POPC   C3B30573  28.922  22.119   7.967
 2237POPC   C4B30574  28.695  22.221   7.561
 2238POPC   NC330575   0.325  15.774   9.324
 2238POPC   PO430576   0.618  15.245   9.706
 2238POPC   GL130577   0.420  15.178   9.302
 2238POPC   GL230578   0.555  15.411   9.045
 2238POPC   C1A30579   0.281  14.999   8.900
 2238POPC   D2A30580   0.479  15.119   8.490
 2238POPC   C3A30581   0.332  15.224   8.065
 2238POPC   C4A30582   0.360  15.011   7.675
 2238POPC   C1B30583   0.182  15.467   8.756
 2238POPC   C2B30584   0.174  15.596   8.373
 2238POPC   C3B30585   0.094  15.705   7.973
 2238POPC   C4B30586   0.035  15.417   7.643
 2239POPC   NC330587   3.398  41.751   9.497
 2239POPC   PO430588   3.756  41.289   9.293
 2239POPC   GL130589   3.608  41.625   9.013
 2239POPC   GL230590   3.309  41.876   9.016
 2239POPC   C1A30591   3.540  41.692   8.580
 2239POPC   D2A30592   3.486  41.380   8.293
 2239POPC   C3A30593   3.600  41.412   7.889
 2239POPC   C4A30594   3.521  41.203   7.531
 2239POPC   C1B30595   3.247  42.122   8.654
 2239POPC   C2B30596   3.346  42.077   8.225
 2239POPC   C3B30597   3.294  41.820   7.872
 2239POPC   C4B30598   3.392  41.690   7.447
 2240POPC   NC330599   9.554   5.359   9.413
 2240POPC   PO430600   9.326   4.718   9.546
 2240POPC   GL130601   9.541   4.795   9.107
 2240POPC   GL230602   9.603   5.133   8.970
 2240POPC   C1A30603   9.784   4.750   8.708
 2240POPC   D2A30604   9.646   5.110   8.451
 2240POPC   C3A30605   9.704   5.108   8.028
 2240POPC   C4A30606   9.652   4.861   7.672
 2240POPC   C1B30607   9.984   5.353   8.765
 2240POPC   C2B30608  10.255   5.555   8.453
 2240POPC   C3B30609  10.115   5.591   8.018
 2240POPC   C4B30610  10.049   5.284   7.696
 2241POPC   NC330611  10.854   0.697   9.453
 2241POPC   PO430612  10.835  44.970   9.613
 2241POPC   GL130613  10.800   0.131   9.145
 2241POPC   GL230614  10.671   0.461   9.062
 2241POPC   C1A30615  10.649   0.175   8.674
 2241POPC   D2A30616  10.393   0.415   8.406
 2241POPC   C3A30617  10.417   0.216   8.044
 2241POPC   C4A30618  10.539   0.335   7.673
 2241POPC   C1B30619  10.729   0.711   8.663
 2241POPC   C2B30620  10.530   0.925   8.338
 2241POPC   C3B30621  10.506   0.782   7.915
 2241POPC   C4B30622  10.621   0.846   7.479
 2242POPC   NC330623  14.027  34.280   9.380
 2242POPC   PO430624  13.570  34.633   9.669
 2242POPC   GL130625  13.647  34.708   9.177
 2242POPC   GL230626  13.877  35.041   9.042
 2242POPC   C1A30627  13.756  34.623   8.765
 2242POPC   D2A30628  13.520  34.473   8.429
 2242POPC   C3A30629  13.621  34.515   8.014
 2242POPC   C4A30630  13.307  34.450   7.680
 2242POPC   C1B30631  13.859  35.086   8.602
 2242POPC   C2B30632  13.812  34.963   8.211
 2242POPC   C3B30633  14.038  34.816   7.861
 2242POPC   C4B30634  14.042  34.930   7.426
 2243POPC   NC330635  33.839  34.067   9.412
 2243POPC   PO430636  33.382  34.569   9.450
 2243POPC   GL130637  33.537  34.715   9.085
 2243POPC   GL230638  33.778  34.470   9.074
 2243POPC   C1A30639  33.642  34.816   8.676
 2243POPC   D2A30640  33.596  34.511   8.321
 2243POPC   C3A30641  33.943  34.575   8.026
 2243POPC   C4A30642  34.196  34.904   7.775
 2243POPC   C1B30643  33.958  34.408   8.684
 2243POPC   C2B30644  33.929  34.070   8.379
 2243POPC   C3B30645  33.586  34.037   8.080
 2243POPC   C4B30646  33.519  34.350   7.755
 2244POPC   NC330647  35.070  30.275   9.520
 2244POPC   PO430648  35.395  29.666   9.498
 2244POPC   GL130649  35.186  29.801   9.159
 2244POPC   GL230650  35.287  30.145   9.076
 2244POPC   C1A30651  35.321  29.770   8.747
 2244POPC   D2A30652  35.339  30.067   8.423
 2244POPC   C3A30653  35.142  29.936   8.043
 2244POPC   C4A30654  35.431  29.643   7.843
 2244POPC   C1B30655  35.618  30.323   8.809
 2244POPC   C2B30656  35.711  30.454   8.404
 2244POPC   C3B30657  35.706  30.193   8.067
 2244POPC   C4B30658  35.477  30.125   7.724
 2245POPC   NC330659   9.170   3.290   9.405
 2245POPC   PO430660   8.602   3.633   9.516
 2245POPC   GL130661   8.618   3.737   9.091
 2245POPC   GL230662   8.736   3.386   9.038
 2245POPC   C1A30663   8.695   3.711   8.621
 2245POPC   D2A30664   9.038   3.851   8.358
 2245POPC   C3A30665   9.109   3.716   7.954
 2245POPC   C4A30666   8.815   3.443   7.782
 2245POPC   C1B30667   9.032   3.358   8.681
 2245POPC   C2B30668   8.959   3.331   8.253
 2245POPC   C3B30669   9.260   3.233   7.894
 2245POPC   C4B30670   9.276   3.316   7.417
 2246POPC   NC330671  39.072  10.744   9.722
 2246POPC   PO430672  39.560  10.224   9.607
 2246POPC   GL130673  39.389  10.580   9.302
 2246POPC   GL230674  39.017  10.556   9.246
 2246POPC   C1A30675  39.261  10.811   8.875
 2246POPC   D2A30676  38.980  10.733   8.507
 2246POPC   C3A30677  39.173  10.680   8.096
 2246POPC   C4A30678  39.136  10.791   7.671
 2246POPC   C1B30679  39.061  10.346   8.848
 2246POPC   C2B30680  39.153  10.247   8.419
 2246POPC   C3B30681  39.044  10.207   7.974
 2246POPC   C4B30682  38.848  10.133   7.599
 2247POPC   NC330683  13.564  40.108   9.588
 2247POPC   PO430684  14.044  39.650   9.714
 2247POPC   GL130685  13.894  39.875   9.264
 2247POPC   GL230686  13.511  39.918   9.115
 2247POPC   C1A30687  13.856  40.093   8.813
 2247POPC   D2A30688  13.595  39.924   8.468
 2247POPC   C3A30689  13.794  39.963   8.061
 2247POPC   C4A30690  13.847  40.312   7.743
 2247POPC   C1B30691  13.374  40.273   8.782
 2247POPC   C2B30692  13.422  40.398   8.300
 2247POPC   C3B30693  13.335  40.118   7.905
 2247POPC   C4B30694  13.282  39.681   7.765
 2248POPC   NC330695  38.838  15.581   9.535
 2248POPC   PO430696  39.197  16.186   9.583
 2248POPC   GL130697  39.127  16.033   9.187
 2248POPC   GL230698  38.962  16.377   9.169
 2248POPC   C1A30699  39.341  15.755   8.839
 2248POPC   D2A30700  39.652  15.574   8.487
 2248POPC   C3A30701  39.446  15.624   8.047
 2248POPC   C4A30702  38.963  15.613   7.966
 2248POPC   C1B30703  38.944  16.250   8.760
 2248POPC   C2B30704  39.181  16.333   8.439
 2248POPC   C3B30705  39.163  16.083   8.092
 2248POPC   C4B30706  39.121  16.011   7.677
 2249POPC   NC330707  41.248  17.984   9.346
 2249POPC   PO430708  41.600  18.590   9.489
 2249POPC   GL130709  41.419  18.421   9.119
 2249POPC   GL230710  41.669  18.131   9.075
 2249POPC   C1A30711  41.383  18.319   8.671
 2249POPC   D2A30712  41.694  18.242   8.333
 2249POPC   C3A30713  41.656  18.533   7.972
 2249POPC   C4A30714  41.391  18.454   7.623
 2249POPC   C1B30715  41.601  17.830   8.713
 2249POPC   C2B30716  41.439  17.793   8.278
 2249POPC   C3B30717  41.467  18.024   7.885
 2249POPC   C4B30718  41.308  17.971   7.449
 2250POPC   NC330719  36.754  27.058   9.565
 2250POPC   PO430720  36.165  26.580   9.574
 2250POPC   GL130721  36.262  26.666   9.178
 2250POPC   GL230722  36.365  26.993   9.240
 2250POPC   C1A30723  35.963  26.650   8.792
 2250POPC   D2A30724  36.025  26.430   8.380
 2250POPC   C3A30725  35.929  26.724   8.042
 2250POPC   C4A30726  35.747  26.760   7.612
 2250POPC   C1B30727  36.408  26.946   8.794
 2250POPC   C2B30728  36.262  26.909   8.396
 2250POPC   C3B30729  36.346  27.014   7.976
 2250POPC   C4B30730  36.075  27.118   7.676
 2251POPC   NC330731  29.196  43.480   9.478
 2251POPC   PO430732  29.350  42.822   9.716
 2251POPC   GL130733  29.400  43.036   9.323
 2251POPC   GL230734  29.038  43.048   9.228
 2251POPC   C1A30735  29.429  43.093   8.861
 2251POPC   D2A30736  29.261  43.134   8.426
 2251POPC   C3A30737  29.450  43.128   8.015
 2251POPC   C4A30738  29.513  43.049   7.567
 2251POPC   C1B30739  28.918  43.186   8.814
 2251POPC   C2B30740  28.798  43.344   8.407
 2251POPC   C3B30741  28.871  43.093   8.066
 2251POPC   C4B30742  28.992  43.147   7.670
 2252POPC   NC330743   3.437  22.547   9.272
 2252POPC   PO430744   3.311  22.020   9.659
 2252POPC   GL130745   3.597  22.079   9.169
 2252POPC   GL230746   3.850  22.303   9.132
 2252POPC   C1A30747   3.476  22.334   8.679
 2252POPC   D2A30748   3.183  22.380   8.316
 2252POPC   C3A30749   3.325  22.193   7.925
 2252POPC   C4A30750   3.358  21.736   7.805
 2252POPC   C1B30751   3.898  22.097   8.742
 2252POPC   C2B30752   3.821  22.239   8.306
 2252POPC   C3B30753   3.803  22.001   7.913
 2252POPC   C4B30754   3.848  22.080   7.470
 2253POPC   NC330755  34.157  14.296   9.283
 2253POPC   PO430756  33.721  14.766   9.354
 2253POPC   GL130757  33.755  14.471   9.049
 2253POPC   GL230758  33.562  14.159   9.190
 2253POPC   C1A30759  33.985  14.341   8.668
 2253POPC   D2A30760  33.934  14.215   8.257
 2253POPC   C3A30761  34.003  14.473   7.953
 2253POPC   C4A30762  33.767  14.296   7.615
 2253POPC   C1B30763  33.351  14.336   8.825
 2253POPC   C2B30764  33.523  14.459   8.460
 2253POPC   C3B30765  33.482  14.393   8.049
 2253POPC   C4B30766  33.598  14.760   7.811
 2254POPC   NC330767  19.228  24.182   9.480
 2254POPC   PO430768  19.028  24.891   9.456
 2254POPC   GL130769  18.981  24.799   9.079
 2254POPC   GL230770  19.001  24.471   9.111
 2254POPC   C1A30771  19.220  24.647   8.696
 2254POPC   D2A30772  19.398  24.304   8.460
 2254POPC   C3A30773  19.313  24.423   8.056
 2254POPC   C4A30774  19.043  24.704   7.831
 2254POPC   C1B30775  18.834  24.278   8.759
 2254POPC   C2B30776  18.884  24.410   8.345
 2254POPC   C3B30777  18.845  24.204   7.943
 2254POPC   C4B30778  18.699  24.409   7.537
 2255POPC   NC330779   3.350  16.361   9.704
 2255POPC   PO430780   3.428  17.032   9.638
 2255POPC   GL130781   3.637  16.854   9.276
 2255POPC   GL230782   3.622  16.484   9.274
 2255POPC   C1A30783   3.561  16.823   8.824
 2255POPC   D2A30784   3.395  16.693   8.418
 2255POPC   C3A30785   3.581  16.908   8.075
 2255POPC   C4A30786   3.399  16.819   7.703
 2255POPC   C1B30787   3.721  16.311   8.849
 2255POPC   C2B30788   3.723  16.235   8.398
 2255POPC   C3B30789   3.608  16.407   7.988
 2255POPC   C4B30790   3.776  16.435   7.549
 2256POPC   NC330791  41.057  43.876   9.313
 2256POPC   PO430792  40.471  43.991   9.655
 2256POPC   GL130793  40.445  43.831   9.223
 2256POPC   GL230794  40.690  43.574   9.124
 2256POPC   C1A30795  40.453  43.918   8.784
 2256POPC   D2A30796  40.624  43.960   8.373
 2256POPC   C3A30797  40.439  43.840   7.990
 2256POPC   C4A30798  40.568  43.852   7.583
 2256POPC   C1B30799  40.912  43.658   8.719
 2256POPC   C2B30800  41.067  43.714   8.306
 2256POPC   C3B30801  40.977  43.785   7.884
 2256POPC   C4B30802  41.202  44.166   7.708
 2257POPC   NC330803  36.372  23.036   9.418
 2257POPC   PO430804  35.758  22.757   9.532
 2257POPC   GL130805  35.993  22.797   9.100
 2257POPC   GL230806  36.125  23.106   8.970
 2257POPC   C1A30807  36.146  22.726   8.638
 2257POPC   D2A30808  35.978  22.463   8.260
 2257POPC   C3A30809  35.878  22.649   7.845
 2257POPC   C4A30810  36.116  22.947   7.608
 2257POPC   C1B30811  36.151  23.282   8.561
 2257POPC   C2B30812  36.158  23.159   8.137
 2257POPC   C3B30813  36.192  23.396   7.786
 2257POPC   C4B30814  36.450  23.341   7.432
 2258POPC   NC330815  13.572  37.766   9.438
 2258POPC   PO430816  13.985  37.274   9.668
 2258POPC   GL130817  13.866  37.431   9.179
 2258POPC   GL230818  13.507  37.580   9.000
 2258POPC   C1A30819  13.878  37.553   8.693
 2258POPC   D2A30820  13.952  37.925   8.501
 2258POPC   C3A30821  13.816  37.832   8.094
 2258POPC   C4A30822  13.617  37.728   7.727
 2258POPC   C1B30823  13.337  37.427   8.653
 2258POPC   C2B30824  13.342  37.456   8.220
 2258POPC   C3B30825  13.225  37.417   7.809
 2258POPC   C4B30826  13.175  37.672   7.435
 2259POPC   NC330827  30.308  22.429   9.826
 2259POPC   PO430828  30.874  22.373   9.387
 2259POPC   GL130829  30.715  22.193   9.041
 2259POPC   GL230830  30.993  22.088   8.884
 2259POPC   C1A30831  30.513  22.344   8.660
 2259POPC   D2A30832  30.624  22.671   8.360
 2259POPC   C3A30833  30.628  22.443   7.988
 2259POPC   C4A30834  30.441  22.099   7.800
 2259POPC   C1B30835  30.680  21.824   8.689
 2259POPC   C2B30836  30.616  21.931   8.270
 2259POPC   C3B30837  30.920  22.009   7.946
 2259POPC   C4B30838  31.043  21.812   7.566
 2260POPC   NC330839  21.620  18.464   9.492
 2260POPC   PO430840  21.238  18.006   9.652
 2260POPC   GL130841  21.248  18.032   9.199
 2260POPC   GL230842  21.284  18.401   9.100
 2260POPC   C1A30843  21.374  17.922   8.776
 2260POPC   D2A30844  21.637  17.872   8.427
 2260POPC   C3A30845  21.473  17.938   8.071
 2260POPC   C4A30846  21.456  18.176   7.718
 2260POPC   C1B30847  20.988  18.650   8.834
 2260POPC   C2B30848  20.855  18.555   8.406
 2260POPC   C3B30849  21.086  18.560   8.000
 2260POPC   C4B30850  21.420  18.679   7.695
 2261POPC   NC330851  13.423  44.315   9.566
 2261POPC   PO430852  14.071  44.522   9.627
 2261POPC   GL130853  14.050  44.463   9.167
 2261POPC   GL230854  13.748  44.655   9.054
 2261POPC   C1A30855  13.961  44.271   8.763
 2261POPC   D2A30856  13.694  44.524   8.492
 2261POPC   C3A30857  13.939  44.594   8.119
 2261POPC   C4A30858  13.966  44.393   7.684
 2261POPC   C1B30859  13.409  44.938   8.887
 2261POPC   C2B30860  13.319   0.027   8.444
 2261POPC   C3B30861  13.447  44.774   8.075
 2261POPC   C4B30862  13.742  44.854   7.724
 2262POPC   NC330863  34.473  42.899   9.740
 2262POPC   PO430864  34.845  43.393   9.438
 2262POPC   GL130865  34.615  43.089   9.178
 2262POPC   GL230866  34.783  42.781   9.197
 2262POPC   C1A30867  34.395  43.081   8.765
 2262POPC   D2A30868  34.560  43.073   8.351
 2262POPC   C3A30869  34.336  43.172   7.971
 2262POPC   C4A30870  34.292  43.604   7.754
 2262POPC   C1B30871  34.919  42.888   8.763
 2262POPC   C2B30872  34.998  42.813   8.312
 2262POPC   C3B30873  34.836  43.040   7.895
 2262POPC   C4B30874  34.580  43.235   7.518
 2263POPC   NC330875  15.915  11.036   9.503
 2263POPC   PO430876  15.422  11.560   9.620
 2263POPC   GL130877  15.776  11.561   9.272
 2263POPC   GL230878  16.115  11.644   9.175
 2263POPC   C1A30879  15.772  11.662   8.825
 2263POPC   D2A30880  15.852  11.443   8.493
 2263POPC   C3A30881  15.932  11.614   8.123
 2263POPC   C4A30882  15.748  11.417   7.801
 2263POPC   C1B30883  16.157  11.263   8.898
 2263POPC   C2B30884  16.229  11.135   8.456
 2263POPC   C3B30885  15.961  11.060   8.109
 2263POPC   C4B30886  15.928  10.947   7.644
 2264POPC   NC330887  13.636   0.305   9.564
 2264POPC   PO430888  13.311   0.968   9.503
 2264POPC   GL130889  13.472   0.730   9.175
 2264POPC   GL230890  13.457   0.380   9.117
 2264POPC   C1A30891  13.793   0.643   8.861
 2264POPC   D2A30892  14.001   0.558   8.484
 2264POPC   C3A30893  13.885   0.784   8.143
 2264POPC   C4A30894  13.925   0.704   7.720
 2264POPC   C1B30895  13.266   0.479   8.762
 2264POPC   C2B30896  13.494   0.568   8.400
 2264POPC   C3B30897  13.652   0.304   8.069
 2264POPC   C4B30898  13.226   0.218   7.918
 2265POPC   NC330899   0.995   7.113   9.356
 2265POPC   PO430900   1.002   7.795   9.393
 2265POPC   GL130901   1.337   7.614   9.149
 2265POPC   GL230902   1.485   7.279   9.212
 2265POPC   C1A30903   1.159   7.566   8.750
 2265POPC   D2A30904   0.945   7.616   8.375
 2265POPC   C3A30905   1.072   7.616   7.998
 2265POPC   C4A30906   1.246   7.576   7.600
 2265POPC   C1B30907   1.323   7.085   8.802
 2265POPC   C2B30908   1.337   7.261   8.378
 2265POPC   C3B30909   1.224   7.130   7.985
 2265POPC   C4B30910   1.333   6.801   7.732
 2266POPC   NC330911  43.434   0.513   9.492
 2266POPC   PO430912  43.022   0.035   9.759
 2266POPC   GL130913  43.022   0.220   9.293
 2266POPC   GL230914  42.978   0.603   9.244
 2266POPC   C1A30915  43.047   0.354   8.822
 2266POPC   D2A30916  42.877   0.190   8.460
 2266POPC   C3A30917  42.972   0.336   8.043
 2266POPC   C4A30918  43.320   0.280   7.769
 2266POPC   C1B30919  43.026   0.860   8.823
 2266POPC   C2B30920  43.203   0.858   8.431
 2266POPC   C3B30921  43.316   0.711   8.044
 2266POPC   C4B30922  43.042   0.893   7.801
 2267POPC   NC330923  38.514  39.962   9.533
 2267POPC   PO430924  38.999  40.436   9.473
 2267POPC   GL130925  38.634  40.201   9.126
 2267POPC   GL230926  38.317  39.978   9.063
 2267POPC   C1A30927  38.667  39.988   8.706
 2267POPC   D2A30928  38.831  39.970   8.301
 2267POPC   C3A30929  38.570  39.881   7.980
 2267POPC   C4A30930  38.569  40.082   7.605
 2267POPC   C1B30931  38.208  40.273   8.747
 2267POPC   C2B30932  38.384  40.316   8.334
 2267POPC   C3B30933  38.232  40.260   7.950
 2267POPC   C4B30934  38.103  39.890   7.729
 2268POPC   NC330935   6.099  28.453   9.517
 2268POPC   PO430936   5.427  28.489   9.496
 2268POPC   GL130937   5.714  28.467   9.134
 2268POPC   GL230938   5.969  28.713   9.097
 2268POPC   C1A30939   5.704  28.521   8.679
 2268POPC   D2A30940   5.943  28.619   8.317
 2268POPC   C3A30941   5.827  28.437   7.943
 2268POPC   C4A30942   5.883  28.023   7.840
 2268POPC   C1B30943   6.231  28.660   8.737
 2268POPC   C2B30944   6.375  28.345   8.438
 2268POPC   C3B30945   6.325  28.405   7.994
 2268POPC   C4B30946   6.179  28.786   7.827
 2269POPC   NC330947  33.865  20.668   9.716
 2269POPC   PO430948  34.410  20.380   9.531
 2269POPC   GL130949  34.561  20.695   9.229
 2269POPC   GL230950  34.893  20.846   9.293
 2269POPC   C1A30951  34.625  20.652   8.791
 2269POPC   D2A30952  34.580  20.954   8.472
 2269POPC   C3A30953  34.382  20.737   8.130
 2269POPC   C4A30954  34.214  20.656   7.724
 2269POPC   C1B30955  34.990  20.975   8.878
 2269POPC   C2B30956  35.062  20.772   8.503
 2269POPC   C3B30957  34.855  20.526   8.215
 2269POPC   C4B30958  34.753  20.595   7.790
 2270POPC   NC330959   8.368  37.353   9.401
 2270POPC   PO430960   8.120  38.046   9.395
 2270POPC   GL130961   8.236  37.780   9.105
 2270POPC   GL230962   7.931  37.595   9.118
 2270POPC   C1A30963   8.275  37.918   8.690
 2270POPC   D2A30964   8.480  38.084   8.330
 2270POPC   C3A30965   8.364  37.857   7.953
 2270POPC   C4A30966   8.558  37.496   7.744
 2270POPC   C1B30967   8.122  37.433   8.736
 2270POPC   C2B30968   8.261  37.359   8.307
 2270POPC   C3B30969   8.063  37.422   7.900
 2270POPC   C4B30970   8.083  37.497   7.452
 2271POPC   NC330971   4.097  43.037   9.615
 2271POPC   PO430972   4.631  43.382   9.490
 2271POPC   GL130973   4.414  43.045   9.190
 2271POPC   GL230974   4.026  42.903   9.144
 2271POPC   C1A30975   4.352  42.903   8.754
 2271POPC   D2A30976   4.339  43.198   8.405
 2271POPC   C3A30977   4.413  43.021   7.998
 2271POPC   C4A30978   4.053  42.904   7.767
 2271POPC   C1B30979   3.952  43.258   8.858
 2271POPC   C2B30980   3.845  43.366   8.408
 2271POPC   C3B30981   4.031  43.401   7.956
 2271POPC   C4B30982   4.090  43.345   7.469
 2272POPC   NC330983  19.132   2.438   9.395
 2272POPC   PO430984  18.795   2.964   9.596
 2272POPC   GL130985  19.143   2.935   9.273
 2272POPC   GL230986  18.925   3.052   9.019
 2272POPC   C1A30987  19.331   2.827   8.849
 2272POPC   D2A30988  19.073   2.891   8.479
 2272POPC   C3A30989  19.311   2.874   8.114
 2272POPC   C4A30990  19.248   3.007   7.681
 2272POPC   C1B30991  18.820   2.611   8.819
 2272POPC   C2B30992  18.806   2.447   8.372
 2272POPC   C3B30993  18.929   2.574   7.935
 2272POPC   C4B30994  18.932   2.509   7.448
 2273POPC   NC330995  37.368  13.516   9.649
 2273POPC   PO430996  37.854  13.874   9.940
 2273POPC   GL130997  37.704  13.826   9.398
 2273POPC   GL230998  37.496  13.569   9.178
 2273POPC   C1A30999  37.770  13.860   8.892
 2273POPC   D2A31000  37.975  13.678   8.508
 2273POPC   C3A31001  37.840  13.438   8.136
 2273POPC   C4A31002  37.903  13.567   7.711
 2273POPC   C1B31003  37.290  13.580   8.797
 2273POPC   C2B31004  37.394  13.572   8.370
 2273POPC   C3B31005  37.398  13.633   7.926
 2273POPC   C4B31006  37.486  13.256   7.721
 2274POPC   NC331007  11.283  37.319   9.586
 2274POPC   PO431008  11.099  36.655   9.505
 2274POPC   GL131009  11.314  36.845   9.117
 2274POPC   GL231010  11.358  37.163   9.106
 2274POPC   C1A31011  11.332  36.899   8.650
 2274POPC   D2A31012  11.438  37.164   8.353
 2274POPC   C3A31013  11.423  36.901   7.994
 2274POPC   C4A31014  11.218  36.971   7.643
 2274POPC   C1B31015  10.987  37.220   8.801
 2274POPC   C2B31016  10.856  37.116   8.397
 2274POPC   C3B31017  11.024  37.259   8.030
 2274POPC   C4B31018  10.868  37.435   7.680
 2275POPC   NC331019  28.759  12.652   9.442
 2275POPC   PO431020  28.081  12.749   9.519
 2275POPC   GL131021  28.286  12.936   9.133
 2275POPC   GL231022  28.633  12.853   8.944
 2275POPC   C1A31023  28.208  12.752   8.706
 2275POPC   D2A31024  28.484  12.656   8.391
 2275POPC   C3A31025  28.447  12.939   8.087
 2275POPC   C4A31026  28.505  13.109   7.710
 2275POPC   C1B31027  28.956  12.556   8.855
 2275POPC   C2B31028  29.032  12.464   8.477
 2275POPC   C3B31029  28.919  12.665   8.123
 2275POPC   C4B31030  28.684  12.598   7.760
 2276POPC   NC331031  29.821  35.173   9.411
 2276POPC   PO431032  29.826  35.862   9.686
 2276POPC   GL131033  30.010  35.733   9.226
 2276POPC   GL231034  30.061  35.375   9.040
 2276POPC   C1A31035  29.891  35.755   8.764
 2276POPC   D2A31036  29.751  35.380   8.562
 2276POPC   C3A31037  29.656  35.300   8.158
 2276POPC   C4A31038  29.740  35.300   7.739
 2276POPC   C1B31039  30.222  35.206   8.669
 2276POPC   C2B31040  30.208  35.526   8.365
 2276POPC   C3B31041  30.156  35.411   7.975
 2276POPC   C4B31042  30.164  35.481   7.548
 2277POPC   NC331043  16.112   8.711   9.426
 2277POPC   PO431044  15.931   9.342   9.388
 2277POPC   GL131045  15.713   8.958   9.193
 2277POPC   GL231046  15.391   9.094   9.117
 2277POPC   C1A31047  15.855   8.809   8.778
 2277POPC   D2A31048  16.012   9.162   8.496
 2277POPC   C3A31049  16.124   9.095   8.056
 2277POPC   C4A31050  16.146   8.718   7.788
 2277POPC   C1B31051  15.510   9.210   8.683
 2277POPC   C2B31052  15.585   9.175   8.215
 2277POPC   C3B31053  15.669   9.025   7.815
 2277POPC   C4B31054  15.605   9.251   7.464
 2278POPC   NC331055   5.562   1.032   9.466
 2278POPC   PO431056   6.218   1.424   9.477
 2278POPC   GL131057   6.045   1.089   9.240
 2278POPC   GL231058   5.777   1.293   9.090
 2278POPC   C1A31059   6.060   0.958   8.811
 2278POPC   D2A31060   5.802   1.006   8.446
 2278POPC   C3A31061   5.929   1.226   8.059
 2278POPC   C4A31062   6.121   1.166   7.648
 2278POPC   C1B31063   5.452   1.171   8.802
 2278POPC   C2B31064   5.296   1.027   8.395
 2278POPC   C3B31065   5.504   0.937   8.014
 2278POPC   C4B31066   5.611   1.193   7.647
 2279POPC   NC331067  13.246  15.036   9.589
 2279POPC   PO431068  12.601  14.994   9.391
 2279POPC   GL131069  12.751  15.316   9.125
 2279POPC   GL231070  13.082  15.186   9.112
 2279POPC   C1A31071  12.854  15.343   8.686
 2279POPC   D2A31072  12.569  15.147   8.378
 2279POPC   C3A31073  12.660  15.286   7.961
 2279POPC   C4A31074  12.671  15.025   7.591
 2279POPC   C1B31075  13.099  14.917   8.724
 2279POPC   C2B31076  13.063  15.083   8.312
 2279POPC   C3B31077  12.956  14.872   7.973
 2279POPC   C4B31078  13.143  14.802   7.615
 2280POPC   NC331079  40.063   5.886   9.679
 2280POPC   PO431080  39.535   6.040   9.289
 2280POPC   GL131081  39.956   5.889   9.181
 2280POPC   GL231082  40.156   6.192   9.158
 2280POPC   C1A31083  40.120   5.632   8.857
 2280POPC   D2A31084  39.864   5.634   8.500
 2280POPC   C3A31085  39.970   5.926   8.204
 2280POPC   C4A31086  40.018   5.894   7.771
 2280POPC   C1B31087  40.078   6.175   8.683
 2280POPC   C2B31088  40.386   6.184   8.313
 2280POPC   C3B31089  40.400   6.224   7.829
 2280POPC   C4B31090  40.288   6.139   7.383
 2281POPC   NC331091  14.476  28.571   9.453
 2281POPC   PO431092  13.949  28.147   9.415
 2281POPC   GL131093  14.176  28.337   9.085
 2281POPC   GL231094  14.548  28.318   9.015
 2281POPC   C1A31095  14.173  28.264   8.660
 2281POPC   D2A31096  14.342  27.982   8.364
 2281POPC   C3A31097  14.200  28.066   7.923
 2281POPC   C4A31098  14.105  28.100   7.460
 2281POPC   C1B31099  14.669  28.322   8.589
 2281POPC   C2B31100  14.916  28.127   8.304
 2281POPC   C3B31101  14.899  28.154   7.887
 2281POPC   C4B31102  14.572  28.196   7.624
 2282POPC   NC331103  21.915  33.242   9.600
 2282POPC   PO431104  22.306  33.838   9.446
 2282POPC   GL131105  22.303  33.766   9.025
 2282POPC   GL231106  22.350  33.433   9.111
 2282POPC   C1A31107  22.233  33.899   8.584
 2282POPC   D2A31108  22.265  33.978   8.161
 2282POPC   C3A31109  22.477  33.702   7.946
 2282POPC   C4A31110  22.154  33.729   7.696
 2282POPC   C1B31111  22.127  33.397   8.702
 2282POPC   C2B31112  22.093  33.456   8.229
 2282POPC   C3B31113  22.015  33.237   7.828
 2282POPC   C4B31114  21.937  33.386   7.391
 2283POPC   NC331115  17.993   0.721   9.736
 2283POPC   PO431116  18.515   1.029   9.444
 2283POPC   GL131117  18.486   0.559   9.238
 2283POPC   GL231118  18.139   0.342   9.169
 2283POPC   C1A31119  18.496   0.467   8.789
 2283POPC   D2A31120  18.159   0.589   8.479
 2283POPC   C3A31121  18.326   0.557   8.065
 2283POPC   C4A31122  18.166   0.719   7.673
 2283POPC   C1B31123  18.093   0.138   8.732
 2283POPC   C2B31124  18.083   0.124   8.249
 2283POPC   C3B31125  17.925   0.315   7.856
 2283POPC   C4B31126  17.959   0.326   7.380
 2284POPC   NC331127  39.516  28.251   9.598
 2284POPC   PO431128  39.184  28.846   9.414
 2284POPC   GL131129  39.210  28.592   9.083
 2284POPC   GL231130  39.409  28.326   9.121
 2284POPC   C1A31131  39.258  28.592   8.649
 2284POPC   D2A31132  39.016  28.785   8.323
 2284POPC   C3A31133  39.126  28.645   7.898
 2284POPC   C4A31134  39.155  28.458   7.477
 2284POPC   C1B31135  39.167  28.105   8.824
 2284POPC   C2B31136  39.317  28.082   8.412
 2284POPC   C3B31137  39.192  28.132   7.992
 2284POPC   C4B31138  39.405  28.025   7.630
 2285POPC   NC331139  41.834  41.128   9.479
 2285POPC   PO431140  41.273  40.730   9.646
 2285POPC   GL131141  41.421  40.845   9.232
 2285POPC   GL231142  41.743  40.690   9.195
 2285POPC   C1A31143  41.285  40.850   8.787
 2285POPC   D2A31144  41.332  40.757   8.332
 2285POPC   C3A31145  41.369  41.099   8.035
 2285POPC   C4A31146  41.538  41.052   7.608
 2285POPC   C1B31147  41.790  40.947   8.814
 2285POPC   C2B31148  41.874  40.824   8.406
 2285POPC   C3B31149  41.870  40.989   8.001
 2285POPC   C4B31150  42.025  40.940   7.615
 2286POPC   NC331151   8.033  32.060   9.563
 2286POPC   PO431152   8.663  32.313   9.553
 2286POPC   GL131153   8.349  32.340   9.216
 2286POPC   GL231154   8.325  31.990   9.163
 2286POPC   C1A31155   8.237  32.493   8.789
 2286POPC   D2A31156   8.304  32.294   8.369
 2286POPC   C3A31157   8.198  32.494   7.991
 2286POPC   C4A31158   8.392  32.420   7.574
 2286POPC   C1B31159   8.169  31.988   8.771
 2286POPC   C2B31160   7.819  32.149   8.531
 2286POPC   C3B31161   7.775  32.152   8.089
 2286POPC   C4B31162   7.945  32.176   7.664
 2287POPC   NC331163  32.509  30.719   9.553
 2287POPC   PO431164  32.015  31.001   9.242
 2287POPC   GL131165  32.335  30.757   9.060
 2287POPC   GL231166  32.297  30.403   9.087
 2287POPC   C1A31167  32.354  30.761   8.626
 2287POPC   D2A31168  32.333  31.103   8.369
 2287POPC   C3A31169  32.030  31.007   8.089
 2287POPC   C4A31170  32.104  30.865   7.683
 2287POPC   C1B31171  32.629  30.352   8.763
 2287POPC   C2B31172  32.711  30.478   8.345
 2287POPC   C3B31173  32.445  30.639   8.018
 2287POPC   C4B31174  32.406  30.448   7.594
 2288POPC   NC331175  24.151   1.318   9.555
 2288POPC   PO431176  24.633   1.702   9.698
 2288POPC   GL131177  24.514   1.277   9.214
 2288POPC   GL231178  24.257   1.434   9.059
 2288POPC   C1A31179  24.656   1.270   8.753
 2288POPC   D2A31180  24.349   1.417   8.482
 2288POPC   C3A31181  24.572   1.458   8.122
 2288POPC   C4A31182  24.560   1.527   7.709
 2288POPC   C1B31183  24.231   1.047   8.867
 2288POPC   C2B31184  24.286   0.909   8.471
 2288POPC   C3B31185  24.207   1.083   8.073
 2288POPC   C4B31186  24.460   1.022   7.753
 2289POPC   NC331187  34.693   8.267   9.621
 2289POPC   PO431188  34.385   7.741   9.855
 2289POPC   GL131189  34.372   7.824   9.358
 2289POPC   GL231190  34.679   7.899   9.165
 2289POPC   C1A31191  34.280   8.107   8.942
 2289POPC   D2A31192  34.242   7.985   8.464
 2289POPC   C3A31193  34.432   8.214   8.076
 2289POPC   C4A31194  34.456   8.555   7.738
 2289POPC   C1B31195  34.764   8.061   8.732
 2289POPC   C2B31196  34.938   8.160   8.293
 2289POPC   C3B31197  35.077   8.113   7.844
 2289POPC   C4B31198  34.998   8.080   7.399
 2290POPC   NC331199  44.791  31.981   9.614
 2290POPC   PO431200  44.360  32.381   9.468
 2290POPC   GL131201  44.506  32.236   9.108
 2290POPC   GL231202  44.475  31.900   9.166
 2290POPC   C1A31203  44.628  32.327   8.694
 2290POPC   D2A31204  44.724  32.532   8.315
 2290POPC   C3A31205  44.667  32.283   7.972
 2290POPC   C4A31206  44.760  32.381   7.559
 2290POPC   C1B31207  44.883  31.938   8.931
 2290POPC   C2B31208   0.021  32.031   8.511
 2290POPC   C3B31209   0.027  31.949   8.080
 2290POPC   C4B31210  44.940  31.929   7.641
 2291POPC   NC331211  34.949  22.448   9.471
 2291POPC   PO431212  35.300  21.869   9.494
 2291POPC   GL131213  35.055  22.061   9.135
 2291POPC   GL231214  34.978  21.776   9.021
 2291POPC   C1A31215  35.062  22.162   8.648
 2291POPC   D2A31216  35.487  22.147   8.399
 2291POPC   C3A31217  35.456  22.332   8.005
 2291POPC   C4A31218  35.069  22.286   7.739
 2291POPC   C1B31219  35.398  21.844   8.825
 2291POPC   C2B31220  35.189  21.727   8.420
 2291POPC   C3B31221  35.132  21.846   8.004
 2291POPC   C4B31222  35.458  21.928   7.691
 2292POPC   NC331223   2.612  14.852   9.395
 2292POPC   PO431224   3.118  15.357   9.498
 2292POPC   GL131225   2.922  15.281   9.153
 2292POPC   GL231226   2.598  15.288   9.148
 2292POPC   C1A31227   2.930  15.120   8.781
 2292POPC   D2A31228   2.869  15.310   8.408
 2292POPC   C3A31229   2.641  15.192   8.086
 2292POPC   C4A31230   2.837  15.100   7.690
 2292POPC   C1B31231   2.434  15.142   8.738
 2292POPC   C2B31232   2.474  14.817   8.416
 2292POPC   C3B31233   2.609  14.694   7.984
 2292POPC   C4B31234   2.439  14.808   7.610
 2293POPC   NC331235   7.748  12.196   9.398
 2293POPC   PO431236   7.380  11.583   9.286
 2293POPC   GL131237   7.390  11.957   9.088
 2293POPC   GL231238   7.733  11.904   8.986
 2293POPC   C1A31239   7.379  11.948   8.638
 2293POPC   D2A31240   7.312  11.750   8.291
 2293POPC   C3A31241   7.162  12.030   8.049
 2293POPC   C4A31242   7.326  12.056   7.696
 2293POPC   C1B31243   7.659  12.349   8.792
 2293POPC   C2B31244   7.502  12.429   8.391
 2293POPC   C3B31245   7.659  12.262   8.015
 2293POPC   C4B31246   7.580  12.480   7.663
 2294POPC   NC331247   4.669   1.353   9.487
 2294POPC   PO431248   5.361   1.450   9.488
 2294POPC   GL131249   5.072   1.343   9.113
 2294POPC   GL231250   4.746   1.215   9.027
 2294POPC   C1A31251   5.027   1.411   8.649
 2294POPC   D2A31252   5.372   1.568   8.415
 2294POPC   C3A31253   5.410   1.433   8.028
 2294POPC   C4A31254   5.119   1.338   7.678
 2294POPC   C1B31255   4.660   1.051   8.650
 2294POPC   C2B31256   4.818   1.119   8.259
 2294POPC   C3B31257   4.996   0.925   7.937
 2294POPC   C4B31258   4.832   0.799   7.541
 2295POPC   NC331259  40.083  22.226   9.581
 2295POPC   PO431260  39.687  21.693   9.407
 2295POPC   GL131261  40.000  21.953   9.157
 2295POPC   GL231262  39.975  22.342   9.094
 2295POPC   C1A31263  40.111  22.015   8.753
 2295POPC   D2A31264  39.857  22.085   8.414
 2295POPC   C3A31265  40.102  22.311   8.108
 2295POPC   C4A31266  40.152  22.172   7.714
 2295POPC   C1B31267  39.902  22.521   8.669
 2295POPC   C2B31268  39.666  22.525   8.256
 2295POPC   C3B31269  39.712  22.474   7.794
 2295POPC   C4B31270  39.742  22.716   7.395
 2296POPC   NC331271  21.594  26.770   9.406
 2296POPC   PO431272  21.141  27.054   9.784
 2296POPC   GL131273  21.106  26.830   9.247
 2296POPC   GL231274  21.112  26.475   9.099
 2296POPC   C1A31275  21.183  26.847   8.764
 2296POPC   D2A31276  21.511  26.875   8.435
 2296POPC   C3A31277  21.360  27.020   8.051
 2296POPC   C4A31278  21.042  26.807   7.817
 2296POPC   C1B31279  21.526  26.485   8.824
 2296POPC   C2B31280  21.558  26.367   8.366
 2296POPC   C3B31281  21.527  26.560   7.964
 2296POPC   C4B31282  21.779  26.569   7.635
 2297POPC   NC331283   4.746   5.621   9.662
 2297POPC   PO431284   5.381   5.950   9.602
 2297POPC   GL131285   5.052   5.831   9.259
 2297POPC   GL231286   4.972   5.441   9.236
 2297POPC   C1A31287   5.025   6.034   8.807
 2297POPC   D2A31288   4.770   6.083   8.396
 2297POPC   C3A31289   4.899   6.167   7.973
 2297POPC   C4A31290   5.203   5.993   7.695
 2297POPC   C1B31291   4.762   5.575   8.878
 2297POPC   C2B31292   4.631   5.600   8.442
 2297POPC   C3B31293   4.879   5.664   8.049
 2297POPC   C4B31294   5.281   5.524   7.873
 2298POPC   NC331295  15.683   1.805   9.497
 2298POPC   PO431296  16.263   2.212   9.480
 2298POPC   GL131297  16.011   2.020   9.196
 2298POPC   GL231298  15.733   2.269   9.178
 2298POPC   C1A31299  16.091   1.768   8.852
 2298POPC   D2A31300  16.095   1.798   8.425
 2298POPC   C3A31301  16.381   1.760   8.092
 2298POPC   C4A31302  16.258   1.855   7.662
 2298POPC   C1B31303  15.903   2.238   8.751
 2298POPC   C2B31304  15.732   2.143   8.360
 2298POPC   C3B31305  15.886   2.024   7.958
 2298POPC   C4B31306  15.890   2.205   7.514
 2299POPC   NC331307  32.825  10.164   9.517
 2299POPC   PO431308  33.257  10.752   9.624
 2299POPC   GL131309  33.246  10.643   9.217
 2299POPC   GL231310  33.040  10.378   9.118
 2299POPC   C1A31311  33.231  10.696   8.786
 2299POPC   D2A31312  32.963  10.512   8.482
 2299POPC   C3A31313  33.056  10.631   8.063
 2299POPC   C4A31314  32.926  10.521   7.654
 2299POPC   C1B31315  32.689  10.279   8.863
 2299POPC   C2B31316  32.620  10.104   8.459
 2299POPC   C3B31317  32.656  10.296   8.082
 2299POPC   C4B31318  32.509  10.232   7.693
 2300POPC   NC331319  15.737  32.231   9.460
 2300POPC   PO431320  16.468  32.181   9.632
 2300POPC   GL131321  16.202  32.322   9.240
 2300POPC   GL231322  15.993  32.619   9.262
 2300POPC   C1A31323  16.075  32.206   8.809
 2300POPC   D2A31324  16.241  32.035   8.403
 2300POPC   C3A31325  16.110  32.134   7.992
 2300POPC   C4A31326  16.085  31.908   7.584
 2300POPC   C1B31327  15.929  32.688   8.813
 2300POPC   C2B31328  16.059  32.533   8.390
 2300POPC   C3B31329  16.051  32.666   7.955
 2300POPC   C4B31330  15.779  32.750   7.576
 2301POPC   NC331331  33.026  34.255   9.497
 2301POPC   PO431332  32.682  34.801   9.595
 2301POPC   GL131333  32.731  34.537   9.209
 2301POPC   GL231334  33.026  34.652   9.093
 2301POPC   C1A31335  32.847  34.267   8.837
 2301POPC   D2A31336  32.969  34.174   8.429
 2301POPC   C3A31337  33.147  34.348   8.106
 2301POPC   C4A31338  32.985  34.342   7.710
 2301POPC   C1B31339  33.174  34.618   8.688
 2301POPC   C2B31340  32.874  34.686   8.380
 2301POPC   C3B31341  32.861  34.781   7.967
 2301POPC   C4B31342  33.210  34.795   7.736
 2302POPC   NC331343  34.860   6.257   9.403
 2302POPC   PO431344  34.313   5.849   9.542
 2302POPC   GL131345  34.414   5.690   9.129
 2302POPC   GL231346  34.219   5.982   8.982
 2302POPC   C1A31347  34.580   5.729   8.683
 2302POPC   D2A31348  34.423   5.978   8.326
 2302POPC   C3A31349  34.651   5.970   7.929
 2302POPC   C4A31350  34.621   5.687   7.559
 2302POPC   C1B31351  34.073   5.637   8.749
 2302POPC   C2B31352  34.241   5.456   8.361
 2302POPC   C3B31353  34.234   5.657   7.958
 2302POPC   C4B31354  34.089   5.660   7.544
 2303POPC   NC331355   5.187  38.011   9.371
 2303POPC   PO431356   5.285  37.367   9.176
 2303POPC   GL131357   5.269  37.723   8.940
 2303POPC   GL231358   5.463  38.006   8.954
 2303POPC   C1A31359   5.383  37.619   8.541
 2303POPC   D2A31360   5.084  37.487   8.311
 2303POPC   C3A31361   5.117  37.396   7.942
 2303POPC   C4A31362   4.825  37.687   7.780
 2303POPC   C1B31363   5.366  38.128   8.590
 2303POPC   C2B31364   5.446  37.995   8.214
 2303POPC   C3B31365   5.313  37.868   7.846
 2303POPC   C4B31366   5.571  37.951   7.534
 2304POPC   NC331367  42.572   2.383   9.305
 2304POPC   PO431368  43.154   2.594   9.602
 2304POPC   GL131369  43.048   2.634   9.121
 2304POPC   GL231370  42.875   2.949   8.967
 2304POPC   C1A31371  43.277   2.700   8.732
 2304POPC   D2A31372  43.335   2.467   8.387
 2304POPC   C3A31373  43.332   2.686   8.049
 2304POPC   C4A31374  43.190   2.635   7.711
 2304POPC   C1B31375  42.770   2.671   8.675
 2304POPC   C2B31376  42.860   2.616   8.235
 2304POPC   C3B31377  42.847   2.947   7.967
 2304POPC   C4B31378  42.918   3.029   7.562
 2305POPC   NC331379  28.799  29.792   9.580
 2305POPC   PO431380  28.131  30.134   9.593
 2305POPC   GL131381  28.402  29.926   9.301
 2305POPC   GL231382  28.229  30.073   9.068
 2305POPC   C1A31383  28.523  29.651   8.940
 2305POPC   D2A31384  28.580  29.668   8.480
 2305POPC   C3A31385  28.260  29.805   8.195
 2305POPC   C4A31386  28.353  29.911   7.820
 2305POPC   C1B31387  28.193  29.995   8.656
 2305POPC   C2B31388  28.009  30.237   8.323
 2305POPC   C3B31389  27.997  30.246   7.887
 2305POPC   C4B31390  27.986  30.537   7.556
 2306POPC   NC331391   6.498  24.106   9.868
 2306POPC   PO431392   6.690  24.659   9.422
 2306POPC   GL131393   6.676  24.558   9.012
 2306POPC   GL231394   6.392  24.509   9.022
 2306POPC   C1A31395   6.642  24.471   8.568
 2306POPC   D2A31396   6.340  24.540   8.277
 2306POPC   C3A31397   6.616  24.553   7.970
 2306POPC   C4A31398   6.711  24.525   7.581
 2306POPC   C1B31399   6.196  24.324   8.730
 2306POPC   C2B31400   6.354  24.045   8.455
 2306POPC   C3B31401   6.564  24.056   8.100
 2306POPC   C4B31402   6.404  24.047   7.692
 2307POPC   NC331403  37.366  41.397   9.489
 2307POPC   PO431404  36.725  41.510   9.441
 2307POPC   GL131405  36.997  41.565   9.131
 2307POPC   GL231406  37.085  41.227   9.094
 2307POPC   C1A31407  37.018  41.854   8.805
 2307POPC   D2A31408  36.875  42.079   8.452
 2307POPC   C3A31409  37.067  41.985   8.048
 2307POPC   C4A31410  36.984  41.640   7.763
 2307POPC   C1B31411  37.160  41.355   8.684
 2307POPC   C2B31412  37.124  41.155   8.321
 2307POPC   C3B31413  37.287  41.223   7.921
 2307POPC   C4B31414  37.484  41.579   7.716
 2308POPC   NC331415  34.397  22.925   9.629
 2308POPC   PO431416  35.047  22.802   9.748
 2308POPC   GL131417  34.910  22.935   9.305
 2308POPC   GL231418  34.595  23.136   9.201
 2308POPC   C1A31419  34.859  22.898   8.848
 2308POPC   D2A31420  34.638  23.105   8.525
 2308POPC   C3A31421  34.658  23.012   8.096
 2308POPC   C4A31422  34.604  22.643   7.859
 2308POPC   C1B31423  34.363  22.820   8.934
 2308POPC   C2B31424  34.186  22.829   8.497
 2308POPC   C3B31425  34.178  22.827   8.063
 2308POPC   C4B31426  34.264  23.143   7.770
 2309POPC   NC331427  16.578  15.920   9.861
 2309POPC   PO431428  16.597  15.534   9.358
 2309POPC   GL131429  16.653  15.814   9.091
 2309POPC   GL231430  16.415  16.082   9.132
 2309POPC   C1A31431  16.829  15.791   8.734
 2309POPC   D2A31432  16.750  15.907   8.341
 2309POPC   C3A31433  17.009  15.816   8.000
 2309POPC   C4A31434  17.255  16.100   7.726
 2309POPC   C1B31435  16.336  15.973   8.717
 2309POPC   C2B31436  16.175  15.939   8.343
 2309POPC   C3B31437  16.401  15.922   7.982
 2309POPC   C4B31438  16.723  16.225   7.857
 2310POPC   NC331439  39.240   1.798   9.312
 2310POPC   PO431440  39.217   1.056   9.478
 2310POPC   GL131441  39.187   1.304   9.142
 2310POPC   GL231442  38.877   1.469   9.177
 2310POPC   C1A31443  39.273   1.334   8.729
 2310POPC   D2A31444  39.041   1.163   8.414
 2310POPC   C3A31445  39.196   1.115   8.046
 2310POPC   C4A31446  39.369   1.222   7.699
 2310POPC   C1B31447  38.762   1.449   8.736
 2310POPC   C2B31448  38.746   1.568   8.283
 2310POPC   C3B31449  39.132   1.667   8.051
 2310POPC   C4B31450  39.246   1.695   7.599
 2311POPC   NC331451  37.180  11.834   9.550
 2311POPC   PO431452  36.624  12.126   9.673
 2311POPC   GL131453  36.673  12.162   9.240
 2311POPC   GL231454  36.403  11.973   9.068
 2311POPC   C1A31455  36.996  12.344   8.972
 2311POPC   D2A31456  37.121  12.442   8.537
 2311POPC   C3A31457  37.175  12.225   8.100
 2311POPC   C4A31458  37.066  12.341   7.685
 2311POPC   C1B31459  36.536  12.234   8.738
 2311POPC   C2B31460  36.735  12.143   8.386
 2311POPC   C3B31461  36.686  12.168   7.983
 2311POPC   C4B31462  36.853  11.875   7.767
 2312POPC   NC331463  21.220  34.775   9.580
 2312POPC   PO431464  21.517  34.259   9.340
 2312POPC   GL131465  21.449  34.682   9.137
 2312POPC   GL231466  21.105  34.870   9.105
 2312POPC   C1A31467  21.600  34.687   8.744
 2312POPC   D2A31468  21.421  34.472   8.410
 2312POPC   C3A31469  21.578  34.619   8.042
 2312POPC   C4A31470  21.431  34.597   7.658
 2312POPC   C1B31471  21.052  34.601   8.790
 2312POPC   C2B31472  20.884  34.591   8.403
 2312POPC   C3B31473  21.075  34.657   8.034
 2312POPC   C4B31474  21.033  34.282   7.855
 2313POPC   NC331475  16.801  44.111   9.397
 2313POPC   PO431476  16.446  43.473   9.479
 2313POPC   GL131477  16.506  43.733   9.156
 2313POPC   GL231478  16.863  43.650   9.167
 2313POPC   C1A31479  16.538  44.010   8.785
 2313POPC   D2A31480  16.781  44.047   8.394
 2313POPC   C3A31481  16.585  43.883   7.988
 2313POPC   C4A31482  16.429  44.167   7.653
 2313POPC   C1B31483  17.013  43.769   8.759
 2313POPC   C2B31484  17.064  43.657   8.290
 2313POPC   C3B31485  17.056  43.725   7.827
 2313POPC   C4B31486  17.148  43.826   7.382
 2314POPC   NC331487  30.474  30.742   9.213
 2314POPC   PO431488  31.058  31.121   9.363
 2314POPC   GL131489  30.911  30.885   9.017
 2314POPC   GL231490  30.905  30.510   9.028
 2314POPC   C1A31491  30.728  30.840   8.629
 2314POPC   D2A31492  30.552  31.057   8.279
 2314POPC   C3A31493  30.440  30.851   7.891
 2314POPC   C4A31494  30.718  30.910   7.545
 2314POPC   C1B31495  30.730  30.313   8.685
 2314POPC   C2B31496  30.517  30.479   8.321
 2314POPC   C3B31497  30.655  30.389   7.931
 2314POPC   C4B31498  30.502  30.409   7.530
 2315POPC   NC331499  22.359  41.053   9.584
 2315POPC   PO431500  22.161  41.741   9.481
 2315POPC   GL131501  22.204  41.560   9.118
 2315POPC   GL231502  22.416  41.335   9.182
 2315POPC   C1A31503  22.213  41.683   8.710
 2315POPC   D2A31504  22.311  41.994   8.433
 2315POPC   C3A31505  22.296  41.864   8.049
 2315POPC   C4A31506  22.318  41.820   7.628
 2315POPC   C1B31507  22.499  41.262   8.786
 2315POPC   C2B31508  22.218  41.157   8.455
 2315POPC   C3B31509  22.313  41.307   8.064
 2315POPC   C4B31510  22.319  41.291   7.627
 2316POPC   NC331511  23.612   9.160   9.353
 2316POPC   PO431512  24.101   8.750   9.519
 2316POPC   GL131513  23.869   8.673   9.113
 2316POPC   GL231514  23.519   8.778   8.958
 2316POPC   C1A31515  23.920   8.688   8.655
 2316POPC   D2A31516  23.777   8.779   8.216
 2316POPC   C3A31517  23.800   8.507   7.865
 2316POPC   C4A31518  23.571   8.471   7.453
 2316POPC   C1B31519  23.285   9.161   8.769
 2316POPC   C2B31520  23.364   9.393   8.401
 2316POPC   C3B31521  23.546   9.261   8.017
 2316POPC   C4B31522  23.573   8.938   7.752
 2317POPC   NC331523  44.103  21.641   9.284
 2317POPC   PO431524  43.602  21.389   9.563
 2317POPC   GL131525  43.640  21.494   9.095
 2317POPC   GL231526  43.817  21.846   8.929
 2317POPC   C1A31527  43.653  21.281   8.681
 2317POPC   D2A31528  43.759  21.344   8.240
 2317POPC   C3A31529  43.673  21.139   7.888
 2317POPC   C4A31530  43.758  21.239   7.458
 2317POPC   C1B31531  44.096  21.570   8.628
 2317POPC   C2B31532  44.299  21.463   8.224
 2317POPC   C3B31533  44.099  21.402   7.809
 2317POPC   C4B31534  44.149  21.610   7.361
 2318POPC   NC331535  44.626  44.524   9.466
 2318POPC   PO431536  44.457   0.078   9.095
 2318POPC   GL131537  44.606  44.671   8.984
 2318POPC   GL231538  44.919  44.799   8.985
 2318POPC   C1A31539  44.868  44.360   8.733
 2318POPC   D2A31540   0.022  44.402   8.311
 2318POPC   C3A31541  44.688  44.371   7.995
 2318POPC   C4A31542  44.492  44.646   7.665
 2318POPC   C1B31543  44.759  44.873   8.545
 2318POPC   C2B31544  44.764  44.858   8.122
 2318POPC   C3B31545  44.961  44.808   7.734
 2318POPC   C4B31546  44.944   0.089   7.380
 2319POPC   NC331547   9.461  13.735   9.490
 2319POPC   PO431548  10.055  13.490   9.365
 2319POPC   GL131549  10.017  13.790   8.990
 2319POPC   GL231550   9.659  13.869   8.889
 2319POPC   C1A31551  10.030  13.779   8.557
 2319POPC   D2A31552   9.861  13.404   8.427
 2319POPC   C3A31553   9.947  13.387   8.036
 2319POPC   C4A31554   9.983  13.823   7.887
 2319POPC   C1B31555   9.536  13.459   8.824
 2319POPC   C2B31556   9.348  13.478   8.409
 2319POPC   C3B31557   9.509  13.641   8.031
 2319POPC   C4B31558   9.632  13.510   7.640
 2320POPC   NC331559  27.047  15.876   9.590
 2320POPC   PO431560  26.622  16.248   9.459
 2320POPC   GL131561  26.838  15.987   9.145
 2320POPC   GL231562  26.912  15.592   9.191
 2320POPC   C1A31563  26.709  16.023   8.749
 2320POPC   D2A31564  26.615  15.863   8.364
 2320POPC   C3A31565  26.627  16.071   8.009
 2320POPC   C4A31566  26.955  16.127   7.740
 2320POPC   C1B31567  27.091  15.657   8.780
 2320POPC   C2B31568  26.969  15.494   8.375
 2320POPC   C3B31569  27.010  15.695   7.984
 2320POPC   C4B31570  27.183  15.682   7.548
 2321POPC   NC331571   5.513  42.258   9.528
 2321POPC   PO431572   6.066  42.584   9.302
 2321POPC   GL131573   5.815  42.354   9.073
 2321POPC   GL231574   5.911  42.066   9.237
 2321POPC   C1A31575   5.631  42.515   8.692
 2321POPC   D2A31576   5.815  42.472   8.285
 2321POPC   C3A31577   5.548  42.212   8.043
 2321POPC   C4A31578   5.818  42.295   7.727
 2321POPC   C1B31579   6.041  41.929   8.865
 2321POPC   C2B31580   5.862  41.999   8.467
 2321POPC   C3B31581   5.956  41.898   8.051
 2321POPC   C4B31582   6.238  42.023   7.726
 2322POPC   NC331583  34.284  36.378   9.694
 2322POPC   PO431584  34.694  35.915   9.407
 2322POPC   GL131585  34.692  36.092   9.048
 2322POPC   GL231586  34.586  36.450   9.117
 2322POPC   C1A31587  34.638  35.902   8.675
 2322POPC   D2A31588  34.798  36.032   8.329
 2322POPC   C3A31589  34.708  35.835   7.983
 2322POPC   C4A31590  34.369  35.769   7.727
 2322POPC   C1B31591  34.722  36.438   8.680
 2322POPC   C2B31592  34.665  36.502   8.238
 2322POPC   C3B31593  34.451  36.278   7.894
 2322POPC   C4B31594  34.373  36.299   7.436
 2323POPC   NC331595  39.121  20.559   9.454
 2323POPC   PO431596  39.742  20.390   9.576
 2323POPC   GL131597  39.518  20.374   9.152
 2323POPC   GL231598  39.340  20.706   9.021
 2323POPC   C1A31599  39.288  20.235   8.762
 2323POPC   D2A31600  39.113  20.336   8.320
 2323POPC   C3A31601  39.382  20.573   7.987
 2323POPC   C4A31602  39.658  20.844   7.728
 2323POPC   C1B31603  38.974  20.676   8.716
 2323POPC   C2B31604  38.849  20.921   8.339
 2323POPC   C3B31605  38.828  20.805   7.880
 2323POPC   C4B31606  38.795  21.002   7.469
 2324POPC   NC331607  41.078   9.095   9.552
 2324POPC   PO431608  40.499   9.329   9.611
 2324POPC   GL131609  40.513   9.142   9.169
 2324POPC   GL231610  40.849   8.990   9.096
 2324POPC   C1A31611  40.521   9.008   8.694
 2324POPC   D2A31612  40.690   8.980   8.245
 2324POPC   C3A31613  40.371   8.995   7.884
 2324POPC   C4A31614  40.423   9.055   7.412
 2324POPC   C1B31615  41.038   8.935   8.675
 2324POPC   C2B31616  41.296   8.834   8.340
 2324POPC   C3B31617  41.239   8.851   7.902
 2324POPC   C4B31618  40.866   9.039   7.714
 2325POPC   NC331619  32.968  15.501   9.322
 2325POPC   PO431620  33.231  16.072   9.804
 2325POPC   GL131621  33.246  16.020   9.222
 2325POPC   GL231622  33.342  15.694   8.991
 2325POPC   C1A31623  33.005  16.006   8.793
 2325POPC   D2A31624  32.693  15.857   8.473
 2325POPC   C3A31625  32.662  16.113   8.118
 2325POPC   C4A31626  32.946  16.241   7.766
 2325POPC   C1B31627  33.537  16.040   8.790
 2325POPC   C2B31628  33.403  16.147   8.400
 2325POPC   C3B31629  33.144  15.957   8.129
 2325POPC   C4B31630  32.910  15.734   7.841
 2326POPC   NC331631  41.086  13.276   9.395
 2326POPC   PO431632  40.498  13.586   9.469
 2326POPC   GL131633  40.662  13.418   9.137
 2326POPC   GL231634  40.936  13.706   9.134
 2326POPC   C1A31635  40.566  13.545   8.769
 2326POPC   D2A31636  40.763  13.857   8.640
 2326POPC   C3A31637  40.692  13.850   8.206
 2326POPC   C4A31638  40.746  13.888   7.763
 2326POPC   C1B31639  41.069  13.451   8.772
 2326POPC   C2B31640  40.955  13.428   8.371
 2326POPC   C3B31641  40.819  13.386   7.971
 2326POPC   C4B31642  41.060  13.482   7.630
 2327POPC   NC331643  31.788  17.655   9.588
 2327POPC   PO431644  31.262  17.127   9.431
 2327POPC   GL131645  31.422  17.303   9.073
 2327POPC   GL231646  31.735  17.409   9.150
 2327POPC   C1A31647  31.417  17.383   8.625
 2327POPC   D2A31648  31.217  17.143   8.282
 2327POPC   C3A31649  31.452  17.286   7.939
 2327POPC   C4A31650  31.507  17.714   7.927
 2327POPC   C1B31651  31.866  17.221   8.787
 2327POPC   C2B31652  31.948  17.442   8.384
 2327POPC   C3B31653  32.009  17.744   8.041
 2327POPC   C4B31654  31.939  17.426   7.725
 2328POPC   NC331655  17.979  18.353   9.607
 2328POPC   PO431656  18.548  18.438   9.832
 2328POPC   GL131657  18.450  18.250   9.402
 2328POPC   GL231658  18.259  18.491   9.202
 2328POPC   C1A31659  18.602  18.173   8.961
 2328POPC   D2A31660  18.620  18.267   8.537
 2328POPC   C3A31661  18.380  18.009   8.266
 2328POPC   C4A31662  18.478  18.001   7.857
 2328POPC   C1B31663  18.125  18.369   8.779
 2328POPC   C2B31664  18.214  18.494   8.347
 2328POPC   C3B31665  18.148  18.431   7.930
 2328POPC   C4B31666  17.900  18.193   7.697
 2329POPC   NC331667  30.494   1.183   9.544
 2329POPC   PO431668  31.229   1.043   9.435
 2329POPC   GL131669  30.835   1.016   9.164
 2329POPC   GL231670  30.582   1.295   9.051
 2329POPC   C1A31671  30.794   0.948   8.724
 2329POPC   D2A31672  31.056   0.906   8.365
 2329POPC   C3A31673  30.861   1.012   7.972
 2329POPC   C4A31674  30.753   1.210   7.598
 2329POPC   C1B31675  30.873   1.460   8.736
 2329POPC   C2B31676  30.860   1.412   8.294
 2329POPC   C3B31677  30.824   1.646   7.923
 2329POPC   C4B31678  30.414   1.478   7.846
 2330POPC   NC331679  42.247  15.729   9.577
 2330POPC   PO431680  42.722  16.244   9.686
 2330POPC   GL131681  42.494  16.002   9.246
 2330POPC   GL231682  42.148  15.988   9.150
 2330POPC   C1A31683  42.458  16.054   8.750
 2330POPC   D2A31684  42.529  15.772   8.414
 2330POPC   C3A31685  42.375  15.825   7.991
 2330POPC   C4A31686  42.195  16.177   7.788
 2330POPC   C1B31687  42.042  15.760   8.793
 2330POPC   C2B31688  42.014  15.676   8.367
 2330POPC   C3B31689  41.967  15.502   7.967
 2330POPC   C4B31690  41.995  15.730   7.616
 2331POPC   NC331691  43.980  32.660   9.498
 2331POPC   PO431692  44.066  33.317   9.729
 2331POPC   GL131693  43.893  33.195   9.318
 2331POPC   GL231694  44.253  33.135   9.267
 2331POPC   C1A31695  43.925  33.013   8.870
 2331POPC   D2A31696  43.853  32.709   8.513
 2331POPC   C3A31697  43.839  32.887   8.084
 2331POPC   C4A31698  43.971  32.710   7.715
 2331POPC   C1B31699  44.381  33.194   8.821
 2331POPC   C2B31700  44.098  33.173   8.436
 2331POPC   C3B31701  44.209  33.286   8.036
 2331POPC   C4B31702  43.975  33.252   7.692
 2332POPC   NC331703  13.327  22.615   9.492
 2332POPC   PO431704  13.869  23.008   9.525
 2332POPC   GL131705  13.805  23.220   9.116
 2332POPC   GL231706  14.070  23.111   8.942
 2332POPC   C1A31707  13.641  23.246   8.702
 2332POPC   D2A31708  13.551  22.939   8.422
 2332POPC   C3A31709  13.600  23.087   8.053
 2332POPC   C4A31710  13.246  23.070   7.827
 2332POPC   C1B31711  13.767  22.734   8.846
 2332POPC   C2B31712  13.702  22.455   8.434
 2332POPC   C3B31713  13.461  22.602   8.000
 2332POPC   C4B31714  13.554  22.799   7.553
 2333POPC   NC331715   3.421   6.896   9.769
 2333POPC   PO431716   3.797   6.372   9.583
 2333POPC   GL131717   3.673   6.428   9.172
 2333POPC   GL231718   3.478   6.734   9.235
 2333POPC   C1A31719   3.790   6.241   8.777
 2333POPC   D2A31720   3.966   6.449   8.413
 2333POPC   C3A31721   3.675   6.473   8.077
 2333POPC   C4A31722   3.692   6.657   7.667
 2333POPC   C1B31723   3.432   6.650   8.784
 2333POPC   C2B31724   3.513   6.834   8.369
 2333POPC   C3B31725   3.449   7.008   7.951
 2333POPC   C4B31726   3.181   6.811   7.637
 2334POPC   NC331727  24.334  28.088  10.222
 2334POPC   PO431728  24.566  28.429   9.630
 2334POPC   GL131729  24.447  28.445   9.178
 2334POPC   GL231730  24.101  28.446   9.043
 2334POPC   C1A31731  24.575  28.409   8.757
 2334POPC   D2A31732  24.628  28.629   8.427
 2334POPC   C3A31733  24.626  28.384   8.101
 2334POPC   C4A31734  24.445  28.383   7.740
 2334POPC   C1B31735  24.240  28.051   8.851
 2334POPC   C2B31736  24.400  27.967   8.448
 2334POPC   C3B31737  24.208  28.047   8.062
 2334POPC   C4B31738  24.129  27.898   7.663
 2335POPC   NC331739  27.182  23.010   9.518
 2335POPC   PO431740  26.638  22.628   9.516
 2335POPC   GL131741  26.716  22.945   9.166
 2335POPC   GL231742  26.971  23.224   9.102
 2335POPC   C1A31743  26.528  23.235   8.854
 2335POPC   D2A31744  26.465  23.250   8.412
 2335POPC   C3A31745  26.658  22.985   8.059
 2335POPC   C4A31746  27.035  22.722   7.870
 2335POPC   C1B31747  27.028  23.000   8.707
 2335POPC   C2B31748  27.110  23.060   8.265
 2335POPC   C3B31749  27.066  23.220   7.828
 2335POPC   C4B31750  27.006  23.349   7.418
 2336POPC   NC331751  23.287  31.382   9.345
 2336POPC   PO431752  22.648  31.283   9.595
 2336POPC   GL131753  22.770  31.384   9.192
 2336POPC   GL231754  22.833  31.731   9.169
 2336POPC   C1A31755  22.812  31.130   8.825
 2336POPC   D2A31756  23.002  31.004   8.440
 2336POPC   C3A31757  22.958  31.289   8.096
 2336POPC   C4A31758  23.185  31.549   7.783
 2336POPC   C1B31759  22.858  31.916   8.765
 2336POPC   C2B31760  22.981  31.841   8.320
 2336POPC   C3B31761  22.724  31.782   7.959
 2336POPC   C4B31762  22.790  31.743   7.515
 2337POPC   NC331763   7.270  17.663   9.570
 2337POPC   PO431764   7.777  17.236   9.726
 2337POPC   GL131765   7.740  17.382   9.293
 2337POPC   GL231766   7.609  17.651   9.184
 2337POPC   C1A31767   7.731  17.330   8.810
 2337POPC   D2A31768   7.417  17.343   8.491
 2337POPC   C3A31769   7.487  17.259   8.075
 2337POPC   C4A31770   7.779  17.434   7.780
 2337POPC   C1B31771   7.355  17.722   8.849
 2337POPC   C2B31772   7.325  17.869   8.418
 2337POPC   C3B31773   7.389  17.749   7.978
 2337POPC   C4B31774   7.166  17.812   7.596
 2338POPC   NC331775  39.564  44.769   9.412
 2338POPC   PO431776  38.964  44.584   9.529
 2338POPC   GL131777  39.159  44.561   9.116
 2338POPC   GL231778  39.482  44.463   9.004
 2338POPC   C1A31779  39.075  44.366   8.701
 2338POPC   D2A31780  39.346  44.446   8.337
 2338POPC   C3A31781  39.177  44.683   8.008
 2338POPC   C4A31782  39.079  44.408   7.696
 2338POPC   C1B31783  39.358  44.809   8.714
 2338POPC   C2B31784  39.445   0.031   8.333
 2338POPC   C3B31785  39.659  44.854   7.978
 2338POPC   C4B31786  39.488  44.717   7.574
 2339POPC   NC331787  21.517  10.818  10.124
 2339POPC   PO431788  21.679  10.608   9.483
 2339POPC   GL131789  21.446  10.557   9.154
 2339POPC   GL231790  21.264  10.861   9.244
 2339POPC   C1A31791  21.490  10.422   8.723
 2339POPC   D2A31792  21.299  10.483   8.299
 2339POPC   C3A31793  21.425  10.267   7.921
 2339POPC   C4A31794  21.237  10.333   7.514
 2339POPC   C1B31795  21.517  10.967   8.868
 2339POPC   C2B31796  21.637  10.839   8.449
 2339POPC   C3B31797  21.781  10.595   8.119
 2339POPC   C4B31798  21.590  10.743   7.760
 2340POPC   NC331799   1.620  19.600   9.501
 2340POPC   PO431800   1.012  19.217   9.561
 2340POPC   GL131801   1.052  19.193   9.155
 2340POPC   GL231802   1.414  19.263   9.110
 2340POPC   C1A31803   1.046  18.992   8.768
 2340POPC   D2A31804   1.288  18.985   8.381
 2340POPC   C3A31805   1.043  19.108   8.018
 2340POPC   C4A31806   0.950  18.953   7.608
 2340POPC   C1B31807   1.644  19.017   8.778
 2340POPC   C2B31808   1.820  18.996   8.351
 2340POPC   C3B31809   1.599  19.195   8.007
 2340POPC   C4B31810   1.429  18.985   7.650
 2341POPC   NC331811  27.726   0.399   9.537
 2341POPC   PO431812  27.182   0.797   9.427
 2341POPC   GL131813  27.341   0.412   9.216
 2341POPC   GL231814  27.392   0.638   8.966
 2341POPC   C1A31815  27.563   0.180   8.863
 2341POPC   D2A31816  27.748   0.159   8.452
 2341POPC   C3A31817  27.533   0.246   8.074
 2341POPC   C4A31818  27.584   0.186   7.653
 2341POPC   C1B31819  27.768   0.634   8.733
 2341POPC   C2B31820  27.730   0.669   8.297
 2341POPC   C3B31821  27.722   0.687   7.860
 2341POPC   C4B31822  27.392   0.737   7.576
 2342POPC   NC331823   7.234  43.522   9.580
 2342POPC   PO431824   7.576  42.977   9.808
 2342POPC   GL131825   7.263  43.055   9.374
 2342POPC   GL231826   7.471  42.908   9.132
 2342POPC   C1A31827   7.159  43.215   8.897
 2342POPC   D2A31828   7.481  43.261   8.569
 2342POPC   C3A31829   7.453  43.331   8.122
 2342POPC   C4A31830   7.396  43.213   7.693
 2342POPC   C1B31831   7.739  42.867   8.762
 2342POPC   C2B31832   7.871  42.970   8.337
 2342POPC   C3B31833   7.774  42.919   7.874
 2342POPC   C4B31834   7.813  42.955   7.394
 2343POPC   NC331835  14.600  36.564   9.563
 2343POPC   PO431836  14.761  35.917   9.551
 2343POPC   GL131837  14.432  35.941   9.262
 2343POPC   GL231838  14.465  36.278   9.145
 2343POPC   C1A31839  14.310  35.854   8.836
 2343POPC   D2A31840  14.394  35.658   8.434
 2343POPC   C3A31841  14.347  35.967   8.102
 2343POPC   C4A31842  14.539  36.013   7.711
 2343POPC   C1B31843  14.273  36.377   8.755
 2343POPC   C2B31844  14.461  36.405   8.350
 2343POPC   C3B31845  14.427  36.476   7.934
 2343POPC   C4B31846  14.071  36.523   7.686
 2344POPC   NC331847  35.441   4.037   9.410
 2344POPC   PO431848  35.672   4.637   9.630
 2344POPC   GL131849  35.361   4.548   9.280
 2344POPC   GL231850  35.664   4.572   9.098
 2344POPC   C1A31851  35.208   4.397   8.835
 2344POPC   D2A31852  35.409   4.529   8.433
 2344POPC   C3A31853  35.177   4.517   8.051
 2344POPC   C4A31854  35.032   4.121   7.874
 2344POPC   C1B31855  35.713   4.261   8.782
 2344POPC   C2B31856  35.793   4.011   8.401
 2344POPC   C3B31857  35.573   4.185   8.062
 2344POPC   C4B31858  35.500   4.185   7.637
 2345POPC   NC331859  22.103   3.227   9.734
 2345POPC   PO431860  22.425   3.748   9.848
 2345POPC   GL131861  22.422   3.740   9.255
 2345POPC   GL231862  22.189   3.589   8.960
 2345POPC   C1A31863  22.416   3.991   8.852
 2345POPC   D2A31864  22.139   3.864   8.483
 2345POPC   C3A31865  22.388   3.880   8.113
 2345POPC   C4A31866  22.426   3.818   7.693
 2345POPC   C1B31867  22.058   3.361   8.572
 2345POPC   C2B31868  21.796   3.523   8.246
 2345POPC   C3B31869  21.956   3.657   7.876
 2345POPC   C4B31870  22.126   3.403   7.620
 2346POPC   NC331871  13.769  17.639   9.709
 2346POPC   PO431872  13.219  17.241   9.763
 2346POPC   GL131873  13.420  17.195   9.321
 2346POPC   GL231874  13.756  17.332   9.290
 2346POPC   C1A31875  13.484  17.296   8.860
 2346POPC   D2A31876  13.405  17.412   8.434
 2346POPC   C3A31877  13.468  17.267   8.013
 2346POPC   C4A31878  13.236  17.576   7.791
 2346POPC   C1B31879  13.968  17.533   8.942
 2346POPC   C2B31880  13.859  17.582   8.557
 2346POPC   C3B31881  13.913  17.486   8.165
 2346POPC   C4B31882  13.778  17.615   7.783
 2347POPC   NC331883  36.576  11.220   9.368
 2347POPC   PO431884  37.177  11.297   9.589
 2347POPC   GL131885  37.006  11.425   9.175
 2347POPC   GL231886  36.788  11.673   9.208
 2347POPC   C1A31887  36.716  11.413   8.780
 2347POPC   D2A31888  36.860  11.525   8.386
 2347POPC   C3A31889  36.936  11.220   8.061
 2347POPC   C4A31890  36.685  11.399   7.761
 2347POPC   C1B31891  36.930  11.871   8.814
 2347POPC   C2B31892  37.217  11.874   8.453
 2347POPC   C3B31893  37.228  11.680   8.046
 2347POPC   C4B31894  37.201  11.550   7.598
 2348POPC   NC331895  26.711  30.477   9.703
 2348POPC   PO431896  26.058  30.171   9.620
 2348POPC   GL131897  26.162  30.075   9.177
 2348POPC   GL231898  25.946  29.798   9.027
 2348POPC   C1A31899  26.297  30.009   8.736
 2348POPC   D2A31900  25.905  29.940   8.492
 2348POPC   C3A31901  25.940  30.008   8.057
 2348POPC   C4A31902  26.346  30.050   7.845
 2348POPC   C1B31903  26.233  29.509   8.822
 2348POPC   C2B31904  26.359  29.603   8.405
 2348POPC   C3B31905  26.203  29.541   8.018
 2348POPC   C4B31906  26.021  29.713   7.644
 2349POPC   NC331907  19.159   4.227   9.555
 2349POPC   PO431908  18.482   4.309   9.485
 2349POPC   GL131909  18.772   4.046   9.190
 2349POPC   GL231910  19.159   4.005   9.087
 2349POPC   C1A31911  18.786   4.188   8.752
 2349POPC   D2A31912  19.061   4.311   8.372
 2349POPC   C3A31913  18.980   4.116   7.991
 2349POPC   C4A31914  18.624   4.218   7.718
 2349POPC   C1B31915  19.247   4.401   8.831
 2349POPC   C2B31916  19.533   4.508   8.487
 2349POPC   C3B31917  19.335   4.692   8.098
 2349POPC   C4B31918  18.983   4.588   7.792
 2350POPC   NC331919  13.049  15.984   9.842
 2350POPC   PO431920  12.475  15.853   9.537
 2350POPC   GL131921  12.809  15.827   9.186
 2350POPC   GL231922  13.176  15.698   9.169
 2350POPC   C1A31923  12.847  15.839   8.725
 2350POPC   D2A31924  13.087  15.677   8.348
 2350POPC   C3A31925  12.894  15.833   7.940
 2350POPC   C4A31926  12.602  16.198   7.789
 2350POPC   C1B31927  13.280  16.065   8.876
 2350POPC   C2B31928  13.112  16.200   8.439
 2350POPC   C3B31929  13.192  16.273   7.987
 2350POPC   C4B31930  13.625  16.363   7.892
 2351POPC   NC331931   7.517   4.230   9.495
 2351POPC   PO431932   7.527   4.861   9.703
 2351POPC   GL131933   7.393   4.657   9.230
 2351POPC   GL231934   7.223   4.298   9.108
 2351POPC   C1A31935   7.532   4.564   8.760
 2351POPC   D2A31936   7.289   4.434   8.374
 2351POPC   C3A31937   7.438   4.416   7.917
 2351POPC   C4A31938   7.324   4.072   7.583
 2351POPC   C1B31939   7.385   4.074   8.759
 2351POPC   C2B31940   7.671   4.093   8.417
 2351POPC   C3B31941   7.602   3.964   8.016
 2351POPC   C4B31942   7.840   4.042   7.606
 2352POPC   NC331943  32.520  42.318   9.565
 2352POPC   PO431944  31.846  42.140   9.384
 2352POPC   GL131945  32.191  42.211   9.133
 2352POPC   GL231946  32.246  42.530   9.147
 2352POPC   C1A31947  32.358  42.242   8.714
 2352POPC   D2A31948  32.234  42.484   8.328
 2352POPC   C3A31949  32.347  42.250   7.941
 2352POPC   C4A31950  32.062  42.076   7.611
 2352POPC   C1B31951  31.966  42.594   8.782
 2352POPC   C2B31952  31.694  42.554   8.409
 2352POPC   C3B31953  31.761  42.720   8.012
 2352POPC   C4B31954  32.032  42.581   7.706
 2353POPC   NC331955   0.754   0.680   9.721
 2353POPC   PO431956   0.326   0.286   9.448
 2353POPC   GL131957   0.477   0.556   9.160
 2353POPC   GL231958   0.786   0.542   9.210
 2353POPC   C1A31959   0.420   0.502   8.724
 2353POPC   D2A31960   0.593   0.165   8.477
 2353POPC   C3A31961   0.475   0.303   8.084
 2353POPC   C4A31962   0.117   0.286   7.811
 2353POPC   C1B31963   0.923   0.462   8.794
 2353POPC   C2B31964   0.794   0.616   8.379
 2353POPC   C3B31965   0.904   0.546   7.961
 2353POPC   C4B31966   0.531   0.643   7.721
 2354POPC   NC331967  41.268  10.916   9.435
 2354POPC   PO431968  41.656  11.368   9.441
 2354POPC   GL131969  41.540  11.173   9.075
 2354POPC   GL231970  41.789  10.931   9.063
 2354POPC   C1A31971  41.581  11.153   8.648
 2354POPC   D2A31972  41.358  11.203   8.308
 2354POPC   C3A31973  41.607  11.300   8.011
 2354POPC   C4A31974  41.465  11.201   7.615
 2354POPC   C1B31975  41.839  10.656   8.674
 2354POPC   C2B31976  41.860  10.903   8.273
 2354POPC   C3B31977  41.840  10.908   7.806
 2354POPC   C4B31978  41.846  11.009   7.338
 2355POPC   NC331979  18.978  18.307   9.568
 2355POPC   PO431980  18.978  17.690   9.326
 2355POPC   GL131981  19.179  18.010   9.073
 2355POPC   GL231982  19.104  18.378   9.082
 2355POPC   C1A31983  19.106  18.125   8.618
 2355POPC   D2A31984  18.988  18.071   8.164
 2355POPC   C3A31985  19.171  18.365   7.863
 2355POPC   C4A31986  19.322  18.786   7.942
 2355POPC   C1B31987  18.987  18.614   8.722
 2355POPC   C2B31988  18.958  18.562   8.288
 2355POPC   C3B31989  18.669  18.463   7.986
 2355POPC   C4B31990  18.679  18.350   7.528
 2356POPC   NC331991  28.265  23.796   9.828
 2356POPC   PO431992  28.846  23.495   9.604
 2356POPC   GL131993  28.510  23.603   9.310
 2356POPC   GL231994  28.550  23.936   9.193
 2356POPC   C1A31995  28.386  23.508   8.869
 2356POPC   D2A31996  28.597  23.224   8.557
 2356POPC   C3A31997  28.474  23.277   8.127
 2356POPC   C4A31998  28.320  23.593   7.821
 2356POPC   C1B31999  28.238  24.056   8.893
 2356POPC   C2B32000  28.179  24.145   8.469
 2356POPC   C3B32001  28.445  23.987   8.145
 2356POPC   C4B32002  28.470  24.130   7.749
 2357POPC   NC332003   2.964  10.030   9.671
 2357POPC   PO432004   3.666   9.855   9.475
 2357POPC   GL132005   3.514   9.808   9.108
 2357POPC   GL232006   3.208   9.911   9.243
 2357POPC   C1A32007   3.726   9.639   8.753
 2357POPC   D2A32008   3.721   9.478   8.346
 2357POPC   C3A32009   3.918   9.672   8.028
 2357POPC   C4A32010   3.637   9.584   7.716
 2357POPC   C1B32011   3.247  10.139   8.857
 2357POPC   C2B32012   3.520  10.044   8.522
 2357POPC   C3B32013   3.488   9.933   8.098
 2357POPC   C4B32014   3.354  10.157   7.756
 2358POPC   NC332015  33.373  11.846   9.414
 2358POPC   PO432016  33.822  12.299   9.655
 2358POPC   GL132017  33.743  12.210   9.173
 2358POPC   GL232018  33.653  11.866   8.988
 2358POPC   C1A32019  33.833  12.216   8.698
 2358POPC   D2A32020  33.715  11.894   8.408
 2358POPC   C3A32021  33.840  11.962   7.993
 2358POPC   C4A32022  34.000  12.078   7.564
 2358POPC   C1B32023  33.369  12.173   8.830
 2358POPC   C2B32024  33.414  12.360   8.443
 2358POPC   C3B32025  33.540  12.360   8.018
 2358POPC   C4B32026  33.499  12.119   7.616
 2359POPC   NC332027  29.846   6.360   9.589
 2359POPC   PO432028  30.220   5.864   9.396
 2359POPC   GL132029  29.999   5.853   9.020
 2359POPC   GL232030  29.951   5.505   8.988
 2359POPC   C1A32031  29.990   5.851   8.545
 2359POPC   D2A32032  29.776   6.177   8.332
 2359POPC   C3A32033  29.755   6.185   7.919
 2359POPC   C4A32034  29.947   5.966   7.558
 2359POPC   C1B32035  29.563   5.731   8.782
 2359POPC   C2B32036  29.463   5.773   8.332
 2359POPC   C3B32037  29.735   5.696   7.973
 2359POPC   C4B32038  29.631   5.578   7.571
 2360POPC   NC332039  13.844   0.947   9.503
 2360POPC   PO432040  14.542   1.387   9.554
 2360POPC   GL132041  14.390   1.284   9.157
 2360POPC   GL232042  14.262   0.987   9.217
 2360POPC   C1A32043  14.216   1.394   8.757
 2360POPC   D2A32044  14.276   1.584   8.371
 2360POPC   C3A32045  14.506   1.465   8.026
 2360POPC   C4A32046  14.407   1.420   7.602
 2360POPC   C1B32047  14.258   0.894   8.771
 2360POPC   C2B32048  14.263   1.057   8.330
 2360POPC   C3B32049  14.327   1.000   7.871
 2360POPC   C4B32050  14.287   0.946   7.386
 2361POPC   NC332051  36.956  39.724   9.470
 2361POPC   PO432052  36.663  39.064   9.502
 2361POPC   GL132053  36.846  39.325   9.165
 2361POPC   GL232054  37.175  39.283   9.268
 2361POPC   C1A32055  37.006  39.428   8.733
 2361POPC   D2A32056  36.763  39.224   8.387
 2361POPC   C3A32057  36.896  39.310   7.997
 2361POPC   C4A32058  36.749  39.247   7.563
 2361POPC   C1B32059  37.159  38.981   8.911
 2361POPC   C2B32060  37.216  39.011   8.451
 2361POPC   C3B32061  37.178  38.868   8.015
 2361POPC   C4B32062  37.394  38.912   7.602
 2362POPC   NC332063  11.936  41.542   9.736
 2362POPC   PO432064  12.493  41.166   9.574
 2362POPC   GL132065  12.355  41.382   9.168
 2362POPC   GL232066  12.040  41.574   9.208
 2362POPC   C1A32067  12.146  41.451   8.734
 2362POPC   D2A32068  11.969  41.575   8.335
 2362POPC   C3A32069  12.104  41.467   7.899
 2362POPC   C4A32070  11.794  41.576   7.569
 2362POPC   C1B32071  12.282  41.892   8.909
 2362POPC   C2B32072  12.282  42.077   8.509
 2362POPC   C3B32073  12.304  41.907   8.104
 2362POPC   C4B32074  12.240  42.094   7.707
 2363POPC   NC332075  30.097  14.221   9.570
 2363POPC   PO432076  29.415  14.448   9.706
 2363POPC   GL132077  29.785  14.354   9.228
 2363POPC   GL232078  29.984  14.633   9.116
 2363POPC   C1A32079  29.692  14.266   8.732
 2363POPC   D2A32080  29.558  14.102   8.320
 2363POPC   C3A32081  29.745  14.288   7.913
 2363POPC   C4A32082  29.817  14.249   7.427
 2363POPC   C1B32083  30.163  14.269   8.875
 2363POPC   C2B32084  30.078  14.130   8.413
 2363POPC   C3B32085  30.252  14.237   7.994
 2363POPC   C4B32086  30.143  14.580   7.665
 2364POPC   NC332087  28.236  42.892   9.423
 2364POPC   PO432088  27.928  43.490   9.539
 2364POPC   GL132089  28.093  43.293   9.145
 2364POPC   GL232090  28.511  43.217   9.155
 2364POPC   C1A32091  28.145  43.025   8.793
 2364POPC   D2A32092  28.511  42.923   8.569
 2364POPC   C3A32093  28.388  42.908   8.143
 2364POPC   C4A32094  28.484  43.032   7.720
 2364POPC   C1B32095  28.474  43.429   8.791
 2364POPC   C2B32096  28.231  43.392   8.425
 2364POPC   C3B32097  28.408  43.424   8.036
 2364POPC   C4B32098  28.694  43.574   7.726
 2365POPC   NC332099  34.833  13.006   9.233
 2365POPC   PO432100  34.498  12.487   9.448
 2365POPC   GL132101  34.461  12.680   9.067
 2365POPC   GL232102  34.306  13.010   9.137
 2365POPC   C1A32103  34.685  12.708   8.650
 2365POPC   D2A32104  34.662  12.459   8.261
 2365POPC   C3A32105  34.651  12.684   7.884
 2365POPC   C4A32106  34.801  13.094   7.695
 2365POPC   C1B32107  34.238  12.977   8.693
 2365POPC   C2B32108  34.305  12.842   8.263
 2365POPC   C3B32109  34.319  13.096   7.889
 2365POPC   C4B32110  34.323  13.133   7.442
 2366POPC   NC332111   9.846  29.339   9.511
 2366POPC   PO432112   9.173  29.241   9.299
 2366POPC   GL132113   9.550  29.107   9.163
 2366POPC   GL232114   9.832  28.878   9.215
 2366POPC   C1A32115   9.804  29.236   8.830
 2366POPC   D2A32116  10.010  29.139   8.443
 2366POPC   C3A32117   9.814  29.367   8.138
 2366POPC   C4A32118   9.478  29.256   7.915
 2366POPC   C1B32119  10.048  28.771   8.842
 2366POPC   C2B32120  10.028  28.625   8.423
 2366POPC   C3B32121   9.826  28.805   8.057
 2366POPC   C4B32122  10.071  28.746   7.738
 2367POPC   NC332123  40.421  11.580   9.325
 2367POPC   PO432124  40.813  11.048   9.411
 2367POPC   GL132125  40.987  11.142   9.040
 2367POPC   GL232126  41.118  11.463   9.146
 2367POPC   C1A32127  40.671  11.232   8.715
 2367POPC   D2A32128  40.403  11.398   8.372
 2367POPC   C3A32129  40.498  11.163   8.020
 2367POPC   C4A32130  40.924  11.107   7.908
 2367POPC   C1B32131  41.125  11.489   8.693
 2367POPC   C2B32132  40.912  11.444   8.303
 2367POPC   C3B32133  41.166  11.529   7.954
 2367POPC   C4B32134  41.070  11.466   7.482
 2368POPC   NC332135  10.845  10.698   9.574
 2368POPC   PO432136  11.445  10.360   9.616
 2368POPC   GL132137  11.161  10.367   9.274
 2368POPC   GL232138  11.240  10.714   9.162
 2368POPC   C1A32139  11.272  10.354   8.829
 2368POPC   D2A32140  11.301  10.632   8.488
 2368POPC   C3A32141  11.362  10.383   8.138
 2368POPC   C4A32142  11.278  10.452   7.728
 2368POPC   C1B32143  11.015  10.959   8.834
 2368POPC   C2B32144  10.889  10.943   8.390
 2368POPC   C3B32145  11.105  10.856   8.005
 2368POPC   C4B32146  10.994  10.895   7.587
 2369POPC   NC332147  32.055  13.473   9.534
 2369POPC   PO432148  31.471  13.756   9.533
 2369POPC   GL132149  31.525  13.479   9.208
 2369POPC   GL232150  31.798  13.712   9.128
 2369POPC   C1A32151  31.239  13.289   8.889
 2369POPC   D2A32152  31.047  13.415   8.495
 2369POPC   C3A32153  31.347  13.677   8.263
 2369POPC   C4A32154  31.199  13.650   7.838
 2369POPC   C1B32155  31.531  13.775   8.779
 2369POPC   C2B32156  31.768  13.934   8.454
 2369POPC   C3B32157  31.811  13.843   8.059
 2369POPC   C4B32158  31.632  13.833   7.664
 2370POPC   NC332159   7.867   9.130   9.486
 2370POPC   PO432160   8.280   8.724   9.446
 2370POPC   GL132161   8.323   8.920   9.087
 2370POPC   GL232162   8.079   9.170   9.027
 2370POPC   C1A32163   8.442   8.740   8.716
 2370POPC   D2A32164   8.432   8.626   8.318
 2370POPC   C3A32165   8.376   8.976   8.062
 2370POPC   C4A32166   8.208   8.985   7.647
 2370POPC   C1B32167   7.860   9.314   8.673
 2370POPC   C2B32168   7.946   9.302   8.228
 2370POPC   C3B32169   7.828   9.332   7.806
 2370POPC   C4B32170   7.857   9.231   7.359
 2371POPC   NC332171   3.894  31.688   9.783
 2371POPC   PO432172   3.402  31.455   9.402
 2371POPC   GL132173   3.622  31.224   9.067
 2371POPC   GL232174   3.963  31.264   9.072
 2371POPC   C1A32175   3.534  31.105   8.651
 2371POPC   D2A32176   3.149  31.285   8.488
 2371POPC   C3A32177   3.213  31.414   8.069
 2371POPC   C4A32178   3.516  31.289   7.786
 2371POPC   C1B32179   3.806  31.546   8.725
 2371POPC   C2B32180   3.876  31.770   8.336
 2371POPC   C3B32181   3.917  31.596   7.899
 2371POPC   C4B32182   3.747  31.565   7.437
 2372POPC   NC332183  43.411  31.363   9.627
 2372POPC   PO432184  44.006  31.300   9.730
 2372POPC   GL132185  43.817  31.194   9.359
 2372POPC   GL232186  43.794  31.523   9.213
 2372POPC   C1A32187  43.936  31.045   8.987
 2372POPC   D2A32188  44.034  31.132   8.544
 2372POPC   C3A32189  43.892  31.134   8.111
 2372POPC   C4A32190  44.110  31.490   7.863
 2372POPC   C1B32191  43.961  31.603   8.788
 2372POPC   C2B32192  43.915  31.893   8.418
 2372POPC   C3B32193  43.739  31.836   7.989
 2372POPC   C4B32194  43.579  31.750   7.571
 2373POPC   NC332195  39.423  12.586   9.630
 2373POPC   PO432196  40.033  12.897   9.403
 2373POPC   GL132197  39.976  12.673   9.045
 2373POPC   GL232198  40.298  12.759   8.878
 2373POPC   C1A32199  39.774  12.866   8.710
 2373POPC   D2A32200  39.862  13.041   8.316
 2373POPC   C3A32201  40.064  12.738   8.095
 2373POPC   C4A32202  39.988  12.556   7.738
 2373POPC   C1B32203  40.194  13.198   8.748
 2373POPC   C2B32204  40.265  13.455   8.359
 2373POPC   C3B32205  40.324  13.172   8.052
 2373POPC   C4B32206  40.163  13.082   7.636
 2374POPC   NC332207  31.439   3.755   9.447
 2374POPC   PO432208  32.090   3.493   9.390
 2374POPC   GL132209  31.734   3.507   9.063
 2374POPC   GL232210  31.351   3.429   9.064
 2374POPC   C1A32211  31.521   3.800   8.760
 2374POPC   D2A32212  31.271   3.648   8.435
 2374POPC   C3A32213  31.638   3.470   8.235
 2374POPC   C4A32214  31.861   3.688   7.888
 2374POPC   C1B32215  31.373   3.194   8.684
 2374POPC   C2B32216  31.142   3.165   8.312
 2374POPC   C3B32217  31.259   3.318   7.939
 2374POPC   C4B32218  31.667   3.206   7.800
 2375POPC   NC332219  21.117  30.846   9.427
 2375POPC   PO432220  21.743  30.938   9.510
 2375POPC   GL132221  21.530  30.695   9.141
 2375POPC   GL232222  21.257  30.852   8.939
 2375POPC   C1A32223  21.453  30.434   8.753
 2375POPC   D2A32224  21.202  30.636   8.422
 2375POPC   C3A32225  21.233  30.470   8.004
 2375POPC   C4A32226  21.446  30.356   7.646
 2375POPC   C1B32227  21.686  30.904   8.725
 2375POPC   C2B32228  21.661  30.859   8.310
 2375POPC   C3B32229  21.734  30.607   7.993
 2375POPC   C4B32230  21.795  30.906   7.739
 2376POPC   NC332231  17.157  13.937   9.691
 2376POPC   PO432232  16.690  13.440   9.545
 2376POPC   GL132233  16.845  13.585   9.177
 2376POPC   GL232234  17.006  13.944   9.199
 2376POPC   C1A32235  16.713  13.410   8.788
 2376POPC   D2A32236  16.484  13.502   8.448
 2376POPC   C3A32237  16.681  13.378   8.039
 2376POPC   C4A32238  16.422  13.407   7.670
 2376POPC   C1B32239  16.894  13.894   8.751
 2376POPC   C2B32240  16.915  13.877   8.304
 2376POPC   C3B32241  16.906  13.926   7.882
 2376POPC   C4B32242  16.859  13.637   7.577
 2377POPC   NC332243  25.466  17.171   9.467
 2377POPC   PO432244  25.088  16.481   9.238
 2377POPC   GL132245  25.349  16.791   9.124
 2377POPC   GL232246  25.081  17.032   9.158
 2377POPC   C1A32247  25.583  16.927   8.771
 2377POPC   D2A32248  25.424  16.846   8.360
 2377POPC   C3A32249  25.590  17.036   7.997
 2377POPC   C4A32250  25.525  16.769   7.698
 2377POPC   C1B32251  25.020  16.891   8.727
 2377POPC   C2B32252  24.969  17.099   8.355
 2377POPC   C3B32253  25.039  16.911   7.998
 2377POPC   C4B32254  25.075  17.019   7.623
 2378POPC   NC332255  40.493  44.633   9.757
 2378POPC   PO432256  40.779  44.246   9.290
 2378POPC   GL132257  40.636  44.641   9.148
 2378POPC   GL232258  40.408  44.519   8.918
 2378POPC   C1A32259  40.781  44.871   8.775
 2378POPC   D2A32260  41.072  44.832   8.406
 2378POPC   C3A32261  41.072  44.688   7.957
 2378POPC   C4A32262  40.850  44.573   7.581
 2378POPC   C1B32263  40.706  44.376   8.670
 2378POPC   C2B32264  40.751  44.457   8.288
 2378POPC   C3B32265  40.760  44.246   7.957
 2378POPC   C4B32266  40.431  44.336   7.763
 2379POPC   NC332267  25.151  29.832   9.553
 2379POPC   PO432268  25.690  29.551   9.382
 2379POPC   GL132269  25.426  29.825   9.075
 2379POPC   GL232270  25.047  29.880   9.055
 2379POPC   C1A32271  25.389  29.944   8.627
 2379POPC   D2A32272  25.425  29.982   8.174
 2379POPC   C3A32273  25.343  29.627   7.878
 2379POPC   C4A32274  25.470  29.551   7.480
 2379POPC   C1B32275  25.041  30.269   8.804
 2379POPC   C2B32276  25.171  30.387   8.424
 2379POPC   C3B32277  25.031  30.352   8.053
 2379POPC   C4B32278  25.085  30.040   7.786
 2380POPC   NC332279   7.555   2.608   9.553
 2380POPC   PO432280   8.245   2.714   9.681
 2380POPC   GL132281   8.285   2.781   9.214
 2380POPC   GL232282   8.153   2.478   9.112
 2380POPC   C1A32283   8.264   2.905   8.745
 2380POPC   D2A32284   8.528   3.037   8.349
 2380POPC   C3A32285   8.361   2.964   7.942
 2380POPC   C4A32286   8.076   2.667   7.770
 2380POPC   C1B32287   8.036   2.434   8.678
 2380POPC   C2B32288   8.173   2.623   8.284
 2380POPC   C3B32289   8.502   2.467   7.942
 2380POPC   C4B32290   8.391   2.314   7.530
 2381POPC   NC332291  23.531  34.794   9.409
 2381POPC   PO432292  23.933  35.350   9.531
 2381POPC   GL132293  23.844  35.490   9.121
 2381POPC   GL232294  24.067  35.801   9.140
 2381POPC   C1A32295  23.594  35.275   8.795
 2381POPC   D2A32296  23.357  35.219   8.398
 2381POPC   C3A32297  23.633  35.189   8.029
 2381POPC   C4A32298  23.693  35.379   7.654
 2381POPC   C1B32299  24.157  35.610   8.754
 2381POPC   C2B32300  23.906  35.454   8.418
 2381POPC   C3B32301  23.947  35.620   8.025
 2381POPC   C4B32302  24.167  35.777   7.666
 2382POPC   NC332303  44.246  41.878   9.192
 2382POPC   PO432304  44.688  41.526   9.575
 2382POPC   GL132305  44.795  41.664   9.157
 2382POPC   GL232306  44.856  42.032   9.169
 2382POPC   C1A32307  44.676  41.450   8.774
 2382POPC   D2A32308  44.660  41.249   8.388
 2382POPC   C3A32309  44.875  41.480   8.108
 2382POPC   C4A32310  44.643  41.582   7.782
 2382POPC   C1B32311  44.677  41.969   8.730
 2382POPC   C2B32312  44.529  41.773   8.356
 2382POPC   C3B32313  44.599  42.021   8.006
 2382POPC   C4B32314  44.839  42.035   7.663
 2383POPC   NC332315  22.885  24.720   9.566
 2383POPC   PO432316  23.282  24.088   9.428
 2383POPC   GL132317  23.003  24.357   9.201
 2383POPC   GL232318  23.052  24.689   9.104
 2383POPC   C1A32319  22.859  24.396   8.751
 2383POPC   D2A32320  22.692  24.384   8.346
 2383POPC   C3A32321  23.010  24.419   8.025
 2383POPC   C4A32322  22.884  24.582   7.673
 2383POPC   C1B32323  23.247  24.856   8.744
 2383POPC   C2B32324  23.148  24.901   8.309
 2383POPC   C3B32325  23.164  24.951   7.882
 2383POPC   C4B32326  23.168  24.964   7.409
 2384POPC   NC332327  35.011  37.025   9.470
 2384POPC   PO432328  35.634  36.898   9.477
 2384POPC   GL132329  35.381  36.875   9.133
 2384POPC   GL232330  35.278  37.214   9.090
 2384POPC   C1A32331  35.227  36.624   8.799
 2384POPC   D2A32332  35.011  36.803   8.477
 2384POPC   C3A32333  35.328  36.843   8.170
 2384POPC   C4A32334  35.321  36.819   7.717
 2384POPC   C1B32335  35.352  37.146   8.663
 2384POPC   C2B32336  35.621  37.326   8.355
 2384POPC   C3B32337  35.616  37.207   7.945
 2384POPC   C4B32338  35.211  37.313   7.773
 2385POPC   NC332339  32.580  27.315   9.401
 2385POPC   PO432340  32.252  26.846   9.765
 2385POPC   GL132341  32.318  26.878   9.302
 2385POPC   GL232342  32.228  26.566   9.171
 2385POPC   C1A32343  32.418  26.931   8.828
 2385POPC   D2A32344  32.335  26.781   8.376
 2385POPC   C3A32345  32.555  27.027   8.055
 2385POPC   C4A32346  32.532  27.253   7.677
 2385POPC   C1B32347  32.250  26.399   8.744
 2385POPC   C2B32348  31.919  26.379   8.413
 2385POPC   C3B32349  31.929  26.556   8.002
 2385POPC   C4B32350  32.327  26.662   7.809
 2386POPC   NC332351  20.234  44.576   9.473
 2386POPC   PO432352  19.604  44.531   9.478
 2386POPC   GL132353  19.604  44.750   9.136
 2386POPC   GL232354  19.928  44.878   9.120
 2386POPC   C1A32355  19.637  44.570   8.749
 2386POPC   D2A32356  19.799  44.441   8.347
 2386POPC   C3A32357  19.545  44.628   8.044
 2386POPC   C4A32358  19.677  44.938   7.748
 2386POPC   C1B32359  20.136  44.751   8.733
 2386POPC   C2B32360  20.260  44.720   8.305
 2386POPC   C3B32361  20.061  44.628   7.919
 2386POPC   C4B32362  20.117  44.850   7.532
 2387POPC   NC332363   5.244  12.120   9.457
 2387POPC   PO432364   4.734  12.017   9.735
 2387POPC   GL132365   4.864  11.892   9.208
 2387POPC   GL232366   5.167  12.038   8.988
 2387POPC   C1A32367   4.850  11.733   8.779
 2387POPC   D2A32368   5.163  11.732   8.461
 2387POPC   C3A32369   4.928  11.822   8.095
 2387POPC   C4A32370   5.089  11.973   7.727
 2387POPC   C1B32371   5.424  12.148   8.665
 2387POPC   C2B32372   5.413  12.424   8.347
 2387POPC   C3B32373   5.126  12.413   8.015
 2387POPC   C4B32374   5.263  12.469   7.610
 2388POPC   NC332375  29.810  42.877   9.766
 2388POPC   PO432376  29.757  43.463   9.468
 2388POPC   GL132377  29.901  43.121   9.197
 2388POPC   GL232378  30.189  42.932   9.323
 2388POPC   C1A32379  29.934  43.184   8.760
 2388POPC   D2A32380  29.794  43.370   8.388
 2388POPC   C3A32381  29.961  43.140   8.084
 2388POPC   C4A32382  30.012  43.057   7.691
 2388POPC   C1B32383  30.214  42.759   8.903
 2388POPC   C2B32384  30.219  42.873   8.448
 2388POPC   C3B32385  30.329  42.779   8.012
 2388POPC   C4B32386  30.164  42.574   7.641
 2389POPC   NC332387  33.435  35.862   9.393
 2389POPC   PO432388  33.870  36.472   9.503
 2389POPC   GL132389  33.859  36.126   9.227
 2389POPC   GL232390  34.211  36.102   9.234
 2389POPC   C1A32391  33.768  36.007   8.793
 2389POPC   D2A32392  33.764  36.301   8.460
 2389POPC   C3A32393  33.590  36.186   8.077
 2389POPC   C4A32394  33.542  36.330   7.675
 2389POPC   C1B32395  34.194  36.341   8.827
 2389POPC   C2B32396  34.290  36.199   8.416
 2389POPC   C3B32397  34.081  35.972   8.109
 2389POPC   C4B32398  33.982  36.092   7.704
 2390POPC   NC332399  28.373  10.102   9.522
 2390POPC   PO432400  28.662   9.529   9.302
 2390POPC   GL132401  28.381   9.775   9.157
 2390POPC   GL232402  28.069   9.650   9.314
 2390POPC   C1A32403  28.446   9.914   8.761
 2390POPC   D2A32404  28.662   9.661   8.452
 2390POPC   C3A32405  28.586   9.839   8.081
 2390POPC   C4A32406  28.772  10.167   7.903
 2390POPC   C1B32407  28.083   9.532   8.852
 2390POPC   C2B32408  28.122   9.713   8.395
 2390POPC   C3B32409  28.098   9.774   7.936
 2390POPC   C4B32410  28.144   9.978   7.505
 2391POPC   NC332411   4.642  15.043   9.582
 2391POPC   PO432412   4.004  15.122   9.597
 2391POPC   GL132413   4.255  15.204   9.198
 2391POPC   GL232414   4.461  14.911   9.135
 2391POPC   C1A32415   4.285  15.288   8.733
 2391POPC   D2A32416   4.529  15.209   8.340
 2391POPC   C3A32417   4.298  15.288   7.975
 2391POPC   C4A32418   4.146  14.962   7.697
 2391POPC   C1B32419   4.515  14.835   8.734
 2391POPC   C2B32420   4.462  14.681   8.360
 2391POPC   C3B32421   4.543  14.809   7.947
 2391POPC   C4B32422   4.467  14.586   7.551
 2392POPC   NC332423   3.216   3.804   9.602
 2392POPC   PO432424   3.331   3.106   9.528
 2392POPC   GL132425   3.533   3.362   9.199
 2392POPC   GL232426   3.366   3.652   9.159
 2392POPC   C1A32427   3.628   3.504   8.764
 2392POPC   D2A32428   3.733   3.758   8.380
 2392POPC   C3A32429   3.809   3.576   7.975
 2392POPC   C4A32430   3.636   3.585   7.557
 2392POPC   C1B32431   3.115   3.666   8.788
 2392POPC   C2B32432   3.200   3.829   8.383
 2392POPC   C3B32433   3.295   3.699   7.971
 2392POPC   C4B32434   2.968   3.752   7.668
 2393POPC   NC332435  24.623  15.033   9.670
 2393POPC   PO432436  24.547  15.578   9.274
 2393POPC   GL132437  24.579  15.168   9.097
 2393POPC   GL232438  24.837  14.949   9.222
 2393POPC   C1A32439  24.488  15.154   8.648
 2393POPC   D2A32440  24.108  15.145   8.365
 2393POPC   C3A32441  24.251  15.356   8.018
 2393POPC   C4A32442  24.523  15.313   7.697
 2393POPC   C1B32443  24.992  15.045   8.823
 2393POPC   C2B32444  24.956  14.878   8.431
 2393POPC   C3B32445  24.871  15.072   8.038
 2393POPC   C4B32446  24.785  14.884   7.637
 2394POPC   NC332447  42.224  12.378   9.560
 2394POPC   PO432448  42.837  11.971   9.695
 2394POPC   GL132449  42.581  12.124   9.266
 2394POPC   GL232450  42.228  12.018   9.163
 2394POPC   C1A32451  42.466  12.246   8.803
 2394POPC   D2A32452  42.082  12.288   8.616
 2394POPC   C3A32453  42.130  12.361   8.188
 2394POPC   C4A32454  42.148  12.082   7.860
 2394POPC   C1B32455  42.199  11.806   8.761
 2394POPC   C2B32456  42.355  11.874   8.346
 2394POPC   C3B32457  42.465  11.671   7.963
 2394POPC   C4B32458  42.720  11.599   7.610
 2395POPC   NC332459  14.104   4.615   9.339
 2395POPC   PO432460  14.335   3.989   9.392
 2395POPC   GL132461  14.370   4.261   9.109
 2395POPC   GL232462  13.997   4.227   9.024
 2395POPC   C1A32463  14.644   4.422   8.802
 2395POPC   D2A32464  14.545   4.733   8.525
 2395POPC   C3A32465  14.722   4.601   8.170
 2395POPC   C4A32466  14.853   4.339   7.885
 2395POPC   C1B32467  14.117   4.448   8.672
 2395POPC   C2B32468  14.179   4.463   8.257
 2395POPC   C3B32469  14.317   4.345   7.882
 2395POPC   C4B32470  14.149   4.532   7.518
 2396POPC   NC332471  25.106  25.884   9.441
 2396POPC   PO432472  25.178  26.565   9.510
 2396POPC   GL132473  25.176  26.274   9.131
 2396POPC   GL232474  25.476  26.032   9.133
 2396POPC   C1A32475  25.264  26.192   8.682
 2396POPC   D2A32476  25.034  26.285   8.314
 2396POPC   C3A32477  25.261  26.308   7.936
 2396POPC   C4A32478  25.091  26.203   7.486
 2396POPC   C1B32479  25.380  25.716   8.804
 2396POPC   C2B32480  25.481  25.746   8.415
 2396POPC   C3B32481  25.477  25.537   8.041
 2396POPC   C4B32482  25.291  25.832   7.781
 2397POPC   NC332483  10.201  32.365   9.524
 2397POPC   PO432484  10.716  31.977   9.580
 2397POPC   GL132485  10.459  32.113   9.162
 2397POPC   GL232486  10.438  32.432   9.081
 2397POPC   C1A32487  10.451  32.184   8.658
 2397POPC   D2A32488  10.749  32.308   8.320
 2397POPC   C3A32489  10.508  32.170   7.978
 2397POPC   C4A32490  10.077  31.966   8.018
 2397POPC   C1B32491  10.264  32.662   8.712
 2397POPC   C2B32492   9.984  32.593   8.322
 2397POPC   C3B32493  10.131  32.482   7.877
 2397POPC   C4B32494  10.572  32.549   7.636
 2398POPC   NC332495  27.213  17.500   9.727
 2398POPC   PO432496  27.710  17.870   9.739
 2398POPC   GL132497  27.713  17.642   9.291
 2398POPC   GL232498  27.537  17.376   9.302
 2398POPC   C1A32499  27.581  17.774   8.826
 2398POPC   D2A32500  27.467  17.619   8.444
 2398POPC   C3A32501  27.396  17.935   8.148
 2398POPC   C4A32502  27.550  17.800   7.762
 2398POPC   C1B32503  27.569  17.247   8.867
 2398POPC   C2B32504  27.615  17.054   8.470
 2398POPC   C3B32505  27.672  17.223   8.092
 2398POPC   C4B32506  27.534  17.196   7.694
 2399POPC   NC332507  18.948  25.394   9.578
 2399POPC   PO432508  19.588  25.261   9.457
 2399POPC   GL132509  19.200  25.291   9.126
 2399POPC   GL232510  18.805  25.392   9.106
 2399POPC   C1A32511  19.038  25.144   8.714
 2399POPC   D2A32512  19.037  24.932   8.311
 2399POPC   C3A32513  18.790  25.131   8.006
 2399POPC   C4A32514  18.891  25.228   7.606
 2399POPC   C1B32515  18.892  25.648   8.742
 2399POPC   C2B32516  18.966  25.621   8.279
 2399POPC   C3B32517  18.929  25.694   7.832
 2399POPC   C4B32518  18.752  25.659   7.414
 2400POPC   NC332519  22.962  11.721  10.242
 2400POPC   PO432520  23.086  11.807   9.541
 2400POPC   GL132521  22.878  11.938   9.147
 2400POPC   GL232522  22.675  12.256   9.152
 2400POPC   C1A32523  23.022  12.153   8.763
 2400POPC   D2A32524  23.172  12.221   8.347
 2400POPC   C3A32525  22.975  12.064   7.989
 2400POPC   C4A32526  23.002  12.201   7.562
 2400POPC   C1B32527  22.499  12.150   8.751
 2400POPC   C2B32528  22.665  12.280   8.350
 2400POPC   C3B32529  22.846  12.556   8.022
 2400POPC   C4B32530  22.761  12.654   7.609
 2401POPC   NC332531  34.635  37.529   9.766
 2401POPC   PO432532  34.595  36.786   9.525
 2401POPC   GL132533  34.578  36.971   9.136
 2401POPC   GL232534  34.866  36.888   9.004
 2401POPC   C1A32535  34.434  36.877   8.731
 2401POPC   D2A32536  34.547  36.983   8.333
 2401POPC   C3A32537  34.401  36.793   7.931
 2401POPC   C4A32538  34.384  36.871   7.494
 2401POPC   C1B32539  34.848  37.228   8.722
 2401POPC   C2B32540  35.016  37.264   8.284
 2401POPC   C3B32541  34.879  36.986   7.953
 2401POPC   C4B32542  34.841  37.065   7.512
 2402POPC   NC332543  28.462  30.462   9.594
 2402POPC   PO432544  28.737  31.004   9.500
 2402POPC   GL132545  28.652  30.700   9.121
 2402POPC   GL232546  28.656  30.348   9.145
 2402POPC   C1A32547  28.524  30.547   8.668
 2402POPC   D2A32548  28.509  30.705   8.231
 2402POPC   C3A32549  28.343  30.827   7.830
 2402POPC   C4A32550  28.569  31.115   7.480
 2402POPC   C1B32551  28.707  30.095   8.819
 2402POPC   C2B32552  28.878  30.135   8.434
 2402POPC   C3B32553  28.566  30.204   8.190
 2402POPC   C4B32554  28.536  30.367   7.816
 2403POPC   NC332555  16.610  32.613   9.390
 2403POPC   PO432556  16.605  33.169   9.702
 2403POPC   GL132557  16.606  33.111   9.198
 2403POPC   GL232558  16.850  32.851   9.032
 2403POPC   C1A32559  16.694  33.212   8.722
 2403POPC   D2A32560  17.032  33.267   8.407
 2403POPC   C3A32561  16.880  33.301   7.985
 2403POPC   C4A32562  16.810  33.104   7.574
 2403POPC   C1B32563  16.470  32.733   8.772
 2403POPC   C2B32564  16.431  32.897   8.364
 2403POPC   C3B32565  16.474  32.983   7.945
 2403POPC   C4B32566  16.379  32.855   7.541
 2404POPC   NC332567  15.710  14.654   9.268
 2404POPC   PO432568  15.176  14.445   9.614
 2404POPC   GL132569  15.163  14.640   9.214
 2404POPC   GL232570  15.155  14.303   9.110
 2404POPC   C1A32571  14.914  14.648   8.798
 2404POPC   D2A32572  14.950  14.389   8.411
 2404POPC   C3A32573  15.099  14.548   8.003
 2404POPC   C4A32574  14.970  14.410   7.597
 2404POPC   C1B32575  15.369  14.408   8.759
 2404POPC   C2B32576  15.583  14.421   8.404
 2404POPC   C3B32577  15.554  14.230   8.039
 2404POPC   C4B32578  15.485  14.391   7.680
 2405POPC   NC332579   9.502  25.578   9.551
 2405POPC   PO432580  10.038  25.149   9.426
 2405POPC   GL132581   9.795  25.272   9.106
 2405POPC   GL232582   9.459  25.290   9.120
 2405POPC   C1A32583   9.755  25.148   8.674
 2405POPC   D2A32584  10.045  24.992   8.368
 2405POPC   C3A32585   9.933  25.195   8.013
 2405POPC   C4A32586   9.493  25.171   7.890
 2405POPC   C1B32587   9.612  25.649   8.822
 2405POPC   C2B32588   9.527  25.806   8.415
 2405POPC   C3B32589   9.594  25.635   8.046
 2405POPC   C4B32590   9.908  25.686   7.791
 2406POPC   NC332591   2.993  21.806   9.401
 2406POPC   PO432592   2.618  21.320   9.481
 2406POPC   GL132593   2.668  21.549   9.121
 2406POPC   GL232594   2.331  21.478   9.072
 2406POPC   C1A32595   2.992  21.518   8.784
 2406POPC   D2A32596   3.168  21.450   8.349
 2406POPC   C3A32597   2.901  21.512   7.945
 2406POPC   C4A32598   2.438  21.693   7.975
 2406POPC   C1B32599   2.516  21.298   8.723
 2406POPC   C2B32600   2.646  21.450   8.388
 2406POPC   C3B32601   2.599  21.143   8.111
 2406POPC   C4B32602   2.469  21.217   7.732
 2407POPC   NC332603  39.112   2.276   9.798
 2407POPC   PO432604  39.420   2.220   9.238
 2407POPC   GL132605  38.978   2.213   9.102
 2407POPC   GL232606  38.970   1.906   8.885
 2407POPC   C1A32607  38.740   2.330   8.744
 2407POPC   D2A32608  38.839   2.072   8.367
 2407POPC   C3A32609  38.933   2.252   7.980
 2407POPC   C4A32610  39.364   2.120   7.964
 2407POPC   C1B32611  39.349   1.851   8.637
 2407POPC   C2B32612  39.586   1.628   8.333
 2407POPC   C3B32613  39.655   1.686   7.897
 2407POPC   C4B32614  39.740   1.559   7.477
 2408POPC   NC332615  27.097  29.678   9.290
 2408POPC   PO432616  27.143  30.254   9.702
 2408POPC   GL132617  26.906  30.168   9.268
 2408POPC   GL232618  26.652  29.905   9.139
 2408POPC   C1A32619  26.930  30.165   8.783
 2408POPC   D2A32620  27.044  30.023   8.360
 2408POPC   C3A32621  27.142  29.934   7.891
 2408POPC   C4A32622  26.799  30.009   7.581
 2408POPC   C1B32623  26.748  29.669   8.742
 2408POPC   C2B32624  26.890  29.540   8.340
 2408POPC   C3B32625  26.697  29.728   8.024
 2408POPC   C4B32626  26.556  29.576   7.655
 2409POPC   NC332627   2.045  32.757   9.362
 2409POPC   PO432628   2.637  32.960   9.560
 2409POPC   GL132629   2.377  33.070   9.141
 2409POPC   GL232630   2.071  33.154   8.993
 2409POPC   C1A32631   2.370  32.894   8.678
 2409POPC   D2A32632   2.514  32.912   8.220
 2409POPC   C3A32633   2.288  33.222   7.936
 2409POPC   C4A32634   1.955  33.276   7.626
 2409POPC   C1B32635   1.855  32.855   8.708
 2409POPC   C2B32636   1.699  32.945   8.323
 2409POPC   C3B32637   1.896  32.825   7.956
 2409POPC   C4B32638   1.761  32.698   7.580
 2410POPC   NC332639  30.898  20.935   9.458
 2410POPC   PO432640  30.219  21.140   9.583
 2410POPC   GL132641  30.327  20.909   9.199
 2410POPC   GL232642  30.582  20.644   9.175
 2410POPC   C1A32643  30.216  20.723   8.788
 2410POPC   D2A32644  30.030  20.703   8.360
 2410POPC   C3A32645  30.332  20.753   8.078
 2410POPC   C4A32646  30.484  20.727   7.697
 2410POPC   C1B32647  30.749  20.579   8.758
 2410POPC   C2B32648  30.797  20.732   8.314
 2410POPC   C3B32649  30.939  20.602   7.894
 2410POPC   C4B32650  31.063  20.390   7.474
 2411POPC   NC332651  24.006  10.700   9.543
 2411POPC   PO432652  23.456  10.324   9.667
 2411POPC   GL132653  23.631  10.482   9.257
 2411POPC   GL232654  23.979  10.320   9.204
 2411POPC   C1A32655  23.458  10.679   8.872
 2411POPC   D2A32656  23.414  10.863   8.448
 2411POPC   C3A32657  23.499  10.714   8.017
 2411POPC   C4A32658  23.255  10.957   7.722
 2411POPC   C1B32659  23.935  10.508   8.780
 2411POPC   C2B32660  23.897  10.626   8.329
 2411POPC   C3B32661  24.143  10.701   7.924
 2411POPC   C4B32662  24.089  10.716   7.452
 2412POPC   NC332663  23.335  15.914   9.520
 2412POPC   PO432664  23.992  15.681   9.527
 2412POPC   GL132665  23.792  16.045   9.253
 2412POPC   GL232666  23.435  16.124   9.094
 2412POPC   C1A32667  23.801  15.941   8.805
 2412POPC   D2A32668  23.846  16.119   8.398
 2412POPC   C3A32669  23.932  15.807   8.070
 2412POPC   C4A32670  24.175  15.737   7.676
 2412POPC   C1B32671  23.354  16.224   8.690
 2412POPC   C2B32672  23.363  16.259   8.264
 2412POPC   C3B32673  23.509  16.166   7.904
 2412POPC   C4B32674  23.817  16.093   7.663
 2413POPC   NC332675  42.632  15.018   9.585
 2413POPC   PO432676  41.992  15.318   9.540
 2413POPC   GL132677  42.153  15.415   9.163
 2413POPC   GL232678  42.408  15.180   9.148
 2413POPC   C1A32679  42.068  15.260   8.733
 2413POPC   D2A32680  42.357  15.311   8.396
 2413POPC   C3A32681  42.341  15.161   8.032
 2413POPC   C4A32682  42.519  15.386   7.689
 2413POPC   C1B32683  42.507  15.012   8.758
 2413POPC   C2B32684  42.221  14.827   8.442
 2413POPC   C3B32685  42.304  14.640   8.060
 2413POPC   C4B32686  42.491  14.826   7.692
 2414POPC   NC332687   5.649  40.411   9.556
 2414POPC   PO432688   5.533  41.047   9.529
 2414POPC   GL132689   5.787  40.946   9.191
 2414POPC   GL232690   6.006  40.641   9.266
 2414POPC   C1A32691   5.878  41.171   8.818
 2414POPC   D2A32692   6.127  41.123   8.449
 2414POPC   C3A32693   5.831  41.056   8.134
 2414POPC   C4A32694   5.601  41.002   7.768
 2414POPC   C1B32695   6.084  40.713   8.822
 2414POPC   C2B32696   6.175  40.615   8.362
 2414POPC   C3B32697   6.086  40.676   7.911
 2414POPC   C4B32698   5.918  40.738   7.480
 2415POPC   NC332699   7.201  10.939   9.628
 2415POPC   PO432700   7.648  10.530   9.672
 2415POPC   GL132701   7.512  10.639   9.241
 2415POPC   GL232702   7.164  10.657   9.107
 2415POPC   C1A32703   7.549  10.550   8.783
 2415POPC   D2A32704   7.363  10.293   8.472
 2415POPC   C3A32705   7.527  10.386   8.071
 2415POPC   C4A32706   7.306  10.374   7.687
 2415POPC   C1B32707   7.139  10.855   8.706
 2415POPC   C2B32708   7.363  10.800   8.331
 2415POPC   C3B32709   7.253  10.837   7.923
 2415POPC   C4B32710   6.980  11.123   7.699
 2416POPC   NC332711  23.014  32.716   9.481
 2416POPC   PO432712  22.422  33.136   9.585
 2416POPC   GL132713  22.689  33.076   9.238
 2416POPC   GL232714  22.574  32.727   9.207
 2416POPC   C1A32715  22.732  33.299   8.815
 2416POPC   D2A32716  22.534  33.269   8.392
 2416POPC   C3A32717  22.784  33.303   7.999
 2416POPC   C4A32718  22.960  33.140   7.625
 2416POPC   C1B32719  22.893  32.809   8.845
 2416POPC   C2B32720  23.011  33.031   8.469
 2416POPC   C3B32721  22.979  32.835   8.083
 2416POPC   C4B32722  22.984  32.629   7.702
 2417POPC   NC332723  17.832  17.525   9.668
 2417POPC   PO432724  18.211  17.185   9.258
 2417POPC   GL132725  18.279  17.478   8.952
 2417POPC   GL232726  18.598  17.660   8.946
 2417POPC   C1A32727  18.122  17.857   8.742
 2417POPC   D2A32728  17.877  18.070   8.401
 2417POPC   C3A32729  17.908  17.797   8.046
 2417POPC   C4A32730  18.110  17.725   7.668
 2417POPC   C1B32731  18.627  17.299   8.650
 2417POPC   C2B32732  18.281  17.442   8.418
 2417POPC   C3B32733  18.365  17.495   8.020
 2417POPC   C4B32734  18.563  17.270   7.682
 2418POPC   NC332735  23.648  17.894   9.582
 2418POPC   PO432736  23.444  17.199   9.566
 2418POPC   GL132737  23.623  17.415   9.193
 2418POPC   GL232738  23.907  17.629   9.220
 2418POPC   C1A32739  23.837  17.257   8.788
 2418POPC   D2A32740  23.949  17.153   8.340
 2418POPC   C3A32741  23.765  17.357   7.952
 2418POPC   C4A32742  23.458  17.662   7.815
 2418POPC   C1B32743  23.757  17.770   8.802
 2418POPC   C2B32744  23.826  17.690   8.363
 2418POPC   C3B32745  23.929  17.872   7.945
 2418POPC   C4B32746  23.890  17.656   7.528
 2419POPC   NC332747  23.923  16.862   9.540
 2419POPC   PO432748  23.481  16.329   9.682
 2419POPC   GL132749  23.640  16.559   9.218
 2419POPC   GL232750  23.584  16.911   9.164
 2419POPC   C1A32751  23.872  16.685   8.810
 2419POPC   D2A32752  24.086  16.675   8.430
 2419POPC   C3A32753  23.921  16.484   8.058
 2419POPC   C4A32754  24.039  16.557   7.663
 2419POPC   C1B32755  23.437  16.943   8.766
 2419POPC   C2B32756  23.498  16.694   8.466
 2419POPC   C3B32757  23.568  16.841   8.112
 2419POPC   C4B32758  23.676  16.892   7.735
 2420POPC   NC332759  11.610  10.832   9.509
 2420POPC   PO432760  12.053  11.440   9.530
 2420POPC   GL132761  12.238  11.362   9.084
 2420POPC   GL232762  12.238  10.992   8.985
 2420POPC   C1A32763  12.497  11.375   8.688
 2420POPC   D2A32764  12.332  11.215   8.297
 2420POPC   C3A32765  12.216  11.527   7.971
 2420POPC   C4A32766  12.229  11.469   7.517
 2420POPC   C1B32767  11.984  11.199   8.675
 2420POPC   C2B32768  11.837  11.283   8.249
 2420POPC   C3B32769  11.900  11.187   7.814
 2420POPC   C4B32770  11.708  11.512   7.570
 2421POPC   NC332771   1.984  18.663   9.357
 2421POPC   PO432772   2.000  19.326   9.454
 2421POPC   GL132773   2.022  19.160   9.083
 2421POPC   GL232774   2.301  18.960   9.055
 2421POPC   C1A32775   2.147  19.251   8.668
 2421POPC   D2A32776   2.359  19.030   8.353
 2421POPC   C3A32777   2.160  19.151   7.982
 2421POPC   C4A32778   2.238  19.505   7.731
 2421POPC   C1B32779   2.107  18.725   8.713
 2421POPC   C2B32780   2.258  18.529   8.334
 2421POPC   C3B32781   2.178  18.641   7.954
 2421POPC   C4B32782   1.788  18.737   7.886
 2422POPC   NC332783   1.195  32.765   9.540
 2422POPC   PO432784   1.715  33.075   9.345
 2422POPC   GL132785   1.506  32.738   9.061
 2422POPC   GL232786   1.138  32.782   9.050
 2422POPC   C1A32787   1.301  32.650   8.603
 2422POPC   D2A32788   1.138  32.610   8.147
 2422POPC   C3A32789   1.365  32.901   7.854
 2422POPC   C4A32790   1.423  33.057   7.403
 2422POPC   C1B32791   0.925  32.982   8.701
 2422POPC   C2B32792   1.068  33.081   8.284
 2422POPC   C3B32793   0.889  33.093   7.870
 2422POPC   C4B32794   1.026  33.364   7.498
 2423POPC   NC332795  11.854  21.185   9.656
 2423POPC   PO432796  12.247  21.751   9.544
 2423POPC   GL132797  12.212  21.532   9.155
 2423POPC   GL232798  12.048  21.202   9.172
 2423POPC   C1A32799  12.234  21.415   8.725
 2423POPC   D2A32800  12.119  21.294   8.303
 2423POPC   C3A32801  12.243  21.558   7.971
 2423POPC   C4A32802  12.363  21.419   7.551
 2423POPC   C1B32803  11.738  21.453   8.914
 2423POPC   C2B32804  11.614  21.366   8.483
 2423POPC   C3B32805  11.716  21.511   8.047
 2423POPC   C4B32806  11.902  21.306   7.697
 2424POPC   NC332807   3.154  36.824   9.482
 2424POPC   PO432808   3.716  37.230   9.620
 2424POPC   GL132809   3.741  37.159   9.173
 2424POPC   GL232810   3.539  36.851   9.121
 2424POPC   C1A32811   3.716  37.351   8.751
 2424POPC   D2A32812   3.453  37.295   8.383
 2424POPC   C3A32813   3.554  37.100   7.983
 2424POPC   C4A32814   3.377  37.109   7.574
 2424POPC   C1B32815   3.830  36.773   8.789
 2424POPC   C2B32816   3.994  36.649   8.388
 2424POPC   C3B32817   3.803  36.623   7.988
 2424POPC   C4B32818   3.374  36.629   7.867
 2425POPC   NC332819  32.340   6.695   9.322
 2425POPC   PO432820  31.712   6.767   9.587
 2425POPC   GL132821  31.856   6.676   9.168
 2425POPC   GL232822  32.069   6.910   8.953
 2425POPC   C1A32823  32.030   6.449   8.800
 2425POPC   D2A32824  32.093   6.571   8.438
 2425POPC   C3A32825  32.374   6.687   8.154
 2425POPC   C4A32826  32.176   6.542   7.776
 2425POPC   C1B32827  32.465   6.810   8.716
 2425POPC   C2B32828  32.677   7.043   8.421
 2425POPC   C3B32829  32.576   7.191   8.058
 2425POPC   C4B32830  32.488   6.954   7.728
 2426POPC   NC332831  34.793   7.524   9.699
 2426POPC   PO432832  34.091   7.339   9.554
 2426POPC   GL132833  34.378   7.283   9.203
 2426POPC   GL232834  34.653   7.397   9.223
 2426POPC   C1A32835  34.561   7.056   8.834
 2426POPC   D2A32836  34.798   7.125   8.448
 2426POPC   C3A32837  34.583   7.270   8.101
 2426POPC   C4A32838  34.397   7.336   7.720
 2426POPC   C1B32839  34.776   7.533   8.806
 2426POPC   C2B32840  34.670   7.677   8.411
 2426POPC   C3B32841  34.713   7.771   8.000
 2426POPC   C4B32842  34.935   7.587   7.698
 2427POPC   NC332843  35.953  32.698   9.480
 2427POPC   PO432844  36.321  33.342   9.507
 2427POPC   GL132845  36.130  33.165   9.164
 2427POPC   GL232846  36.446  33.010   9.097
 2427POPC   C1A32847  35.786  33.217   8.853
 2427POPC   D2A32848  35.766  33.074   8.427
 2427POPC   C3A32849  36.083  33.183   8.115
 2427POPC   C4A32850  36.211  32.860   7.810
 2427POPC   C1B32851  36.359  33.086   8.668
 2427POPC   C2B32852  36.583  33.226   8.287
 2427POPC   C3B32853  36.608  33.187   7.819
 2427POPC   C4B32854  36.598  32.911   7.432
 2428POPC   NC332855  42.561   6.768   9.660
 2428POPC   PO432856  43.113   6.379   9.522
 2428POPC   GL132857  42.976   6.744   9.266
 2428POPC   GL232858  43.049   6.473   9.023
 2428POPC   C1A32859  43.064   6.925   8.818
 2428POPC   D2A32860  43.048   6.738   8.381
 2428POPC   C3A32861  43.104   6.962   7.979
 2428POPC   C4A32862  43.043   6.855   7.540
 2428POPC   C1B32863  42.822   6.391   8.683
 2428POPC   C2B32864  42.642   6.314   8.326
 2428POPC   C3B32865  42.767   6.551   7.978
 2428POPC   C4B32866  42.645   6.533   7.593
 2429POPC   NC332867  19.341  20.179   9.838
 2429POPC   PO432868  18.943  20.450   9.359
 2429POPC   GL132869  19.032  20.388   9.002
 2429POPC   GL232870  19.302  20.616   9.052
 2429POPC   C1A32871  19.192  20.384   8.602
 2429POPC   D2A32872  18.988  20.447   8.257
 2429POPC   C3A32873  19.144  20.446   7.891
 2429POPC   C4A32874  18.783  20.611   7.737
 2429POPC   C1B32875  19.112  20.855   8.805
 2429POPC   C2B32876  19.216  20.892   8.411
 2429POPC   C3B32877  19.125  20.949   8.011
 2429POPC   C4B32878  19.247  20.862   7.619
 2430POPC   NC332879  35.339  13.354   9.479
 2430POPC   PO432880  35.525  14.028   9.490
 2430POPC   GL132881  35.492  13.824   9.115
 2430POPC   GL232882  35.628  13.467   9.061
 2430POPC   C1A32883  35.621  13.837   8.709
 2430POPC   D2A32884  35.645  13.501   8.460
 2430POPC   C3A32885  35.537  13.665   8.086
 2430POPC   C4A32886  35.610  13.515   7.670
 2430POPC   C1B32887  35.242  13.465   8.778
 2430POPC   C2B32888  35.151  13.349   8.327
 2430POPC   C3B32889  35.095  13.516   7.906
 2430POPC   C4B32890  34.999  13.740   7.579
 2431POPC   NC332891  41.890  23.986   9.541
 2431POPC   PO432892  41.441  23.531   9.472
 2431POPC   GL132893  41.369  23.732   9.116
 2431POPC   GL232894  41.723  23.830   9.066
 2431POPC   C1A32895  41.419  23.653   8.688
 2431POPC   D2A32896  41.722  23.647   8.343
 2431POPC   C3A32897  41.510  23.716   7.966
 2431POPC   C4A32898  41.460  23.489   7.569
 2431POPC   C1B32899  41.887  24.024   8.656
 2431POPC   C2B32900  41.842  24.116   8.170
 2431POPC   C3B32901  41.967  24.010   7.730
 2431POPC   C4B32902  41.902  24.229   7.290
 2432POPC   NC332903  13.638  31.033   9.487
 2432POPC   PO432904  13.682  30.327   9.527
 2432POPC   GL132905  13.738  30.620   9.180
 2432POPC   GL232906  13.383  30.741   9.169
 2432POPC   C1A32907  13.750  30.813   8.765
 2432POPC   D2A32908  13.814  30.581   8.363
 2432POPC   C3A32909  13.824  30.820   8.023
 2432POPC   C4A32910  13.625  30.863   7.671
 2432POPC   C1B32911  13.281  30.999   8.809
 2432POPC   C2B32912  13.469  31.002   8.373
 2432POPC   C3B32913  13.236  30.923   8.004
 2432POPC   C4B32914  13.145  31.065   7.613
 2433POPC   NC332915   0.919   8.595   9.731
 2433POPC   PO432916   1.465   8.674   9.506
 2433POPC   GL132917   1.450   8.811   9.082
 2433POPC   GL232918   1.102   8.724   9.030
 2433POPC   C1A32919   1.447   8.579   8.689
 2433POPC   D2A32920   1.349   8.663   8.294
 2433POPC   C3A32921   1.549   9.006   8.073
 2433POPC   C4A32922   1.705   8.906   7.701
 2433POPC   C1B32923   0.901   8.657   8.600
 2433POPC   C2B32924   0.608   8.737   8.255
 2433POPC   C3B32925   0.777   8.840   7.863
 2433POPC   C4B32926   1.112   9.187   7.797
 2434POPC   NC332927  39.990  33.857   9.701
 2434POPC   PO432928  40.474  34.262   9.544
 2434POPC   GL132929  40.264  33.892   9.273
 2434POPC   GL232930  39.897  33.815   9.212
 2434POPC   C1A32931  40.235  33.785   8.814
 2434POPC   D2A32932  40.115  33.577   8.438
 2434POPC   C3A32933  39.884  33.808   8.155
 2434POPC   C4A32934  39.999  33.985   7.750
 2434POPC   C1B32935  39.719  33.632   8.840
 2434POPC   C2B32936  39.446  33.549   8.492
 2434POPC   C3B32937  39.532  33.442   8.081
 2434POPC   C4B32938  39.747  33.534   7.735
 2435POPC   NC332939   2.636   5.618   9.585
 2435POPC   PO432940   2.784   6.266   9.466
 2435POPC   GL132941   2.726   6.062   9.092
 2435POPC   GL232942   2.465   5.868   9.151
 2435POPC   C1A32943   2.868   5.720   8.830
 2435POPC   D2A32944   3.066   5.757   8.431
 2435POPC   C3A32945   2.874   6.075   8.163
 2435POPC   C4A32946   3.006   5.924   7.771
 2435POPC   C1B32947   2.339   5.747   8.787
 2435POPC   C2B32948   2.537   5.731   8.416
 2435POPC   C3B32949   2.548   5.699   8.001
 2435POPC   C4B32950   2.516   6.002   7.705
 2436POPC   NC332951  26.988  44.026   9.519
 2436POPC   PO432952  26.320  44.157   9.520
 2436POPC   GL132953  26.619  44.013   9.181
 2436POPC   GL232954  26.622  43.665   8.997
 2436POPC   C1A32955  26.943  44.038   8.852
 2436POPC   D2A32956  26.833  43.898   8.467
 2436POPC   C3A32957  26.919  44.087   8.102
 2436POPC   C4A32958  26.830  43.924   7.718
 2436POPC   C1B32959  27.030  43.531   8.782
 2436POPC   C2B32960  27.259  43.604   8.435
 2436POPC   C3B32961  27.136  43.602   8.014
 2436POPC   C4B32962  27.316  43.724   7.632
 2437POPC   NC332963   7.014  19.754   9.528
 2437POPC   PO432964   7.415  20.188   9.821
 2437POPC   GL132965   7.305  20.089   9.284
 2437POPC   GL232966   7.338  19.817   9.125
 2437POPC   C1A32967   7.321  20.189   8.790
 2437POPC   D2A32968   7.524  20.284   8.367
 2437POPC   C3A32969   7.449  20.024   7.997
 2437POPC   C4A32970   7.038  19.919   7.824
 2437POPC   C1B32971   7.456  19.562   8.810
 2437POPC   C2B32972   7.378  19.674   8.390
 2437POPC   C3B32973   7.283  19.498   8.001
 2437POPC   C4B32974   7.627  19.547   7.767
 2438POPC   NC332975  31.701  16.881   9.424
 2438POPC   PO432976  31.296  16.289   9.545
 2438POPC   GL132977  31.363  16.562   9.146
 2438POPC   GL232978  31.676  16.473   9.109
 2438POPC   C1A32979  31.322  16.878   8.757
 2438POPC   D2A32980  31.482  16.694   8.326
 2438POPC   C3A32981  31.311  16.790   7.899
 2438POPC   C4A32982  31.185  17.078   7.536
 2438POPC   C1B32983  31.780  16.698   8.750
 2438POPC   C2B32984  31.989  16.912   8.400
 2438POPC   C3B32985  31.820  16.944   8.013
 2438POPC   C4B32986  31.735  16.536   7.843
 2439POPC   NC332987   2.540  28.045   9.462
 2439POPC   PO432988   3.002  28.554   9.562
 2439POPC   GL132989   2.836  28.502   9.168
 2439POPC   GL232990   2.939  28.145   9.108
 2439POPC   C1A32991   3.019  28.468   8.724
 2439POPC   D2A32992   2.938  28.464   8.307
 2439POPC   C3A32993   3.167  28.305   8.015
 2439POPC   C4A32994   2.914  28.489   7.738
 2439POPC   C1B32995   2.564  28.260   8.829
 2439POPC   C2B32996   2.515  28.164   8.416
 2439POPC   C3B32997   2.510  28.340   8.015
 2439POPC   C4B32998   2.521  28.174   7.608
 2440POPC   NC332999  19.451  12.641   9.465
 2440POPC   PO433000  19.816  13.200   9.545
 2440POPC   GL133001  19.811  13.119   9.133
 2440POPC   GL233002  19.482  13.194   9.103
 2440POPC   C1A33003  19.926  12.905   8.759
 2440POPC   D2A33004  20.052  12.787   8.337
 2440POPC   C3A33005  20.103  12.504   7.988
 2440POPC   C4A33006  19.931  12.661   7.615
 2440POPC   C1B33007  19.356  13.018   8.718
 2440POPC   C2B33008  19.544  12.706   8.457
 2440POPC   C3B33009  19.584  12.712   8.020
 2440POPC   C4B33010  19.563  13.028   7.737
 2441POPC   NC333011  17.404  18.621   9.465
 2441POPC   PO433012  17.696  17.981   9.574
 2441POPC   GL133013  17.783  18.192   9.150
 2441POPC   GL233014  17.759  18.576   9.099
 2441POPC   C1A33015  17.531  18.204   8.763
 2441POPC   D2A33016  17.096  18.164   8.566
 2441POPC   C3A33017  17.107  18.197   8.088
 2441POPC   C4A33018  17.214  18.484   7.757
 2441POPC   C1B33019  17.410  18.710   8.816
 2441POPC   C2B33020  17.371  18.560   8.393
 2441POPC   C3B33021  17.615  18.407   8.059
 2441POPC   C4B33022  17.684  18.694   7.691
 2442POPC   NC333023  34.368   5.393   9.591
 2442POPC   PO433024  34.826   4.990   9.559
 2442POPC   GL133025  34.553   5.095   9.198
 2442POPC   GL233026  34.451   4.779   9.018
 2442POPC   C1A33027  34.380   5.220   8.802
 2442POPC   D2A33028  34.263   4.914   8.464
 2442POPC   C3A33029  34.452   4.978   8.053
 2442POPC   C4A33030  34.408   5.248   7.692
 2442POPC   C1B33031  34.823   4.849   8.817
 2442POPC   C2B33032  34.801   4.757   8.369
 2442POPC   C3B33033  34.987   5.006   8.055
 2442POPC   C4B33034  35.285   4.944   7.722
 2443POPC   NC333035  34.372  30.778   9.499
 2443POPC   PO433036  35.015  30.738   9.615
 2443POPC   GL133037  34.805  30.662   9.218
 2443POPC   GL233038  34.563  30.943   9.069
 2443POPC   C1A33039  34.701  30.530   8.819
 2443POPC   D2A33040  34.643  30.791   8.487
 2443POPC   C3A33041  34.682  30.644   8.084
 2443POPC   C4A33042  34.750  30.922   7.768
 2443POPC   C1B33043  34.222  30.961   8.757
 2443POPC   C2B33044  34.180  30.878   8.314
 2443POPC   C3B33045  34.269  30.993   7.893
 2443POPC   C4B33046  34.320  30.962   7.414
 2444POPC   NC333047  34.848  23.912   9.491
 2444POPC   PO433048  34.294  23.421   9.523
 2444POPC   GL133049  34.392  23.612   9.125
 2444POPC   GL233050  34.752  23.647   9.060
 2444POPC   C1A33051  34.373  23.479   8.715
 2444POPC   D2A33052  34.205  23.314   8.313
 2444POPC   C3A33053  34.333  23.598   8.001
 2444POPC   C4A33054  34.127  23.950   7.840
 2444POPC   C1B33055  34.544  23.967   8.778
 2444POPC   C2B33056  34.391  23.979   8.363
 2444POPC   C3B33057  34.633  24.057   7.987
 2444POPC   C4B33058  34.923  23.879   7.671
 2445POPC   NC333059  20.652  41.897   9.564
 2445POPC   PO433060  20.736  42.592   9.665
 2445POPC   GL133061  20.730  42.375   9.304
 2445POPC   GL233062  20.747  42.687   9.115
 2445POPC   C1A33063  20.562  42.272   8.902
 2445POPC   D2A33064  20.558  42.353   8.478
 2445POPC   C3A33065  20.297  42.206   8.148
 2445POPC   C4A33066  20.411  42.337   7.744
 2445POPC   C1B33067  20.584  42.832   8.682
 2445POPC   C2B33068  20.676  42.820   8.226
 2445POPC   C3B33069  20.763  42.750   7.769
 2445POPC   C4B33070  20.604  42.690   7.350
 2446POPC   NC333071  21.804  26.107   9.518
 2446POPC   PO433072  22.490  25.854   9.557
 2446POPC   GL133073  22.310  25.914   9.115
 2446POPC   GL233074  22.054  26.180   9.061
 2446POPC   C1A33075  22.405  26.128   8.704
 2446POPC   D2A33076  22.306  26.341   8.304
 2446POPC   C3A33077  22.534  26.224   7.954
 2446POPC   C4A33078  22.438  26.002   7.579
 2446POPC   C1B33079  21.793  26.060   8.719
 2446POPC   C2B33080  21.596  25.846   8.366
 2446POPC   C3B33081  21.782  25.838   8.003
 2446POPC   C4B33082  22.032  26.181   7.878
 2447POPC   NC333083  44.513  33.238   9.788
 2447POPC   PO433084  44.846  32.889   9.464
 2447POPC   GL133085  44.599  32.795   9.065
 2447POPC   GL233086  44.257  32.676   9.050
 2447POPC   C1A33087  44.798  32.903   8.670
 2447POPC   D2A33088  44.619  33.189   8.366
 2447POPC   C3A33089  44.729  33.125   7.958
 2447POPC   C4A33090  44.975  32.798   7.772
 2447POPC   C1B33091  44.333  32.736   8.616
 2447POPC   C2B33092  44.325  32.799   8.176
 2447POPC   C3B33093  44.467  32.724   7.794
 2447POPC   C4B33094  44.412  32.663   7.359
 2448POPC   NC333095  33.067  30.813   9.687
 2448POPC   PO433096  32.691  30.325   9.401
 2448POPC   GL133097  32.850  30.688   9.169
 2448POPC   GL233098  33.191  30.806   9.197
 2448POPC   C1A33099  32.841  30.844   8.754
 2448POPC   D2A33100  32.853  31.038   8.336
 2448POPC   C3A33101  32.954  30.778   7.968
 2448POPC   C4A33102  32.831  30.745   7.532
 2448POPC   C1B33103  33.328  30.638   8.851
 2448POPC   C2B33104  33.208  30.609   8.438
 2448POPC   C3B33105  33.402  30.509   8.068
 2448POPC   C4B33106  33.338  30.547   7.651
 2449POPC   NC333107  44.338  26.921   9.392
 2449POPC   PO433108  44.754  26.420   9.654
 2449POPC   GL133109  44.843  26.663   9.281
 2449POPC   GL233110   0.098  26.508   9.135
 2449POPC   C1A33111  44.867  26.965   8.929
 2449POPC   D2A33112  44.543  27.074   8.614
 2449POPC   C3A33113  44.621  27.149   8.181
 2449POPC   C4A33114  44.615  26.887   7.835
 2449POPC   C1B33115  44.852  26.474   8.751
 2449POPC   C2B33116  44.724  26.610   8.333
 2449POPC   C3B33117  44.876  26.471   7.937
 2449POPC   C4B33118  44.774  26.518   7.508
 2450POPC   NC333119   3.655   1.355   9.554
 2450POPC   PO433120   3.472   0.734   9.286
 2450POPC   GL133121   3.380   1.140   9.066
 2450POPC   GL233122   3.413   1.505   9.135
 2450POPC   C1A33123   3.445   1.199   8.645
 2450POPC   D2A33124   3.703   0.949   8.389
 2450POPC   C3A33125   3.495   0.919   8.004
 2450POPC   C4A33126   3.665   1.072   7.622
 2450POPC   C1B33127   3.135   1.607   8.780
 2450POPC   C2B33128   3.121   1.440   8.337
 2450POPC   C3B33129   3.507   1.438   8.138
 2450POPC   C4B33130   3.694   1.570   7.765
 2451POPC   NC333131  30.368  23.992   9.462
 2451POPC   PO433132  29.803  23.587   9.564
 2451POPC   GL133133  29.860  23.776   9.157
 2451POPC   GL233134  30.194  23.645   9.120
 2451POPC   C1A33135  29.810  23.718   8.687
 2451POPC   D2A33136  29.584  23.714   8.259
 2451POPC   C3A33137  29.752  23.565   7.849
 2451POPC   C4A33138  29.915  23.862   7.476
 2451POPC   C1B33139  30.217  24.020   8.832
 2451POPC   C2B33140  30.051  24.106   8.413
 2451POPC   C3B33141  30.097  23.928   7.980
 2451POPC   C4B33142  30.416  23.918   7.633
 2452POPC   NC333143  33.207  11.979   9.898
 2452POPC   PO433144  32.740  11.975   9.390
 2452POPC   GL133145  32.942  12.087   9.067
 2452POPC   GL233146  33.057  11.736   9.032
 2452POPC   C1A33147  32.936  12.355   8.678
 2452POPC   D2A33148  32.987  12.462   8.203
 2452POPC   C3A33149  33.003  12.175   7.887
 2452POPC   C4A33150  32.755  12.412   7.597
 2452POPC   C1B33151  33.275  11.702   8.683
 2452POPC   C2B33152  33.191  11.902   8.312
 2452POPC   C3B33153  33.337  11.775   7.928
 2452POPC   C4B33154  33.296  11.679   7.461
 2453POPC   NC333155  11.129  32.862   9.487
 2453POPC   PO433156  11.663  33.299   9.555
 2453POPC   GL133157  11.352  33.249   9.213
 2453POPC   GL233158  11.579  33.013   9.094
 2453POPC   C1A33159  11.165  33.019   8.806
 2453POPC   D2A33160  11.421  32.976   8.408
 2453POPC   C3A33161  11.260  32.899   8.009
 2453POPC   C4A33162  11.325  32.798   7.601
 2453POPC   C1B33163  11.566  33.331   8.752
 2453POPC   C2B33164  11.681  33.467   8.371
 2453POPC   C3B33165  11.518  33.343   8.020
 2453POPC   C4B33166  11.629  33.286   7.633
 2454POPC   NC333167   9.623  40.970   9.887
 2454POPC   PO433168   9.916  40.546   9.441
 2454POPC   GL133169   9.912  40.831   9.160
 2454POPC   GL233170  10.211  40.671   9.060
 2454POPC   C1A33171   9.796  41.016   8.774
 2454POPC   D2A33172   9.932  40.876   8.379
 2454POPC   C3A33173   9.591  40.867   8.124
 2454POPC   C4A33174   9.537  41.258   7.899
 2454POPC   C1B33175   9.908  40.500   8.739
 2454POPC   C2B33176   9.946  40.343   8.294
 2454POPC   C3B33177   9.934  40.543   7.895
 2454POPC   C4B33178  10.002  41.018   7.888
 2455POPC   NC333179   8.526  39.289   9.757
 2455POPC   PO433180   8.111  39.584   9.337
 2455POPC   GL133181   8.152  39.221   9.112
 2455POPC   GL233182   8.490  39.092   9.193
 2455POPC   C1A33183   7.967  39.195   8.675
 2455POPC   D2A33184   8.190  39.255   8.336
 2455POPC   C3A33185   7.975  39.343   7.992
 2455POPC   C4A33186   8.253  39.618   7.742
 2455POPC   C1B33187   8.356  38.887   8.795
 2455POPC   C2B33188   8.205  38.739   8.428
 2455POPC   C3B33189   8.323  38.858   8.048
 2455POPC   C4B33190   8.289  39.091   7.701
 2456POPC   NC333191  23.609  29.218   9.524
 2456POPC   PO433192  24.299  29.389   9.555
 2456POPC   GL133193  24.000  29.107   9.236
 2456POPC   GL233194  23.735  29.361   9.057
 2456POPC   C1A33195  23.853  28.950   8.810
 2456POPC   D2A33196  23.819  29.287   8.493
 2456POPC   C3A33197  23.719  29.169   8.092
 2456POPC   C4A33198  23.753  28.824   7.823
 2456POPC   C1B33199  23.392  29.413   8.723
 2456POPC   C2B33200  23.289  29.233   8.382
 2456POPC   C3B33201  23.207  29.309   7.995
 2456POPC   C4B33202  23.436  29.184   7.666
 2457POPC   NC333203  30.316  20.031   9.565
 2457POPC   PO433204  30.806  19.713   9.477
 2457POPC   GL133205  30.632  19.814   9.143
 2457POPC   GL233206  30.705  20.146   9.162
 2457POPC   C1A33207  30.707  19.856   8.713
 2457POPC   D2A33208  30.596  19.623   8.386
 2457POPC   C3A33209  30.706  19.766   8.000
 2457POPC   C4A33210  31.099  19.576   7.899
 2457POPC   C1B33211  30.380  20.230   8.873
 2457POPC   C2B33212  30.392  20.357   8.453
 2457POPC   C3B33213  30.454  20.231   8.060
 2457POPC   C4B33214  30.619  20.246   7.675
 2458POPC   NC333215   7.619   7.852   9.720
 2458POPC   PO433216   7.252   7.326   9.443
 2458POPC   GL133217   7.399   7.563   9.132
 2458POPC   GL233218   7.702   7.424   9.135
 2458POPC   C1A33219   7.321   7.458   8.702
 2458POPC   D2A33220   7.113   7.489   8.302
 2458POPC   C3A33221   7.358   7.475   7.919
 2458POPC   C4A33222   7.193   7.495   7.472
 2458POPC   C1B33223   7.739   7.173   8.782
 2458POPC   C2B33224   7.665   7.287   8.343
 2458POPC   C3B33225   7.659   7.037   7.972
 2458POPC   C4B33226   7.448   7.067   7.594
 2459POPC   NC333227  13.993  16.140   9.563
 2459POPC   PO433228  13.431  15.649   9.673
 2459POPC   GL133229  13.681  15.831   9.274
 2459POPC   GL233230  13.755  16.191   9.117
 2459POPC   C1A33231  13.710  15.795   8.808
 2459POPC   D2A33232  13.611  16.087   8.465
 2459POPC   C3A33233  13.506  15.883   8.094
 2459POPC   C4A33234  13.535  15.847   7.670
 2459POPC   C1B33235  13.905  16.427   8.729
 2459POPC   C2B33236  14.047  16.309   8.292
 2459POPC   C3B33237  14.003  16.040   7.925
 2459POPC   C4B33238  13.883  16.199   7.485
 2460POPC   NC333239  40.959  37.205   9.513
 2460POPC   PO433240  40.910  37.879   9.551
 2460POPC   GL133241  40.724  37.654   9.213
 2460POPC   GL233242  40.487  37.391   9.265
 2460POPC   C1A33243  40.789  37.607   8.794
 2460POPC   D2A33244  40.813  37.473   8.374
 2460POPC   C3A33245  40.917  37.695   8.006
 2460POPC   C4A33246  40.972  38.002   7.644
 2460POPC   C1B33247  40.448  37.230   8.807
 2460POPC   C2B33248  40.298  37.311   8.411
 2460POPC   C3B33249  40.480  37.281   8.015
 2460POPC   C4B33250  40.742  37.342   7.689
 2461POPC   NC333251  21.744   6.484   9.428
 2461POPC   PO433252  22.373   6.803   9.454
 2461POPC   GL133253  22.114   6.703   9.152
 2461POPC   GL233254  21.983   7.036   9.123
 2461POPC   C1A33255  22.153   6.390   8.822
 2461POPC   D2A33256  22.337   6.282   8.423
 2461POPC   C3A33257  22.204   6.545   8.071
 2461POPC   C4A33258  22.407   6.759   7.732
 2461POPC   C1B33259  22.027   6.881   8.696
 2461POPC   C2B33260  22.268   7.003   8.341
 2461POPC   C3B33261  22.077   7.064   7.968
 2461POPC   C4B33262  21.921   6.854   7.598
 2462POPC   NC333263   4.529   7.928   9.936
 2462POPC   PO433264   4.308   8.421   9.520
 2462POPC   GL133265   4.225   8.088   9.231
 2462POPC   GL233266   4.526   7.882   9.140
 2462POPC   C1A33267   4.250   8.124   8.785
 2462POPC   D2A33268   4.455   8.448   8.546
 2462POPC   C3A33269   4.531   8.398   8.104
 2462POPC   C4A33270   4.330   8.526   7.723
 2462POPC   C1B33271   4.760   7.990   8.781
 2462POPC   C2B33272   4.689   7.962   8.351
 2462POPC   C3B33273   4.871   8.044   7.959
 2462POPC   C4B33274   4.565   8.065   7.650
 2463POPC   NC333275  11.387  38.486   9.631
 2463POPC   PO433276  10.821  38.276   9.443
 2463POPC   GL133277  11.133  38.436   9.183
 2463POPC   GL233278  11.526  38.377   9.167
 2463POPC   C1A33279  11.078  38.590   8.817
 2463POPC   D2A33280  11.200  38.553   8.429
 2463POPC   C3A33281  10.873  38.582   8.180
 2463POPC   C4A33282  10.954  38.525   7.778
 2463POPC   C1B33283  11.753  38.236   8.812
 2463POPC   C2B33284  11.761  38.388   8.445
 2463POPC   C3B33285  11.549  38.384   8.057
 2463POPC   C4B33286  11.457  38.461   7.634
 2464POPC   NC333287  16.734  23.952   9.373
 2464POPC   PO433288  16.358  23.394   9.569
 2464POPC   GL133289  16.448  23.558   9.176
 2464POPC   GL233290  16.830  23.514   9.146
 2464POPC   C1A33291  16.538  23.764   8.780
 2464POPC   D2A33292  16.769  23.663   8.436
 2464POPC   C3A33293  16.557  23.839   8.115
 2464POPC   C4A33294  16.789  24.023   7.825
 2464POPC   C1B33295  17.162  23.318   8.930
 2464POPC   C2B33296  17.209  23.374   8.494
 2464POPC   C3B33297  17.143  23.565   8.075
 2464POPC   C4B33298  17.080  23.435   7.654
 2465POPC   NC333299   2.374  43.381   9.640
 2465POPC   PO433300   2.963  43.116   9.457
 2465POPC   GL133301   2.602  43.146   9.158
 2465POPC   GL233302   2.405  43.482   9.153
 2465POPC   C1A33303   2.606  42.966   8.723
 2465POPC   D2A33304   2.818  42.981   8.335
 2465POPC   C3A33305   2.697  42.827   7.946
 2465POPC   C4A33306   3.055  42.936   7.699
 2465POPC   C1B33307   2.569  43.476   8.763
 2465POPC   C2B33308   2.547  43.416   8.362
 2465POPC   C3B33309   2.722  43.471   8.003
 2465POPC   C4B33310   2.666  43.281   7.644
 2466POPC   NC333311   0.323  31.525   9.529
 2466POPC   PO433312   0.765  31.073   9.712
 2466POPC   GL133313   0.424  31.073   9.262
 2466POPC   GL233314   0.194  31.319   9.106
 2466POPC   C1A33315   0.554  31.221   8.773
 2466POPC   D2A33316   0.378  31.220   8.375
 2466POPC   C3A33317   0.585  31.339   8.015
 2466POPC   C4A33318   0.725  31.299   7.591
 2466POPC   C1B33319   0.168  31.566   8.741
 2466POPC   C2B33320  44.940  31.521   8.378
 2466POPC   C3B33321   0.075  31.447   7.980
 2466POPC   C4B33322  44.988  31.443   7.545
 2467POPC   NC333323  11.080  13.263   9.510
 2467POPC   PO433324  11.191  12.617   9.694
 2467POPC   GL133325  11.078  12.771   9.280
 2467POPC   GL233326  11.411  12.639   9.165
 2467POPC   C1A33327  11.106  12.908   8.837
 2467POPC   D2A33328  11.436  12.769   8.521
 2467POPC   C3A33329  11.335  12.849   8.065
 2467POPC   C4A33330  11.374  12.655   7.665
 2467POPC   C1B33331  11.610  13.005   8.994
 2467POPC   C2B33332  11.769  13.212   8.622
 2467POPC   C3B33333  11.728  13.145   8.200
 2467POPC   C4B33334  11.792  13.411   7.829
 2468POPC   NC333335  13.295  16.787   9.934
 2468POPC   PO433336  13.784  16.552   9.505
 2468POPC   GL133337  13.588  16.688   9.137
 2468POPC   GL233338  13.792  16.912   9.002
 2468POPC   C1A33339  13.447  16.642   8.690
 2468POPC   D2A33340  13.287  16.916   8.362
 2468POPC   C3A33341  13.347  16.778   7.937
 2468POPC   C4A33342  13.580  16.808   7.541
 2468POPC   C1B33343  13.819  17.024   8.569
 2468POPC   C2B33344  13.793  16.751   8.231
 2468POPC   C3B33345  13.982  16.737   7.838
 2468POPC   C4B33346  13.984  17.124   7.577
 2469POPC   NC333347  28.972   9.302   9.551
 2469POPC   PO433348  28.993   8.692   9.615
 2469POPC   GL133349  29.224   8.892   9.216
 2469POPC   GL233350  29.264   9.257   9.135
 2469POPC   C1A33351  29.023   8.982   8.786
 2469POPC   D2A33352  29.146   8.877   8.352
 2469POPC   C3A33353  29.033   9.238   8.079
 2469POPC   C4A33354  28.834   9.252   7.680
 2469POPC   C1B33355  29.524   9.047   8.801
 2469POPC   C2B33356  29.756   9.134   8.459
 2469POPC   C3B33357  29.527   9.085   8.081
 2469POPC   C4B33358  29.249   8.844   7.791
 2470POPC   NC333359   0.790   5.642   9.821
 2470POPC   PO433360   1.424   5.853   9.628
 2470POPC   GL133361   1.135   5.946   9.305
 2470POPC   GL233362   1.186   5.617   9.211
 2470POPC   C1A33363   0.983   6.185   8.939
 2470POPC   D2A33364   1.103   6.192   8.500
 2470POPC   C3A33365   0.785   6.185   8.150
 2470POPC   C4A33366   0.819   6.005   7.735
 2470POPC   C1B33367   1.330   5.553   8.798
 2470POPC   C2B33368   1.125   5.642   8.418
 2470POPC   C3B33369   1.171   5.822   8.052
 2470POPC   C4B33370   1.105   5.591   7.666
 2471POPC   NC333371   0.537   7.774   9.308
 2471POPC   PO433372   0.101   7.570   9.764
 2471POPC   GL133373   0.128   7.478   9.219
 2471POPC   GL233374   0.222   7.192   9.031
 2471POPC   C1A33375   0.211   7.618   8.753
 2471POPC   D2A33376   0.459   7.526   8.400
 2471POPC   C3A33377   0.402   7.616   8.005
 2471POPC   C4A33378   0.226   7.308   7.815
 2471POPC   C1B33379   0.648   7.294   8.807
 2471POPC   C2B33380   0.844   7.117   8.455
 2471POPC   C3B33381   0.734   7.209   8.039
 2471POPC   C4B33382   0.851   7.005   7.643
 2472POPC   NC333383  10.064  10.469   9.648
 2472POPC   PO433384  10.715  10.257   9.596
 2472POPC   GL133385  10.460  10.495   9.273
 2472POPC   GL233386  10.730  10.614   9.084
 2472POPC   C1A33387  10.322  10.491   8.822
 2472POPC   D2A33388  10.400  10.678   8.397
 2472POPC   C3A33389  10.367  10.381   8.069
 2472POPC   C4A33390  10.256  10.429   7.671
 2472POPC   C1B33391  10.812  10.505   8.653
 2472POPC   C2B33392  10.854  10.464   8.204
 2472POPC   C3B33393  10.773  10.477   7.742
 2472POPC   C4B33394  10.981  10.300   7.335
 2473POPC   NC333395  33.341  44.741   9.759
 2473POPC   PO433396  32.956   0.355   9.574
 2473POPC   GL133397  32.956   0.383   9.150
 2473POPC   GL233398  32.668   0.556   9.144
 2473POPC   C1A33399  32.972   0.329   8.733
 2473POPC   D2A33400  33.157   0.188   8.400
 2473POPC   C3A33401  33.012   0.239   8.042
 2473POPC   C4A33402  33.203   0.031   7.722
 2473POPC   C1B33403  32.755   0.768   8.770
 2473POPC   C2B33404  33.028   0.723   8.384
 2473POPC   C3B33405  32.943   0.728   7.946
 2473POPC   C4B33406  32.830   0.461   7.570
 2474POPC   NC333407  33.882  33.203   9.723
 2474POPC   PO433408  33.514  32.673   9.436
 2474POPC   GL133409  33.853  32.783   9.084
 2474POPC   GL233410  33.986  33.182   9.082
 2474POPC   C1A33411  34.105  32.765   8.727
 2474POPC   D2A33412  34.148  32.592   8.330
 2474POPC   C3A33413  33.879  32.699   8.023
 2474POPC   C4A33414  33.864  32.699   7.612
 2474POPC   C1B33415  33.809  33.205   8.705
 2474POPC   C2B33416  33.899  33.097   8.337
 2474POPC   C3B33417  33.958  33.209   7.940
 2474POPC   C4B33418  33.816  33.223   7.540
 2475POPC   NC333419  16.262  25.481   9.363
 2475POPC   PO433420  16.907  25.508   9.558
 2475POPC   GL133421  16.700  25.354   9.133
 2475POPC   GL233422  16.983  25.510   9.056
 2475POPC   C1A33423  16.447  25.306   8.720
 2475POPC   D2A33424  16.250  25.238   8.305
 2475POPC   C3A33425  16.498  25.382   7.963
 2475POPC   C4A33426  16.760  25.335   7.617
 2475POPC   C1B33427  16.971  25.358   8.670
 2475POPC   C2B33428  16.781  25.178   8.338
 2475POPC   C3B33429  16.935  25.019   7.990
 2475POPC   C4B33430  17.257  25.237   7.834
 2476POPC   NC333431   0.892  41.265   9.334
 2476POPC   PO433432   1.424  41.637   9.369
 2476POPC   GL133433   1.151  41.614   9.045
 2476POPC   GL233434   1.306  41.289   8.985
 2476POPC   C1A33435   1.090  41.690   8.605
 2476POPC   D2A33436   1.409  41.702   8.268
 2476POPC   C3A33437   1.338  41.975   7.936
 2476POPC   C4A33438   1.351  41.877   7.505
 2476POPC   C1B33439   0.974  41.177   8.705
 2476POPC   C2B33440   1.105  41.077   8.321
 2476POPC   C3B33441   1.436  41.205   8.107
 2476POPC   C4B33442   1.302  41.457   7.784
 2477POPC   NC333443  33.206  35.001   9.397
 2477POPC   PO433444  32.789  35.420   9.411
 2477POPC   GL133445  33.119  35.425   9.061
 2477POPC   GL233446  33.264  35.122   8.915
 2477POPC   C1A33447  32.962  35.622   8.649
 2477POPC   D2A33448  32.846  35.805   8.218
 2477POPC   C3A33449  33.106  35.655   7.864
 2477POPC   C4A33450  33.324  35.297   7.696
 2477POPC   C1B33451  32.876  35.099   8.706
 2477POPC   C2B33452  32.927  35.252   8.291
 2477POPC   C3B33453  32.752  35.288   7.910
 2477POPC   C4B33454  32.727  35.137   7.516
 2478POPC   NC333455  25.028  11.031   9.516
 2478POPC   PO433456  25.282  11.704   9.541
 2478POPC   GL133457  25.272  11.424   9.173
 2478POPC   GL233458  25.445  11.106   9.222
 2478POPC   C1A33459  25.284  11.532   8.716
 2478POPC   D2A33460  25.266  11.681   8.273
 2478POPC   C3A33461  25.195  11.349   7.974
 2478POPC   C4A33462  24.853  11.183   7.746
 2478POPC   C1B33463  25.580  11.114   8.788
 2478POPC   C2B33464  25.706  11.244   8.353
 2478POPC   C3B33465  25.592  11.013   7.988
 2478POPC   C4B33466  25.340  10.982   7.640
 2479POPC   NC333467  33.425  36.677   9.415
 2479POPC   PO433468  32.759  36.874   9.622
 2479POPC   GL133469  32.990  36.937   9.206
 2479POPC   GL233470  33.161  37.226   9.100
 2479POPC   C1A33471  32.838  36.929   8.762
 2479POPC   D2A33472  32.913  36.731   8.384
 2479POPC   C3A33473  32.746  36.936   8.045
 2479POPC   C4A33474  32.599  37.051   7.680
 2479POPC   C1B33475  33.358  36.934   8.748
 2479POPC   C2B33476  33.444  36.718   8.308
 2479POPC   C3B33477  33.170  36.673   7.921
 2479POPC   C4B33478  33.106  37.045   7.656
 2480POPC   NC333479  33.688   2.390   9.473
 2480POPC   PO433480  33.920   1.728   9.408
 2480POPC   GL133481  33.843   2.048   9.133
 2480POPC   GL233482  34.110   2.272   9.042
 2480POPC   C1A33483  33.538   2.010   8.830
 2480POPC   D2A33484  33.640   1.841   8.480
 2480POPC   C3A33485  33.464   2.006   8.161
 2480POPC   C4A33486  33.778   1.824   7.874
 2480POPC   C1B33487  34.015   2.149   8.659
 2480POPC   C2B33488  33.879   2.274   8.281
 2480POPC   C3B33489  34.080   2.229   7.915
 2480POPC   C4B33490  34.022   2.350   7.509
 2481POPC   NC333491  44.575   6.158   9.565
 2481POPC   PO433492  44.801   5.511   9.509
 2481POPC   GL133493  44.623   5.787   9.186
 2481POPC   GL233494  44.956   5.907   9.181
 2481POPC   C1A33495  44.665   6.013   8.773
 2481POPC   D2A33496  44.703   5.770   8.397
 2481POPC   C3A33497  44.787   5.969   8.019
 2481POPC   C4A33498  44.440   5.874   7.773
 2481POPC   C1B33499  44.982   5.614   8.811
 2481POPC   C2B33500   0.199   5.537   8.406
 2481POPC   C3B33501   0.013   5.514   8.018
 2481POPC   C4B33502  44.905   5.680   7.590
 2482POPC   NC333503  29.097  37.831   9.714
 2482POPC   PO433504  29.406  37.280   9.562
 2482POPC   GL133505  29.203  37.509   9.224
 2482POPC   GL233506  29.376  37.850   9.146
 2482POPC   C1A33507  29.002  37.372   8.815
 2482POPC   D2A33508  29.204  37.218   8.429
 2482POPC   C3A33509  28.967  37.268   8.072
 2482POPC   C4A33510  29.015  37.416   7.668
 2482POPC   C1B33511  29.376  37.920   8.676
 2482POPC   C2B33512  29.177  37.747   8.282
 2482POPC   C3B33513  29.184  37.879   7.846
 2482POPC   C4B33514  29.110  37.991   7.397
 2483POPC   NC333515  19.398  20.205   9.320
 2483POPC   PO433516  18.874  20.088   9.767
 2483POPC   GL133517  19.006  19.888   9.315
 2483POPC   GL233518  18.986  19.551   9.141
 2483POPC   C1A33519  19.128  19.913   8.823
 2483POPC   D2A33520  18.912  19.931   8.407
 2483POPC   C3A33521  19.135  19.952   8.008
 2483POPC   C4A33522  19.123  20.062   7.536
 2483POPC   C1B33523  18.738  19.588   8.777
 2483POPC   C2B33524  18.713  19.377   8.361
 2483POPC   C3B33525  18.714  19.633   8.028
 2483POPC   C4B33526  18.830  19.662   7.631
 2484POPC   NC333527  43.323  20.168   9.468
 2484POPC   PO433528  42.745  19.736   9.541
 2484POPC   GL133529  42.923  19.781   9.104
 2484POPC   GL233530  43.241  19.987   8.998
 2484POPC   C1A33531  43.030  19.661   8.677
 2484POPC   D2A33532  43.242  19.975   8.425
 2484POPC   C3A33533  43.026  20.107   8.082
 2484POPC   C4A33534  43.195  19.958   7.728
 2484POPC   C1B33535  43.538  19.710   8.733
 2484POPC   C2B33536  43.430  19.441   8.425
 2484POPC   C3B33537  43.280  19.530   8.002
 2484POPC   C4B33538  43.350  19.526   7.525
 2485POPC   NC333539  13.110  33.478   9.609
 2485POPC   PO433540  12.903  34.076   9.901
 2485POPC   GL133541  12.917  33.883   9.379
 2485POPC   GL233542  12.657  33.716   9.182
 2485POPC   C1A33543  12.962  33.970   8.879
 2485POPC   D2A33544  13.236  34.053   8.502
 2485POPC   C3A33545  13.122  33.794   8.161
 2485POPC   C4A33546  12.808  33.897   7.854
 2485POPC   C1B33547  12.608  33.482   8.816
 2485POPC   C2B33548  12.574  33.583   8.375
 2485POPC   C3B33549  12.538  33.457   7.956
 2485POPC   C4B33550  12.371  33.697   7.676
 2486POPC   NC333551   3.863  38.664   9.522
 2486POPC   PO433552   3.935  37.953   9.533
 2486POPC   GL133553   3.685  38.206   9.274
 2486POPC   GL233554   3.362  38.098   9.209
 2486POPC   C1A33555   3.784  38.375   8.878
 2486POPC   D2A33556   3.969  38.355   8.504
 2486POPC   C3A33557   3.661  38.423   8.204
 2486POPC   C4A33558   3.692  38.448   7.771
 2486POPC   C1B33559   3.315  38.510   8.985
 2486POPC   C2B33560   3.327  38.621   8.572
 2486POPC   C3B33561   3.211  38.645   8.139
 2486POPC   C4B33562   3.179  38.517   7.721
 2487POPC   NC333563  38.121  32.623   9.413
 2487POPC   PO433564  38.577  32.110   9.408
 2487POPC   GL133565  38.426  32.360   9.093
 2487POPC   GL233566  38.603  32.639   9.168
 2487POPC   C1A33567  38.166  32.316   8.725
 2487POPC   D2A33568  38.035  32.062   8.356
 2487POPC   C3A33569  38.221  32.274   7.988
 2487POPC   C4A33570  38.637  32.148   7.874
 2487POPC   C1B33571  38.617  32.715   8.747
 2487POPC   C2B33572  38.456  32.572   8.364
 2487POPC   C3B33573  38.575  32.684   7.972
 2487POPC   C4B33574  38.912  32.570   7.704
 2488POPC   NC333575   3.434   0.381   9.579
 2488POPC   PO433576   4.073   0.310   9.716
 2488POPC   GL133577   3.858   0.256   9.283
 2488POPC   GL233578   3.533   0.052   9.218
 2488POPC   C1A33579   3.783   0.285   8.813
 2488POPC   D2A33580   3.468   0.318   8.473
 2488POPC   C3A33581   3.612   0.359   8.047
 2488POPC   C4A33582   3.601   0.567   7.648
 2488POPC   C1B33583   3.300  44.958   8.839
 2488POPC   C2B33584   3.369  44.810   8.414
 2488POPC   C3B33585   3.231   0.020   8.056
 2488POPC   C4B33586   3.247   0.098   7.621
 2489POPC   NC333587  12.584  21.349   9.473
 2489POPC   PO433588  13.231  21.506   9.442
 2489POPC   GL133589  12.911  21.428   9.093
 2489POPC   GL233590  12.632  21.141   9.001
 2489POPC   C1A33591  12.747  21.498   8.678
 2489POPC   D2A33592  12.596  21.144   8.446
 2489POPC   C3A33593  12.647  21.277   8.065
 2489POPC   C4A33594  12.801  21.245   7.701
 2489POPC   C1B33595  13.037  21.063   8.717
 2489POPC   C2B33596  13.129  21.145   8.250
 2489POPC   C3B33597  13.249  21.091   7.787
 2489POPC   C4B33598  13.164  21.143   7.326
 2490POPC   NC333599   7.060   2.117   9.656
 2490POPC   PO433600   6.402   2.203   9.524
 2490POPC   GL133601   6.716   2.209   9.213
 2490POPC   GL233602   6.843   1.863   9.213
 2490POPC   C1A33603   6.681   2.051   8.775
 2490POPC   D2A33604   6.688   1.835   8.360
 2490POPC   C3A33605   6.624   1.990   7.916
 2490POPC   C4A33606   6.549   2.026   7.461
 2490POPC   C1B33607   7.067   1.682   8.800
 2490POPC   C2B33608   7.118   1.542   8.349
 2490POPC   C3B33609   6.853   1.520   7.975
 2490POPC   C4B33610   6.815   1.597   7.530
 2491POPC   NC333611  34.597  41.234   9.437
 2491POPC   PO433612  34.500  41.915   9.438
 2491POPC   GL133613  34.736  41.648   9.183
 2491POPC   GL233614  35.086  41.735   9.154
 2491POPC   C1A33615  34.623  41.405   8.813
 2491POPC   D2A33616  34.452  41.501   8.427
 2491POPC   C3A33617  34.706  41.335   8.141
 2491POPC   C4A33618  34.670  41.431   7.737
 2491POPC   C1B33619  34.896  41.867   8.764
 2491POPC   C2B33620  34.943  41.769   8.351
 2491POPC   C3B33621  34.718  41.868   8.020
 2491POPC   C4B33622  34.808  41.899   7.625
 2492POPC   NC333623  21.136  14.153   9.435
 2492POPC   PO433624  21.228  14.784   9.740
 2492POPC   GL133625  21.380  14.678   9.296
 2492POPC   GL233626  21.588  14.394   9.227
 2492POPC   C1A33627  21.373  14.622   8.821
 2492POPC   D2A33628  21.465  14.637   8.354
 2492POPC   C3A33629  21.158  14.445   8.040
 2492POPC   C4A33630  21.067  14.552   7.595
 2492POPC   C1B33631  21.557  14.122   8.831
 2492POPC   C2B33632  21.463  14.125   8.413
 2492POPC   C3B33633  21.649  14.233   8.056
 2492POPC   C4B33634  21.533  14.330   7.681
 2493POPC   NC333635   4.407  35.938   9.546
 2493POPC   PO433636   3.876  36.308   9.533
 2493POPC   GL133637   4.057  36.062   9.183
 2493POPC   GL233638   4.430  36.175   9.108
 2493POPC   C1A33639   4.063  36.183   8.755
 2493POPC   D2A33640   4.391  36.248   8.472
 2493POPC   C3A33641   4.224  36.288   8.074
 2493POPC   C4A33642   4.133  36.102   7.656
 2493POPC   C1B33643   4.785  36.417   8.947
 2493POPC   C2B33644   4.867  36.545   8.518
 2493POPC   C3B33645   4.766  36.324   8.155
 2493POPC   C4B33646   4.624  36.307   7.748
 2494POPC   NC333647   7.633   6.988   9.448
 2494POPC   PO433648   7.221   6.407   9.486
 2494POPC   GL133649   7.437   6.602   9.183
 2494POPC   GL233650   7.208   6.864   9.166
 2494POPC   C1A33651   7.694   6.580   8.817
 2494POPC   D2A33652   7.688   6.780   8.439
 2494POPC   C3A33653   7.680   6.541   8.090
 2494POPC   C4A33654   7.742   6.448   7.666
 2494POPC   C1B33655   7.274   6.932   8.742
 2494POPC   C2B33656   7.240   6.993   8.289
 2494POPC   C3B33657   7.240   6.716   7.926
 2494POPC   C4B33658   7.273   6.587   7.505
 2495POPC   NC333659  38.843  38.054   9.472
 2495POPC   PO433660  38.155  37.890   9.420
 2495POPC   GL133661  38.494  37.762   9.198
 2495POPC   GL233662  38.468  37.393   9.175
 2495POPC   C1A33663  38.727  37.797   8.819
 2495POPC   D2A33664  38.600  37.952   8.419
 2495POPC   C3A33665  38.680  37.739   8.041
 2495POPC   C4A33666  38.440  37.948   7.722
 2495POPC   C1B33667  38.283  37.544   8.796
 2495POPC   C2B33668  38.330  37.489   8.388
 2495POPC   C3B33669  38.164  37.755   8.091
 2495POPC   C4B33670  38.287  37.448   7.791
 2496POPC   NC333671  27.856  12.295   9.519
 2496POPC   PO433672  28.580  12.198   9.467
 2496POPC   GL133673  28.407  12.418   9.103
 2496POPC   GL233674  28.014  12.491   9.085
 2496POPC   C1A33675  28.557  12.262   8.698
 2496POPC   D2A33676  28.415  11.871   8.498
 2496POPC   C3A33677  28.360  11.854   8.047
 2496POPC   C4A33678  28.263  11.981   7.631
 2496POPC   C1B33679  28.054  12.205   8.766
 2496POPC   C2B33680  28.132  12.270   8.344
 2496POPC   C3B33681  28.255  12.427   7.966
 2496POPC   C4B33682  28.165  12.752   7.672
 2497POPC   NC333683  37.732  30.927   9.514
 2497POPC   PO433684  37.242  30.443   9.657
 2497POPC   GL133685  37.435  30.612   9.240
 2497POPC   GL233686  37.791  30.624   9.106
 2497POPC   C1A33687  37.360  30.766   8.787
 2497POPC   D2A33688  37.481  30.560   8.391
 2497POPC   C3A33689  37.454  30.702   7.961
 2497POPC   C4A33690  37.801  30.554   7.702
 2497POPC   C1B33691  37.857  30.833   8.683
 2497POPC   C2B33692  37.930  30.749   8.248
 2497POPC   C3B33693  37.971  30.987   7.907
 2497POPC   C4B33694  38.077  30.953   7.458
 2498POPC   NC333695  31.374  21.621   9.844
 2498POPC   PO433696  31.952  21.294   9.569
 2498POPC   GL133697  31.714  21.213   9.208
 2498POPC   GL233698  31.333  21.173   9.281
 2498POPC   C1A33699  31.600  21.346   8.795
 2498POPC   D2A33700  31.577  21.608   8.428
 2498POPC   C3A33701  31.661  21.371   8.058
 2498POPC   C4A33702  31.879  21.528   7.722
 2498POPC   C1B33703  31.138  21.119   8.863
 2498POPC   C2B33704  31.195  21.236   8.430
 2498POPC   C3B33705  31.186  21.058   8.025
 2498POPC   C4B33706  31.504  20.965   7.739
 2499POPC   NC333707  40.399  18.310   9.537
 2499POPC   PO433708  39.808  18.702   9.514
 2499POPC   GL133709  40.010  18.442   9.191
 2499POPC   GL233710  40.367  18.503   9.085
 2499POPC   C1A33711  39.864  18.174   8.859
 2499POPC   D2A33712  39.896  18.010   8.442
 2499POPC   C3A33713  39.781  18.190   8.029
 2499POPC   C4A33714  40.033  18.053   7.695
 2499POPC   C1B33715  40.320  18.294   8.667
 2499POPC   C2B33716  40.260  18.297   8.229
 2499POPC   C3B33717  40.140  18.569   7.927
 2499POPC   C4B33718  40.166  18.522   7.481
 2500POPC   NC333719  37.997  15.660   9.617
 2500POPC   PO433720  38.167  16.154   9.305
 2500POPC   GL133721  38.019  15.906   9.030
 2500POPC   GL233722  37.696  15.846   9.070
 2500POPC   C1A33723  38.065  15.974   8.611
 2500POPC   D2A33724  37.800  15.951   8.272
 2500POPC   C3A33725  37.901  15.904   7.833
 2500POPC   C4A33726  37.502  16.062   7.601
 2500POPC   C1B33727  37.468  15.777   8.715
 2500POPC   C2B33728  37.524  15.551   8.366
 2500POPC   C3B33729  37.420  15.735   7.982
 2500POPC   C4B33730  37.224  15.598   7.602
 2501POPC   NC333731  44.428  25.976   9.705
 2501POPC   PO433732  44.985  25.668   9.439
 2501POPC   GL133733  44.694  25.979   9.248
 2501POPC   GL233734  44.984  26.018   9.031
 2501POPC   C1A33735  44.518  25.981   8.840
 2501POPC   D2A33736  44.485  26.140   8.436
 2501POPC   C3A33737  44.449  25.869   8.080
 2501POPC   C4A33738  44.539  26.122   7.739
 2501POPC   C1B33739  44.994  25.988   8.641
 2501POPC   C2B33740  44.828  25.743   8.405
 2501POPC   C3B33741  44.945  25.947   8.072
 2501POPC   C4B33742   0.002  25.873   7.674
 2502POPC   NC333743  39.545  42.002   9.403
 2502POPC   PO433744  40.088  42.421   9.594
 2502POPC   GL133745  39.954  42.268   9.217
 2502POPC   GL233746  39.697  42.496   9.247
 2502POPC   C1A33747  40.101  42.343   8.793
 2502POPC   D2A33748  40.130  42.131   8.369
 2502POPC   C3A33749  40.073  42.366   8.000
 2502POPC   C4A33750  40.445  42.417   7.782
 2502POPC   C1B33751  39.696  42.680   8.844
 2502POPC   C2B33752  39.855  42.669   8.415
 2502POPC   C3B33753  39.613  42.679   8.042
 2502POPC   C4B33754  39.570  42.567   7.631
 2503POPC   NC333755  38.505   2.350   9.521
 2503POPC   PO433756  37.993   2.830   9.562
 2503POPC   GL133757  38.138   2.607   9.230
 2503POPC   GL233758  38.446   2.761   9.202
 2503POPC   C1A33759  38.199   2.593   8.781
 2503POPC   D2A33760  37.888   2.490   8.454
 2503POPC   C3A33761  38.046   2.430   8.030
 2503POPC   C4A33762  38.292   2.359   7.660
 2503POPC   C1B33763  38.672   2.841   8.800
 2503POPC   C2B33764  38.785   2.687   8.365
 2503POPC   C3B33765  38.628   2.710   7.917
 2503POPC   C4B33766  38.464   2.946   7.512
 2504POPC   NC333767  25.434  16.312   9.503
 2504POPC   PO433768  25.538  15.586   9.409
 2504POPC   GL133769  25.419  15.967   9.129
 2504POPC   GL233770  25.594  16.304   9.039
 2504POPC   C1A33771  25.184  16.025   8.750
 2504POPC   D2A33772  25.302  15.844   8.348
 2504POPC   C3A33773  25.132  15.908   7.958
 2504POPC   C4A33774  25.168  15.653   7.570
 2504POPC   C1B33775  25.505  16.433   8.655
 2504POPC   C2B33776  25.201  16.373   8.349
 2504POPC   C3B33777  25.181  16.425   7.919
 2504POPC   C4B33778  25.489  16.245   7.671
 2505POPC   NC333779  27.995  22.311   9.552
 2505POPC   PO433780  27.497  22.637   9.540
 2505POPC   GL133781  27.542  22.244   9.243
 2505POPC   GL233782  27.877  22.149   9.086
 2505POPC   C1A33783  27.461  21.996   8.823
 2505POPC   D2A33784  27.397  22.180   8.401
 2505POPC   C3A33785  27.523  22.004   8.007
 2505POPC   C4A33786  27.435  22.126   7.594
 2505POPC   C1B33787  28.075  22.420   8.751
 2505POPC   C2B33788  27.876  22.417   8.371
 2505POPC   C3B33789  27.940  22.318   7.965
 2505POPC   C4B33790  27.927  21.983   7.662
 2506POPC   NC333791  36.652  14.216   9.632
 2506POPC   PO433792  36.749  14.900   9.514
 2506POPC   GL133793  36.936  14.585   9.253
 2506POPC   GL233794  36.903  14.217   9.185
 2506POPC   C1A33795  36.868  14.586   8.821
 2506POPC   D2A33796  36.985  14.792   8.483
 2506POPC   C3A33797  37.024  14.634   8.085
 2506POPC   C4A33798  36.792  14.713   7.729
 2506POPC   C1B33799  36.715  14.111   8.761
 2506POPC   C2B33800  36.604  14.203   8.305
 2506POPC   C3B33801  36.816  14.202   7.872
 2506POPC   C4B33802  37.231  14.089   7.690
 2507POPC   NC333803  17.836   1.964   9.831
 2507POPC   PO433804  17.950   1.821   9.216
 2507POPC   GL133805  18.041   2.049   8.884
 2507POPC   GL233806  17.885   2.370   8.973
 2507POPC   C1A33807  18.422   1.996   8.654
 2507POPC   D2A33808  18.514   1.691   8.366
 2507POPC   C3A33809  18.423   1.923   8.020
 2507POPC   C4A33810  18.596   2.226   7.753
 2507POPC   C1B33811  18.266   2.484   8.703
 2507POPC   C2B33812  18.306   2.349   8.256
 2507POPC   C3B33813  18.100   2.307   7.836
 2507POPC   C4B33814  18.025   2.144   7.425
 2508POPC   NC333815   8.051  34.335   9.446
 2508POPC   PO433816   8.251  33.706   9.686
 2508POPC   GL133817   8.106  33.757   9.254
 2508POPC   GL233818   8.279  33.482   9.125
 2508POPC   C1A33819   8.187  33.880   8.805
 2508POPC   D2A33820   7.990  33.800   8.379
 2508POPC   C3A33821   8.170  33.963   8.006
 2508POPC   C4A33822   8.254  33.829   7.576
 2508POPC   C1B33823   8.131  33.365   8.718
 2508POPC   C2B33824   8.214  33.357   8.295
 2508POPC   C3B33825   8.166  33.433   7.875
 2508POPC   C4B33826   8.213  33.352   7.424
 2509POPC   NC333827  31.440  34.247   9.475
 2509POPC   PO433828  31.287  34.903   9.550
 2509POPC   GL133829  31.270  34.715   9.174
 2509POPC   GL233830  31.596  34.570   9.075
 2509POPC   C1A33831  31.127  34.659   8.764
 2509POPC   D2A33832  31.422  34.669   8.447
 2509POPC   C3A33833  31.275  34.506   8.087
 2509POPC   C4A33834  31.473  34.658   7.754
 2509POPC   C1B33835  31.550  34.261   8.766
 2509POPC   C2B33836  31.452  34.086   8.357
 2509POPC   C3B33837  31.334  34.013   7.925
 2509POPC   C4B33838  31.583  34.199   7.570
 2510POPC   NC333839  12.585  41.895   9.469
 2510POPC   PO433840  12.714  42.584   9.588
 2510POPC   GL133841  12.584  42.598   9.164
 2510POPC   GL233842  12.693  42.282   9.156
 2510POPC   C1A33843  12.733  42.621   8.704
 2510POPC   D2A33844  13.049  42.740   8.346
 2510POPC   C3A33845  13.120  42.568   7.905
 2510POPC   C4A33846  13.090  42.537   7.429
 2510POPC   C1B33847  12.739  42.110   8.799
 2510POPC   C2B33848  12.883  42.215   8.407
 2510POPC   C3B33849  12.653  42.279   8.062
 2510POPC   C4B33850  12.810  42.188   7.688
 2511POPC   NC333851  44.013  16.629   9.475
 2511POPC   PO433852  43.427  16.152   9.445
 2511POPC   GL133853  43.688  16.418   9.064
 2511POPC   GL233854  43.843  16.791   9.018
 2511POPC   C1A33855  43.621  16.574   8.591
 2511POPC   D2A33856  43.472  16.885   8.248
 2511POPC   C3A33857  43.744  16.852   7.899
 2511POPC   C4A33858  43.992  16.487   7.763
 2511POPC   C1B33859  44.128  16.648   8.687
 2511POPC   C2B33860  44.176  16.640   8.239
 2511POPC   C3B33861  44.246  16.898   7.894
 2511POPC   C4B33862  44.020  17.202   7.631
 2512POPC   NC333863   5.919   4.388   9.649
 2512POPC   PO433864   6.016   3.879   9.272
 2512POPC   GL133865   5.787   4.226   9.159
 2512POPC   GL233866   6.076   4.431   9.162
 2512POPC   C1A33867   5.749   4.376   8.739
 2512POPC   D2A33868   6.103   4.237   8.460
 2512POPC   C3A33869   5.936   4.138   8.084
 2512POPC   C4A33870   5.632   4.338   7.899
 2512POPC   C1B33871   6.191   4.648   8.790
 2512POPC   C2B33872   6.353   4.685   8.415
 2512POPC   C3B33873   6.214   4.596   8.011
 2512POPC   C4B33874   6.508   4.612   7.696
 2513POPC   NC333875  10.981  22.358   9.864
 2513POPC   PO433876  10.432  21.932   9.679
 2513POPC   GL133877  10.426  21.938   9.247
 2513POPC   GL233878  10.449  22.296   9.253
 2513POPC   C1A33879  10.608  22.024   8.837
 2513POPC   D2A33880  10.536  22.211   8.420
 2513POPC   C3A33881  10.482  21.928   8.064
 2513POPC   C4A33882  10.722  21.874   7.677
 2513POPC   C1B33883  10.227  22.430   8.861
 2513POPC   C2B33884  10.039  22.338   8.444
 2513POPC   C3B33885  10.188  22.363   8.005
 2513POPC   C4B33886  10.319  22.169   7.633
 2514POPC   NC333887   3.094  25.811   9.657
 2514POPC   PO433888   2.420  25.824   9.466
 2514POPC   GL133889   2.766  25.954   9.182
 2514POPC   GL233890   2.880  26.246   9.355
 2514POPC   C1A33891   2.894  25.889   8.734
 2514POPC   D2A33892   3.096  25.868   8.322
 2514POPC   C3A33893   2.789  25.898   7.985
 2514POPC   C4A33894   2.858  25.819   7.578
 2514POPC   C1B33895   3.075  26.322   8.950
 2514POPC   C2B33896   3.125  26.358   8.518
 2514POPC   C3B33897   3.225  26.354   8.077
 2514POPC   C4B33898   3.036  26.311   7.664
 2515POPC   NC333899  29.525  25.955   9.598
 2515POPC   PO433900  28.896  26.003   9.450
 2515POPC   GL133901  29.237  26.063   9.151
 2515POPC   GL233902  29.468  26.333   9.232
 2515POPC   C1A33903  29.173  26.110   8.708
 2515POPC   D2A33904  29.289  25.851   8.341
 2515POPC   C3A33905  28.989  25.923   7.979
 2515POPC   C4A33906  28.767  26.295   7.848
 2515POPC   C1B33907  29.686  26.298   8.851
 2515POPC   C2B33908  29.541  26.327   8.431
 2515POPC   C3B33909  29.351  26.289   8.048
 2515POPC   C4B33910  29.609  26.422   7.749
 2516POPC   NC333911   2.266   2.195   9.410
 2516POPC   PO433912   2.923   2.523   9.611
 2516POPC   GL133913   3.039   2.740   9.226
 2516POPC   GL233914   2.694   2.890   9.116
 2516POPC   C1A33915   3.060   2.669   8.778
 2516POPC   D2A33916   2.803   2.791   8.381
 2516POPC   C3A33917   2.935   2.664   7.938
 2516POPC   C4A33918   2.939   2.613   7.460
 2516POPC   C1B33919   2.556   2.584   8.839
 2516POPC   C2B33920   2.517   2.297   8.480
 2516POPC   C3B33921   2.516   2.392   8.038
 2516POPC   C4B33922   2.470   2.651   7.646
 2517POPC   NC333923  29.591  18.387   9.462
 2517POPC   PO433924  28.917  18.220   9.595
 2517POPC   GL133925  29.193  18.165   9.190
 2517POPC   GL233926  29.382  18.415   8.987
 2517POPC   C1A33927  29.216  17.976   8.753
 2517POPC   D2A33928  29.325  18.084   8.317
 2517POPC   C3A33929  29.458  17.950   7.877
 2517POPC   C4A33930  29.430  18.009   7.394
 2517POPC   C1B33931  29.011  18.455   8.718
 2517POPC   C2B33932  28.880  18.356   8.301
 2517POPC   C3B33933  29.195  18.415   7.952
 2517POPC   C4B33934  29.110  18.378   7.508
 2518POPC   NC333935  24.515  14.052   9.511
 2518POPC   PO433936  24.279  14.725   9.606
 2518POPC   GL133937  24.309  14.461   9.228
 2518POPC   GL233938  24.668  14.458   9.236
 2518POPC   C1A33939  24.313  14.299   8.778
 2518POPC   D2A33940  24.451  13.986   8.477
 2518POPC   C3A33941  24.307  14.126   8.056
 2518POPC   C4A33942  24.060  14.179   7.652
 2518POPC   C1B33943  24.617  14.696   8.840
 2518POPC   C2B33944  24.372  14.710   8.442
 2518POPC   C3B33945  24.408  14.829   8.018
 2518POPC   C4B33946  24.466  14.485   7.743
 2519POPC   NC333947  21.430  40.878   9.631
 2519POPC   PO433948  21.721  40.405   9.812
 2519POPC   GL133949  21.610  40.621   9.261
 2519POPC   GL233950  21.257  40.660   9.191
 2519POPC   C1A33951  21.559  40.923   8.884
 2519POPC   D2A33952  21.573  40.843   8.441
 2519POPC   C3A33953  21.647  41.085   8.059
 2519POPC   C4A33954  21.560  40.894   7.654
 2519POPC   C1B33955  21.320  40.484   8.765
 2519POPC   C2B33956  21.134  40.607   8.373
 2519POPC   C3B33957  21.199  40.687   7.945
 2519POPC   C4B33958  21.097  40.575   7.505
 2520POPC   NC333959   2.366  16.319   9.879
 2520POPC   PO433960   2.078  15.972   9.393
 2520POPC   GL133961   1.855  16.244   9.147
 2520POPC   GL233962   2.139  16.293   8.921
 2520POPC   C1A33963   1.683  16.180   8.741
 2520POPC   D2A33964   1.980  16.036   8.406
 2520POPC   C3A33965   1.902  16.113   7.972
 2520POPC   C4A33966   1.540  16.297   7.746
 2520POPC   C1B33967   2.321  15.913   8.775
 2520POPC   C2B33968   2.385  15.624   8.454
 2520POPC   C3B33969   2.467  15.699   8.026
 2520POPC   C4B33970   2.305  15.856   7.643
 2521POPC   NC333971  32.219  28.508   9.798
 2521POPC   PO433972  31.772  28.043   9.617
 2521POPC   GL133973  32.011  28.249   9.210
 2521POPC   GL233974  32.290  28.512   9.273
 2521POPC   C1A33975  32.315  28.049   8.860
 2521POPC   D2A33976  32.301  27.854   8.431
 2521POPC   C3A33977  32.337  28.126   8.082
 2521POPC   C4A33978  32.102  28.200   7.670
 2521POPC   C1B33979  32.485  28.523   8.850
 2521POPC   C2B33980  32.346  28.600   8.419
 2521POPC   C3B33981  32.185  28.599   8.010
 2521POPC   C4B33982  32.223  28.702   7.604
 2522POPC   NC333983  21.205  17.554   9.500
 2522POPC   PO433984  21.769  17.228   9.318
 2522POPC   GL133985  21.520  17.539   9.091
 2522POPC   GL233986  21.149  17.522   9.012
 2522POPC   C1A33987  21.487  17.408   8.660
 2522POPC   D2A33988  21.338  17.145   8.331
 2522POPC   C3A33989  21.566  17.413   8.102
 2522POPC   C4A33990  21.778  17.377   7.770
 2522POPC   C1B33991  20.935  17.680   8.674
 2522POPC   C2B33992  21.154  17.627   8.340
 2522POPC   C3B33993  21.100  17.594   7.943
 2522POPC   C4B33994  21.379  17.669   7.670
 2523POPC   NC333995  35.622  44.199   9.421
 2523POPC   PO433996  35.357  43.599   9.675
 2523POPC   GL133997  35.368  43.764   9.253
 2523POPC   GL233998  35.525  43.469   9.193
 2523POPC   C1A33999  35.220  43.918   8.804
 2523POPC   D2A34000  35.330  44.103   8.380
 2523POPC   C3A34001  35.106  43.928   8.047
 2523POPC   C4A34002  35.000  44.093   7.668
 2523POPC   C1B34003  35.612  43.607   8.787
 2523POPC   C2B34004  35.458  43.612   8.366
 2523POPC   C3B34005  35.592  43.720   7.934
 2523POPC   C4B34006  35.522  44.072   7.654
 2524POPC   NC334007  11.978  23.897   9.509
 2524POPC   PO434008  11.537  23.463   9.319
 2524POPC   GL134009  11.827  23.705   9.051
 2524POPC   GL234010  12.191  23.859   9.059
 2524POPC   C1A34011  11.908  23.767   8.630
 2524POPC   D2A34012  12.234  23.931   8.420
 2524POPC   C3A34013  12.072  23.886   8.013
 2524POPC   C4A34014  12.024  23.445   7.896
 2524POPC   C1B34015  12.260  23.457   8.856
 2524POPC   C2B34016  12.264  23.417   8.399
 2524POPC   C3B34017  12.529  23.673   8.085
 2524POPC   C4B34018  12.477  23.608   7.646
 2525POPC   NC334019  36.223  42.677   9.651
 2525POPC   PO434020  35.901  42.077   9.425
 2525POPC   GL134021  36.053  42.288   9.116
 2525POPC   GL234022  36.348  42.315   9.225
 2525POPC   C1A34023  35.993  42.140   8.749
 2525POPC   D2A34024  35.832  41.988   8.409
 2525POPC   C3A34025  35.917  42.216   8.057
 2525POPC   C4A34026  36.207  42.187   7.742
 2525POPC   C1B34027  36.417  42.431   8.781
 2525POPC   C2B34028  36.208  42.449   8.403
 2525POPC   C3B34029  36.306  42.597   8.028
 2525POPC   C4B34030  36.433  42.721   7.655
 2526POPC   NC334031  25.732  28.430   9.669
 2526POPC   PO434032  26.370  28.185   9.533
 2526POPC   GL134033  26.196  28.258   9.162
 2526POPC   GL234034  25.841  28.276   9.196
 2526POPC   C1A34035  26.114  28.467   8.786
 2526POPC   D2A34036  25.897  28.408   8.420
 2526POPC   C3A34037  26.111  28.473   8.055
 2526POPC   C4A34038  26.173  28.671   7.673
 2526POPC   C1B34039  25.797  28.054   8.814
 2526POPC   C2B34040  25.717  27.918   8.399
 2526POPC   C3B34041  25.699  28.142   8.006
 2526POPC   C4B34042  25.619  28.063   7.581
 2527POPC   NC334043  40.621   5.542   9.517
 2527POPC   PO434044  40.817   4.870   9.545
 2527POPC   GL134045  40.797   5.193   9.198
 2527POPC   GL234046  41.119   5.253   9.002
 2527POPC   C1A34047  40.653   5.262   8.797
 2527POPC   D2A34048  40.988   5.173   8.495
 2527POPC   C3A34049  40.853   5.320   8.104
 2527POPC   C4A34050  40.659   5.356   7.713
 2527POPC   C1B34051  40.999   4.805   8.879
 2527POPC   C2B34052  41.152   4.590   8.491
 2527POPC   C3B34053  41.243   4.879   8.148
 2527POPC   C4B34054  41.075   5.028   7.745
 2528POPC   NC334055  33.853   4.637   9.672
 2528POPC   PO434056  34.267   4.161   9.571
 2528POPC   GL134057  34.028   4.398   9.258
 2528POPC   GL234058  33.678   4.296   9.310
 2528POPC   C1A34059  34.094   4.485   8.811
 2528POPC   D2A34060  33.943   4.326   8.439
 2528POPC   C3A34061  34.097   4.541   8.085
 2528POPC   C4A34062  33.946   4.376   7.711
 2528POPC   C1B34063  33.682   4.154   8.870
 2528POPC   C2B34064  33.591   3.939   8.461
 2528POPC   C3B34065  33.604   4.148   8.058
 2528POPC   C4B34066  33.335   4.168   7.702
 2529POPC   NC334067  39.136  12.301  10.071
 2529POPC   PO434068  39.083  12.923   9.706
 2529POPC   GL134069  39.123  12.861   9.249
 2529POPC   GL234070  39.309  12.544   9.153
 2529POPC   C1A34071  39.105  13.007   8.820
 2529POPC   D2A34072  38.941  13.089   8.415
 2529POPC   C3A34073  39.168  13.081   8.025
 2529POPC   C4A34074  38.925  13.122   7.633
 2529POPC   C1B34075  39.345  12.573   8.747
 2529POPC   C2B34076  39.371  12.779   8.389
 2529POPC   C3B34077  39.547  12.648   8.034
 2529POPC   C4B34078  39.694  12.991   7.808
 2530POPC   NC334079  43.481   2.797   9.340
 2530POPC   PO434080  44.037   2.481   9.472
 2530POPC   GL134081  43.980   2.823   9.167
 2530POPC   GL234082  43.815   2.609   8.959
 2530POPC   C1A34083  43.934   3.064   8.800
 2530POPC   D2A34084  43.728   2.803   8.482
 2530POPC   C3A34085  43.718   2.988   8.102
 2530POPC   C4A34086  43.573   3.008   7.687
 2530POPC   C1B34087  44.094   2.255   8.810
 2530POPC   C2B34088  44.343   2.258   8.410
 2530POPC   C3B34089  44.174   2.367   8.013
 2530POPC   C4B34090  43.993   2.697   7.798
 2531POPC   NC334091  11.627  36.622   9.447
 2531POPC   PO434092  11.423  35.960   9.533
 2531POPC   GL134093  11.327  35.995   9.132
 2531POPC   GL234094  11.289  36.339   9.121
 2531POPC   C1A34095  11.497  35.970   8.743
 2531POPC   D2A34096  11.618  35.995   8.334
 2531POPC   C3A34097  11.299  35.875   8.032
 2531POPC   C4A34098  11.080  35.920   7.689
 2531POPC   C1B34099  11.576  36.485   8.796
 2531POPC   C2B34100  11.669  36.576   8.367
 2531POPC   C3B34101  11.367  36.401   8.108
 2531POPC   C4B34102  11.264  36.429   7.716
 2532POPC   NC334103   8.524   2.376   9.470
 2532POPC   PO434104   9.071   2.831   9.434
 2532POPC   GL134105   8.821   2.705   9.141
 2532POPC   GL234106   9.048   2.541   8.878
 2532POPC   C1A34107   8.772   2.926   8.769
 2532POPC   D2A34108   9.042   2.860   8.410
 2532POPC   C3A34109   8.884   2.893   7.971
 2532POPC   C4A34110   9.126   2.858   7.572
 2532POPC   C1B34111   8.605   2.406   8.809
 2532POPC   C2B34112   8.655   2.503   8.419
 2532POPC   C3B34113   9.000   2.426   8.126
 2532POPC   C4B34114   8.952   2.399   7.689
 2533POPC   NC334115  19.031  41.277   9.574
 2533POPC   PO434116  19.524  41.690   9.570
 2533POPC   GL134117  19.321  41.701   9.186
 2533POPC   GL234118  19.384  41.349   9.148
 2533POPC   C1A34119  18.945  41.609   8.885
 2533POPC   D2A34120  18.956  41.416   8.438
 2533POPC   C3A34121  18.824  41.594   8.007
 2533POPC   C4A34122  18.757  41.527   7.526
 2533POPC   C1B34123  19.404  41.459   8.701
 2533POPC   C2B34124  19.425  41.703   8.306
 2533POPC   C3B34125  19.322  41.621   7.854
 2533POPC   C4B34126  19.257  41.610   7.397
 2534POPC   NC334127  21.666  30.436   9.539
 2534POPC   PO434128  22.362  30.620   9.616
 2534POPC   GL134129  22.117  30.554   9.271
 2534POPC   GL234130  22.026  30.843   9.119
 2534POPC   C1A34131  22.133  30.432   8.837
 2534POPC   D2A34132  21.877  30.416   8.465
 2534POPC   C3A34133  22.188  30.419   8.137
 2534POPC   C4A34134  22.215  30.590   7.743
 2534POPC   C1B34135  22.224  31.018   8.828
 2534POPC   C2B34136  22.157  30.830   8.470
 2534POPC   C3B34137  22.162  30.966   8.070
 2534POPC   C4B34138  22.289  31.073   7.606
 2535POPC   NC334139  22.881  13.449   9.516
 2535POPC   PO434140  22.563  13.896   9.207
 2535POPC   GL134141  22.746  13.540   8.996
 2535POPC   GL234142  23.097  13.534   9.064
 2535POPC   C1A34143  22.938  13.580   8.595
 2535POPC   D2A34144  22.957  13.804   8.230
 2535POPC   C3A34145  22.727  13.579   7.986
 2535POPC   C4A34146  22.725  13.655   7.578
 2535POPC   C1B34147  23.381  13.324   8.745
 2535POPC   C2B34148  23.238  13.317   8.293
 2535POPC   C3B34149  23.236  13.503   7.914
 2535POPC   C4B34150  23.377  13.548   7.517
 2536POPC   NC334151  35.923   1.786   9.367
 2536POPC   PO434152  36.333   2.257   9.584
 2536POPC   GL134153  36.262   2.096   9.142
 2536POPC   GL234154  35.877   2.163   9.038
 2536POPC   C1A34155  36.191   1.812   8.762
 2536POPC   D2A34156  36.062   1.631   8.362
 2536POPC   C3A34157  36.215   1.799   7.991
 2536POPC   C4A34158  35.937   1.765   7.671
 2536POPC   C1B34159  36.109   2.317   8.712
 2536POPC   C2B34160  36.216   2.305   8.312
 2536POPC   C3B34161  35.957   2.245   7.973
 2536POPC   C4B34162  36.074   2.278   7.583
 2537POPC   NC334163  11.906  30.454   9.642
 2537POPC   PO434164  12.427  30.940   9.554
 2537POPC   GL134165  12.168  30.770   9.208
 2537POPC   GL234166  11.817  30.637   9.169
 2537POPC   C1A34167  12.135  30.717   8.757
 2537POPC   D2A34168  12.187  30.918   8.372
 2537POPC   C3A34169  12.196  30.664   8.006
 2537POPC   C4A34170  12.536  30.414   7.825
 2537POPC   C1B34171  11.624  30.774   8.766
 2537POPC   C2B34172  11.708  30.769   8.295
 2537POPC   C3B34173  11.808  31.001   7.889
 2537POPC   C4B34174  11.705  31.003   7.396
 2538POPC   NC334175  40.141  21.577   9.458
 2538POPC   PO434176  39.825  21.024   9.421
 2538POPC   GL134177  39.849  21.251   9.063
 2538POPC   GL234178  40.201  21.405   8.998
 2538POPC   C1A34179  39.662  21.141   8.647
 2538POPC   D2A34180  39.645  21.026   8.216
 2538POPC   C3A34181  39.711  21.342   7.920
 2538POPC   C4A34182  40.092  21.469   7.739
 2538POPC   C1B34183  39.956  21.546   8.681
 2538POPC   C2B34184  40.033  21.404   8.308
 2538POPC   C3B34185  40.112  21.771   8.119
 2538POPC   C4B34186  39.769  21.895   7.879
 2539POPC   NC334187  14.020  25.150   9.306
 2539POPC   PO434188  13.391  25.414   9.459
 2539POPC   GL134189  13.427  25.153   9.038
 2539POPC   GL234190  13.706  25.347   8.956
 2539POPC   C1A34191  13.498  25.088   8.582
 2539POPC   D2A34192  13.799  25.415   8.437
 2539POPC   C3A34193  13.705  25.650   8.077
 2539POPC   C4A34194  13.714  25.468   7.710
 2539POPC   C1B34195  13.974  25.014   8.719
 2539POPC   C2B34196  13.952  24.903   8.349
 2539POPC   C3B34197  13.665  25.034   8.045
 2539POPC   C4B34198  13.878  24.983   7.678
 2540POPC   NC334199   2.866  22.546   9.650
 2540POPC   PO434200   3.128  22.199   9.179
 2540POPC   GL134201   2.715  22.112   9.089
 2540POPC   GL234202   2.652  22.463   9.164
 2540POPC   C1A34203   2.632  21.883   8.711
 2540POPC   D2A34204   2.948  21.901   8.406
 2540POPC   C3A34205   2.853  22.009   7.999
 2540POPC   C4A34206   2.886  22.118   7.572
 2540POPC   C1B34207   2.516  22.423   8.720
 2540POPC   C2B34208   2.487  22.250   8.283
 2540POPC   C3B34209   2.449  22.286   7.798
 2540POPC   C4B34210   2.509  22.364   7.318
 2541POPC   NC334211  12.375  10.190   9.549
 2541POPC   PO434212  12.076  10.805   9.437
 2541POPC   GL134213  12.035  10.428   9.213
 2541POPC   GL234214  11.679  10.324   9.157
 2541POPC   C1A34215  12.024  10.246   8.793
 2541POPC   D2A34216  11.766  10.308   8.461
 2541POPC   C3A34217  11.974  10.456   8.088
 2541POPC   C4A34218  11.749  10.248   7.794
 2541POPC   C1B34219  11.776  10.675   8.844
 2541POPC   C2B34220  11.772  10.810   8.397
 2541POPC   C3B34221  11.620  10.795   7.979
 2541POPC   C4B34222  11.912  10.714   7.624
 2542POPC   NC334223  25.108   3.835   9.736
 2542POPC   PO434224  25.123   3.201   9.375
 2542POPC   GL134225  25.339   3.296   9.085
 2542POPC   GL234226  25.639   3.084   9.113
 2542POPC   C1A34227  25.150   3.437   8.705
 2542POPC   D2A34228  24.900   3.483   8.353
 2542POPC   C3A34229  25.065   3.382   7.978
 2542POPC   C4A34230  25.258   3.454   7.556
 2542POPC   C1B34231  25.642   3.259   8.692
 2542POPC   C2B34232  25.413   3.213   8.315
 2542POPC   C3B34233  25.576   3.412   7.958
 2542POPC   C4B34234  25.784   3.486   7.566
 2543POPC   NC334235  35.999  30.295   9.356
 2543POPC   PO434236  36.255  29.660   9.548
 2543POPC   GL134237  36.125  29.809   9.195
 2543POPC   GL234238  36.418  30.002   9.148
 2543POPC   C1A34239  35.784  29.849   8.926
 2543POPC   D2A34240  35.832  29.958   8.505
 2543POPC   C3A34241  36.010  29.763   8.132
 2543POPC   C4A34242  35.890  29.854   7.733
 2543POPC   C1B34243  36.307  29.965   8.720
 2543POPC   C2B34244  36.417  29.662   8.412
 2543POPC   C3B34245  36.521  29.573   8.000
 2543POPC   C4B34246  36.401  29.880   7.713
 2544POPC   NC334247   8.098  17.706   9.563
 2544POPC   PO434248   8.194  17.159   9.260
 2544POPC   GL134249   8.145  17.545   9.029
 2544POPC   GL234250   8.039  17.892   9.088
 2544POPC   C1A34251   8.225  17.545   8.603
 2544POPC   D2A34252   8.496  17.578   8.263
 2544POPC   C3A34253   8.258  17.493   7.930
 2544POPC   C4A34254   8.423  17.453   7.536
 2544POPC   C1B34255   7.822  17.823   8.716
 2544POPC   C2B34256   7.798  17.674   8.304
 2544POPC   C3B34257   7.904  17.890   7.948
 2544POPC   C4B34258   8.113  17.865   7.566
 2545POPC   NC334259  32.767  33.206   9.756
 2545POPC   PO434260  32.705  33.835   9.416
 2545POPC   GL134261  33.104  33.894   9.137
 2545POPC   GL234262  33.326  34.207   9.052
 2545POPC   C1A34263  32.993  33.771   8.745
 2545POPC   D2A34264  32.641  33.788   8.482
 2545POPC   C3A34265  32.764  33.603   8.119
 2545POPC   C4A34266  32.655  33.593   7.736
 2545POPC   C1B34267  33.425  34.067   8.605
 2545POPC   C2B34268  33.213  33.768   8.283
 2545POPC   C3B34269  33.126  33.880   7.841
 2545POPC   C4B34270  33.262  34.022   7.414
 2546POPC   NC334271   2.626  41.843   9.501
 2546POPC   PO434272   3.165  41.352   9.612
 2546POPC   GL134273   2.981  41.569   9.268
 2546POPC   GL234274   3.178  41.370   9.102
 2546POPC   C1A34275   2.854  41.719   8.846
 2546POPC   D2A34276   3.039  41.714   8.424
 2546POPC   C3A34277   2.839  41.936   8.092
 2546POPC   C4A34278   2.717  41.691   7.740
 2546POPC   C1B34279   3.192  41.320   8.722
 2546POPC   C2B34280   3.006  41.196   8.376
 2546POPC   C3B34281   3.041  41.376   8.003
 2546POPC   C4B34282   3.052  41.327   7.587
 2547POPC   NC334283   1.734  25.456   9.473
 2547POPC   PO434284   2.102  24.930   9.572
 2547POPC   GL134285   2.006  25.077   9.193
 2547POPC   GL234286   2.219  25.371   9.243
 2547POPC   C1A34287   1.757  25.024   8.806
 2547POPC   D2A34288   1.733  25.247   8.411
 2547POPC   C3A34289   1.781  25.065   7.985
 2547POPC   C4A34290   1.818  24.971   7.522
 2547POPC   C1B34291   2.045  25.458   8.835
 2547POPC   C2B34292   1.853  25.742   8.564
 2547POPC   C3B34293   1.884  25.669   8.131
 2547POPC   C4B34294   2.218  25.634   7.810
 2548POPC   NC334295  35.762   5.789   9.538
 2548POPC   PO434296  35.337   6.322   9.424
 2548POPC   GL134297  35.581   6.025   9.107
 2548POPC   GL234298  35.550   5.621   9.119
 2548POPC   C1A34299  35.383   5.896   8.692
 2548POPC   D2A34300  35.020   5.913   8.361
 2548POPC   C3A34301  35.146   6.096   7.941
 2548POPC   C4A34302  35.440   5.949   7.611
 2548POPC   C1B34303  35.446   5.383   8.781
 2548POPC   C2B34304  35.258   5.473   8.390
 2548POPC   C3B34305  35.232   5.588   7.980
 2548POPC   C4B34306  35.419   5.426   7.650
 2549POPC   NC334307  20.082  28.687   9.788
 2549POPC   PO434308  19.602  28.244   9.599
 2549POPC   GL134309  19.949  28.424   9.325
 2549POPC   GL234310  20.292  28.275   9.287
 2549POPC   C1A34311  19.945  28.368   8.865
 2549POPC   D2A34312  19.847  28.278   8.412
 2549POPC   C3A34313  19.713  28.459   8.000
 2549POPC   C4A34314  19.416  28.331   7.646
 2549POPC   C1B34315  20.300  28.003   8.888
 2549POPC   C2B34316  20.171  27.871   8.443
 2549POPC   C3B34317  20.118  28.088   8.018
 2549POPC   C4B34318  19.961  28.275   7.588
 2550POPC   NC334319   7.601  44.431   9.778
 2550POPC   PO434320   7.007  44.664   9.577
 2550POPC   GL134321   7.244  44.672   9.219
 2550POPC   GL234322   7.502  44.424   9.269
 2550POPC   C1A34323   7.141  44.715   8.778
 2550POPC   D2A34324   7.463  44.707   8.457
 2550POPC   C3A34325   7.367  44.873   8.065
 2550POPC   C4A34326   7.163  44.802   7.707
 2550POPC   C1B34327   7.527  44.341   8.826
 2550POPC   C2B34328   7.685  44.182   8.422
 2550POPC   C3B34329   7.638  44.433   8.054
 2550POPC   C4B34330   7.687  44.564   7.610
 2551POPC   NC334331  24.892  26.850   9.296
 2551POPC   PO434332  24.299  26.922   9.560
 2551POPC   GL134333  24.408  26.944   9.146
 2551POPC   GL234334  24.492  26.609   9.023
 2551POPC   C1A34335  24.485  27.005   8.705
 2551POPC   D2A34336  24.336  27.213   8.371
 2551POPC   C3A34337  24.636  27.128   8.084
 2551POPC   C4A34338  24.593  26.900   7.751
 2551POPC   C1B34339  24.648  26.488   8.632
 2551POPC   C2B34340  24.628  26.597   8.196
 2551POPC   C3B34341  24.787  26.450   7.794
 2551POPC   C4B34342  24.889  26.660   7.386
 2552POPC   NC334343  28.258   0.895   9.292
 2552POPC   PO434344  28.156   0.215   9.448
 2552POPC   GL134345  28.395   0.408   9.088
 2552POPC   GL234346  28.656   0.655   9.036
 2552POPC   C1A34347  28.288   0.607   8.691
 2552POPC   D2A34348  28.207   0.825   8.310
 2552POPC   C3A34349  28.312   0.532   7.992
 2552POPC   C4A34350  28.064   0.397   7.608
 2552POPC   C1B34351  28.812   0.598   8.645
 2552POPC   C2B34352  28.765   0.377   8.262
 2552POPC   C3B34353  28.808   0.534   7.851
 2552POPC   C4B34354  28.524   0.552   7.521
 2553POPC   NC334355  24.339  44.031   9.470
 2553POPC   PO434356  24.744  43.635   9.470
 2553POPC   GL134357  24.496  43.707   9.112
 2553POPC   GL234358  24.561  44.050   8.999
 2553POPC   C1A34359  24.560  43.578   8.707
 2553POPC   D2A34360  24.678  43.821   8.342
 2553POPC   C3A34361  24.569  43.699   7.924
 2553POPC   C4A34362  24.902  43.885   7.676
 2553POPC   C1B34363  24.292  44.012   8.628
 2553POPC   C2B34364  24.236  44.114   8.202
 2553POPC   C3B34365  24.394  44.158   7.779
 2553POPC   C4B34366  24.249  43.799   7.520
 2554POPC   NC334367  38.221   6.567   9.536
 2554POPC   PO434368  38.880   6.621   9.312
 2554POPC   GL134369  38.449   6.618   9.059
 2554POPC   GL234370  38.067   6.755   9.075
 2554POPC   C1A34371  38.225   6.409   8.692
 2554POPC   D2A34372  38.201   6.190   8.276
 2554POPC   C3A34373  38.512   6.299   7.928
 2554POPC   C4A34374  38.435   6.413   7.490
 2554POPC   C1B34375  38.224   6.924   8.668
 2554POPC   C2B34376  38.326   6.729   8.248
 2554POPC   C3B34377  38.332   6.826   7.793
 2554POPC   C4B34378  38.163   6.822   7.340
 2555POPC   NC334379   2.205   3.862   9.652
 2555POPC   PO434380   1.853   3.259   9.756
 2555POPC   GL134381   1.888   3.427   9.283
 2555POPC   GL234382   1.900   3.792   9.225
 2555POPC   C1A34383   2.019   3.490   8.830
 2555POPC   D2A34384   2.211   3.296   8.445
 2555POPC   C3A34385   1.985   3.388   8.057
 2555POPC   C4A34386   2.087   3.749   7.804
 2555POPC   C1B34387   1.695   3.911   8.827
 2555POPC   C2B34388   1.639   4.082   8.440
 2555POPC   C3B34389   1.586   3.885   8.023
 2555POPC   C4B34390   1.641   3.813   7.562
 2556POPC   NC334391  39.442  29.147   9.654
 2556POPC   PO434392  40.131  29.203   9.522
 2556POPC   GL134393  39.957  29.284   9.171
 2556POPC   GL234394  40.288  29.384   9.058
 2556POPC   C1A34395  39.773  29.480   8.832
 2556POPC   D2A34396  39.938  29.497   8.420
 2556POPC   C3A34397  39.832  29.178   8.173
 2556POPC   C4A34398  39.730  29.359   7.796
 2556POPC   C1B34399  40.178  29.149   8.708
 2556POPC   C2B34400  40.344  29.191   8.306
 2556POPC   C3B34401  40.277  28.970   7.964
 2556POPC   C4B34402  39.914  28.833   7.795
 2557POPC   NC334403  38.646  30.922   9.512
 2557POPC   PO434404  38.102  30.540   9.526
 2557POPC   GL134405  38.318  30.629   9.193
 2557POPC   GL234406  38.614  30.439   9.123
 2557POPC   C1A34407  38.219  30.488   8.802
 2557POPC   D2A34408  38.459  30.332   8.490
 2557POPC   C3A34409  38.387  30.546   8.159
 2557POPC   C4A34410  38.354  30.663   7.753
 2557POPC   C1B34411  38.716  30.666   8.789
 2557POPC   C2B34412  38.834  30.821   8.388
 2557POPC   C3B34413  38.830  30.674   7.969
 2557POPC   C4B34414  38.823  30.604   7.531
 2558POPC   NC334415  23.170  37.302   9.580
 2558POPC   PO434416  22.929  36.651   9.452
 2558POPC   GL134417  22.877  37.020   9.130
 2558POPC   GL234418  22.899  36.784   8.918
 2558POPC   C1A34419  22.594  37.135   8.747
 2558POPC   D2A34420  22.724  37.149   8.314
 2558POPC   C3A34421  22.519  37.105   7.917
 2558POPC   C4A34422  22.606  37.111   7.478
 2558POPC   C1B34423  23.152  37.061   8.650
 2558POPC   C2B34424  23.204  37.337   8.277
 2558POPC   C3B34425  23.002  37.269   7.887
 2558POPC   C4B34426  23.024  36.890   7.618
 2559POPC   NC334427  14.162  20.296   9.473
 2559POPC   PO434428  14.646  20.733   9.489
 2559POPC   GL134429  14.483  20.827   9.082
 2559POPC   GL234430  14.141  20.706   9.137
 2559POPC   C1A34431  14.373  20.630   8.683
 2559POPC   D2A34432  14.368  20.431   8.294
 2559POPC   C3A34433  14.456  20.804   8.077
 2559POPC   C4A34434  14.322  20.911   7.694
 2559POPC   C1B34435  13.902  20.482   8.793
 2559POPC   C2B34436  13.893  20.631   8.376
 2559POPC   C3B34437  14.000  20.613   7.951
 2559POPC   C4B34438  14.273  20.360   7.782
 2560POPC   NC334439  38.600  18.850   9.460
 2560POPC   PO434440  38.496  19.486   9.732
 2560POPC   GL134441  38.298  19.313   9.285
 2560POPC   GL234442  38.127  18.937   9.274
 2560POPC   C1A34443  38.455  19.341   8.824
 2560POPC   D2A34444  38.353  19.185   8.429
 2560POPC   C3A34445  38.520  19.163   8.028
 2560POPC   C4A34446  38.732  18.821   7.933
 2560POPC   C1B34447  38.083  18.968   8.836
 2560POPC   C2B34448  37.923  18.927   8.431
 2560POPC   C3B34449  38.021  19.042   8.029
 2560POPC   C4B34450  38.227  18.821   7.731
 2561POPC   NC334451  10.265   5.484   9.421
 2561POPC   PO434452  10.500   6.167   9.509
 2561POPC   GL134453  10.516   5.863   9.228
 2561POPC   GL234454  10.227   5.890   9.082
 2561POPC   C1A34455  10.655   5.725   8.857
 2561POPC   D2A34456  10.800   5.847   8.501
 2561POPC   C3A34457  10.556   5.862   8.133
 2561POPC   C4A34458  10.582   5.542   7.837
 2561POPC   C1B34459  10.320   6.031   8.644
 2561POPC   C2B34460  10.083   6.030   8.294
 2561POPC   C3B34461  10.171   6.141   7.904
 2561POPC   C4B34462  10.472   6.179   7.582
 2562POPC   NC334463  35.329   1.600   9.578
 2562POPC   PO434464  35.120   0.903   9.526
 2562POPC   GL134465  35.371   1.163   9.241
 2562POPC   GL234466  35.105   1.390   9.194
 2562POPC   C1A34467  35.432   1.434   8.828
 2562POPC   D2A34468  35.236   1.642   8.433
 2562POPC   C3A34469  35.280   1.393   8.049
 2562POPC   C4A34470  35.397   1.254   7.602
 2562POPC   C1B34471  35.046   1.085   8.873
 2562POPC   C2B34472  35.049   1.169   8.471
 2562POPC   C3B34473  34.797   1.148   8.143
 2562POPC   C4B34474  34.988   0.984   7.814
 2563POPC   NC334475  17.740  26.082   9.319
 2563POPC   PO434476  17.752  25.590   9.789
 2563POPC   GL134477  17.385  25.688   9.327
 2563POPC   GL234478  17.175  26.002   9.164
 2563POPC   C1A34479  17.387  25.659   8.819
 2563POPC   D2A34480  17.082  25.814   8.477
 2563POPC   C3A34481  17.197  25.853   8.042
 2563POPC   C4A34482  17.500  25.668   7.843
 2563POPC   C1B34483  17.407  26.159   8.764
 2563POPC   C2B34484  17.582  25.948   8.393
 2563POPC   C3B34485  17.669  26.116   7.986
 2563POPC   C4B34486  17.334  26.318   7.805
 2564POPC   NC334487   1.768  37.376   9.438
 2564POPC   PO434488   1.853  38.078   9.606
 2564POPC   GL134489   1.911  37.821   9.214
 2564POPC   GL234490   2.111  38.069   9.099
 2564POPC   C1A34491   1.961  37.708   8.734
 2564POPC   D2A34492   2.253  37.578   8.369
 2564POPC   C3A34493   2.104  37.496   7.946
 2564POPC   C4A34494   2.138  37.649   7.527
 2564POPC   C1B34495   1.756  38.174   8.866
 2564POPC   C2B34496   1.657  38.052   8.454
 2564POPC   C3B34497   1.853  37.864   8.178
 2564POPC   C4B34498   2.022  38.043   7.851
 2565POPC   NC334499  34.457  10.732   9.531
 2565POPC   PO434500  34.078  10.292   9.288
 2565POPC   GL134501  34.417  10.457   9.052
 2565POPC   GL234502  34.535  10.802   9.048
 2565POPC   C1A34503  34.376  10.491   8.590
 2565POPC   D2A34504  34.482  10.506   8.138
 2565POPC   C3A34505  34.518  10.256   7.750
 2565POPC   C4A34506  34.332  10.367   7.317
 2565POPC   C1B34507  34.724  10.874   8.688
 2565POPC   C2B34508  34.906  10.752   8.299
 2565POPC   C3B34509  34.844  10.714   7.846
 2565POPC   C4B34510  34.443  10.738   7.643
 2566POPC   NC334511  22.341  28.662   9.495
 2566POPC   PO434512  21.985  28.140   9.552
 2566POPC   GL134513  22.042  28.365   9.173
 2566POPC   GL234514  22.362  28.253   9.201
 2566POPC   C1A34515  22.178  28.689   8.850
 2566POPC   D2A34516  22.273  28.913   8.461
 2566POPC   C3A34517  22.250  28.654   8.124
 2566POPC   C4A34518  22.169  28.504   7.735
 2566POPC   C1B34519  22.484  28.257   8.807
 2566POPC   C2B34520  22.308  28.211   8.419
 2566POPC   C3B34521  22.501  28.198   8.039
 2566POPC   C4B34522  22.357  28.029   7.664
 2567POPC   NC334523   2.505   0.271   9.499
 2567POPC   PO434524   1.779   0.212   9.566
 2567POPC   GL134525   2.008   0.314   9.207
 2567POPC   GL234526   2.263   0.047   9.102
 2567POPC   C1A34527   2.001   0.612   8.878
 2567POPC   D2A34528   2.218   0.537   8.544
 2567POPC   C3A34529   2.123   0.592   8.118
 2567POPC   C4A34530   1.874   0.628   7.798
 2567POPC   C1B34531   2.130   0.026   8.656
 2567POPC   C2B34532   2.050  44.970   8.208
 2567POPC   C3B34533   2.161   0.173   7.806
 2567POPC   C4B34534   2.091   0.148   7.326
 2568POPC   NC334535  25.477   0.331   9.614
 2568POPC   PO434536  24.862   0.073   9.578
 2568POPC   GL134537  25.077   0.362   9.276
 2568POPC   GL234538  25.282   0.120   9.118
 2568POPC   C1A34539  25.217   0.598   8.895
 2568POPC   D2A34540  25.040   0.539   8.441
 2568POPC   C3A34541  25.256   0.496   8.039
 2568POPC   C4A34542  25.629   0.712   7.833
 2568POPC   C1B34543  25.320   0.163   8.681
 2568POPC   C2B34544  25.615   0.334   8.394
 2568POPC   C3B34545  25.619   0.173   7.967
 2568POPC   C4B34546  25.206   0.001   7.823
 2569POPC   NC334547  37.970  10.499   9.484
 2569POPC   PO434548  38.631  10.592   9.598
 2569POPC   GL134549  38.451  10.553   9.197
 2569POPC   GL234550  38.614  10.251   9.090
 2569POPC   C1A34551  38.391  10.751   8.783
 2569POPC   D2A34552  38.079  10.657   8.478
 2569POPC   C3A34553  38.197  10.712   8.050
 2569POPC   C4A34554  38.107  10.565   7.660
 2569POPC   C1B34555  38.606  10.324   8.657
 2569POPC   C2B34556  38.582  10.474   8.299
 2569POPC   C3B34557  38.485  10.275   7.943
 2569POPC   C4B34558  38.663  10.594   7.756
 2570POPC   NC334559  39.208  31.746   9.570
 2570POPC   PO434560  38.920  31.181   9.261
 2570POPC   GL134561  39.254  31.281   9.021
 2570POPC   GL234562  39.189  31.640   9.006
 2570POPC   C1A34563  39.204  31.231   8.635
 2570POPC   D2A34564  39.021  31.479   8.355
 2570POPC   C3A34565  38.974  31.186   8.053
 2570POPC   C4A34566  38.881  31.208   7.659
 2570POPC   C1B34567  39.553  31.597   8.702
 2570POPC   C2B34568  39.532  31.388   8.285
 2570POPC   C3B34569  39.321  31.557   7.930
 2570POPC   C4B34570  39.690  31.507   7.740
 2571POPC   NC334571   6.240  31.830   9.160
 2571POPC   PO434572   6.709  31.495   9.513
 2571POPC   GL134573   6.724  31.603   9.095
 2571POPC   GL234574   6.457  31.370   9.088
 2571POPC   C1A34575   6.643  31.518   8.640
 2571POPC   D2A34576   6.439  31.323   8.310
 2571POPC   C3A34577   6.359  31.636   8.022
 2571POPC   C4A34578   6.676  31.695   7.799
 2571POPC   C1B34579   6.752  31.099   8.890
 2571POPC   C2B34580   6.818  31.032   8.477
 2571POPC   C3B34581   6.862  31.042   8.078
 2571POPC   C4B34582   6.588  31.202   7.804
 2572POPC   NC334583  26.011  34.823   9.366
 2572POPC   PO434584  25.586  34.407   9.558
 2572POPC   GL134585  25.671  34.513   9.122
 2572POPC   GL234586  25.992  34.396   9.053
 2572POPC   C1A34587  25.788  34.779   8.740
 2572POPC   D2A34588  25.905  34.713   8.284
 2572POPC   C3A34589  25.847  34.631   7.838
 2572POPC   C4A34590  26.004  34.549   7.413
 2572POPC   C1B34591  26.199  34.478   8.646
 2572POPC   C2B34592  26.337  34.449   8.211
 2572POPC   C3B34593  26.377  34.657   7.803
 2572POPC   C4B34594  26.586  34.558   7.404
 2573POPC   NC334595   4.012  30.142   9.212
 2573POPC   PO434596   4.334  29.580   9.575
 2573POPC   GL134597   4.229  29.673   9.188
 2573POPC   GL234598   4.517  29.505   9.094
 2573POPC   C1A34599   4.284  29.756   8.731
 2573POPC   D2A34600   4.124  29.543   8.382
 2573POPC   C3A34601   4.001  29.878   8.107
 2573POPC   C4A34602   4.210  30.022   7.730
 2573POPC   C1B34603   4.842  29.454   8.797
 2573POPC   C2B34604   4.773  29.652   8.411
 2573POPC   C3B34605   4.518  29.576   8.067
 2573POPC   C4B34606   4.525  29.632   7.645
 2574POPC   NC334607  28.597  25.678   9.345
 2574POPC   PO434608  28.688  25.025   9.466
 2574POPC   GL134609  28.303  25.143   9.144
 2574POPC   GL234610  28.213  25.499   9.042
 2574POPC   C1A34611  28.069  25.108   8.748
 2574POPC   D2A34612  28.268  25.299   8.425
 2574POPC   C3A34613  28.137  25.320   8.029
 2574POPC   C4A34614  28.221  24.954   7.822
 2574POPC   C1B34615  28.620  25.333   8.798
 2574POPC   C2B34616  28.744  25.463   8.389
 2574POPC   C3B34617  28.657  25.271   7.990
 2574POPC   C4B34618  28.848  25.498   7.652
 2575POPC   NC334619  13.693  39.440   9.495
 2575POPC   PO434620  13.338  38.866   9.542
 2575POPC   GL134621  13.402  39.177   9.175
 2575POPC   GL234622  13.735  39.158   9.090
 2575POPC   C1A34623  13.379  39.350   8.764
 2575POPC   D2A34624  13.625  39.413   8.364
 2575POPC   C3A34625  13.572  39.186   7.946
 2575POPC   C4A34626  13.527  39.238   7.472
 2575POPC   C1B34627  13.805  39.592   8.847
 2575POPC   C2B34628  14.062  39.691   8.468
 2575POPC   C3B34629  14.032  39.475   8.047
 2575POPC   C4B34630  14.015  39.369   7.581
 2576POPC   NC334631   6.643  18.098   9.688
 2576POPC   PO434632   7.081  18.603   9.507
 2576POPC   GL134633   6.811  18.323   9.216
 2576POPC   GL234634   6.591  18.007   9.195
 2576POPC   C1A34635   6.618  18.332   8.803
 2576POPC   D2A34636   6.672  18.513   8.413
 2576POPC   C3A34637   6.628  18.305   7.999
 2576POPC   C4A34638   6.620  18.411   7.547
 2576POPC   C1B34639   6.385  17.857   8.810
 2576POPC   C2B34640   6.333  18.059   8.436
 2576POPC   C3B34641   6.148  18.098   8.082
 2576POPC   C4B34642   6.224  18.094   7.646
 2577POPC   NC334643  42.425  38.194   9.572
 2577POPC   PO434644  42.197  38.893   9.484
 2577POPC   GL134645  42.338  38.579   9.167
 2577POPC   GL234646  42.199  38.261   9.130
 2577POPC   C1A34647  42.317  38.582   8.740
 2577POPC   D2A34648  42.151  38.702   8.344
 2577POPC   C3A34649  42.437  38.736   8.009
 2577POPC   C4A34650  42.270  38.547   7.629
 2577POPC   C1B34651  42.252  38.035   8.783
 2577POPC   C2B34652  42.258  38.193   8.408
 2577POPC   C3B34653  42.398  38.226   8.049
 2577POPC   C4B34654  42.300  38.018   7.721
 2578POPC   NC334655  12.336  28.807   9.409
 2578POPC   PO434656  11.789  29.244   9.591
 2578POPC   GL134657  11.961  29.119   9.176
 2578POPC   GL234658  12.249  29.253   9.080
 2578POPC   C1A34659  11.934  29.307   8.705
 2578POPC   D2A34660  12.232  29.171   8.347
 2578POPC   C3A34661  11.972  29.000   8.019
 2578POPC   C4A34662  11.672  29.305   7.857
 2578POPC   C1B34663  12.154  28.857   8.762
 2578POPC   C2B34664  12.297  28.647   8.378
 2578POPC   C3B34665  12.461  28.799   7.989
 2578POPC   C4B34666  12.368  29.223   7.818
 2579POPC   NC334667  23.457  42.191   9.409
 2579POPC   PO434668  23.879  42.677   9.660
 2579POPC   GL134669  23.814  42.472   9.201
 2579POPC   GL234670  23.456  42.637   9.166
 2579POPC   C1A34671  23.858  42.166   8.792
 2579POPC   D2A34672  23.601  42.127   8.398
 2579POPC   C3A34673  23.670  41.984   7.954
 2579POPC   C4A34674  23.529  42.114   7.518
 2579POPC   C1B34675  23.634  42.609   8.744
 2579POPC   C2B34676  23.734  42.754   8.343
 2579POPC   C3B34677  23.568  42.674   7.958
 2579POPC   C4B34678  23.890  42.433   7.761
 2580POPC   NC334679  20.981   0.102   9.825
 2580POPC   PO434680  20.698  44.568   9.466
 2580POPC   GL134681  20.545  44.584   9.067
 2580POPC   GL234682  20.451  44.897   9.118
 2580POPC   C1A34683  20.639  44.578   8.633
 2580POPC   D2A34684  20.917  44.391   8.328
 2580POPC   C3A34685  20.763  44.463   7.927
 2580POPC   C4A34686  20.400  44.372   7.645
 2580POPC   C1B34687  20.622   0.098   8.778
 2580POPC   C2B34688  20.532   0.163   8.395
 2580POPC   C3B34689  20.752  44.989   8.073
 2580POPC   C4B34690  20.592  44.874   7.683
 2581POPC   NC334691  34.116  16.832   9.754
 2581POPC   PO434692  33.690  16.442   9.438
 2581POPC   GL134693  33.827  16.788   9.237
 2581POPC   GL234694  33.523  16.851   9.068
 2581POPC   C1A34695  34.009  16.965   8.863
 2581POPC   D2A34696  33.816  16.916   8.455
 2581POPC   C3A34697  33.820  17.031   8.009
 2581POPC   C4A34698  33.609  16.948   7.598
 2581POPC   C1B34699  33.770  16.517   8.803
 2581POPC   C2B34700  33.994  16.436   8.407
 2581POPC   C3B34701  33.765  16.495   8.030
 2581POPC   C4B34702  33.475  16.214   7.805
 2582POPC   NC334703  29.878  36.557   9.412
 2582POPC   PO434704  30.234  37.078   9.611
 2582POPC   GL134705  30.141  37.034   9.186
 2582POPC   GL234706  30.306  36.717   9.170
 2582POPC   C1A34707  29.815  37.044   8.837
 2582POPC   D2A34708  29.728  37.061   8.363
 2582POPC   C3A34709  30.086  36.915   8.078
 2582POPC   C4A34710  30.349  37.081   7.733
 2582POPC   C1B34711  30.124  36.646   8.822
 2582POPC   C2B34712  29.849  36.607   8.533
 2582POPC   C3B34713  29.759  36.530   8.134
 2582POPC   C4B34714  30.031  36.458   7.811
 2583POPC   NC334715   3.640  32.408   9.821
 2583POPC   PO434716   3.857  33.017   9.638
 2583POPC   GL134717   3.712  33.010   9.174
 2583POPC   GL234718   3.356  32.948   9.052
 2583POPC   C1A34719   3.680  33.182   8.730
 2583POPC   D2A34720   3.518  33.100   8.304
 2583POPC   C3A34721   3.761  33.398   8.065
 2583POPC   C4A34722   3.908  33.364   7.653
 2583POPC   C1B34723   3.469  32.719   8.671
 2583POPC   C2B34724   3.429  32.565   8.248
 2583POPC   C3B34725   3.498  32.706   7.846
 2583POPC   C4B34726   3.659  32.903   7.479
 2584POPC   NC334727  22.015  40.423   9.448
 2584POPC   PO434728  21.789  41.114   9.453
 2584POPC   GL134729  22.117  40.874   9.180
 2584POPC   GL234730  22.038  41.076   8.937
 2584POPC   C1A34731  22.435  40.767   8.789
 2584POPC   D2A34732  22.663  40.922   8.380
 2584POPC   C3A34733  22.476  40.694   8.034
 2584POPC   C4A34734  22.095  40.882   7.868
 2584POPC   C1B34735  21.949  40.631   8.766
 2584POPC   C2B34736  22.030  40.638   8.345
 2584POPC   C3B34737  21.733  40.562   8.016
 2584POPC   C4B34738  21.902  40.503   7.589
 2585POPC   NC334739  34.797  20.165   9.637
 2585POPC   PO434740  35.404  20.468   9.599
 2585POPC   GL134741  35.279  20.514   9.204
 2585POPC   GL234742  35.416  20.829   9.101
 2585POPC   C1A34743  35.104  20.401   8.817
 2585POPC   D2A34744  35.327  20.325   8.408
 2585POPC   C3A34745  35.139  20.123   8.059
 2585POPC   C4A34746  35.218  20.397   7.712
 2585POPC   C1B34747  35.604  20.568   8.803
 2585POPC   C2B34748  35.720  20.691   8.402
 2585POPC   C3B34749  35.583  20.836   8.030
 2585POPC   C4B34750  35.659  20.716   7.610
 2586POPC   NC334751  29.552  22.493   9.454
 2586POPC   PO434752  29.211  23.036   9.373
 2586POPC   GL134753  29.371  23.124   9.015
 2586POPC   GL234754  29.565  22.820   9.022
 2586POPC   C1A34755  29.077  23.063   8.698
 2586POPC   D2A34756  28.982  22.830   8.372
 2586POPC   C3A34757  28.959  23.050   8.028
 2586POPC   C4A34758  29.040  22.894   7.659
 2586POPC   C1B34759  29.554  22.898   8.556
 2586POPC   C2B34760  29.431  23.190   8.220
 2586POPC   C3B34761  29.481  23.127   7.768
 2586POPC   C4B34762  29.638  22.732   7.598
 2587POPC   NC334763  17.622  44.155   9.477
 2587POPC   PO434764  17.224  43.653   9.546
 2587POPC   GL134765  17.402  43.809   9.158
 2587POPC   GL234766  17.792  43.780   9.142
 2587POPC   C1A34767  17.498  43.890   8.734
 2587POPC   D2A34768  17.325  44.080   8.430
 2587POPC   C3A34769  17.474  43.886   8.089
 2587POPC   C4A34770  17.428  44.079   7.736
 2587POPC   C1B34771  17.899  44.141   8.859
 2587POPC   C2B34772  17.828  44.301   8.428
 2587POPC   C3B34773  17.847  44.203   7.985
 2587POPC   C4B34774  17.931  43.834   7.759
 2588POPC   NC334775  37.074  31.514   9.513
 2588POPC   PO434776  36.366  31.476   9.508
 2588POPC   GL134777  36.717  31.404   9.144
 2588POPC   GL234778  37.135  31.457   9.030
 2588POPC   C1A34779  36.802  31.262   8.733
 2588POPC   D2A34780  37.120  31.334   8.469
 2588POPC   C3A34781  37.057  31.272   8.022
 2588POPC   C4A34782  36.832  31.385   7.638
 2588POPC   C1B34783  37.302  31.754   8.724
 2588POPC   C2B34784  37.239  31.769   8.248
 2588POPC   C3B34785  37.137  31.777   7.818
 2588POPC   C4B34786  37.090  31.792   7.328
 2589POPC   NC334787  12.731  31.293   9.600
 2589POPC   PO434788  13.135  31.761   9.573
 2589POPC   GL134789  12.939  31.489   9.195
 2589POPC   GL234790  12.549  31.449   9.162
 2589POPC   C1A34791  12.836  31.300   8.784
 2589POPC   D2A34792  12.996  31.186   8.379
 2589POPC   C3A34793  12.844  31.329   7.969
 2589POPC   C4A34794  12.953  31.528   7.552
 2589POPC   C1B34795  12.433  31.709   8.819
 2589POPC   C2B34796  12.398  31.899   8.430
 2589POPC   C3B34797  12.526  31.741   8.067
 2589POPC   C4B34798  12.479  31.583   7.695
 2590POPC   NC334799  24.209  27.533   9.555
 2590POPC   PO434800  24.850  27.745   9.571
 2590POPC   GL134801  24.609  27.605   9.220
 2590POPC   GL234802  24.469  27.920   9.256
 2590POPC   C1A34803  24.485  27.526   8.773
 2590POPC   D2A34804  24.721  27.570   8.392
 2590POPC   C3A34805  24.444  27.599   8.040
 2590POPC   C4A34806  24.422  27.375   7.640
 2590POPC   C1B34807  24.749  27.952   8.858
 2590POPC   C2B34808  24.893  28.129   8.461
 2590POPC   C3B34809  24.869  27.942   8.060
 2590POPC   C4B34810  24.630  27.930   7.709
 2591POPC   NC334811  30.258  28.022   9.517
 2591POPC   PO434812  30.163  27.300   9.547
 2591POPC   GL134813  30.143  27.489   9.178
 2591POPC   GL234814  29.894  27.293   9.080
 2591POPC   C1A34815  30.258  27.519   8.738
 2591POPC   D2A34816  30.092  27.774   8.409
 2591POPC   C3A34817  30.231  27.684   7.987
 2591POPC   C4A34818  29.942  27.769   7.640
 2591POPC   C1B34819  29.790  27.677   8.867
 2591POPC   C2B34820  29.649  27.543   8.516
 2591POPC   C3B34821  29.755  27.520   8.079
 2591POPC   C4B34822  29.500  27.357   7.752
 2592POPC   NC334823  41.342   2.897   9.256
 2592POPC   PO434824  41.967   2.983   9.466
 2592POPC   GL134825  41.795   2.860   9.039
 2592POPC   GL234826  41.687   3.184   9.032
 2592POPC   C1A34827  41.496   2.884   8.640
 2592POPC   D2A34828  41.454   2.988   8.214
 2592POPC   C3A34829  41.578   2.606   8.027
 2592POPC   C4A34830  41.844   2.485   7.690
 2592POPC   C1B34831  41.840   3.270   8.660
 2592POPC   C2B34832  41.961   2.985   8.343
 2592POPC   C3B34833  41.882   2.986   7.908
 2592POPC   C4B34834  41.848   3.352   7.671
 2593POPC   NC334835  34.791  42.236   9.585
 2593POPC   PO434836  34.171  42.364   9.757
 2593POPC   GL134837  34.429  42.427   9.305
 2593POPC   GL234838  34.770  42.258   9.095
 2593POPC   C1A34839  34.466  42.580   8.857
 2593POPC   D2A34840  34.341  42.602   8.428
 2593POPC   C3A34841  34.548  42.642   8.063
 2593POPC   C4A34842  34.599  42.346   7.723
 2593POPC   C1B34843  34.995  42.368   8.691
 2593POPC   C2B34844  34.905  42.317   8.237
 2593POPC   C3B34845  35.028  42.558   7.865
 2593POPC   C4B34846  35.044  42.377   7.469
 2594POPC   NC334847  20.698  37.243   9.514
 2594POPC   PO434848  20.563  36.650   9.770
 2594POPC   GL134849  20.599  36.796   9.296
 2594POPC   GL234850  20.351  37.060   9.194
 2594POPC   C1A34851  20.776  36.989   8.878
 2594POPC   D2A34852  20.538  36.910   8.476
 2594POPC   C3A34853  20.753  36.944   8.123
 2594POPC   C4A34854  20.725  36.960   7.676
 2594POPC   C1B34855  20.350  37.241   8.797
 2594POPC   C2B34856  20.381  37.402   8.362
 2594POPC   C3B34857  20.477  37.318   7.954
 2594POPC   C4B34858  20.900  37.393   7.869
 2595POPC   NC334859  33.778   8.688   9.630
 2595POPC   PO434860  34.015   9.306   9.444
 2595POPC   GL134861  33.736   9.066   9.232
 2595POPC   GL234862  33.816   8.729   9.125
 2595POPC   C1A34863  33.606   9.072   8.807
 2595POPC   D2A34864  33.834   8.957   8.427
 2595POPC   C3A34865  33.654   8.972   8.013
 2595POPC   C4A34866  33.608   9.102   7.609
 2595POPC   C1B34867  33.850   8.456   8.763
 2595POPC   C2B34868  34.108   8.478   8.427
 2595POPC   C3B34869  34.090   8.685   8.056
 2595POPC   C4B34870  33.882   8.641   7.684
 2596POPC   NC334871  12.885   3.840   9.556
 2596POPC   PO434872  12.525   3.306   9.634
 2596POPC   GL134873  12.639   3.500   9.233
 2596POPC   GL234874  13.003   3.637   9.100
 2596POPC   C1A34875  12.545   3.699   8.852
 2596POPC   D2A34876  12.830   3.731   8.523
 2596POPC   C3A34877  12.689   3.591   8.129
 2596POPC   C4A34878  12.746   3.712   7.692
 2596POPC   C1B34879  13.250   3.483   8.731
 2596POPC   C2B34880  13.268   3.566   8.279
 2596POPC   C3B34881  13.148   3.367   7.888
 2596POPC   C4B34882  13.088   3.399   7.422
 2597POPC   NC334883  22.667  36.248   9.502
 2597POPC   PO434884  23.279  35.929   9.500
 2597POPC   GL134885  23.078  35.983   9.105
 2597POPC   GL234886  22.966  36.292   9.090
 2597POPC   C1A34887  23.157  36.099   8.630
 2597POPC   D2A34888  22.817  36.093   8.271
 2597POPC   C3A34889  22.917  35.842   7.866
 2597POPC   C4A34890  22.896  36.009   7.419
 2597POPC   C1B34891  22.730  36.344   8.730
 2597POPC   C2B34892  22.838  36.650   8.436
 2597POPC   C3B34893  22.824  36.611   8.010
 2597POPC   C4B34894  22.632  36.248   7.781
 2598POPC   NC334895  32.480  26.427   9.788
 2598POPC   PO434896  32.193  25.878   9.520
 2598POPC   GL134897  32.196  26.033   9.141
 2598POPC   GL234898  32.540  26.128   9.180
 2598POPC   C1A34899  31.956  25.988   8.767
 2598POPC   D2A34900  32.198  25.939   8.384
 2598POPC   C3A34901  32.025  26.063   8.003
 2598POPC   C4A34902  32.109  26.241   7.637
 2598POPC   C1B34903  32.711  26.176   8.770
 2598POPC   C2B34904  32.588  26.312   8.341
 2598POPC   C3B34905  32.538  26.190   7.897
 2598POPC   C4B34906  32.564  26.372   7.439
 2599POPC   NC334907  24.292  38.321   9.449
 2599POPC   PO434908  24.914  38.205   9.441
 2599POPC   GL134909  24.686  38.404   9.117
 2599POPC   GL234910  24.509  38.735   9.174
 2599POPC   C1A34911  24.400  38.302   8.786
 2599POPC   D2A34912  24.401  38.441   8.370
 2599POPC   C3A34913  24.422  38.225   7.991
 2599POPC   C4A34914  24.694  38.406   7.657
 2599POPC   C1B34915  24.331  38.826   8.748
 2599POPC   C2B34916  24.077  38.820   8.335
 2599POPC   C3B34917  24.321  38.740   7.942
 2599POPC   C4B34918  24.240  38.631   7.532
 2600POPC   NC334919  25.381   7.700   9.489
 2600POPC   PO434920  25.546   6.958   9.587
 2600POPC   GL134921  25.327   7.235   9.237
 2600POPC   GL234922  24.988   7.410   9.228
 2600POPC   C1A34923  25.407   7.510   8.852
 2600POPC   D2A34924  25.557   7.414   8.439
 2600POPC   C3A34925  25.530   7.672   8.112
 2600POPC   C4A34926  25.511   7.538   7.722
 2600POPC   C1B34927  24.933   7.638   8.807
 2600POPC   C2B34928  25.059   7.464   8.391
 2600POPC   C3B34929  25.052   7.473   7.947
 2600POPC   C4B34930  24.945   7.151   7.666
 2601POPC   NC334931   5.219  21.031   9.499
 2601POPC   PO434932   4.835  21.584   9.492
 2601POPC   GL134933   4.962  21.383   9.135
 2601POPC   GL234934   5.292  21.440   9.114
 2601POPC   C1A34935   5.009  21.343   8.683
 2601POPC   D2A34936   4.888  21.081   8.353
 2601POPC   C3A34937   4.990  21.263   7.970
 2601POPC   C4A34938   5.411  21.344   7.850
 2601POPC   C1B34939   5.337  21.740   8.796
 2601POPC   C2B34940   5.212  21.727   8.361
 2601POPC   C3B34941   5.384  21.846   7.955
 2601POPC   C4B34942   5.368  21.698   7.490
 2602POPC   NC334943  39.506  17.475   9.360
 2602POPC   PO434944  38.836  17.568   9.401
 2602POPC   GL134945  39.118  17.702   9.052
 2602POPC   GL234946  39.415  17.928   9.129
 2602POPC   C1A34947  39.126  17.712   8.595
 2602POPC   D2A34948  39.110  17.387   8.268
 2602POPC   C3A34949  39.114  17.442   7.818
 2602POPC   C4A34950  39.130  17.344   7.352
 2602POPC   C1B34951  39.614  17.708   8.758
 2602POPC   C2B34952  39.556  17.676   8.300
 2602POPC   C3B34953  39.647  17.712   7.883
 2602POPC   C4B34954  39.569  17.413   7.584
 2603POPC   NC334955  31.474   9.913   9.596
 2603POPC   PO434956  31.988   9.481   9.747
 2603POPC   GL134957  31.773   9.558   9.311
 2603POPC   GL234958  31.407   9.648   9.162
 2603POPC   C1A34959  31.774   9.558   8.838
 2603POPC   D2A34960  31.634   9.774   8.468
 2603POPC   C3A34961  31.774   9.685   8.049
 2603POPC   C4A34962  31.485   9.552   7.724
 2603POPC   C1B34963  31.246   9.882   8.810
 2603POPC   C2B34964  31.211  10.059   8.384
 2603POPC   C3B34965  31.334  10.029   7.939
 2603POPC   C4B34966  31.263  10.370   7.624
 2604POPC   NC334967  25.560  12.123   9.507
 2604POPC   PO434968  24.966  12.280   9.256
 2604POPC   GL134969  25.157  11.940   9.039
 2604POPC   GL234970  25.504  11.871   9.074
 2604POPC   C1A34971  25.231  12.049   8.643
 2604POPC   D2A34972  25.407  12.296   8.328
 2604POPC   C3A34973  25.356  12.128   7.964
 2604POPC   C4A34974  25.317  11.776   7.721
 2604POPC   C1B34975  25.710  12.115   8.741
 2604POPC   C2B34976  25.834  11.989   8.310
 2604POPC   C3B34977  25.816  11.957   7.835
 2604POPC   C4B34978  25.620  12.269   7.530
 2605POPC   NC334979  24.453  24.756   9.598
 2605POPC   PO434980  24.214  24.098   9.633
 2605POPC   GL134981  24.474  24.309   9.263
 2605POPC   GL234982  24.528  24.688   9.112
 2605POPC   C1A34983  24.522  24.289   8.812
 2605POPC   D2A34984  24.301  24.286   8.435
 2605POPC   C3A34985  24.420  24.368   8.034
 2605POPC   C4A34986  24.786  24.277   7.841
 2605POPC   C1B34987  24.478  24.763   8.660
 2605POPC   C2B34988  24.768  24.679   8.335
 2605POPC   C3B34989  24.821  24.796   7.922
 2605POPC   C4B34990  24.458  24.721   7.682
 2606POPC   NC334991  18.897  31.733   9.741
 2606POPC   PO434992  18.941  32.469   9.625
 2606POPC   GL134993  18.957  32.481   9.189
 2606POPC   GL234994  19.314  32.573   9.217
 2606POPC   C1A34995  18.900  32.127   8.875
 2606POPC   D2A34996  19.082  32.146   8.450
 2606POPC   C3A34997  18.927  31.958   8.120
 2606POPC   C4A34998  18.930  32.189   7.768
 2606POPC   C1B34999  19.308  32.439   8.804
 2606POPC   C2B35000  19.265  32.620   8.423
 2606POPC   C3B35001  19.304  32.407   8.052
 2606POPC   C4B35002  19.263  32.621   7.707
 2607POPC   NC335003  18.883  13.759   9.719
 2607POPC   PO435004  19.336  13.972   9.284
 2607POPC   GL135005  19.130  13.622   9.139
 2607POPC   GL235006  18.811  13.619   9.238
 2607POPC   C1A35007  19.201  13.503   8.735
 2607POPC   D2A35008  19.452  13.736   8.458
 2607POPC   C3A35009  19.385  13.612   8.050
 2607POPC   C4A35010  19.152  13.357   7.780
 2607POPC   C1B35011  18.719  13.682   8.825
 2607POPC   C2B35012  18.569  13.821   8.444
 2607POPC   C3B35013  18.583  13.935   8.020
 2607POPC   C4B35014  18.865  13.788   7.743
 2608POPC   NC335015  13.166   7.837   9.284
 2608POPC   PO435016  12.901   7.219   9.553
 2608POPC   GL135017  12.895   7.358   9.127
 2608POPC   GL235018  12.665   7.640   9.097
 2608POPC   C1A35019  12.753   7.231   8.700
 2608POPC   D2A35020  12.604   7.423   8.314
 2608POPC   C3A35021  12.830   7.255   8.005
 2608POPC   C4A35022  12.737   6.910   7.786
 2608POPC   C1B35023  12.918   7.714   8.697
 2608POPC   C2B35024  13.068   7.668   8.276
 2608POPC   C3B35025  12.836   7.767   7.909
 2608POPC   C4B35026  12.479   7.575   7.725
 2609POPC   NC335027  15.310  36.700   9.508
 2609POPC   PO435028  15.570  37.184   9.232
 2609POPC   GL135029  15.441  36.866   9.013
 2609POPC   GL235030  15.099  36.942   9.080
 2609POPC   C1A35031  15.250  36.722   8.652
 2609POPC   D2A35032  15.025  36.846   8.318
 2609POPC   C3A35033  15.343  36.833   8.050
 2609POPC   C4A35034  15.410  36.821   7.639
 2609POPC   C1B35035  14.969  36.483   8.983
 2609POPC   C2B35036  14.932  36.307   8.536
 2609POPC   C3B35037  14.927  36.392   8.092
 2609POPC   C4B35038  14.962  36.607   7.716
 2610POPC   NC335039  13.116   9.980   9.670
 2610POPC   PO435040  12.841   9.367   9.468
 2610POPC   GL135041  12.802   9.771   9.303
 2610POPC   GL235042  13.145   9.918   9.175
 2610POPC   C1A35043  12.790   9.735   8.877
 2610POPC   D2A35044  12.771   9.574   8.474
 2610POPC   C3A35045  12.432   9.629   8.239
 2610POPC   C4A35046  12.531   9.585   7.835
 2610POPC   C1B35047  13.267   9.873   8.744
 2610POPC   C2B35048  13.062   9.972   8.370
 2610POPC   C3B35049  12.991   9.764   8.000
 2610POPC   C4B35050  13.293   9.459   8.021
 2611POPC   NC335051   3.086  40.961   9.391
 2611POPC   PO435052   2.572  40.564   9.448
 2611POPC   GL135053   2.659  40.842   9.119
 2611POPC   GL235054   2.675  41.179   9.191
 2611POPC   C1A35055   2.945  40.817   8.749
 2611POPC   D2A35056   3.155  40.706   8.352
 2611POPC   C3A35057   2.878  40.856   8.001
 2611POPC   C4A35058   2.652  40.667   7.664
 2611POPC   C1B35059   2.660  41.242   8.779
 2611POPC   C2B35060   2.526  41.017   8.418
 2611POPC   C3B35061   2.360  41.197   8.061
 2611POPC   C4B35062   2.569  41.186   7.666
 2612POPC   NC335063   3.342  28.890   9.519
 2612POPC   PO435064   3.665  29.575   9.581
 2612POPC   GL135065   3.547  29.316   9.204
 2612POPC   GL235066   3.604  28.961   9.113
 2612POPC   C1A35067   3.523  29.285   8.744
 2612POPC   D2A35068   3.616  29.536   8.406
 2612POPC   C3A35069   3.685  29.471   8.001
 2612POPC   C4A35070   4.051  29.462   7.781
 2612POPC   C1B35071   3.202  28.922   8.858
 2612POPC   C2B35072   3.033  28.940   8.449
 2612POPC   C3B35073   3.164  28.883   8.039
 2612POPC   C4B35074   3.441  29.105   7.720
 2613POPC   NC335075  44.575  37.285   9.636
 2613POPC   PO435076  44.755  36.690   9.717
 2613POPC   GL135077  44.545  36.762   9.237
 2613POPC   GL235078  44.458  37.124   9.147
 2613POPC   C1A35079  44.522  36.685   8.723
 2613POPC   D2A35080  44.689  36.884   8.283
 2613POPC   C3A35081  44.664  36.731   7.824
 2613POPC   C4A35082  44.965  36.699   7.475
 2613POPC   C1B35083  44.624  37.184   8.717
 2613POPC   C2B35084  44.412  37.312   8.327
 2613POPC   C3B35085  44.468  37.202   7.908
 2613POPC   C4B35086  44.727  37.158   7.554
 2614POPC   NC335087   3.469   4.650   9.443
 2614POPC   PO435088   3.666   4.009   9.630
 2614POPC   GL135089   3.471   4.151   9.229
 2614POPC   GL235090   3.450   4.451   8.992
 2614POPC   C1A35091   3.543   4.000   8.806
 2614POPC   D2A35092   3.573   4.265   8.467
 2614POPC   C3A35093   3.468   4.161   8.062
 2614POPC   C4A35094   3.363   4.130   7.628
 2614POPC   C1B35095   3.534   4.744   8.656
 2614POPC   C2B35096   3.568   4.706   8.198
 2614POPC   C3B35097   3.265   4.591   7.858
 2614POPC   C4B35098   3.367   4.658   7.420
 2615POPC   NC335099  19.933  25.565   9.553
 2615POPC   PO435100  20.238  24.992   9.559
 2615POPC   GL135101  20.137  25.182   9.162
 2615POPC   GL235102  19.821  25.178   9.041
 2615POPC   C1A35103  20.165  25.318   8.715
 2615POPC   D2A35104  20.167  25.124   8.302
 2615POPC   C3A35105  19.817  25.282   8.053
 2615POPC   C4A35106  19.746  25.345   7.610
 2615POPC   C1B35107  19.553  25.243   8.728
 2615POPC   C2B35108  19.385  25.341   8.352
 2615POPC   C3B35109  19.300  25.328   7.929
 2615POPC   C4B35110  19.343  25.049   7.582
 2616POPC   NC335111  24.311   2.102   9.532
 2616POPC   PO435112  24.686   1.712   9.176
 2616POPC   GL135113  24.611   2.138   9.106
 2616POPC   GL235114  24.889   2.322   9.182
 2616POPC   C1A35115  24.491   2.217   8.705
 2616POPC   D2A35116  24.377   1.919   8.379
 2616POPC   C3A35117  24.482   1.958   7.968
 2616POPC   C4A35118  24.348   2.223   7.661
 2616POPC   C1B35119  25.027   2.105   8.777
 2616POPC   C2B35120  24.890   1.931   8.395
 2616POPC   C3B35121  24.964   2.116   8.037
 2616POPC   C4B35122  24.860   2.088   7.640
 2617POPC   NC335123  13.131  42.651   9.804
 2617POPC   PO435124  13.660  42.261   9.596
 2617POPC   GL135125  13.483  42.348   9.199
 2617POPC   GL235126  13.198  42.188   9.050
 2617POPC   C1A35127  13.483  42.530   8.744
 2617POPC   D2A35128  13.371  42.351   8.353
 2617POPC   C3A35129  13.618  42.433   8.028
 2617POPC   C4A35130  13.569  42.533   7.610
 2617POPC   C1B35131  13.573  42.033   8.817
 2617POPC   C2B35132  13.827  42.172   8.472
 2617POPC   C3B35133  13.842  41.970   8.113
 2617POPC   C4B35134  13.793  42.078   7.709
 2618POPC   NC335135  10.177  28.509   9.591
 2618POPC   PO435136  10.787  28.238   9.657
 2618POPC   GL135137  10.532  28.282   9.274
 2618POPC   GL235138  10.450  28.651   9.152
 2618POPC   C1A35139  10.663  28.163   8.869
 2618POPC   D2A35140  10.507  28.119   8.471
 2618POPC   C3A35141  10.598  27.970   8.084
 2618POPC   C4A35142  10.736  28.293   7.817
 2618POPC   C1B35143  10.519  28.620   8.673
 2618POPC   C2B35144  10.509  28.549   8.204
 2618POPC   C3B35145  10.571  28.775   7.807
 2618POPC   C4B35146  10.784  28.772   7.393
 2619POPC   NC335147   7.947   4.855   9.533
 2619POPC   PO435148   8.461   5.211   9.631
 2619POPC   GL135149   8.282   5.161   9.245
 2619POPC   GL235150   8.431   4.821   9.266
 2619POPC   C1A35151   8.158   5.297   8.820
 2619POPC   D2A35152   8.213   5.431   8.390
 2619POPC   C3A35153   8.169   5.219   7.987
 2619POPC   C4A35154   8.363   5.331   7.589
 2619POPC   C1B35155   8.236   4.798   8.871
 2619POPC   C2B35156   8.095   4.874   8.456
 2619POPC   C3B35157   8.138   4.704   8.035
 2619POPC   C4B35158   8.382   4.832   7.675
 2620POPC   NC335159  37.276  28.635   9.404
 2620POPC   PO435160  37.163  28.092   9.794
 2620POPC   GL135161  36.937  28.285   9.331
 2620POPC   GL235162  36.736  28.603   9.271
 2620POPC   C1A35163  36.964  28.291   8.857
 2620POPC   D2A35164  37.230  28.357   8.465
 2620POPC   C3A35165  37.088  28.579   8.052
 2620POPC   C4A35166  36.976  28.368   7.640
 2620POPC   C1B35167  36.564  28.636   8.835
 2620POPC   C2B35168  36.688  28.456   8.408
 2620POPC   C3B35169  36.598  28.358   7.964
 2620POPC   C4B35170  36.547  28.648   7.579
 2621POPC   NC335171  34.414  10.074   9.537
 2621POPC   PO435172  34.874   9.548   9.896
 2621POPC   GL135173  34.704   9.740   9.371
 2621POPC   GL235174  34.456   9.545   9.089
 2621POPC   C1A35175  34.833   9.837   8.917
 2621POPC   D2A35176  34.708  10.116   8.593
 2621POPC   C3A35177  34.592   9.990   8.176
 2621POPC   C4A35178  34.786   9.826   7.796
 2621POPC   C1B35179  34.375   9.699   8.675
 2621POPC   C2B35180  34.127   9.772   8.293
 2621POPC   C3B35181  34.212   9.815   7.862
 2621POPC   C4B35182  34.175   9.510   7.567
 2622POPC   NC335183  12.311  23.316   9.770
 2622POPC   PO435184  12.675  22.761   9.495
 2622POPC   GL135185  12.936  22.964   9.186
 2622POPC   GL235186  12.662  23.129   9.036
 2622POPC   C1A35187  13.247  22.849   8.861
 2622POPC   D2A35188  13.203  22.559   8.516
 2622POPC   C3A35189  13.016  22.805   8.214
 2622POPC   C4A35190  12.801  22.799   7.833
 2622POPC   C1B35191  12.821  23.057   8.644
 2622POPC   C2B35192  12.724  23.244   8.286
 2622POPC   C3B35193  12.492  23.187   7.928
 2622POPC   C4B35194  12.673  23.156   7.496
 2623POPC   NC335195  34.255  12.192   9.735
 2623POPC   PO435196  34.823  11.906   9.515
 2623POPC   GL135197  34.611  12.100   9.136
 2623POPC   GL235198  34.250  12.180   9.110
 2623POPC   C1A35199  34.645  12.166   8.696
 2623POPC   D2A35200  34.675  11.939   8.303
 2623POPC   C3A35201  34.898  12.094   7.978
 2623POPC   C4A35202  35.092  12.412   7.747
 2623POPC   C1B35203  34.195  11.879   8.753
 2623POPC   C2B35204  34.236  11.683   8.346
 2623POPC   C3B35205  34.333  11.881   7.921
 2623POPC   C4B35206  34.507  12.227   7.649
 2624POPC   NC335207  15.181  35.709   9.512
 2624POPC   PO435208  15.395  36.290   9.669
 2624POPC   GL135209  15.228  36.168   9.280
 2624POPC   GL235210  15.492  36.369   9.155
 2624POPC   C1A35211  14.938  35.971   8.931
 2624POPC   D2A35212  14.920  35.699   8.555
 2624POPC   C3A35213  14.858  35.882   8.117
 2624POPC   C4A35214  15.055  36.028   7.692
 2624POPC   C1B35215  15.376  36.211   8.771
 2624POPC   C2B35216  15.443  36.368   8.349
 2624POPC   C3B35217  15.416  36.335   7.928
 2624POPC   C4B35218  15.598  36.301   7.569
 2625POPC   NC335219  33.824  24.670   9.650
 2625POPC   PO435220  33.686  24.098   9.570
 2625POPC   GL135221  33.787  24.429   9.210
 2625POPC   GL235222  34.124  24.390   9.090
 2625POPC   C1A35223  33.833  24.731   8.833
 2625POPC   D2A35224  33.981  24.678   8.397
 2625POPC   C3A35225  33.815  24.790   7.949
 2625POPC   C4A35226  33.965  24.900   7.480
 2625POPC   C1B35227  34.038  24.238   8.662
 2625POPC   C2B35228  33.786  24.143   8.281
 2625POPC   C3B35229  33.732  24.266   7.834
 2625POPC   C4B35230  33.589  24.568   7.522
 2626POPC   NC335231  34.157   3.720   9.414
 2626POPC   PO435232  33.615   3.403   9.557
 2626POPC   GL135233  33.812   3.386   9.175
 2626POPC   GL235234  34.123   3.212   9.091
 2626POPC   C1A35235  33.888   3.650   8.805
 2626POPC   D2A35236  34.072   3.707   8.413
 2626POPC   C3A35237  33.849   3.688   8.042
 2626POPC   C4A35238  33.804   3.884   7.665
 2626POPC   C1B35239  33.854   3.135   8.748
 2626POPC   C2B35240  33.791   3.284   8.366
 2626POPC   C3B35241  33.992   3.198   7.999
 2626POPC   C4B35242  33.804   3.335   7.613
 2627POPC   NC335243  20.218   0.568   9.597
 2627POPC   PO435244  19.628   0.201   9.559
 2627POPC   GL135245  19.857   0.382   9.220
 2627POPC   GL235246  20.210   0.330   9.163
 2627POPC   C1A35247  19.754   0.596   8.861
 2627POPC   D2A35248  19.831   0.754   8.464
 2627POPC   C3A35249  19.651   0.627   8.068
 2627POPC   C4A35250  19.837   0.408   7.739
 2627POPC   C1B35251  20.132   0.263   8.756
 2627POPC   C2B35252  19.999   0.197   8.350
 2627POPC   C3B35253  20.210   0.127   7.982
 2627POPC   C4B35254  20.320   0.318   7.635
 2628POPC   NC335255  20.306   2.154   9.441
 2628POPC   PO435256  20.762   1.673   9.601
 2628POPC   GL135257  20.642   1.627   9.168
 2628POPC   GL235258  20.967   1.795   9.118
 2628POPC   C1A35259  20.529   1.648   8.705
 2628POPC   D2A35260  20.418   1.967   8.354
 2628POPC   C3A35261  20.379   1.902   7.902
 2628POPC   C4A35262  20.138   2.161   7.641
 2628POPC   C1B35263  21.006   1.962   8.733
 2628POPC   C2B35264  20.895   1.783   8.374
 2628POPC   C3B35265  20.856   1.988   8.026
 2628POPC   C4B35266  20.827   1.838   7.655
 2629POPC   NC335267   1.935  42.556   9.619
 2629POPC   PO435268   1.376  42.849   9.254
 2629POPC   GL135269   1.804  42.670   9.137
 2629POPC   GL235270   1.906  42.288   9.192
 2629POPC   C1A35271   2.081  42.537   8.787
 2629POPC   D2A35272   2.023  42.400   8.378
 2629POPC   C3A35273   2.061  42.619   7.986
 2629POPC   C4A35274   1.756  42.717   7.688
 2629POPC   C1B35275   1.835  41.979   8.866
 2629POPC   C2B35276   1.878  41.903   8.431
 2629POPC   C3B35277   1.874  42.092   8.013
 2629POPC   C4B35278   2.192  42.086   7.708
 2630POPC   NC335279  12.135  33.281   9.509
 2630POPC   PO435280  12.360  32.544   9.551
 2630POPC   GL135281  12.030  32.762   9.281
 2630POPC   GL235282  11.788  32.545   9.109
 2630POPC   C1A35283  12.064  33.035   8.905
 2630POPC   D2A35284  12.103  32.969   8.455
 2630POPC   C3A35285  12.088  33.257   8.125
 2630POPC   C4A35286  12.119  33.221   7.678
 2630POPC   C1B35287  11.738  32.702   8.704
 2630POPC   C2B35288  11.778  32.618   8.261
 2630POPC   C3B35289  11.784  32.849   7.887
 2630POPC   C4B35290  11.812  32.869   7.440
 2631POPC   NC335291  26.393   2.774   9.507
 2631POPC   PO435292  26.412   2.179   9.488
 2631POPC   GL135293  26.177   2.401   9.123
 2631POPC   GL235294  26.074   2.763   9.061
 2631POPC   C1A35295  26.208   2.471   8.664
 2631POPC   D2A35296  25.943   2.504   8.280
 2631POPC   C3A35297  26.207   2.666   7.959
 2631POPC   C4A35298  26.566   2.526   7.705
 2631POPC   C1B35299  25.804   2.794   8.679
 2631POPC   C2B35300  25.897   3.038   8.268
 2631POPC   C3B35301  25.884   3.017   7.788
 2631POPC   C4B35302  25.696   3.015   7.358
 2632POPC   NC335303  34.210  44.685   9.644
 2632POPC   PO435304  33.548  44.364   9.596
 2632POPC   GL135305  33.854  44.488   9.273
 2632POPC   GL235306  34.054  44.818   9.186
 2632POPC   C1A35307  33.849  44.505   8.834
 2632POPC   D2A35308  33.697  44.782   8.524
 2632POPC   C3A35309  33.761  44.592   8.130
 2632POPC   C4A35310  33.554  44.617   7.742
 2632POPC   C1B35311  34.135   0.019   8.784
 2632POPC   C2B35312  34.170  44.898   8.328
 2632POPC   C3B35313  34.000  44.972   7.898
 2632POPC   C4B35314  34.177   0.009   7.480
 2633POPC   NC335315   8.304   3.263   9.581
 2633POPC   PO435316   7.861   3.876   9.571
 2633POPC   GL135317   8.043   3.568   9.243
 2633POPC   GL235318   7.988   3.208   9.166
 2633POPC   C1A35319   8.251   3.524   8.823
 2633POPC   D2A35320   8.239   3.776   8.426
 2633POPC   C3A35321   8.377   3.476   8.093
 2633POPC   C4A35322   8.323   3.371   7.647
 2633POPC   C1B35323   7.842   3.219   8.731
 2633POPC   C2B35324   8.024   3.146   8.299
 2633POPC   C3B35325   7.853   3.103   7.864
 2633POPC   C4B35326   7.846   3.328   7.455
 2634POPC   NC335327  11.314  23.359   9.701
 2634POPC   PO435328  11.040  22.720   9.583
 2634POPC   GL135329  11.167  23.054   9.303
 2634POPC   GL235330  11.472  23.006   9.122
 2634POPC   C1A35331  11.071  23.173   8.878
 2634POPC   D2A35332  11.011  22.942   8.480
 2634POPC   C3A35333  11.330  23.079   8.201
 2634POPC   C4A35334  11.289  23.048   7.781
 2634POPC   C1B35335  11.339  22.701   8.844
 2634POPC   C2B35336  11.399  22.598   8.416
 2634POPC   C3B35337  11.206  22.598   8.022
 2634POPC   C4B35338  11.494  22.573   7.682
 2635POPC   NC335339   8.418   1.555   9.416
 2635POPC   PO435340   7.824   1.116   9.469
 2635POPC   GL135341   8.038   1.115   9.103
 2635POPC   GL235342   8.018   1.471   9.087
 2635POPC   C1A35343   7.947   1.143   8.659
 2635POPC   D2A35344   7.933   1.388   8.279
 2635POPC   C3A35345   7.952   1.040   8.041
 2635POPC   C4A35346   8.062   0.899   7.667
 2635POPC   C1B35347   8.392   1.357   8.777
 2635POPC   C2B35348   8.434   1.174   8.326
 2635POPC   C3B35349   8.403   1.353   7.893
 2635POPC   C4B35350   8.515   1.481   7.435
 2636POPC   NC335351  41.448  14.415   9.503
 2636POPC   PO435352  42.079  14.428   9.599
 2636POPC   GL135353  41.848  14.390   9.164
 2636POPC   GL235354  41.569  14.628   9.073
 2636POPC   C1A35355  41.605  14.280   8.743
 2636POPC   D2A35356  41.686  14.026   8.397
 2636POPC   C3A35357  41.508  14.207   8.045
 2636POPC   C4A35358  41.589  14.371   7.652
 2636POPC   C1B35359  41.258  14.798   8.742
 2636POPC   C2B35360  41.279  14.953   8.320
 2636POPC   C3B35361  41.283  14.694   7.947
 2636POPC   C4B35362  41.210  14.674   7.485
 2637POPC   NC335363  30.836  39.373   9.600
 2637POPC   PO435364  30.237  39.366   9.289
 2637POPC   GL135365  30.643  39.198   9.174
 2637POPC   GL235366  30.872  39.497   9.112
 2637POPC   C1A35367  30.886  39.063   8.844
 2637POPC   D2A35368  30.673  38.964   8.441
 2637POPC   C3A35369  30.818  39.097   8.047
 2637POPC   C4A35370  30.427  39.157   7.862
 2637POPC   C1B35371  30.585  39.476   8.741
 2637POPC   C2B35372  30.471  39.420   8.329
 2637POPC   C3B35373  30.633  39.598   8.000
 2637POPC   C4B35374  30.972  39.545   7.806
 2638POPC   NC335375  40.476  14.067   9.452
 2638POPC   PO435376  41.120  14.100   9.534
 2638POPC   GL135377  40.828  14.415   9.299
 2638POPC   GL235378  41.025  14.690   9.184
 2638POPC   C1A35379  40.600  14.482   8.864
 2638POPC   D2A35380  40.701  14.323   8.460
 2638POPC   C3A35381  40.476  14.296   8.076
 2638POPC   C4A35382  40.613  14.381   7.689
 2638POPC   C1B35383  41.102  14.339   8.863
 2638POPC   C2B35384  41.210  14.425   8.412
 2638POPC   C3B35385  40.997  14.271   8.039
 2638POPC   C4B35386  41.119  14.198   7.634
 2639POPC   NC335387  31.646  42.571   9.380
 2639POPC   PO435388  30.958  42.440   9.437
 2639POPC   GL135389  31.266  42.272   9.167
 2639POPC   GL235390  31.010  42.230   8.961
 2639POPC   C1A35391  31.523  42.212   8.777
 2639POPC   D2A35392  31.623  42.007   8.371
 2639POPC   C3A35393  31.679  42.218   7.943
 2639POPC   C4A35394  31.647  42.323   7.475
 2639POPC   C1B35395  31.057  42.277   8.538
 2639POPC   C2B35396  31.199  42.201   8.148
 2639POPC   C3B35397  31.217  42.165   7.711
 2639POPC   C4B35398  31.142  42.427   7.385
 2640POPC   NC335399  30.316  15.191   9.459
 2640POPC   PO435400  30.925  14.880   9.208
 2640POPC   GL135401  30.656  15.258   9.072
 2640POPC   GL235402  30.349  15.063   8.970
 2640POPC   C1A35403  30.672  15.541   8.692
 2640POPC   D2A35404  30.823  15.340   8.330
 2640POPC   C3A35405  30.827  15.440   7.918
 2640POPC   C4A35406  30.927  15.044   7.740
 2640POPC   C1B35407  30.177  15.168   8.574
 2640POPC   C2B35408  30.341  15.396   8.221
 2640POPC   C3B35409  30.415  15.144   7.881
 2640POPC   C4B35410  30.130  15.123   7.586
 2641POPC   NC335411  25.687  43.222   9.457
 2641POPC   PO435412  26.249  42.966   9.530
 2641POPC   GL135413  26.198  42.705   9.186
 2641POPC   GL235414  25.832  42.848   9.090
 2641POPC   C1A35415  26.177  42.677   8.754
 2641POPC   D2A35416  25.850  42.883   8.502
 2641POPC   C3A35417  25.997  42.893   8.101
 2641POPC   C4A35418  25.855  42.976   7.726
 2641POPC   C1B35419  25.970  43.235   8.864
 2641POPC   C2B35420  25.903  43.434   8.449
 2641POPC   C3B35421  26.022  43.417   8.012
 2641POPC   C4B35422  26.124  43.367   7.581
 2642POPC   NC335423  39.042  34.122   9.524
 2642POPC   PO435424  39.542  33.630   9.583
 2642POPC   GL135425  39.282  33.747   9.207
 2642POPC   GL235426  39.420  34.078   9.156
 2642POPC   C1A35427  39.018  33.703   8.790
 2642POPC   D2A35428  38.916  33.507   8.342
 2642POPC   C3A35429  39.090  33.664   7.924
 2642POPC   C4A35430  39.478  33.943   7.881
 2642POPC   C1B35431  39.051  34.241   8.895
 2642POPC   C2B35432  38.888  34.202   8.497
 2642POPC   C3B35433  39.076  34.176   8.071
 2642POPC   C4B35434  39.114  34.156   7.577
 2643POPC   NC335435  15.466   8.061   9.544
 2643POPC   PO435436  14.934   8.493   9.560
 2643POPC   GL135437  14.923   8.231   9.198
 2643POPC   GL235438  15.130   7.927   9.173
 2643POPC   C1A35439  15.077   8.278   8.763
 2643POPC   D2A35440  15.083   8.477   8.357
 2643POPC   C3A35441  14.980   8.268   7.961
 2643POPC   C4A35442  15.046   8.389   7.494
 2643POPC   C1B35443  15.274   7.808   8.772
 2643POPC   C2B35444  15.113   7.790   8.378
 2643POPC   C3B35445  15.336   7.758   7.993
 2643POPC   C4B35446  15.235   7.955   7.628
 2644POPC   NC335447  32.902   9.167   9.526
 2644POPC   PO435448  33.188   9.847   9.464
 2644POPC   GL135449  33.009   9.844   9.064
 2644POPC   GL235450  32.958   9.468   9.080
 2644POPC   C1A35451  33.133  10.057   8.659
 2644POPC   D2A35452  33.122  10.113   8.190
 2644POPC   C3A35453  32.804   9.811   8.041
 2644POPC   C4A35454  32.798   9.491   7.752
 2644POPC   C1B35455  33.298   9.540   8.736
 2644POPC   C2B35456  33.232   9.628   8.289
 2644POPC   C3B35457  33.283   9.747   7.856
 2644POPC   C4B35458  33.254   9.546   7.474
 2645POPC   NC335459   4.976  20.432   9.921
 2645POPC   PO435460   5.462  20.628   9.510
 2645POPC   GL135461   5.058  20.599   9.239
 2645POPC   GL235462   4.718  20.545   9.057
 2645POPC   C1A35463   5.050  20.837   8.819
 2645POPC   D2A35464   5.162  20.644   8.413
 2645POPC   C3A35465   5.290  20.822   8.053
 2645POPC   C4A35466   5.137  20.847   7.673
 2645POPC   C1B35467   5.003  20.308   8.765
 2645POPC   C2B35468   5.070  20.150   8.316
 2645POPC   C3B35469   5.018  20.377   7.895
 2645POPC   C4B35470   4.937  20.459   7.422
 2646POPC   NC335471  44.926   3.216   9.480
 2646POPC   PO435472  44.306   3.444   9.576
 2646POPC   GL135473  44.560   3.447   9.197
 2646POPC   GL235474  44.395   3.152   9.073
 2646POPC   C1A35475  44.681   3.577   8.779
 2646POPC   D2A35476  44.483   3.655   8.389
 2646POPC   C3A35477  44.640   3.600   7.962
 2646POPC   C4A35478  44.908   3.890   7.741
 2646POPC   C1B35479  44.390   3.190   8.600
 2646POPC   C2B35480  44.118   3.278   8.254
 2646POPC   C3B35481  44.068   3.220   7.820
 2646POPC   C4B35482  44.440   3.214   7.617
 2647POPC   NC335483  21.988   8.804   9.575
 2647POPC   PO435484  22.393   9.294   9.612
 2647POPC   GL135485  22.409   9.007   9.203
 2647POPC   GL235486  22.137   8.783   9.093
 2647POPC   C1A35487  22.498   8.865   8.746
 2647POPC   D2A35488  22.363   8.856   8.297
 2647POPC   C3A35489  22.499   9.165   8.008
 2647POPC   C4A35490  22.479   8.969   7.648
 2647POPC   C1B35491  21.981   8.865   8.676
 2647POPC   C2B35492  21.889   9.073   8.294
 2647POPC   C3B35493  22.035   8.993   7.877
 2647POPC   C4B35494  22.040   9.150   7.423
 2648POPC   NC335495  42.569  23.290   9.357
 2648POPC   PO435496  42.372  23.940   9.602
 2648POPC   GL135497  42.425  23.767   9.201
 2648POPC   GL235498  42.127  23.571   9.287
 2648POPC   C1A35499  42.594  23.676   8.764
 2648POPC   D2A35500  42.714  23.494   8.361
 2648POPC   C3A35501  42.422  23.567   8.010
 2648POPC   C4A35502  42.574  23.732   7.629
 2648POPC   C1B35503  42.090  23.566   8.850
 2648POPC   C2B35504  42.225  23.440   8.488
 2648POPC   C3B35505  42.046  23.241   8.206
 2648POPC   C4B35506  41.910  23.456   7.831
 2649POPC   NC335507   4.415  35.053   9.148
 2649POPC   PO435508   4.044  35.616   9.438
 2649POPC   GL135509   4.119  35.536   9.044
 2649POPC   GL235510   4.455  35.584   9.129
 2649POPC   C1A35511   4.241  35.394   8.622
 2649POPC   D2A35512   4.446  35.124   8.372
 2649POPC   C3A35513   4.278  35.188   7.948
 2649POPC   C4A35514   4.354  35.128   7.492
 2649POPC   C1B35515   4.453  35.822   8.757
 2649POPC   C2B35516   4.586  35.757   8.325
 2649POPC   C3B35517   4.462  35.838   7.928
 2649POPC   C4B35518   4.175  35.594   7.647
 2650POPC   NC335519  37.895  21.285   9.413
 2650POPC   PO435520  37.251  21.521   9.406
 2650POPC   GL135521  37.507  21.339   9.071
 2650POPC   GL235522  37.843  21.517   8.979
 2650POPC   C1A35523  37.497  21.358   8.640
 2650POPC   D2A35524  37.478  21.560   8.291
 2650POPC   C3A35525  37.519  21.286   7.973
 2650POPC   C4A35526  37.605  21.541   7.639
 2650POPC   C1B35527  37.955  21.113   8.760
 2650POPC   C2B35528  37.868  20.980   8.310
 2650POPC   C3B35529  37.914  20.981   7.842
 2650POPC   C4B35530  37.847  21.143   7.428
 2651POPC   NC335531  41.760  32.266   9.846
 2651POPC   PO435532  42.507  32.262   9.567
 2651POPC   GL135533  42.501  32.369   9.168
 2651POPC   GL235534  42.109  32.344   9.144
 2651POPC   C1A35535  42.435  32.184   8.780
 2651POPC   D2A35536  42.082  32.093   8.519
 2651POPC   C3A35537  42.226  32.204   8.116
 2651POPC   C4A35538  42.134  31.988   7.724
 2651POPC   C1B35539  42.161  32.594   8.843
 2651POPC   C2B35540  41.957  32.588   8.517
 2651POPC   C3B35541  41.764  32.624   8.144
 2651POPC   C4B35542  42.016  32.493   7.742
 2652POPC   NC335543   6.381   2.693   9.514
 2652POPC   PO435544   6.708   3.374   9.403
 2652POPC   GL135545   6.564   3.060   9.142
 2652POPC   GL235546   6.757   2.752   9.168
 2652POPC   C1A35547   6.581   2.952   8.726
 2652POPC   D2A35548   6.335   2.811   8.398
 2652POPC   C3A35549   6.526   2.899   7.983
 2652POPC   C4A35550   6.842   2.934   7.646
 2652POPC   C1B35551   6.896   2.527   8.800
 2652POPC   C2B35552   6.706   2.388   8.403
 2652POPC   C3B35553   6.415   2.414   8.098
 2652POPC   C4B35554   6.529   2.469   7.697
 2653POPC   NC335555  32.706  21.510   9.545
 2653POPC   PO435556  33.215  21.074   9.555
 2653POPC   GL135557  33.140  21.376   9.211
 2653POPC   GL235558  32.852  21.437   9.067
 2653POPC   C1A35559  33.247  21.450   8.757
 2653POPC   D2A35560  33.006  21.299   8.414
 2653POPC   C3A35561  32.899  21.607   8.119
 2653POPC   C4A35562  33.092  21.526   7.727
 2653POPC   C1B35563  32.620  21.211   8.792
 2653POPC   C2B35564  32.488  21.280   8.383
 2653POPC   C3B35565  32.665  21.178   7.970
 2653POPC   C4B35566  32.693  21.228   7.510
 2654POPC   NC335567  21.144  33.982   9.484
 2654POPC   PO435568  21.468  33.383   9.645
 2654POPC   GL135569  21.529  33.688   9.295
 2654POPC   GL235570  21.867  33.617   9.247
 2654POPC   C1A35571  21.276  33.769   8.874
 2654POPC   D2A35572  21.175  33.634   8.444
 2654POPC   C3A35573  21.262  33.840   8.042
 2654POPC   C4A35574  21.171  33.619   7.663
 2654POPC   C1B35575  21.799  33.803   8.845
 2654POPC   C2B35576  21.608  33.954   8.483
 2654POPC   C3B35577  21.770  33.830   8.099
 2654POPC   C4B35578  21.667  33.671   7.713
 2655POPC   NC335579  10.015  15.364   9.602
 2655POPC   PO435580   9.488  14.988   9.602
 2655POPC   GL135581   9.649  15.216   9.244
 2655POPC   GL235582   9.397  15.467   9.274
 2655POPC   C1A35583   9.863  15.291   8.834
 2655POPC   D2A35584   9.793  15.440   8.395
 2655POPC   C3A35585   9.919  15.233   8.021
 2655POPC   C4A35586   9.986  15.395   7.623
 2655POPC   C1B35587   9.260  15.238   8.892
 2655POPC   C2B35588   9.498  15.066   8.534
 2655POPC   C3B35589   9.399  15.197   8.108
 2655POPC   C4B35590   9.520  15.184   7.694
 2656POPC   NC335591  41.276  29.098   9.538
 2656POPC   PO435592  41.889  29.546   9.504
 2656POPC   GL135593  41.724  29.264   9.169
 2656POPC   GL235594  41.358  29.270   9.081
 2656POPC   C1A35595  41.725  29.371   8.738
 2656POPC   D2A35596  41.986  29.330   8.432
 2656POPC   C3A35597  41.793  29.388   8.104
 2656POPC   C4A35598  41.691  29.098   7.816
 2656POPC   C1B35599  41.227  29.268   8.706
 2656POPC   C2B35600  41.381  29.115   8.352
 2656POPC   C3B35601  41.290  29.340   8.033
 2656POPC   C4B35602  41.231  29.287   7.614
 2657POPC   NC335603   2.549   2.216   9.855
 2657POPC   PO435604   2.367   1.726   9.378
 2657POPC   GL135605   2.741   1.876   9.154
 2657POPC   GL235606   2.542   2.114   8.995
 2657POPC   C1A35607   3.001   2.113   8.784
 2657POPC   D2A35608   3.064   2.355   8.383
 2657POPC   C3A35609   2.998   2.145   8.027
 2657POPC   C4A35610   3.079   1.719   7.912
 2657POPC   C1B35611   2.601   1.799   8.680
 2657POPC   C2B35612   2.714   1.770   8.276
 2657POPC   C3B35613   2.584   1.889   7.880
 2657POPC   C4B35614   2.692   2.186   7.596
 2658POPC   NC335615  26.703   8.685   9.529
 2658POPC   PO435616  27.313   9.092   9.487
 2658POPC   GL135617  27.176   8.850   9.112
 2658POPC   GL235618  26.855   8.808   9.081
 2658POPC   C1A35619  27.006   8.909   8.641
 2658POPC   D2A35620  26.715   8.799   8.328
 2658POPC   C3A35621  26.852   8.859   7.920
 2658POPC   C4A35622  26.569   8.963   7.580
 2658POPC   C1B35623  26.504   8.727   8.788
 2658POPC   C2B35624  26.244   8.634   8.408
 2658POPC   C3B35625  26.348   8.692   7.968
 2658POPC   C4B35626  26.600   8.466   7.644
 2659POPC   NC335627  19.276  11.911   9.676
 2659POPC   PO435628  19.088  12.542   9.734
 2659POPC   GL135629  19.108  12.293   9.304
 2659POPC   GL235630  18.799  12.393   9.086
 2659POPC   C1A35631  19.049  11.982   8.937
 2659POPC   D2A35632  19.060  12.123   8.510
 2659POPC   C3A35633  19.311  12.025   8.162
 2659POPC   C4A35634  19.264  11.868   7.740
 2659POPC   C1B35635  18.637  12.394   8.625
 2659POPC   C2B35636  18.585  12.596   8.200
 2659POPC   C3B35637  18.664  12.506   7.760
 2659POPC   C4B35638  18.852  12.122   7.540
 2660POPC   NC335639  23.196   1.040   9.451
 2660POPC   PO435640  23.691   1.404   9.543
 2660POPC   GL135641  23.797   1.200   9.196
 2660POPC   GL235642  23.977   0.900   9.282
 2660POPC   C1A35643  23.821   1.363   8.805
 2660POPC   D2A35644  23.873   1.198   8.433
 2660POPC   C3A35645  23.642   1.353   8.094
 2660POPC   C4A35646  23.563   1.193   7.691
 2660POPC   C1B35647  23.797   0.808   8.860
 2660POPC   C2B35648  23.817   0.682   8.457
 2660POPC   C3B35649  23.730   0.844   8.057
 2660POPC   C4B35650  23.976   0.761   7.722
 2661POPC   NC335651   0.712  40.282   9.288
 2661POPC   PO435652   1.336  40.016   9.468
 2661POPC   GL135653   1.264  39.774   9.105
 2661POPC   GL235654   1.010  39.965   9.051
 2661POPC   C1A35655   1.144  39.665   8.685
 2661POPC   D2A35656   0.881  39.701   8.313
 2661POPC   C3A35657   1.138  39.809   7.913
 2661POPC   C4A35658   1.609  39.800   7.794
 2661POPC   C1B35659   0.959  40.134   8.654
 2661POPC   C2B35660   1.251  40.076   8.345
 2661POPC   C3B35661   1.433  40.236   7.985
 2661POPC   C4B35662   1.348  40.302   7.553
 2662POPC   NC335663  25.723  10.091   9.842
 2662POPC   PO435664  25.345  10.675   9.548
 2662POPC   GL135665  25.154  10.681   9.129
 2662POPC   GL235666  24.835  10.822   9.102
 2662POPC   C1A35667  25.271  10.599   8.712
 2662POPC   D2A35668  25.459  10.275   8.456
 2662POPC   C3A35669  25.276  10.301   8.050
 2662POPC   C4A35670  25.543  10.431   7.718
 2662POPC   C1B35671  25.048  11.087   8.808
 2662POPC   C2B35672  25.252  11.017   8.400
 2662POPC   C3B35673  25.105  10.793   8.038
 2662POPC   C4B35674  25.066  10.530   7.639
 2663POPC   NC335675   4.623  26.568   9.668
 2663POPC   PO435676   4.247  27.104   9.600
 2663POPC   GL135677   4.536  26.917   9.279
 2663POPC   GL235678   4.471  26.538   9.184
 2663POPC   C1A35679   4.524  26.930   8.825
 2663POPC   D2A35680   4.424  27.140   8.437
 2663POPC   C3A35681   4.545  26.986   8.051
 2663POPC   C4A35682   4.349  26.940   7.645
 2663POPC   C1B35683   4.577  26.416   8.771
 2663POPC   C2B35684   4.504  26.576   8.375
 2663POPC   C3B35685   4.245  26.567   8.027
 2663POPC   C4B35686   4.272  26.423   7.643
 2664POPC   NC335687  37.326   5.159   9.560
 2664POPC   PO435688  37.974   5.124   9.661
 2664POPC   GL135689  37.739   5.060   9.289
 2664POPC   GL235690  37.580   5.385   9.165
 2664POPC   C1A35691  37.597   4.870   8.920
 2664POPC   D2A35692  37.768   4.657   8.564
 2664POPC   C3A35693  37.643   4.803   8.150
 2664POPC   C4A35694  37.566   4.791   7.703
 2664POPC   C1B35695  37.679   5.518   8.737
 2664POPC   C2B35696  37.749   5.266   8.360
 2664POPC   C3B35697  37.563   5.283   7.954
 2664POPC   C4B35698  37.484   5.533   7.594
 2665POPC   NC335699  36.829  30.556   9.473
 2665POPC   PO435700  37.294  31.116   9.406
 2665POPC   GL135701  36.975  30.879   9.108
 2665POPC   GL235702  37.008  30.469   9.022
 2665POPC   C1A35703  36.794  30.769   8.695
 2665POPC   D2A35704  37.051  30.832   8.350
 2665POPC   C3A35705  36.910  30.765   7.951
 2665POPC   C4A35706  37.075  30.922   7.585
 2665POPC   C1B35707  36.734  30.267   8.736
 2665POPC   C2B35708  36.685  30.427   8.310
 2665POPC   C3B35709  36.634  30.334   7.872
 2665POPC   C4B35710  36.922  30.373   7.515
 2666POPC   NC335711  26.131  29.638   9.497
 2666POPC   PO435712  25.943  28.920   9.619
 2666POPC   GL135713  26.089  29.121   9.231
 2666POPC   GL235714  25.815  29.255   9.003
 2666POPC   C1A35715  26.170  28.982   8.791
 2666POPC   D2A35716  26.041  29.195   8.436
 2666POPC   C3A35717  26.189  29.017   8.073
 2666POPC   C4A35718  26.250  29.171   7.658
 2666POPC   C1B35719  25.672  29.498   8.665
 2666POPC   C2B35720  25.728  29.539   8.208
 2666POPC   C3B35721  25.773  29.315   7.809
 2666POPC   C4B35722  25.900  29.364   7.309
 2667POPC   NC335723  26.538  37.547   9.479
 2667POPC   PO435724  27.113  37.233   9.633
 2667POPC   GL135725  26.945  37.431   9.197
 2667POPC   GL235726  27.159  37.666   9.072
 2667POPC   C1A35727  26.615  37.622   8.848
 2667POPC   D2A35728  26.572  37.793   8.420
 2667POPC   C3A35729  26.644  37.537   8.051
 2667POPC   C4A35730  26.702  37.393   7.631
 2667POPC   C1B35731  27.065  37.738   8.653
 2667POPC   C2B35732  27.111  37.686   8.239
 2667POPC   C3B35733  27.144  37.569   7.848
 2667POPC   C4B35734  26.986  37.770   7.473
 2668POPC   NC335735  37.522  20.367   9.551
 2668POPC   PO435736  38.017  20.839   9.466
 2668POPC   GL135737  37.700  20.849   9.138
 2668POPC   GL235738  37.664  20.504   9.061
 2668POPC   C1A35739  37.493  20.856   8.712
 2668POPC   D2A35740  37.496  20.565   8.329
 2668POPC   C3A35741  37.499  20.710   7.896
 2668POPC   C4A35742  37.667  20.653   7.454
 2668POPC   C1B35743  37.906  20.591   8.660
 2668POPC   C2B35744  38.059  20.469   8.255
 2668POPC   C3B35745  37.883  20.384   7.862
 2668POPC   C4B35746  37.756  20.136   7.480
 2669POPC   NC335747  21.136  44.152   9.556
 2669POPC   PO435748  21.526  44.770   9.628
 2669POPC   GL135749  21.369  44.649   9.241
 2669POPC   GL235750  21.605  44.936   9.145
 2669POPC   C1A35751  21.369  44.446   8.819
 2669POPC   D2A35752  21.637  44.576   8.454
 2669POPC   C3A35753  21.479  44.505   8.024
 2669POPC   C4A35754  21.242  44.284   7.691
 2669POPC   C1B35755  21.373  44.959   8.784
 2669POPC   C2B35756  21.184  44.831   8.429
 2669POPC   C3B35757  21.296  44.994   8.061
 2669POPC   C4B35758  21.116  44.802   7.741
 2670POPC   NC335759  27.781  44.410   9.399
 2670POPC   PO435760  27.389  43.963   9.785
 2670POPC   GL135761  27.488  43.919   9.341
 2670POPC   GL235762  27.835  43.920   9.219
 2670POPC   C1A35763  27.439  43.911   8.883
 2670POPC   D2A35764  27.705  43.833   8.507
 2670POPC   C3A35765  27.553  43.884   8.094
 2670POPC   C4A35766  27.684  43.492   7.911
 2670POPC   C1B35767  27.875  44.201   8.797
 2670POPC   C2B35768  27.790  44.314   8.360
 2670POPC   C3B35769  27.828  44.304   7.925
 2670POPC   C4B35770  27.734  44.032   7.629
 2671POPC   NC335771  29.389  35.774   9.797
 2671POPC   PO435772  28.811  35.913   9.575
 2671POPC   GL135773  29.031  36.098   9.218
 2671POPC   GL235774  29.149  35.790   9.157
 2671POPC   C1A35775  29.012  36.258   8.785
 2671POPC   D2A35776  28.996  36.135   8.354
 2671POPC   C3A35777  29.096  36.269   7.886
 2671POPC   C4A35778  29.028  36.314   7.388
 2671POPC   C1B35779  29.303  35.809   8.731
 2671POPC   C2B35780  29.302  35.623   8.342
 2671POPC   C3B35781  29.396  35.684   7.909
 2671POPC   C4B35782  29.220  35.881   7.574
 2672POPC   NC335783  18.331   2.057   9.304
 2672POPC   PO435784  19.040   1.998   9.520
 2672POPC   GL135785  18.821   1.847   9.193
 2672POPC   GL235786  18.885   2.138   9.018
 2672POPC   C1A35787  18.795   1.682   8.808
 2672POPC   D2A35788  18.928   1.976   8.522
 2672POPC   C3A35789  18.928   1.925   8.094
 2672POPC   C4A35790  19.093   2.107   7.728
 2672POPC   C1B35791  19.254   2.302   8.795
 2672POPC   C2B35792  19.350   2.460   8.457
 2672POPC   C3B35793  19.364   2.330   8.094
 2672POPC   C4B35794  19.388   2.529   7.725
 2673POPC   NC335795  22.810   9.149   9.713
 2673POPC   PO435796  23.257   8.846   9.382
 2673POPC   GL135797  22.939   8.960   9.113
 2673POPC   GL235798  22.818   9.320   9.232
 2673POPC   C1A35799  23.015   8.713   8.723
 2673POPC   D2A35800  23.342   8.517   8.427
 2673POPC   C3A35801  23.239   8.673   8.034
 2673POPC   C4A35802  22.809   8.751   7.962
 2673POPC   C1B35803  22.763   9.310   8.793
 2673POPC   C2B35804  22.849   9.087   8.410
 2673POPC   C3B35805  23.033   9.207   8.037
 2673POPC   C4B35806  22.840   9.417   7.715
 2674POPC   NC335807  27.286   7.880   9.632
 2674POPC   PO435808  26.681   8.214   9.644
 2674POPC   GL135809  26.909   8.308   9.253
 2674POPC   GL235810  26.556   8.376   9.148
 2674POPC   C1A35811  26.943   8.398   8.803
 2674POPC   D2A35812  26.615   8.302   8.514
 2674POPC   C3A35813  26.739   8.330   8.102
 2674POPC   C4A35814  27.046   8.208   7.788
 2674POPC   C1B35815  26.413   7.990   8.967
 2674POPC   C2B35816  26.488   7.811   8.584
 2674POPC   C3B35817  26.556   7.823   8.168
 2674POPC   C4B35818  26.565   7.966   7.766
 2675POPC   NC335819  14.987   1.553   9.676
 2675POPC   PO435820  15.269   2.128   9.550
 2675POPC   GL135821  15.351   1.920   9.160
 2675POPC   GL235822  15.107   1.816   9.018
 2675POPC   C1A35823  15.568   1.832   8.795
 2675POPC   D2A35824  15.277   1.891   8.468
 2675POPC   C3A35825  15.466   1.757   8.112
 2675POPC   C4A35826  15.215   1.718   7.814
 2675POPC   C1B35827  14.885   2.126   8.809
 2675POPC   C2B35828  14.850   2.298   8.391
 2675POPC   C3B35829  14.736   2.401   7.954
 2675POPC   C4B35830  14.830   2.258   7.500
 2676POPC   NC335831  11.595  41.913   9.399
 2676POPC   PO435832  11.063  42.339   9.517
 2676POPC   GL135833  11.311  42.349   9.148
 2676POPC   GL235834  10.956  42.300   9.023
 2676POPC   C1A35835  11.593  42.588   8.852
 2676POPC   D2A35836  11.779  42.635   8.427
 2676POPC   C3A35837  11.585  42.400   8.057
 2676POPC   C4A35838  11.299  42.461   7.716
 2676POPC   C1B35839  11.161  42.389   8.646
 2676POPC   C2B35840  11.119  42.505   8.241
 2676POPC   C3B35841  10.912  42.242   7.967
 2676POPC   C4B35842  10.949  42.128   7.515
 2677POPC   NC335843  10.715   9.250   9.330
 2677POPC   PO435844  10.876   8.616   9.519
 2677POPC   GL135845  10.608   8.780   9.102
 2677POPC   GL235846  10.225   8.778   8.928
 2677POPC   C1A35847  10.547   9.080   8.706
 2677POPC   D2A35848  10.376   8.958   8.284
 2677POPC   C3A35849  10.543   9.218   7.949
 2677POPC   C4A35850  10.908   9.522   7.963
 2677POPC   C1B35851  10.556   8.582   8.625
 2677POPC   C2B35852  10.787   8.522   8.243
 2677POPC   C3B35853  10.654   8.726   7.866
 2677POPC   C4B35854  10.254   8.720   7.630
 2678POPC   NC335855  36.555  22.053   9.422
 2678POPC   PO435856  36.950  22.473   9.349
 2678POPC   GL135857  36.990  22.077   9.098
 2678POPC   GL235858  36.667  22.015   8.934
 2678POPC   C1A35859  37.065  21.830   8.700
 2678POPC   D2A35860  36.721  21.911   8.367
 2678POPC   C3A35861  36.827  22.129   7.986
 2678POPC   C4A35862  37.051  21.984   7.630
 2678POPC   C1B35863  36.880  22.334   8.663
 2678POPC   C2B35864  37.056  22.468   8.278
 2678POPC   C3B35865  36.852  22.657   7.891
 2678POPC   C4B35866  36.813  22.413   7.511
 2679POPC   NC335867   0.601   2.486   9.581
 2679POPC   PO435868   0.332   3.073   9.306
 2679POPC   GL135869   0.454   2.646   9.092
 2679POPC   GL235870   0.788   2.463   9.108
 2679POPC   C1A35871   0.543   2.532   8.646
 2679POPC   D2A35872   0.205   2.673   8.387
 2679POPC   C3A35873   0.222   2.761   7.940
 2679POPC   C4A35874   0.260   2.650   7.449
 2679POPC   C1B35875   1.064   2.335   8.769
 2679POPC   C2B35876   0.983   2.337   8.332
 2679POPC   C3B35877   0.641   2.478   8.083
 2679POPC   C4B35878   0.680   2.733   7.727
 2680POPC   NC335879   8.478   8.343   9.574
 2680POPC   PO435880   7.789   8.291   9.542
 2680POPC   GL135881   8.122   8.363   9.145
 2680POPC   GL235882   8.483   8.408   9.087
 2680POPC   C1A35883   8.066   8.268   8.713
 2680POPC   D2A35884   7.820   8.384   8.372
 2680POPC   C3A35885   8.030   8.285   8.035
 2680POPC   C4A35886   8.192   7.860   7.959
 2680POPC   C1B35887   8.574   8.230   8.727
 2680POPC   C2B35888   8.473   8.112   8.332
 2680POPC   C3B35889   8.517   8.303   7.945
 2680POPC   C4B35890   8.589   8.650   7.727
 2681POPC   NC335891  19.144  15.359   9.691
 2681POPC   PO435892  19.149  14.800   9.350
 2681POPC   GL135893  19.170  15.179   9.117
 2681POPC   GL235894  18.895  15.364   9.205
 2681POPC   C1A35895  19.141  15.218   8.673
 2681POPC   D2A35896  19.008  15.250   8.256
 2681POPC   C3A35897  19.307  15.247   7.903
 2681POPC   C4A35898  19.232  14.947   7.568
 2681POPC   C1B35899  18.563  15.528   8.886
 2681POPC   C2B35900  18.512  15.377   8.449
 2681POPC   C3B35901  18.620  15.483   8.013
 2681POPC   C4B35902  18.823  15.176   7.745
 2682POPC   NC335903  24.122  43.210   9.529
 2682POPC   PO435904  24.708  42.872   9.487
 2682POPC   GL135905  24.572  43.180   9.170
 2682POPC   GL235906  24.243  43.270   9.023
 2682POPC   C1A35907  24.592  43.015   8.752
 2682POPC   D2A35908  24.591  42.879   8.345
 2682POPC   C3A35909  24.527  43.198   8.057
 2682POPC   C4A35910  24.736  43.070   7.697
 2682POPC   C1B35911  24.060  43.545   8.714
 2682POPC   C2B35912  24.193  43.602   8.301
 2682POPC   C3B35913  24.052  43.481   7.911
 2682POPC   C4B35914  24.258  43.258   7.598
 2683POPC   NC335915  25.022   1.832   9.456
 2683POPC   PO435916  25.212   2.480   9.541
 2683POPC   GL135917  25.376   2.127   9.157
 2683POPC   GL235918  25.307   1.774   9.053
 2683POPC   C1A35919  25.552   1.955   8.675
 2683POPC   D2A35920  25.412   1.845   8.227
 2683POPC   C3A35921  25.440   2.139   7.857
 2683POPC   C4A35922  25.186   2.517   7.809
 2683POPC   C1B35923  25.113   1.588   8.694
 2683POPC   C2B35924  25.073   1.438   8.260
 2683POPC   C3B35925  25.068   1.646   7.846
 2683POPC   C4B35926  25.208   1.810   7.422
 2684POPC   NC335927  29.323  44.790   9.590
 2684POPC   PO435928  28.796  44.457   9.576
 2684POPC   GL135929  28.932  44.698   9.225
 2684POPC   GL235930  29.270  44.599   9.119
 2684POPC   C1A35931  28.903  44.686   8.783
 2684POPC   D2A35932  29.245  44.542   8.535
 2684POPC   C3A35933  29.105  44.549   8.147
 2684POPC   C4A35934  29.252  44.480   7.746
 2684POPC   C1B35935  29.333  44.962   8.829
 2684POPC   C2B35936  29.175   0.051   8.420
 2684POPC   C3B35937  29.403  44.963   8.036
 2684POPC   C4B35938  29.605  44.931   7.641
 2685POPC   NC335939  18.066  15.153   9.894
 2685POPC   PO435940  17.514  15.160   9.480
 2685POPC   GL135941  17.501  15.191   9.116
 2685POPC   GL235942  17.456  14.852   9.041
 2685POPC   C1A35943  17.644  15.251   8.718
 2685POPC   D2A35944  17.473  15.117   8.363
 2685POPC   C3A35945  17.643  15.195   7.974
 2685POPC   C4A35946  17.603  14.854   7.774
 2685POPC   C1B35947  17.140  15.117   8.782
 2685POPC   C2B35948  17.006  15.376   8.454
 2685POPC   C3B35949  17.073  15.221   8.066
 2685POPC   C4B35950  17.188  15.422   7.733
 2686POPC   NC335951  12.484  22.340   9.559
 2686POPC   PO435952  13.177  22.258   9.741
 2686POPC   GL135953  12.951  22.145   9.349
 2686POPC   GL235954  12.947  22.438   9.194
 2686POPC   C1A35955  12.905  22.002   8.896
 2686POPC   D2A35956  12.953  21.908   8.438
 2686POPC   C3A35957  12.648  21.852   8.122
 2686POPC   C4A35958  12.715  21.783   7.684
 2686POPC   C1B35959  12.774  22.585   8.831
 2686POPC   C2B35960  12.715  22.359   8.462
 2686POPC   C3B35961  12.846  22.332   8.047
 2686POPC   C4B35962  12.582  22.279   7.675
 2687POPC   NC335963   8.440  26.773   9.742
 2687POPC   PO435964   7.803  27.047   9.561
 2687POPC   GL135965   8.083  27.124   9.200
 2687POPC   GL235966   8.435  26.987   9.219
 2687POPC   C1A35967   8.116  27.185   8.752
 2687POPC   D2A35968   8.242  26.921   8.387
 2687POPC   C3A35969   8.160  26.918   7.945
 2687POPC   C4A35970   7.894  27.165   7.669
 2687POPC   C1B35971   8.355  26.706   8.859
 2687POPC   C2B35972   8.158  26.424   8.517
 2687POPC   C3B35973   8.237  26.340   8.060
 2687POPC   C4B35974   8.406  26.515   7.674
 2688POPC   NC335975  21.827  39.299   9.488
 2688POPC   PO435976  22.401  39.016   9.537
 2688POPC   GL135977  22.177  39.136   9.175
 2688POPC   GL235978  22.188  39.495   9.157
 2688POPC   C1A35979  21.959  39.040   8.796
 2688POPC   D2A35980  22.168  38.954   8.415
 2688POPC   C3A35981  22.155  39.165   8.029
 2688POPC   C4A35982  22.364  38.939   7.708
 2688POPC   C1B35983  21.896  39.533   8.815
 2688POPC   C2B35984  21.755  39.333   8.402
 2688POPC   C3B35985  21.783  39.566   8.021
 2688POPC   C4B35986  21.984  39.525   7.619
 2689POPC   NC335987  11.000  34.584   9.512
 2689POPC   PO435988  10.407  34.875   9.515
 2689POPC   GL135989  10.466  34.657   9.149
 2689POPC   GL235990  10.789  34.740   9.082
 2689POPC   C1A35991  10.343  34.788   8.744
 2689POPC   D2A35992  10.149  34.708   8.356
 2689POPC   C3A35993  10.410  34.752   8.030
 2689POPC   C4A35994  10.340  34.396   7.811
 2689POPC   C1B35995  10.788  34.467   8.725
 2689POPC   C2B35996  10.719  34.393   8.271
 2689POPC   C3B35997  10.833  34.400   7.813
 2689POPC   C4B35998  10.859  34.619   7.388
 2690POPC   NC335999  43.553  40.473   9.486
 2690POPC   PO436000  44.263  40.594   9.553
 2690POPC   GL136001  43.941  40.737   9.282
 2690POPC   GL236002  43.960  40.403   9.157
 2690POPC   C1A36003  43.719  41.018   8.976
 2690POPC   D2A36004  43.825  41.062   8.527
 2690POPC   C3A36005  43.698  41.014   8.100
 2690POPC   C4A36006  44.015  40.987   7.753
 2690POPC   C1B36007  43.937  40.615   8.760
 2690POPC   C2B36008  43.915  40.585   8.327
 2690POPC   C3B36009  43.839  40.532   7.918
 2690POPC   C4B36010  43.490  40.294   7.788
 2691POPC   NC336011  27.864  11.353   9.560
 2691POPC   PO436012  27.337  10.897   9.430
 2691POPC   GL136013  27.586  11.171   9.144
 2691POPC   GL236014  27.472  11.517   9.146
 2691POPC   C1A36015  27.795  11.160   8.708
 2691POPC   D2A36016  27.739  11.425   8.330
 2691POPC   C3A36017  27.799  11.203   7.949
 2691POPC   C4A36018  27.479  10.916   7.762
 2691POPC   C1B36019  27.300  11.302   8.744
 2691POPC   C2B36020  27.117  11.334   8.338
 2691POPC   C3B36021  27.332  11.428   7.955
 2691POPC   C4B36022  27.706  11.711   7.866
 2692POPC   NC336023   5.297   7.344   9.675
 2692POPC   PO436024   4.782   7.719   9.617
 2692POPC   GL136025   4.951   7.564   9.204
 2692POPC   GL236026   5.210   7.318   9.183
 2692POPC   C1A36027   5.105   7.598   8.764
 2692POPC   D2A36028   5.288   7.413   8.362
 2692POPC   C3A36029   5.142   7.607   7.959
 2692POPC   C4A36030   4.709   7.584   7.801
 2692POPC   C1B36031   5.003   7.106   8.834
 2692POPC   C2B36032   4.946   6.985   8.422
 2692POPC   C3B36033   4.936   7.152   8.008
 2692POPC   C4B36034   5.237   6.972   7.732
 2693POPC   NC336035   0.251   5.580   9.483
 2693POPC   PO436036   0.609   6.066   9.704
 2693POPC   GL136037   0.604   5.997   9.271
 2693POPC   GL236038   0.681   5.659   9.230
 2693POPC   C1A36039   0.372   5.942   8.891
 2693POPC   D2A36040   0.122   6.035   8.519
 2693POPC   C3A36041   0.302   5.981   8.118
 2693POPC   C4A36042   0.361   5.796   7.735
 2693POPC   C1B36043   0.836   5.713   8.842
 2693POPC   C2B36044   0.645   5.827   8.474
 2693POPC   C3B36045   0.696   5.633   8.080
 2693POPC   C4B36046   0.623   5.375   7.715
 2694POPC   NC336047  10.010   8.061   9.982
 2694POPC   PO436048  10.064   7.491   9.593
 2694POPC   GL136049  10.099   7.419   9.140
 2694POPC   GL236050   9.748   7.535   9.067
 2694POPC   C1A36051   9.996   7.348   8.675
 2694POPC   D2A36052   9.860   7.350   8.228
 2694POPC   C3A36053   9.692   7.728   8.001
 2694POPC   C4A36054   9.912   7.814   7.612
 2694POPC   C1B36055   9.563   7.140   8.835
 2694POPC   C2B36056   9.384   7.201   8.415
 2694POPC   C3B36057   9.389   7.323   7.968
 2694POPC   C4B36058   9.682   7.361   7.650
 2695POPC   NC336059  25.045  10.318   9.484
 2695POPC   PO436060  24.380  10.414   9.528
 2695POPC   GL136061  24.555  10.394   9.181
 2695POPC   GL236062  24.617  10.052   9.179
 2695POPC   C1A36063  24.757  10.431   8.799
 2695POPC   D2A36064  24.798  10.759   8.489
 2695POPC   C3A36065  24.628  10.630   8.094
 2695POPC   C4A36066  24.759  10.254   7.931
 2695POPC   C1B36067  24.300  10.134   8.834
 2695POPC   C2B36068  24.346  10.382   8.472
 2695POPC   C3B36069  24.266  10.228   8.083
 2695POPC   C4B36070  24.309  10.262   7.672
 2696POPC   NC336071   6.106  15.038   9.740
 2696POPC   PO436072   5.399  15.379   9.525
 2696POPC   GL136073   5.739  15.353   9.219
 2696POPC   GL236074   5.678  15.050   9.039
 2696POPC   C1A36075   5.890  15.436   8.785
 2696POPC   D2A36076   6.088  15.343   8.358
 2696POPC   C3A36077   5.862  15.446   7.984
 2696POPC   C4A36078   5.537  15.230   7.764
 2696POPC   C1B36079   6.047  14.914   8.829
 2696POPC   C2B36080   5.967  14.850   8.400
 2696POPC   C3B36081   5.869  14.912   7.983
 2696POPC   C4B36082   6.052  14.729   7.638
 2697POPC   NC336083   7.489  15.282   9.396
 2697POPC   PO436084   6.959  14.873   9.383
 2697POPC   GL136085   7.238  15.047   9.033
 2697POPC   GL236086   7.636  15.019   8.957
 2697POPC   C1A36087   7.328  15.108   8.586
 2697POPC   D2A36088   7.736  15.067   8.444
 2697POPC   C3A36089   7.721  15.224   8.073
 2697POPC   C4A36090   7.286  15.203   7.945
 2697POPC   C1B36091   7.657  15.458   8.757
 2697POPC   C2B36092   7.404  15.575   8.359
 2697POPC   C3B36093   7.326  15.695   7.913
 2697POPC   C4B36094   7.759  15.704   7.830
 2698POPC   NC336095  39.294  27.292   9.422
 2698POPC   PO436096  39.124  28.016   9.504
 2698POPC   GL136097  39.329  27.773   9.180
 2698POPC   GL236098  39.020  27.628   9.110
 2698POPC   C1A36099  39.337  27.600   8.720
 2698POPC   D2A36100  39.197  27.605   8.258
 2698POPC   C3A36101  39.419  27.431   7.876
 2698POPC   C4A36102  39.335  27.509   7.440
 2698POPC   C1B36103  38.823  27.503   8.692
 2698POPC   C2B36104  38.651  27.536   8.252
 2698POPC   C3B36105  38.893  27.373   7.894
 2698POPC   C4B36106  38.996  27.737   7.728
 2699POPC   NC336107  19.601  34.271   9.473
 2699POPC   PO436108  20.172  34.525   9.796
 2699POPC   GL136109  19.970  34.654   9.384
 2699POPC   GL236110  20.203  34.734   9.138
 2699POPC   C1A36111  19.709  34.708   8.988
 2699POPC   D2A36112  19.663  34.793   8.531
 2699POPC   C3A36113  19.563  34.528   8.182
 2699POPC   C4A36114  19.629  34.629   7.749
 2699POPC   C1B36115  20.110  34.455   8.780
 2699POPC   C2B36116  19.931  34.225   8.406
 2699POPC   C3B36117  20.014  34.321   7.972
 2699POPC   C4B36118  20.140  34.648   7.679
 2700POPC   NC336119  15.052  18.454   9.297
 2700POPC   PO436120  15.183  17.778   9.469
 2700POPC   GL136121  15.168  17.994   9.103
 2700POPC   GL236122  15.446  18.046   8.884
 2700POPC   C1A36123  14.941  18.076   8.735
 2700POPC   D2A36124  15.120  18.037   8.322
 2700POPC   C3A36125  14.959  18.206   7.914
 2700POPC   C4A36126  14.980  18.612   7.680
 2700POPC   C1B36127  15.305  18.414   8.605
 2700POPC   C2B36128  15.204  18.567   8.200
 2700POPC   C3B36129  15.459  18.622   7.848
 2700POPC   C4B36130  15.454  18.624   7.391
 2701POPC   NC336131  16.845  12.995   9.585
 2701POPC   PO436132  16.525  12.380   9.476
 2701POPC   GL136133  16.469  12.775   9.189
 2701POPC   GL236134  16.774  13.010   9.092
 2701POPC   C1A36135  16.368  12.934   8.765
 2701POPC   D2A36136  16.650  13.005   8.417
 2701POPC   C3A36137  16.476  12.894   8.017
 2701POPC   C4A36138  16.702  12.967   7.651
 2701POPC   C1B36139  16.846  12.687   8.793
 2701POPC   C2B36140  16.991  12.521   8.402
 2701POPC   C3B36141  16.962  12.723   8.036
 2701POPC   C4B36142  17.192  12.783   7.684
 2702POPC   NC336143  29.860  37.354   9.648
 2702POPC   PO436144  30.249  37.815   9.603
 2702POPC   GL136145  30.110  37.584   9.215
 2702POPC   GL236146  29.749  37.451   9.175
 2702POPC   C1A36147  29.928  37.772   8.812
 2702POPC   D2A36148  30.011  37.920   8.384
 2702POPC   C3A36149  29.633  37.988   8.136
 2702POPC   C4A36150  29.844  37.732   7.852
 2702POPC   C1B36151  29.512  37.448   8.807
 2702POPC   C2B36152  29.622  37.554   8.404
 2702POPC   C3B36153  29.477  37.423   8.002
 2702POPC   C4B36154  29.826  37.230   7.765
 2703POPC   NC336155  15.866  21.486   9.586
 2703POPC   PO436156  16.303  20.953   9.508
 2703POPC   GL136157  16.053  21.236   9.177
 2703POPC   GL236158  16.062  21.590   9.131
 2703POPC   C1A36159  15.967  21.225   8.748
 2703POPC   D2A36160  16.215  21.331   8.396
 2703POPC   C3A36161  16.043  21.131   8.053
 2703POPC   C4A36162  15.804  21.164   7.665
 2703POPC   C1B36163  16.141  21.707   8.738
 2703POPC   C2B36164  15.898  21.718   8.352
 2703POPC   C3B36165  15.952  21.613   7.911
 2703POPC   C4B36166  15.755  21.727   7.510
 2704POPC   NC336167  19.606  43.110   9.586
 2704POPC   PO436168  20.297  43.113   9.596
 2704POPC   GL136169  19.934  43.061   9.209
 2704POPC   GL236170  19.791  43.401   9.178
 2704POPC   C1A36171  19.713  43.057   8.761
 2704POPC   D2A36172  19.678  42.778   8.428
 2704POPC   C3A36173  19.572  42.971   8.066
 2704POPC   C4A36174  19.632  43.147   7.704
 2704POPC   C1B36175  19.808  43.562   8.749
 2704POPC   C2B36176  19.796  43.400   8.312
 2704POPC   C3B36177  19.767  43.583   7.889
 2704POPC   C4B36178  20.072  43.362   7.566
 2705POPC   NC336179  22.588   0.799   9.486
 2705POPC   PO436180  22.984   1.425   9.581
 2705POPC   GL136181  22.862   1.455   9.186
 2705POPC   GL236182  22.775   1.114   9.098
 2705POPC   C1A36183  22.857   1.497   8.743
 2705POPC   D2A36184  22.735   1.192   8.405
 2705POPC   C3A36185  23.050   1.087   8.100
 2705POPC   C4A36186  23.060   1.335   7.745
 2705POPC   C1B36187  22.511   0.883   8.804
 2705POPC   C2B36188  22.378   0.838   8.371
 2705POPC   C3B36189  22.606   0.828   8.017
 2705POPC   C4B36190  22.833   0.882   7.662
 2706POPC   NC336191   9.513   0.953   9.462
 2706POPC   PO436192  10.031   1.458   9.555
 2706POPC   GL136193   9.798   1.328   9.210
 2706POPC   GL236194   9.982   1.048   9.175
 2706POPC   C1A36195   9.793   1.413   8.771
 2706POPC   D2A36196   9.791   1.632   8.388
 2706POPC   C3A36197   9.837   1.443   7.990
 2706POPC   C4A36198   9.841   1.006   7.887
 2706POPC   C1B36199   9.772   0.907   8.785
 2706POPC   C2B36200   9.729   0.782   8.366
 2706POPC   C3B36201   9.406   0.823   8.068
 2706POPC   C4B36202   9.327   1.104   7.747
 2707POPC   NC336203  14.304  21.080   9.485
 2707POPC   PO436204  14.743  21.568   9.413
 2707POPC   GL136205  14.539  21.414   9.049
 2707POPC   GL236206  14.216  21.475   9.148
 2707POPC   C1A36207  14.289  21.612   8.680
 2707POPC   D2A36208  14.132  21.567   8.273
 2707POPC   C3A36209  14.464  21.344   8.060
 2707POPC   C4A36210  14.520  21.364   7.634
 2707POPC   C1B36211  14.139  21.130   8.853
 2707POPC   C2B36212  14.186  21.056   8.444
 2707POPC   C3B36213  14.025  21.106   8.062
 2707POPC   C4B36214  14.042  21.444   7.762
 2708POPC   NC336215  27.586  29.995   9.712
 2708POPC   PO436216  27.526  29.594   9.146
 2708POPC   GL136217  27.277  29.765   8.834
 2708POPC   GL236218  27.362  30.076   9.030
 2708POPC   C1A36219  27.389  29.669   8.430
 2708POPC   D2A36220  27.751  29.790   8.247
 2708POPC   C3A36221  27.646  29.877   7.850
 2708POPC   C4A36222  27.867  29.865   7.492
 2708POPC   C1B36223  27.534  30.145   8.599
 2708POPC   C2B36224  27.483  30.246   8.162
 2708POPC   C3B36225  27.510  30.343   7.728
 2708POPC   C4B36226  27.410  30.082   7.355
 2709POPC   NC336227  43.738  32.089   9.525
 2709POPC   PO436228  43.567  32.752   9.291
 2709POPC   GL136229  43.841  32.373   9.114
 2709POPC   GL236230  43.713  32.022   9.008
 2709POPC   C1A36231  44.097  32.265   8.757
 2709POPC   D2A36232  44.241  32.316   8.339
 2709POPC   C3A36233  44.205  32.045   8.011
 2709POPC   C4A36234  44.240  32.279   7.666
 2709POPC   C1B36235  43.511  32.389   8.746
 2709POPC   C2B36236  43.430  32.484   8.333
 2709POPC   C3B36237  43.772  32.366   8.073
 2709POPC   C4B36238  43.728  32.235   7.663
 2710POPC   NC336239  31.352  36.935   9.496
 2710POPC   PO436240  31.876  36.658   9.684
 2710POPC   GL136241  31.754  36.841   9.211
 2710POPC   GL236242  31.396  36.814   9.023
 2710POPC   C1A36243  31.739  37.069   8.792
 2710POPC   D2A36244  31.446  36.938   8.452
 2710POPC   C3A36245  31.663  36.737   8.075
 2710POPC   C4A36246  31.753  37.102   7.886
 2710POPC   C1B36247  31.089  37.087   8.809
 2710POPC   C2B36248  30.887  36.944   8.410
 2710POPC   C3B36249  31.138  36.765   8.069
 2710POPC   C4B36250  31.313  36.897   7.711
 2711POPC   NC336251  34.855  28.233   9.503
 2711POPC   PO436252  34.291  28.456   9.585
 2711POPC   GL136253  34.445  28.498   9.166
 2711POPC   GL236254  34.151  28.349   8.980
 2711POPC   C1A36255  34.627  28.376   8.759
 2711POPC   D2A36256  34.410  28.305   8.363
 2711POPC   C3A36257  34.653  28.370   7.990
 2711POPC   C4A36258  34.586  28.637   7.610
 2711POPC   C1B36259  34.256  28.737   8.740
 2711POPC   C2B36260  34.368  28.842   8.331
 2711POPC   C3B36261  34.218  28.649   7.965
 2711POPC   C4B36262  34.233  28.299   7.685
 2712POPC   NC336263  10.724  27.112   9.550
 2712POPC   PO436264  10.402  26.510   9.721
 2712POPC   GL136265  10.554  26.659   9.327
 2712POPC   GL236266  10.603  26.386   9.135
 2712POPC   C1A36267  10.550  26.838   8.894
 2712POPC   D2A36268  10.836  26.895   8.538
 2712POPC   C3A36269  10.645  26.905   8.146
 2712POPC   C4A36270  10.578  27.085   7.755
 2712POPC   C1B36271  10.492  26.371   8.662
 2712POPC   C2B36272  10.358  26.485   8.229
 2712POPC   C3B36273  10.389  26.604   7.782
 2712POPC   C4B36274  10.628  26.388   7.466
 2713POPC   NC336275  42.620  11.462   9.619
 2713POPC   PO436276  42.191  11.933   9.651
 2713POPC   GL136277  42.143  11.540   9.335
 2713POPC   GL236278  42.431  11.516   9.153
 2713POPC   C1A36279  42.011  11.355   8.889
 2713POPC   D2A36280  41.986  11.446   8.411
 2713POPC   C3A36281  42.125  11.285   7.995
 2713POPC   C4A36282  42.277  11.212   7.555
 2713POPC   C1B36283  42.497  11.372   8.732
 2713POPC   C2B36284  42.513  11.245   8.312
 2713POPC   C3B36285  42.650  11.181   7.894
 2713POPC   C4B36286  42.784  11.102   7.466
 2714POPC   NC336287  34.299  32.483   9.539
 2714POPC   PO436288  34.760  31.951   9.521
 2714POPC   GL136289  34.697  32.283   9.226
 2714POPC   GL236290  34.448  32.087   9.124
 2714POPC   C1A36291  34.563  32.510   8.820
 2714POPC   D2A36292  34.633  32.680   8.383
 2714POPC   C3A36293  34.558  32.478   7.960
 2714POPC   C4A36294  34.354  32.509   7.512
 2714POPC   C1B36295  34.704  32.011   8.774
 2714POPC   C2B36296  34.676  32.160   8.365
 2714POPC   C3B36297  34.565  31.971   7.985
 2714POPC   C4B36298  34.638  32.109   7.556
 2715POPC   NC336299  20.767  38.048   9.635
 2715POPC   PO436300  20.289  37.576   9.514
 2715POPC   GL136301  20.519  37.600   9.131
 2715POPC   GL236302  20.808  37.811   9.163
 2715POPC   C1A36303  20.687  37.613   8.697
 2715POPC   D2A36304  20.855  37.676   8.273
 2715POPC   C3A36305  20.569  37.798   7.906
 2715POPC   C4A36306  20.252  37.621   7.595
 2715POPC   C1B36307  21.061  37.946   8.790
 2715POPC   C2B36308  20.936  38.147   8.404
 2715POPC   C3B36309  21.005  38.086   7.965
 2715POPC   C4B36310  20.964  37.829   7.597
 2716POPC   NC336311   3.065  32.818   9.466
 2716POPC   PO436312   3.014  33.481   9.374
 2716POPC   GL136313   2.874  33.123   9.110
 2716POPC   GL236314   2.727  32.719   9.111
 2716POPC   C1A36315   2.833  33.075   8.697
 2716POPC   D2A36316   3.009  33.191   8.359
 2716POPC   C3A36317   2.775  33.350   8.011
 2716POPC   C4A36318   2.800  33.368   7.549
 2716POPC   C1B36319   2.987  32.595   8.805
 2716POPC   C2B36320   2.943  32.660   8.372
 2716POPC   C3B36321   3.037  32.856   8.000
 2716POPC   C4B36322   2.721  32.907   7.733
 2717POPC   NC336323   5.555  20.130   9.480
 2717POPC   PO436324   5.766  19.487   9.541
 2717POPC   GL136325   5.976  19.653   9.167
 2717POPC   GL236326   6.031  19.983   9.068
 2717POPC   C1A36327   6.015  19.537   8.745
 2717POPC   D2A36328   5.753  19.622   8.391
 2717POPC   C3A36329   5.895  19.746   7.988
 2717POPC   C4A36330   5.616  19.912   7.700
 2717POPC   C1B36331   5.762  20.022   8.736
 2717POPC   C2B36332   5.943  20.142   8.343
 2717POPC   C3B36333   6.234  20.161   8.010
 2717POPC   C4B36334   6.068  20.125   7.584
 2718POPC   NC336335  14.567  35.507   9.572
 2718POPC   PO436336  14.444  34.987   9.769
 2718POPC   GL136337  14.351  35.171   9.268
 2718POPC   GL236338  14.174  35.472   9.215
 2718POPC   C1A36339  14.313  35.204   8.789
 2718POPC   D2A36340  14.314  34.985   8.350
 2718POPC   C3A36341  14.317  35.273   7.973
 2718POPC   C4A36342  14.675  35.516   7.761
 2718POPC   C1B36343  13.916  35.531   8.852
 2718POPC   C2B36344  13.878  35.733   8.479
 2718POPC   C3B36345  13.963  35.636   8.100
 2718POPC   C4B36346  14.088  35.767   7.708
 2719POPC   NC336347  24.479   0.378   9.654
 2719POPC   PO436348  24.497   1.002   9.618
 2719POPC   GL136349  24.446   0.696   9.231
 2719POPC   GL236350  24.552   0.311   9.168
 2719POPC   C1A36351  24.279   0.542   8.824
 2719POPC   D2A36352  24.516   0.451   8.456
 2719POPC   C3A36353  24.292   0.552   8.094
 2719POPC   C4A36354  24.457   0.517   7.702
 2719POPC   C1B36355  24.832   0.222   8.815
 2719POPC   C2B36356  24.941   0.037   8.383
 2719POPC   C3B36357  24.787   0.246   8.013
 2719POPC   C4B36358  24.730   0.083   7.598
 2720POPC   NC336359  19.465   7.019   9.541
 2720POPC   PO436360  20.011   6.565   9.476
 2720POPC   GL136361  19.788   6.467   9.089
 2720POPC   GL236362  19.506   6.616   9.230
 2720POPC   C1A36363  19.770   6.457   8.621
 2720POPC   D2A36364  19.866   6.566   8.178
 2720POPC   C3A36365  19.789   6.271   7.902
 2720POPC   C4A36366  19.410   6.064   7.744
 2720POPC   C1B36367  19.389   6.748   8.814
 2720POPC   C2B36368  19.278   6.486   8.454
 2720POPC   C3B36369  19.277   6.519   7.994
 2720POPC   C4B36370  19.605   6.699   7.704
 2721POPC   NC336371  24.901   6.823   9.468
 2721POPC   PO436372  24.233   6.616   9.606
 2721POPC   GL136373  24.526   6.601   9.211
 2721POPC   GL236374  24.582   6.289   9.087
 2721POPC   C1A36375  24.530   6.756   8.753
 2721POPC   D2A36376  24.255   6.908   8.417
 2721POPC   C3A36377  24.276   6.697   8.027
 2721POPC   C4A36378  24.114   6.324   7.858
 2721POPC   C1B36379  24.669   6.284   8.667
 2721POPC   C2B36380  24.671   6.514   8.284
 2721POPC   C3B36381  24.623   6.281   7.882
 2721POPC   C4B36382  24.879   6.297   7.489
 2722POPC   NC336383  15.502   9.508   9.514
 2722POPC   PO436384  15.155  10.135   9.494
 2722POPC   GL136385  15.233   9.927   9.121
 2722POPC   GL236386  15.206   9.576   9.088
 2722POPC   C1A36387  15.180   9.894   8.683
 2722POPC   D2A36388  15.406  10.049   8.391
 2722POPC   C3A36389  15.259  10.020   8.040
 2722POPC   C4A36390  15.348  10.068   7.622
 2722POPC   C1B36391  15.030   9.392   8.709
 2722POPC   C2B36392  15.172   9.532   8.294
 2722POPC   C3B36393  15.368   9.527   7.878
 2722POPC   C4B36394  15.230   9.603   7.452
 2723POPC   NC336395  34.097   6.900   9.345
 2723POPC   PO436396  34.782   6.722   9.416
 2723POPC   GL136397  34.595   6.572   9.064
 2723POPC   GL236398  34.295   6.437   9.192
 2723POPC   C1A36399  34.617   6.281   8.714
 2723POPC   D2A36400  34.802   6.357   8.293
 2723POPC   C3A36401  34.699   6.727   8.091
 2723POPC   C4A36402  34.685   6.572   7.682
 2723POPC   C1B36403  34.184   6.593   8.758
 2723POPC   C2B36404  34.309   6.491   8.348
 2723POPC   C3B36405  34.280   6.343   7.950
 2723POPC   C4B36406  34.192   6.552   7.557
 2724POPC   NC336407  10.871  26.338   9.628
 2724POPC   PO436408  10.231  26.011   9.597
 2724POPC   GL136409  10.354  25.918   9.178
 2724POPC   GL236410  10.698  25.914   9.296
 2724POPC   C1A36411  10.315  25.887   8.683
 2724POPC   D2A36412  10.597  25.995   8.309
 2724POPC   C3A36413  10.482  26.087   7.889
 2724POPC   C4A36414  10.107  26.184   7.694
 2724POPC   C1B36415  10.773  25.989   8.842
 2724POPC   C2B36416  10.833  25.623   8.544
 2724POPC   C3B36417  10.903  25.532   8.126
 2724POPC   C4B36418  10.955  25.866   7.813
 2725POPC   NC336419   6.389  13.481   9.601
 2725POPC   PO436420   5.847  13.879   9.503
 2725POPC   GL136421   6.046  13.677   9.201
 2725POPC   GL236422   6.319  13.896   9.297
 2725POPC   C1A36423   5.948  13.590   8.764
 2725POPC   D2A36424   5.749  13.544   8.378
 2725POPC   C3A36425   5.993  13.499   8.017
 2725POPC   C4A36426   6.037  13.463   7.598
 2725POPC   C1B36427   6.374  13.844   8.856
 2725POPC   C2B36428   6.192  13.987   8.466
 2725POPC   C3B36429   5.977  13.995   8.066
 2725POPC   C4B36430   5.704  13.855   7.724
 2726POPC   NC336431  35.984  31.713   9.654
 2726POPC   PO436432  36.239  32.351   9.616
 2726POPC   GL136433  36.290  32.524   9.150
 2726POPC   GL236434  36.606  32.524   8.960
 2726POPC   C1A36435  36.067  32.556   8.752
 2726POPC   D2A36436  35.812  32.185   8.611
 2726POPC   C3A36437  35.882  32.157   8.167
 2726POPC   C4A36438  35.946  32.375   7.755
 2726POPC   C1B36439  36.359  32.114   8.834
 2726POPC   C2B36440  36.223  31.889   8.442
 2726POPC   C3B36441  36.346  31.981   8.012
 2726POPC   C4B36442  36.452  32.383   7.816
 2727POPC   NC336443   7.398  28.952   9.497
 2727POPC   PO436444   7.766  29.555   9.431
 2727POPC   GL136445   7.476  29.345   9.158
 2727POPC   GL236446   7.244  29.571   8.988
 2727POPC   C1A36447   7.457  29.044   8.826
 2727POPC   D2A36448   7.750  28.995   8.487
 2727POPC   C3A36449   7.621  28.931   8.054
 2727POPC   C4A36450   7.968  28.959   7.756
 2727POPC   C1B36451   7.394  29.541   8.621
 2727POPC   C2B36452   7.325  29.250   8.355
 2727POPC   C3B36453   7.385  29.388   7.971
 2727POPC   C4B36454   7.533  29.194   7.602
 2728POPC   NC336455  42.790  27.689   9.345
 2728POPC   PO436456  42.308  27.664   9.794
 2728POPC   GL136457  42.334  27.459   9.330
 2728POPC   GL236458  42.340  27.202   9.151
 2728POPC   C1A36459  42.403  27.585   8.821
 2728POPC   D2A36460  42.316  27.783   8.409
 2728POPC   C3A36461  42.604  27.762   8.061
 2728POPC   C4A36462  42.497  27.620   7.666
 2728POPC   C1B36463  42.382  27.069   8.766
 2728POPC   C2B36464  42.498  27.289   8.402
 2728POPC   C3B36465  42.252  27.347   8.070
 2728POPC   C4B36466  42.146  27.195   7.690
 2729POPC   NC336467   5.124  34.930   9.371
 2729POPC   PO436468   5.074  34.283   9.404
 2729POPC   GL136469   5.218  34.504   9.050
 2729POPC   GL236470   5.473  34.759   9.038
 2729POPC   C1A36471   5.014  34.482   8.690
 2729POPC   D2A36472   5.141  34.395   8.322
 2729POPC   C3A36473   4.924  34.447   8.023
 2729POPC   C4A36474   4.815  34.551   7.632
 2729POPC   C1B36475   5.355  34.845   8.612
 2729POPC   C2B36476   4.971  34.891   8.337
 2729POPC   C3B36477   5.065  34.923   7.901
 2729POPC   C4B36478   5.480  34.991   7.802
 2730POPC   NC336479  14.088  14.460   9.524
 2730POPC   PO436480  13.493  14.651   9.686
 2730POPC   GL136481  13.675  14.400   9.260
 2730POPC   GL236482  13.910  14.129   9.157
 2730POPC   C1A36483  13.725  14.420   8.798
 2730POPC   D2A36484  13.579  14.248   8.419
 2730POPC   C3A36485  13.677  14.564   8.125
 2730POPC   C4A36486  13.570  14.545   7.709
 2730POPC   C1B36487  14.032  13.984   8.736
 2730POPC   C2B36488  14.050  14.028   8.291
 2730POPC   C3B36489  13.769  14.103   7.941
 2730POPC   C4B36490  13.821  14.165   7.498
 2731POPC   NC336491  25.386  36.243   9.585
 2731POPC   PO436492  24.742  36.486   9.324
 2731POPC   GL136493  25.195  36.420   9.126
 2731POPC   GL236494  25.394  36.082   9.115
 2731POPC   C1A36495  25.400  36.353   8.708
 2731POPC   D2A36496  25.470  36.068   8.388
 2731POPC   C3A36497  25.231  36.140   8.030
 2731POPC   C4A36498  25.341  36.322   7.664
 2731POPC   C1B36499  25.213  35.843   8.814
 2731POPC   C2B36500  25.352  35.567   8.500
 2731POPC   C3B36501  25.428  35.653   8.098
 2731POPC   C4B36502  25.054  35.691   7.830
 2732POPC   NC336503  44.069   7.326   9.434
 2732POPC   PO436504  43.422   7.660   9.503
 2732POPC   GL136505  43.695   7.544   9.153
 2732POPC   GL236506  43.717   7.187   9.099
 2732POPC   C1A36507  43.896   7.486   8.733
 2732POPC   D2A36508  43.655   7.522   8.354
 2732POPC   C3A36509  43.753   7.672   7.936
 2732POPC   C4A36510  44.027   7.706   7.585
 2732POPC   C1B36511  43.803   6.935   8.757
 2732POPC   C2B36512  43.946   6.990   8.336
 2732POPC   C3B36513  44.007   6.867   7.906
 2732POPC   C4B36514  43.984   7.196   7.603
 2733POPC   NC336515   3.088   7.787   9.461
 2733POPC   PO436516   2.730   8.307   9.682
 2733POPC   GL136517   2.896   8.295   9.272
 2733POPC   GL236518   2.721   8.013   9.175
 2733POPC   C1A36519   2.951   8.410   8.836
 2733POPC   D2A36520   2.748   8.371   8.439
 2733POPC   C3A36521   2.894   8.149   8.083
 2733POPC   C4A36522   2.789   8.191   7.638
 2733POPC   C1B36523   2.516   7.829   8.854
 2733POPC   C2B36524   2.495   7.896   8.457
 2733POPC   C3B36525   2.284   7.732   8.121
 2733POPC   C4B36526   2.391   7.869   7.694
 2734POPC   NC336527  22.768   3.622   9.581
 2734POPC   PO436528  23.399   3.622   9.664
 2734POPC   GL136529  23.219   3.557   9.257
 2734POPC   GL236530  22.945   3.779   9.103
 2734POPC   C1A36531  23.198   3.385   8.849
 2734POPC   D2A36532  23.027   3.649   8.518
 2734POPC   C3A36533  23.065   3.526   8.087
 2734POPC   C4A36534  23.317   3.675   7.750
 2734POPC   C1B36535  22.677   3.475   8.854
 2734POPC   C2B36536  22.520   3.490   8.421
 2734POPC   C3B36537  22.542   3.400   7.965
 2734POPC   C4B36538  22.831   3.297   7.662
 2735POPC   NC336539  27.193  23.661   9.422
 2735POPC   PO436540  27.861  23.565   9.662
 2735POPC   GL136541  27.776  23.624   9.126
 2735POPC   GL236542  27.427  23.633   8.936
 2735POPC   C1A36543  27.898  23.682   8.695
 2735POPC   D2A36544  28.111  23.630   8.313
 2735POPC   C3A36545  27.830  23.524   7.976
 2735POPC   C4A36546  27.666  23.895   7.752
 2735POPC   C1B36547  27.435  23.912   8.649
 2735POPC   C2B36548  27.516  23.829   8.260
 2735POPC   C3B36549  27.229  23.715   7.958
 2735POPC   C4B36550  27.165  23.843   7.535
 2736POPC   NC336551  13.953   9.234   9.585
 2736POPC   PO436552  13.670   9.901   9.613
 2736POPC   GL136553  13.656   9.832   9.157
 2736POPC   GL236554  13.593  10.152   9.000
 2736POPC   C1A36555  13.821   9.526   8.855
 2736POPC   D2A36556  14.107   9.470   8.508
 2736POPC   C3A36557  14.046   9.698   8.144
 2736POPC   C4A36558  13.743   9.618   7.808
 2736POPC   C1B36559  13.802   9.998   8.653
 2736POPC   C2B36560  13.588   9.771   8.348
 2736POPC   C3B36561  13.458   9.990   8.013
 2736POPC   C4B36562  13.330  10.158   7.649
 2737POPC   NC336563  14.283  44.769   9.956
 2737POPC   PO436564  14.729  44.838   9.478
 2737POPC   GL136565  14.405  44.855   9.118
 2737POPC   GL236566  14.099  44.997   9.246
 2737POPC   C1A36567  14.244  44.707   8.729
 2737POPC   D2A36568  14.435  44.697   8.321
 2737POPC   C3A36569  14.392  44.545   7.904
 2737POPC   C4A36570  14.252  44.751   7.491
 2737POPC   C1B36571  13.902   0.107   8.827
 2737POPC   C2B36572  14.045   0.048   8.379
 2737POPC   C3B36573  14.256   0.031   7.977
 2737POPC   C4B36574  14.082   0.220   7.641
 2738POPC   NC336575  43.678  18.049   9.518
 2738POPC   PO436576  43.898  18.730   9.487
 2738POPC   GL136577  43.869  18.390   9.148
 2738POPC   GL236578  43.576  18.198   9.059
 2738POPC   C1A36579  43.968  18.339   8.702
 2738POPC   D2A36580  44.166  18.567   8.374
 2738POPC   C3A36581  44.099  18.420   7.960
 2738POPC   C4A36582  43.834  18.263   7.612
 2738POPC   C1B36583  43.461  18.306   8.679
 2738POPC   C2B36584  43.602  18.449   8.273
 2738POPC   C3B36585  43.763  18.065   8.095
 2738POPC   C4B36586  44.192  17.882   8.172
 2739POPC   NC336587  27.007  40.427   9.600
 2739POPC   PO436588  26.925  39.770   9.559
 2739POPC   GL136589  26.942  40.074   9.211
 2739POPC   GL236590  27.226  40.319   9.141
 2739POPC   C1A36591  27.023  39.945   8.785
 2739POPC   D2A36592  26.974  39.642   8.432
 2739POPC   C3A36593  26.802  39.797   8.065
 2739POPC   C4A36594  27.041  39.870   7.725
 2739POPC   C1B36595  27.358  40.352   8.683
 2739POPC   C2B36596  27.127  40.140   8.309
 2739POPC   C3B36597  26.756  40.297   8.070
 2739POPC   C4B36598  26.740  40.274   7.659
 2740POPC   NC336599  25.946   2.207   9.531
 2740POPC   PO436600  26.165   1.609   9.701
 2740POPC   GL136601  26.155   1.780   9.282
 2740POPC   GL236602  25.816   1.839   9.178
 2740POPC   C1A36603  26.295   1.960   8.867
 2740POPC   D2A36604  26.050   2.029   8.495
 2740POPC   C3A36605  26.278   2.163   8.106
 2740POPC   C4A36606  26.041   2.243   7.718
 2740POPC   C1B36607  25.968   1.577   8.837
 2740POPC   C2B36608  26.016   1.531   8.406
 2740POPC   C3B36609  25.944   1.777   8.063
 2740POPC   C4B36610  26.089   1.732   7.679
 2741POPC   NC336611  25.553  26.586   9.770
 2741POPC   PO436612  26.176  26.627   9.492
 2741POPC   GL136613  26.254  26.902   9.153
 2741POPC   GL236614  26.262  26.599   8.977
 2741POPC   C1A36615  26.120  27.042   8.744
 2741POPC   D2A36616  25.951  26.927   8.298
 2741POPC   C3A36617  26.044  27.121   7.890
 2741POPC   C4A36618  26.193  26.873   7.531
 2741POPC   C1B36619  25.982  26.545   8.637
 2741POPC   C2B36620  25.748  26.451   8.252
 2741POPC   C3B36621  25.839  26.584   7.818
 2741POPC   C4B36622  26.011  26.419   7.407
 2742POPC   NC336623  11.433  28.889   9.479
 2742POPC   PO436624  11.043  29.345   9.538
 2742POPC   GL136625  11.170  29.258   9.140
 2742POPC   GL236626  11.505  29.312   9.128
 2742POPC   C1A36627  11.229  29.273   8.707
 2742POPC   D2A36628  11.117  29.061   8.380
 2742POPC   C3A36629  11.230  29.287   8.078
 2742POPC   C4A36630  11.191  29.120   7.663
 2742POPC   C1B36631  11.601  28.950   8.844
 2742POPC   C2B36632  11.625  29.019   8.399
 2742POPC   C3B36633  11.486  28.861   7.993
 2742POPC   C4B36634  11.635  28.852   7.539
 2743POPC   NC336635  12.527  24.560   9.514
 2743POPC   PO436636  13.136  24.414   9.463
 2743POPC   GL136637  12.839  24.416   9.131
 2743POPC   GL236638  12.804  24.769   9.122
 2743POPC   C1A36639  12.649  24.326   8.717
 2743POPC   D2A36640  12.657  24.154   8.293
 2743POPC   C3A36641  12.740  24.399   7.955
 2743POPC   C4A36642  13.128  24.347   7.768
 2743POPC   C1B36643  13.103  24.669   8.779
 2743POPC   C2B36644  13.054  24.516   8.355
 2743POPC   C3B36645  13.179  24.785   7.989
 2743POPC   C4B36646  12.925  24.810   7.627
 2744POPC   NC336647  17.581  20.202   9.532
 2744POPC   PO436648  17.383  19.731   9.972
 2744POPC   GL136649  17.269  19.779   9.441
 2744POPC   GL236650  17.565  19.742   9.200
 2744POPC   C1A36651  17.172  19.798   8.918
 2744POPC   D2A36652  17.478  19.976   8.562
 2744POPC   C3A36653  17.425  19.915   8.096
 2744POPC   C4A36654  17.174  19.601   7.897
 2744POPC   C1B36655  17.731  19.588   8.800
 2744POPC   C2B36656  17.862  19.657   8.359
 2744POPC   C3B36657  17.809  19.593   7.911
 2744POPC   C4B36658  17.993  19.529   7.495
 2745POPC   NC336659  13.949  36.151   9.381
 2745POPC   PO436660  13.334  36.257   9.535
 2745POPC   GL136661  13.478  36.293   9.136
 2745POPC   GL236662  13.153  36.469   9.006
 2745POPC   C1A36663  13.764  36.139   8.766
 2745POPC   D2A36664  13.966  36.228   8.356
 2745POPC   C3A36665  13.791  36.120   7.953
 2745POPC   C4A36666  13.794  36.149   7.491
 2745POPC   C1B36667  13.254  36.204   8.699
 2745POPC   C2B36668  13.444  36.046   8.343
 2745POPC   C3B36669  13.291  36.280   8.003
 2745POPC   C4B36670  13.316  36.144   7.616
 2746POPC   NC336671  38.480  16.473   9.291
 2746POPC   PO436672  38.522  15.883   9.716
 2746POPC   GL136673  38.503  15.785   9.207
 2746POPC   GL236674  38.510  16.082   8.953
 2746POPC   C1A36675  38.425  15.628   8.740
 2746POPC   D2A36676  38.466  15.870   8.314
 2746POPC   C3A36677  38.443  15.651   7.905
 2746POPC   C4A36678  38.723  15.741   7.519
 2746POPC   C1B36679  38.446  16.386   8.607
 2746POPC   C2B36680  38.722  16.408   8.239
 2746POPC   C3B36681  38.670  16.128   7.891
 2746POPC   C4B36682  38.342  16.076   7.595
 2747POPC   NC336683  40.870  39.356   9.419
 2747POPC   PO436684  40.279  39.681   9.378
 2747POPC   GL136685  40.565  39.463   9.032
 2747POPC   GL236686  40.545  39.061   8.969
 2747POPC   C1A36687  40.845  39.322   8.676
 2747POPC   D2A36688  40.656  38.984   8.470
 2747POPC   C3A36689  40.446  39.141   8.136
 2747POPC   C4A36690  40.675  39.313   7.816
 2747POPC   C1B36691  40.910  38.778   8.866
 2747POPC   C2B36692  41.178  38.953   8.548
 2747POPC   C3B36693  41.048  39.064   8.151
 2747POPC   C4B36694  40.969  38.908   7.763
 2748POPC   NC336695  14.584  11.644   9.488
 2748POPC   PO436696  14.654  10.965   9.621
 2748POPC   GL136697  14.513  11.179   9.249
 2748POPC   GL236698  14.782  11.348   9.128
 2748POPC   C1A36699  14.359  11.315   8.822
 2748POPC   D2A36700  14.467  11.519   8.409
 2748POPC   C3A36701  14.250  11.444   8.005
 2748POPC   C4A36702  14.094  11.495   7.588
 2748POPC   C1B36703  14.859  11.350   8.705
 2748POPC   C2B36704  14.972  11.585   8.342
 2748POPC   C3B36705  14.771  11.488   7.987
 2748POPC   C4B36706  14.603  11.245   7.686
 2749POPC   NC336707  26.935  24.475   9.685
 2749POPC   PO436708  26.298  24.228   9.607
 2749POPC   GL136709  26.662  24.239   9.247
 2749POPC   GL236710  26.899  24.520   9.149
 2749POPC   C1A36711  26.753  24.154   8.784
 2749POPC   D2A36712  26.998  24.044   8.406
 2749POPC   C3A36713  26.969  24.344   8.079
 2749POPC   C4A36714  26.969  24.320   7.630
 2749POPC   C1B36715  26.794  24.649   8.714
 2749POPC   C2B36716  26.547  24.872   8.415
 2749POPC   C3B36717  26.655  24.988   8.011
 2749POPC   C4B36718  26.916  24.836   7.695
 2750POPC   NC336719  39.850  33.314   9.436
 2750POPC   PO436720  40.075  32.738   9.503
 2750POPC   GL136721  40.172  32.992   9.128
 2750POPC   GL236722  40.131  33.356   9.040
 2750POPC   C1A36723  40.035  32.895   8.734
 2750POPC   D2A36724  39.818  33.159   8.453
 2750POPC   C3A36725  39.973  33.156   8.038
 2750POPC   C4A36726  39.791  33.048   7.637
 2750POPC   C1B36727  40.393  33.278   8.759
 2750POPC   C2B36728  40.359  33.103   8.395
 2750POPC   C3B36729  40.515  33.387   8.163
 2750POPC   C4B36730  40.249  33.575   7.877
 2751POPC   NC336731   7.502  32.795   9.375
 2751POPC   PO436732   7.574  33.479   9.437
 2751POPC   GL136733   7.329  33.243   9.144
 2751POPC   GL236734   7.172  32.903   9.005
 2751POPC   C1A36735   7.387  33.281   8.721
 2751POPC   D2A36736   7.725  33.205   8.442
 2751POPC   C3A36737   7.527  33.118   8.098
 2751POPC   C4A36738   7.327  33.325   7.744
 2751POPC   C1B36739   7.394  32.784   8.606
 2751POPC   C2B36740   7.704  32.616   8.318
 2751POPC   C3B36741   7.665  32.630   7.882
 2751POPC   C4B36742   7.215  32.808   7.850
 2752POPC   NC336743  13.581  41.811   9.501
 2752POPC   PO436744  13.369  41.195   9.769
 2752POPC   GL136745  13.410  41.372   9.303
 2752POPC   GL236746  13.290  41.681   9.102
 2752POPC   C1A36747  13.705  41.509   8.925
 2752POPC   D2A36748  13.541  41.472   8.542
 2752POPC   C3A36749  13.672  41.498   8.136
 2752POPC   C4A36750  13.524  41.630   7.745
 2752POPC   C1B36751  13.144  41.815   8.695
 2752POPC   C2B36752  13.311  41.851   8.272
 2752POPC   C3B36753  13.281  42.069   7.881
 2752POPC   C4B36754  13.374  42.070   7.434
 2753POPC   NC336755  27.637  19.917   9.456
 2753POPC   PO436756  27.144  19.516   9.738
 2753POPC   GL136757  27.401  19.459   9.253
 2753POPC   GL236758  27.742  19.578   9.104
 2753POPC   C1A36759  27.422  19.726   8.787
 2753POPC   D2A36760  27.781  19.837   8.552
 2753POPC   C3A36761  27.692  19.815   8.128
 2753POPC   C4A36762  27.465  19.970   7.773
 2753POPC   C1B36763  27.858  19.343   8.741
 2753POPC   C2B36764  27.950  19.401   8.334
 2753POPC   C3B36765  27.874  19.371   7.929
 2753POPC   C4B36766  27.951  19.722   7.686
 2754POPC   NC336767   9.453  44.966   9.444
 2754POPC   PO436768   8.927  44.565   9.573
 2754POPC   GL136769   8.799  44.502   9.186
 2754POPC   GL236770   8.739  44.834   9.120
 2754POPC   C1A36771   8.913  44.512   8.763
 2754POPC   D2A36772   8.920  44.683   8.390
 2754POPC   C3A36773   9.025  44.445   8.045
 2754POPC   C4A36774   8.985  44.670   7.682
 2754POPC   C1B36775   9.088  44.994   8.872
 2754POPC   C2B36776   9.357  44.922   8.524
 2754POPC   C3B36777   9.268  44.911   8.093
 2754POPC   C4B36778   9.367   0.017   7.680
 2755POPC   NC336779  21.645  16.769   9.326
 2755POPC   PO436780  20.960  17.061   9.479
 2755POPC   GL136781  21.134  16.805   9.138
 2755POPC   GL236782  21.346  17.044   8.999
 2755POPC   C1A36783  21.270  16.464   8.825
 2755POPC   D2A36784  21.448  16.443   8.403
 2755POPC   C3A36785  21.204  16.638   8.062
 2755POPC   C4A36786  20.956  16.392   7.742
 2755POPC   C1B36787  21.599  16.859   8.674
 2755POPC   C2B36788  21.797  16.815   8.258
 2755POPC   C3B36789  21.613  16.914   7.867
 2755POPC   C4B36790  21.258  17.139   7.794
 2756POPC   NC336791  23.283  28.329   9.533
 2756POPC   PO436792  22.770  28.738   9.392
 2756POPC   GL136793  22.892  28.356   9.170
 2756POPC   GL236794  23.158  28.095   9.120
 2756POPC   C1A36795  22.971  28.443   8.751
 2756POPC   D2A36796  22.671  28.583   8.451
 2756POPC   C3A36797  22.763  28.641   8.033
 2756POPC   C4A36798  22.705  28.445   7.632
 2756POPC   C1B36799  23.326  28.073   8.738
 2756POPC   C2B36800  23.280  28.288   8.376
 2756POPC   C3B36801  23.095  28.240   7.978
 2756POPC   C4B36802  23.298  27.875   7.765
 2757POPC   NC336803  11.160  31.863   9.494
 2757POPC   PO436804  11.435  32.470   9.515
 2757POPC   GL136805  11.375  32.237   9.180
 2757POPC   GL236806  11.257  32.574   9.046
 2757POPC   C1A36807  11.323  31.900   8.873
 2757POPC   D2A36808  11.103  31.959   8.508
 2757POPC   C3A36809  11.265  31.959   8.139
 2757POPC   C4A36810  11.002  32.094   7.821
 2757POPC   C1B36811  11.360  32.377   8.681
 2757POPC   C2B36812  11.262  32.457   8.290
 2757POPC   C3B36813  11.446  32.393   7.909
 2757POPC   C4B36814  11.680  32.405   7.561
 2758POPC   NC336815   4.021  29.916   9.676
 2758POPC   PO436816   3.538  30.074   9.263
 2758POPC   GL136817   3.628  30.060   8.898
 2758POPC   GL236818   3.745  29.724   8.914
 2758POPC   C1A36819   3.617  30.028   8.495
 2758POPC   D2A36820   3.342  29.919   8.191
 2758POPC   C3A36821   3.560  30.011   7.847
 2758POPC   C4A36822   3.749  30.373   7.733
 2758POPC   C1B36823   3.279  29.723   8.735
 2758POPC   C2B36824   3.091  29.507   8.362
 2758POPC   C3B36825   3.180  29.517   7.914
 2758POPC   C4B36826   3.422  29.614   7.568
 2759POPC   NC336827  21.082  15.822   9.341
 2759POPC   PO436828  21.558  16.300   9.378
 2759POPC   GL136829  21.517  15.969   9.089
 2759POPC   GL236830  21.586  15.647   9.251
 2759POPC   C1A36831  21.313  15.900   8.679
 2759POPC   D2A36832  21.062  16.106   8.330
 2759POPC   C3A36833  21.325  16.129   7.973
 2759POPC   C4A36834  21.228  16.027   7.504
 2759POPC   C1B36835  21.723  15.500   8.868
 2759POPC   C2B36836  21.631  15.524   8.467
 2759POPC   C3B36837  21.384  15.677   8.195
 2759POPC   C4B36838  21.478  15.698   7.771
 2760POPC   NC336839  32.366  29.455   9.513
 2760POPC   PO436840  32.027  28.879   9.595
 2760POPC   GL136841  32.165  29.081   9.187
 2760POPC   GL236842  32.426  29.324   9.037
 2760POPC   C1A36843  32.169  28.948   8.767
 2760POPC   D2A36844  32.225  29.150   8.362
 2760POPC   C3A36845  32.404  29.082   7.956
 2760POPC   C4A36846  32.181  29.204   7.567
 2760POPC   C1B36847  32.388  29.525   8.680
 2760POPC   C2B36848  32.186  29.707   8.330
 2760POPC   C3B36849  32.332  29.609   7.923
 2760POPC   C4B36850  32.645  29.459   7.653
 2761POPC   NC336851  24.310  39.945   9.433
 2761POPC   PO436852  24.918  39.749   9.629
 2761POPC   GL136853  24.793  39.801   9.195
 2761POPC   GL236854  24.772  40.157   9.084
 2761POPC   C1A36855  24.532  39.777   8.795
 2761POPC   D2A36856  24.511  40.069   8.436
 2761POPC   C3A36857  24.261  40.025   8.101
 2761POPC   C4A36858  24.242  40.012   7.686
 2761POPC   C1B36859  24.928  40.066   8.710
 2761POPC   C2B36860  25.028  40.081   8.285
 2761POPC   C3B36861  24.757  39.918   7.966
 2761POPC   C4B36862  24.741  39.989   7.535
 2762POPC   NC336863   0.170  25.602   9.853
 2762POPC   PO436864   0.417  25.054   9.471
 2762POPC   GL136865   0.403  25.234   9.098
 2762POPC   GL236866   0.677  25.391   8.972
 2762POPC   C1A36867   0.359  25.065   8.713
 2762POPC   D2A36868   0.671  25.016   8.410
 2762POPC   C3A36869   0.536  25.180   8.015
 2762POPC   C4A36870   0.543  24.916   7.653
 2762POPC   C1B36871   0.954  25.634   8.747
 2762POPC   C2B36872   0.897  25.502   8.313
 2762POPC   C3B36873   0.909  25.549   7.872
 2762POPC   C4B36874   0.635  25.409   7.542
 2763POPC   NC336875  27.666   8.763   9.359
 2763POPC   PO436876  27.905   9.323   9.694
 2763POPC   GL136877  28.007   9.140   9.299
 2763POPC   GL236878  27.692   9.263   9.170
 2763POPC   C1A36879  27.980   9.027   8.835
 2763POPC   D2A36880  27.807   9.310   8.499
 2763POPC   C3A36881  27.918   9.144   8.127
 2763POPC   C4A36882  27.763   9.082   7.746
 2763POPC   C1B36883  27.463   9.110   8.807
 2763POPC   C2B36884  27.410   9.030   8.360
 2763POPC   C3B36885  27.305   9.134   7.987
 2763POPC   C4B36886  27.253   9.098   7.593
 2764POPC   NC336887  38.652  13.003   9.544
 2764POPC   PO436888  38.207  12.487   9.503
 2764POPC   GL136889  38.499  12.637   9.213
 2764POPC   GL236890  38.795  12.486   9.335
 2764POPC   C1A36891  38.594  12.894   8.812
 2764POPC   D2A36892  38.448  12.773   8.384
 2764POPC   C3A36893  38.629  12.988   8.031
 2764POPC   C4A36894  38.513  12.816   7.644
 2764POPC   C1B36895  38.868  12.479   8.914
 2764POPC   C2B36896  38.903  12.602   8.501
 2764POPC   C3B36897  38.984  12.615   8.049
 2764POPC   C4B36898  38.879  12.439   7.639
 2765POPC   NC336899  10.774  13.907   9.568
 2765POPC   PO436900  11.408  13.589   9.530
 2765POPC   GL136901  11.312  13.673   9.163
 2765POPC   GL236902  10.977  13.589   9.137
 2765POPC   C1A36903  11.318  13.388   8.813
 2765POPC   D2A36904  11.265  13.227   8.433
 2765POPC   C3A36905  11.313  13.399   8.052
 2765POPC   C4A36906  11.340  13.786   7.819
 2765POPC   C1B36907  11.038  13.799   8.737
 2765POPC   C2B36908  10.968  13.660   8.321
 2765POPC   C3B36909  10.854  13.602   7.876
 2765POPC   C4B36910  10.944  13.838   7.471
 2766POPC   NC336911  41.381  32.508   9.407
 2766POPC   PO436912  41.342  32.017   9.923
 2766POPC   GL136913  41.359  31.981   9.355
 2766POPC   GL236914  41.144  32.098   9.119
 2766POPC   C1A36915  41.605  32.169   8.886
 2766POPC   D2A36916  41.527  32.107   8.445
 2766POPC   C3A36917  41.724  32.149   8.024
 2766POPC   C4A36918  41.510  32.439   7.732
 2766POPC   C1B36919  41.315  31.770   8.837
 2766POPC   C2B36920  41.349  31.611   8.421
 2766POPC   C3B36921  41.345  31.824   8.051
 2766POPC   C4B36922  41.427  31.935   7.626
 2767POPC   NC336923  24.995  43.259   9.489
 2767POPC   PO436924  25.464  42.824   9.473
 2767POPC   GL136925  25.333  43.042   9.134
 2767POPC   GL236926  25.012  42.921   9.083
 2767POPC   C1A36927  25.364  42.924   8.703
 2767POPC   D2A36928  25.132  42.872   8.317
 2767POPC   C3A36929  25.380  43.037   7.977
 2767POPC   C4A36930  25.394  43.001   7.547
 2767POPC   C1B36931  24.994  43.307   8.840
 2767POPC   C2B36932  24.885  43.324   8.424
 2767POPC   C3B36933  25.011  43.507   8.080
 2767POPC   C4B36934  25.115  43.408   7.702
 2768POPC   NC336935  27.739   8.055   9.210
 2768POPC   PO436936  27.620   7.511   9.606
 2768POPC   GL136937  27.686   7.373   9.181
 2768POPC   GL236938  27.915   7.585   9.047
 2768POPC   C1A36939  27.573   7.320   8.714
 2768POPC   D2A36940  27.513   7.437   8.250
 2768POPC   C3A36941  27.743   7.223   7.887
 2768POPC   C4A36942  27.907   6.932   7.550
 2768POPC   C1B36943  27.853   7.743   8.604
 2768POPC   C2B36944  27.642   7.938   8.245
 2768POPC   C3B36945  27.393   7.810   7.884
 2768POPC   C4B36946  27.580   7.851   7.465
 2769POPC   NC336947   9.350  29.064   9.679
 2769POPC   PO436948   8.643  29.078   9.482
 2769POPC   GL136949   8.673  29.312   9.110
 2769POPC   GL236950   8.589  29.699   9.129
 2769POPC   C1A36951   8.791  29.100   8.727
 2769POPC   D2A36952   8.742  28.880   8.342
 2769POPC   C3A36953   8.995  29.077   8.021
 2769POPC   C4A36954   9.312  28.777   7.862
 2769POPC   C1B36955   8.774  29.615   8.725
 2769POPC   C2B36956   8.570  29.396   8.359
 2769POPC   C3B36957   8.669  29.490   7.951
 2769POPC   C4B36958   9.082  29.556   7.792
 2770POPC   NC336959  35.720   3.366   9.639
 2770POPC   PO436960  35.290   3.074   9.276
 2770POPC   GL136961  35.441   3.517   9.205
 2770POPC   GL236962  35.138   3.737   9.142
 2770POPC   C1A36963  35.569   3.771   8.834
 2770POPC   D2A36964  35.296   3.938   8.500
 2770POPC   C3A36965  35.415   3.721   8.122
 2770POPC   C4A36966  35.300   3.712   7.721
 2770POPC   C1B36967  35.125   3.519   8.768
 2770POPC   C2B36968  35.428   3.369   8.492
 2770POPC   C3B36969  35.322   3.225   8.084
 2770POPC   C4B36970  35.093   3.242   7.717
 2771POPC   NC336971  37.584   1.549   9.373
 2771POPC   PO436972  37.996   2.136   9.426
 2771POPC   GL136973  37.727   1.973   9.144
 2771POPC   GL236974  37.943   1.687   9.036
 2771POPC   C1A36975  37.545   1.957   8.730
 2771POPC   D2A36976  37.568   2.121   8.316
 2771POPC   C3A36977  37.484   2.090   7.885
 2771POPC   C4A36978  37.781   2.248   7.616
 2771POPC   C1B36979  37.729   1.487   8.662
 2771POPC   C2B36980  37.622   1.592   8.221
 2771POPC   C3B36981  37.639   1.603   7.773
 2771POPC   C4B36982  37.684   1.802   7.365
 2772POPC   NC336983   2.439  40.993   9.620
 2772POPC   PO436984   1.827  40.735   9.521
 2772POPC   GL136985   1.838  40.921   9.130
 2772POPC   GL236986   2.164  41.085   9.163
 2772POPC   C1A36987   1.884  40.710   8.748
 2772POPC   D2A36988   1.675  40.420   8.445
 2772POPC   C3A36989   1.813  40.571   8.027
 2772POPC   C4A36990   1.724  40.617   7.602
 2772POPC   C1B36991   2.131  41.159   8.708
 2772POPC   C2B36992   1.908  40.995   8.313
 2772POPC   C3B36993   1.849  41.073   7.854
 2772POPC   C4B36994   2.169  40.880   7.701
 2773POPC   NC336995  22.544  43.664   9.543
 2773POPC   PO436996  23.171  44.040   9.566
 2773POPC   GL136997  22.858  43.953   9.242
 2773POPC   GL236998  22.915  43.587   9.174
 2773POPC   C1A36999  22.798  44.037   8.808
 2773POPC   D2A37000  23.067  43.874   8.468
 2773POPC   C3A37001  22.984  44.074   8.075
 2773POPC   C4A37002  22.649  43.994   7.804
 2773POPC   C1B37003  23.107  43.447   8.784
 2773POPC   C2B37004  22.917  43.349   8.374
 2773POPC   C3B37005  22.981  43.544   7.967
 2773POPC   C4B37006  23.023  43.754   7.561
 2774POPC   NC337007   1.853   4.606   9.850
 2774POPC   PO437008   2.184   4.982   9.373
 2774POPC   GL137009   2.059   5.132   9.034
 2774POPC   GL237010   2.050   5.479   9.160
 2774POPC   C1A37011   2.080   4.913   8.654
 2774POPC   D2A37012   2.145   5.151   8.301
 2774POPC   C3A37013   1.886   5.105   7.982
 2774POPC   C4A37014   2.034   5.093   7.574
 2774POPC   C1B37015   1.855   5.584   8.775
 2774POPC   C2B37016   2.025   5.643   8.365
 2774POPC   C3B37017   2.015   5.580   7.890
 2774POPC   C4B37018   1.879   5.563   7.434
 2775POPC   NC337019  38.507  34.931   9.332
 2775POPC   PO437020  38.723  34.398   9.727
 2775POPC   GL137021  38.804  34.518   9.266
 2775POPC   GL237022  38.963  34.827   9.137
 2775POPC   C1A37023  38.635  34.582   8.811
 2775POPC   D2A37024  38.435  34.893   8.511
 2775POPC   C3A37025  38.406  34.722   8.086
 2775POPC   C4A37026  38.363  34.440   7.701
 2775POPC   C1B37027  39.085  34.757   8.706
 2775POPC   C2B37028  38.868  34.683   8.309
 2775POPC   C3B37029  38.866  34.581   7.855
 2775POPC   C4B37030  38.779  34.517   7.402
 2776POPC   NC337031  32.121  32.516   9.432
 2776POPC   PO437032  32.345  31.886   9.508
 2776POPC   GL137033  32.172  32.046   9.099
 2776POPC   GL237034  32.221  32.401   8.962
 2776POPC   C1A37035  32.260  32.023   8.641
 2776POPC   D2A37036  32.479  32.190   8.274
 2776POPC   C3A37037  32.138  32.315   8.001
 2776POPC   C4A37038  31.756  32.123   7.881
 2776POPC   C1B37039  32.525  32.535   8.668
 2776POPC   C2B37040  32.520  32.728   8.264
 2776POPC   C3B37041  32.590  32.519   7.874
 2776POPC   C4B37042  32.700  32.603   7.409
 2777POPC   NC337043  33.558  33.113   9.307
 2777POPC   PO437044  33.924  33.634   9.544
 2777POPC   GL137045  33.693  33.649   9.143
 2777POPC   GL237046  33.797  33.957   8.926
 2777POPC   C1A37047  33.465  33.573   8.769
 2777POPC   D2A37048  33.681  33.620   8.402
 2777POPC   C3A37049  33.547  33.478   8.031
 2777POPC   C4A37050  33.165  33.389   7.873
 2777POPC   C1B37051  34.070  33.657   8.771
 2777POPC   C2B37052  34.165  33.556   8.359
 2777POPC   C3B37053  34.020  33.710   7.989
 2777POPC   C4B37054  33.994  34.092   7.801
 2778POPC   NC337055  11.551  15.333   9.440
 2778POPC   PO437056  11.199  14.861   9.258
 2778POPC   GL137057  11.432  15.127   8.984
 2778POPC   GL237058  11.201  15.388   9.006
 2778POPC   C1A37059  11.519  15.129   8.540
 2778POPC   D2A37060  11.513  14.889   8.189
 2778POPC   C3A37061  11.479  15.204   7.902
 2778POPC   C4A37062  11.452  15.505   7.570
 2778POPC   C1B37063  11.022  15.178   8.616
 2778POPC   C2B37064  11.042  15.073   8.161
 2778POPC   C3B37065  11.014  15.265   7.753
 2778POPC   C4B37066  10.989  15.528   7.375
 2779POPC   NC337067  14.844  27.718   9.822
 2779POPC   PO437068  14.853  28.312   9.449
 2779POPC   GL137069  14.898  27.935   9.157
 2779POPC   GL237070  14.829  27.568   9.237
 2779POPC   C1A37071  14.803  27.824   8.718
 2779POPC   D2A37072  15.040  27.597   8.415
 2779POPC   C3A37073  15.181  27.747   8.023
 2779POPC   C4A37074  15.304  27.907   7.652
 2779POPC   C1B37075  14.959  27.315   8.837
 2779POPC   C2B37076  14.882  27.098   8.426
 2779POPC   C3B37077  14.992  27.284   8.013
 2779POPC   C4B37078  15.282  27.391   7.655
 2780POPC   NC337079  41.960  44.304   9.288
 2780POPC   PO437080  42.129  43.746   9.627
 2780POPC   GL137081  42.385  43.743   9.237
 2780POPC   GL237082  42.337  44.007   9.074
 2780POPC   C1A37083  42.551  43.576   8.851
 2780POPC   D2A37084  42.395  43.749   8.499
 2780POPC   C3A37085  42.413  43.729   8.058
 2780POPC   C4A37086  42.703  44.012   7.829
 2780POPC   C1B37087  42.259  44.200   8.716
 2780POPC   C2B37088  42.169  44.144   8.285
 2780POPC   C3B37089  42.064  44.361   7.956
 2780POPC   C4B37090  42.288  44.230   7.629
 2781POPC   NC337091  11.580  11.583   9.450
 2781POPC   PO437092  11.143  11.057   9.530
 2781POPC   GL137093  11.347  11.224   9.158
 2781POPC   GL237094  11.732  11.165   9.135
 2781POPC   C1A37095  11.213  11.472   8.728
 2781POPC   D2A37096  10.893  11.458   8.406
 2781POPC   C3A37097  10.923  11.344   7.947
 2781POPC   C4A37098  11.167  11.455   7.524
 2781POPC   C1B37099  11.498  11.062   8.729
 2781POPC   C2B37100  11.345  11.160   8.341
 2781POPC   C3B37101  11.418  11.271   7.935
 2781POPC   C4B37102  11.467  11.038   7.547
 2782POPC   NC337103  18.704   1.540   9.573
 2782POPC   PO437104  19.251   1.123   9.464
 2782POPC   GL137105  19.147   1.425   9.190
 2782POPC   GL237106  18.825   1.285   9.129
 2782POPC   C1A37107  19.159   1.337   8.749
 2782POPC   D2A37108  18.872   1.318   8.409
 2782POPC   C3A37109  19.123   1.418   8.076
 2782POPC   C4A37110  19.078   1.605   7.694
 2782POPC   C1B37111  18.812   0.940   8.801
 2782POPC   C2B37112  18.601   0.847   8.413
 2782POPC   C3B37113  18.576   1.003   7.995
 2782POPC   C4B37114  18.925   1.126   7.698
 2783POPC   NC337115  38.336  27.004   9.439
 2783POPC   PO437116  37.818  26.611   9.624
 2783POPC   GL137117  37.825  26.773   9.193
 2783POPC   GL237118  37.841  27.105   9.158
 2783POPC   C1A37119  37.623  26.802   8.761
 2783POPC   D2A37120  37.719  26.604   8.319
 2783POPC   C3A37121  37.483  26.632   7.910
 2783POPC   C4A37122  37.714  26.760   7.492
 2783POPC   C1B37123  37.906  27.263   8.755
 2783POPC   C2B37124  37.801  27.114   8.344
 2783POPC   C3B37125  37.825  27.012   7.940
 2783POPC   C4B37126  38.028  27.160   7.601
 2784POPC   NC337127   7.004  32.221   9.641
 2784POPC   PO437128   7.563  31.854   9.528
 2784POPC   GL137129   7.448  32.128   9.238
 2784POPC   GL237130   7.791  32.110   9.092
 2784POPC   C1A37131   7.370  32.320   8.844
 2784POPC   D2A37132   7.094  32.357   8.494
 2784POPC   C3A37133   7.305  32.357   8.106
 2784POPC   C4A37134   7.169  32.333   7.662
 2784POPC   C1B37135   7.532  31.830   8.814
 2784POPC   C2B37136   7.324  31.860   8.429
 2784POPC   C3B37137   7.415  31.720   8.049
 2784POPC   C4B37138   7.498  31.929   7.696
 2785POPC   NC337139  39.465   0.699   9.295
 2785POPC   PO437140  39.212   0.069   9.313
 2785POPC   GL137141  39.329   0.286   8.948
 2785POPC   GL237142  39.592   0.525   8.854
 2785POPC   C1A37143  38.996   0.392   8.705
 2785POPC   D2A37144  38.830   0.235   8.372
 2785POPC   C3A37145  39.073   0.233   8.004
 2785POPC   C4A37146  39.417   0.221   7.741
 2785POPC   C1B37147  39.292   0.792   8.682
 2785POPC   C2B37148  39.237   0.657   8.288
 2785POPC   C3B37149  39.477   0.702   7.931
 2785POPC   C4B37150  39.403   0.730   7.495
 2786POPC   NC337151  14.566  38.687   9.533
 2786POPC   PO437152  14.096  38.288   9.699
 2786POPC   GL137153  14.196  38.431   9.226
 2786POPC   GL237154  13.882  38.625   9.192
 2786POPC   C1A37155  14.305  38.255   8.750
 2786POPC   D2A37156  14.678  38.347   8.412
 2786POPC   C3A37157  14.632  38.209   7.961
 2786POPC   C4A37158  14.221  38.037   7.845
 2786POPC   C1B37159  13.978  38.656   8.767
 2786POPC   C2B37160  14.301  38.712   8.483
 2786POPC   C3B37161  14.346  38.617   8.069
 2786POPC   C4B37162  14.192  38.514   7.671
 2787POPC   NC337163  12.220  19.450   9.539
 2787POPC   PO437164  12.136  20.105   9.563
 2787POPC   GL137165  12.182  20.079   9.161
 2787POPC   GL237166  12.156  19.681   9.094
 2787POPC   C1A37167  11.957  20.022   8.789
 2787POPC   D2A37168  12.075  19.748   8.502
 2787POPC   C3A37169  12.202  19.871   8.111
 2787POPC   C4A37170  11.996  19.955   7.708
 2787POPC   C1B37171  12.369  19.396   8.758
 2787POPC   C2B37172  12.268  19.336   8.286
 2787POPC   C3B37173  12.240  19.408   7.818
 2787POPC   C4B37174  12.241  19.137   7.421
 2788POPC   NC337175  39.617  14.235   9.370
 2788POPC   PO437176  40.289  14.513   9.432
 2788POPC   GL137177  39.931  14.615   9.183
 2788POPC   GL237178  40.014  14.273   9.059
 2788POPC   C1A37179  39.889  14.643   8.737
 2788POPC   D2A37180  40.204  14.508   8.459
 2788POPC   C3A37181  40.139  14.669   8.020
 2788POPC   C4A37182  40.139  14.518   7.593
 2788POPC   C1B37183  39.792  14.152   8.684
 2788POPC   C2B37184  39.745  14.360   8.273
 2788POPC   C3B37185  39.867  14.191   7.869
 2788POPC   C4B37186  39.763  14.200   7.407
 2789POPC   NC337187  43.320  38.597   9.423
 2789POPC   PO437188  42.679  38.617   9.532
 2789POPC   GL137189  42.868  38.543   9.144
 2789POPC   GL237190  42.764  38.191   9.181
 2789POPC   C1A37191  43.157  38.494   8.766
 2789POPC   D2A37192  43.270  38.275   8.372
 2789POPC   C3A37193  43.373  38.457   7.936
 2789POPC   C4A37194  43.210  38.294   7.528
 2789POPC   C1B37195  42.704  38.252   8.756
 2789POPC   C2B37196  42.728  38.484   8.398
 2789POPC   C3B37197  42.888  38.352   8.015
 2789POPC   C4B37198  42.715  38.336   7.620
 2790POPC   NC337199  26.042  15.663   9.404
 2790POPC   PO437200  25.911  16.231   9.469
 2790POPC   GL137201  26.105  16.218   9.074
 2790POPC   GL237202  25.932  15.921   9.000
 2790POPC   C1A37203  26.199  16.127   8.627
 2790POPC   D2A37204  26.118  15.764   8.366
 2790POPC   C3A37205  26.136  15.841   7.952
 2790POPC   C4A37206  26.408  15.886   7.594
 2790POPC   C1B37207  25.703  15.959   8.649
 2790POPC   C2B37208  25.726  16.096   8.216
 2790POPC   C3B37209  25.624  15.804   7.887
 2790POPC   C4B37210  25.657  15.498   7.558
 2791POPC   NC337211  33.151   8.473   9.586
 2791POPC   PO437212  32.671   8.034   9.622
 2791POPC   GL137213  32.905   8.130   9.247
 2791POPC   GL237214  32.690   8.351   9.174
 2791POPC   C1A37215  33.043   8.227   8.793
 2791POPC   D2A37216  33.232   8.212   8.385
 2791POPC   C3A37217  33.068   8.111   7.977
 2791POPC   C4A37218  33.277   8.033   7.524
 2791POPC   C1B37219  32.550   8.177   8.767
 2791POPC   C2B37220  32.723   8.326   8.391
 2791POPC   C3B37221  32.589   8.520   8.057
 2791POPC   C4B37222  32.822   8.480   7.710
 2792POPC   NC337223   3.842   8.444   9.425
 2792POPC   PO437224   3.489   7.949   9.300
 2792POPC   GL137225   3.440   8.272   9.050
 2792POPC   GL237226   3.777   8.345   8.934
 2792POPC   C1A37227   3.372   8.209   8.633
 2792POPC   D2A37228   3.274   8.449   8.327
 2792POPC   C3A37229   3.484   8.251   8.025
 2792POPC   C4A37230   3.259   8.004   7.762
 2792POPC   C1B37231   3.875   8.334   8.502
 2792POPC   C2B37232   4.176   8.080   8.261
 2792POPC   C3B37233   4.011   8.171   7.886
 2792POPC   C4B37234   3.803   8.606   7.795
 2793POPC   NC337235  24.116  15.355   9.240
 2793POPC   PO437236  23.662  14.902   9.217
 2793POPC   GL137237  23.628  15.285   9.048
 2793POPC   GL237238  23.585  15.586   9.208
 2793POPC   C1A37239  23.694  15.372   8.648
 2793POPC   D2A37240  23.473  15.262   8.295
 2793POPC   C3A37241  23.751  15.305   8.013
 2793POPC   C4A37242  23.951  15.010   7.817
 2793POPC   C1B37243  23.320  15.700   8.840
 2793POPC   C2B37244  23.477  15.768   8.415
 2793POPC   C3B37245  23.388  15.674   7.983
 2793POPC   C4B37246  23.659  15.594   7.606
 2794POPC   NC337247  14.585  43.261   9.507
 2794POPC   PO437248  13.966  42.985   9.441
 2794POPC   GL137249  14.139  43.169   9.124
 2794POPC   GL237250  14.164  43.528   9.115
 2794POPC   C1A37251  14.097  43.222   8.710
 2794POPC   D2A37252  14.305  43.019   8.411
 2794POPC   C3A37253  14.248  43.198   8.046
 2794POPC   C4A37254  14.367  42.991   7.701
 2794POPC   C1B37255  14.548  43.444   8.844
 2794POPC   C2B37256  14.700  43.329   8.434
 2794POPC   C3B37257  14.804  43.226   7.996
 2794POPC   C4B37258  14.737  43.370   7.571
 2795POPC   NC337259  16.420   1.484   9.367
 2795POPC   PO437260  16.914   1.044   9.519
 2795POPC   GL137261  16.863   1.239   9.126
 2795POPC   GL237262  16.597   1.104   9.041
 2795POPC   C1A37263  16.904   1.419   8.713
 2795POPC   D2A37264  16.712   1.402   8.284
 2795POPC   C3A37265  16.972   1.294   7.888
 2795POPC   C4A37266  16.965   1.373   7.431
 2795POPC   C1B37267  16.735   0.942   8.650
 2795POPC   C2B37268  16.597   0.917   8.230
 2795POPC   C3B37269  16.471   1.165   7.878
 2795POPC   C4B37270  16.662   0.968   7.535
 2796POPC   NC337271  15.342   3.305   9.659
 2796POPC   PO437272  14.863   3.761   9.525
 2796POPC   GL137273  15.194   3.612   9.274
 2796POPC   GL237274  15.131   3.248   9.196
 2796POPC   C1A37275  15.345   3.692   8.866
 2796POPC   D2A37276  15.377   3.575   8.429
 2796POPC   C3A37277  15.041   3.612   8.087
 2796POPC   C4A37278  15.260   3.583   7.700
 2796POPC   C1B37279  15.451   3.164   8.867
 2796POPC   C2B37280  15.410   2.995   8.448
 2796POPC   C3B37281  15.298   3.184   8.071
 2796POPC   C4B37282  14.898   3.152   7.845
 2797POPC   NC337283  16.895  35.795   9.364
 2797POPC   PO437284  16.272  36.038   9.429
 2797POPC   GL137285  16.524  36.221   9.072
 2797POPC   GL237286  16.852  36.320   9.213
 2797POPC   C1A37287  16.576  36.181   8.630
 2797POPC   D2A37288  16.517  36.090   8.220
 2797POPC   C3A37289  16.797  36.198   7.925
 2797POPC   C4A37290  16.673  36.314   7.520
 2797POPC   C1B37291  17.045  36.184   8.814
 2797POPC   C2B37292  17.116  36.057   8.378
 2797POPC   C3B37293  17.239  35.937   7.953
 2797POPC   C4B37294  17.108  36.048   7.529
 2798POPC   NC337295  42.993  21.889   9.533
 2798POPC   PO437296  43.443  22.340   9.802
 2798POPC   GL137297  43.192  22.279   9.310
 2798POPC   GL237298  43.348  21.930   9.181
 2798POPC   C1A37299  42.972  22.079   8.865
 2798POPC   D2A37300  43.175  22.066   8.394
 2798POPC   C3A37301  42.882  22.152   8.035
 2798POPC   C4A37302  42.827  22.543   7.805
 2798POPC   C1B37303  43.356  21.761   8.761
 2798POPC   C2B37304  43.644  21.788   8.437
 2798POPC   C3B37305  43.601  21.779   8.000
 2798POPC   C4B37306  43.272  21.980   7.754
 2799POPC   NC337307  13.198   1.446   9.423
 2799POPC   PO437308  13.874   1.384   9.370
 2799POPC   GL137309  13.800   1.137   9.028
 2799POPC   GL237310  13.472   1.243   9.043
 2799POPC   C1A37311  13.817   1.083   8.596
 2799POPC   D2A37312  13.776   1.409   8.330
 2799POPC   C3A37313  13.999   1.389   7.976
 2799POPC   C4A37314  13.922   1.207   7.601
 2799POPC   C1B37315  13.333   0.985   8.723
 2799POPC   C2B37316  13.387   1.071   8.302
 2799POPC   C3B37317  13.545   1.063   7.922
 2799POPC   C4B37318  13.419   0.695   7.812
 2800POPC   NC337319   6.314  22.286   9.487
 2800POPC   PO437320   6.980  22.473   9.387
 2800POPC   GL137321   6.684  22.312   9.072
 2800POPC   GL237322   6.532  21.996   9.013
 2800POPC   C1A37323   6.447  22.339   8.674
 2800POPC   D2A37324   6.284  22.659   8.453
 2800POPC   C3A37325   6.369  22.379   8.146
 2800POPC   C4A37326   6.806  22.436   8.001
 2800POPC   C1B37327   6.852  21.994   8.687
 2800POPC   C2B37328   6.741  21.982   8.257
 2800POPC   C3B37329   6.763  21.962   7.810
 2800POPC   C4B37330   6.476  21.930   7.419
 2801POPC   NC337331  28.047  40.278   9.563
 2801POPC   PO437332  28.538  39.757   9.631
 2801POPC   GL137333  28.333  39.991   9.235
 2801POPC   GL237334  28.483  40.315   9.145
 2801POPC   C1A37335  28.323  39.995   8.746
 2801POPC   D2A37336  28.158  40.051   8.309
 2801POPC   C3A37337  28.230  39.778   7.944
 2801POPC   C4A37338  27.992  39.871   7.570
 2801POPC   C1B37339  28.661  40.398   8.740
 2801POPC   C2B37340  28.513  40.417   8.314
 2801POPC   C3B37341  28.424  40.237   7.904
 2801POPC   C4B37342  28.283  40.314   7.496
 2802POPC   NC337343  12.385   9.318   9.510
 2802POPC   PO437344  11.851   8.836   9.496
 2802POPC   GL137345  12.066   9.051   9.179
 2802POPC   GL237346  12.045   9.409   9.150
 2802POPC   C1A37347  12.006   9.068   8.761
 2802POPC   D2A37348  11.981   8.894   8.387
 2802POPC   C3A37349  11.817   9.052   8.000
 2802POPC   C4A37350  11.883   8.856   7.581
 2802POPC   C1B37351  12.383   9.418   8.836
 2802POPC   C2B37352  12.488   9.131   8.493
 2802POPC   C3B37353  12.315   9.151   8.097
 2802POPC   C4B37354  12.351   9.105   7.662
 2803POPC   NC337355  40.035  17.302   9.681
 2803POPC   PO437356  39.793  17.849   9.467
 2803POPC   GL137357  39.964  17.579   9.143
 2803POPC   GL237358  40.273  17.388   9.156
 2803POPC   C1A37359  40.175  17.709   8.766
 2803POPC   D2A37360  40.409  17.837   8.417
 2803POPC   C3A37361  40.144  17.714   8.079
 2803POPC   C4A37362  40.054  17.486   7.710
 2803POPC   C1B37363  40.187  17.179   8.765
 2803POPC   C2B37364  40.047  17.250   8.328
 2803POPC   C3B37365  40.251  17.083   7.965
 2803POPC   C4B37366  40.309  17.088   7.490
 2804POPC   NC337367  36.884   4.629   9.660
 2804POPC   PO437368  36.957   3.889   9.638
 2804POPC   GL137369  36.978   4.189   9.237
 2804POPC   GL237370  36.979   4.547   9.176
 2804POPC   C1A37371  36.731   4.278   8.804
 2804POPC   D2A37372  36.592   4.296   8.338
 2804POPC   C3A37373  36.898   4.298   8.027
 2804POPC   C4A37374  37.155   4.306   7.713
 2804POPC   C1B37375  37.179   4.549   8.791
 2804POPC   C2B37376  36.958   4.642   8.435
 2804POPC   C3B37377  36.691   4.761   8.106
 2804POPC   C4B37378  36.882   4.727   7.728
 2805POPC   NC337379  41.847  19.007   9.544
 2805POPC   PO437380  41.268  19.093   9.795
 2805POPC   GL137381  41.391  19.017   9.294
 2805POPC   GL237382  41.705  18.861   9.093
 2805POPC   C1A37383  41.337  19.022   8.827
 2805POPC   D2A37384  41.526  18.794   8.481
 2805POPC   C3A37385  41.420  19.043   8.126
 2805POPC   C4A37386  41.461  18.954   7.725
 2805POPC   C1B37387  41.883  19.033   8.756
 2805POPC   C2B37388  41.856  19.194   8.373
 2805POPC   C3B37389  41.914  19.019   7.979
 2805POPC   C4B37390  41.895  19.214   7.583
 2806POPC   NC337391  16.485   6.392   9.598
 2806POPC   PO437392  17.028   6.869   9.621
 2806POPC   GL137393  16.943   6.646   9.233
 2806POPC   GL237394  16.674   6.888   9.156
 2806POPC   C1A37395  16.826   6.527   8.792
 2806POPC   D2A37396  16.866   6.232   8.423
 2806POPC   C3A37397  16.952   6.368   8.018
 2806POPC   C4A37398  16.644   6.513   7.760
 2806POPC   C1B37399  16.544   7.066   8.748
 2806POPC   C2B37400  16.772   7.150   8.398
 2806POPC   C3B37401  16.735   6.925   8.050
 2806POPC   C4B37402  16.646   7.014   7.645
 2807POPC   NC337403  44.826   0.088   9.393
 2807POPC   PO437404  44.698   0.776   9.532
 2807POPC   GL137405  44.675   0.567   9.172
 2807POPC   GL237406  44.981   0.498   9.108
 2807POPC   C1A37407  44.494   0.694   8.799
 2807POPC   D2A37408  44.576   0.777   8.372
 2807POPC   C3A37409  44.580   0.361   8.168
 2807POPC   C4A37410  44.577   0.174   7.754
 2807POPC   C1B37411  44.969   0.276   8.763
 2807POPC   C2B37412   0.064   0.266   8.371
 2807POPC   C3B37413   0.026   0.632   8.157
 2807POPC   C4B37414  44.761   0.663   7.798
 2808POPC   NC337415   0.552  19.310   9.524
 2808POPC   PO437416   0.127  18.819   9.421
 2808POPC   GL137417   0.332  19.111   9.109
 2808POPC   GL237418   0.269  19.511   9.172
 2808POPC   C1A37419   0.358  19.058   8.650
 2808POPC   D2A37420   0.365  18.917   8.211
 2808POPC   C3A37421   0.398  19.014   7.746
 2808POPC   C4A37422   0.183  18.816   7.361
 2808POPC   C1B37423   0.616  19.463   8.854
 2808POPC   C2B37424   0.747  19.279   8.437
 2808POPC   C3B37425   0.568  19.394   8.061
 2808POPC   C4B37426   0.736  19.398   7.678
 2809POPC   NC337427  36.489  40.180   9.479
 2809POPC   PO437428  37.075  40.108   9.725
 2809POPC   GL137429  37.036  40.183   9.253
 2809POPC   GL237430  36.822  40.055   9.088
 2809POPC   C1A37431  37.076  40.350   8.785
 2809POPC   D2A37432  37.137  40.164   8.399
 2809POPC   C3A37433  37.061  40.319   8.039
 2809POPC   C4A37434  36.877  40.161   7.688
 2809POPC   C1B37435  36.757  39.956   8.688
 2809POPC   C2B37436  36.831  39.731   8.326
 2809POPC   C3B37437  36.642  39.746   7.927
 2809POPC   C4B37438  36.620  39.735   7.514
 2810POPC   NC337439  18.596  24.711   9.508
 2810POPC   PO437440  17.915  24.392   9.526
 2810POPC   GL137441  18.072  24.450   9.119
 2810POPC   GL237442  18.457  24.462   9.060
 2810POPC   C1A37443  18.017  24.315   8.722
 2810POPC   D2A37444  18.369  24.364   8.492
 2810POPC   C3A37445  18.305  24.192   8.121
 2810POPC   C4A37446  18.412  24.038   7.744
 2810POPC   C1B37447  18.663  24.741   8.711
 2810POPC   C2B37448  18.532  24.825   8.347
 2810POPC   C3B37449  18.566  24.624   8.006
 2810POPC   C4B37450  18.248  24.536   7.754
 2811POPC   NC337451  15.487  22.338   9.284
 2811POPC   PO437452  15.272  21.859   9.702
 2811POPC   GL137453  15.223  21.866   9.197
 2811POPC   GL237454  15.093  22.174   8.980
 2811POPC   C1A37455  15.318  21.793   8.747
 2811POPC   D2A37456  15.113  22.083   8.477
 2811POPC   C3A37457  15.113  22.074   8.075
 2811POPC   C4A37458  14.975  22.162   7.688
 2811POPC   C1B37459  15.398  22.431   8.692
 2811POPC   C2B37460  15.465  22.619   8.348
 2811POPC   C3B37461  15.384  22.493   7.922
 2811POPC   C4B37462  15.513  22.727   7.573
 2812POPC   NC337463   4.186  33.373   9.761
 2812POPC   PO437464   4.781  33.327   9.417
 2812POPC   GL137465   4.560  33.418   9.132
 2812POPC   GL237466   4.278  33.649   9.265
 2812POPC   C1A37467   4.554  33.642   8.788
 2812POPC   D2A37468   4.361  33.795   8.441
 2812POPC   C3A37469   4.266  33.564   8.098
 2812POPC   C4A37470   4.384  33.780   7.760
 2812POPC   C1B37471   4.062  33.829   8.869
 2812POPC   C2B37472   4.030  34.189   8.543
 2812POPC   C3B37473   3.950  34.175   8.088
 2812POPC   C4B37474   3.882  33.851   7.781
 2813POPC   NC337475   9.280  11.640   9.275
 2813POPC   PO437476   9.610  11.096   9.484
 2813POPC   GL137477   9.693  11.318   9.110
 2813POPC   GL237478   9.977  11.144   9.052
 2813POPC   C1A37479   9.749  11.327   8.630
 2813POPC   D2A37480   9.974  11.503   8.250
 2813POPC   C3A37481   9.760  11.372   7.861
 2813POPC   C4A37482   9.717  11.456   7.391
 2813POPC   C1B37483  10.087  10.935   8.708
 2813POPC   C2B37484  10.003  11.003   8.294
 2813POPC   C3B37485  10.084  10.831   7.924
 2813POPC   C4B37486   9.865  10.994   7.559
 2814POPC   NC337487  37.021   5.589   9.903
 2814POPC   PO437488  36.809   6.079   9.516
 2814POPC   GL137489  37.023   5.940   9.163
 2814POPC   GL237490  37.069   5.565   9.222
 2814POPC   C1A37491  36.958   5.973   8.705
 2814POPC   D2A37492  36.811   5.681   8.406
 2814POPC   C3A37493  36.672   5.815   7.984
 2814POPC   C4A37494  36.912   6.108   7.716
 2814POPC   C1B37495  37.169   5.511   8.782
 2814POPC   C2B37496  37.292   5.508   8.352
 2814POPC   C3B37497  37.103   5.540   7.962
 2814POPC   C4B37498  36.931   5.609   7.562
 2815POPC   NC337499  12.330  15.410   9.449
 2815POPC   PO437500  11.823  14.953   9.539
 2815POPC   GL137501  11.947  15.220   9.159
 2815POPC   GL237502  12.238  15.110   9.036
 2815POPC   C1A37503  11.944  15.332   8.707
 2815POPC   D2A37504  12.073  15.028   8.407
 2815POPC   C3A37505  12.161  15.156   7.985
 2815POPC   C4A37506  11.917  15.435   7.758
 2815POPC   C1B37507  11.834  14.852   8.837
 2815POPC   C2B37508  11.816  14.560   8.488
 2815POPC   C3B37509  11.944  14.668   8.074
 2815POPC   C4B37510  11.797  14.901   7.692
 2816POPC   NC337511  12.139  39.127   9.473
 2816POPC   PO437512  11.662  39.488   9.107
 2816POPC   GL137513  11.994  39.259   9.008
 2816POPC   GL237514  11.899  38.950   9.064
 2816POPC   C1A37515  12.351  39.247   8.792
 2816POPC   D2A37516  12.349  39.569   8.488
 2816POPC   C3A37517  12.050  39.452   8.164
 2816POPC   C4A37518  11.924  39.445   7.734
 2816POPC   C1B37519  12.045  38.854   8.635
 2816POPC   C2B37520  12.316  39.006   8.313
 2816POPC   C3B37521  12.221  39.049   7.871
 2816POPC   C4B37522  11.791  38.920   7.742
 2817POPC   NC337523   4.794  29.588   9.497
 2817POPC   PO437524   5.285  30.030   9.459
 2817POPC   GL137525   5.194  29.734   9.142
 2817POPC   GL237526   4.860  29.883   9.081
 2817POPC   C1A37527   5.200  29.830   8.705
 2817POPC   D2A37528   5.118  30.055   8.325
 2817POPC   C3A37529   5.222  29.827   7.956
 2817POPC   C4A37530   5.014  29.734   7.589
 2817POPC   C1B37531   4.694  30.090   8.711
 2817POPC   C2B37532   4.474  30.052   8.311
 2817POPC   C3B37533   4.727  30.028   7.947
 2817POPC   C4B37534   4.699  30.125   7.520
 2818POPC   NC337535  27.232  21.284   9.507
 2818POPC   PO437536  27.874  21.146   9.569
 2818POPC   GL137537  27.622  21.279   9.178
 2818POPC   GL237538  27.388  21.024   9.075
 2818POPC   C1A37539  27.391  21.458   8.780
 2818POPC   D2A37540  27.542  21.646   8.382
 2818POPC   C3A37541  27.526  21.431   7.964
 2818POPC   C4A37542  27.535  21.636   7.569
 2818POPC   C1B37543  27.732  21.055   8.736
 2818POPC   C2B37544  27.837  21.230   8.342
 2818POPC   C3B37545  27.840  21.029   7.944
 2818POPC   C4B37546  27.692  21.119   7.539
 2819POPC   NC337547   7.376   0.912   9.468
 2819POPC   PO437548   7.148   1.541   9.448
 2819POPC   GL137549   7.439   1.410   9.085
 2819POPC   GL237550   7.534   1.061   9.017
 2819POPC   C1A37551   7.537   1.438   8.668
 2819POPC   D2A37552   7.462   1.140   8.340
 2819POPC   C3A37553   7.512   1.312   7.940
 2819POPC   C4A37554   7.305   1.632   7.784
 2819POPC   C1B37555   7.698   0.695   8.816
 2819POPC   C2B37556   7.670   0.674   8.377
 2819POPC   C3B37557   7.498   0.802   7.935
 2819POPC   C4B37558   7.573   0.938   7.515
 2820POPC   NC337559  17.242   6.466   9.659
 2820POPC   PO437560  17.729   6.928   9.595
 2820POPC   GL137561  17.469   6.756   9.280
 2820POPC   GL237562  17.294   7.054   9.224
 2820POPC   C1A37563  17.362   6.634   8.850
 2820POPC   D2A37564  17.194   6.609   8.416
 2820POPC   C3A37565  17.452   6.570   8.023
 2820POPC   C4A37566  17.658   6.638   7.614
 2820POPC   C1B37567  17.584   7.095   8.831
 2820POPC   C2B37568  17.814   7.007   8.404
 2820POPC   C3B37569  17.727   7.024   7.942
 2820POPC   C4B37570  17.495   7.133   7.533
 2821POPC   NC337571  29.570  36.011   9.318
 2821POPC   PO437572  30.240  36.276   9.396
 2821POPC   GL137573  30.186  36.174   9.031
 2821POPC   GL237574  29.845  36.245   8.960
 2821POPC   C1A37575  30.251  36.120   8.629
 2821POPC   D2A37576  29.932  36.115   8.385
 2821POPC   C3A37577  29.868  35.807   8.096
 2821POPC   C4A37578  30.120  35.929   7.769
 2821POPC   C1B37579  29.502  36.264   8.641
 2821POPC   C2B37580  29.465  36.094   8.218
 2821POPC   C3B37581  29.603  36.157   7.811
 2821POPC   C4B37582  29.554  36.558   7.656
 2822POPC   NC337583  14.720  19.534   9.727
 2822POPC   PO437584  14.135  19.856   9.622
 2822POPC   GL137585  14.339  19.532   9.330
 2822POPC   GL237586  14.699  19.548   9.206
 2822POPC   C1A37587  14.246  19.547   8.875
 2822POPC   D2A37588  14.189  19.831   8.505
 2822POPC   C3A37589  14.179  19.649   8.087
 2822POPC   C4A37590  14.333  19.695   7.648
 2822POPC   C1B37591  14.683  19.822   8.815
 2822POPC   C2B37592  14.687  19.729   8.350
 2822POPC   C3B37593  14.560  20.010   8.023
 2822POPC   C4B37594  14.669  20.115   7.580
 2823POPC   NC337595  28.162  17.908   9.718
 2823POPC   PO437596  28.590  17.457   9.493
 2823POPC   GL137597  28.456  17.477   9.117
 2823POPC   GL237598  28.212  17.744   9.196
 2823POPC   C1A37599  28.464  17.454   8.686
 2823POPC   D2A37600  28.435  17.313   8.310
 2823POPC   C3A37601  28.584  17.601   7.996
 2823POPC   C4A37602  28.499  17.325   7.707
 2823POPC   C1B37603  28.006  17.529   8.878
 2823POPC   C2B37604  27.964  17.471   8.451
 2823POPC   C3B37605  28.071  17.540   8.011
 2823POPC   C4B37606  27.932  17.542   7.572
 2824POPC   NC337607  33.407  25.863   9.521
 2824POPC   PO437608  32.860  26.241   9.580
 2824POPC   GL137609  33.070  26.126   9.188
 2824POPC   GL237610  32.981  25.804   9.144
 2824POPC   C1A37611  33.218  26.092   8.753
 2824POPC   D2A37612  33.153  26.332   8.379
 2824POPC   C3A37613  33.108  26.133   7.992
 2824POPC   C4A37614  32.902  26.012   7.596
 2824POPC   C1B37615  33.142  25.580   8.807
 2824POPC   C2B37616  33.160  25.707   8.362
 2824POPC   C3B37617  33.326  25.680   7.936
 2824POPC   C4B37618  33.539  25.978   7.700
 2825POPC   NC337619  11.033  24.224   9.517
 2825POPC   PO437620  10.926  23.641   9.815
 2825POPC   GL137621  11.090  23.732   9.332
 2825POPC   GL237622  11.412  23.958   9.274
 2825POPC   C1A37623  11.147  23.701   8.834
 2825POPC   D2A37624  10.948  23.446   8.453
 2825POPC   C3A37625  11.096  23.526   8.034
 2825POPC   C4A37626  11.505  23.510   7.863
 2825POPC   C1B37627  11.537  24.068   8.833
 2825POPC   C2B37628  11.401  23.971   8.376
 2825POPC   C3B37629  11.526  24.018   7.901
 2825POPC   C4B37630  11.540  23.837   7.439
 2826POPC   NC337631  39.495   5.502   9.381
 2826POPC   PO437632  39.435   4.772   9.549
 2826POPC   GL137633  39.223   5.065   9.260
 2826POPC   GL237634  39.470   4.995   9.054
 2826POPC   C1A37635  39.156   5.316   8.827
 2826POPC   D2A37636  39.028   5.354   8.398
 2826POPC   C3A37637  39.315   5.159   8.117
 2826POPC   C4A37638  39.189   5.074   7.727
 2826POPC   C1B37639  39.114   4.801   8.831
 2826POPC   C2B37640  39.112   4.781   8.399
 2826POPC   C3B37641  38.977   4.670   7.981
 2826POPC   C4B37642  39.100   4.637   7.514
 2827POPC   NC337643   1.326   2.326   9.375
 2827POPC   PO437644   0.914   1.822   9.456
 2827POPC   GL137645   1.114   1.706   9.115
 2827POPC   GL237646   1.386   1.895   9.130
 2827POPC   C1A37647   1.154   1.829   8.682
 2827POPC   D2A37648   1.368   1.690   8.346
 2827POPC   C3A37649   1.244   1.948   7.997
 2827POPC   C4A37650   1.066   2.326   7.801
 2827POPC   C1B37651   1.599   2.113   8.806
 2827POPC   C2B37652   1.463   2.187   8.422
 2827POPC   C3B37653   1.498   2.438   8.097
 2827POPC   C4B37654   1.692   2.240   7.760
 2828POPC   NC337655   2.578   4.208   9.460
 2828POPC   PO437656   3.043   4.663   9.270
 2828POPC   GL137657   2.930   4.320   9.081
 2828POPC   GL237658   2.980   3.998   9.189
 2828POPC   C1A37659   3.095   4.210   8.711
 2828POPC   D2A37660   3.097   4.402   8.318
 2828POPC   C3A37661   2.972   4.139   7.985
 2828POPC   C4A37662   2.868   4.236   7.557
 2828POPC   C1B37663   2.680   3.936   8.848
 2828POPC   C2B37664   2.697   4.084   8.422
 2828POPC   C3B37665   2.530   4.353   8.092
 2828POPC   C4B37666   2.374   4.195   7.722
 2829POPC   NC337667  35.104  35.692   9.490
 2829POPC   PO437668  35.046  35.054   9.466
 2829POPC   GL137669  35.260  35.314   9.146
 2829POPC   GL237670  35.513  35.545   9.151
 2829POPC   C1A37671  35.399  35.313   8.711
 2829POPC   D2A37672  35.300  34.901   8.556
 2829POPC   C3A37673  35.119  34.875   8.149
 2829POPC   C4A37674  35.386  35.074   7.913
 2829POPC   C1B37675  35.773  35.763   8.860
 2829POPC   C2B37676  35.851  35.739   8.433
 2829POPC   C3B37677  35.510  35.634   8.178
 2829POPC   C4B37678  35.524  35.535   7.777
 2830POPC   NC337679  33.603  41.121   9.435
 2830POPC   PO437680  33.399  40.428   9.506
 2830POPC   GL137681  33.193  40.660   9.107
 2830POPC   GL237682  33.297  40.968   9.020
 2830POPC   C1A37683  32.976  40.625   8.735
 2830POPC   D2A37684  33.134  40.550   8.331
 2830POPC   C3A37685  33.019  40.740   8.028
 2830POPC   C4A37686  32.932  40.928   7.690
 2830POPC   C1B37687  33.540  41.092   8.700
 2830POPC   C2B37688  33.377  41.043   8.292
 2830POPC   C3B37689  33.422  41.006   7.855
 2830POPC   C4B37690  33.615  40.932   7.440
 2831POPC   NC337691  10.593  29.418   9.599
 2831POPC   PO437692  10.116  28.978   9.613
 2831POPC   GL137693  10.274  29.183   9.227
 2831POPC   GL237694  10.645  29.173   9.164
 2831POPC   C1A37695  10.307  29.348   8.798
 2831POPC   D2A37696  10.379  29.484   8.346
 2831POPC   C3A37697  10.260  29.192   7.983
 2831POPC   C4A37698   9.984  29.299   7.652
 2831POPC   C1B37699  10.745  29.095   8.746
 2831POPC   C2B37700  10.613  29.029   8.331
 2831POPC   C3B37701  10.763  29.204   7.954
 2831POPC   C4B37702  10.735  29.266   7.504
 2832POPC   NC337703  31.262  22.574   9.564
 2832POPC   PO437704  31.388  23.202   9.585
 2832POPC   GL137705  31.534  22.942   9.234
 2832POPC   GL237706  31.731  22.618   9.312
 2832POPC   C1A37707  31.445  22.886   8.795
 2832POPC   D2A37708  31.338  22.655   8.445
 2832POPC   C3A37709  31.445  22.928   8.112
 2832POPC   C4A37710  31.354  22.881   7.691
 2832POPC   C1B37711  31.780  22.484   8.875
 2832POPC   C2B37712  31.821  22.696   8.465
 2832POPC   C3B37713  31.790  22.539   8.055
 2832POPC   C4B37714  31.981  22.520   7.662
 2833POPC   NC337715   0.068   4.206   9.462
 2833POPC   PO437716   0.738   4.479   9.707
 2833POPC   GL137717   0.632   4.443   9.250
 2833POPC   GL237718   0.893   4.248   9.061
 2833POPC   C1A37719   0.448   4.325   8.826
 2833POPC   D2A37720   0.657   4.076   8.482
 2833POPC   C3A37721   0.439   4.083   8.088
 2833POPC   C4A37722   0.397   4.420   7.834
 2833POPC   C1B37723   0.868   4.629   8.784
 2833POPC   C2B37724   0.895   4.738   8.342
 2833POPC   C3B37725   0.860   4.408   8.057
 2833POPC   C4B37726   0.823   4.185   7.681
 2834POPC   NC337727  43.670  19.023   9.743
 2834POPC   PO437728  43.704  19.656   9.811
 2834POPC   GL137729  43.663  19.299   9.337
 2834POPC   GL237730  43.494  18.996   9.255
 2834POPC   C1A37731  43.775  19.276   8.877
 2834POPC   D2A37732  43.973  19.494   8.508
 2834POPC   C3A37733  43.789  19.456   8.081
 2834POPC   C4A37734  43.723  19.237   7.709
 2834POPC   C1B37735  43.620  18.773   8.859
 2834POPC   C2B37736  43.804  18.939   8.469
 2834POPC   C3B37737  43.977  18.949   8.056
 2834POPC   C4B37738  43.969  18.777   7.640
 2835POPC   NC337739  35.572   8.260   9.727
 2835POPC   PO437740  35.030   7.904   9.529
 2835POPC   GL137741  35.174   8.065   9.138
 2835POPC   GL237742  35.352   8.367   9.182
 2835POPC   C1A37743  35.283   8.119   8.708
 2835POPC   D2A37744  35.661   8.149   8.488
 2835POPC   C3A37745  35.528   8.179   8.093
 2835POPC   C4A37746  35.668   8.139   7.685
 2835POPC   C1B37747  35.524   8.556   8.787
 2835POPC   C2B37748  35.332   8.555   8.370
 2835POPC   C3B37749  35.485   8.665   7.947
 2835POPC   C4B37750  35.445   8.583   7.513
 2836POPC   NC337751   1.097  25.929   9.670
 2836POPC   PO437752   1.168  26.565   9.607
 2836POPC   GL137753   1.240  26.193   9.261
 2836POPC   GL237754   0.935  25.998   9.195
 2836POPC   C1A37755   1.317  25.990   8.841
 2836POPC   D2A37756   1.447  26.165   8.455
 2836POPC   C3A37757   1.274  26.281   8.032
 2836POPC   C4A37758   1.489  26.260   7.600
 2836POPC   C1B37759   0.855  26.168   8.798
 2836POPC   C2B37760   0.938  26.032   8.373
 2836POPC   C3B37761   0.812  26.073   7.931
 2836POPC   C4B37762   0.677  26.374   7.593
 2837POPC   NC337763  31.077  19.386   9.642
 2837POPC   PO437764  30.423  19.180   9.796
 2837POPC   GL137765  30.473  19.347   9.355
 2837POPC   GL237766  30.802  19.214   9.258
 2837POPC   C1A37767  30.535  19.386   8.865
 2837POPC   D2A37768  30.621  19.124   8.481
 2837POPC   C3A37769  30.606  19.252   8.022
 2837POPC   C4A37770  30.414  18.940   7.738
 2837POPC   C1B37771  31.040  19.289   8.877
 2837POPC   C2B37772  31.059  19.376   8.432
 2837POPC   C3B37773  31.093  19.061   8.143
 2837POPC   C4B37774  30.937  18.939   7.765
 2838POPC   NC337775  21.856  44.551   9.392
 2838POPC   PO437776  22.435  44.167   9.501
 2838POPC   GL137777  22.253  44.411   9.133
 2838POPC   GL237778  22.156  44.806   9.093
 2838POPC   C1A37779  22.105  44.519   8.700
 2838POPC   D2A37780  22.315  44.472   8.327
 2838POPC   C3A37781  22.025  44.538   8.003
 2838POPC   C4A37782  22.129  44.687   7.608
 2838POPC   C1B37783  22.408   0.025   8.830
 2838POPC   C2B37784  22.545  44.938   8.412
 2838POPC   C3B37785  22.490  44.963   7.959
 2838POPC   C4B37786  22.552   0.010   7.519
 2839POPC   NC337787   9.464   9.731   9.286
 2839POPC   PO437788   8.920   9.569   9.592
 2839POPC   GL137789   8.811   9.545   9.168
 2839POPC   GL237790   8.988   9.839   9.121
 2839POPC   C1A37791   8.857   9.539   8.702
 2839POPC   D2A37792   9.195   9.404   8.400
 2839POPC   C3A37793   9.159   9.597   7.982
 2839POPC   C4A37794   8.825   9.614   7.662
 2839POPC   C1B37795   9.170   9.946   8.702
 2839POPC   C2B37796   9.047  10.051   8.264
 2839POPC   C3B37797   8.911  10.102   7.822
 2839POPC   C4B37798   8.624  10.310   7.497
 2840POPC   NC337799  35.149  32.236   9.484
 2840POPC   PO437800  35.820  32.280   9.278
 2840POPC   GL137801  35.426  32.203   9.062
 2840POPC   GL237802  35.111  31.947   9.082
 2840POPC   C1A37803  35.356  32.428   8.700
 2840POPC   D2A37804  35.608  32.573   8.325
 2840POPC   C3A37805  35.489  32.360   7.934
 2840POPC   C4A37806  35.396  32.505   7.516
 2840POPC   C1B37807  35.250  31.935   8.674
 2840POPC   C2B37808  35.193  32.133   8.297
 2840POPC   C3B37809  35.025  32.191   7.884
 2840POPC   C4B37810  35.152  32.079   7.413
 2841POPC   NC337811  16.837   3.191   9.314
 2841POPC   PO437812  17.078   2.585   9.144
 2841POPC   GL137813  16.654   2.790   9.037
 2841POPC   GL237814  16.462   3.143   8.997
 2841POPC   C1A37815  16.706   2.946   8.624
 2841POPC   D2A37816  16.609   2.693   8.317
 2841POPC   C3A37817  16.862   2.615   8.027
 2841POPC   C4A37818  16.892   2.872   7.674
 2841POPC   C1B37819  16.307   3.251   8.595
 2841POPC   C2B37820  16.199   2.980   8.253
 2841POPC   C3B37821  16.418   2.903   7.893
 2841POPC   C4B37822  16.425   3.043   7.505
 2842POPC   NC337823  20.914  36.464   9.535
 2842POPC   PO437824  21.565  36.123   9.674
 2842POPC   GL137825  21.569  36.150   9.236
 2842POPC   GL237826  21.201  36.170   9.160
 2842POPC   C1A37827  21.553  36.291   8.795
 2842POPC   D2A37828  21.320  36.284   8.390
 2842POPC   C3A37829  21.574  36.266   7.996
 2842POPC   C4A37830  21.598  35.980   7.647
 2842POPC   C1B37831  20.993  36.110   8.766
 2842POPC   C2B37832  20.819  35.934   8.365
 2842POPC   C3B37833  20.952  36.168   8.054
 2842POPC   C4B37834  21.154  36.216   7.705
 2843POPC   NC337835  22.141  38.620   9.562
 2843POPC   PO437836  21.864  38.032   9.571
 2843POPC   GL137837  22.087  38.277   9.196
 2843POPC   GL237838  22.157  38.633   9.069
 2843POPC   C1A37839  22.381  38.261   8.813
 2843POPC   D2A37840  22.221  38.408   8.403
 2843POPC   C3A37841  22.424  38.477   7.994
 2843POPC   C4A37842  22.298  38.440   7.598
 2843POPC   C1B37843  21.878  38.545   8.742
 2843POPC   C2B37844  21.768  38.675   8.315
 2843POPC   C3B37845  21.927  38.686   7.883
 2843POPC   C4B37846  21.954  38.785   7.421
 2844POPC   NC337847   7.731  20.204   9.490
 2844POPC   PO437848   8.214  19.770   9.388
 2844POPC   GL137849   8.110  20.023   9.084
 2844POPC   GL237850   7.774  20.094   9.004
 2844POPC   C1A37851   8.293  19.895   8.707
 2844POPC   D2A37852   8.191  19.872   8.284
 2844POPC   C3A37853   8.516  19.805   7.992
 2844POPC   C4A37854   8.445  19.602   7.582
 2844POPC   C1B37855   7.783  19.890   8.616
 2844POPC   C2B37856   7.887  19.462   8.437
 2844POPC   C3B37857   8.073  19.440   8.021
 2844POPC   C4B37858   8.044  19.846   7.801
 2845POPC   NC337859   1.691   0.680   9.472
 2845POPC   PO437860   1.067   0.312   9.564
 2845POPC   GL137861   1.295   0.491   9.211
 2845POPC   GL237862   1.477   0.228   9.156
 2845POPC   C1A37863   1.479   0.699   8.831
 2845POPC   D2A37864   1.294   0.609   8.448
 2845POPC   C3A37865   1.398   0.767   8.064
 2845POPC   C4A37866   1.367   0.548   7.695
 2845POPC   C1B37867   1.678   0.218   8.789
 2845POPC   C2B37868   1.746   0.372   8.385
 2845POPC   C3B37869   1.649   0.212   7.978
 2845POPC   C4B37870   1.679  44.992   7.591
 2846POPC   NC337871  17.390  36.588   9.658
 2846POPC   PO437872  17.457  37.250   9.491
 2846POPC   GL137873  17.532  36.854   9.208
 2846POPC   GL237874  17.287  36.586   9.171
 2846POPC   C1A37875  17.778  36.722   8.836
 2846POPC   D2A37876  17.972  36.827   8.402
 2846POPC   C3A37877  17.773  36.772   8.039
 2846POPC   C4A37878  17.543  37.047   7.790
 2846POPC   C1B37879  17.283  36.633   8.757
 2846POPC   C2B37880  17.409  36.795   8.397
 2846POPC   C3B37881  17.244  36.725   8.007
 2846POPC   C4B37882  17.109  36.537   7.654
 2847POPC   NC337883  22.066   8.147   9.735
 2847POPC   PO437884  22.497   8.590   9.521
 2847POPC   GL137885  22.305   8.330   9.236
 2847POPC   GL237886  22.210   8.009   9.226
 2847POPC   C1A37887  22.159   8.317   8.822
 2847POPC   D2A37888  22.110   8.428   8.427
 2847POPC   C3A37889  21.981   8.172   8.098
 2847POPC   C4A37890  22.006   8.485   7.794
 2847POPC   C1B37891  22.455   7.845   8.871
 2847POPC   C2B37892  22.397   8.000   8.457
 2847POPC   C3B37893  22.518   7.880   8.055
 2847POPC   C4B37894  22.272   8.011   7.712
 2848POPC   NC337895   2.828  24.086   9.440
 2848POPC   PO437896   2.705  24.717   9.384
 2848POPC   GL137897   2.723  24.428   9.075
 2848POPC   GL237898   2.484  24.167   9.070
 2848POPC   C1A37899   2.914  24.481   8.694
 2848POPC   D2A37900   3.173  24.405   8.372
 2848POPC   C3A37901   2.972  24.336   7.969
 2848POPC   C4A37902   2.863  24.552   7.575
 2848POPC   C1B37903   2.398  24.507   8.707
 2848POPC   C2B37904   2.570  24.565   8.304
 2848POPC   C3B37905   2.446  24.505   7.891
 2848POPC   C4B37906   2.406  24.858   7.620
 2849POPC   NC337907  29.981  29.427   9.801
 2849POPC   PO437908  30.274  29.099   9.261
 2849POPC   GL137909  30.087  28.904   8.970
 2849POPC   GL237910  29.786  29.003   9.017
 2849POPC   C1A37911  30.078  28.744   8.628
 2849POPC   D2A37912  30.271  29.093   8.414
 2849POPC   C3A37913  30.124  29.201   8.048
 2849POPC   C4A37914  29.946  29.047   7.720
 2849POPC   C1B37915  29.815  29.201   8.620
 2849POPC   C2B37916  29.578  29.308   8.260
 2849POPC   C3B37917  29.688  29.452   7.865
 2849POPC   C4B37918  29.479  29.615   7.497
 2850POPC   NC337919  40.991  23.554   9.589
 2850POPC   PO437920  40.562  23.977   9.637
 2850POPC   GL137921  40.851  23.886   9.231
 2850POPC   GL237922  40.886  23.538   9.067
 2850POPC   C1A37923  40.954  23.987   8.792
 2850POPC   D2A37924  40.708  23.969   8.386
 2850POPC   C3A37925  40.797  23.669   8.061
 2850POPC   C4A37926  41.074  23.807   7.726
 2850POPC   C1B37927  40.913  23.542   8.582
 2850POPC   C2B37928  41.196  23.429   8.272
 2850POPC   C3B37929  41.107  23.303   7.869
 2850POPC   C4B37930  40.884  23.406   7.505
 2851POPC   NC337931  31.331  18.463   9.484
 2851POPC   PO437932  31.908  18.079   9.761
 2851POPC   GL137933  31.678  18.103   9.341
 2851POPC   GL237934  31.668  18.385   9.118
 2851POPC   C1A37935  31.587  17.881   8.945
 2851POPC   D2A37936  31.626  17.847   8.481
 2851POPC   C3A37937  31.363  18.104   8.213
 2851POPC   C4A37938  31.317  18.231   7.798
 2851POPC   C1B37939  31.624  18.336   8.709
 2851POPC   C2B37940  31.789  18.322   8.329
 2851POPC   C3B37941  31.805  18.214   7.961
 2851POPC   C4B37942  31.761  18.445   7.622
 2852POPC   NC337943  38.062  37.431   9.500
 2852POPC   PO437944  37.570  37.804   9.646
 2852POPC   GL137945  37.599  37.806   9.179
 2852POPC   GL237946  37.910  37.862   8.985
 2852POPC   C1A37947  37.440  37.797   8.748
 2852POPC   D2A37948  37.737  37.779   8.399
 2852POPC   C3A37949  37.601  37.786   7.941
 2852POPC   C4A37950  37.442  37.625   7.563
 2852POPC   C1B37951  37.792  37.432   8.876
 2852POPC   C2B37952  37.854  37.261   8.486
 2852POPC   C3B37953  37.841  37.374   8.088
 2852POPC   C4B37954  37.770  37.263   7.707
 2853POPC   NC337955  26.926  28.113   9.634
 2853POPC   PO437956  26.658  27.459   9.727
 2853POPC   GL137957  26.870  27.683   9.351
 2853POPC   GL237958  26.620  27.872   9.220
 2853POPC   C1A37959  27.061  27.755   8.897
 2853POPC   D2A37960  27.199  27.887   8.459
 2853POPC   C3A37961  26.870  27.781   8.151
 2853POPC   C4A37962  26.923  27.536   7.742
 2853POPC   C1B37963  26.569  27.484   8.957
 2853POPC   C2B37964  26.516  27.567   8.502
 2853POPC   C3B37965  26.455  27.506   8.043
 2853POPC   C4B37966  26.533  27.841   7.710
 2854POPC   NC337967  25.881   9.615   9.519
 2854POPC   PO437968  26.462   9.530   9.733
 2854POPC   GL137969  26.331   9.721   9.271
 2854POPC   GL237970  25.982   9.889   9.142
 2854POPC   C1A37971  26.295   9.758   8.800
 2854POPC   D2A37972  26.356   9.620   8.413
 2854POPC   C3A37973  26.021   9.476   8.175
 2854POPC   C4A37974  26.075   9.734   7.823
 2854POPC   C1B37975  25.798  10.033   8.789
 2854POPC   C2B37976  25.805   9.877   8.401
 2854POPC   C3B37977  25.696  10.035   8.019
 2854POPC   C4B37978  25.655   9.944   7.597
 2855POPC   NC337979  41.883   5.631   9.495
 2855POPC   PO437980  41.145   5.532   9.440
 2855POPC   GL137981  41.367   5.755   9.078
 2855POPC   GL237982  41.730   5.786   9.046
 2855POPC   C1A37983  41.345   5.996   8.696
 2855POPC   D2A37984  41.321   6.092   8.232
 2855POPC   C3A37985  41.566   5.838   7.948
 2855POPC   C4A37986  41.471   5.874   7.509
 2855POPC   C1B37987  41.886   6.038   8.779
 2855POPC   C2B37988  41.780   5.989   8.400
 2855POPC   C3B37989  41.745   6.309   8.096
 2855POPC   C4B37990  41.774   6.257   7.696
 2856POPC   NC337991  14.089  44.048   9.536
 2856POPC   PO437992  13.434  43.829   9.470
 2856POPC   GL137993  13.753  43.857   9.170
 2856POPC   GL237994  13.653  44.160   9.140
 2856POPC   C1A37995  13.862  43.722   8.756
 2856POPC   D2A37996  13.762  43.462   8.397
 2856POPC   C3A37997  13.906  43.647   8.026
 2856POPC   C4A37998  13.795  43.906   7.681
 2856POPC   C1B37999  13.471  44.068   8.756
 2856POPC   C2B38000  13.670  44.015   8.368
 2856POPC   C3B38001  13.585  44.242   8.005
 2856POPC   C4B38002  13.483  44.435   7.629
 2857POPC   NC338003  37.704  33.366   9.423
 2857POPC   PO438004  37.736  32.734   9.648
 2857POPC   GL138005  37.672  32.636   9.172
 2857POPC   GL238006  37.445  32.878   9.204
 2857POPC   C1A38007  37.767  32.640   8.729
 2857POPC   D2A38008  37.907  32.553   8.327
 2857POPC   C3A38009  37.838  32.864   8.043
 2857POPC   C4A38010  37.941  32.785   7.628
 2857POPC   C1B38011  37.437  33.027   8.786
 2857POPC   C2B38012  37.645  33.203   8.437
 2857POPC   C3B38013  37.495  33.261   8.035
 2857POPC   C4B38014  37.575  33.135   7.631
 2858POPC   NC338015  31.138  30.655   9.438
 2858POPC   PO438016  31.769  30.534   9.722
 2858POPC   GL138017  31.606  30.732   9.255
 2858POPC   GL238018  31.410  30.873   9.060
 2858POPC   C1A38019  31.749  30.632   8.765
 2858POPC   D2A38020  31.699  30.330   8.411
 2858POPC   C3A38021  31.903  30.467   8.036
 2858POPC   C4A38022  31.644  30.748   7.828
 2858POPC   C1B38023  31.242  30.670   8.688
 2858POPC   C2B38024  31.042  30.550   8.305
 2858POPC   C3B38025  31.044  30.752   7.906
 2858POPC   C4B38026  31.258  30.886   7.530
 2859POPC   NC338027  10.558  22.751   9.458
 2859POPC   PO438028  10.232  23.306   9.502
 2859POPC   GL138029  10.491  23.181   9.168
 2859POPC   GL238030  10.264  22.913   9.049
 2859POPC   C1A38031  10.592  23.170   8.724
 2859POPC   D2A38032  10.456  23.294   8.327
 2859POPC   C3A38033  10.762  23.126   8.000
 2859POPC   C4A38034  10.841  22.977   7.544
 2859POPC   C1B38035  10.212  22.861   8.582
 2859POPC   C2B38036  10.445  22.769   8.235
 2859POPC   C3B38037  10.337  22.845   7.825
 2859POPC   C4B38038  10.229  22.637   7.435
 2860POPC   NC338039  34.122  36.844   9.353
 2860POPC   PO438040  33.548  37.144   9.467
 2860POPC   GL138041  33.690  37.219   9.037
 2860POPC   GL238042  34.050  37.205   8.988
 2860POPC   C1A38043  33.721  37.273   8.574
 2860POPC   D2A38044  34.083  37.201   8.321
 2860POPC   C3A38045  33.957  37.022   7.920
 2860POPC   C4A38046  33.587  36.829   7.712
 2860POPC   C1B38047  33.916  36.829   8.733
 2860POPC   C2B38048  34.118  36.680   8.376
 2860POPC   C3B38049  33.991  36.495   8.031
 2860POPC   C4B38050  34.011  36.578   7.629
 2861POPC   NC338051   5.439  39.701   9.630
 2861POPC   PO438052   6.031  40.151   9.667
 2861POPC   GL138053   6.024  39.824   9.305
 2861POPC   GL238054   5.690  39.897   9.228
 2861POPC   C1A38055   5.941  39.703   8.829
 2861POPC   D2A38056   5.700  39.747   8.450
 2861POPC   C3A38057   5.933  39.622   8.096
 2861POPC   C4A38058   5.943  39.857   7.762
 2861POPC   C1B38059   5.925  40.203   8.964
 2861POPC   C2B38060   5.846  40.262   8.545
 2861POPC   C3B38061   5.955  40.213   8.122
 2861POPC   C4B38062   5.757  40.323   7.728
 2862POPC   NC338063   1.765  41.337   9.448
 2862POPC   PO438064   2.393  41.439   9.518
 2862POPC   GL138065   2.136  41.608   9.172
 2862POPC   GL238066   1.821  41.471   8.979
 2862POPC   C1A38067   2.268  41.665   8.757
 2862POPC   D2A38068   2.536  41.579   8.412
 2862POPC   C3A38069   2.330  41.771   8.092
 2862POPC   C4A38070   2.224  41.576   7.728
 2862POPC   C1B38071   1.678  41.381   8.570
 2862POPC   C2B38072   1.887  41.483   8.162
 2862POPC   C3B38073   1.747  41.669   7.787
 2862POPC   C4B38074   1.677  41.467   7.411
 2863POPC   NC338075  20.382  43.588   9.507
 2863POPC   PO438076  21.046  43.717   9.699
 2863POPC   GL138077  20.742  43.924   9.324
 2863POPC   GL238078  20.404  44.084   9.263
 2863POPC   C1A38079  20.774  44.137   8.901
 2863POPC   D2A38080  20.686  43.951   8.493
 2863POPC   C3A38081  20.620  43.983   8.046
 2863POPC   C4A38082  20.806  44.041   7.632
 2863POPC   C1B38083  20.384  43.784   8.874
 2863POPC   C2B38084  20.216  43.696   8.454
 2863POPC   C3B38085  20.247  43.599   8.008
 2863POPC   C4B38086  20.494  43.654   7.635
 2864POPC   NC338087   4.542  21.949   9.509
 2864POPC   PO438088   4.204  22.431   9.487
 2864POPC   GL138089   4.363  22.241   9.125
 2864POPC   GL238090   4.187  21.922   9.133
 2864POPC   C1A38091   4.507  22.350   8.731
 2864POPC   D2A38092   4.336  22.278   8.343
 2864POPC   C3A38093   4.543  22.350   7.953
 2864POPC   C4A38094   4.316  22.216   7.581
 2864POPC   C1B38095   4.328  21.845   8.746
 2864POPC   C2B38096   4.122  21.826   8.375
 2864POPC   C3B38097   4.292  21.900   7.977
 2864POPC   C4B38098   4.137  21.696   7.598
 2865POPC   NC338099  38.560  17.183   9.501
 2865POPC   PO438100  38.351  17.763   9.764
 2865POPC   GL138101  38.362  17.615   9.267
 2865POPC   GL238102  38.224  17.348   9.123
 2865POPC   C1A38103  38.617  17.443   8.828
 2865POPC   D2A38104  38.639  17.616   8.413
 2865POPC   C3A38105  38.621  17.408   8.004
 2865POPC   C4A38106  38.685  17.579   7.586
 2865POPC   C1B38107  38.182  17.712   8.786
 2865POPC   C2B38108  38.055  17.914   8.397
 2865POPC   C3B38109  38.157  17.875   7.946
 2865POPC   C4B38110  38.173  17.541   7.605
 2866POPC   NC338111  38.929  39.339   9.606
 2866POPC   PO438112  38.274  39.270   9.682
 2866POPC   GL138113  38.404  39.424   9.227
 2866POPC   GL238114  38.691  39.639   9.160
 2866POPC   C1A38115  38.340  39.569   8.766
 2866POPC   D2A38116  38.236  39.757   8.351
 2866POPC   C3A38117  38.285  39.459   7.979
 2866POPC   C4A38118  38.634  39.153   7.883
 2866POPC   C1B38119  38.865  39.520   8.770
 2866POPC   C2B38120  38.725  39.460   8.333
 2866POPC   C3B38121  38.948  39.532   7.939
 2866POPC   C4B38122  38.940  39.400   7.497
 2867POPC   NC338123  27.335  29.026   9.614
 2867POPC   PO438124  27.639  29.528   9.662
 2867POPC   GL138125  27.742  29.161   9.251
 2867POPC   GL238126  27.429  29.046   9.102
 2867POPC   C1A38127  27.709  29.172   8.715
 2867POPC   D2A38128  27.384  29.158   8.358
 2867POPC   C3A38129  27.556  29.376   8.004
 2867POPC   C4A38130  27.962  29.496   7.836
 2867POPC   C1B38131  27.328  28.798   8.726
 2867POPC   C2B38132  27.441  28.606   8.330
 2867POPC   C3B38133  27.512  28.854   7.953
 2867POPC   C4B38134  27.680  29.104   7.586
 2868POPC   NC338135  30.878   0.324   9.451
 2868POPC   PO438136  30.297   0.684   9.478
 2868POPC   GL138137  30.540   0.528   9.143
 2868POPC   GL238138  30.425   0.192   9.280
 2868POPC   C1A38139  30.784   0.439   8.756
 2868POPC   D2A38140  30.641   0.595   8.344
 2868POPC   C3A38141  30.891   0.501   7.980
 2868POPC   C4A38142  30.691   0.427   7.596
 2868POPC   C1B38143  30.428   0.090   8.881
 2868POPC   C2B38144  30.647  44.957   8.554
 2868POPC   C3B38145  30.604   0.115   8.157
 2868POPC   C4B38146  30.559  44.965   7.770
 2869POPC   NC338147   9.156  42.337   9.513
 2869POPC   PO438148   8.607  41.928   9.557
 2869POPC   GL138149   8.772  42.148   9.194
 2869POPC   GL238150   8.842  42.516   9.137
 2869POPC   C1A38151   8.986  42.150   8.798
 2869POPC   D2A38152   9.228  42.059   8.441
 2869POPC   C3A38153   8.916  42.206   8.184
 2869POPC   C4A38154   8.820  42.126   7.790
 2869POPC   C1B38155   8.936  42.659   8.697
 2869POPC   C2B38156   9.222  42.604   8.311
 2869POPC   C3B38157   9.222  42.464   7.839
 2869POPC   C4B38158   9.204  42.666   7.405
 2870POPC   NC338159   2.312  37.920   9.549
 2870POPC   PO438160   2.989  37.787   9.620
 2870POPC   GL138161   2.925  37.815   9.188
 2870POPC   GL238162   2.612  37.952   9.146
 2870POPC   C1A38163   2.946  37.635   8.773
 2870POPC   D2A38164   3.145  37.688   8.356
 2870POPC   C3A38165   2.978  37.596   7.966
 2870POPC   C4A38166   2.595  37.638   7.760
 2870POPC   C1B38167   2.473  37.857   8.752
 2870POPC   C2B38168   2.686  37.900   8.368
 2870POPC   C3B38169   2.725  38.114   7.993
 2870POPC   C4B38170   2.454  38.083   7.617
 2871POPC   NC338171  14.509   8.340   9.658
 2871POPC   PO438172  14.056   8.001   9.368
 2871POPC   GL138173  14.384   8.151   9.157
 2871POPC   GL238174  14.163   8.391   8.992
 2871POPC   C1A38175  14.672   7.952   8.847
 2871POPC   D2A38176  14.732   8.123   8.435
 2871POPC   C3A38177  14.500   8.083   8.094
 2871POPC   C4A38178  14.542   8.241   7.683
 2871POPC   C1B38179  14.249   8.126   8.631
 2871POPC   C2B38180  14.032   7.981   8.261
 2871POPC   C3B38181  14.054   8.226   7.901
 2871POPC   C4B38182  14.269   8.641   7.849
 2872POPC   NC338183  12.404  34.105   9.369
 2872POPC   PO438184  12.214  34.742   9.526
 2872POPC   GL138185  12.041  34.761   9.127
 2872POPC   GL238186  12.114  34.415   9.101
 2872POPC   C1A38187  12.102  34.705   8.673
 2872POPC   D2A38188  12.014  34.564   8.216
 2872POPC   C3A38189  12.307  34.581   7.858
 2872POPC   C4A38190  12.254  34.566   7.380
 2872POPC   C1B38191  12.016  34.222   8.731
 2872POPC   C2B38192  11.721  34.176   8.397
 2872POPC   C3B38193  11.702  34.221   7.985
 2872POPC   C4B38194  11.814  34.577   7.712
 2873POPC   NC338195  44.106   1.991   9.426
 2873POPC   PO438196  43.401   1.700   9.525
 2873POPC   GL138197  43.617   1.888   9.191
 2873POPC   GL238198  43.614   2.252   9.270
 2873POPC   C1A38199  43.761   1.749   8.771
 2873POPC   D2A38200  44.127   1.795   8.498
 2873POPC   C3A38201  44.018   1.879   8.067
 2873POPC   C4A38202  44.294   1.973   7.722
 2873POPC   C1B38203  43.548   2.225   8.800
 2873POPC   C2B38204  43.800   2.266   8.392
 2873POPC   C3B38205  43.660   2.297   7.960
 2873POPC   C4B38206  43.686   2.042   7.598
 2874POPC   NC338207   2.919  20.953   9.552
 2874POPC   PO438208   2.624  20.332   9.333
 2874POPC   GL138209   2.568  20.789   9.154
 2874POPC   GL238210   2.832  21.060   9.065
 2874POPC   C1A38211   2.619  20.782   8.686
 2874POPC   D2A38212   2.763  20.420   8.405
 2874POPC   C3A38213   3.007  20.425   8.015
 2874POPC   C4A38214   2.689  20.463   7.718
 2874POPC   C1B38215   3.066  21.028   8.666
 2874POPC   C2B38216   3.030  20.880   8.243
 2874POPC   C3B38217   2.940  20.921   7.783
 2874POPC   C4B38218   3.101  20.891   7.327
 2875POPC   NC338219   2.592  10.866   9.691
 2875POPC   PO438220   3.140  10.456   9.595
 2875POPC   GL138221   2.938  10.488   9.199
 2875POPC   GL238222   2.575  10.461   9.244
 2875POPC   C1A38223   2.959  10.525   8.722
 2875POPC   D2A38224   2.806  10.619   8.300
 2875POPC   C3A38225   2.889  10.435   7.874
 2875POPC   C4A38226   2.720  10.715   7.521
 2875POPC   C1B38227   2.476  10.345   8.777
 2875POPC   C2B38228   2.510  10.209   8.331
 2875POPC   C3B38229   2.386  10.496   7.953
 2875POPC   C4B38230   2.215  10.714   7.557
 2876POPC   NC338231  20.290  22.390   9.420
 2876POPC   PO438232  20.744  21.967   9.624
 2876POPC   GL138233  20.563  22.005   9.212
 2876POPC   GL238234  20.704  22.333   9.137
 2876POPC   C1A38235  20.605  21.977   8.757
 2876POPC   D2A38236  20.662  22.208   8.378
 2876POPC   C3A38237  20.854  22.072   8.030
 2876POPC   C4A38238  20.671  22.025   7.641
 2876POPC   C1B38239  20.467  22.489   8.761
 2876POPC   C2B38240  20.404  22.649   8.318
 2876POPC   C3B38241  20.529  22.470   7.902
 2876POPC   C4B38242  20.681  22.537   7.479
 2877POPC   NC338243  19.662   1.388   9.452
 2877POPC   PO438244  20.189   1.018   9.495
 2877POPC   GL138245  20.109   1.291   9.182
 2877POPC   GL238246  19.828   1.077   9.070
 2877POPC   C1A38247  20.158   1.296   8.750
 2877POPC   D2A38248  20.019   1.206   8.344
 2877POPC   C3A38249  20.153   1.222   7.925
 2877POPC   C4A38250  19.864   0.938   7.676
 2877POPC   C1B38251  19.670   1.432   8.812
 2877POPC   C2B38252  19.544   1.440   8.399
 2877POPC   C3B38253  19.657   1.359   7.995
 2877POPC   C4B38254  19.443   1.229   7.662
 2878POPC   NC338255  23.597  11.865   9.483
 2878POPC   PO438256  23.517  12.493   9.434
 2878POPC   GL138257  23.455  12.218   9.085
 2878POPC   GL238258  23.789  12.192   9.073
 2878POPC   C1A38259  23.508  11.990   8.668
 2878POPC   D2A38260  23.652  11.762   8.267
 2878POPC   C3A38261  23.451  11.902   7.902
 2878POPC   C4A38262  23.513  12.073   7.491
 2878POPC   C1B38263  23.910  12.352   8.696
 2878POPC   C2B38264  23.953  12.175   8.305
 2878POPC   C3B38265  23.849  12.290   7.886
 2878POPC   C4B38266  24.008  12.353   7.476
 2879POPC   NC338267  25.168  38.597   9.551
 2879POPC   PO438268  25.376  38.015   9.752
 2879POPC   GL138269  25.332  38.119   9.192
 2879POPC   GL238270  25.304  38.484   9.094
 2879POPC   C1A38271  25.234  38.220   8.698
 2879POPC   D2A38272  25.344  38.541   8.368
 2879POPC   C3A38273  25.467  38.302   8.012
 2879POPC   C4A38274  25.192  38.132   7.684
 2879POPC   C1B38275  24.971  38.759   8.891
 2879POPC   C2B38276  24.821  38.747   8.484
 2879POPC   C3B38277  24.854  38.608   8.092
 2879POPC   C4B38278  25.138  38.644   7.758
 2880POPC   NC338279  18.024  43.250   9.616
 2880POPC   PO438280  18.268  42.580   9.594
 2880POPC   GL138281  18.206  42.912   9.217
 2880POPC   GL238282  18.087  43.290   9.129
 2880POPC   C1A38283  18.329  42.986   8.789
 2880POPC   D2A38284  18.505  42.920   8.401
 2880POPC   C3A38285  18.461  43.179   8.046
 2880POPC   C4A38286  18.758  43.245   7.720
 2880POPC   C1B38287  17.890  43.264   8.733
 2880POPC   C2B38288  17.992  43.157   8.303
 2880POPC   C3B38289  17.935  43.279   7.860
 2880POPC   C4B38290  17.946  43.393   7.416
 2881POPC   NC338291   5.028  27.927   9.848
 2881POPC   PO438292   4.814  28.436   9.442
 2881POPC   GL138293   4.949  28.463   9.039
 2881POPC   GL238294   5.249  28.649   9.025
 2881POPC   C1A38295   4.722  28.293   8.718
 2881POPC   D2A38296   4.802  28.058   8.377
 2881POPC   C3A38297   4.943  28.321   8.109
 2881POPC   C4A38298   4.778  28.300   7.733
 2881POPC   C1B38299   5.195  28.504   8.592
 2881POPC   C2B38300   5.400  28.544   8.201
 2881POPC   C3B38301   5.403  28.180   7.928
 2881POPC   C4B38302   5.129  27.925   7.797
 2882POPC   NC338303  25.982  19.875   9.613
 2882POPC   PO438304  26.624  20.185   9.629
 2882POPC   GL138305  26.283  20.104   9.295
 2882POPC   GL238306  26.376  19.763   9.220
 2882POPC   C1A38307  26.061  19.965   8.890
 2882POPC   D2A38308  26.081  19.897   8.424
 2882POPC   C3A38309  25.926  20.203   8.100
 2882POPC   C4A38310  25.736  20.152   7.659
 2882POPC   C1B38311  26.456  19.599   8.806
 2882POPC   C2B38312  26.369  19.383   8.404
 2882POPC   C3B38313  26.013  19.423   8.153
 2882POPC   C4B38314  25.917  19.732   7.879
 2883POPC   NC338315  36.872  34.125   9.596
 2883POPC   PO438316  37.227  33.585   9.463
 2883POPC   GL138317  37.023  33.812   9.185
 2883POPC   GL238318  36.672  33.834   9.218
 2883POPC   C1A38319  37.041  33.967   8.802
 2883POPC   D2A38320  37.121  34.126   8.420
 2883POPC   C3A38321  36.842  34.009   8.054
 2883POPC   C4A38322  37.019  33.960   7.638
 2883POPC   C1B38323  36.468  33.829   8.804
 2883POPC   C2B38324  36.435  33.961   8.366
 2883POPC   C3B38325  36.415  33.660   8.062
 2883POPC   C4B38326  36.582  33.685   7.692
 2884POPC   NC338327  26.968  26.083   9.804
 2884POPC   PO438328  26.411  25.774   9.525
 2884POPC   GL138329  26.803  25.947   9.265
 2884POPC   GL238330  27.071  25.702   9.248
 2884POPC   C1A38331  26.992  26.035   8.830
 2884POPC   D2A38332  26.751  26.061   8.424
 2884POPC   C3A38333  26.782  26.337   8.095
 2884POPC   C4A38334  26.669  26.211   7.683
 2884POPC   C1B38335  27.192  25.573   8.828
 2884POPC   C2B38336  27.093  25.705   8.417
 2884POPC   C3B38337  26.948  25.845   7.992
 2884POPC   C4B38338  27.029  25.847   7.551
 2885POPC   NC338339   3.947  35.138   9.363
 2885POPC   PO438340   3.427  35.415   9.571
 2885POPC   GL138341   3.598  35.482   9.150
 2885POPC   GL238342   3.303  35.647   9.090
 2885POPC   C1A38343   3.748  35.375   8.713
 2885POPC   D2A38344   3.896  35.035   8.384
 2885POPC   C3A38345   3.765  35.074   7.921
 2885POPC   C4A38346   3.703  35.374   7.549
 2885POPC   C1B38347   3.257  35.347   8.737
 2885POPC   C2B38348   3.437  35.290   8.295
 2885POPC   C3B38349   3.281  35.250   7.838
 2885POPC   C4B38350   3.014  35.101   7.453
 2886POPC   NC338351  31.531  24.989   9.430
 2886POPC   PO438352  31.463  25.579   9.386
 2886POPC   GL138353  31.351  25.270   9.053
 2886POPC   GL238354  31.721  25.169   8.994
 2886POPC   C1A38355  31.215  25.081   8.651
 2886POPC   D2A38356  31.322  24.923   8.217
 2886POPC   C3A38357  31.323  25.203   7.850
 2886POPC   C4A38358  31.162  25.058   7.417
 2886POPC   C1B38359  31.656  25.533   8.724
 2886POPC   C2B38360  31.534  25.385   8.323
 2886POPC   C3B38361  31.788  25.096   8.032
 2886POPC   C4B38362  31.811  25.297   7.613
 2887POPC   NC338363  15.333   8.723   9.480
 2887POPC   PO438364  15.013   9.298   9.457
 2887POPC   GL138365  14.873   9.040   9.090
 2887POPC   GL238366  15.037   8.711   9.080
 2887POPC   C1A38367  14.876   8.873   8.648
 2887POPC   D2A38368  15.127   8.997   8.342
 2887POPC   C3A38369  14.936   9.175   8.001
 2887POPC   C4A38370  15.138   9.134   7.641
 2887POPC   C1B38371  15.356   8.720   8.743
 2887POPC   C2B38372  15.544   8.668   8.307
 2887POPC   C3B38373  15.278   8.708   7.903
 2887POPC   C4B38374  15.376   8.756   7.425
 2888POPC   NC338375  20.820  19.065   9.497
 2888POPC   PO438376  20.232  18.814   9.233
 2888POPC   GL138377  20.586  18.878   9.048
 2888POPC   GL238378  20.570  19.197   9.060
 2888POPC   C1A38379  20.573  18.923   8.608
 2888POPC   D2A38380  20.393  18.657   8.261
 2888POPC   C3A38381  20.483  18.923   7.928
 2888POPC   C4A38382  20.625  18.843   7.495
 2888POPC   C1B38383  20.321  19.371   8.727
 2888POPC   C2B38384  20.418  19.485   8.292
 2888POPC   C3B38385  20.644  19.396   7.884
 2888POPC   C4B38386  20.332  19.253   7.535
 2889POPC   NC338387  38.139  13.575   9.440
 2889POPC   PO438388  38.804  13.880   9.627
 2889POPC   GL138389  38.642  13.867   9.130
 2889POPC   GL238390  38.251  13.919   9.066
 2889POPC   C1A38391  38.488  13.678   8.702
 2889POPC   D2A38392  38.611  13.468   8.320
 2889POPC   C3A38393  38.356  13.478   7.989
 2889POPC   C4A38394  38.559  13.553   7.624
 2889POPC   C1B38395  38.197  14.121   8.677
 2889POPC   C2B38396  38.327  13.973   8.271
 2889POPC   C3B38397  38.241  13.949   7.803
 2889POPC   C4B38398  38.064  14.040   7.387
 2890POPC   NC338399  41.898  42.514   9.480
 2890POPC   PO438400  42.473  42.218   9.533
 2890POPC   GL138401  42.357  42.473   9.212
 2890POPC   GL238402  42.644  42.706   9.187
 2890POPC   C1A38403  42.142  42.343   8.842
 2890POPC   D2A38404  42.381  42.193   8.494
 2890POPC   C3A38405  42.292  42.272   8.063
 2890POPC   C4A38406  42.080  42.378   7.684
 2890POPC   C1B38407  42.602  42.605   8.759
 2890POPC   C2B38408  42.676  42.844   8.379
 2890POPC   C3B38409  42.622  42.682   7.963
 2890POPC   C4B38410  42.750  42.288   7.750
 2891POPC   NC338411  26.424  14.762   9.438
 2891POPC   PO438412  25.785  14.628   9.557
 2891POPC   GL138413  25.780  14.376   9.187
 2891POPC   GL238414  26.086  14.540   9.116
 2891POPC   C1A38415  25.766  14.428   8.738
 2891POPC   D2A38416  26.022  14.604   8.417
 2891POPC   C3A38417  25.944  14.625   8.029
 2891POPC   C4A38418  25.722  14.477   7.686
 2891POPC   C1B38419  26.342  14.714   8.782
 2891POPC   C2B38420  26.537  14.491   8.457
 2891POPC   C3B38421  26.390  14.351   8.074
 2891POPC   C4B38422  26.356  14.601   7.710
 2892POPC   NC338423  38.127  12.100   9.719
 2892POPC   PO438424  37.431  12.264   9.579
 2892POPC   GL138425  37.556  12.034   9.239
 2892POPC   GL238426  37.819  12.220   9.152
 2892POPC   C1A38427  37.453  12.142   8.810
 2892POPC   D2A38428  37.595  12.299   8.395
 2892POPC   C3A38429  37.675  11.967   8.095
 2892POPC   C4A38430  37.479  11.971   7.704
 2892POPC   C1B38431  37.968  12.110   8.709
 2892POPC   C2B38432  38.105  12.343   8.317
 2892POPC   C3B38433  38.070  12.254   7.870
 2892POPC   C4B38434  37.937  12.155   7.423
 2893POPC   NC338435   3.847  18.091   9.516
 2893POPC   PO438436   3.428  18.562   9.505
 2893POPC   GL138437   3.552  18.369   9.119
 2893POPC   GL238438   3.485  18.025   9.147
 2893POPC   C1A38439   3.564  18.478   8.680
 2893POPC   D2A38440   3.800  18.591   8.324
 2893POPC   C3A38441   3.560  18.550   7.989
 2893POPC   C4A38442   3.490  18.170   7.772
 2893POPC   C1B38443   3.609  17.956   8.731
 2893POPC   C2B38444   3.658  18.091   8.300
 2893POPC   C3B38445   3.827  17.869   7.965
 2893POPC   C4B38446   3.679  17.677   7.529
 2894POPC   NC338447  36.463  43.506   9.348
 2894POPC   PO438448  35.952  43.920   9.583
 2894POPC   GL138449  35.991  43.699   9.186
 2894POPC   GL238450  36.015  43.309   9.215
 2894POPC   C1A38451  36.060  43.859   8.753
 2894POPC   D2A38452  35.843  43.955   8.353
 2894POPC   C3A38453  36.092  43.844   7.992
 2894POPC   C4A38454  36.427  44.075   7.761
 2894POPC   C1B38455  35.912  43.203   8.822
 2894POPC   C2B38456  35.950  43.433   8.439
 2894POPC   C3B38457  35.999  43.327   8.040
 2894POPC   C4B38458  36.038  43.501   7.638
 2895POPC   NC338459  13.327   6.633   9.550
 2895POPC   PO438460  14.011   6.384   9.518
 2895POPC   GL138461  13.680   6.661   9.193
 2895POPC   GL238462  13.586   6.453   8.956
 2895POPC   C1A38463  13.597   6.900   8.750
 2895POPC   D2A38464  13.698   7.054   8.314
 2895POPC   C3A38465  13.753   6.716   8.024
 2895POPC   C4A38466  14.051   6.384   7.995
 2895POPC   C1B38467  13.937   6.273   8.816
 2895POPC   C2B38468  13.804   6.385   8.442
 2895POPC   C3B38469  13.581   6.174   8.123
 2895POPC   C4B38470  13.425   6.409   7.788
 2896POPC   NC338471  38.035  18.032   9.559
 2896POPC   PO438472  37.418  18.384   9.570
 2896POPC   GL138473  37.592  18.293   9.199
 2896POPC   GL238474  37.906  18.419   9.205
 2896POPC   C1A38475  37.717  18.125   8.812
 2896POPC   D2A38476  37.504  18.089   8.426
 2896POPC   C3A38477  37.705  18.130   8.068
 2896POPC   C4A38478  37.562  18.200   7.680
 2896POPC   C1B38479  38.125  18.465   8.852
 2896POPC   C2B38480  37.976  18.410   8.472
 2896POPC   C3B38481  37.987  18.541   8.086
 2896POPC   C4B38482  38.051  18.324   7.707
 2897POPC   NC338483   8.618  23.046   9.434
 2897POPC   PO438484   9.236  23.310   9.587
 2897POPC   GL138485   9.062  23.087   9.233
 2897POPC   GL238486   9.057  22.722   9.304
 2897POPC   C1A38487   8.871  22.945   8.844
 2897POPC   D2A38488   8.882  23.147   8.462
 2897POPC   C3A38489   9.023  22.988   8.111
 2897POPC   C4A38490   8.887  23.052   7.733
 2897POPC   C1B38491   9.321  22.693   8.942
 2897POPC   C2B38492   9.193  22.706   8.525
 2897POPC   C3B38493   9.105  22.487   8.148
 2897POPC   C4B38494   9.309  22.625   7.809
 2898POPC   NC338495  22.870   2.631   9.498
 2898POPC   PO438496  22.497   3.238   9.469
 2898POPC   GL138497  22.630   2.902   9.129
 2898POPC   GL238498  22.707   2.481   9.064
 2898POPC   C1A38499  22.913   2.918   8.813
 2898POPC   D2A38500  22.894   3.157   8.467
 2898POPC   C3A38501  22.933   3.029   8.078
 2898POPC   C4A38502  23.282   3.076   7.819
 2898POPC   C1B38503  22.495   2.417   8.716
 2898POPC   C2B38504  22.720   2.640   8.411
 2898POPC   C3B38505  22.794   2.563   7.985
 2898POPC   C4B38506  22.857   2.774   7.597
 2899POPC   NC338507  32.314   8.359   9.554
 2899POPC   PO438508  31.940   7.739   9.544
 2899POPC   GL138509  32.008   8.051   9.231
 2899POPC   GL238510  32.354   7.989   9.209
 2899POPC   C1A38511  32.088   8.350   8.878
 2899POPC   D2A38512  32.232   8.458   8.438
 2899POPC   C3A38513  32.041   8.341   8.033
 2899POPC   C4A38514  32.018   7.928   7.840
 2899POPC   C1B38515  32.281   7.754   8.901
 2899POPC   C2B38516  32.090   7.902   8.533
 2899POPC   C3B38517  32.383   8.001   8.221
 2899POPC   C4B38518  32.545   8.051   7.825
 2900POPC   NC338519  19.145  27.241   9.612
 2900POPC   PO438520  19.059  26.595   9.696
 2900POPC   GL138521  19.012  26.797   9.288
 2900POPC   GL238522  18.766  27.045   9.319
 2900POPC   C1A38523  19.149  26.674   8.859
 2900POPC   D2A38524  19.258  26.849   8.464
 2900POPC   C3A38525  19.197  26.639   8.059
 2900POPC   C4A38526  19.153  26.703   7.622
 2900POPC   C1B38527  18.822  27.077   8.889
 2900POPC   C2B38528  18.844  27.163   8.494
 2900POPC   C3B38529  19.029  27.138   8.120
 2900POPC   C4B38530  19.022  27.191   7.716
 2901POPC   NC338531  10.012  26.414   9.483
 2901POPC   PO438532   9.584  26.984   9.374
 2901POPC   GL138533   9.738  26.672   9.113
 2901POPC   GL238534  10.082  26.820   9.166
 2901POPC   C1A38535   9.567  26.647   8.701
 2901POPC   D2A38536   9.770  26.965   8.440
 2901POPC   C3A38537   9.600  26.982   8.049
 2901POPC   C4A38538   9.376  26.783   7.745
 2901POPC   C1B38539  10.084  27.125   8.827
 2901POPC   C2B38540  10.279  27.121   8.449
 2901POPC   C3B38541  10.128  27.034   8.030
 2901POPC   C4B38542  10.085  26.960   7.579
 2902POPC   NC338543  30.321  44.506   9.591
 2902POPC   PO438544  29.788  44.833   9.607
 2902POPC   GL138545  29.704  44.888   9.213
 2902POPC   GL238546  30.055  44.851   9.158
 2902POPC   C1A38547  29.701  44.626   8.842
 2902POPC   D2A38548  29.703  44.772   8.438
 2902POPC   C3A38549  29.634  44.527   8.095
 2902POPC   C4A38550  29.772  44.437   7.696
 2902POPC   C1B38551  29.932   0.080   8.795
 2902POPC   C2B38552  30.144   0.088   8.420
 2902POPC   C3B38553  29.993  44.966   8.036
 2902POPC   C4B38554  30.082   0.075   7.633
 2903POPC   NC338555  17.082  35.664   9.884
 2903POPC   PO438556  17.514  35.299   9.511
 2903POPC   GL138557  17.423  35.228   9.124
 2903POPC   GL238558  17.108  35.383   9.152
 2903POPC   C1A38559  17.392  35.206   8.717
 2903POPC   D2A38560  17.454  35.095   8.306
 2903POPC   C3A38561  17.705  35.429   8.134
 2903POPC   C4A38562  17.603  35.449   7.709
 2903POPC   C1B38563  17.160  35.664   8.787
 2903POPC   C2B38564  17.254  35.565   8.382
 2903POPC   C3B38565  17.198  35.433   8.012
 2903POPC   C4B38566  17.107  35.559   7.594
 2904POPC   NC338567  32.899   8.562  10.090
 2904POPC   PO438568  33.341   8.884   9.641
 2904POPC   GL138569  33.237   8.961   9.201
 2904POPC   GL238570  32.987   8.754   9.193
 2904POPC   C1A38571  33.094   9.078   8.777
 2904POPC   D2A38572  33.316   9.119   8.362
 2904POPC   C3A38573  33.224   9.246   7.914
 2904POPC   C4A38574  32.984   9.100   7.487
 2904POPC   C1B38575  32.789   8.674   8.801
 2904POPC   C2B38576  32.921   8.780   8.413
 2904POPC   C3B38577  33.133   8.640   8.100
 2904POPC   C4B38578  33.260   8.767   7.722
 2905POPC   NC338579   3.613  44.323   9.843
 2905POPC   PO438580   3.688  43.704   9.552
 2905POPC   GL138581   3.487  43.686   9.146
 2905POPC   GL238582   3.396  44.006   8.960
 2905POPC   C1A38583   3.475  43.529   8.754
 2905POPC   D2A38584   3.422  43.837   8.475
 2905POPC   C3A38585   3.586  43.687   8.099
 2905POPC   C4A38586   3.512  43.804   7.717
 2905POPC   C1B38587   3.719  44.251   8.767
 2905POPC   C2B38588   3.755  44.427   8.392
 2905POPC   C3B38589   3.630  44.199   8.064
 2905POPC   C4B38590   3.782  44.268   7.712
 2906POPC   NC338591  21.623  10.150   9.433
 2906POPC   PO438592  21.107   9.743   9.685
 2906POPC   GL138593  21.366   9.720   9.234
 2906POPC   GL238594  21.633   9.939   8.987
 2906POPC   C1A38595  21.309   9.651   8.759
 2906POPC   D2A38596  21.395   9.962   8.415
 2906POPC   C3A38597  21.138   9.804   8.077
 2906POPC   C4A38598  21.191   9.381   7.843
 2906POPC   C1B38599  21.802   9.671   8.609
 2906POPC   C2B38600  21.614   9.530   8.206
 2906POPC   C3B38601  21.569   9.787   7.836
 2906POPC   C4B38602  21.627  10.032   7.454
 2907POPC   NC338603   2.985  35.256   9.611
 2907POPC   PO438604   2.506  34.783   9.587
 2907POPC   GL138605   2.728  35.050   9.192
 2907POPC   GL238606   2.852  35.417   9.140
 2907POPC   C1A38607   2.783  35.169   8.712
 2907POPC   D2A38608   2.936  35.376   8.312
 2907POPC   C3A38609   2.774  35.173   7.932
 2907POPC   C4A38610   2.525  35.282   7.570
 2907POPC   C1B38611   2.892  35.703   8.749
 2907POPC   C2B38612   2.864  35.954   8.351
 2907POPC   C3B38613   3.054  35.908   7.948
 2907POPC   C4B38614   2.959  35.575   7.624
 2908POPC   NC338615  37.928   8.922   9.502
 2908POPC   PO438616  37.324   9.398   9.479
 2908POPC   GL138617  37.536   9.138   9.135
 2908POPC   GL238618  37.918   9.172   9.073
 2908POPC   C1A38619  37.603   8.946   8.701
 2908POPC   D2A38620  37.757   8.602   8.409
 2908POPC   C3A38621  37.797   8.664   7.965
 2908POPC   C4A38622  37.495   8.810   7.652
 2908POPC   C1B38623  37.763   9.447   8.785
 2908POPC   C2B38624  37.559   9.410   8.414
 2908POPC   C3B38625  37.633   9.148   8.063
 2908POPC   C4B38626  37.601   9.298   7.657
 2909POPC   NC338627  28.912   6.831   9.673
 2909POPC   PO438628  29.471   6.617   9.566
 2909POPC   GL138629  29.361   6.784   9.164
 2909POPC   GL238630  29.007   6.676   9.171
 2909POPC   C1A38631  29.450   6.741   8.710
 2909POPC   D2A38632  29.260   6.623   8.316
 2909POPC   C3A38633  29.186   6.913   7.989
 2909POPC   C4A38634  29.531   7.002   7.728
 2909POPC   C1B38635  28.882   6.694   8.731
 2909POPC   C2B38636  28.770   6.465   8.344
 2909POPC   C3B38637  28.862   6.512   7.887
 2909POPC   C4B38638  28.810   6.570   7.421
 2910POPC   NC338639  33.556  43.222   9.511
 2910POPC   PO438640  34.121  42.840   9.422
 2910POPC   GL138641  33.914  43.088   9.116
 2910POPC   GL238642  33.650  42.884   9.124
 2910POPC   C1A38643  33.979  43.403   8.773
 2910POPC   D2A38644  34.197  43.465   8.378
 2910POPC   C3A38645  33.910  43.442   8.044
 2910POPC   C4A38646  33.904  43.200   7.677
 2910POPC   C1B38647  33.446  42.763   8.763
 2910POPC   C2B38648  33.581  42.655   8.329
 2910POPC   C3B38649  33.444  42.604   7.887
 2910POPC   C4B38650  33.559  42.799   7.505
 2911POPC   NC338651  42.163  10.519   9.637
 2911POPC   PO438652  42.573  11.009   9.616
 2911POPC   GL138653  42.288  11.004   9.217
 2911POPC   GL238654  42.203  10.640   9.140
 2911POPC   C1A38655  42.255  10.930   8.735
 2911POPC   D2A38656  42.279  10.618   8.402
 2911POPC   C3A38657  42.312  10.800   8.009
 2911POPC   C4A38658  42.545  10.701   7.655
 2911POPC   C1B38659  42.217  10.297   8.815
 2911POPC   C2B38660  42.083  10.136   8.404
 2911POPC   C3B38661  42.175  10.265   7.999
 2911POPC   C4B38662  42.073  10.498   7.656
 2912POPC   NC338663   8.885  40.202   9.745
 2912POPC   PO438664   9.457  40.308   9.706
 2912POPC   GL138665   9.221  39.981   9.383
 2912POPC   GL238666   9.133  40.234   9.184
 2912POPC   C1A38667   9.052  39.822   8.906
 2912POPC   D2A38668   9.006  40.004   8.465
 2912POPC   C3A38669   8.830  39.778   8.087
 2912POPC   C4A38670   8.689  39.976   7.713
 2912POPC   C1B38671   9.390  40.218   8.810
 2912POPC   C2B38672   9.467  40.225   8.384
 2912POPC   C3B38673   9.306  40.439   8.031
 2912POPC   C4B38674   9.426  40.387   7.612
 2913POPC   NC338675  24.136  40.614   9.457
 2913POPC   PO438676  23.641  41.073   9.411
 2913POPC   GL138677  23.954  40.943   9.092
 2913POPC   GL238678  24.078  40.586   8.957
 2913POPC   C1A38679  23.770  40.935   8.701
 2913POPC   D2A38680  23.832  40.709   8.350
 2913POPC   C3A38681  23.752  40.886   7.953
 2913POPC   C4A38682  24.093  40.893   7.706
 2913POPC   C1B38683  23.696  40.399   8.778
 2913POPC   C2B38684  23.486  40.327   8.394
 2913POPC   C3B38685  23.725  40.349   8.011
 2913POPC   C4B38686  23.422  40.480   7.723
 2914POPC   NC338687  14.864  22.018   9.503
 2914POPC   PO438688  14.154  22.256   9.531
 2914POPC   GL138689  14.264  22.225   9.136
 2914POPC   GL238690  14.470  21.932   9.143
 2914POPC   C1A38691  14.294  22.136   8.707
 2914POPC   D2A38692  14.636  22.215   8.452
 2914POPC   C3A38693  14.593  22.266   8.022
 2914POPC   C4A38694  14.314  22.508   7.802
 2914POPC   C1B38695  14.765  21.820   8.793
 2914POPC   C2B38696  14.851  21.635   8.377
 2914POPC   C3B38697  14.735  21.762   7.959
 2914POPC   C4B38698  14.339  21.865   7.797
 2915POPC   NC338699   3.567  14.962   9.610
 2915POPC   PO438700   3.029  14.619   9.384
 2915POPC   GL138701   3.318  14.953   9.166
 2915POPC   GL238702   3.734  15.001   9.147
 2915POPC   C1A38703   3.433  15.194   8.807
 2915POPC   D2A38704   3.489  15.012   8.426
 2915POPC   C3A38705   3.324  15.321   8.167
 2915POPC   C4A38706   3.317  15.257   7.767
 2915POPC   C1B38707   3.982  14.892   8.777
 2915POPC   C2B38708   4.036  14.997   8.337
 2915POPC   C3B38709   3.773  15.125   7.988
 2915POPC   C4B38710   3.656  14.943   7.569
 2916POPC   NC338711  13.332  21.059   9.480
 2916POPC   PO438712  13.759  20.509   9.423
 2916POPC   GL138713  13.630  20.800   9.154
 2916POPC   GL238714  13.273  20.754   9.084
 2916POPC   C1A38715  13.655  20.925   8.756
 2916POPC   D2A38716  13.398  20.756   8.454
 2916POPC   C3A38717  13.543  20.801   8.048
 2916POPC   C4A38718  13.735  21.006   7.676
 2916POPC   C1B38719  13.122  20.470   8.784
 2916POPC   C2B38720  13.228  20.270   8.388
 2916POPC   C3B38721  13.202  20.407   7.962
 2916POPC   C4B38722  13.596  20.386   7.756
 2917POPC   NC338723   8.634  33.742   9.443
 2917POPC   PO438724   9.235  33.745   9.516
 2917POPC   GL138725   9.037  33.837   9.136
 2917POPC   GL238726   9.035  33.526   8.962
 2917POPC   C1A38727   8.922  33.951   8.696
 2917POPC   D2A38728   9.081  33.601   8.425
 2917POPC   C3A38729   9.127  33.731   8.007
 2917POPC   C4A38730   9.043  34.139   7.908
 2917POPC   C1B38731   8.623  33.542   8.740
 2917POPC   C2B38732   8.515  33.778   8.392
 2917POPC   C3B38733   8.606  33.693   7.987
 2917POPC   C4B38734   8.639  33.355   7.700
 2918POPC   NC338735  35.832  23.782   9.356
 2918POPC   PO438736  35.261  23.567   9.500
 2918POPC   GL138737  35.308  23.882   9.236
 2918POPC   GL238738  35.486  23.695   8.997
 2918POPC   C1A38739  35.101  23.982   8.869
 2918POPC   D2A38740  35.352  24.009   8.523
 2918POPC   C3A38741  35.149  23.838   8.173
 2918POPC   C4A38742  35.400  23.828   7.857
 2918POPC   C1B38743  35.231  23.497   8.706
 2918POPC   C2B38744  35.404  23.389   8.302
 2918POPC   C3B38745  35.746  23.485   8.031
 2918POPC   C4B38746  35.776  23.616   7.578
 2919POPC   NC338747   7.324  18.934   9.754
 2919POPC   PO438748   7.407  19.492   9.496
 2919POPC   GL138749   7.455  19.130   9.254
 2919POPC   GL238750   7.161  18.964   9.177
 2919POPC   C1A38751   7.535  19.042   8.821
 2919POPC   D2A38752   7.418  19.181   8.435
 2919POPC   C3A38753   7.648  19.139   8.080
 2919POPC   C4A38754   7.435  19.073   7.703
 2919POPC   C1B38755   7.045  18.734   8.816
 2919POPC   C2B38756   6.982  18.907   8.432
 2919POPC   C3B38757   7.111  18.978   8.069
 2919POPC   C4B38758   7.025  18.675   7.734
 2920POPC   NC338759  10.084   1.987   9.550
 2920POPC   PO438760   9.361   2.165   9.657
 2920POPC   GL138761   9.655   2.131   9.256
 2920POPC   GL238762   9.762   1.837   9.138
 2920POPC   C1A38763   9.534   2.211   8.769
 2920POPC   D2A38764   9.670   2.111   8.320
 2920POPC   C3A38765   9.450   2.227   7.921
 2920POPC   C4A38766   9.447   2.466   7.533
 2920POPC   C1B38767  10.017   2.152   8.879
 2920POPC   C2B38768  10.199   2.180   8.472
 2920POPC   C3B38769  10.159   1.911   8.140
 2920POPC   C4B38770   9.859   1.922   7.814
 2921POPC   NC338771  24.129  25.760   9.483
 2921POPC   PO438772  24.116  25.084   9.593
 2921POPC   GL138773  24.371  25.189   9.214
 2921POPC   GL238774  24.458  25.560   9.146
 2921POPC   C1A38775  24.383  25.253   8.761
 2921POPC   D2A38776  24.617  25.233   8.394
 2921POPC   C3A38777  24.417  25.092   8.038
 2921POPC   C4A38778  24.649  25.211   7.659
 2921POPC   C1B38779  24.188  25.726   8.807
 2921POPC   C2B38780  24.288  25.659   8.383
 2921POPC   C3B38781  24.466  25.601   7.997
 2921POPC   C4B38782  24.255  25.580   7.615
 2922POPC   NC338783  22.667  29.217   9.325
 2922POPC   PO438784  23.296  29.501   9.327
 2922POPC   GL138785  23.128  29.129   9.097
 2922POPC   GL238786  23.245  28.767   9.171
 2922POPC   C1A38787  22.879  29.060   8.681
 2922POPC   D2A38788  22.623  29.278   8.340
 2922POPC   C3A38789  22.708  29.403   7.888
 2922POPC   C4A38790  23.023  29.500   7.551
 2922POPC   C1B38791  23.345  28.855   8.737
 2922POPC   C2B38792  23.156  28.760   8.350
 2922POPC   C3B38793  23.258  28.752   7.931
 2922POPC   C4B38794  22.965  28.971   7.689
 2923POPC   NC338795  34.052  41.985   9.512
 2923POPC   PO438796  33.669  41.455   9.752
 2923POPC   GL138797  33.754  41.582   9.291
 2923POPC   GL238798  34.100  41.609   9.120
 2923POPC   C1A38799  33.615  41.603   8.858
 2923POPC   D2A38800  33.514  41.533   8.420
 2923POPC   C3A38801  33.780  41.633   8.066
 2923POPC   C4A38802  33.775  41.348   7.713
 2923POPC   C1B38803  34.028  41.295   8.745
 2923POPC   C2B38804  33.897  41.190   8.319
 2923POPC   C3B38805  34.203  41.284   7.989
 2923POPC   C4B38806  34.254  41.714   7.826
 2924POPC   NC338807   9.471  10.653   9.425
 2924POPC   PO438808   9.741  10.127   9.708
 2924POPC   GL138809   9.986  10.263   9.216
 2924POPC   GL238810   9.943  10.638   9.162
 2924POPC   C1A38811   9.850  10.330   8.754
 2924POPC   D2A38812   9.855  10.544   8.414
 2924POPC   C3A38813   9.842  10.358   8.047
 2924POPC   C4A38814   9.766  10.507   7.679
 2924POPC   C1B38815   9.627  10.819   8.841
 2924POPC   C2B38816   9.496  10.927   8.437
 2924POPC   C3B38817   9.583  10.859   8.010
 2924POPC   C4B38818   9.379  10.894   7.625
 2925POPC   NC338819  14.560   3.634   9.203
 2925POPC   PO438820  14.133   3.272   9.598
 2925POPC   GL138821  14.037   3.354   9.192
 2925POPC   GL238822  14.072   3.703   9.027
 2925POPC   C1A38823  14.227   3.236   8.806
 2925POPC   D2A38824  14.224   3.540   8.534
 2925POPC   C3A38825  14.177   3.490   8.143
 2925POPC   C4A38826  14.450   3.425   7.870
 2925POPC   C1B38827  14.318   3.991   8.703
 2925POPC   C2B38828  14.571   4.141   8.361
 2925POPC   C3B38829  14.618   3.904   7.989
 2925POPC   C4B38830  14.336   3.873   7.660
 2926POPC   NC338831  35.612  24.551   9.581
 2926POPC   PO438832  34.977  24.408   9.574
 2926POPC   GL138833  35.141  24.373   9.196
 2926POPC   GL238834  35.273  24.664   9.171
 2926POPC   C1A38835  34.989  24.450   8.751
 2926POPC   D2A38836  34.883  24.183   8.439
 2926POPC   C3A38837  35.048  24.359   8.064
 2926POPC   C4A38838  35.251  24.293   7.671
 2926POPC   C1B38839  35.474  24.434   8.825
 2926POPC   C2B38840  35.578  24.521   8.430
 2926POPC   C3B38841  35.535  24.566   8.026
 2926POPC   C4B38842  35.234  24.784   7.782
 2927POPC   NC338843  30.938  23.307   9.537
 2927POPC   PO438844  30.459  22.836   9.644
 2927POPC   GL138845  30.603  22.997   9.246
 2927POPC   GL238846  30.961  22.879   9.245
 2927POPC   C1A38847  30.529  22.971   8.782
 2927POPC   D2A38848  30.520  23.191   8.358
 2927POPC   C3A38849  30.435  22.936   7.962
 2927POPC   C4A38850  30.467  23.031   7.486
 2927POPC   C1B38851  31.008  23.164   8.891
 2927POPC   C2B38852  30.996  23.023   8.481
 2927POPC   C3B38853  30.939  23.000   8.054
 2927POPC   C4B38854  30.856  22.778   7.697
 2928POPC   NC338855  17.172  16.851   9.702
 2928POPC   PO438856  17.281  16.259   9.433
 2928POPC   GL138857  17.464  16.652   9.313
 2928POPC   GL238858  17.652  16.488   9.074
 2928POPC   C1A38859  17.422  16.942   8.948
 2928POPC   D2A38860  17.286  16.767   8.537
 2928POPC   C3A38861  17.330  16.899   8.098
 2928POPC   C4A38862  17.337  17.135   7.722
 2928POPC   C1B38863  17.811  16.694   8.715
 2928POPC   C2B38864  17.770  16.641   8.284
 2928POPC   C3B38865  17.813  16.774   7.880
 2928POPC   C4B38866  17.973  16.613   7.488
 2929POPC   NC338867  38.088   0.383   9.371
 2929POPC   PO438868  37.486   0.174   9.508
 2929POPC   GL138869  37.630   0.293   9.136
 2929POPC   GL238870  37.675  44.987   9.043
 2929POPC   C1A38871  37.750   0.514   8.752
 2929POPC   D2A38872  37.935   0.472   8.350
 2929POPC   C3A38873  37.669   0.559   8.003
 2929POPC   C4A38874  37.786   0.465   7.576
 2929POPC   C1B38875  38.000   0.065   8.777
 2929POPC   C2B38876  37.868  44.940   8.415
 2929POPC   C3B38877  37.718   0.071   8.059
 2929POPC   C4B38878  37.755  44.925   7.696
 2930POPC   NC338879  42.673   3.340   9.570
 2930POPC   PO438880  42.113   3.486   9.893
 2930POPC   GL138881  42.276   3.556   9.362
 2930POPC   GL238882  42.617   3.454   9.106
 2930POPC   C1A38883  42.212   3.578   8.860
 2930POPC   D2A38884  42.252   3.453   8.426
 2930POPC   C3A38885  42.374   3.711   8.109
 2930POPC   C4A38886  42.268   3.625   7.706
 2930POPC   C1B38887  42.734   3.555   8.698
 2930POPC   C2B38888  42.757   3.368   8.298
 2930POPC   C3B38889  42.745   3.458   7.870
 2930POPC   C4B38890  42.638   3.413   7.437
 2931POPC   NC338891  22.718  40.141   9.555
 2931POPC   PO438892  23.161  39.613   9.594
 2931POPC   GL138893  22.983  39.762   9.275
 2931POPC   GL238894  23.002  40.097   9.137
 2931POPC   C1A38895  23.012  39.627   8.897
 2931POPC   D2A38896  22.985  39.506   8.517
 2931POPC   C3A38897  22.727  39.688   8.237
 2931POPC   C4A38898  22.958  39.721   7.863
 2931POPC   C1B38899  22.828  40.065   8.717
 2931POPC   C2B38900  23.069  40.021   8.361
 2931POPC   C3B38901  22.969  40.231   7.953
 2931POPC   C4B38902  22.848  40.461   7.586
 2932POPC   NC338903  35.789  31.834   9.166
 2932POPC   PO438904  35.774  31.295   9.577
 2932POPC   GL138905  35.978  31.285   9.170
 2932POPC   GL238906  36.205  31.545   9.034
 2932POPC   C1A38907  35.882  31.272   8.730
 2932POPC   D2A38908  35.746  31.249   8.298
 2932POPC   C3A38909  36.017  31.528   8.075
 2932POPC   C4A38910  35.910  31.833   7.781
 2932POPC   C1B38911  36.353  31.441   8.623
 2932POPC   C2B38912  36.531  31.428   8.195
 2932POPC   C3B38913  36.407  31.145   7.848
 2932POPC   C4B38914  36.348  31.189   7.380
 2933POPC   NC338915  15.584  18.185   9.561
 2933POPC   PO438916  16.241  18.541   9.607
 2933POPC   GL138917  16.037  18.418   9.250
 2933POPC   GL238918  15.903  18.107   9.146
 2933POPC   C1A38919  16.149  18.461   8.837
 2933POPC   D2A38920  16.324  18.398   8.438
 2933POPC   C3A38921  16.149  18.233   8.082
 2933POPC   C4A38922  16.269  18.319   7.656
 2933POPC   C1B38923  15.926  18.055   8.666
 2933POPC   C2B38924  15.653  18.155   8.340
 2933POPC   C3B38925  15.468  18.110   7.959
 2933POPC   C4B38926  15.786  18.206   7.707
 2934POPC   NC338927  37.785  44.745   9.487
 2934POPC   PO438928  38.102  44.079   9.554
 2934POPC   GL138929  37.921  44.352   9.192
 2934POPC   GL238930  37.565  44.491   9.109
 2934POPC   C1A38931  37.916  44.554   8.781
 2934POPC   D2A38932  37.576  44.519   8.509
 2934POPC   C3A38933  37.678  44.568   8.093
 2934POPC   C4A38934  37.868  44.430   7.737
 2934POPC   C1B38935  37.227  44.287   8.896
 2934POPC   C2B38936  37.234  44.144   8.486
 2934POPC   C3B38937  37.232  44.343   8.118
 2934POPC   C4B38938  37.365  44.379   7.690
 2935POPC   NC338939   8.847  13.109   9.935
 2935POPC   PO438940   8.932  12.602   9.480
 2935POPC   GL138941   9.011  12.789   9.089
 2935POPC   GL238942   9.166  13.113   9.166
 2935POPC   C1A38943   8.848  12.731   8.661
 2935POPC   D2A38944   8.951  12.570   8.250
 2935POPC   C3A38945   8.904  12.870   7.920
 2935POPC   C4A38946   8.708  13.046   7.537
 2935POPC   C1B38947   9.135  13.151   8.743
 2935POPC   C2B38948   9.246  12.992   8.330
 2935POPC   C3B38949   9.455  13.137   7.954
 2935POPC   C4B38950   9.212  13.223   7.574
 2936POPC   NC338951  30.856   7.546   9.680
 2936POPC   PO438952  30.224   7.585   9.679
 2936POPC   GL138953  30.422   7.528   9.227
 2936POPC   GL238954  30.771   7.420   9.199
 2936POPC   C1A38955  30.509   7.331   8.786
 2936POPC   D2A38956  30.644   7.558   8.415
 2936POPC   C3A38957  30.554   7.346   8.042
 2936POPC   C4A38958  30.310   7.384   7.672
 2936POPC   C1B38959  31.024   7.436   8.833
 2936POPC   C2B38960  31.043   7.213   8.442
 2936POPC   C3B38961  31.072   7.449   8.076
 2936POPC   C4B38962  30.866   7.552   7.694
 2937POPC   NC338963  37.317   3.231   9.439
 2937POPC   PO438964  37.831   3.815   9.497
 2937POPC   GL138965  37.639   3.773   9.058
 2937POPC   GL238966  37.306   3.558   9.068
 2937POPC   C1A38967  37.869   3.703   8.701
 2937POPC   D2A38968  37.796   3.352   8.389
 2937POPC   C3A38969  37.592   3.495   8.036
 2937POPC   C4A38970  37.831   3.821   7.880
 2937POPC   C1B38971  37.381   3.508   8.650
 2937POPC   C2B38972  37.494   3.840   8.394
 2937POPC   C3B38973  37.328   3.945   8.046
 2937POPC   C4B38974  37.173   3.738   7.786
 2938POPC   NC338975  16.094   7.914   9.376
 2938POPC   PO438976  15.713   8.460   9.520
 2938POPC   GL138977  15.802   8.303   9.156
 2938POPC   GL238978  15.436   8.354   9.107
 2938POPC   C1A38979  16.077   8.168   8.790
 2938POPC   D2A38980  16.284   8.126   8.401
 2938POPC   C3A38981  16.070   8.234   8.008
 2938POPC   C4A38982  16.277   8.076   7.631
 2938POPC   C1B38983  15.584   8.258   8.711
 2938POPC   C2B38984  15.473   8.129   8.357
 2938POPC   C3B38985  15.496   8.247   7.967
 2938POPC   C4B38986  15.714   8.491   7.711
 2939POPC   NC338987  17.963  26.759   9.416
 2939POPC   PO438988  17.300  26.421   9.459
 2939POPC   GL138989  17.532  26.609   9.164
 2939POPC   GL238990  17.449  26.926   9.264
 2939POPC   C1A38991  17.717  26.708   8.767
 2939POPC   D2A38992  17.680  26.459   8.392
 2939POPC   C3A38993  17.678  26.643   8.000
 2939POPC   C4A38994  17.450  26.861   7.668
 2939POPC   C1B38995  17.304  27.105   8.870
 2939POPC   C2B38996  17.584  27.141   8.532
 2939POPC   C3B38997  17.573  27.122   8.089
 2939POPC   C4B38998  17.878  27.184   7.753
 2940POPC   NC338999  40.317  16.662   9.433
 2940POPC   PO439000  39.688  17.053   9.499
 2940POPC   GL139001  39.954  16.979   9.186
 2940POPC   GL239002  39.714  17.158   8.985
 2940POPC   C1A39003  40.012  16.683   8.827
 2940POPC   D2A39004  40.162  16.741   8.400
 2940POPC   C3A39005  40.163  16.407   8.093
 2940POPC   C4A39006  40.180  16.598   7.680
 2940POPC   C1B39007  39.512  16.784   8.810
 2940POPC   C2B39008  39.652  16.592   8.418
 2940POPC   C3B39009  39.783  16.736   8.011
 2940POPC   C4B39010  39.844  17.006   7.669
 2941POPC   NC339011  26.186  24.681   9.450
 2941POPC   PO439012  25.544  24.462   9.381
 2941POPC   GL139013  25.853  24.474   9.053
 2941POPC   GL239014  26.161  24.275   9.104
 2941POPC   C1A39015  25.946  24.783   8.709
 2941POPC   D2A39016  26.058  24.817   8.273
 2941POPC   C3A39017  26.054  24.452   8.034
 2941POPC   C4A39018  26.120  24.388   7.582
 2941POPC   C1B39019  26.317  24.422   8.730
 2941POPC   C2B39020  26.496  24.372   8.328
 2941POPC   C3B39021  26.529  24.521   7.877
 2941POPC   C4B39022  26.572  24.567   7.408
 2942POPC   NC339023   9.188  33.282   9.389
 2942POPC   PO439024   9.840  33.227   9.516
 2942POPC   GL139025   9.703  33.154   9.120
 2942POPC   GL239026  10.033  33.164   9.016
 2942POPC   C1A39027   9.467  33.322   8.753
 2942POPC   D2A39028   9.365  33.113   8.371
 2942POPC   C3A39029   9.484  33.098   7.923
 2942POPC   C4A39030   9.784  32.803   7.725
 2942POPC   C1B39031   9.863  33.001   8.639
 2942POPC   C2B39032   9.904  33.137   8.214
 2942POPC   C3B39033   9.974  33.283   7.802
 2942POPC   C4B39034  10.084  33.319   7.397
 2943POPC   NC339035   9.969   3.724   9.555
 2943POPC   PO439036   9.606   3.130   9.564
 2943POPC   GL139037   9.618   3.421   9.177
 2943POPC   GL239038   9.785   3.775   9.101
 2943POPC   C1A39039   9.512   3.541   8.748
 2943POPC   D2A39040   9.427   3.510   8.330
 2943POPC   C3A39041   9.720   3.389   8.030
 2943POPC   C4A39042   9.572   3.623   7.693
 2943POPC   C1B39043  10.027   3.663   8.744
 2943POPC   C2B39044   9.877   3.764   8.365
 2943POPC   C3B39045   9.949   3.885   7.969
 2943POPC   C4B39046  10.084   3.548   7.700
 2944POPC   NC339047  34.384  35.596   9.225
 2944POPC   PO439048  34.267  35.016   9.317
 2944POPC   GL139049  34.562  35.125   9.014
 2944POPC   GL239050  34.888  34.975   8.954
 2944POPC   C1A39051  34.554  35.157   8.581
 2944POPC   D2A39052  34.546  35.434   8.243
 2944POPC   C3A39053  34.551  35.284   7.822
 2944POPC   C4A39054  34.294  35.355   7.452
 2944POPC   C1B39055  34.911  35.444   8.803
 2944POPC   C2B39056  35.030  35.584   8.382
 2944POPC   C3B39057  35.035  35.451   7.934
 2944POPC   C4B39058  35.034  35.165   7.581
 2945POPC   NC339059   3.834  17.280   9.585
 2945POPC   PO439060   3.462  17.881   9.660
 2945POPC   GL139061   3.382  17.560   9.336
 2945POPC   GL239062   3.707  17.559   9.168
 2945POPC   C1A39063   3.239  17.601   8.872
 2945POPC   D2A39064   3.438  17.579   8.442
 2945POPC   C3A39065   3.318  17.761   8.069
 2945POPC   C4A39066   3.287  17.450   7.762
 2945POPC   C1B39067   3.817  17.409   8.761
 2945POPC   C2B39068   3.963  17.516   8.345
 2945POPC   C3B39069   3.752  17.380   7.987
 2945POPC   C4B39070   3.785  17.152   7.637
 2946POPC   NC339071   9.242   2.422   9.306
 2946POPC   PO439072   8.717   1.942   9.533
 2946POPC   GL139073   8.886   2.080   9.155
 2946POPC   GL239074   9.207   1.922   9.190
 2946POPC   C1A39075   9.017   2.068   8.717
 2946POPC   D2A39076   8.833   1.990   8.343
 2946POPC   C3A39077   9.014   1.938   7.943
 2946POPC   C4A39078   8.748   1.932   7.596
 2946POPC   C1B39079   9.387   1.729   8.818
 2946POPC   C2B39080   9.284   1.740   8.399
 2946POPC   C3B39081   9.348   1.545   8.034
 2946POPC   C4B39082   9.394   1.714   7.640
 2947POPC   NC339083   5.764  15.562   9.695
 2947POPC   PO439084   5.516  16.200   9.588
 2947POPC   GL139085   5.809  16.089   9.255
 2947POPC   GL239086   6.032  15.850   9.364
 2947POPC   C1A39087   5.740  15.953   8.815
 2947POPC   D2A39088   5.682  15.721   8.426
 2947POPC   C3A39089   5.808  15.960   8.107
 2947POPC   C4A39090   5.657  15.893   7.730
 2947POPC   C1B39091   6.213  15.852   8.952
 2947POPC   C2B39092   6.217  15.790   8.523
 2947POPC   C3B39093   6.282  15.761   8.068
 2947POPC   C4B39094   6.202  16.026   7.715
 2948POPC   NC339095   7.493  20.622   9.920
 2948POPC   PO439096   7.094  21.009   9.689
 2948POPC   GL139097   7.304  20.909   9.238
 2948POPC   GL239098   7.437  20.551   9.156
 2948POPC   C1A39099   7.287  20.808   8.761
 2948POPC   D2A39100   7.063  20.534   8.492
 2948POPC   C3A39101   7.138  20.648   8.072
 2948POPC   C4A39102   7.298  20.874   7.722
 2948POPC   C1B39103   7.709  20.541   8.790
 2948POPC   C2B39104   7.766  20.744   8.361
 2948POPC   C3B39105   7.666  20.576   7.921
 2948POPC   C4B39106   7.768  20.219   7.601
 2949POPC   NC339107   4.983  13.084   9.473
 2949POPC   PO439108   4.864  12.383   9.318
 2949POPC   GL139109   5.101  12.704   9.141
 2949POPC   GL239110   5.400  12.595   9.260
 2949POPC   C1A39111   5.056  13.000   8.791
 2949POPC   D2A39112   4.958  12.813   8.394
 2949POPC   C3A39113   4.838  13.000   8.027
 2949POPC   C4A39114   4.821  12.718   7.685
 2949POPC   C1B39115   5.563  12.640   8.834
 2949POPC   C2B39116   5.464  12.900   8.482
 2949POPC   C3B39117   5.341  12.876   8.021
 2949POPC   C4B39118   5.274  12.984   7.586
 2950POPC   NC339119  20.167  15.888   9.471
 2950POPC   PO439120  20.793  16.161   9.460
 2950POPC   GL139121  20.625  15.993   9.116
 2950POPC   GL239122  20.623  15.672   9.178
 2950POPC   C1A39123  20.731  15.924   8.694
 2950POPC   D2A39124  20.463  16.098   8.390
 2950POPC   C3A39125  20.581  16.092   7.976
 2950POPC   C4A39126  20.344  16.306   7.683
 2950POPC   C1B39127  20.445  15.516   8.814
 2950POPC   C2B39128  20.390  15.577   8.411
 2950POPC   C3B39129  20.229  15.651   8.049
 2950POPC   C4B39130  20.426  15.712   7.675
 2951POPC   NC339131   3.491   9.422   9.460
 2951POPC   PO439132   3.833   8.873   9.560
 2951POPC   GL139133   3.581   8.780   9.147
 2951POPC   GL239134   3.207   8.721   9.205
 2951POPC   C1A39135   3.519   8.747   8.681
 2951POPC   D2A39136   3.343   9.140   8.443
 2951POPC   C3A39137   3.366   9.261   8.019
 2951POPC   C4A39138   3.431   8.999   7.693
 2951POPC   C1B39139   3.080   8.953   8.837
 2951POPC   C2B39140   2.921   8.849   8.450
 2951POPC   C3B39141   3.089   8.826   8.046
 2951POPC   C4B39142   3.181   8.530   7.717
 2952POPC   NC339143  15.862  40.824   9.702
 2952POPC   PO439144  16.421  40.957   9.660
 2952POPC   GL139145  16.062  41.115   9.311
 2952POPC   GL239146  15.792  40.873   9.186
 2952POPC   C1A39147  15.858  41.257   8.879
 2952POPC   D2A39148  15.916  41.238   8.401
 2952POPC   C3A39149  15.962  40.916   8.080
 2952POPC   C4A39150  16.151  40.508   8.019
 2952POPC   C1B39151  15.582  40.521   8.950
 2952POPC   C2B39152  15.616  40.439   8.491
 2952POPC   C3B39153  15.579  40.572   8.053
 2952POPC   C4B39154  15.799  40.632   7.643
 2953POPC   NC339155  21.461  37.294   9.446
 2953POPC   PO439156  21.139  37.804   9.566
 2953POPC   GL139157  21.305  37.711   9.179
 2953POPC   GL239158  21.603  37.894   9.160
 2953POPC   C1A39159  21.127  37.415   8.871
 2953POPC   D2A39160  21.006  37.226   8.463
 2953POPC   C3A39161  21.310  37.221   8.071
 2953POPC   C4A39162  21.366  37.539   7.708
 2953POPC   C1B39163  21.652  37.549   8.843
 2953POPC   C2B39164  21.425  37.531   8.468
 2953POPC   C3B39165  21.389  37.829   8.162
 2953POPC   C4B39166  21.637  37.933   7.812
 2954POPC   NC339167  15.083  39.056   9.676
 2954POPC   PO439168  15.579  39.450   9.670
 2954POPC   GL139169  15.248  39.299   9.256
 2954POPC   GL239170  14.864  39.173   9.226
 2954POPC   C1A39171  15.161  39.039   8.835
 2954POPC   D2A39172  15.381  39.013   8.430
 2954POPC   C3A39173  15.238  39.015   8.005
 2954POPC   C4A39174  15.338  39.237   7.624
 2954POPC   C1B39175  14.821  39.422   8.827
 2954POPC   C2B39176  14.956  39.322   8.393
 2954POPC   C3B39177  14.943  39.421   7.959
 2954POPC   C4B39178  14.816  39.116   7.671
 2955POPC   NC339179  17.244   5.762   9.429
 2955POPC   PO439180  17.806   6.083   9.632
 2955POPC   GL139181  17.609   6.042   9.186
 2955POPC   GL239182  17.311   6.249   9.201
 2955POPC   C1A39183  17.535   5.781   8.765
 2955POPC   D2A39184  17.623   5.649   8.367
 2955POPC   C3A39185  17.337   5.560   8.051
 2955POPC   C4A39186  17.525   5.533   7.728
 2955POPC   C1B39187  17.218   6.164   8.778
 2955POPC   C2B39188  17.394   6.127   8.352
 2955POPC   C3B39189  17.357   6.058   7.910
 2955POPC   C4B39190  17.372   6.242   7.476
 2956POPC   NC339191  20.919  14.983   9.442
 2956POPC   PO439192  20.316  15.395   9.456
 2956POPC   GL139193  20.484  15.095   9.123
 2956POPC   GL239194  20.818  15.232   9.010
 2956POPC   C1A39195  20.496  15.038   8.642
 2956POPC   D2A39196  20.820  15.283   8.390
 2956POPC   C3A39197  20.652  15.351   7.993
 2956POPC   C4A39198  20.373  15.022   7.988
 2956POPC   C1B39199  20.969  14.908   8.755
 2956POPC   C2B39200  20.911  14.762   8.358
 2956POPC   C3B39201  20.878  14.888   7.932
 2956POPC   C4B39202  20.906  15.017   7.504
 2957POPC   NC339203   4.673  17.222   9.552
 2957POPC   PO439204   4.148  17.698   9.445
 2957POPC   GL139205   4.230  17.511   9.035
 2957POPC   GL239206   4.537  17.314   9.031
 2957POPC   C1A39207   4.297  17.773   8.661
 2957POPC   D2A39208   4.594  17.886   8.327
 2957POPC   C3A39209   4.510  17.574   8.020
 2957POPC   C4A39210   4.158  17.609   7.709
 2957POPC   C1B39211   4.577  17.327   8.578
 2957POPC   C2B39212   4.334  17.130   8.265
 2957POPC   C3B39213   4.245  17.156   7.849
 2957POPC   C4B39214   4.348  17.238   7.384
 2958POPC   NC339215   7.391  42.615   9.581
 2958POPC   PO439216   7.610  42.007   9.564
 2958POPC   GL139217   7.588  42.150   9.140
 2958POPC   GL239218   7.296  42.368   9.128
 2958POPC   C1A39219   7.593  42.339   8.718
 2958POPC   D2A39220   7.256  42.214   8.467
 2958POPC   C3A39221   7.240  42.197   8.038
 2958POPC   C4A39222   7.549  42.253   7.723
 2958POPC   C1B39223   7.200  42.673   8.796
 2958POPC   C2B39224   7.402  42.751   8.404
 2958POPC   C3B39225   7.265  42.813   8.010
 2958POPC   C4B39226   7.163  42.611   7.661
 2959POPC   NC339227  40.089  13.355   9.416
 2959POPC   PO439228  39.540  13.782   9.470
 2959POPC   GL139229  39.830  13.791   9.106
 2959POPC   GL239230  40.208  13.779   9.101
 2959POPC   C1A39231  39.929  13.652   8.688
 2959POPC   D2A39232  39.692  13.523   8.334
 2959POPC   C3A39233  39.899  13.449   7.935
 2959POPC   C4A39234  39.881  13.728   7.587
 2959POPC   C1B39235  40.299  14.029   8.727
 2959POPC   C2B39236  40.131  13.994   8.323
 2959POPC   C3B39237  40.242  13.847   7.943
 2959POPC   C4B39238  40.398  13.530   7.723
 2960POPC   NC339239  38.387  27.669   9.610
 2960POPC   PO439240  38.769  27.185   9.414
 2960POPC   GL139241  38.541  27.478   9.140
 2960POPC   GL239242  38.235  27.435   9.132
 2960POPC   C1A39243  38.332  27.662   8.702
 2960POPC   D2A39244  38.000  27.597   8.388
 2960POPC   C3A39245  38.124  27.499   7.987
 2960POPC   C4A39246  38.476  27.596   7.725
 2960POPC   C1B39247  38.416  27.170   8.770
 2960POPC   C2B39248  38.315  27.168   8.337
 2960POPC   C3B39249  38.456  27.095   7.898
 2960POPC   C4B39250  38.655  26.958   7.494
 2961POPC   NC339251  14.384  37.960   9.498
 2961POPC   PO439252  14.686  37.321   9.281
 2961POPC   GL139253  14.544  37.688   9.102
 2961POPC   GL239254  14.261  37.708   8.978
 2961POPC   C1A39255  14.668  37.896   8.713
 2961POPC   D2A39256  14.425  37.912   8.318
 2961POPC   C3A39257  14.554  37.672   7.953
 2961POPC   C4A39258  14.524  37.743   7.494
 2961POPC   C1B39259  14.368  37.485   8.587
 2961POPC   C2B39260  14.171  37.424   8.184
 2961POPC   C3B39261  14.086  37.515   7.719
 2961POPC   C4B39262  14.157  37.453   7.258
 2962POPC   NC339263  17.946  14.987   9.381
 2962POPC   PO439264  18.221  15.544   9.692
 2962POPC   GL139265  18.258  15.381   9.253
 2962POPC   GL239266  18.457  15.084   9.256
 2962POPC   C1A39267  18.153  15.242   8.788
 2962POPC   D2A39268  17.978  15.437   8.367
 2962POPC   C3A39269  18.148  15.301   7.957
 2962POPC   C4A39270  18.009  15.068   7.590
 2962POPC   C1B39271  18.669  15.035   8.854
 2962POPC   C2B39272  18.604  14.827   8.497
 2962POPC   C3B39273  18.572  14.968   8.134
 2962POPC   C4B39274  18.419  14.884   7.787
 2963POPC   NC339275  12.900  41.280   9.768
 2963POPC   PO439276  13.052  41.914   9.473
 2963POPC   GL139277  12.848  41.516   9.265
 2963POPC   GL239278  12.925  41.161   9.244
 2963POPC   C1A39279  12.706  41.577   8.837
 2963POPC   D2A39280  12.664  41.759   8.437
 2963POPC   C3A39281  12.853  41.759   8.037
 2963POPC   C4A39282  12.561  41.691   7.716
 2963POPC   C1B39283  13.138  41.279   8.843
 2963POPC   C2B39284  13.041  41.419   8.421
 2963POPC   C3B39285  13.181  41.333   8.028
 2963POPC   C4B39286  12.986  41.369   7.650
 2964POPC   NC339287   4.685  32.917   9.592
 2964POPC   PO439288   5.314  33.164   9.778
 2964POPC   GL139289   5.253  33.133   9.291
 2964POPC   GL239290   4.979  32.919   9.172
 2964POPC   C1A39291   5.381  33.056   8.816
 2964POPC   D2A39292   5.235  33.018   8.341
 2964POPC   C3A39293   5.441  32.896   7.928
 2964POPC   C4A39294   5.418  33.227   7.548
 2964POPC   C1B39295   4.670  32.968   8.846
 2964POPC   C2B39296   4.771  32.821   8.462
 2964POPC   C3B39297   4.840  32.790   8.045
 2964POPC   C4B39298   5.010  33.150   7.860
 2965POPC   NC339299  19.346  16.281   9.349
 2965POPC   PO439300  18.934  15.744   9.602
 2965POPC   GL139301  18.841  15.854   9.179
 2965POPC   GL239302  19.010  16.090   9.046
 2965POPC   C1A39303  19.004  15.692   8.769
 2965POPC   D2A39304  18.845  15.770   8.386
 2965POPC   C3A39305  19.106  15.706   8.028
 2965POPC   C4A39306  18.971  15.624   7.608
 2965POPC   C1B39307  19.060  16.330   8.695
 2965POPC   C2B39308  19.067  16.569   8.303
 2965POPC   C3B39309  18.894  16.488   7.918
 2965POPC   C4B39310  18.993  16.106   7.722
 2966POPC   NC339311   4.415   9.833   9.461
 2966POPC   PO439312   5.001  10.134   9.371
 2966POPC   GL139313   4.618  10.074   9.059
 2966POPC   GL239314   4.207  10.120   9.099
 2966POPC   C1A39315   4.437   9.766   8.750
 2966POPC   D2A39316   4.235   9.482   8.441
 2966POPC   C3A39317   4.429   9.528   8.037
 2966POPC   C4A39318   4.620   9.870   7.803
 2966POPC   C1B39319   4.035  10.079   8.674
 2966POPC   C2B39320   4.243   9.995   8.276
 2966POPC   C3B39321   4.172  10.085   7.826
 2966POPC   C4B39322   3.918   9.966   7.472
 2967POPC   NC339323  44.619  17.810   9.577
 2967POPC   PO439324  44.807  18.457   9.800
 2967POPC   GL139325  44.676  18.320   9.359
 2967POPC   GL239326  44.904  18.221   9.063
 2967POPC   C1A39327  44.432  18.397   8.960
 2967POPC   D2A39328  44.444  18.124   8.579
 2967POPC   C3A39329  44.557  18.279   8.161
 2967POPC   C4A39330  44.460  18.103   7.761
 2967POPC   C1B39331  44.962  17.881   8.701
 2967POPC   C2B39332   0.114  17.827   8.261
 2967POPC   C3B39333  45.000  18.114   7.912
 2967POPC   C4B39334  44.868  18.245   7.482
 2968POPC   NC339335   2.721  34.399   9.705
 2968POPC   PO439336   3.277  34.732   9.646
 2968POPC   GL139337   3.209  34.469   9.307
 2968POPC   GL239338   2.862  34.553   9.241
 2968POPC   C1A39339   3.118  34.310   8.889
 2968POPC   D2A39340   2.845  34.233   8.521
 2968POPC   C3A39341   3.027  34.381   8.160
 2968POPC   C4A39342   3.084  34.285   7.763
 2968POPC   C1B39343   2.744  34.663   8.800
 2968POPC   C2B39344   2.778  34.796   8.346
 2968POPC   C3B39345   2.593  34.647   7.967
 2968POPC   C4B39346   2.632  34.759   7.541
 2969POPC   NC339347  34.436  28.901   9.491
 2969POPC   PO439348  34.632  29.590   9.567
 2969POPC   GL139349  34.571  29.309   9.180
 2969POPC   GL239350  34.258  29.100   9.079
 2969POPC   C1A39351  34.676  29.066   8.796
 2969POPC   D2A39352  34.780  29.174   8.386
 2969POPC   C3A39353  34.828  28.863   8.053
 2969POPC   C4A39354  34.866  29.032   7.642
 2969POPC   C1B39355  34.223  29.325   8.726
 2969POPC   C2B39356  34.299  29.363   8.300
 2969POPC   C3B39357  34.461  29.189   7.931
 2969POPC   C4B39358  34.350  29.077   7.498
 2970POPC   NC339359  26.984  14.349   9.359
 2970POPC   PO439360  27.544  14.334   9.768
 2970POPC   GL139361  27.531  14.486   9.334
 2970POPC   GL239362  27.506  14.157   9.234
 2970POPC   C1A39363  27.616  14.540   8.857
 2970POPC   D2A39364  27.698  14.774   8.445
 2970POPC   C3A39365  27.781  14.590   8.042
 2970POPC   C4A39366  27.474  14.484   7.711
 2970POPC   C1B39367  27.300  14.125   8.829
 2970POPC   C2B39368  27.415  13.991   8.449
 2970POPC   C3B39369  27.345  14.125   8.049
 2970POPC   C4B39370  27.158  14.055   7.666
 2971POPC   NC339371  16.696  22.243   9.668
 2971POPC   PO439372  16.684  21.755   9.269
 2971POPC   GL139373  16.929  22.122   9.158
 2971POPC   GL239374  16.851  22.459   9.231
 2971POPC   C1A39375  16.992  22.352   8.771
 2971POPC   D2A39376  16.836  22.231   8.376
 2971POPC   C3A39377  17.016  22.154   7.958
 2971POPC   C4A39378  16.781  21.929   7.623
 2971POPC   C1B39379  16.532  22.616   8.924
 2971POPC   C2B39380  16.504  22.643   8.449
 2971POPC   C3B39381  16.489  22.384   8.049
 2971POPC   C4B39382  16.329  22.272   7.658
 2972POPC   NC339383   4.570  42.076   9.246
 2972POPC   PO439384   5.087  42.492   9.485
 2972POPC   GL139385   5.298  42.413   9.110
 2972POPC   GL239386   5.461  42.733   9.161
 2972POPC   C1A39387   5.295  42.123   8.777
 2972POPC   D2A39388   4.906  42.059   8.564
 2972POPC   C3A39389   4.781  42.238   8.180
 2972POPC   C4A39390   5.014  42.299   7.818
 2972POPC   C1B39391   5.122  42.763   8.823
 2972POPC   C2B39392   5.130  42.540   8.455
 2972POPC   C3B39393   5.371  42.694   8.161
 2972POPC   C4B39394   5.446  42.639   7.757
 2973POPC   NC339395  24.117  28.206   9.519
 2973POPC   PO439396  23.624  28.653   9.515
 2973POPC   GL139397  23.597  28.378   9.131
 2973POPC   GL239398  23.743  28.042   9.028
 2973POPC   C1A39399  23.665  28.474   8.718
 2973POPC   D2A39400  23.671  28.680   8.328
 2973POPC   C3A39401  23.622  28.337   8.014
 2973POPC   C4A39402  23.436  28.348   7.617
 2973POPC   C1B39403  23.849  28.039   8.559
 2973POPC   C2B39404  24.116  28.397   8.451
 2973POPC   C3B39405  24.086  28.533   8.047
 2973POPC   C4B39406  23.941  28.387   7.607
 2974POPC   NC339407  33.474  31.224   9.351
 2974POPC   PO439408  33.809  31.810   9.410
 2974POPC   GL139409  33.913  31.507   9.145
 2974POPC   GL239410  34.099  31.752   8.972
 2974POPC   C1A39411  33.764  31.307   8.763
 2974POPC   D2A39412  33.985  31.341   8.417
 2974POPC   C3A39413  33.808  31.287   8.038
 2974POPC   C4A39414  33.984  31.351   7.667
 2974POPC   C1B39415  33.728  31.839   8.726
 2974POPC   C2B39416  33.561  31.723   8.304
 2974POPC   C3B39417  33.732  31.797   7.866
 2974POPC   C4B39418  33.800  31.747   7.399
 2975POPC   NC339419  17.602  19.444   9.680
 2975POPC   PO439420  17.851  18.804   9.560
 2975POPC   GL139421  17.620  19.085   9.310
 2975POPC   GL239422  17.892  19.338   9.234
 2975POPC   C1A39423  17.416  19.217   8.945
 2975POPC   D2A39424  17.571  19.187   8.513
 2975POPC   C3A39425  17.360  19.021   8.163
 2975POPC   C4A39426  17.466  19.192   7.777
 2975POPC   C1B39427  17.907  19.032   8.889
 2975POPC   C2B39428  17.843  18.751   8.560
 2975POPC   C3B39429  17.858  18.846   8.137
 2975POPC   C4B39430  17.978  19.099   7.781
 2976POPC   NC339431  26.433  27.037   9.623
 2976POPC   PO439432  26.829  26.479   9.616
 2976POPC   GL139433  26.707  26.666   9.236
 2976POPC   GL239434  26.912  26.462   9.061
 2976POPC   C1A39435  26.644  26.892   8.796
 2976POPC   D2A39436  26.444  27.083   8.373
 2976POPC   C3A39437  26.468  26.875   7.983
 2976POPC   C4A39438  26.775  26.720   7.729
 2976POPC   C1B39439  26.994  26.493   8.606
 2976POPC   C2B39440  26.844  26.788   8.331
 2976POPC   C3B39441  26.904  27.125   8.037
 2976POPC   C4B39442  27.168  27.074   7.666
 2977POPC   NC339443  31.039  26.402   9.461
 2977POPC   PO439444  30.589  25.883   9.425
 2977POPC   GL139445  30.737  26.049   9.113
 2977POPC   GL239446  30.775  25.688   9.004
 2977POPC   C1A39447  30.949  26.195   8.776
 2977POPC   D2A39448  30.750  26.214   8.402
 2977POPC   C3A39449  30.982  26.175   8.030
 2977POPC   C4A39450  30.799  26.200   7.653
 2977POPC   C1B39451  30.577  25.829   8.677
 2977POPC   C2B39452  30.688  25.717   8.281
 2977POPC   C3B39453  30.888  25.684   7.886
 2977POPC   C4B39454  30.512  25.652   7.768
 2978POPC   NC339455  14.204   5.967   9.448
 2978POPC   PO439456  14.652   5.513   9.579
 2978POPC   GL139457  14.564   5.664   9.183
 2978POPC   GL239458  14.232   5.555   9.149
 2978POPC   C1A39459  14.706   5.793   8.779
 2978POPC   D2A39460  14.572   5.704   8.378
 2978POPC   C3A39461  14.667   5.949   8.012
 2978POPC   C4A39462  14.459   6.241   7.734
 2978POPC   C1B39463  14.204   5.819   8.775
 2978POPC   C2B39464  14.179   6.047   8.391
 2978POPC   C3B39465  14.141   5.871   8.003
 2978POPC   C4B39466  14.398   5.512   7.949
 2979POPC   NC339467  14.832   5.973   9.543
 2979POPC   PO439468  15.492   6.054   9.623
 2979POPC   GL139469  15.287   5.920   9.287
 2979POPC   GL239470  15.449   6.159   9.120
 2979POPC   C1A39471  15.213   5.764   8.867
 2979POPC   D2A39472  15.079   5.913   8.444
 2979POPC   C3A39473  15.344   5.766   8.115
 2979POPC   C4A39474  15.115   5.899   7.767
 2979POPC   C1B39475  15.321   6.270   8.769
 2979POPC   C2B39476  15.511   6.201   8.414
 2979POPC   C3B39477  15.424   6.264   8.018
 2979POPC   C4B39478  15.619   6.038   7.744
 2980POPC   NC339479   3.462  37.750   9.585
 2980POPC   PO439480   3.234  37.230   9.284
 2980POPC   GL139481   3.388  37.588   9.093
 2980POPC   GL239482   3.726  37.680   9.155
 2980POPC   C1A39483   3.414  37.883   8.751
 2980POPC   D2A39484   3.584  37.939   8.336
 2980POPC   C3A39485   3.517  37.630   7.981
 2980POPC   C4A39486   3.329  37.630   7.534
 2980POPC   C1B39487   3.925  37.864   8.812
 2980POPC   C2B39488   4.071  37.868   8.410
 2980POPC   C3B39489   3.965  38.061   8.003
 2980POPC   C4B39490   3.781  37.886   7.627
 2981POPC   NC339491   5.609  25.585   9.521
 2981POPC   PO439492   5.975  26.127   9.606
 2981POPC   GL139493   5.958  25.850   9.226
 2981POPC   GL239494   5.925  26.146   9.043
 2981POPC   C1A39495   6.040  25.722   8.772
 2981POPC   D2A39496   5.865  25.744   8.340
 2981POPC   C3A39497   6.124  25.961   8.048
 2981POPC   C4A39498   6.165  26.297   7.751
 2981POPC   C1B39499   5.626  26.036   8.709
 2981POPC   C2B39500   5.485  26.152   8.284
 2981POPC   C3B39501   5.641  26.018   7.851
 2981POPC   C4B39502   5.541  25.762   7.468
 2982POPC   NC339503  32.551  14.312   9.431
 2982POPC   PO439504  31.959  14.627   9.475
 2982POPC   GL139505  32.174  14.510   9.129
 2982POPC   GL239506  32.400  14.776   9.189
 2982POPC   C1A39507  32.349  14.359   8.726
 2982POPC   D2A39508  32.217  14.186   8.278
 2982POPC   C3A39509  32.456  14.231   7.856
 2982POPC   C4A39510  32.570  14.200   7.377
 2982POPC   C1B39511  32.212  14.886   8.785
 2982POPC   C2B39512  32.080  14.860   8.354
 2982POPC   C3B39513  32.133  14.711   7.958
 2982POPC   C4B39514  32.240  14.557   7.540
 2983POPC   NC339515  42.025  17.504   9.396
 2983POPC   PO439516  42.542  17.152   9.536
 2983POPC   GL139517  42.664  17.231   9.109
 2983POPC   GL239518  42.387  17.476   9.038
 2983POPC   C1A39519  42.515  17.165   8.689
 2983POPC   D2A39520  42.283  17.383   8.402
 2983POPC   C3A39521  42.377  17.232   8.008
 2983POPC   C4A39522  42.388  17.534   7.712
 2983POPC   C1B39523  42.244  17.792   8.726
 2983POPC   C2B39524  42.165  17.923   8.288
 2983POPC   C3B39525  42.434  18.000   7.908
 2983POPC   C4B39526  42.477  18.076   7.453
 2984POPC   NC339527  12.868   0.728   9.526
 2984POPC   PO439528  12.693   1.440   9.501
 2984POPC   GL139529  12.661   1.082   9.191
 2984POPC   GL239530  13.002   1.024   9.107
 2984POPC   C1A39531  12.662   0.920   8.742
 2984POPC   D2A39532  12.861   1.062   8.362
 2984POPC   C3A39533  12.692   1.458   8.195
 2984POPC   C4A39534  12.707   1.624   7.777
 2984POPC   C1B39535  12.975   1.371   8.783
 2984POPC   C2B39536  13.163   1.518   8.368
 2984POPC   C3B39537  13.109   1.339   7.930
 2984POPC   C4B39538  13.224   1.157   7.520
 2985POPC   NC339539  40.174  29.723   9.451
 2985POPC   PO439540  39.737  30.207   9.446
 2985POPC   GL139541  40.005  30.082   9.121
 2985POPC   GL239542  40.253  30.287   9.023
 2985POPC   C1A39543  40.063  29.890   8.731
 2985POPC   D2A39544  39.836  29.989   8.365
 2985POPC   C3A39545  40.016  29.822   7.987
 2985POPC   C4A39546  40.317  29.525   7.865
 2985POPC   C1B39547  40.054  30.387   8.631
 2985POPC   C2B39548  40.265  30.235   8.266
 2985POPC   C3B39549  40.191  30.298   7.832
 2985POPC   C4B39550  40.193  30.331   7.371
 2986POPC   NC339551   2.184  13.958   9.463
 2986POPC   PO439552   2.305  13.245   9.460
 2986POPC   GL139553   2.038  13.516   9.235
 2986POPC   GL239554   1.688  13.475   9.313
 2986POPC   C1A39555   2.057  13.602   8.805
 2986POPC   D2A39556   2.330  13.533   8.457
 2986POPC   C3A39557   2.299  13.760   8.098
 2986POPC   C4A39558   2.282  13.448   7.809
 2986POPC   C1B39559   1.564  13.545   8.876
 2986POPC   C2B39560   1.683  13.715   8.453
 2986POPC   C3B39561   1.652  13.551   8.028
 2986POPC   C4B39562   1.881  13.769   7.706
 2987POPC   NC339563  32.709  43.165   9.490
 2987POPC   PO439564  33.307  42.774   9.465
 2987POPC   GL139565  33.140  43.102   9.203
 2987POPC   GL239566  33.256  43.464   9.201
 2987POPC   C1A39567  32.979  43.121   8.794
 2987POPC   D2A39568  33.178  43.012   8.408
 2987POPC   C3A39569  33.057  43.234   8.072
 2987POPC   C4A39570  32.892  43.102   7.677
 2987POPC   C1B39571  33.473  43.285   8.838
 2987POPC   C2B39572  33.612  43.277   8.426
 2987POPC   C3B39573  33.547  43.086   8.032
 2987POPC   C4B39574  33.368  43.233   7.653
 2988POPC   NC339575  27.801  25.673   9.433
 2988POPC   PO439576  27.311  26.078   9.508
 2988POPC   GL139577  27.498  25.959   9.094
 2988POPC   GL239578  27.828  26.122   9.107
 2988POPC   C1A39579  27.482  25.966   8.630
 2988POPC   D2A39580  27.265  26.172   8.271
 2988POPC   C3A39581  27.569  26.330   8.009
 2988POPC   C4A39582  27.854  26.260   7.763
 2988POPC   C1B39583  28.000  25.945   8.727
 2988POPC   C2B39584  27.894  26.050   8.292
 2988POPC   C3B39585  27.987  25.806   7.914
 2988POPC   C4B39586  27.891  25.840   7.452
 2989POPC   NC339587  12.875  32.731   9.492
 2989POPC   PO439588  12.649  33.385   9.550
 2989POPC   GL139589  12.788  33.139   9.182
 2989POPC   GL239590  12.525  32.856   9.149
 2989POPC   C1A39591  13.047  32.910   8.830
 2989POPC   D2A39592  12.948  32.688   8.393
 2989POPC   C3A39593  12.996  32.921   7.983
 2989POPC   C4A39594  12.898  33.231   7.647
 2989POPC   C1B39595  12.549  32.976   8.727
 2989POPC   C2B39596  12.590  33.068   8.304
 2989POPC   C3B39597  12.474  32.935   7.907
 2989POPC   C4B39598  12.572  32.882   7.470
 2990POPC   NC339599  23.366  33.646   9.376
 2990POPC   PO439600  24.025  33.730   9.585
 2990POPC   GL139601  23.833  33.684   9.172
 2990POPC   GL239602  23.563  33.935   9.015
 2990POPC   C1A39603  23.914  33.669   8.744
 2990POPC   D2A39604  23.599  33.798   8.479
 2990POPC   C3A39605  23.633  33.821   8.038
 2990POPC   C4A39606  23.873  33.613   7.729
 2990POPC   C1B39607  23.375  34.228   8.693
 2990POPC   C2B39608  23.221  34.095   8.333
 2990POPC   C3B39609  23.291  34.214   7.955
 2990POPC   C4B39610  23.541  34.482   7.759
 2991POPC   NC339611  30.553  18.124   9.395
 2991POPC   PO439612  30.944  18.726   9.553
 2991POPC   GL139613  30.881  18.519   9.147
 2991POPC   GL239614  31.173  18.352   9.006
 2991POPC   C1A39615  30.670  18.323   8.768
 2991POPC   D2A39616  30.375  18.085   8.479
 2991POPC   C3A39617  30.417  18.040   8.024
 2991POPC   C4A39618  30.676  17.999   7.675
 2991POPC   C1B39619  31.132  18.120   8.654
 2991POPC   C2B39620  30.873  18.241   8.290
 2991POPC   C3B39621  30.862  18.443   7.893
 2991POPC   C4B39622  30.954  18.379   7.453
 2992POPC   NC339623   9.242  11.763   9.855
 2992POPC   PO439624   8.853  11.831   9.332
 2992POPC   GL139625   8.964  11.919   8.978
 2992POPC   GL239626   9.010  12.276   9.036
 2992POPC   C1A39627   8.956  11.809   8.582
 2992POPC   D2A39628   9.141  12.165   8.495
 2992POPC   C3A39629   9.267  12.124   8.091
 2992POPC   C4A39630   9.038  11.795   7.846
 2992POPC   C1B39631   8.658  12.265   8.737
 2992POPC   C2B39632   8.606  12.141   8.337
 2992POPC   C3B39633   8.660  12.281   7.929
 2992POPC   C4B39634   8.998  12.378   7.773
 2993POPC   NC339635   6.462  29.304   9.462
 2993POPC   PO439636   7.178  29.338   9.661
 2993POPC   GL139637   7.001  29.161   9.220
 2993POPC   GL239638   6.665  29.067   9.084
 2993POPC   C1A39639   6.982  29.216   8.741
 2993POPC   D2A39640   6.763  29.168   8.356
 2993POPC   C3A39641   7.034  29.025   8.011
 2993POPC   C4A39642   7.019  29.232   7.664
 2993POPC   C1B39643   6.335  29.172   8.786
 2993POPC   C2B39644   6.172  29.077   8.369
 2993POPC   C3B39645   6.128  29.269   7.979
 2993POPC   C4B39646   6.551  29.134   7.854
 2994POPC   NC339647   8.410  20.862   9.601
 2994POPC   PO439648   7.717  20.698   9.530
 2994POPC   GL139649   7.953  20.824   9.235
 2994POPC   GL239650   8.172  20.541   9.250
 2994POPC   C1A39651   8.070  20.871   8.819
 2994POPC   D2A39652   8.282  20.743   8.438
 2994POPC   C3A39653   8.184  20.818   7.999
 2994POPC   C4A39654   8.492  20.777   7.600
 2994POPC   C1B39655   8.289  20.415   8.838
 2994POPC   C2B39656   8.045  20.308   8.488
 2994POPC   C3B39657   8.075  20.313   8.057
 2994POPC   C4B39658   8.376  20.265   7.760
 2995POPC   NC339659  10.951   6.819   9.401
 2995POPC   PO439660  11.476   6.387   9.498
 2995POPC   GL139661  11.319   6.580   9.158
 2995POPC   GL239662  11.052   6.324   9.176
 2995POPC   C1A39663  11.348   6.759   8.738
 2995POPC   D2A39664  11.259   6.637   8.305
 2995POPC   C3A39665  11.225   6.840   7.903
 2995POPC   C4A39666  11.410   6.846   7.447
 2995POPC   C1B39667  11.278   6.237   8.795
 2995POPC   C2B39668  11.191   6.152   8.391
 2995POPC   C3B39669  11.237   6.228   7.960
 2995POPC   C4B39670  10.956   6.069   7.662
 2996POPC   NC339671   1.153  30.300   9.589
 2996POPC   PO439672   0.909  29.690   9.446
 2996POPC   GL139673   1.026  29.936   9.105
 2996POPC   GL239674   1.379  29.948   9.074
 2996POPC   C1A39675   1.028  29.798   8.671
 2996POPC   D2A39676   0.825  29.712   8.272
 2996POPC   C3A39677   1.105  29.825   7.955
 2996POPC   C4A39678   1.139  29.877   7.522
 2996POPC   C1B39679   1.424  30.160   8.668
 2996POPC   C2B39680   1.472  30.134   8.210
 2996POPC   C3B39681   1.367  30.245   7.794
 2996POPC   C4B39682   1.150  30.453   7.422
 2997POPC   NC339683  32.214  21.676   9.547
 2997POPC   PO439684  32.535  21.061   9.547
 2997POPC   GL139685  32.323  21.252   9.204
 2997POPC   GL239686  32.367  21.590   9.084
 2997POPC   C1A39687  32.111  21.299   8.792
 2997POPC   D2A39688  31.944  21.175   8.419
 2997POPC   C3A39689  32.157  21.215   8.012
 2997POPC   C4A39690  32.161  21.143   7.564
 2997POPC   C1B39691  32.555  21.717   8.692
 2997POPC   C2B39692  32.532  21.945   8.334
 2997POPC   C3B39693  32.380  21.696   8.036
 2997POPC   C4B39694  32.384  21.587   7.653
 2998POPC   NC339695  26.038  18.975   9.736
 2998POPC   PO439696  26.370  19.525   9.661
 2998POPC   GL139697  26.260  19.229   9.274
 2998POPC   GL239698  25.994  18.943   9.236
 2998POPC   C1A39699  26.162  19.178   8.820
 2998POPC   D2A39700  26.082  18.941   8.429
 2998POPC   C3A39701  26.295  19.032   8.029
 2998POPC   C4A39702  26.056  19.128   7.664
 2998POPC   C1B39703  25.878  18.705   8.862
 2998POPC   C2B39704  25.644  18.675   8.467
 2998POPC   C3B39705  25.817  18.707   8.046
 2998POPC   C4B39706  25.688  18.809   7.644
 2999POPC   NC339707   3.501  30.932   9.447
 2999POPC   PO439708   4.010  30.521   9.488
 2999POPC   GL139709   3.706  30.566   9.123
 2999POPC   GL239710   3.326  30.555   9.145
 2999POPC   C1A39711   3.597  30.524   8.681
 2999POPC   D2A39712   3.596  30.459   8.235
 2999POPC   C3A39713   3.767  30.796   8.043
 2999POPC   C4A39714   3.792  30.909   7.615
 2999POPC   C1B39715   3.168  30.783   8.788
 2999POPC   C2B39716   3.155  30.753   8.349
 2999POPC   C3B39717   3.270  30.867   7.919
 2999POPC   C4B39718   3.270  30.930   7.447
 3000POPC   NC339719  41.372  34.709   9.417
 3000POPC   PO439720  41.850  34.268   9.410
 3000POPC   GL139721  41.622  34.437   9.069
 3000POPC   GL239722  41.258  34.325   9.093
 3000POPC   C1A39723  41.716  34.606   8.675
 3000POPC   D2A39724  41.817  34.904   8.361
 3000POPC   C3A39725  41.713  34.678   8.010
 3000POPC   C4A39726  41.448  34.339   7.872
 3000POPC   C1B39727  41.186  34.626   8.753
 3000POPC   C2B39728  41.295  34.689   8.321
 3000POPC   C3B39729  41.159  34.747   7.893
 3000POPC   C4B39730  41.029  35.098   7.642
 3001POPC   NC339731  41.225   8.211   9.428
 3001POPC   PO439732  41.803   7.880   9.591
 3001POPC   GL139733  41.842   8.134   9.168
 3001POPC   GL239734  41.682   8.491   9.154
 3001POPC   C1A39735  41.806   8.095   8.685
 3001POPC   D2A39736  41.554   7.825   8.382
 3001POPC   C3A39737  41.421   7.979   7.971
 3001POPC   C4A39738  41.733   8.012   7.638
 3001POPC   C1B39739  41.430   8.495   8.748
 3001POPC   C2B39740  41.527   8.364   8.305
 3001POPC   C3B39741  41.590   8.467   7.857
 3001POPC   C4B39742  41.592   8.477   7.408
 3002POPC   NC339743   6.158  23.273   9.534
 3002POPC   PO439744   5.586  23.079   9.820
 3002POPC   GL139745   5.797  23.046   9.281
 3002POPC   GL239746   5.944  23.250   9.082
 3002POPC   C1A39747   5.964  22.797   8.878
 3002POPC   D2A39748   5.786  22.802   8.460
 3002POPC   C3A39749   5.966  22.700   8.052
 3002POPC   C4A39750   5.720  22.602   7.708
 3002POPC   C1B39751   6.138  23.247   8.693
 3002POPC   C2B39752   6.151  23.146   8.281
 3002POPC   C3B39753   6.119  23.171   7.842
 3002POPC   C4B39754   6.129  23.242   7.378
 3003POPC   NC339755   0.419  15.715   9.818
 3003POPC   PO439756   0.265  16.234   9.386
 3003POPC   GL139757   0.262  16.150   8.987
 3003POPC   GL239758   0.627  16.123   9.024
 3003POPC   C1A39759   0.406  16.317   8.611
 3003POPC   D2A39760   0.311  16.086   8.258
 3003POPC   C3A39761   0.587  16.079   7.923
 3003POPC   C4A39762   0.564  16.231   7.493
 3003POPC   C1B39763   0.556  15.820   8.682
 3003POPC   C2B39764   0.733  15.530   8.374
 3003POPC   C3B39765   0.868  15.609   7.961
 3003POPC   C4B39766   0.522  15.632   7.688
 3004POPC   NC339767  31.386   8.196   9.532
 3004POPC   PO439768  31.869   8.732   9.573
 3004POPC   GL139769  31.692   8.493   9.242
 3004POPC   GL239770  31.371   8.658   9.172
 3004POPC   C1A39771  31.606   8.203   8.894
 3004POPC   D2A39772  31.738   8.309   8.477
 3004POPC   C3A39773  31.471   8.249   8.137
 3004POPC   C4A39774  31.575   8.160   7.705
 3004POPC   C1B39775  31.366   8.620   8.721
 3004POPC   C2B39776  31.098   8.416   8.456
 3004POPC   C3B39777  30.947   8.411   8.059
 3004POPC   C4B39778  31.201   8.513   7.743
 3005POPC   NC339779  35.947  28.482   9.583
 3005POPC   PO439780  36.439  28.147   9.397
 3005POPC   GL139781  36.196  28.401   9.124
 3005POPC   GL239782  35.871  28.287   9.110
 3005POPC   C1A39783  36.022  28.540   8.715
 3005POPC   D2A39784  36.200  28.665   8.321
 3005POPC   C3A39785  36.108  28.468   7.923
 3005POPC   C4A39786  36.080  28.456   7.489
 3005POPC   C1B39787  35.924  28.029   8.745
 3005POPC   C2B39788  35.904  28.203   8.343
 3005POPC   C3B39789  35.847  28.043   7.955
 3005POPC   C4B39790  35.810  28.000   7.508
 3006POPC   NC339791  13.927  10.213   9.380
 3006POPC   PO439792  13.659  10.906   9.547
 3006POPC   GL139793  13.591  10.610   9.239
 3006POPC   GL239794  13.287  10.398   9.326
 3006POPC   C1A39795  13.767  10.598   8.821
 3006POPC   D2A39796  13.870  10.473   8.428
 3006POPC   C3A39797  13.877  10.741   8.074
 3006POPC   C4A39798  13.785  10.516   7.676
 3006POPC   C1B39799  13.253  10.529   8.864
 3006POPC   C2B39800  13.381  10.348   8.480
 3006POPC   C3B39801  13.425  10.506   8.053
 3006POPC   C4B39802  13.290  10.674   7.635
 3007POPC   NC339803   4.830  38.908   9.625
 3007POPC   PO439804   4.280  39.183   9.441
 3007POPC   GL139805   4.598  39.110   9.166
 3007POPC   GL239806   4.671  39.452   9.183
 3007POPC   C1A39807   4.530  39.114   8.719
 3007POPC   D2A39808   4.506  39.091   8.268
 3007POPC   C3A39809   4.132  39.150   8.049
 3007POPC   C4A39810   4.376  38.954   7.780
 3007POPC   C1B39811   4.433  39.612   8.817
 3007POPC   C2B39812   4.283  39.503   8.442
 3007POPC   C3B39813   4.429  39.560   8.044
 3007POPC   C4B39814   4.339  39.794   7.703
 3008POPC   NC339815  42.707  25.887   9.423
 3008POPC   PO439816  42.028  25.767   9.549
 3008POPC   GL139817  42.265  25.880   9.149
 3008POPC   GL239818  42.427  26.202   9.090
 3008POPC   C1A39819  42.444  25.791   8.748
 3008POPC   D2A39820  42.470  26.082   8.413
 3008POPC   C3A39821  42.261  25.947   8.028
 3008POPC   C4A39822  42.496  25.765   7.686
 3008POPC   C1B39823  42.084  26.186   8.764
 3008POPC   C2B39824  42.053  26.363   8.325
 3008POPC   C3B39825  42.024  26.359   7.864
 3008POPC   C4B39826  42.464  26.316   7.721
 3009POPC   NC339827  36.941  21.156   9.503
 3009POPC   PO439828  36.782  21.779   9.702
 3009POPC   GL139829  36.773  21.600   9.219
 3009POPC   GL239830  36.725  21.230   9.072
 3009POPC   C1A39831  36.640  21.554   8.731
 3009POPC   D2A39832  36.676  21.199   8.460
 3009POPC   C3A39833  36.867  21.378   8.126
 3009POPC   C4A39834  36.666  21.651   7.854
 3009POPC   C1B39835  37.046  21.077   8.794
 3009POPC   C2B39836  37.111  20.927   8.338
 3009POPC   C3B39837  37.101  21.009   7.876
 3009POPC   C4B39838  37.337  21.121   7.481
 3010POPC   NC339839   8.474  35.872   9.432
 3010POPC   PO439840   7.833  36.107   9.469
 3010POPC   GL139841   8.102  36.013   9.105
 3010POPC   GL239842   8.389  36.198   9.060
 3010POPC   C1A39843   8.188  35.974   8.660
 3010POPC   D2A39844   7.941  35.795   8.351
 3010POPC   C3A39845   8.108  35.972   8.019
 3010POPC   C4A39846   8.130  35.770   7.637
 3010POPC   C1B39847   8.584  36.393   8.724
 3010POPC   C2B39848   8.498  36.278   8.333
 3010POPC   C3B39849   8.414  36.462   7.962
 3010POPC   C4B39850   8.417  36.186   7.671
 3011POPC   NC339851  20.019  24.611   9.645
 3011POPC   PO439852  20.614  24.320   9.574
 3011POPC   GL139853  20.736  24.531   9.192
 3011POPC   GL239854  20.426  24.693   9.142
 3011POPC   C1A39855  20.894  24.580   8.787
 3011POPC   D2A39856  20.787  24.365   8.414
 3011POPC   C3A39857  20.876  24.543   8.009
 3011POPC   C4A39858  20.754  24.426   7.593
 3011POPC   C1B39859  20.409  24.370   8.821
 3011POPC   C2B39860  20.303  24.121   8.459
 3011POPC   C3B39861  20.242  24.025   8.029
 3011POPC   C4B39862  20.259  24.349   7.707
 3012POPC   NC339863   4.916  26.186   9.306
 3012POPC   PO439864   5.146  25.565   9.459
 3012POPC   GL139865   5.289  25.831   9.119
 3012POPC   GL239866   5.405  26.201   9.145
 3012POPC   C1A39867   5.178  25.756   8.707
 3012POPC   D2A39868   4.947  25.736   8.347
 3012POPC   C3A39869   5.190  25.827   8.033
 3012POPC   C4A39870   5.014  25.793   7.654
 3012POPC   C1B39871   5.167  26.280   8.727
 3012POPC   C2B39872   4.967  26.271   8.328
 3012POPC   C3B39873   5.100  26.298   7.886
 3012POPC   C4B39874   5.299  26.194   7.492
 3013POPC   NC339875  36.280  34.641   9.573
 3013POPC   PO439876  35.613  34.373   9.518
 3013POPC   GL139877  35.964  34.486   9.219
 3013POPC   GL239878  36.162  34.843   9.122
 3013POPC   C1A39879  36.172  34.441   8.842
 3013POPC   D2A39880  36.165  34.736   8.530
 3013POPC   C3A39881  36.234  34.484   8.220
 3013POPC   C4A39882  36.127  34.550   7.785
 3013POPC   C1B39883  36.555  34.769   8.843
 3013POPC   C2B39884  36.628  34.898   8.380
 3013POPC   C3B39885  36.311  34.952   8.033
 3013POPC   C4B39886  36.348  35.012   7.564
 3014POPC   NC339887  21.154  33.031   9.673
 3014POPC   PO439888  21.761  32.818   9.721
 3014POPC   GL139889  21.501  33.016   9.299
 3014POPC   GL239890  21.227  33.283   9.218
 3014POPC   C1A39891  21.285  32.936   8.859
 3014POPC   D2A39892  21.224  33.124   8.451
 3014POPC   C3A39893  21.379  32.887   8.089
 3014POPC   C4A39894  21.183  32.749   7.724
 3014POPC   C1B39895  21.562  33.354   8.911
 3014POPC   C2B39896  21.652  33.432   8.491
 3014POPC   C3B39897  21.490  33.382   8.083
 3014POPC   C4B39898  21.510  33.188   7.673
 3015POPC   NC339899  22.253  11.884   9.777
 3015POPC   PO439900  22.297  12.393   9.472
 3015POPC   GL139901  22.153  12.141   9.156
 3015POPC   GL239902  22.345  11.840   9.182
 3015POPC   C1A39903  21.965  12.092   8.750
 3015POPC   D2A39904  21.956  11.773   8.423
 3015POPC   C3A39905  21.864  11.886   8.001
 3015POPC   C4A39906  21.903  12.333   7.867
 3015POPC   C1B39907  22.579  11.648   8.841
 3015POPC   C2B39908  22.622  11.607   8.392
 3015POPC   C3B39909  22.389  11.897   8.130
 3015POPC   C4B39910  22.464  12.254   7.870
 3016POPC   NC339911   9.057  26.199   9.482
 3016POPC   PO439912   8.552  25.757   9.232
 3016POPC   GL139913   8.918  25.920   9.014
 3016POPC   GL239914   9.262  25.845   9.132
 3016POPC   C1A39915   9.021  25.893   8.566
 3016POPC   D2A39916   8.868  26.198   8.286
 3016POPC   C3A39917   8.686  26.101   7.923
 3016POPC   C4A39918   8.715  25.749   7.631
 3016POPC   C1B39919   9.374  26.170   8.801
 3016POPC   C2B39920   9.364  26.268   8.325
 3016POPC   C3B39921   9.216  25.974   7.923
 3016POPC   C4B39922   9.167  25.884   7.451
 3017POPC   NC339923  26.241   8.057   9.627
 3017POPC   PO439924  25.915   8.694   9.672
 3017POPC   GL139925  26.045   8.429   9.311
 3017POPC   GL239926  25.862   8.100   9.208
 3017POPC   C1A39927  26.122   8.393   8.874
 3017POPC   D2A39928  26.114   8.141   8.536
 3017POPC   C3A39929  26.234   8.211   8.134
 3017POPC   C4A39930  26.125   8.299   7.738
 3017POPC   C1B39931  25.904   7.791   8.840
 3017POPC   C2B39932  26.013   7.658   8.395
 3017POPC   C3B39933  26.029   7.783   7.949
 3017POPC   C4B39934  25.872   7.831   7.534
 3018POPC   NC339935  33.572  39.810   9.905
 3018POPC   PO439936  34.132  40.128   9.602
 3018POPC   GL139937  33.930  40.227   9.227
 3018POPC   GL239938  33.794  39.941   9.200
 3018POPC   C1A39939  33.852  40.214   8.765
 3018POPC   D2A39940  33.954  39.974   8.403
 3018POPC   C3A39941  33.821  40.027   7.979
 3018POPC   C4A39942  34.086  40.078   7.644
 3018POPC   C1B39943  33.925  39.671   8.868
 3018POPC   C2B39944  33.971  39.477   8.468
 3018POPC   C3B39945  33.706  39.559   8.120
 3018POPC   C4B39946  33.786  39.604   7.675
 3019POPC   NC339947   3.066  16.843   9.403
 3019POPC   PO439948   2.772  16.278   9.672
 3019POPC   GL139949   2.740  16.575   9.149
 3019POPC   GL239950   2.720  16.917   9.018
 3019POPC   C1A39951   2.983  16.598   8.729
 3019POPC   D2A39952   2.812  16.724   8.325
 3019POPC   C3A39953   2.963  16.599   7.913
 3019POPC   C4A39954   2.706  16.598   7.527
 3019POPC   C1B39955   3.065  17.102   8.801
 3019POPC   C2B39956   3.054  17.231   8.407
 3019POPC   C3B39957   3.100  17.075   8.051
 3019POPC   C4B39958   2.947  17.050   7.669
 3020POPC   NC339959  39.932  35.938   9.389
 3020POPC   PO439960  40.584  35.848   9.393
 3020POPC   GL139961  40.353  36.102   9.080
 3020POPC   GL239962  39.958  36.176   8.965
 3020POPC   C1A39963  40.346  36.324   8.718
 3020POPC   D2A39964  40.025  36.267   8.431
 3020POPC   C3A39965  40.203  36.207   8.058
 3020POPC   C4A39966  40.275  36.366   7.695
 3020POPC   C1B39967  39.674  36.441   8.757
 3020POPC   C2B39968  39.633  36.636   8.339
 3020POPC   C3B39969  39.427  36.471   7.973
 3020POPC   C4B39970  39.716  36.205   7.764
 3021POPC   NC339971  24.604  18.414   9.606
 3021POPC   PO439972  24.149  17.909   9.586
 3021POPC   GL139973  24.432  17.899   9.200
 3021POPC   GL239974  24.511  18.239   9.104
 3021POPC   C1A39975  24.611  17.888   8.742
 3021POPC   D2A39976  24.334  17.967   8.358
 3021POPC   C3A39977  24.487  18.113   7.995
 3021POPC   C4A39978  24.790  17.963   7.714
 3021POPC   C1B39979  24.143  18.101   8.824
 3021POPC   C2B39980  23.889  18.198   8.424
 3021POPC   C3B39981  23.998  18.394   8.015
 3021POPC   C4B39982  24.312  18.476   7.696
 3022POPC   NC339983  26.711   0.848   9.350
 3022POPC   PO439984  26.438   0.150   9.512
 3022POPC   GL139985  26.541   0.311   9.088
 3022POPC   GL239986  26.841   0.409   9.145
 3022POPC   C1A39987  26.604   0.436   8.630
 3022POPC   D2A39988  26.815   0.370   8.204
 3022POPC   C3A39989  26.678   0.638   7.835
 3022POPC   C4A39990  26.419   0.577   7.447
 3022POPC   C1B39991  27.060   0.279   8.811
 3022POPC   C2B39992  27.292   0.452   8.481
 3022POPC   C3B39993  27.230   0.655   8.073
 3022POPC   C4B39994  27.104   0.362   7.753
 3023POPC   NC339995   1.037   4.122   9.536
 3023POPC   PO439996   1.737   4.115   9.593
 3023POPC   GL139997   1.443   4.385   9.311
 3023POPC   GL239998   1.143   4.610   9.358
 3023POPC   C1A39999   1.357   4.312   8.876
 3023POPC   D2A40000   1.131   4.277   8.492
 3023POPC   C3A40001   1.373   4.379   8.134
 3023POPC   C4A40002   1.353   4.265   7.734
 3023POPC   C1B40003   1.298   4.806   8.965
 3023POPC   C2B40004   1.407   4.706   8.550
 3023POPC   C3B40005   1.439   4.893   8.149
 3023POPC   C4B40006   1.184   4.747   7.823
 3024POPC   NC340007  34.066   0.497   9.594
 3024POPC   PO440008  33.794  44.873   9.654
 3024POPC   GL140009  33.759   0.229   9.290
 3024POPC   GL240010  33.456   0.458   9.286
 3024POPC   C1A40011  33.902   0.468   8.891
 3024POPC   D2A40012  34.081   0.427   8.469
 3024POPC   C3A40013  33.954   0.648   8.111
 3024POPC   C4A40014  34.008   0.448   7.693
 3024POPC   C1B40015  33.447   0.243   8.873
 3024POPC   C2B40016  33.566   0.467   8.478
 3024POPC   C3B40017  33.559   0.311   8.047
 3024POPC   C4B40018  33.353   0.517   7.729
 3025POPC   NC340019  25.864  42.585   9.543
 3025POPC   PO440020  26.445  42.337   9.530
 3025POPC   GL140021  26.114  42.168   9.244
 3025POPC   GL240022  25.840  42.339   9.106
 3025POPC   C1A40023  26.159  42.151   8.770
 3025POPC   D2A40024  26.243  41.992   8.350
 3025POPC   C3A40025  26.259  42.262   7.994
 3025POPC   C4A40026  25.988  42.284   7.659
 3025POPC   C1B40027  25.723  42.418   8.680
 3025POPC   C2B40028  25.823  42.419   8.227
 3025POPC   C3B40029  25.582  42.548   7.831
 3025POPC   C4B40030  25.727  42.624   7.382
 3026POPC   NC340031  18.873   6.217   9.459
 3026POPC   PO440032  19.056   6.860   9.427
 3026POPC   GL140033  18.998   6.559   9.089
 3026POPC   GL240034  19.233   6.283   8.948
 3026POPC   C1A40035  18.839   6.738   8.707
 3026POPC   D2A40036  19.001   6.890   8.318
 3026POPC   C3A40037  18.764   6.886   7.954
 3026POPC   C4A40038  18.973   6.974   7.574
 3026POPC   C1B40039  18.853   6.234   8.722
 3026POPC   C2B40040  18.771   6.413   8.324
 3026POPC   C3B40041  18.558   6.417   7.975
 3026POPC   C4B40042  18.857   6.468   7.667
 3027POPC   NC340043   4.898  30.298   9.384
 3027POPC   PO440044   4.816  30.912   9.515
 3027POPC   GL140045   4.952  30.791   9.148
 3027POPC   GL240046   5.286  30.808   9.182
 3027POPC   C1A40047   4.798  30.723   8.737
 3027POPC   D2A40048   4.721  30.501   8.334
 3027POPC   C3A40049   5.043  30.469   7.992
 3027POPC   C4A40050   4.984  30.700   7.584
 3027POPC   C1B40051   5.250  31.005   8.779
 3027POPC   C2B40052   5.107  30.890   8.362
 3027POPC   C3B40053   5.261  30.929   7.943
 3027POPC   C4B40054   5.351  31.069   7.513
 3028POPC   NC340055  26.826  35.234   9.474
 3028POPC   PO440056  27.189  35.566   9.789
 3028POPC   GL140057  27.027  35.787   9.365
 3028POPC   GL240058  26.684  35.703   9.215
 3028POPC   C1A40059  27.064  35.793   8.884
 3028POPC   D2A40060  27.260  35.574   8.522
 3028POPC   C3A40061  26.994  35.535   8.132
 3028POPC   C4A40062  27.127  35.268   7.783
 3028POPC   C1B40063  26.611  35.553   8.758
 3028POPC   C2B40064  26.458  35.433   8.334
 3028POPC   C3B40065  26.557  35.301   7.915
 3028POPC   C4B40066  26.744  35.584   7.673
 3029POPC   NC340067  41.844  33.796   9.462
 3029POPC   PO440068  41.166  33.546   9.448
 3029POPC   GL140069  41.428  33.817   9.160
 3029POPC   GL240070  41.694  33.562   9.032
 3029POPC   C1A40071  41.538  34.057   8.756
 3029POPC   D2A40072  41.608  34.230   8.340
 3029POPC   C3A40073  41.662  33.892   8.034
 3029POPC   C4A40074  41.685  33.911   7.590
 3029POPC   C1B40075  41.321  33.594   8.718
 3029POPC   C2B40076  41.130  33.625   8.273
 3029POPC   C3B40077  41.329  33.522   7.834
 3029POPC   C4B40078  41.776  33.435   7.730
 3030POPC   NC340079  28.536  28.046   9.502
 3030POPC   PO440080  28.001  27.636   9.546
 3030POPC   GL140081  28.229  27.722   9.161
 3030POPC   GL240082  28.622  27.683   9.159
 3030POPC   C1A40083  28.226  27.825   8.720
 3030POPC   D2A40084  28.408  27.953   8.336
 3030POPC   C3A40085  28.101  27.835   8.041
 3030POPC   C4A40086  28.175  27.747   7.621
 3030POPC   C1B40087  28.552  27.412   8.808
 3030POPC   C2B40088  28.393  27.436   8.386
 3030POPC   C3B40089  28.558  27.558   7.993
 3030POPC   C4B40090  28.574  27.372   7.599
 3031POPC   NC340091  12.834  37.583   9.562
 3031POPC   PO440092  13.417  37.291   9.410
 3031POPC   GL140093  13.048  37.383   9.135
 3031POPC   GL240094  12.927  37.736   9.102
 3031POPC   C1A40095  12.838  37.422   8.734
 3031POPC   D2A40096  12.928  37.683   8.383
 3031POPC   C3A40097  12.760  37.428   8.051
 3031POPC   C4A40098  12.447  37.604   7.773
 3031POPC   C1B40099  13.172  37.941   8.815
 3031POPC   C2B40100  13.433  37.881   8.478
 3031POPC   C3B40101  13.290  37.945   8.063
 3031POPC   C4B40102  12.905  37.862   7.834
 3032POPC   NC340103  26.488  39.806   9.372
 3032POPC   PO440104  25.905  39.878   9.722
 3032POPC   GL140105  25.904  39.925   9.256
 3032POPC   GL240106  26.159  40.166   9.159
 3032POPC   C1A40107  25.878  39.822   8.782
 3032POPC   D2A40108  25.933  39.609   8.338
 3032POPC   C3A40109  25.925  39.774   7.917
 3032POPC   C4A40110  25.691  39.910   7.544
 3032POPC   C1B40111  26.359  39.977   8.787
 3032POPC   C2B40112  26.613  40.071   8.485
 3032POPC   C3B40113  26.339  40.025   8.116
 3032POPC   C4B40114  26.387  39.934   7.685
 3033POPC   NC340115  23.254  29.902   9.581
 3033POPC   PO440116  22.598  29.723   9.411
 3033POPC   GL140117  22.951  29.845   9.151
 3033POPC   GL240118  23.073  30.182   9.173
 3033POPC   C1A40119  23.134  29.876   8.731
 3033POPC   D2A40120  23.021  29.655   8.347
 3033POPC   C3A40121  23.024  29.857   7.941
 3033POPC   C4A40122  23.283  30.206   7.832
 3033POPC   C1B40123  22.732  30.198   8.849
 3033POPC   C2B40124  22.604  30.242   8.407
 3033POPC   C3B40125  22.654  30.283   7.920
 3033POPC   C4B40126  22.886  30.210   7.512
 3034POPC   NC340127  19.394  14.403   9.458
 3034POPC   PO440128  20.045  14.607   9.592
 3034POPC   GL140129  19.836  14.472   9.203
 3034POPC   GL240130  19.803  14.131   9.177
 3034POPC   C1A40131  19.906  14.570   8.776
 3034POPC   D2A40132  20.040  14.827   8.428
 3034POPC   C3A40133  20.089  14.603   8.058
 3034POPC   C4A40134  19.861  14.418   7.750
 3034POPC   C1B40135  19.722  14.098   8.731
 3034POPC   C2B40136  19.489  14.301   8.426
 3034POPC   C3B40137  19.531  14.117   8.041
 3034POPC   C4B40138  19.844  13.911   7.784
 3035POPC   NC340139   9.041  22.142   9.506
 3035POPC   PO440140   9.030  21.474   9.770
 3035POPC   GL140141   9.037  21.700   9.234
 3035POPC   GL240142   9.248  21.994   9.060
 3035POPC   C1A40143   8.854  21.827   8.807
 3035POPC   D2A40144   8.904  22.070   8.424
 3035POPC   C3A40145   9.124  21.982   8.044
 3035POPC   C4A40146   8.832  22.143   7.753
 3035POPC   C1B40147   8.947  22.347   8.864
 3035POPC   C2B40148   8.715  22.567   8.510
 3035POPC   C3B40149   8.597  22.400   8.124
 3035POPC   C4B40150   8.635  22.630   7.763
 3036POPC   NC340151   7.099  31.728   9.438
 3036POPC   PO440152   7.347  31.095   9.546
 3036POPC   GL140153   7.170  31.287   9.193
 3036POPC   GL240154   7.451  31.483   9.159
 3036POPC   C1A40155   7.124  31.449   8.789
 3036POPC   D2A40156   7.222  31.342   8.413
 3036POPC   C3A40157   6.950  31.518   8.184
 3036POPC   C4A40158   7.082  31.418   7.771
 3036POPC   C1B40159   7.618  31.311   8.773
 3036POPC   C2B40160   7.725  31.449   8.376
 3036POPC   C3B40161   7.790  31.243   8.004
 3036POPC   C4B40162   7.580  31.411   7.667
 3037POPC   NC340163  40.510  42.620   9.535
 3037POPC   PO440164  41.077  42.324   9.484
 3037POPC   GL140165  40.802  42.335   9.179
 3037POPC   GL240166  40.462  42.265   9.173
 3037POPC   C1A40167  40.827  42.211   8.766
 3037POPC   D2A40168  40.656  42.177   8.359
 3037POPC   C3A40169  40.879  42.199   7.968
 3037POPC   C4A40170  41.169  42.450   7.767
 3037POPC   C1B40171  40.533  42.612   8.847
 3037POPC   C2B40172  40.401  42.616   8.410
 3037POPC   C3B40173  40.731  42.663   8.119
 3037POPC   C4B40174  40.817  42.802   7.723
 3038POPC   NC340175  24.958  41.708   9.446
 3038POPC   PO440176  24.455  41.196   9.454
 3038POPC   GL140177  24.625  41.418   9.127
 3038POPC   GL240178  24.567  41.777   9.111
 3038POPC   C1A40179  24.566  41.444   8.698
 3038POPC   D2A40180  24.590  41.693   8.357
 3038POPC   C3A40181  24.694  41.443   8.024
 3038POPC   C4A40182  24.410  41.302   7.717
 3038POPC   C1B40183  24.865  41.868   8.763
 3038POPC   C2B40184  25.025  41.942   8.322
 3038POPC   C3B40185  24.726  42.031   7.989
 3038POPC   C4B40186  24.525  41.798   7.656
 3039POPC   NC340187   9.956  34.865   9.388
 3039POPC   PO440188   9.519  34.405   9.679
 3039POPC   GL140189   9.485  34.319   9.213
 3039POPC   GL240190   9.607  34.635   9.028
 3039POPC   C1A40191   9.736  34.218   8.794
 3039POPC   D2A40192   9.678  34.495   8.423
 3039POPC   C3A40193   9.872  34.405   8.012
 3039POPC   C4A40194   9.682  34.284   7.575
 3039POPC   C1B40195   9.395  34.861   8.685
 3039POPC   C2B40196   9.306  35.004   8.276
 3039POPC   C3B40197   9.437  35.005   7.868
 3039POPC   C4B40198   9.797  34.781   7.660
 3040POPC   NC340199  12.305  14.699   9.608
 3040POPC   PO440200  11.843  14.224   9.569
 3040POPC   GL140201  12.196  14.284   9.267
 3040POPC   GL240202  12.013  14.583   9.208
 3040POPC   C1A40203  12.307  14.155   8.810
 3040POPC   D2A40204  12.114  14.080   8.393
 3040POPC   C3A40205  12.207  14.241   7.975
 3040POPC   C4A40206  11.850  14.354   7.702
 3040POPC   C1B40207  12.287  14.649   8.863
 3040POPC   C2B40208  12.346  14.555   8.435
 3040POPC   C3B40209  12.463  14.736   8.052
 3040POPC   C4B40210  12.253  14.721   7.668
 3041POPC   NC340211  33.034  15.665   9.803
 3041POPC   PO440212  33.426  15.118   9.763
 3041POPC   GL140213  33.255  15.111   9.233
 3041POPC   GL240214  33.350  14.834   9.030
 3041POPC   C1A40215  33.143  15.261   8.778
 3041POPC   D2A40216  33.175  15.599   8.494
 3041POPC   C3A40217  33.250  15.416   8.091
 3041POPC   C4A40218  33.008  15.234   7.766
 3041POPC   C1B40219  33.191  14.787   8.648
 3041POPC   C2B40220  33.002  14.980   8.300
 3041POPC   C3B40221  33.121  14.781   7.925
 3041POPC   C4B40222  33.191  14.869   7.454
 3042POPC   NC340223  35.109  15.339   9.936
 3042POPC   PO440224  34.508  15.325   9.615
 3042POPC   GL140225  34.540  15.187   9.191
 3042POPC   GL240226  34.328  14.884   9.220
 3042POPC   C1A40227  34.759  15.111   8.817
 3042POPC   D2A40228  34.683  15.306   8.452
 3042POPC   C3A40229  34.838  15.139   8.102
 3042POPC   C4A40230  34.847  15.352   7.735
 3042POPC   C1B40231  34.407  14.722   8.802
 3042POPC   C2B40232  34.632  14.776   8.429
 3042POPC   C3B40233  34.425  14.796   8.049
 3042POPC   C4B40234  34.563  14.932   7.699
 3043POPC   NC340235   1.583  26.698   9.737
 3043POPC   PO440236   2.029  26.681   9.302
 3043POPC   GL140237   2.024  26.920   9.003
 3043POPC   GL240238   2.320  27.075   9.115
 3043POPC   C1A40239   1.904  26.755   8.627
 3043POPC   D2A40240   1.596  26.665   8.359
 3043POPC   C3A40241   1.661  26.963   8.047
 3043POPC   C4A40242   1.681  26.718   7.711
 3043POPC   C1B40243   2.417  26.821   8.713
 3043POPC   C2B40244   2.301  26.581   8.343
 3043POPC   C3B40245   2.187  26.674   7.940
 3043POPC   C4B40246   2.499  27.013   7.858
 3044POPC   NC340247  33.866   7.729   9.457
 3044POPC   PO440248  33.562   8.259   9.625
 3044POPC   GL140249  33.728   8.177   9.217
 3044POPC   GL240250  33.405   8.059   9.126
 3044POPC   C1A40251  33.822   7.935   8.827
 3044POPC   D2A40252  33.705   8.032   8.428
 3044POPC   C3A40253  33.920   8.148   8.071
 3044POPC   C4A40254  33.738   7.931   7.751
 3044POPC   C1B40255  33.391   8.515   8.987
 3044POPC   C2B40256  33.396   8.663   8.585
 3044POPC   C3B40257  33.618   8.522   8.238
 3044POPC   C4B40258  33.501   8.355   7.848
 3045POPC   NC340259   9.865  20.021   9.549
 3045POPC   PO440260   9.731  19.437   9.477
 3045POPC   GL140261   9.544  19.733   9.126
 3045POPC   GL240262   9.660  20.086   9.087
 3045POPC   C1A40263   9.537  19.815   8.654
 3045POPC   D2A40264   9.410  19.822   8.211
 3045POPC   C3A40265   9.667  19.565   7.916
 3045POPC   C4A40266  10.054  19.462   7.636
 3045POPC   C1B40267   9.986  20.058   8.746
 3045POPC   C2B40268   9.889  20.060   8.288
 3045POPC   C3B40269   9.787  20.104   7.858
 3045POPC   C4B40270  10.058  20.161   7.506
 3046POPC   NC340271  18.868  22.597   9.266
 3046POPC   PO440272  19.155  23.200   9.387
 3046POPC   GL140273  18.941  23.079   9.059
 3046POPC   GL240274  18.674  23.337   9.099
 3046POPC   C1A40275  19.132  22.855   8.694
 3046POPC   D2A40276  19.391  22.941   8.315
 3046POPC   C3A40277  19.286  22.910   7.857
 3046POPC   C4A40278  19.151  22.967   7.399
 3046POPC   C1B40279  18.731  23.291   8.658
 3046POPC   C2B40280  18.899  23.106   8.316
 3046POPC   C3B40281  18.874  23.201   7.904
 3046POPC   C4B40282  18.660  22.986   7.572
 3047POPC   NC340283  29.353   2.685   9.489
 3047POPC   PO440284  28.734   3.065   9.573
 3047POPC   GL140285  28.988   2.873   9.193
 3047POPC   GL240286  28.985   2.514   9.168
 3047POPC   C1A40287  29.257   2.764   8.809
 3047POPC   D2A40288  29.060   2.823   8.408
 3047POPC   C3A40289  29.260   2.884   8.023
 3047POPC   C4A40290  29.168   2.729   7.616
 3047POPC   C1B40291  28.763   2.573   8.789
 3047POPC   C2B40292  28.737   2.440   8.379
 3047POPC   C3B40293  28.973   2.454   8.011
 3047POPC   C4B40294  28.854   2.341   7.597
 3048POPC   NC340295  11.528  40.770   9.249
 3048POPC   PO440296  10.907  40.647   9.519
 3048POPC   GL140297  11.019  40.729   9.074
 3048POPC   GL240298  11.156  41.048   9.049
 3048POPC   C1A40299  11.123  40.725   8.620
 3048POPC   D2A40300  11.436  40.457   8.409
 3048POPC   C3A40301  11.355  40.521   8.013
 3048POPC   C4A40302  11.325  40.839   7.763
 3048POPC   C1B40303  11.459  41.099   8.688
 3048POPC   C2B40304  11.441  41.009   8.249
 3048POPC   C3B40305  11.660  41.194   7.901
 3048POPC   C4B40306  11.691  41.037   7.463
 3049POPC   NC340307  41.832  26.883   9.554
 3049POPC   PO440308  42.476  26.999   9.583
 3049POPC   GL140309  42.415  26.708   9.195
 3049POPC   GL240310  42.716  26.758   9.060
 3049POPC   C1A40311  42.382  26.578   8.703
 3049POPC   D2A40312  42.183  26.861   8.352
 3049POPC   C3A40313  42.283  26.776   7.942
 3049POPC   C4A40314  42.457  26.805   7.540
 3049POPC   C1B40315  42.829  26.804   8.651
 3049POPC   C2B40316  42.690  26.842   8.243
 3049POPC   C3B40317  42.689  27.105   7.881
 3049POPC   C4B40318  42.935  26.954   7.525
 3050POPC   NC340319   8.727  32.702   9.336
 3050POPC   PO440320   8.722  33.308   9.330
 3050POPC   GL140321   8.921  33.034   9.017
 3050POPC   GL240322   9.262  32.925   8.955
 3050POPC   C1A40323   8.919  33.139   8.618
 3050POPC   D2A40324   8.704  33.270   8.301
 3050POPC   C3A40325   8.996  33.249   8.032
 3050POPC   C4A40326   9.004  32.991   7.721
 3050POPC   C1B40327   9.058  32.660   8.658
 3050POPC   C2B40328   9.043  32.756   8.196
 3050POPC   C3B40329   9.300  32.614   7.864
 3050POPC   C4B40330   9.355  32.710   7.431
 3051POPC   NC340331  23.596  27.555  10.071
 3051POPC   PO440332  23.857  27.815   9.475
 3051POPC   GL140333  23.754  27.534   9.165
 3051POPC   GL240334  24.081  27.603   9.054
 3051POPC   C1A40335  23.582  27.621   8.742
 3051POPC   D2A40336  23.467  27.822   8.316
 3051POPC   C3A40337  23.747  27.782   7.997
 3051POPC   C4A40338  23.531  27.424   7.862
 3051POPC   C1B40339  23.989  27.293   8.755
 3051POPC   C2B40340  23.848  27.409   8.349
 3051POPC   C3B40341  24.020  27.312   7.956
 3051POPC   C4B40342  23.932  27.355   7.523
 3052POPC   NC340343  28.770  23.110   9.369
 3052POPC   PO440344  28.286  22.672   9.513
 3052POPC   GL140345  28.401  22.813   9.158
 3052POPC   GL240346  28.742  22.664   9.132
 3052POPC   C1A40347  28.189  22.990   8.830
 3052POPC   D2A40348  28.082  23.149   8.444
 3052POPC   C3A40349  27.959  22.867   8.148
 3052POPC   C4A40350  28.230  22.846   7.823
 3052POPC   C1B40351  28.619  22.724   8.711
 3052POPC   C2B40352  28.473  22.763   8.294
 3052POPC   C3B40353  28.678  22.611   7.913
 3052POPC   C4B40354  28.580  22.755   7.482
 3053POPC   NC340355  21.244  32.534   9.390
 3053POPC   PO440356  21.439  31.891   9.541
 3053POPC   GL140357  21.444  32.110   9.164
 3053POPC   GL240358  21.122  32.020   9.132
 3053POPC   C1A40359  21.632  32.196   8.714
 3053POPC   D2A40360  21.611  32.511   8.350
 3053POPC   C3A40361  21.584  32.294   7.912
 3053POPC   C4A40362  21.350  32.318   7.486
 3053POPC   C1B40363  21.136  32.098   8.708
 3053POPC   C2B40364  21.285  32.101   8.288
 3053POPC   C3B40365  21.073  32.184   7.893
 3053POPC   C4B40366  20.954  31.970   7.489
 3054POPC   NC340367   2.407  44.276   9.544
 3054POPC   PO440368   3.211  44.247   9.580
 3054POPC   GL140369   3.035  43.905   9.321
 3054POPC   GL240370   2.660  43.914   9.263
 3054POPC   C1A40371   2.999  43.709   8.904
 3054POPC   D2A40372   2.826  43.857   8.515
 3054POPC   C3A40373   3.057  43.860   8.138
 3054POPC   C4A40374   3.011  43.830   7.746
 3054POPC   C1B40375   2.386  43.946   8.883
 3054POPC   C2B40376   2.284  43.827   8.486
 3054POPC   C3B40377   2.475  43.933   8.144
 3054POPC   C4B40378   2.524  43.882   7.743
 3055POPC   NC340379   6.990  14.417   9.355
 3055POPC   PO440380   7.477  14.061   9.653
 3055POPC   GL140381   7.448  14.201   9.202
 3055POPC   GL240382   7.435  14.569   9.145
 3055POPC   C1A40383   7.213  14.124   8.810
 3055POPC   D2A40384   7.141  14.141   8.366
 3055POPC   C3A40385   7.498  14.216   8.128
 3055POPC   C4A40386   7.443  14.315   7.728
 3055POPC   C1B40387   7.213  14.629   8.760
 3055POPC   C2B40388   7.319  14.656   8.359
 3055POPC   C3B40389   7.239  14.705   7.969
 3055POPC   C4B40390   7.601  14.822   7.755
 3056POPC   NC340391  42.895   1.473   9.507
 3056POPC   PO440392  43.300   0.954   9.482
 3056POPC   GL140393  43.124   1.164   9.193
 3056POPC   GL240394  42.760   1.061   9.235
 3056POPC   C1A40395  43.237   1.358   8.827
 3056POPC   D2A40396  43.527   1.255   8.488
 3056POPC   C3A40397  43.305   1.242   8.090
 3056POPC   C4A40398  43.278   1.361   7.659
 3056POPC   C1B40399  42.682   1.250   8.865
 3056POPC   C2B40400  42.880   1.268   8.465
 3056POPC   C3B40401  42.722   1.190   8.069
 3056POPC   C4B40402  42.786   1.334   7.675
 3057POPC   NC340403  16.416  11.901   9.484
 3057POPC   PO440404  17.044  11.526   9.463
 3057POPC   GL140405  16.918  11.905   9.185
 3057POPC   GL240406  16.570  11.975   9.022
 3057POPC   C1A40407  16.976  12.148   8.780
 3057POPC   D2A40408  16.679  12.041   8.454
 3057POPC   C3A40409  16.838  11.914   8.062
 3057POPC   C4A40410  17.032  12.249   7.841
 3057POPC   C1B40411  16.470  12.361   8.810
 3057POPC   C2B40412  16.485  12.520   8.393
 3057POPC   C3B40413  16.563  12.387   7.962
 3057POPC   C4B40414  16.585  12.051   7.625
 3058POPC   NC340415   4.697  19.622   9.405
 3058POPC   PO440416   5.016  20.149   9.572
 3058POPC   GL140417   5.115  20.012   9.180
 3058POPC   GL240418   4.768  20.039   9.127
 3058POPC   C1A40419   5.354  19.703   8.893
 3058POPC   D2A40420   5.225  19.503   8.487
 3058POPC   C3A40421   5.348  19.654   8.080
 3058POPC   C4A40422   5.230  19.556   7.648
 3058POPC   C1B40423   4.862  19.810   8.731
 3058POPC   C2B40424   4.779  19.685   8.288
 3058POPC   C3B40425   4.926  19.871   7.901
 3058POPC   C4B40426   5.169  20.035   7.509
 3059POPC   NC340427   1.175  22.139   9.595
 3059POPC   PO440428   1.717  22.496   9.650
 3059POPC   GL140429   1.467  22.472   9.244
 3059POPC   GL240430   1.472  22.118   9.209
 3059POPC   C1A40431   1.364  22.399   8.762
 3059POPC   D2A40432   1.088  22.465   8.357
 3059POPC   C3A40433   1.100  22.341   7.896
 3059POPC   C4A40434   1.196  22.337   7.406
 3059POPC   C1B40435   1.164  21.925   8.927
 3059POPC   C2B40436   1.169  21.979   8.500
 3059POPC   C3B40437   1.324  21.910   8.086
 3059POPC   C4B40438   1.210  21.887   7.692
 3060POPC   NC340439  11.885   6.171   9.531
 3060POPC   PO440440  12.278   5.585   9.552
 3060POPC   GL140441  12.270   5.949   9.258
 3060POPC   GL240442  11.956   5.833   9.153
 3060POPC   C1A40443  12.204   6.251   8.868
 3060POPC   D2A40444  12.180   6.207   8.406
 3060POPC   C3A40445  12.020   6.218   7.959
 3060POPC   C4A40446  12.124   6.213   7.510
 3060POPC   C1B40447  12.233   5.756   8.779
 3060POPC   C2B40448  12.479   5.766   8.440
 3060POPC   C3B40449  12.185   5.766   8.107
 3060POPC   C4B40450  11.997   5.766   7.680
 3061POPC   NC340451  13.571  31.822   9.718
 3061POPC   PO440452  13.954  31.332   9.355
 3061POPC   GL140453  13.697  31.276   9.040
 3061POPC   GL240454  13.443  31.450   9.206
 3061POPC   C1A40455  13.791  31.323   8.628
 3061POPC   D2A40456  14.061  31.165   8.309
 3061POPC   C3A40457  13.832  31.319   7.941
 3061POPC   C4A40458  13.743  31.756   7.842
 3061POPC   C1B40459  13.313  31.494   8.760
 3061POPC   C2B40460  13.405  31.528   8.312
 3061POPC   C3B40461  13.345  31.429   7.889
 3061POPC   C4B40462  13.572  31.387   7.499
 3062POPC   NC340463   3.324  43.414   9.545
 3062POPC   PO440464   3.684  42.858   9.570
 3062POPC   GL140465   3.502  42.856   9.161
 3062POPC   GL240466   3.389  43.169   9.123
 3062POPC   C1A40467   3.537  42.998   8.693
 3062POPC   D2A40468   3.332  42.937   8.332
 3062POPC   C3A40469   3.637  43.040   8.052
 3062POPC   C4A40470   3.633  43.220   7.664
 3062POPC   C1B40471   3.069  43.196   8.793
 3062POPC   C2B40472   3.087  43.416   8.407
 3062POPC   C3B40473   3.220  43.354   7.977
 3062POPC   C4B40474   3.180  43.406   7.531
 3063POPC   NC340475  42.810   6.126   9.291
 3063POPC   PO440476  43.334   5.747   9.553
 3063POPC   GL140477  43.261   5.956   9.169
 3063POPC   GL240478  43.022   5.684   9.125
 3063POPC   C1A40479  43.189   6.025   8.717
 3063POPC   D2A40480  43.225   6.266   8.324
 3063POPC   C3A40481  42.996   6.099   7.988
 3063POPC   C4A40482  42.664   5.921   7.763
 3063POPC   C1B40483  43.341   5.530   8.853
 3063POPC   C2B40484  43.332   5.382   8.424
 3063POPC   C3B40485  43.164   5.621   8.092
 3063POPC   C4B40486  43.130   5.719   7.664
 3064POPC   NC340487  29.077  20.969   9.451
 3064POPC   PO440488  28.784  21.554   9.628
 3064POPC   GL140489  28.970  21.419   9.218
 3064POPC   GL240490  28.876  21.173   9.024
 3064POPC   C1A40491  29.129  21.574   8.844
 3064POPC   D2A40492  29.033  21.881   8.523
 3064POPC   C3A40493  29.176  21.667   8.169
 3064POPC   C4A40494  29.137  21.635   7.718
 3064POPC   C1B40495  29.216  21.083   8.737
 3064POPC   C2B40496  29.120  21.020   8.308
 3064POPC   C3B40497  29.141  21.150   7.869
 3064POPC   C4B40498  29.098  21.075   7.378
 3065POPC   NC340499  40.833  33.910   9.458
 3065POPC   PO440500  40.282  33.444   9.523
 3065POPC   GL140501  40.618  33.544   9.153
 3065POPC   GL240502  40.678  33.917   8.995
 3065POPC   C1A40503  40.813  33.549   8.715
 3065POPC   D2A40504  40.624  33.866   8.461
 3065POPC   C3A40505  40.619  33.890   8.034
 3065POPC   C4A40506  40.770  33.575   7.767
 3065POPC   C1B40507  40.943  34.159   8.734
 3065POPC   C2B40508  41.096  34.142   8.311
 3065POPC   C3B40509  41.102  33.973   7.892
 3065POPC   C4B40510  41.004  34.286   7.652
 3066POPC   NC340511  24.932  40.964   9.492
 3066POPC   PO440512  24.547  40.360   9.479
 3066POPC   GL140513  24.610  40.685   9.184
 3066POPC   GL240514  24.968  40.659   9.072
 3066POPC   C1A40515  24.431  40.951   8.860
 3066POPC   D2A40516  24.220  41.063   8.492
 3066POPC   C3A40517  24.408  40.982   8.099
 3066POPC   C4A40518  24.618  40.851   7.680
 3066POPC   C1B40519  24.712  40.537   8.701
 3066POPC   C2B40520  24.325  40.561   8.429
 3066POPC   C3B40521  24.319  40.501   7.970
 3066POPC   C4B40522  24.761  40.415   7.882
 3067POPC   NC340523  35.891  35.578   9.492
 3067POPC   PO440524  36.422  35.104   9.532
 3067POPC   GL140525  36.431  35.291   9.136
 3067POPC   GL240526  36.194  35.512   9.075
 3067POPC   C1A40527  36.411  35.232   8.699
 3067POPC   D2A40528  36.223  35.362   8.329
 3067POPC   C3A40529  36.382  35.429   7.883
 3067POPC   C4A40530  36.271  35.568   7.435
 3067POPC   C1B40531  35.905  35.236   8.883
 3067POPC   C2B40532  35.799  35.089   8.481
 3067POPC   C3B40533  35.829  35.238   8.070
 3067POPC   C4B40534  35.932  35.258   7.677
 3068POPC   NC340535  32.286  27.999   9.518
 3068POPC   PO440536  32.079  27.331   9.445
 3068POPC   GL140537  32.197  27.609   9.174
 3068POPC   GL240538  31.907  27.761   9.194
 3068POPC   C1A40539  32.310  27.489   8.783
 3068POPC   D2A40540  32.153  27.283   8.427
 3068POPC   C3A40541  32.286  27.463   8.065
 3068POPC   C4A40542  32.347  27.749   7.748
 3068POPC   C1B40543  31.834  27.917   8.805
 3068POPC   C2B40544  31.710  27.811   8.403
 3068POPC   C3B40545  31.907  27.786   8.031
 3068POPC   C4B40546  31.926  27.470   7.682
 3069POPC   NC340547  38.090  14.756   9.488
 3069POPC   PO440548  38.573  15.243   9.370
 3069POPC   GL140549  38.536  14.934   9.078
 3069POPC   GL240550  38.195  15.035   9.070
 3069POPC   C1A40551  38.660  14.916   8.639
 3069POPC   D2A40552  38.683  15.288   8.337
 3069POPC   C3A40553  38.664  15.183   7.893
 3069POPC   C4A40554  38.579  15.268   7.454
 3069POPC   C1B40555  38.233  15.143   8.631
 3069POPC   C2B40556  38.244  15.073   8.170
 3069POPC   C3B40557  38.165  15.092   7.713
 3069POPC   C4B40558  38.001  15.162   7.272
 3070POPC   NC340559   3.471  19.013   9.607
 3070POPC   PO440560   3.414  19.641   9.527
 3070POPC   GL140561   3.407  19.245   9.166
 3070POPC   GL240562   3.268  18.888   9.161
 3070POPC   C1A40563   3.667  18.968   8.857
 3070POPC   D2A40564   3.872  19.065   8.448
 3070POPC   C3A40565   3.565  19.070   8.137
 3070POPC   C4A40566   3.465  19.210   7.717
 3070POPC   C1B40567   3.142  18.946   8.753
 3070POPC   C2B40568   3.234  18.750   8.371
 3070POPC   C3B40569   3.146  18.849   7.945
 3070POPC   C4B40570   3.320  18.721   7.566
 3071POPC   NC340571  39.276  30.154   9.530
 3071POPC   PO440572  39.248  29.557   9.640
 3071POPC   GL140573  39.009  29.687   9.266
 3071POPC   GL240574  38.863  30.019   9.288
 3071POPC   C1A40575  39.019  29.650   8.807
 3071POPC   D2A40576  39.320  29.848   8.530
 3071POPC   C3A40577  39.514  29.681   8.152
 3071POPC   C4A40578  39.546  30.034   7.867
 3071POPC   C1B40579  39.057  30.250   8.910
 3071POPC   C2B40580  38.991  30.333   8.471
 3071POPC   C3B40581  39.108  30.099   8.122
 3071POPC   C4B40582  39.001  30.166   7.715
 3072POPC   NC340583  34.098  40.589   9.565
 3072POPC   PO440584  34.068  41.159   9.370
 3072POPC   GL140585  33.986  40.834   9.098
 3072POPC   GL240586  33.699  40.663   9.120
 3072POPC   C1A40587  33.954  40.769   8.660
 3072POPC   D2A40588  33.750  40.682   8.271
 3072POPC   C3A40589  33.902  40.857   7.926
 3072POPC   C4A40590  34.128  40.910   7.601
 3072POPC   C1B40591  33.492  40.579   8.699
 3072POPC   C2B40592  33.522  40.248   8.368
 3072POPC   C3B40593  33.436  40.349   7.939
 3072POPC   C4B40594  33.281  40.579   7.606
 3073POPC   NC340595   5.999  44.203   9.532
 3073POPC   PO440596   5.828  43.530   9.617
 3073POPC   GL140597   5.655  43.678   9.227
 3073POPC   GL240598   5.629  44.061   9.188
 3073POPC   C1A40599   5.735  43.706   8.788
 3073POPC   D2A40600   5.548  43.913   8.410
 3073POPC   C3A40601   5.588  43.673   8.046
 3073POPC   C4A40602   6.012  43.604   7.859
 3073POPC   C1B40603   5.748  44.233   8.790
 3073POPC   C2B40604   5.788  44.377   8.360
 3073POPC   C3B40605   5.733  44.151   7.950
 3073POPC   C4B40606   5.625  44.182   7.467
 3074POPC   NC340607  32.048  22.349   9.685
 3074POPC   PO440608  32.537  21.937   9.775
 3074POPC   GL140609  32.288  22.133   9.306
 3074POPC   GL240610  31.929  22.116   9.229
 3074POPC   C1A40611  32.292  22.170   8.816
 3074POPC   D2A40612  32.146  22.309   8.396
 3074POPC   C3A40613  32.343  22.290   7.983
 3074POPC   C4A40614  32.493  22.545   7.609
 3074POPC   C1B40615  31.936  21.787   8.894
 3074POPC   C2B40616  32.072  21.723   8.464
 3074POPC   C3B40617  31.931  21.927   8.077
 3074POPC   C4B40618  32.086  22.008   7.650
 3075POPC   NC340619  33.852  17.725   9.441
 3075POPC   PO440620  33.750  17.106   9.633
 3075POPC   GL140621  33.801  17.288   9.207
 3075POPC   GL240622  34.173  17.361   9.194
 3075POPC   C1A40623  33.613  17.283   8.791
 3075POPC   D2A40624  33.776  17.408   8.391
 3075POPC   C3A40625  33.557  17.496   8.042
 3075POPC   C4A40626  33.720  17.462   7.686
 3075POPC   C1B40627  34.128  17.443   8.755
 3075POPC   C2B40628  34.132  17.768   8.440
 3075POPC   C3B40629  34.071  17.660   8.025
 3075POPC   C4B40630  34.240  17.621   7.632
 3076POPC   NC340631  19.490  42.160   9.472
 3076POPC   PO440632  18.824  42.321   9.403
 3076POPC   GL140633  19.211  42.487   9.170
 3076POPC   GL240634  19.463  42.240   8.985
 3076POPC   C1A40635  19.275  42.663   8.765
 3076POPC   D2A40636  19.345  42.362   8.468
 3076POPC   C3A40637  19.352  42.507   8.121
 3076POPC   C4A40638  19.070  42.467   7.806
 3076POPC   C1B40639  19.259  41.965   8.756
 3076POPC   C2B40640  18.980  41.950   8.444
 3076POPC   C3B40641  19.111  42.044   8.066
 3076POPC   C4B40642  18.958  41.968   7.681
 3077POPC   NC340643   6.835  12.471   9.506
 3077POPC   PO440644   6.586  13.090   9.475
 3077POPC   GL140645   6.606  12.771   9.148
 3077POPC   GL240646   6.951  12.770   9.120
 3077POPC   C1A40647   6.671  12.636   8.709
 3077POPC   D2A40648   6.473  12.812   8.349
 3077POPC   C3A40649   6.540  12.575   7.978
 3077POPC   C4A40650   6.593  12.746   7.571
 3077POPC   C1B40651   6.853  13.106   8.842
 3077POPC   C2B40652   6.846  13.180   8.407
 3077POPC   C3B40653   6.842  13.026   7.970
 3077POPC   C4B40654   6.962  13.079   7.560
 3078POPC   NC340655  41.256   1.202   9.543
 3078POPC   PO440656  41.927   1.403   9.626
 3078POPC   GL140657  41.691   1.195   9.265
 3078POPC   GL240658  41.394   1.383   9.094
 3078POPC   C1A40659  41.687   1.078   8.837
 3078POPC   D2A40660  41.644   1.386   8.489
 3078POPC   C3A40661  41.711   1.163   8.102
 3078POPC   C4A40662  41.843   0.989   7.687
 3078POPC   C1B40663  41.215   1.205   8.693
 3078POPC   C2B40664  40.998   1.158   8.316
 3078POPC   C3B40665  41.181   1.015   7.941
 3078POPC   C4B40666  41.414   1.266   7.701
 3079POPC   NC340667  23.330  38.446   9.477
 3079POPC   PO440668  24.004  38.722   9.534
 3079POPC   GL140669  23.961  38.689   9.124
 3079POPC   GL240670  23.598  38.762   9.138
 3079POPC   C1A40671  23.910  38.478   8.730
 3079POPC   D2A40672  23.810  38.175   8.401
 3079POPC   C3A40673  23.933  38.387   8.046
 3079POPC   C4A40674  23.782  38.733   7.878
 3079POPC   C1B40675  23.437  38.716   8.718
 3079POPC   C2B40676  23.284  38.448   8.365
 3079POPC   C3B40677  23.424  38.169   8.012
 3079POPC   C4B40678  23.445  38.010   7.588
 3080POPC   NC340679  40.162  31.353   9.511
 3080POPC   PO440680  39.551  31.543   9.357
 3080POPC   GL140681  39.802  31.404   9.104
 3080POPC   GL240682  40.027  31.676   9.137
 3080POPC   C1A40683  40.007  31.332   8.727
 3080POPC   D2A40684  40.274  31.186   8.431
 3080POPC   C3A40685  40.043  31.269   8.108
 3080POPC   C4A40686  40.124  31.277   7.686
 3080POPC   C1B40687  40.064  31.854   8.743
 3080POPC   C2B40688  39.914  31.716   8.342
 3080POPC   C3B40689  40.109  31.732   7.934
 3080POPC   C4B40690  40.113  31.751   7.496
 3081POPC   NC340691  19.656  30.619   9.566
 3081POPC   PO440692  20.008  31.159   9.473
 3081POPC   GL140693  19.890  30.799   9.166
 3081POPC   GL240694  20.036  30.435   9.213
 3081POPC   C1A40695  19.884  30.641   8.744
 3081POPC   D2A40696  19.609  30.647   8.397
 3081POPC   C3A40697  19.762  30.915   8.094
 3081POPC   C4A40698  19.978  30.715   7.808
 3081POPC   C1B40699  20.333  30.400   8.842
 3081POPC   C2B40700  20.212  30.410   8.396
 3081POPC   C3B40701  20.351  30.379   7.950
 3081POPC   C4B40702  20.180  30.395   7.493
 3082POPC   NC340703  37.355  29.386   9.521
 3082POPC   PO440704  37.713  28.834   9.429
 3082POPC   GL140705  37.500  29.071   9.132
 3082POPC   GL240706  37.776  29.281   9.153
 3082POPC   C1A40707  37.577  29.225   8.694
 3082POPC   D2A40708  37.385  29.250   8.317
 3082POPC   C3A40709  37.499  29.197   7.926
 3082POPC   C4A40710  37.628  28.825   7.802
 3082POPC   C1B40711  38.078  29.242   8.829
 3082POPC   C2B40712  38.027  29.402   8.424
 3082POPC   C3B40713  37.994  29.194   8.042
 3082POPC   C4B40714  37.890  29.377   7.647
 3083POPC   NC340715  24.624  29.590   9.272
 3083POPC   PO440716  24.880  30.189   9.418
 3083POPC   GL140717  24.527  30.072   9.137
 3083POPC   GL240718  24.564  30.348   9.002
 3083POPC   C1A40719  24.214  30.126   8.716
 3083POPC   D2A40720  24.209  30.104   8.233
 3083POPC   C3A40721  24.057  29.701   8.010
 3083POPC   C4A40722  24.172  29.275   7.864
 3083POPC   C1B40723  24.692  29.942   8.688
 3083POPC   C2B40724  24.914  29.921   8.303
 3083POPC   C3B40725  24.622  29.950   7.955
 3083POPC   C4B40726  24.250  30.081   7.712
 3084POPC   NC340727  41.180  44.488   9.317
 3084POPC   PO440728  41.793  44.678   9.493
 3084POPC   GL140729  41.695  44.804   9.117
 3084POPC   GL240730  41.680  44.487   8.920
 3084POPC   C1A40731  41.435  44.893   8.763
 3084POPC   D2A40732  41.581  44.734   8.383
 3084POPC   C3A40733  41.474   0.012   8.077
 3084POPC   C4A40734  41.270   0.096   7.700
 3084POPC   C1B40735  41.762  44.128   8.638
 3084POPC   C2B40736  41.654  44.137   8.207
 3084POPC   C3B40737  41.551  44.478   7.941
 3084POPC   C4B40738  41.785  44.781   7.714
 3085POPC   NC340739  10.488  31.209   9.426
 3085POPC   PO440740  10.599  30.551   9.506
 3085POPC   GL140741  10.443  30.755   9.170
 3085POPC   GL240742  10.723  30.602   8.992
 3085POPC   C1A40743  10.242  30.626   8.784
 3085POPC   D2A40744  10.516  30.529   8.445
 3085POPC   C3A40745  10.412  30.747   8.092
 3085POPC   C4A40746  10.528  30.506   7.742
 3085POPC   C1B40747  10.665  30.955   8.719
 3085POPC   C2B40748  10.817  31.006   8.291
 3085POPC   C3B40749  10.849  30.879   7.818
 3085POPC   C4B40750  10.637  30.893   7.394
 3086POPC   NC340751  37.467  17.213   9.461
 3086POPC   PO440752  37.846  17.687   9.330
 3086POPC   GL140753  37.738  17.463   9.016
 3086POPC   GL240754  37.776  17.100   9.091
 3086POPC   C1A40755  37.618  17.635   8.641
 3086POPC   D2A40756  37.243  17.634   8.378
 3086POPC   C3A40757  37.318  17.799   7.959
 3086POPC   C4A40758  37.688  17.686   7.765
 3086POPC   C1B40759  37.462  17.119   8.780
 3086POPC   C2B40760  37.554  17.208   8.382
 3086POPC   C3B40761  37.514  17.233   7.978
 3086POPC   C4B40762  37.817  17.192   7.701
 3087POPC   NC340763  29.501  20.051   9.371
 3087POPC   PO440764  29.989  19.923   9.885
 3087POPC   GL140765  29.992  19.703   9.379
 3087POPC   GL240766  29.715  19.673   9.135
 3087POPC   C1A40767  30.179  19.752   8.947
 3087POPC   D2A40768  30.193  19.888   8.519
 3087POPC   C3A40769  30.179  19.674   8.110
 3087POPC   C4A40770  30.260  19.885   7.710
 3087POPC   C1B40771  29.706  19.807   8.725
 3087POPC   C2B40772  29.690  19.585   8.359
 3087POPC   C3B40773  29.702  19.750   7.968
 3087POPC   C4B40774  29.647  19.960   7.610
 3088POPC   NC340775   7.593  30.679   9.544
 3088POPC   PO440776   6.952  30.530   9.409
 3088POPC   GL140777   7.238  30.783   9.153
 3088POPC   GL240778   7.593  30.940   9.119
 3088POPC   C1A40779   7.220  30.925   8.751
 3088POPC   D2A40780   7.122  30.646   8.377
 3088POPC   C3A40781   7.411  30.510   8.076
 3088POPC   C4A40782   7.221  30.539   7.706
 3088POPC   C1B40783   7.667  30.705   8.711
 3088POPC   C2B40784   7.536  30.941   8.341
 3088POPC   C3B40785   7.346  31.004   7.940
 3088POPC   C4B40786   7.460  30.939   7.510
 3089POPC   NC340787  20.159  19.230   9.387
 3089POPC   PO440788  19.565  18.974   9.537
 3089POPC   GL140789  19.719  19.094   9.161
 3089POPC   GL240790  19.743  18.773   9.054
 3089POPC   C1A40791  19.856  19.162   8.740
 3089POPC   D2A40792  20.128  19.066   8.363
 3089POPC   C3A40793  20.044  19.234   7.959
 3089POPC   C4A40794  19.616  19.215   7.849
 3089POPC   C1B40795  19.480  18.803   8.701
 3089POPC   C2B40796  19.616  18.961   8.311
 3089POPC   C3B40797  19.847  18.754   7.972
 3089POPC   C4B40798  20.125  18.749   7.624
 3090POPC   NC340799  15.436  32.995   9.659
 3090POPC   PO440800  14.865  33.381   9.482
 3090POPC   GL140801  15.055  33.159   9.124
 3090POPC   GL240802  15.187  32.828   9.181
 3090POPC   C1A40803  15.053  33.233   8.672
 3090POPC   D2A40804  15.295  33.322   8.286
 3090POPC   C3A40805  15.058  33.220   7.895
 3090POPC   C4A40806  15.051  33.412   7.443
 3090POPC   C1B40807  15.279  32.786   8.751
 3090POPC   C2B40808  15.121  32.850   8.319
 3090POPC   C3B40809  15.193  32.668   7.934
 3090POPC   C4B40810  14.909  32.591   7.622
 3091POPC   NC340811   3.524  10.286   9.427
 3091POPC   PO440812   3.787  10.807   9.755
 3091POPC   GL140813   3.686  10.800   9.289
 3091POPC   GL240814   3.408  10.652   9.091
 3091POPC   C1A40815   3.875  10.511   8.947
 3091POPC   D2A40816   4.012  10.581   8.553
 3091POPC   C3A40817   3.844  10.343   8.225
 3091POPC   C4A40818   3.794  10.411   7.804
 3091POPC   C1B40819   3.474  10.563   8.640
 3091POPC   C2B40820   3.317  10.423   8.238
 3091POPC   C3B40821   3.367  10.655   7.872
 3091POPC   C4B40822   3.193  10.568   7.474
 3092POPC   NC340823  21.992  16.194   9.448
 3092POPC   PO440824  22.465  15.747   9.591
 3092POPC   GL140825  22.377  15.924   9.190
 3092POPC   GL240826  22.063  15.792   9.125
 3092POPC   C1A40827  22.384  15.933   8.742
 3092POPC   D2A40828  22.293  16.089   8.303
 3092POPC   C3A40829  22.424  15.886   7.910
 3092POPC   C4A40830  22.339  15.838   7.466
 3092POPC   C1B40831  21.884  15.978   8.755
 3092POPC   C2B40832  21.742  16.016   8.367
 3092POPC   C3B40833  21.893  15.875   8.001
 3092POPC   C4B40834  21.831  16.094   7.623
 3093POPC   NC340835   3.325  23.426   9.529
 3093POPC   PO440836   3.691  22.909   9.402
 3093POPC   GL140837   3.470  23.101   9.114
 3093POPC   GL240838   3.729  23.347   9.126
 3093POPC   C1A40839   3.454  22.929   8.706
 3093POPC   D2A40840   3.569  22.724   8.344
 3093POPC   C3A40841   3.418  22.960   8.016
 3093POPC   C4A40842   3.322  22.682   7.714
 3093POPC   C1B40843   3.932  23.144   8.757
 3093POPC   C2B40844   3.848  23.146   8.296
 3093POPC   C3B40845   3.907  22.998   7.864
 3093POPC   C4B40846   3.611  23.069   7.523
 3094POPC   NC340847  38.139   3.251   9.445
 3094POPC   PO440848  38.639   3.593   9.538
 3094POPC   GL140849  38.640   3.619   9.148
 3094POPC   GL240850  38.635   3.245   9.147
 3094POPC   C1A40851  38.412   3.812   8.792
 3094POPC   D2A40852  38.272   3.579   8.422
 3094POPC   C3A40853  38.340   3.722   8.050
 3094POPC   C4A40854  38.313   3.678   7.650
 3094POPC   C1B40855  38.615   3.349   8.725
 3094POPC   C2B40856  38.716   3.227   8.342
 3094POPC   C3B40857  38.545   3.235   7.938
 3094POPC   C4B40858  38.749   3.377   7.578
 3095POPC   NC340859  23.492  25.028   9.545
 3095POPC   PO440860  23.679  25.650   9.378
 3095POPC   GL140861  23.898  25.374   9.089
 3095POPC   GL240862  23.876  25.000   9.146
 3095POPC   C1A40863  23.623  25.255   8.745
 3095POPC   D2A40864  23.486  25.282   8.324
 3095POPC   C3A40865  23.639  24.983   8.044
 3095POPC   C4A40866  23.575  25.204   7.665
 3095POPC   C1B40867  23.989  24.912   8.712
 3095POPC   C2B40868  24.019  25.210   8.381
 3095POPC   C3B40869  23.978  25.363   7.975
 3095POPC   C4B40870  24.115  25.094   7.593
 3096POPC   NC340871  21.024  29.807   9.587
 3096POPC   PO440872  21.193  30.387   9.396
 3096POPC   GL140873  21.429  30.078   9.149
 3096POPC   GL240874  21.392  29.694   9.186
 3096POPC   C1A40875  21.349  29.921   8.725
 3096POPC   D2A40876  21.204  30.104   8.354
 3096POPC   C3A40877  21.321  29.929   7.933
 3096POPC   C4A40878  21.081  29.998   7.549
 3096POPC   C1B40879  21.658  29.527   8.808
 3096POPC   C2B40880  21.635  29.591   8.317
 3096POPC   C3B40881  21.774  29.563   7.831
 3096POPC   C4B40882  21.750  29.426   7.357
 3097POPC   NC340883  12.749   5.725   9.566
 3097POPC   PO440884  13.039   6.321   9.742
 3097POPC   GL140885  12.754   6.156   9.317
 3097POPC   GL240886  12.996   5.862   9.160
 3097POPC   C1A40887  12.684   6.082   8.842
 3097POPC   D2A40888  12.690   6.318   8.455
 3097POPC   C3A40889  12.573   6.102   8.075
 3097POPC   C4A40890  12.489   5.897   7.697
 3097POPC   C1B40891  13.089   5.630   8.779
 3097POPC   C2B40892  12.902   5.476   8.395
 3097POPC   C3B40893  12.830   5.596   7.960
 3097POPC   C4B40894  13.208   5.618   7.691
 3098POPC   NC340895  10.648   4.173   9.599
 3098POPC   PO440896  10.266   4.671   9.459
 3098POPC   GL140897  10.565   4.461   9.194
 3098POPC   GL240898  10.387   4.126   9.152
 3098POPC   C1A40899  10.868   4.282   8.907
 3098POPC   D2A40900  10.902   4.344   8.469
 3098POPC   C3A40901  10.826   4.054   8.135
 3098POPC   C4A40902  10.677   4.074   7.711
 3098POPC   C1B40903  10.373   4.340   8.746
 3098POPC   C2B40904  10.329   4.529   8.351
 3098POPC   C3B40905  10.336   4.342   7.950
 3098POPC   C4B40906  10.429   4.459   7.469
 3099POPC   NC340907  11.376   1.112   9.622
 3099POPC   PO440908  11.542   1.743   9.488
 3099POPC   GL140909  11.418   1.389   9.177
 3099POPC   GL240910  11.315   1.001   9.136
 3099POPC   C1A40911  11.278   1.322   8.748
 3099POPC   D2A40912  11.414   1.115   8.375
 3099POPC   C3A40913  11.298   1.315   7.986
 3099POPC   C4A40914  11.177   1.517   7.626
 3099POPC   C1B40915  11.515   0.765   8.792
 3099POPC   C2B40916  11.454   0.592   8.341
 3099POPC   C3B40917  11.387   0.802   7.917
 3099POPC   C4B40918  11.073   0.997   7.639
 3100POPC   NC340919  16.837  25.049   9.509
 3100POPC   PO440920  16.844  24.368   9.523
 3100POPC   GL140921  16.711  24.405   9.112
 3100POPC   GL240922  16.674  24.739   9.134
 3100POPC   C1A40923  16.756  24.378   8.672
 3100POPC   D2A40924  16.977  24.636   8.371
 3100POPC   C3A40925  16.849  24.516   7.971
 3100POPC   C4A40926  17.048  24.390   7.602
 3100POPC   C1B40927  16.727  24.884   8.761
 3100POPC   C2B40928  16.472  24.777   8.407
 3100POPC   C3B40929  16.444  24.843   7.979
 3100POPC   C4B40930  16.673  24.803   7.571
 3101POPC   NC340931   8.549   9.838   9.673
 3101POPC   PO440932   7.948   9.581   9.575
 3101POPC   GL140933   8.294   9.584   9.259
 3101POPC   GL240934   8.451   9.923   9.183
 3101POPC   C1A40935   8.319   9.598   8.794
 3101POPC   D2A40936   8.047   9.832   8.482
 3101POPC   C3A40937   8.037   9.766   8.024
 3101POPC   C4A40938   8.337   9.443   7.819
 3101POPC   C1B40939   8.650  10.053   8.814
 3101POPC   C2B40940   8.462  10.182   8.437
 3101POPC   C3B40941   8.411  10.274   8.015
 3101POPC   C4B40942   8.428   9.934   7.758
 3102POPC   NC340943  42.115  14.867   9.441
 3102POPC   PO440944  41.408  14.880   9.474
 3102POPC   GL140945  41.381  15.109   9.093
 3102POPC   GL240946  41.748  15.110   9.097
 3102POPC   C1A40947  41.474  15.283   8.704
 3102POPC   D2A40948  41.723  15.244   8.346
 3102POPC   C3A40949  41.495  15.319   7.983
 3102POPC   C4A40950  41.631  15.381   7.553
 3102POPC   C1B40951  41.744  14.853   8.674
 3102POPC   C2B40952  41.727  14.615   8.325
 3102POPC   C3B40953  41.841  14.869   8.000
 3102POPC   C4B40954  41.633  14.900   7.647
 3103POPC   NC340955  16.216  31.812   9.828
 3103POPC   PO440956  15.610  31.777   9.547
 3103POPC   GL140957  15.920  31.847   9.175
 3103POPC   GL240958  16.288  31.822   9.289
 3103POPC   C1A40959  15.894  31.735   8.716
 3103POPC   D2A40960  15.701  31.600   8.323
 3103POPC   C3A40961  15.691  31.779   7.903
 3103POPC   C4A40962  15.872  31.461   7.561
 3103POPC   C1B40963  16.393  31.788   8.833
 3103POPC   C2B40964  16.269  31.535   8.432
 3103POPC   C3B40965  16.166  31.609   7.994
 3103POPC   C4B40966  16.430  31.518   7.613
 3104POPC   NC340967  33.496  21.576   9.516
 3104POPC   PO440968  33.903  21.037   9.432
 3104POPC   GL140969  33.961  21.350   9.125
 3104POPC   GL240970  33.626  21.348   9.077
 3104POPC   C1A40971  33.866  21.542   8.684
 3104POPC   D2A40972  33.785  21.467   8.231
 3104POPC   C3A40973  34.050  21.545   7.832
 3104POPC   C4A40974  34.003  21.580   7.338
 3104POPC   C1B40975  33.647  21.080   8.698
 3104POPC   C2B40976  33.558  20.915   8.299
 3104POPC   C3B40977  33.415  21.196   7.969
 3104POPC   C4B40978  33.605  21.361   7.589
 3105POPC   NC340979  34.057  26.237   9.736
 3105POPC   PO440980  33.800  25.594   9.629
 3105POPC   GL140981  33.823  25.819   9.196
 3105POPC   GL240982  33.600  26.109   9.103
 3105POPC   C1A40983  33.647  25.775   8.739
 3105POPC   D2A40984  33.605  25.979   8.316
 3105POPC   C3A40985  33.837  25.717   8.012
 3105POPC   C4A40986  34.037  25.766   7.608
 3105POPC   C1B40987  33.587  26.444   8.797
 3105POPC   C2B40988  33.765  26.490   8.370
 3105POPC   C3B40989  33.552  26.446   7.980
 3105POPC   C4B40990  33.635  26.441   7.543
 3106POPC   NC340991  35.914   2.391   9.750
 3106POPC   PO440992  36.035   3.036   9.524
 3106POPC   GL140993  36.255   2.872   9.190
 3106POPC   GL240994  36.122   2.583   9.187
 3106POPC   C1A40995  36.442   2.694   8.788
 3106POPC   D2A40996  36.355   2.820   8.387
 3106POPC   C3A40997  36.144   2.735   8.020
 3106POPC   C4A40998  36.054   3.053   7.704
 3106POPC   C1B40999  35.949   2.784   8.777
 3106POPC   C2B41000  35.792   2.631   8.396
 3106POPC   C3B41001  35.660   2.854   8.046
 3106POPC   C4B41002  35.753   2.642   7.671
 3107POPC   NC341003  20.906  23.178   9.385
 3107POPC   PO441004  21.577  23.098   9.528
 3107POPC   GL141005  21.337  22.866   9.203
 3107POPC   GL241006  21.004  22.796   9.070
 3107POPC   C1A41007  21.467  22.689   8.803
 3107POPC   D2A41008  21.382  22.518   8.403
 3107POPC   C3A41009  21.492  22.663   7.988
 3107POPC   C4A41010  21.491  22.789   7.563
 3107POPC   C1B41011  21.146  23.044   8.718
 3107POPC   C2B41012  21.222  23.013   8.267
 3107POPC   C3B41013  21.339  23.175   7.858
 3107POPC   C4B41014  21.186  23.211   7.418
 3108POPC   NC341015  18.590  36.639   9.415
 3108POPC   PO441016  19.206  36.748   9.424
 3108POPC   GL141017  19.147  36.798   9.020
 3108POPC   GL241018  18.811  36.912   8.996
 3108POPC   C1A41019  19.232  36.728   8.570
 3108POPC   D2A41020  18.965  36.815   8.218
 3108POPC   C3A41021  19.150  36.957   7.870
 3108POPC   C4A41022  19.494  37.202   7.844
 3108POPC   C1B41023  18.753  36.591   8.705
 3108POPC   C2B41024  18.726  36.399   8.314
 3108POPC   C3B41025  18.732  36.499   7.857
 3108POPC   C4B41026  18.590  36.545   7.403
 3109POPC   NC341027  33.229   0.731   9.665
 3109POPC   PO441028  32.801   1.243   9.510
 3109POPC   GL141029  33.046   1.211   9.170
 3109POPC   GL241030  33.060   0.879   9.205
 3109POPC   C1A41031  32.957   1.218   8.750
 3109POPC   D2A41032  32.701   1.129   8.400
 3109POPC   C3A41033  32.978   1.214   8.092
 3109POPC   C4A41034  33.005   1.448   7.730
 3109POPC   C1B41035  33.273   0.741   8.863
 3109POPC   C2B41036  33.428   0.984   8.544
 3109POPC   C3B41037  33.461   0.890   8.107
 3109POPC   C4B41038  33.306   1.034   7.717
 3110POPC   NC341039  15.194  44.893   9.564
 3110POPC   PO441040  14.885  44.323   9.558
 3110POPC   GL141041  15.046  44.581   9.179
 3110POPC   GL241042  15.033  44.981   9.094
 3110POPC   C1A41043  15.258  44.562   8.806
 3110POPC   D2A41044  15.224  44.242   8.489
 3110POPC   C3A41045  15.338  44.497   8.146
 3110POPC   C4A41046  15.252  44.567   7.706
 3110POPC   C1B41047  14.787  44.796   8.774
 3110POPC   C2B41048  14.928  44.648   8.388
 3110POPC   C3B41049  14.846  44.749   7.974
 3110POPC   C4B41050  14.764  44.623   7.560
 3111POPC   NC341051   3.853  14.176   9.802
 3111POPC   PO441052   4.380  13.955   9.628
 3111POPC   GL141053   4.357  14.330   9.275
 3111POPC   GL241054   4.648  14.425   9.077
 3111POPC   C1A41055   4.213  14.420   8.812
 3111POPC   D2A41056   4.171  14.254   8.383
 3111POPC   C3A41057   4.097  14.528   8.021
 3111POPC   C4A41058   4.089  14.262   7.672
 3111POPC   C1B41059   4.735  14.103   8.776
 3111POPC   C2B41060   4.820  14.132   8.349
 3111POPC   C3B41061   4.569  14.278   8.025
 3111POPC   C4B41062   4.558  14.030   7.685
 3112POPC   NC341063  34.992  11.441   9.503
 3112POPC   PO441064  35.473  11.015   9.548
 3112POPC   GL141065  35.154  11.062   9.203
 3112POPC   GL241066  35.439  11.065   8.993
 3112POPC   C1A41067  34.993  11.270   8.812
 3112POPC   D2A41068  35.210  11.171   8.423
 3112POPC   C3A41069  35.064  11.167   7.974
 3112POPC   C4A41070  35.185  11.031   7.533
 3112POPC   C1B41071  35.429  11.511   8.829
 3112POPC   C2B41072  35.595  11.622   8.423
 3112POPC   C3B41073  35.595  11.296   8.105
 3112POPC   C4B41074  35.461  11.420   7.718
 3113POPC   NC341075  24.146  29.808   9.386
 3113POPC   PO441076  23.578  29.618   9.769
 3113POPC   GL141077  23.665  29.832   9.317
 3113POPC   GL241078  23.585  30.193   9.284
 3113POPC   C1A41079  23.675  29.832   8.871
 3113POPC   D2A41080  23.831  29.837   8.471
 3113POPC   C3A41081  23.546  29.656   8.201
 3113POPC   C4A41082  23.517  29.683   7.776
 3113POPC   C1B41083  23.462  30.281   8.835
 3113POPC   C2B41084  23.420  30.135   8.361
 3113POPC   C3B41085  23.749  30.125   7.996
 3113POPC   C4B41086  23.759  30.183   7.524
 3114POPC   NC341087  13.857  19.489   9.727
 3114POPC   PO441088  13.596  18.863   9.720
 3114POPC   GL141089  13.723  19.153   9.345
 3114POPC   GL241090  13.835  18.876   9.162
 3114POPC   C1A41091  13.744  19.320   8.891
 3114POPC   D2A41092  13.469  19.273   8.533
 3114POPC   C3A41093  13.643  19.451   8.171
 3114POPC   C4A41094  13.356  19.482   7.838
 3114POPC   C1B41095  13.596  18.830   8.769
 3114POPC   C2B41096  13.561  18.807   8.299
 3114POPC   C3B41097  13.580  19.008   7.871
 3114POPC   C4B41098  13.871  18.968   7.515
 3115POPC   NC341099  10.531  38.918   5.352
 3115POPC   PO441100  10.697  38.331   5.389
 3115POPC   GL141101  10.609  38.488   5.795
 3115POPC   GL241102  10.722  38.798   5.818
 3115POPC   C1A41103  10.672  38.377   6.230
 3115POPC   D2A41104  10.468  38.408   6.617
 3115POPC   C3A41105  10.595  38.442   7.047
 3115POPC   C4A41106  10.280  38.539   7.393
 3115POPC   C1B41107  10.927  38.799   6.223
 3115POPC   C2B41108  10.884  38.701   6.657
 3115POPC   C3B41109  10.883  38.923   7.049
 3115POPC   C4B41110  10.720  38.831   7.445
 3116POPC   NC341111  35.838   3.905   5.354
 3116POPC   PO441112  36.448   3.597   5.300
 3116POPC   GL141113  36.259   3.554   5.737
 3116POPC   GL241114  36.145   3.891   5.767
 3116POPC   C1A41115  36.155   3.371   6.190
 3116POPC   D2A41116  36.351   3.371   6.624
 3116POPC   C3A41117  36.127   3.206   7.010
 3116POPC   C4A41118  36.016   3.450   7.384
 3116POPC   C1B41119  36.231   3.906   6.198
 3116POPC   C2B41120  36.154   3.868   6.623
 3116POPC   C3B41121  36.058   3.840   7.046
 3116POPC   C4B41122  36.228   3.945   7.469
 3117POPC   NC341123  20.330  39.609   5.325
 3117POPC   PO441124  20.792  39.144   5.181
 3117POPC   GL141125  20.687  39.269   5.615
 3117POPC   GL241126  20.422  39.025   5.718
 3117POPC   C1A41127  20.745  39.297   6.094
 3117POPC   D2A41128  20.819  39.056   6.532
 3117POPC   C3A41129  20.865  39.261   6.951
 3117POPC   C4A41130  20.551  39.561   7.112
 3117POPC   C1B41131  20.499  38.858   6.158
 3117POPC   C2B41132  20.408  38.753   6.606
 3117POPC   C3B41133  20.462  38.935   7.034
 3117POPC   C4B41134  20.259  39.063   7.429
 3118POPC   NC341135  28.453  41.406   5.504
 3118POPC   PO441136  27.931  41.827   5.522
 3118POPC   GL141137  28.050  41.491   5.846
 3118POPC   GL241138  28.305  41.676   5.916
 3118POPC   C1A41139  28.214  41.309   6.273
 3118POPC   D2A41140  28.295  41.508   6.700
 3118POPC   C3A41141  28.046  41.479   7.085
 3118POPC   C4A41142  28.124  41.299   7.504
 3118POPC   C1B41143  28.532  41.729   6.294
 3118POPC   C2B41144  28.695  41.866   6.696
 3118POPC   C3B41145  28.632  41.644   7.104
 3118POPC   C4B41146  28.335  41.741   7.429
 3119POPC   NC341147   0.535  28.700   5.684
 3119POPC   PO441148   0.399  29.262   5.348
 3119POPC   GL141149   0.391  29.183   5.810
 3119POPC   GL241150   0.148  28.956   5.937
 3119POPC   C1A41151   0.631  29.213   6.229
 3119POPC   D2A41152   0.728  29.049   6.674
 3119POPC   C3A41153   0.647  29.248   7.100
 3119POPC   C4A41154   0.336  29.351   7.417
 3119POPC   C1B41155   0.145  29.170   6.351
 3119POPC   C2B41156   0.206  29.195   6.823
 3119POPC   C3B41157   0.030  28.987   7.194
 3119POPC   C4B41158   0.105  28.926   7.621
 3120POPC   NC341159   6.676   8.282   5.520
 3120POPC   PO441160   6.385   7.723   5.212
 3120POPC   GL141161   6.306   7.978   5.699
 3120POPC   GL241162   6.547   7.936   5.958
 3120POPC   C1A41163   6.278   8.295   6.157
 3120POPC   D2A41164   6.503   8.408   6.584
 3120POPC   C3A41165   6.376   8.266   7.007
 3120POPC   C4A41166   6.520   8.267   7.494
 3120POPC   C1B41167   6.794   8.181   6.235
 3120POPC   C2B41168   7.002   8.014   6.669
 3120POPC   C3B41169   6.843   8.091   7.102
 3120POPC   C4B41170   6.900   7.938   7.579
 3121POPC   NC341171  34.977  19.226   5.368
 3121POPC   PO441172  34.609  18.631   5.261
 3121POPC   GL141173  34.604  18.721   5.730
 3121POPC   GL241174  34.662  19.103   5.776
 3121POPC   C1A41175  34.767  18.779   6.180
 3121POPC   D2A41176  34.862  19.055   6.539
 3121POPC   C3A41177  34.520  19.152   6.818
 3121POPC   C4A41178  34.486  18.894   7.173
 3121POPC   C1B41179  34.913  19.324   6.093
 3121POPC   C2B41180  35.051  19.513   6.471
 3121POPC   C3B41181  34.947  19.438   6.925
 3121POPC   C4B41182  34.686  19.358   7.286
 3122POPC   NC341183   1.545  38.627   5.122
 3122POPC   PO441184   0.979  38.316   5.450
 3122POPC   GL141185   1.193  38.415   5.861
 3122POPC   GL241186   1.400  38.694   5.758
 3122POPC   C1A41187   1.293  38.501   6.334
 3122POPC   D2A41188   1.029  38.677   6.700
 3122POPC   C3A41189   1.151  38.612   7.129
 3122POPC   C4A41190   1.248  38.405   7.508
 3122POPC   C1B41191   1.230  38.932   6.102
 3122POPC   C2B41192   1.412  38.987   6.525
 3122POPC   C3B41193   1.587  38.713   6.847
 3122POPC   C4B41194   1.639  38.712   7.312
 3123POPC   NC341195   8.208  28.011   5.185
 3123POPC   PO441196   7.599  28.157   5.427
 3123POPC   GL141197   7.908  28.251   5.827
 3123POPC   GL241198   8.266  28.317   5.856
 3123POPC   C1A41199   7.969  28.430   6.278
 3123POPC   D2A41200   8.287  28.591   6.605
 3123POPC   C3A41201   8.165  28.594   7.058
 3123POPC   C4A41202   8.142  28.318   7.445
 3123POPC   C1B41203   8.555  28.313   6.234
 3123POPC   C2B41204   8.659  28.074   6.608
 3123POPC   C3B41205   8.559  28.263   7.002
 3123POPC   C4B41206   8.717  28.404   7.389
 3124POPC   NC341207  37.032  44.052   5.425
 3124POPC   PO441208  36.635  43.533   5.400
 3124POPC   GL141209  36.690  43.801   5.763
 3124POPC   GL241210  37.050  43.740   5.839
 3124POPC   C1A41211  36.726  43.943   6.195
 3124POPC   D2A41212  36.931  43.784   6.572
 3124POPC   C3A41213  36.704  43.960   6.931
 3124POPC   C4A41214  36.732  44.078   7.347
 3124POPC   C1B41215  37.248  44.024   6.150
 3124POPC   C2B41216  37.404  44.020   6.581
 3124POPC   C3B41217  37.280  43.837   6.980
 3124POPC   C4B41218  37.260  43.976   7.401
 3125POPC   NC341219  19.222  27.028   5.508
 3125POPC   PO441220  18.767  26.553   5.561
 3125POPC   GL141221  19.058  26.662   5.866
 3125POPC   GL241222  18.828  26.946   5.934
 3125POPC   C1A41223  19.392  26.594   6.214
 3125POPC   D2A41224  19.602  26.670   6.639
 3125POPC   C3A41225  19.456  27.012   6.933
 3125POPC   C4A41226  19.407  27.065   7.378
 3125POPC   C1B41227  18.895  26.719   6.333
 3125POPC   C2B41228  19.090  26.656   6.732
 3125POPC   C3B41229  18.997  26.866   7.120
 3125POPC   C4B41230  18.708  26.902   7.452
 3126POPC   NC341231  22.178  38.897   5.499
 3126POPC   PO441232  21.909  39.447   5.208
 3126POPC   GL141233  21.969  39.359   5.720
 3126POPC   GL241234  22.308  39.262   5.842
 3126POPC   C1A41235  22.032  39.420   6.237
 3126POPC   D2A41236  22.315  39.269   6.534
 3126POPC   C3A41237  22.148  39.314   6.914
 3126POPC   C4A41238  22.249  39.241   7.307
 3126POPC   C1B41239  22.175  38.928   6.152
 3126POPC   C2B41240  22.398  38.715   6.454
 3126POPC   C3B41241  22.421  38.865   6.835
 3126POPC   C4B41242  22.408  38.763   7.225
 3127POPC   NC341243  29.481  28.152   5.519
 3127POPC   PO441244  29.021  28.608   5.587
 3127POPC   GL141245  29.088  28.555   6.000
 3127POPC   GL241246  29.423  28.453   5.949
 3127POPC   C1A41247  29.111  28.480   6.447
 3127POPC   D2A41248  28.847  28.469   6.816
 3127POPC   C3A41249  28.897  28.832   7.102
 3127POPC   C4A41250  29.046  28.852   7.515
 3127POPC   C1B41251  29.392  28.094   6.223
 3127POPC   C2B41252  29.257  27.993   6.635
 3127POPC   C3B41253  29.398  28.084   7.049
 3127POPC   C4B41254  29.288  28.471   7.231
 3128POPC   NC341255  12.569   9.226   5.440
 3128POPC   PO441256  12.992   8.628   5.460
 3128POPC   GL141257  12.899   8.973   5.741
 3128POPC   GL241258  12.550   8.868   5.832
 3128POPC   C1A41259  12.996   9.166   6.149
 3128POPC   D2A41260  12.829   9.263   6.547
 3128POPC   C3A41261  12.947   9.079   6.919
 3128POPC   C4A41262  12.679   9.133   7.235
 3128POPC   C1B41263  12.643   8.842   6.284
 3128POPC   C2B41264  13.030   8.745   6.519
 3128POPC   C3B41265  13.050   8.580   6.949
 3128POPC   C4B41266  12.631   8.630   7.140
 3129POPC   NC341267   5.627  37.507   5.720
 3129POPC   PO441268   6.303  37.563   5.505
 3129POPC   GL141269   6.134  37.608   5.956
 3129POPC   GL241270   5.794  37.789   6.092
 3129POPC   C1A41271   6.108  37.572   6.414
 3129POPC   D2A41272   5.731  37.776   6.651
 3129POPC   C3A41273   5.844  37.810   7.073
 3129POPC   C4A41274   6.263  37.691   7.198
 3129POPC   C1B41275   5.651  37.371   6.341
 3129POPC   C2B41276   5.570  37.189   6.757
 3129POPC   C3B41277   5.575  37.300   7.201
 3129POPC   C4B41278   5.534  37.312   7.662
 3130POPC   NC341279  18.919  41.198   5.250
 3130POPC   PO441280  19.029  41.808   5.360
 3130POPC   GL141281  19.129  41.933   5.781
 3130POPC   GL241282  19.376  41.672   5.886
 3130POPC   C1A41283  19.077  41.898   6.226
 3130POPC   D2A41284  19.300  41.768   6.593
 3130POPC   C3A41285  19.053  41.634   6.924
 3130POPC   C4A41286  18.907  41.961   7.188
 3130POPC   C1B41287  19.230  41.388   6.246
 3130POPC   C2B41288  19.361  41.247   6.709
 3130POPC   C3B41289  19.232  41.138   7.177
 3130POPC   C4B41290  19.096  41.176   7.647
 3131POPC   NC341291  31.653   9.867   5.479
 3131POPC   PO441292  30.953   9.858   5.533
 3131POPC   GL141293  31.292   9.621   5.787
 3131POPC   GL241294  31.688   9.505   5.808
 3131POPC   C1A41295  31.426   9.766   6.181
 3131POPC   D2A41296  31.589   9.918   6.575
 3131POPC   C3A41297  31.324   9.989   6.950
 3131POPC   C4A41298  31.217   9.913   7.405
 3131POPC   C1B41299  31.853   9.514   6.202
 3131POPC   C2B41300  31.865   9.471   6.631
 3131POPC   C3B41301  31.879   9.770   6.980
 3131POPC   C4B41302  31.561   9.609   7.215
 3132POPC   NC341303  32.330  41.641   5.565
 3132POPC   PO441304  32.791  41.077   5.537
 3132POPC   GL141305  32.474  41.193   5.792
 3132POPC   GL241306  32.109  41.247   5.775
 3132POPC   C1A41307  32.493  41.434   6.164
 3132POPC   D2A41308  32.692  41.424   6.534
 3132POPC   C3A41309  32.445  41.545   6.852
 3132POPC   C4A41310  32.480  41.527   7.274
 3132POPC   C1B41311  31.973  41.396   6.191
 3132POPC   C2B41312  32.003  41.388   6.633
 3132POPC   C3B41313  31.980  41.599   7.058
 3132POPC   C4B41314  31.843  41.999   7.134
 3133POPC   NC341315  27.814  26.259   5.150
 3133POPC   PO441316  28.273  26.006   5.587
 3133POPC   GL141317  28.566  26.110   5.861
 3133POPC   GL241318  28.506  26.452   5.801
 3133POPC   C1A41319  28.691  26.010   6.293
 3133POPC   D2A41320  28.731  26.114   6.742
 3133POPC   C3A41321  28.489  25.938   7.109
 3133POPC   C4A41322  28.759  25.944   7.474
 3133POPC   C1B41323  28.324  26.388   6.213
 3133POPC   C2B41324  28.230  26.203   6.620
 3133POPC   C3B41325  28.321  26.397   7.002
 3133POPC   C4B41326  28.327  26.648   7.376
 3134POPC   NC341327  43.792   0.728   5.484
 3134POPC   PO441328  44.207   0.238   5.599
 3134POPC   GL141329  44.095   0.526   5.903
 3134POPC   GL241330  43.770   0.414   5.896
 3134POPC   C1A41331  44.032   0.656   6.320
 3134POPC   D2A41332  43.771   0.533   6.634
 3134POPC   C3A41333  43.958   0.534   7.016
 3134POPC   C4A41334  43.862   0.779   7.362
 3134POPC   C1B41335  43.507   0.151   6.145
 3134POPC   C2B41336  43.374   0.189   6.552
 3134POPC   C3B41337  43.566   0.146   6.948
 3134POPC   C4B41338  43.682   0.282   7.377
 3135POPC   NC341339   1.432   9.296   5.429
 3135POPC   PO441340   1.581   8.641   5.355
 3135POPC   GL141341   1.348   8.720   5.750
 3135POPC   GL241342   1.019   8.790   5.834
 3135POPC   C1A41343   1.408   8.821   6.199
 3135POPC   D2A41344   1.334   8.697   6.639
 3135POPC   C3A41345   1.202   8.973   6.972
 3135POPC   C4A41346   1.017   8.872   7.399
 3135POPC   C1B41347   0.928   8.619   6.264
 3135POPC   C2B41348   0.808   8.730   6.717
 3135POPC   C3B41349   0.702   9.038   7.069
 3135POPC   C4B41350   0.670   9.224   7.527
 3136POPC   NC341351  14.898  30.598   5.473
 3136POPC   PO441352  14.187  30.668   5.353
 3136POPC   GL141353  14.130  30.747   5.756
 3136POPC   GL241354  14.110  30.437   5.943
 3136POPC   C1A41355  14.058  30.949   6.124
 3136POPC   D2A41356  14.255  30.913   6.497
 3136POPC   C3A41357  14.125  31.056   6.868
 3136POPC   C4A41358  14.251  30.777   7.167
 3136POPC   C1B41359  14.452  30.495   6.288
 3136POPC   C2B41360  14.506  30.542   6.783
 3136POPC   C3B41361  14.565  30.411   7.254
 3136POPC   C4B41362  14.226  30.199   7.515
 3137POPC   NC341363   3.225  39.995   5.435
 3137POPC   PO441364   3.551  40.640   5.419
 3137POPC   GL141365   3.685  40.237   5.694
 3137POPC   GL241366   3.521  39.891   5.829
 3137POPC   C1A41367   3.829  40.135   6.136
 3137POPC   D2A41368   3.597  39.931   6.462
 3137POPC   C3A41369   3.760  39.924   6.888
 3137POPC   C4A41370   3.597  39.991   7.285
 3137POPC   C1B41371   3.186  39.792   6.139
 3137POPC   C2B41372   3.100  39.835   6.603
 3137POPC   C3B41373   3.284  39.700   7.022
 3137POPC   C4B41374   3.342  39.609   7.517
 3138POPC   NC341375  37.346   6.639   5.359
 3138POPC   PO441376  37.799   7.144   5.411
 3138POPC   GL141377  37.548   6.896   5.760
 3138POPC   GL241378  37.506   6.502   5.825
 3138POPC   C1A41379  37.601   6.825   6.208
 3138POPC   D2A41380  37.472   6.892   6.625
 3138POPC   C3A41381  37.724   6.665   6.873
 3138POPC   C4A41382  37.652   6.746   7.279
 3138POPC   C1B41383  37.415   6.304   6.234
 3138POPC   C2B41384  37.294   6.388   6.665
 3138POPC   C3B41385  37.484   6.281   7.091
 3138POPC   C4B41386  37.498   6.366   7.568
 3139POPC   NC341387  33.468  24.278   5.533
 3139POPC   PO441388  33.947  24.671   5.403
 3139POPC   GL141389  33.884  24.411   5.818
 3139POPC   GL241390  34.008  24.031   5.761
 3139POPC   C1A41391  33.552  24.432   6.224
 3139POPC   D2A41392  33.456  24.252   6.673
 3139POPC   C3A41393  33.473  24.619   7.003
 3139POPC   C4A41394  33.493  24.994   7.250
 3139POPC   C1B41395  33.918  24.084   6.201
 3139POPC   C2B41396  33.946  24.373   6.575
 3139POPC   C3B41397  33.965  24.491   7.006
 3139POPC   C4B41398  34.001  24.260   7.378
 3140POPC   NC341399   8.285  13.909   5.145
 3140POPC   PO441400   7.766  13.670   5.557
 3140POPC   GL141401   8.145  13.705   5.765
 3140POPC   GL241402   8.355  13.988   5.710
 3140POPC   C1A41403   8.308  13.505   6.125
 3140POPC   D2A41404   8.390  13.401   6.565
 3140POPC   C3A41405   8.115  13.484   6.906
 3140POPC   C4A41406   8.341  13.482   7.277
 3140POPC   C1B41407   8.206  14.020   6.149
 3140POPC   C2B41408   8.123  13.865   6.546
 3140POPC   C3B41409   8.249  14.011   6.946
 3140POPC   C4B41410   8.073  13.894   7.318
 3141POPC   NC341411   2.662  42.727   5.350
 3141POPC   PO441412   2.860  43.376   5.483
 3141POPC   GL141413   2.698  43.276   5.829
 3141POPC   GL241414   2.607  42.941   5.808
 3141POPC   C1A41415   2.867  43.208   6.209
 3141POPC   D2A41416   2.970  43.447   6.515
 3141POPC   C3A41417   2.989  43.183   6.820
 3141POPC   C4A41418   2.877  43.160   7.202
 3141POPC   C1B41419   2.469  42.887   6.230
 3141POPC   C2B41420   2.488  43.068   6.650
 3141POPC   C3B41421   2.456  42.798   7.010
 3141POPC   C4B41422   2.648  42.773   7.414
 3142POPC   NC341423   0.172  17.310   5.503
 3142POPC   PO441424   0.838  17.253   5.599
 3142POPC   GL141425   0.578  17.298   5.954
 3142POPC   GL241426   0.451  17.574   5.863
 3142POPC   C1A41427   0.454  17.325   6.386
 3142POPC   D2A41428   0.703  17.326   6.775
 3142POPC   C3A41429   0.509  17.199   7.159
 3142POPC   C4A41430   0.199  17.331   7.489
 3142POPC   C1B41431   0.265  17.764   6.211
 3142POPC   C2B41432   0.259  17.729   6.631
 3142POPC   C3B41433   0.254  17.911   6.989
 3142POPC   C4B41434   0.065  17.799   7.339
 3143POPC   NC341435  41.280  10.262   5.472
 3143POPC   PO441436  41.833  10.662   5.331
 3143POPC   GL141437  41.662  10.566   5.698
 3143POPC   GL241438  41.763  10.218   5.646
 3143POPC   C1A41439  41.570  10.737   6.118
 3143POPC   D2A41440  41.405  10.871   6.529
 3143POPC   C3A41441  41.665  10.727   6.857
 3143POPC   C4A41442  41.868  10.510   7.199
 3143POPC   C1B41443  41.559  10.234   6.058
 3143POPC   C2B41444  41.554  10.360   6.479
 3143POPC   C3B41445  41.547  10.219   6.885
 3143POPC   C4B41446  41.588  10.107   7.308
 3144POPC   NC341447  35.864  11.862   5.485
 3144POPC   PO441448  36.465  12.056   5.384
 3144POPC   GL141449  36.294  11.991   5.769
 3144POPC   GL241450  36.358  11.687   5.850
 3144POPC   C1A41451  36.284  12.089   6.191
 3144POPC   D2A41452  36.063  12.117   6.566
 3144POPC   C3A41453  36.218  12.029   6.958
 3144POPC   C4A41454  36.103  12.184   7.368
 3144POPC   C1B41455  36.075  11.610   6.201
 3144POPC   C2B41456  35.890  11.656   6.660
 3144POPC   C3B41457  36.051  11.512   7.028
 3144POPC   C4B41458  36.232  11.701   7.367
 3145POPC   NC341459  29.589   4.348   5.533
 3145POPC   PO441460  29.999   3.993   5.099
 3145POPC   GL141461  30.065   4.161   5.558
 3145POPC   GL241462  30.092   4.562   5.632
 3145POPC   C1A41463  30.003   4.175   6.043
 3145POPC   D2A41464  30.109   4.081   6.502
 3145POPC   C3A41465  29.910   4.253   6.891
 3145POPC   C4A41466  29.874   4.108   7.312
 3145POPC   C1B41467  29.947   4.729   6.053
 3145POPC   C2B41468  29.878   4.653   6.494
 3145POPC   C3B41469  29.891   4.769   6.934
 3145POPC   C4B41470  29.834   4.634   7.358
 3146POPC   NC341471  18.078  34.932   5.349
 3146POPC   PO441472  18.733  34.931   5.582
 3146POPC   GL141473  18.369  34.739   5.838
 3146POPC   GL241474  18.314  34.331   5.862
 3146POPC   C1A41475  18.310  34.618   6.281
 3146POPC   D2A41476  18.102  34.670   6.664
 3146POPC   C3A41477  18.383  34.592   6.984
 3146POPC   C4A41478  18.654  34.843   7.237
 3146POPC   C1B41479  18.077  34.168   6.199
 3146POPC   C2B41480  18.195  34.113   6.608
 3146POPC   C3B41481  17.983  34.242   6.964
 3146POPC   C4B41482  18.113  34.235   7.370
 3147POPC   NC341483  11.062  23.141   5.489
 3147POPC   PO441484  11.572  22.686   5.443
 3147POPC   GL141485  11.356  22.834   5.818
 3147POPC   GL241486  11.399  23.200   5.845
 3147POPC   C1A41487  11.286  22.971   6.272
 3147POPC   D2A41488  11.062  23.117   6.651
 3147POPC   C3A41489  11.068  22.898   7.029
 3147POPC   C4A41490  11.159  22.526   7.290
 3147POPC   C1B41491  11.647  23.312   6.208
 3147POPC   C2B41492  11.657  23.044   6.593
 3147POPC   C3B41493  11.755  23.063   7.002
 3147POPC   C4B41494  11.480  22.935   7.332
 3148POPC   NC341495  15.578  20.684   5.319
 3148POPC   PO441496  16.206  20.406   5.396
 3148POPC   GL141497  16.089  20.519   5.792
 3148POPC   GL241498  15.761  20.603   5.787
 3148POPC   C1A41499  16.028  20.409   6.218
 3148POPC   D2A41500  15.936  20.632   6.597
 3148POPC   C3A41501  16.212  20.461   6.916
 3148POPC   C4A41502  16.129  20.426   7.337
 3148POPC   C1B41503  15.528  20.473   6.135
 3148POPC   C2B41504  15.424  20.479   6.579
 3148POPC   C3B41505  15.602  20.548   7.003
 3148POPC   C4B41506  15.668  20.949   7.197
 3149POPC   NC341507  19.299   7.121   5.442
 3149POPC   PO441508  19.267   6.334   5.451
 3149POPC   GL141509  19.078   6.600   5.772
 3149POPC   GL241510  19.238   6.847   5.836
 3149POPC   C1A41511  18.815   6.661   6.125
 3149POPC   D2A41512  18.663   6.760   6.518
 3149POPC   C3A41513  18.892   6.546   6.819
 3149POPC   C4A41514  18.856   6.642   7.202
 3149POPC   C1B41515  19.360   6.933   6.176
 3149POPC   C2B41516  19.184   6.833   6.531
 3149POPC   C3B41517  19.156   6.984   6.940
 3149POPC   C4B41518  19.389   6.958   7.302
 3150POPC   NC341519   1.019  42.272   5.605
 3150POPC   PO441520   0.940  41.661   5.438
 3150POPC   GL141521   1.073  41.808   5.841
 3150POPC   GL241522   0.730  41.921   5.880
 3150POPC   C1A41523   1.365  41.805   6.221
 3150POPC   D2A41524   1.612  41.881   6.614
 3150POPC   C3A41525   1.424  41.732   7.018
 3150POPC   C4A41526   1.134  41.446   7.291
 3150POPC   C1B41527   0.896  42.032   6.290
 3150POPC   C2B41528   1.114  42.017   6.682
 3150POPC   C3B41529   0.924  41.852   7.063
 3150POPC   C4B41530   0.854  42.051   7.474
 3151POPC   NC341531  42.959   2.578   5.456
 3151POPC   PO441532  43.445   3.083   5.496
 3151POPC   GL141533  43.122   2.993   5.808
 3151POPC   GL241534  43.199   2.690   5.898
 3151POPC   C1A41535  43.122   3.077   6.229
 3151POPC   D2A41536  43.106   2.892   6.622
 3151POPC   C3A41537  43.419   2.997   6.896
 3151POPC   C4A41538  43.313   2.840   7.268
 3151POPC   C1B41539  43.114   2.483   6.280
 3151POPC   C2B41540  42.843   2.446   6.641
 3151POPC   C3B41541  42.945   2.535   7.070
 3151POPC   C4B41542  42.745   2.554   7.490
 3152POPC   NC341543  42.477  23.123   5.531
 3152POPC   PO441544  41.930  22.766   5.426
 3152POPC   GL141545  42.173  22.850   5.838
 3152POPC   GL241546  42.243  23.192   5.984
 3152POPC   C1A41547  42.420  22.738   6.214
 3152POPC   D2A41548  42.523  22.964   6.580
 3152POPC   C3A41549  42.425  22.820   6.978
 3152POPC   C4A41550  42.181  22.872   7.320
 3152POPC   C1B41551  42.637  23.264   6.173
 3152POPC   C2B41552  42.785  23.406   6.575
 3152POPC   C3B41553  42.639  23.298   6.973
 3152POPC   C4B41554  42.767  23.316   7.389
 3153POPC   NC341555  34.131  10.634   5.354
 3153POPC   PO441556  33.468  10.464   5.523
 3153POPC   GL141557  33.647  10.554   5.900
 3153POPC   GL241558  33.958  10.783   5.827
 3153POPC   C1A41559  33.503  10.325   6.273
 3153POPC   D2A41560  33.597   9.996   6.555
 3153POPC   C3A41561  33.734  10.219   6.916
 3153POPC   C4A41562  33.733  10.368   7.351
 3153POPC   C1B41563  33.786  10.932   6.234
 3153POPC   C2B41564  33.759  10.702   6.636
 3153POPC   C3B41565  34.001  10.664   7.021
 3153POPC   C4B41566  33.981  10.786   7.451
 3154POPC   NC341567  42.905   5.834   5.451
 3154POPC   PO441568  43.582   5.811   5.533
 3154POPC   GL141569  43.289   5.796   5.846
 3154POPC   GL241570  43.225   5.462   5.878
 3154POPC   C1A41571  43.154   5.901   6.259
 3154POPC   D2A41572  43.171   5.852   6.702
 3154POPC   C3A41573  43.075   6.136   7.028
 3154POPC   C4A41574  42.991   6.196   7.469
 3154POPC   C1B41575  42.824   5.551   6.050
 3154POPC   C2B41576  42.762   5.601   6.485
 3154POPC   C3B41577  42.885   5.495   6.908
 3154POPC   C4B41578  42.804   5.754   7.287
 3155POPC   NC341579  20.658  16.627   5.214
 3155POPC   PO441580  20.416  17.060   5.609
 3155POPC   GL141581  20.559  16.735   5.891
 3155POPC   GL241582  20.873  16.647   5.783
 3155POPC   C1A41583  20.595  16.412   6.278
 3155POPC   D2A41584  20.441  16.377   6.730
 3155POPC   C3A41585  20.430  16.762   7.009
 3155POPC   C4A41586  20.628  16.570   7.355
 3155POPC   C1B41587  20.950  16.790   6.202
 3155POPC   C2B41588  20.762  16.777   6.609
 3155POPC   C3B41589  20.932  16.827   7.021
 3155POPC   C4B41590  21.081  16.812   7.458
 3156POPC   NC341591   3.707  31.847   5.144
 3156POPC   PO441592   3.761  31.323   5.521
 3156POPC   GL141593   3.507  31.571   5.796
 3156POPC   GL241594   3.251  31.300   5.825
 3156POPC   C1A41595   3.430  31.752   6.207
 3156POPC   D2A41596   3.381  31.916   6.603
 3156POPC   C3A41597   3.628  31.765   6.955
 3156POPC   C4A41598   3.406  31.918   7.323
 3156POPC   C1B41599   3.435  31.239   6.235
 3156POPC   C2B41600   3.333  31.354   6.660
 3156POPC   C3B41601   3.170  31.563   7.000
 3156POPC   C4B41602   3.244  31.439   7.389
 3157POPC   NC341603  16.337  19.179   5.428
 3157POPC   PO441604  15.693  19.056   5.540
 3157POPC   GL141605  16.035  19.186   5.835
 3157POPC   GL241606  16.180  19.546   5.784
 3157POPC   C1A41607  16.176  18.918   6.201
 3157POPC   D2A41608  16.332  18.716   6.603
 3157POPC   C3A41609  16.022  18.819   6.930
 3157POPC   C4A41610  15.846  18.952   7.346
 3157POPC   C1B41611  16.289  19.423   6.227
 3157POPC   C2B41612  16.207  19.223   6.635
 3157POPC   C3B41613  16.121  19.309   7.078
 3157POPC   C4B41614  16.206  19.300   7.519
 3158POPC   NC341615  10.221  20.917   5.405
 3158POPC   PO441616  10.579  20.285   5.485
 3158POPC   GL141617  10.481  20.437   5.905
 3158POPC   GL241618  10.583  20.765   5.916
 3158POPC   C1A41619  10.420  20.373   6.376
 3158POPC   D2A41620  10.280  20.554   6.772
 3158POPC   C3A41621  10.454  20.372   7.153
 3158POPC   C4A41622  10.596  20.133   7.521
 3158POPC   C1B41623  10.327  20.867   6.306
 3158POPC   C2B41624  10.332  21.066   6.737
 3158POPC   C3B41625  10.376  20.907   7.179
 3158POPC   C4B41626  10.341  21.070   7.634
 3159POPC   NC341627   9.936  21.863   5.558
 3159POPC   PO441628   9.951  22.496   5.426
 3159POPC   GL141629   9.859  22.329   5.836
 3159POPC   GL241630   9.556  22.147   5.804
 3159POPC   C1A41631   9.921  22.036   6.220
 3159POPC   D2A41632  10.112  22.109   6.641
 3159POPC   C3A41633   9.884  21.995   7.022
 3159POPC   C4A41634   9.891  22.250   7.395
 3159POPC   C1B41635   9.480  22.331   6.204
 3159POPC   C2B41636   9.613  22.212   6.602
 3159POPC   C3B41637   9.727  22.477   6.950
 3159POPC   C4B41638   9.495  22.537   7.327
 3160POPC   NC341639   3.977  40.776   5.605
 3160POPC   PO441640   4.392  41.117   5.165
 3160POPC   GL141641   4.431  41.041   5.658
 3160POPC   GL241642   4.447  40.663   5.792
 3160POPC   C1A41643   4.341  41.023   6.131
 3160POPC   D2A41644   4.467  40.822   6.514
 3160POPC   C3A41645   4.307  41.024   6.859
 3160POPC   C4A41646   4.106  40.905   7.233
 3160POPC   C1B41647   4.142  40.557   6.183
 3160POPC   C2B41648   4.021  40.353   6.594
 3160POPC   C3B41649   4.183  40.421   6.993
 3160POPC   C4B41650   4.525  40.635   7.142
 3161POPC   NC341651  35.885   4.619   5.242
 3161POPC   PO441652  36.263   4.121   5.298
 3161POPC   GL141653  36.275   4.392   5.704
 3161POPC   GL241654  35.932   4.457   5.716
 3161POPC   C1A41655  36.397   4.390   6.201
 3161POPC   D2A41656  36.384   4.335   6.696
 3161POPC   C3A41657  36.350   4.359   7.175
 3161POPC   C4A41658  36.457   4.394   7.676
 3161POPC   C1B41659  35.898   4.248   6.066
 3161POPC   C2B41660  35.919   4.315   6.481
 3161POPC   C3B41661  35.885   4.362   6.904
 3161POPC   C4B41662  35.860   4.247   7.292
 3162POPC   NC341663  15.507  37.198   5.250
 3162POPC   PO441664  16.006  37.672   5.504
 3162POPC   GL141665  16.033  37.633   5.934
 3162POPC   GL241666  15.733  37.416   5.958
 3162POPC   C1A41667  15.929  37.653   6.385
 3162POPC   D2A41668  15.679  37.457   6.649
 3162POPC   C3A41669  15.805  37.587   7.069
 3162POPC   C4A41670  16.070  37.937   7.206
 3162POPC   C1B41671  16.071  37.196   6.233
 3162POPC   C2B41672  16.161  37.229   6.694
 3162POPC   C3B41673  16.291  37.471   7.056
 3162POPC   C4B41674  16.177  37.462   7.486
 3163POPC   NC341675   8.097  44.982   5.587
 3163POPC   PO441676   8.524  44.562   5.280
 3163POPC   GL141677   8.501  44.668   5.747
 3163POPC   GL241678   8.628  44.418   5.962
 3163POPC   C1A41679   8.237  44.748   6.171
 3163POPC   D2A41680   7.903  44.915   6.480
 3163POPC   C3A41681   8.090  44.859   6.893
 3163POPC   C4A41682   8.047  44.793   7.349
 3163POPC   C1B41683   8.350  44.251   6.275
 3163POPC   C2B41684   8.213  44.427   6.663
 3163POPC   C3B41685   8.078  44.336   7.106
 3163POPC   C4B41686   8.184  44.355   7.574
 3164POPC   NC341687  13.574  28.592   5.443
 3164POPC   PO441688  13.929  27.910   5.531
 3164POPC   GL141689  13.562  28.134   5.759
 3164POPC   GL241690  13.549  28.459   5.918
 3164POPC   C1A41691  13.425  28.066   6.207
 3164POPC   D2A41692  13.732  27.982   6.570
 3164POPC   C3A41693  13.725  28.307   6.896
 3164POPC   C4A41694  13.454  28.649   7.013
 3164POPC   C1B41695  13.806  28.422   6.288
 3164POPC   C2B41696  14.033  28.646   6.631
 3164POPC   C3B41697  13.942  28.774   7.051
 3164POPC   C4B41698  13.787  28.569   7.418
 3165POPC   NC341699  42.977  14.244   5.478
 3165POPC   PO441700  43.519  14.625   5.570
 3165POPC   GL141701  43.198  14.511   5.834
 3165POPC   GL241702  43.052  14.814   5.798
 3165POPC   C1A41703  43.033  14.303   6.217
 3165POPC   D2A41704  42.672  14.336   6.553
 3165POPC   C3A41705  42.840  14.278   7.019
 3165POPC   C4A41706  43.263  14.156   7.207
 3165POPC   C1B41707  43.389  14.815   6.174
 3165POPC   C2B41708  43.387  14.714   6.590
 3165POPC   C3B41709  43.467  14.815   6.990
 3165POPC   C4B41710  43.329  14.651   7.354
 3166POPC   NC341711   6.086  34.049   5.472
 3166POPC   PO441712   5.650  33.605   5.360
 3166POPC   GL141713   5.747  33.725   5.779
 3166POPC   GL241714   5.759  34.077   5.889
 3166POPC   C1A41715   5.903  33.613   6.191
 3166POPC   D2A41716   6.240  33.669   6.459
 3166POPC   C3A41717   6.191  33.617   6.894
 3166POPC   C4A41718   5.974  33.761   7.246
 3166POPC   C1B41719   5.991  34.135   6.277
 3166POPC   C2B41720   5.996  34.374   6.684
 3166POPC   C3B41721   6.047  34.274   7.140
 3166POPC   C4B41722   5.830  34.144   7.563
 3167POPC   NC341723  25.559  24.194   5.584
 3167POPC   PO441724  26.146  23.821   5.429
 3167POPC   GL141725  26.019  23.688   5.817
 3167POPC   GL241726  25.667  23.619   5.751
 3167POPC   C1A41727  26.223  23.715   6.239
 3167POPC   D2A41728  26.251  23.961   6.638
 3167POPC   C3A41729  26.252  23.660   7.007
 3167POPC   C4A41730  26.300  23.622   7.482
 3167POPC   C1B41731  25.730  23.495   6.194
 3167POPC   C2B41732  25.895  23.488   6.619
 3167POPC   C3B41733  25.678  23.409   6.996
 3167POPC   C4B41734  25.700  23.486   7.422
 3168POPC   NC341735  34.602   9.752   5.358
 3168POPC   PO441736  35.156  10.238   5.516
 3168POPC   GL141737  34.913   9.852   5.798
 3168POPC   GL241738  34.884   9.489   5.866
 3168POPC   C1A41739  34.932   9.781   6.297
 3168POPC   D2A41740  34.872   9.632   6.746
 3168POPC   C3A41741  34.506   9.768   6.968
 3168POPC   C4A41742  34.491   9.875   7.402
 3168POPC   C1B41743  34.508   9.471   6.207
 3168POPC   C2B41744  34.316   9.335   6.638
 3168POPC   C3B41745  34.345   9.318   7.122
 3168POPC   C4B41746  34.649   9.375   7.483
 3169POPC   NC341747   7.632   9.789   5.422
 3169POPC   PO441748   6.951   9.986   5.555
 3169POPC   GL141749   7.320   9.925   5.859
 3169POPC   GL241750   7.528   9.611   5.879
 3169POPC   C1A41751   7.585   9.961   6.229
 3169POPC   D2A41752   7.610   9.682   6.569
 3169POPC   C3A41753   7.556   9.877   6.970
 3169POPC   C4A41754   7.542   9.631   7.322
 3169POPC   C1B41755   7.155   9.487   6.088
 3169POPC   C2B41756   7.130   9.395   6.524
 3169POPC   C3B41757   7.137   9.595   6.907
 3169POPC   C4B41758   7.032   9.426   7.281
 3170POPC   NC341759  44.810  30.958   5.375
 3170POPC   PO441760  44.655  30.270   5.219
 3170POPC   GL141761  44.804  30.504   5.623
 3170POPC   GL241762  44.482  30.662   5.767
 3170POPC   C1A41763  44.791  30.474   6.117
 3170POPC   D2A41764  44.596  30.765   6.464
 3170POPC   C3A41765  44.793  30.855   6.898
 3170POPC   C4A41766  44.864  30.514   7.229
 3170POPC   C1B41767  44.254  30.482   6.165
 3170POPC   C2B41768  44.075  30.624   6.551
 3170POPC   C3B41769  44.325  30.648   6.915
 3170POPC   C4B41770  44.388  30.874   7.267
 3171POPC   NC341771  24.738   8.695   5.578
 3171POPC   PO441772  24.280   9.128   5.393
 3171POPC   GL141773  24.288   8.931   5.777
 3171POPC   GL241774  24.582   9.066   5.906
 3171POPC   C1A41775  24.197   8.978   6.204
 3171POPC   D2A41776  24.432   9.120   6.574
 3171POPC   C3A41777  24.297   8.944   6.936
 3171POPC   C4A41778  24.321   8.860   7.319
 3171POPC   C1B41779  24.841   9.075   6.266
 3171POPC   C2B41780  25.021   9.012   6.656
 3171POPC   C3B41781  24.821   8.915   7.021
 3171POPC   C4B41782  24.719   9.148   7.361
 3172POPC   NC341783  12.045  41.835   5.513
 3172POPC   PO441784  12.086  42.524   5.412
 3172POPC   GL141785  11.986  42.279   5.771
 3172POPC   GL241786  11.665  42.102   5.747
 3172POPC   C1A41787  11.925  42.325   6.205
 3172POPC   D2A41788  12.219  42.410   6.535
 3172POPC   C3A41789  12.108  42.589   6.909
 3172POPC   C4A41790  12.065  42.337   7.279
 3172POPC   C1B41791  11.597  41.919   6.145
 3172POPC   C2B41792  11.498  42.140   6.513
 3172POPC   C3B41793  11.710  42.234   6.884
 3172POPC   C4B41794  11.763  41.891   7.154
 3173POPC   NC341795  42.818  11.062   5.147
 3173POPC   PO441796  42.224  11.384   5.257
 3173POPC   GL141797  42.102  11.352   5.684
 3173POPC   GL241798  42.193  11.604   5.886
 3173POPC   C1A41799  42.080  11.098   6.066
 3173POPC   D2A41800  42.336  11.010   6.452
 3173POPC   C3A41801  42.235  11.194   6.860
 3173POPC   C4A41802  42.501  11.447   7.146
 3173POPC   C1B41803  42.248  11.532   6.366
 3173POPC   C2B41804  41.969  11.631   6.722
 3173POPC   C3B41805  41.984  11.509   7.179
 3173POPC   C4B41806  41.867  11.506   7.608
 3174POPC   NC341807  25.088   3.291   5.426
 3174POPC   PO441808  25.745   3.358   5.475
 3174POPC   GL141809  25.382   3.479   5.793
 3174POPC   GL241810  25.094   3.737   5.707
 3174POPC   C1A41811  25.256   3.280   6.192
 3174POPC   D2A41812  25.378   3.382   6.637
 3174POPC   C3A41813  25.436   3.591   7.067
 3174POPC   C4A41814  25.528   3.906   7.422
 3174POPC   C1B41815  24.848   3.563   6.040
 3174POPC   C2B41816  24.875   3.493   6.460
 3174POPC   C3B41817  24.938   3.519   6.870
 3174POPC   C4B41818  24.951   3.254   7.207
 3175POPC   NC341819  15.541  18.612   5.373
 3175POPC   PO441820  16.089  18.225   5.150
 3175POPC   GL141821  16.133  18.337   5.633
 3175POPC   GL241822  15.804  18.312   5.760
 3175POPC   C1A41823  16.201  18.264   6.110
 3175POPC   D2A41824  15.995  18.309   6.539
 3175POPC   C3A41825  16.204  18.332   6.942
 3175POPC   C4A41826  15.911  18.428   7.274
 3175POPC   C1B41827  15.670  18.154   6.168
 3175POPC   C2B41828  15.499  18.059   6.582
 3175POPC   C3B41829  15.448  18.234   7.006
 3175POPC   C4B41830  15.370  18.133   7.446
 3176POPC   NC341831  13.387  36.733   5.366
 3176POPC   PO441832  12.724  36.867   5.406
 3176POPC   GL141833  12.730  36.954   5.830
 3176POPC   GL241834  13.026  37.149   5.801
 3176POPC   C1A41835  12.654  36.744   6.234
 3176POPC   D2A41836  12.412  36.764   6.614
 3176POPC   C3A41837  12.621  36.780   6.970
 3176POPC   C4A41838  12.672  36.884   7.400
 3176POPC   C1B41839  13.117  36.950   6.214
 3176POPC   C2B41840  13.282  37.029   6.607
 3176POPC   C3B41841  13.143  37.019   6.990
 3176POPC   C4B41842  13.222  37.153   7.356
 3177POPC   NC341843  37.668  44.203   5.234
 3177POPC   PO441844  37.495  44.813   5.577
 3177POPC   GL141845  37.578  44.788   5.980
 3177POPC   GL241846  37.848  44.981   6.006
 3177POPC   C1A41847  37.557  44.439   6.255
 3177POPC   D2A41848  37.696  44.528   6.617
 3177POPC   C3A41849  37.534  44.369   6.960
 3177POPC   C4A41850  37.632  44.595   7.318
 3177POPC   C1B41851  38.050  44.657   6.255
 3177POPC   C2B41852  38.276  44.461   6.596
 3177POPC   C3B41853  38.051  44.435   6.977
 3177POPC   C4B41854  38.218  44.422   7.353
 3178POPC   NC341855  20.818   8.232   5.402
 3178POPC   PO441856  20.500   7.663   5.547
 3178POPC   GL141857  20.806   7.957   5.828
 3178POPC   GL241858  20.699   8.355   5.877
 3178POPC   C1A41859  20.940   8.121   6.245
 3178POPC   D2A41860  20.732   8.126   6.654
 3178POPC   C3A41861  20.847   8.174   7.086
 3178POPC   C4A41862  20.671   8.084   7.503
 3178POPC   C1B41863  20.561   8.495   6.327
 3178POPC   C2B41864  20.488   8.561   6.800
 3178POPC   C3B41865  20.322   8.313   7.160
 3178POPC   C4B41866  19.916   8.063   7.210
 3179POPC   NC341867  36.067   0.712   5.081
 3179POPC   PO441868  36.350   0.226   5.475
 3179POPC   GL141869  36.062   0.376   5.766
 3179POPC   GL241870  36.156   0.713   5.872
 3179POPC   C1A41871  35.969   0.272   6.196
 3179POPC   D2A41872  35.865   0.472   6.598
 3179POPC   C3A41873  35.974   0.277   7.004
 3179POPC   C4A41874  35.957   0.013   7.380
 3179POPC   C1B41875  36.219   0.753   6.341
 3179POPC   C2B41876  36.395   0.477   6.675
 3179POPC   C3B41877  36.442   0.429   7.129
 3179POPC   C4B41878  36.481   0.515   7.570
 3180POPC   NC341879   6.068   6.413   5.343
 3180POPC   PO441880   5.404   6.673   5.189
 3180POPC   GL141881   5.656   6.644   5.611
 3180POPC   GL241882   5.767   6.938   5.729
 3180POPC   C1A41883   5.812   6.538   6.049
 3180POPC   D2A41884   5.855   6.775   6.452
 3180POPC   C3A41885   6.041   6.610   6.849
 3180POPC   C4A41886   6.040   6.443   7.295
 3180POPC   C1B41887   5.495   6.990   6.103
 3180POPC   C2B41888   5.463   7.101   6.554
 3180POPC   C3B41889   5.603   6.901   6.930
 3180POPC   C4B41890   5.606   6.781   7.403
 3181POPC   NC341891  20.997   3.138   5.540
 3181POPC   PO441892  20.301   3.133   5.402
 3181POPC   GL141893  20.436   2.815   5.744
 3181POPC   GL241894  20.757   2.659   5.733
 3181POPC   C1A41895  20.529   2.800   6.199
 3181POPC   D2A41896  20.388   2.626   6.606
 3181POPC   C3A41897  20.477   2.753   7.056
 3181POPC   C4A41898  20.300   2.643   7.479
 3181POPC   C1B41899  20.920   2.443   6.123
 3181POPC   C2B41900  21.069   2.556   6.534
 3181POPC   C3B41901  20.974   2.468   6.967
 3181POPC   C4B41902  20.929   2.671   7.358
 3182POPC   NC341903  14.185  20.935   5.360
 3182POPC   PO441904  14.125  20.270   5.470
 3182POPC   GL141905  14.512  20.448   5.744
 3182POPC   GL241906  14.575  20.785   5.767
 3182POPC   C1A41907  14.664  20.278   6.183
 3182POPC   D2A41908  14.432  20.355   6.601
 3182POPC   C3A41909  14.584  20.308   7.016
 3182POPC   C4A41910  14.451  20.545   7.361
 3182POPC   C1B41911  14.420  20.707   6.187
 3182POPC   C2B41912  14.685  20.790   6.540
 3182POPC   C3B41913  14.727  20.794   6.947
 3182POPC   C4B41914  14.638  21.006   7.291
 3183POPC   NC341915  34.991  13.596   5.464
 3183POPC   PO441916  35.630  13.919   5.451
 3183POPC   GL141917  35.447  13.687   5.819
 3183POPC   GL241918  35.174  13.452   5.900
 3183POPC   C1A41919  35.487  13.805   6.237
 3183POPC   D2A41920  35.350  13.796   6.634
 3183POPC   C3A41921  35.598  13.959   6.921
 3183POPC   C4A41922  35.427  13.786   7.278
 3183POPC   C1B41923  35.356  13.285   6.231
 3183POPC   C2B41924  35.238  13.274   6.644
 3183POPC   C3B41925  35.131  13.481   7.008
 3183POPC   C4B41926  35.195  13.312   7.430
 3184POPC   NC341927  30.150  30.517   5.391
 3184POPC   PO441928  30.423  31.077   5.429
 3184POPC   GL141929  30.044  30.849   5.763
 3184POPC   GL241930  29.906  30.458   5.823
 3184POPC   C1A41931  29.706  30.774   6.151
 3184POPC   D2A41932  29.782  30.643   6.595
 3184POPC   C3A41933  29.651  30.874   6.969
 3184POPC   C4A41934  29.957  31.152   7.144
 3184POPC   C1B41935  30.135  30.491   6.202
 3184POPC   C2B41936  30.219  30.383   6.626
 3184POPC   C3B41937  29.962  30.451   7.036
 3184POPC   C4B41938  29.557  30.431   7.273
 3185POPC   NC341939  35.285   0.208   5.447
 3185POPC   PO441940  35.634   0.784   5.234
 3185POPC   GL141941  35.521   0.669   5.734
 3185POPC   GL241942  35.185   0.507   5.837
 3185POPC   C1A41943  35.510   0.488   6.212
 3185POPC   D2A41944  35.308   0.392   6.621
 3185POPC   C3A41945  35.549   0.559   6.982
 3185POPC   C4A41946  35.639   0.447   7.412
 3185POPC   C1B41947  35.015   0.123   6.067
 3185POPC   C2B41948  34.954  44.988   6.516
 3185POPC   C3B41949  34.973   0.139   6.938
 3185POPC   C4B41950  35.061   0.305   7.337
 3186POPC   NC341951  34.258  27.692   5.182
 3186POPC   PO441952  34.608  27.235   5.513
 3186POPC   GL141953  34.498  27.522   5.852
 3186POPC   GL241954  34.813  27.657   5.851
 3186POPC   C1A41955  34.372  27.369   6.278
 3186POPC   D2A41956  34.591  27.361   6.629
 3186POPC   C3A41957  34.370  27.532   6.928
 3186POPC   C4A41958  34.551  27.390   7.264
 3186POPC   C1B41959  34.711  27.756   6.284
 3186POPC   C2B41960  34.470  27.979   6.583
 3186POPC   C3B41961  34.198  28.013   6.924
 3186POPC   C4B41962  34.328  27.861   7.347
 3187POPC   NC341963  19.398  25.248   5.486
 3187POPC   PO441964  18.761  25.001   5.665
 3187POPC   GL141965  18.902  25.304   5.934
 3187POPC   GL241966  19.250  25.342   5.966
 3187POPC   C1A41967  18.955  25.243   6.358
 3187POPC   D2A41968  19.217  25.364   6.674
 3187POPC   C3A41969  19.087  25.224   7.069
 3187POPC   C4A41970  18.635  25.179   7.159
 3187POPC   C1B41971  19.466  25.599   6.263
 3187POPC   C2B41972  19.634  25.638   6.681
 3187POPC   C3B41973  19.554  25.537   7.119
 3187POPC   C4B41974  19.261  25.524   7.445
 3188POPC   NC341975   5.171  23.318   5.529
 3188POPC   PO441976   4.959  22.643   5.513
 3188POPC   GL141977   5.146  22.871   5.842
 3188POPC   GL241978   4.860  23.045   5.929
 3188POPC   C1A41979   5.288  23.147   6.198
 3188POPC   D2A41980   5.451  23.206   6.617
 3188POPC   C3A41981   5.359  22.919   6.941
 3188POPC   C4A41982   5.190  23.116   7.307
 3188POPC   C1B41983   4.782  23.207   6.358
 3188POPC   C2B41984   4.811  23.175   6.822
 3188POPC   C3B41985   4.682  23.169   7.256
 3188POPC   C4B41986   4.835  22.924   7.640
 3189POPC   NC341987  11.813  38.685   5.464
 3189POPC   PO441988  12.473  38.479   5.407
 3189POPC   GL141989  12.180  38.423   5.779
 3189POPC   GL241990  11.938  38.658   5.954
 3189POPC   C1A41991  12.289  38.217   6.163
 3189POPC   D2A41992  12.379  38.379   6.556
 3189POPC   C3A41993  12.198  38.216   6.940
 3189POPC   C4A41994  12.285  38.341   7.326
 3189POPC   C1B41995  11.791  38.310   6.181
 3189POPC   C2B41996  11.816  38.174   6.584
 3189POPC   C3B41997  11.756  38.472   6.888
 3189POPC   C4B41998  11.691  38.718   7.262
 3190POPC   NC341999  41.384  24.266   5.105
 3190POPC   PO442000  41.492  23.665   5.408
 3190POPC   GL142001  41.644  23.718   5.845
 3190POPC   GL242002  41.996  23.617   5.856
 3190POPC   C1A42003  41.624  23.972   6.250
 3190POPC   D2A42004  41.685  24.215   6.642
 3190POPC   C3A42005  41.538  23.980   7.010
 3190POPC   C4A42006  41.215  23.697   7.184
 3190POPC   C1B42007  41.802  23.463   6.258
 3190POPC   C2B42008  41.566  23.590   6.634
 3190POPC   C3B42009  41.628  23.434   7.054
 3190POPC   C4B42010  41.888  23.677   7.347
 3191POPC   NC342011  13.992  21.506   5.584
 3191POPC   PO442012  14.564  21.180   5.440
 3191POPC   GL142013  14.482  21.400   5.798
 3191POPC   GL242014  14.247  21.159   5.885
 3191POPC   C1A42015  14.277  21.611   6.158
 3191POPC   D2A42016  14.391  21.632   6.573
 3191POPC   C3A42017  14.073  21.682   6.894
 3191POPC   C4A42018  14.214  21.664   7.323
 3191POPC   C1B42019  14.513  21.187   6.247
 3191POPC   C2B42020  14.320  21.126   6.603
 3191POPC   C3B42021  14.353  21.277   6.989
 3191POPC   C4B42022  14.097  21.171   7.331
 3192POPC   NC342023  29.382  25.420   5.506
 3192POPC   PO442024  29.991  25.335   5.429
 3192POPC   GL142025  29.826  25.392   5.801
 3192POPC   GL242026  29.653  25.079   5.771
 3192POPC   C1A42027  29.924  25.417   6.239
 3192POPC   D2A42028  29.700  25.430   6.617
 3192POPC   C3A42029  29.910  25.526   6.968
 3192POPC   C4A42030  29.721  25.553   7.359
 3192POPC   C1B42031  29.936  24.911   6.071
 3192POPC   C2B42032  30.033  24.803   6.489
 3192POPC   C3B42033  29.918  25.007   6.867
 3192POPC   C4B42034  30.012  25.106   7.293
 3193POPC   NC342035   0.514  28.123   5.287
 3193POPC   PO442036   0.102  28.640   5.536
 3193POPC   GL142037   0.253  28.262   5.799
 3193POPC   GL242038   0.613  28.187   5.785
 3193POPC   C1A42039   0.134  28.079   6.223
 3193POPC   D2A42040  44.962  28.207   6.658
 3193POPC   C3A42041   0.279  28.382   6.915
 3193POPC   C4A42042   0.554  28.227   7.254
 3193POPC   C1B42043   0.624  28.289   6.224
 3193POPC   C2B42044   0.764  28.269   6.663
 3193POPC   C3B42045   0.738  28.623   6.951
 3193POPC   C4B42046   0.485  28.783   7.240
 3194POPC   NC342047  33.177  15.040   5.224
 3194POPC   PO442048  33.573  15.516   5.605
 3194POPC   GL142049  33.277  15.096   5.788
 3194POPC   GL242050  32.882  15.191   5.884
 3194POPC   C1A42051  33.131  14.886   6.208
 3194POPC   D2A42052  32.810  15.060   6.493
 3194POPC   C3A42053  32.961  15.080   6.928
 3194POPC   C4A42054  32.789  15.109   7.318
 3194POPC   C1B42055  33.170  15.395   6.205
 3194POPC   C2B42056  33.329  15.333   6.605
 3194POPC   C3B42057  33.162  15.563   6.950
 3194POPC   C4B42058  33.091  15.537   7.381
 3195POPC   NC342059   6.622  24.339   5.389
 3195POPC   PO442060   7.124  24.569   5.354
 3195POPC   GL142061   6.812  24.631   5.762
 3195POPC   GL242062   6.419  24.585   5.787
 3195POPC   C1A42063   6.717  24.550   6.223
 3195POPC   D2A42064   6.798  24.174   6.510
 3195POPC   C3A42065   6.942  24.269   6.923
 3195POPC   C4A42066   6.764  24.672   7.091
 3195POPC   C1B42067   6.322  24.268   6.039
 3195POPC   C2B42068   6.284  24.331   6.460
 3195POPC   C3B42069   6.432  24.322   6.855
 3195POPC   C4B42070   6.363  24.333   7.275
 3196POPC   NC342071  40.833  17.804   5.272
 3196POPC   PO442072  41.188  17.195   5.333
 3196POPC   GL142073  40.837  17.386   5.655
 3196POPC   GL242074  40.667  17.715   5.731
 3196POPC   C1A42075  40.742  17.440   6.140
 3196POPC   D2A42076  40.577  17.386   6.556
 3196POPC   C3A42077  40.818  17.462   6.941
 3196POPC   C4A42078  40.740  17.272   7.326
 3196POPC   C1B42079  40.383  17.832   6.039
 3196POPC   C2B42080  40.287  17.822   6.479
 3196POPC   C3B42081  40.451  17.816   6.901
 3196POPC   C4B42082  40.327  17.669   7.322
 3197POPC   NC342083  43.414  44.803   5.522
 3197POPC   PO442084  42.883  44.279   5.457
 3197POPC   GL142085  43.081  44.513   5.776
 3197POPC   GL242086  42.907  44.834   5.697
 3197POPC   C1A42087  43.335  44.547   6.190
 3197POPC   D2A42088  43.535  44.711   6.599
 3197POPC   C3A42089  43.513  44.592   7.056
 3197POPC   C4A42090  43.193  44.584   7.401
 3197POPC   C1B42091  43.027  44.952   6.094
 3197POPC   C2B42092  43.018  44.836   6.515
 3197POPC   C3B42093  43.064  44.833   6.955
 3197POPC   C4B42094  43.196   0.119   7.287
 3198POPC   NC342095   1.253  26.474   5.669
 3198POPC   PO442096   1.373  27.085   5.485
 3198POPC   GL142097   1.176  27.118   5.872
 3198POPC   GL242098   0.938  26.846   5.891
 3198POPC   C1A42099   1.278  26.947   6.275
 3198POPC   D2A42100   1.430  26.870   6.682
 3198POPC   C3A42101   1.137  27.045   6.949
 3198POPC   C4A42102   0.941  26.931   7.308
 3198POPC   C1B42103   0.845  26.678   6.326
 3198POPC   C2B42104   0.956  26.601   6.755
 3198POPC   C3B42105   1.045  26.442   7.173
 3198POPC   C4B42106   1.119  26.564   7.625
 3199POPC   NC342107  30.133  11.932   5.499
 3199POPC   PO442108  29.723  12.453   5.545
 3199POPC   GL142109  29.792  12.145   5.852
 3199POPC   GL242110  29.804  11.766   5.882
 3199POPC   C1A42111  29.580  12.086   6.229
 3199POPC   D2A42112  29.742  11.948   6.616
 3199POPC   C3A42113  29.849  12.279   6.862
 3199POPC   C4A42114  29.567  12.202   7.171
 3199POPC   C1B42115  30.080  11.936   6.233
 3199POPC   C2B42116  30.227  11.924   6.724
 3199POPC   C3B42117  30.021  11.908   7.174
 3199POPC   C4B42118  30.044  11.877   7.661
 3200POPC   NC342119  22.506  41.682   5.833
 3200POPC   PO442120  23.042  41.751   5.417
 3200POPC   GL142121  23.036  41.694   5.883
 3200POPC   GL242122  22.864  41.379   6.034
 3200POPC   C1A42123  23.266  41.722   6.299
 3200POPC   D2A42124  23.153  41.771   6.766
 3200POPC   C3A42125  22.982  41.403   7.012
 3200POPC   C4A42126  22.871  41.094   7.354
 3200POPC   C1B42127  22.775  41.689   6.390
 3200POPC   C2B42128  22.568  41.973   6.629
 3200POPC   C3B42129  22.721  41.846   7.025
 3200POPC   C4B42130  22.661  41.566   7.371
 3201POPC   NC342131  11.219  36.328   5.259
 3201POPC   PO442132  11.798  36.524   5.563
 3201POPC   GL142133  11.596  36.298   5.916
 3201POPC   GL242134  11.268  36.142   5.800
 3201POPC   C1A42135  11.424  36.262   6.301
 3201POPC   D2A42136  11.198  36.214   6.622
 3201POPC   C3A42137  11.400  36.230   7.009
 3201POPC   C4A42138  11.084  36.177   7.273
 3201POPC   C1B42139  11.156  35.845   6.108
 3201POPC   C2B42140  11.226  35.705   6.515
 3201POPC   C3B42141  11.086  35.816   6.913
 3201POPC   C4B42142  11.296  35.685   7.273
 3202POPC   NC342143  21.470  10.229   5.291
 3202POPC   PO442144  21.088   9.623   5.426
 3202POPC   GL142145  21.410   9.863   5.718
 3202POPC   GL242146  21.239  10.069   5.964
 3202POPC   C1A42147  21.602   9.786   6.175
 3202POPC   D2A42148  21.448   9.585   6.577
 3202POPC   C3A42149  21.681   9.604   6.970
 3202POPC   C4A42150  21.630   9.538   7.397
 3202POPC   C1B42151  21.322  10.160   6.409
 3202POPC   C2B42152  21.506  10.062   6.807
 3202POPC   C3B42153  21.268   9.855   7.139
 3202POPC   C4B42154  21.141   9.815   7.559
 3203POPC   NC342155  27.012  42.799   5.535
 3203POPC   PO442156  26.551  42.242   5.524
 3203POPC   GL142157  26.772  42.441   5.868
 3203POPC   GL242158  27.130  42.322   5.862
 3203POPC   C1A42159  26.911  42.435   6.322
 3203POPC   D2A42160  26.964  42.386   6.774
 3203POPC   C3A42161  26.605  42.478   7.063
 3203POPC   C4A42162  26.493  42.432   7.525
 3203POPC   C1B42163  27.245  42.024   6.231
 3203POPC   C2B42164  27.239  41.860   6.694
 3203POPC   C3B42165  27.074  42.013   7.103
 3203POPC   C4B42166  27.036  42.433   7.336
 3204POPC   NC342167  23.643  31.365   5.379
 3204POPC   PO442168  23.904  31.984   5.376
 3204POPC   GL142169  23.613  31.737   5.749
 3204POPC   GL242170  23.437  31.395   5.829
 3204POPC   C1A42171  23.740  31.506   6.208
 3204POPC   D2A42172  23.925  31.468   6.658
 3204POPC   C3A42173  23.669  31.609   7.009
 3204POPC   C4A42174  23.589  31.515   7.440
 3204POPC   C1B42175  23.354  31.148   6.204
 3204POPC   C2B42176  23.404  31.348   6.635
 3204POPC   C3B42177  23.470  31.125   7.070
 3204POPC   C4B42178  23.418  31.055   7.554
 3205POPC   NC342179   6.851  30.918   5.371
 3205POPC   PO442180   6.323  30.472   5.424
 3205POPC   GL142181   6.620  30.588   5.758
 3205POPC   GL242182   6.610  30.962   5.824
 3205POPC   C1A42183   6.599  30.639   6.217
 3205POPC   D2A42184   6.402  30.782   6.620
 3205POPC   C3A42185   6.553  30.532   6.976
 3205POPC   C4A42186   6.329  30.128   7.079
 3205POPC   C1B42187   6.725  31.140   6.249
 3205POPC   C2B42188   6.879  30.976   6.643
 3205POPC   C3B42189   6.904  31.007   7.085
 3205POPC   C4B42190   6.951  30.954   7.555
 3206POPC   NC342191  31.053  27.248   5.372
 3206POPC   PO442192  30.707  27.892   5.408
 3206POPC   GL142193  30.583  27.684   5.737
 3206POPC   GL242194  30.598  27.337   5.636
 3206POPC   C1A42195  30.534  27.796   6.158
 3206POPC   D2A42196  30.724  27.831   6.532
 3206POPC   C3A42197  30.863  27.604   6.860
 3206POPC   C4A42198  30.831  27.703   7.210
 3206POPC   C1B42199  30.760  27.335   6.076
 3206POPC   C2B42200  30.681  27.292   6.524
 3206POPC   C3B42201  30.498  27.241   6.985
 3206POPC   C4B42202  30.720  27.284   7.451
 3207POPC   NC342203  33.852  13.020   5.444
 3207POPC   PO442204  33.643  12.366   5.571
 3207POPC   GL142205  33.649  12.759   5.824
 3207POPC   GL242206  33.424  13.058   5.765
 3207POPC   C1A42207  33.779  13.088   6.143
 3207POPC   D2A42208  34.066  13.162   6.484
 3207POPC   C3A42209  34.018  12.821   6.775
 3207POPC   C4A42210  33.985  12.851   7.202
 3207POPC   C1B42211  33.327  12.828   6.199
 3207POPC   C2B42212  33.505  12.831   6.657
 3207POPC   C3B42213  33.479  12.808   7.137
 3207POPC   C4B42214  33.320  13.047   7.507
 3208POPC   NC342215   1.525  15.146   5.045
 3208POPC   PO442216   1.021  14.854   5.452
 3208POPC   GL142217   1.164  15.058   5.839
 3208POPC   GL242218   1.518  14.990   5.971
 3208POPC   C1A42219   0.898  15.151   6.199
 3208POPC   D2A42220   0.861  15.072   6.638
 3208POPC   C3A42221   0.789  15.377   6.959
 3208POPC   C4A42222   0.887  15.392   7.438
 3208POPC   C1B42223   1.372  15.222   6.353
 3208POPC   C2B42224   1.281  15.367   6.775
 3208POPC   C3B42225   1.477  15.287   7.201
 3208POPC   C4B42226   1.676  15.049   7.547
 3209POPC   NC342227  42.572   3.289   4.967
 3209POPC   PO442228  42.307   3.740   5.406
 3209POPC   GL142229  42.379   3.574   5.807
 3209POPC   GL242230  42.605   3.281   5.756
 3209POPC   C1A42231  42.101   3.649   6.160
 3209POPC   D2A42232  42.080   3.951   6.487
 3209POPC   C3A42233  42.024   3.776   6.885
 3209POPC   C4A42234  42.119   3.920   7.296
 3209POPC   C1B42235  42.403   3.207   6.171
 3209POPC   C2B42236  42.373   3.437   6.541
 3209POPC   C3B42237  42.463   3.509   6.959
 3209POPC   C4B42238  42.157   3.399   7.250
 3210POPC   NC342239   6.563  15.176   5.390
 3210POPC   PO442240   6.384  15.725   5.757
 3210POPC   GL142241   6.400  15.298   5.869
 3210POPC   GL242242   6.256  15.006   5.784
 3210POPC   C1A42243   6.630  15.148   6.198
 3210POPC   D2A42244   6.722  15.447   6.514
 3210POPC   C3A42245   6.552  15.247   6.863
 3210POPC   C4A42246   6.405  15.417   7.216
 3210POPC   C1B42247   6.315  14.731   6.135
 3210POPC   C2B42248   6.533  14.749   6.527
 3210POPC   C3B42249   6.346  14.785   6.886
 3210POPC   C4B42250   6.283  14.938   7.243
 3211POPC   NC342251   9.698   8.569   5.276
 3211POPC   PO442252  10.146   8.022   5.378
 3211POPC   GL142253   9.883   8.202   5.703
 3211POPC   GL242254   9.964   8.555   5.708
 3211POPC   C1A42255   9.714   8.094   6.122
 3211POPC   D2A42256   9.500   8.021   6.524
 3211POPC   C3A42257   9.806   7.933   6.830
 3211POPC   C4A42258   9.783   8.088   7.228
 3211POPC   C1B42259   9.609   8.585   5.994
 3211POPC   C2B42260   9.568   8.515   6.439
 3211POPC   C3B42261   9.620   8.445   6.895
 3211POPC   C4B42262   9.910   8.615   7.247
 3212POPC   NC342263  23.156  28.327   5.333
 3212POPC   PO442264  22.651  27.887   5.400
 3212POPC   GL142265  22.781  28.126   5.788
 3212POPC   GL242266  22.795  28.496   5.753
 3212POPC   C1A42267  22.925  28.194   6.225
 3212POPC   D2A42268  22.731  28.129   6.632
 3212POPC   C3A42269  23.021  28.178   6.964
 3212POPC   C4A42270  23.039  28.112   7.405
 3212POPC   C1B42271  22.840  28.700   6.176
 3212POPC   C2B42272  22.946  28.590   6.602
 3212POPC   C3B42273  22.789  28.634   7.007
 3212POPC   C4B42274  23.085  28.617   7.335
 3213POPC   NC342275   8.533  30.998   5.421
 3213POPC   PO442276   7.906  30.914   5.357
 3213POPC   GL142277   8.019  30.641   5.720
 3213POPC   GL242278   7.883  30.330   5.847
 3213POPC   C1A42279   8.256  30.602   6.104
 3213POPC   D2A42280   8.264  30.920   6.430
 3213POPC   C3A42281   8.351  30.742   6.834
 3213POPC   C4A42282   8.217  30.902   7.214
 3213POPC   C1B42283   7.980  30.165   6.266
 3213POPC   C2B42284   8.080  30.333   6.693
 3213POPC   C3B42285   8.110  30.376   7.175
 3213POPC   C4B42286   8.037  30.309   7.664
 3214POPC   NC342287   9.682  36.420   5.308
 3214POPC   PO442288  10.146  35.961   5.376
 3214POPC   GL142289   9.845  36.129   5.704
 3214POPC   GL242290   9.883  36.511   5.765
 3214POPC   C1A42291   9.648  36.212   6.126
 3214POPC   D2A42292   9.809  36.057   6.522
 3214POPC   C3A42293   9.654  36.191   6.903
 3214POPC   C4A42294   9.786  36.171   7.291
 3214POPC   C1B42295   9.939  36.639   6.197
 3214POPC   C2B42296  10.074  36.487   6.615
 3214POPC   C3B42297   9.971  36.586   7.031
 3214POPC   C4B42298  10.000  36.624   7.488
 3215POPC   NC342299   5.318  39.518   5.520
 3215POPC   PO442300   5.062  38.845   5.538
 3215POPC   GL142301   4.863  39.068   5.877
 3215POPC   GL242302   4.765  39.408   5.731
 3215POPC   C1A42303   4.996  38.964   6.289
 3215POPC   D2A42304   5.408  39.089   6.435
 3215POPC   C3A42305   5.445  39.100   6.891
 3215POPC   C4A42306   5.454  39.307   7.285
 3215POPC   C1B42307   5.005  39.483   6.143
 3215POPC   C2B42308   5.003  39.400   6.563
 3215POPC   C3B42309   5.041  39.429   6.983
 3215POPC   C4B42310   5.039  39.548   7.389
 3216POPC   NC342311  24.717   6.382   5.539
 3216POPC   PO442312  24.554   6.990   5.322
 3216POPC   GL142313  24.531   6.821   5.760
 3216POPC   GL242314  24.272   6.518   5.805
 3216POPC   C1A42315  24.674   6.610   6.166
 3216POPC   D2A42316  24.621   6.363   6.575
 3216POPC   C3A42317  24.692   6.498   7.031
 3216POPC   C4A42318  24.360   6.493   7.387
 3216POPC   C1B42319  24.211   6.785   6.172
 3216POPC   C2B42320  24.392   6.863   6.561
 3216POPC   C3B42321  24.288   6.805   6.987
 3216POPC   C4B42322  24.609   6.994   7.267
 3217POPC   NC342323  29.044   2.271   5.310
 3217POPC   PO442324  29.424   1.786   5.461
 3217POPC   GL142325  29.285   2.012   5.815
 3217POPC   GL242326  29.542   2.237   5.806
 3217POPC   C1A42327  29.029   2.174   6.172
 3217POPC   D2A42328  28.860   1.978   6.558
 3217POPC   C3A42329  29.107   1.948   6.945
 3217POPC   C4A42330  29.138   1.643   7.274
 3217POPC   C1B42331  29.531   2.148   6.268
 3217POPC   C2B42332  29.341   2.314   6.679
 3217POPC   C3B42333  29.539   2.190   7.110
 3217POPC   C4B42334  29.326   2.119   7.526
 3218POPC   NC342335  20.751  38.034   5.611
 3218POPC   PO442336  20.339  37.556   5.400
 3218POPC   GL142337  20.447  37.670   5.845
 3218POPC   GL242338  20.791  37.527   5.890
 3218POPC   C1A42339  20.626  37.851   6.238
 3218POPC   D2A42340  20.815  37.693   6.611
 3218POPC   C3A42341  20.594  37.682   6.985
 3218POPC   C4A42342  20.769  38.027   7.181
 3218POPC   C1B42343  20.602  37.342   6.292
 3218POPC   C2B42344  20.698  37.213   6.734
 3218POPC   C3B42345  20.752  37.134   7.162
 3218POPC   C4B42346  20.675  37.430   7.437
 3219POPC   NC342347  37.066   7.666   5.687
 3219POPC   PO442348  36.829   7.058   5.637
 3219POPC   GL142349  36.860   7.301   5.980
 3219POPC   GL242350  36.858   7.663   6.142
 3219POPC   C1A42351  36.832   7.220   6.379
 3219POPC   D2A42352  36.972   7.458   6.676
 3219POPC   C3A42353  36.966   7.196   6.991
 3219POPC   C4A42354  37.051   7.229   7.399
 3219POPC   C1B42355  37.264   7.749   6.364
 3219POPC   C2B42356  37.457   7.598   6.768
 3219POPC   C3B42357  37.266   7.646   7.161
 3219POPC   C4B42358  37.187   7.744   7.580
 3220POPC   NC342359  11.847  44.665   5.044
 3220POPC   PO442360  12.312  44.888   5.416
 3220POPC   GL142361  12.084  44.640   5.771
 3220POPC   GL242362  11.732  44.576   5.739
 3220POPC   C1A42363  12.036  44.401   6.170
 3220POPC   D2A42364  12.291  44.433   6.530
 3220POPC   C3A42365  12.185  44.442   6.934
 3220POPC   C4A42366  12.220  44.807   7.187
 3220POPC   C1B42367  11.761  44.829   6.137
 3220POPC   C2B42368  11.744  44.652   6.552
 3220POPC   C3B42369  11.758  44.737   6.991
 3220POPC   C4B42370  11.836  44.388   7.304
 3221POPC   NC342371  27.759  18.475   5.377
 3221POPC   PO442372  27.569  17.792   5.458
 3221POPC   GL142373  27.735  18.097   5.782
 3221POPC   GL242374  27.775  18.425   5.876
 3221POPC   C1A42375  27.816  18.018   6.228
 3221POPC   D2A42376  27.492  18.041   6.574
 3221POPC   C3A42377  27.644  18.091   6.988
 3221POPC   C4A42378  27.386  18.093   7.360
 3221POPC   C1B42379  27.459  18.392   6.204
 3221POPC   C2B42380  27.442  18.542   6.613
 3221POPC   C3B42381  27.315  18.485   7.016
 3221POPC   C4B42382  27.678  18.528   7.276
 3222POPC   NC342383  18.028   6.359   5.287
 3222POPC   PO442384  17.834   7.036   5.381
 3222POPC   GL142385  18.134   6.833   5.706
 3222POPC   GL242386  18.249   6.485   5.760
 3222POPC   C1A42387  18.304   6.860   6.146
 3222POPC   D2A42388  18.144   6.681   6.544
 3222POPC   C3A42389  18.303   6.736   6.970
 3222POPC   C4A42390  17.999   6.826   7.286
 3222POPC   C1B42391  18.366   6.351   6.203
 3222POPC   C2B42392  18.478   6.300   6.682
 3222POPC   C3B42393  18.442   6.273   7.161
 3222POPC   C4B42394  18.536   6.076   7.586
 3223POPC   NC342395  18.697  36.333   5.578
 3223POPC   PO442396  18.103  36.057   5.409
 3223POPC   GL142397  18.280  36.155   5.821
 3223POPC   GL242398  18.056  36.423   5.891
 3223POPC   C1A42399  18.392  35.981   6.263
 3223POPC   D2A42400  18.332  35.659   6.608
 3223POPC   C3A42401  18.205  35.779   7.012
 3223POPC   C4A42402  18.347  36.135   7.227
 3223POPC   C1B42403  17.895  36.095   6.166
 3223POPC   C2B42404  18.001  36.038   6.596
 3223POPC   C3B42405  17.850  36.175   6.992
 3223POPC   C4B42406  17.888  36.286   7.375
 3224POPC   NC342407   9.285  20.666   5.651
 3224POPC   PO442408   9.941  20.523   5.506
 3224POPC   GL142409  10.032  20.705   5.863
 3224POPC   GL242410   9.997  20.471   6.119
 3224POPC   C1A42411   9.839  20.957   6.156
 3224POPC   D2A42412   9.875  20.887   6.584
 3224POPC   C3A42413   9.627  20.634   6.857
 3224POPC   C4A42414   9.945  20.527   7.174
 3224POPC   C1B42415   9.574  20.532   6.290
 3224POPC   C2B42416   9.344  20.254   6.553
 3224POPC   C3B42417   9.508  20.140   6.960
 3224POPC   C4B42418   9.582  20.263   7.397
 3225POPC   NC342419  16.439  37.513   5.489
 3225POPC   PO442420  17.111  37.615   5.397
 3225POPC   GL142421  16.861  37.461   5.768
 3225POPC   GL242422  16.631  37.747   5.897
 3225POPC   C1A42423  16.702  37.327   6.171
 3225POPC   D2A42424  16.642  37.398   6.635
 3225POPC   C3A42425  16.777  37.633   7.040
 3225POPC   C4A42426  16.541  37.793   7.422
 3225POPC   C1B42427  16.408  37.722   6.298
 3225POPC   C2B42428  16.325  37.878   6.730
 3225POPC   C3B42429  16.523  38.137   7.076
 3225POPC   C4B42430  16.538  38.319   7.528
 3226POPC   NC342431  17.015   1.051   5.235
 3226POPC   PO442432  16.351   1.186   5.312
 3226POPC   GL142433  16.579   1.259   5.695
 3226POPC   GL242434  16.363   1.472   5.820
 3226POPC   C1A42435  16.778   1.349   6.102
 3226POPC   D2A42436  16.982   1.299   6.502
 3226POPC   C3A42437  16.840   1.250   6.918
 3226POPC   C4A42438  16.926   0.863   7.119
 3226POPC   C1B42439  16.310   1.560   6.231
 3226POPC   C2B42440  16.430   1.401   6.616
 3226POPC   C3B42441  16.401   1.520   7.040
 3226POPC   C4B42442  16.467   1.443   7.447
 3227POPC   NC342443   9.609  25.958   5.431
 3227POPC   PO442444  10.103  26.430   5.357
 3227POPC   GL142445   9.939  26.240   5.762
 3227POPC   GL242446   9.783  25.916   5.905
 3227POPC   C1A42447  10.092  26.166   6.208
 3227POPC   D2A42448  10.243  25.977   6.571
 3227POPC   C3A42449   9.990  26.024   6.874
 3227POPC   C4A42450   9.762  26.270   7.123
 3227POPC   C1B42451   9.738  25.866   6.376
 3227POPC   C2B42452   9.453  25.918   6.710
 3227POPC   C3B42453   9.592  25.799   7.098
 3227POPC   C4B42454   9.999  25.673   7.297
 3228POPC   NC342455  15.560  25.841   5.335
 3228POPC   PO442456  16.186  25.921   5.636
 3228POPC   GL142457  15.960  26.011   5.957
 3228POPC   GL242458  15.612  26.026   5.892
 3228POPC   C1A42459  16.026  25.884   6.353
 3228POPC   D2A42460  15.821  25.950   6.725
 3228POPC   C3A42461  16.047  25.729   7.020
 3228POPC   C4A42462  15.988  25.957   7.340
 3228POPC   C1B42463  15.658  26.254   6.312
 3228POPC   C2B42464  15.690  26.442   6.739
 3228POPC   C3B42465  15.729  26.414   7.179
 3228POPC   C4B42466  15.638  26.608   7.584
 3229POPC   NC342467  15.593   9.306   5.451
 3229POPC   PO442468  14.972   9.522   5.367
 3229POPC   GL142469  15.068   9.643   5.791
 3229POPC   GL242470  14.890   9.360   5.889
 3229POPC   C1A42471  15.239   9.820   6.217
 3229POPC   D2A42472  15.230   9.613   6.660
 3229POPC   C3A42473  15.152   9.871   6.991
 3229POPC   C4A42474  14.941  10.004   7.328
 3229POPC   C1B42475  14.886   9.420   6.321
 3229POPC   C2B42476  14.785   9.366   6.755
 3229POPC   C3B42477  14.831   9.504   7.151
 3229POPC   C4B42478  14.757   9.457   7.577
 3230POPC   NC342479  16.983   5.022   5.272
 3230POPC   PO442480  16.382   4.735   5.502
 3230POPC   GL142481  16.733   4.916   5.732
 3230POPC   GL242482  16.696   5.279   5.750
 3230POPC   C1A42483  16.750   5.044   6.196
 3230POPC   D2A42484  16.870   4.797   6.561
 3230POPC   C3A42485  16.746   4.934   6.974
 3230POPC   C4A42486  16.532   4.684   7.249
 3230POPC   C1B42487  17.043   5.447   6.038
 3230POPC   C2B42488  17.227   5.356   6.439
 3230POPC   C3B42489  17.145   5.282   6.880
 3230POPC   C4B42490  16.883   5.347   7.280
 3231POPC   NC342491  31.597  38.031   5.207
 3231POPC   PO442492  31.480  37.367   5.374
 3231POPC   GL142493  31.575  37.580   5.768
 3231POPC   GL242494  31.533  37.960   5.721
 3231POPC   C1A42495  31.429  37.558   6.219
 3231POPC   D2A42496  31.192  37.343   6.572
 3231POPC   C3A42497  31.143  37.499   6.994
 3231POPC   C4A42498  31.473  37.662   7.219
 3231POPC   C1B42499  31.776  37.939   6.120
 3231POPC   C2B42500  31.787  37.843   6.567
 3231POPC   C3B42501  31.772  38.021   6.990
 3231POPC   C4B42502  31.703  38.350   7.314
 3232POPC   NC342503   9.793  44.927   5.338
 3232POPC   PO442504   9.477  44.314   5.452
 3232POPC   GL142505   9.698  44.591   5.768
 3232POPC   GL242506   9.520  44.913   5.800
 3232POPC   C1A42507   9.935  44.861   6.102
 3232POPC   D2A42508  10.117   0.019   6.530
 3232POPC   C3A42509   9.956  44.806   6.928
 3232POPC   C4A42510   9.684  44.940   7.280
 3232POPC   C1B42511   9.407  44.847   6.257
 3232POPC   C2B42512   9.274  44.708   6.698
 3232POPC   C3B42513   9.530  44.517   7.032
 3232POPC   C4B42514   9.855  44.295   7.242
 3233POPC   NC342515   0.085  19.468   5.478
 3233POPC   PO442516   0.344  18.779   5.456
 3233POPC   GL142517   0.428  19.114   5.728
 3233POPC   GL242518   0.159  19.036   5.908
 3233POPC   C1A42519   0.595  19.215   6.130
 3233POPC   D2A42520   0.431  19.046   6.496
 3233POPC   C3A42521   0.519  19.202   6.878
 3233POPC   C4A42522   0.600  19.089   7.278
 3233POPC   C1B42523  44.985  19.222   6.290
 3233POPC   C2B42524   0.024  19.274   6.752
 3233POPC   C3B42525   0.121  19.307   7.201
 3233POPC   C4B42526   0.225  19.481   7.621
 3234POPC   NC342527  41.475   1.652   5.452
 3234POPC   PO442528  41.757   2.299   5.462
 3234POPC   GL142529  41.603   2.032   5.790
 3234POPC   GL242530  41.769   1.776   5.876
 3234POPC   C1A42531  41.405   2.020   6.191
 3234POPC   D2A42532  41.541   1.954   6.602
 3234POPC   C3A42533  41.655   2.338   6.805
 3234POPC   C4A42534  41.632   2.421   7.250
 3234POPC   C1B42535  41.738   1.595   6.244
 3234POPC   C2B42536  41.854   1.528   6.634
 3234POPC   C3B42537  41.798   1.754   7.026
 3234POPC   C4B42538  41.520   1.676   7.411
 3235POPC   NC342539  14.820  21.704   5.291
 3235POPC   PO442540  15.364  21.332   5.527
 3235POPC   GL142541  15.218  21.410   5.934
 3235POPC   GL242542  14.954  21.619   5.791
 3235POPC   C1A42543  15.017  21.172   6.299
 3235POPC   D2A42544  14.803  21.281   6.706
 3235POPC   C3A42545  15.094  21.466   7.018
 3235POPC   C4A42546  15.452  21.380   7.318
 3235POPC   C1B42547  14.797  21.641   6.213
 3235POPC   C2B42548  14.899  21.794   6.634
 3235POPC   C3B42549  14.640  21.754   7.015
 3235POPC   C4B42550  14.728  21.774   7.447
 3236POPC   NC342551   2.250  23.552   5.355
 3236POPC   PO442552   2.140  22.914   5.238
 3236POPC   GL142553   1.990  22.913   5.702
 3236POPC   GL242554   2.245  23.054   5.917
 3236POPC   C1A42555   1.750  23.004   6.093
 3236POPC   D2A42556   1.860  22.884   6.540
 3236POPC   C3A42557   1.921  23.147   6.912
 3236POPC   C4A42558   1.683  23.260   7.300
 3236POPC   C1B42559   2.135  22.669   6.154
 3236POPC   C2B42560   2.256  22.540   6.579
 3236POPC   C3B42561   2.454  22.706   6.931
 3236POPC   C4B42562   2.248  22.942   7.251
 3237POPC   NC342563   4.579  30.553   5.601
 3237POPC   PO442564   3.962  30.711   5.479
 3237POPC   GL142565   4.190  30.723   5.880
 3237POPC   GL242566   4.149  30.343   5.849
 3237POPC   C1A42567   4.570  30.877   6.194
 3237POPC   D2A42568   4.772  30.911   6.636
 3237POPC   C3A42569   4.437  30.914   6.954
 3237POPC   C4A42570   4.069  30.897   7.190
 3237POPC   C1B42571   4.347  30.407   6.265
 3237POPC   C2B42572   4.466  30.442   6.711
 3237POPC   C3B42573   4.170  30.398   7.068
 3237POPC   C4B42574   4.173  30.502   7.508
 3238POPC   NC342575  19.797  40.444   5.468
 3238POPC   PO442576  20.026  40.974   5.382
 3238POPC   GL142577  19.841  41.041   5.799
 3238POPC   GL242578  19.598  40.813   5.834
 3238POPC   C1A42579  19.952  41.020   6.291
 3238POPC   D2A42580  19.869  41.114   6.761
 3238POPC   C3A42581  19.810  40.899   7.213
 3238POPC   C4A42582  19.873  40.839   7.691
 3238POPC   C1B42583  19.467  40.875   6.281
 3238POPC   C2B42584  19.557  40.700   6.702
 3238POPC   C3B42585  19.423  40.581   7.110
 3238POPC   C4B42586  19.407  40.790   7.518
 3239POPC   NC342587  17.883  36.499   5.413
 3239POPC   PO442588  17.397  35.999   5.265
 3239POPC   GL142589  17.552  36.166   5.699
 3239POPC   GL242590  17.529  36.519   5.794
 3239POPC   C1A42591  17.352  36.172   6.136
 3239POPC   D2A42592  17.303  35.865   6.472
 3239POPC   C3A42593  17.617  35.759   6.782
 3239POPC   C4A42594  17.395  35.740   7.165
 3239POPC   C1B42595  17.699  36.552   6.226
 3239POPC   C2B42596  17.582  36.323   6.578
 3239POPC   C3B42597  17.319  36.175   6.893
 3239POPC   C4B42598  17.402  36.336   7.269
 3240POPC   NC342599  37.867   7.568   5.569
 3240POPC   PO442600  38.463   7.579   5.280
 3240POPC   GL142601  38.362   7.327   5.667
 3240POPC   GL242602  38.327   7.612   5.844
 3240POPC   C1A42603  38.383   7.197   6.153
 3240POPC   D2A42604  38.540   7.318   6.590
 3240POPC   C3A42605  38.421   7.106   6.986
 3240POPC   C4A42606  38.509   7.168   7.452
 3240POPC   C1B42607  38.413   7.790   6.237
 3240POPC   C2B42608  38.227   7.768   6.623
 3240POPC   C3B42609  38.205   7.550   6.991
 3240POPC   C4B42610  38.244   7.612   7.414
 3241POPC   NC342611   7.621  14.121   5.556
 3241POPC   PO442612   8.331  14.351   5.305
 3241POPC   GL142613   8.290  14.506   5.728
 3241POPC   GL242614   7.977  14.363   5.828
 3241POPC   C1A42615   8.444  14.465   6.156
 3241POPC   D2A42616   8.322  14.346   6.547
 3241POPC   C3A42617   8.287  14.582   6.922
 3241POPC   C4A42618   8.028  14.410   7.271
 3241POPC   C1B42619   8.005  14.680   6.132
 3241POPC   C2B42620   7.994  14.822   6.550
 3241POPC   C3B42621   7.828  14.800   6.952
 3241POPC   C4B42622   7.928  14.929   7.375
 3242POPC   NC342623  18.342   8.254   5.329
 3242POPC   PO442624  18.125   7.711   5.450
 3242POPC   GL142625  18.186   7.804   5.902
 3242POPC   GL242626  18.310   8.133   5.871
 3242POPC   C1A42627  18.264   7.889   6.387
 3242POPC   D2A42628  18.002   7.990   6.761
 3242POPC   C3A42629  18.059   7.818   7.203
 3242POPC   C4A42630  18.199   8.126   7.522
 3242POPC   C1B42631  18.621   8.211   6.213
 3242POPC   C2B42632  18.683   8.149   6.666
 3242POPC   C3B42633  18.474   8.070   7.050
 3242POPC   C4B42634  18.589   7.808   7.411
 3243POPC   NC342635  40.310  16.170   5.545
 3243POPC   PO442636  39.644  16.087   5.327
 3243POPC   GL142637  39.849  15.940   5.693
 3243POPC   GL242638  40.106  15.705   5.710
 3243POPC   C1A42639  39.808  16.069   6.111
 3243POPC   D2A42640  39.892  15.893   6.501
 3243POPC   C3A42641  39.899  16.054   6.894
 3243POPC   C4A42642  39.825  16.271   7.255
 3243POPC   C1B42643  40.268  15.821   6.133
 3243POPC   C2B42644  40.369  15.726   6.562
 3243POPC   C3B42645  40.336  15.792   6.986
 3243POPC   C4B42646  40.038  15.772   7.308
 3244POPC   NC342647  24.101  17.282   5.390
 3244POPC   PO442648  23.862  17.831   5.581
 3244POPC   GL142649  24.079  17.552   5.835
 3244POPC   GL242650  23.964  17.190   5.882
 3244POPC   C1A42651  24.213  17.519   6.236
 3244POPC   D2A42652  24.030  17.586   6.633
 3244POPC   C3A42653  23.567  17.509   6.738
 3244POPC   C4A42654  23.509  17.722   7.163
 3244POPC   C1B42655  23.811  17.207   6.312
 3244POPC   C2B42656  23.943  17.114   6.720
 3244POPC   C3B42657  23.887  17.361   7.087
 3244POPC   C4B42658  23.594  17.274   7.423
 3245POPC   NC342659   2.285   0.266   5.635
 3245POPC   PO442660   1.635   0.447   5.364
 3245POPC   GL142661   1.798   0.487   5.785
 3245POPC   GL242662   2.047   0.735   5.874
 3245POPC   C1A42663   1.862   0.425   6.240
 3245POPC   D2A42664   2.014   0.357   6.653
 3245POPC   C3A42665   1.751   0.318   6.970
 3245POPC   C4A42666   1.755   0.570   7.326
 3245POPC   C1B42667   2.344   0.611   6.241
 3245POPC   C2B42668   2.434   0.652   6.700
 3245POPC   C3B42669   2.207   0.609   7.087
 3245POPC   C4B42670   2.308   0.567   7.523
 3246POPC   NC342671  40.878  32.824   5.408
 3246POPC   PO442672  40.213  33.120   5.557
 3246POPC   GL142673  40.420  33.041   5.941
 3246POPC   GL242674  40.771  32.901   5.896
 3246POPC   C1A42675  40.664  33.201   6.285
 3246POPC   D2A42676  40.776  33.010   6.663
 3246POPC   C3A42677  40.490  33.190   6.961
 3246POPC   C4A42678  40.584  33.364   7.333
 3246POPC   C1B42679  41.081  32.644   6.111
 3246POPC   C2B42680  41.180  32.457   6.524
 3246POPC   C3B42681  41.127  32.645   6.943
 3246POPC   C4B42682  40.975  33.042   7.141
 3247POPC   NC342683  32.462  33.179   5.461
 3247POPC   PO442684  32.056  32.652   5.559
 3247POPC   GL142685  32.244  32.910   5.856
 3247POPC   GL242686  32.059  33.203   5.811
 3247POPC   C1A42687  32.424  32.894   6.278
 3247POPC   D2A42688  32.633  32.902   6.693
 3247POPC   C3A42689  32.400  32.905   7.052
 3247POPC   C4A42690  32.056  32.666   7.161
 3247POPC   C1B42691  32.235  33.413   6.163
 3247POPC   C2B42692  32.344  33.334   6.589
 3247POPC   C3B42693  32.158  33.349   7.004
 3247POPC   C4B42694  32.035  33.118   7.397
 3248POPC   NC342695  23.416  44.697   5.215
 3248POPC   PO442696  24.055  44.689   5.235
 3248POPC   GL142697  23.799  44.547   5.595
 3248POPC   GL242698  23.833  44.856   5.744
 3248POPC   C1A42699  23.822  44.428   6.072
 3248POPC   D2A42700  23.843  44.587   6.520
 3248POPC   C3A42701  23.825  44.373   6.921
 3248POPC   C4A42702  23.690  44.447   7.338
 3248POPC   C1B42703  23.960   0.126   6.087
 3248POPC   C2B42704  24.031   0.237   6.502
 3248POPC   C3B42705  23.818   0.073   6.862
 3248POPC   C4B42706  23.735  44.960   7.281
 3249POPC   NC342707  39.291  35.723   5.394
 3249POPC   PO442708  39.475  35.068   5.456
 3249POPC   GL142709  39.431  35.401   5.808
 3249POPC   GL242710  39.107  35.552   5.835
 3249POPC   C1A42711  39.454  35.535   6.279
 3249POPC   D2A42712  39.382  35.257   6.679
 3249POPC   C3A42713  39.271  35.242   7.153
 3249POPC   C4A42714  39.553  35.124   7.537
 3249POPC   C1B42715  39.025  35.279   6.198
 3249POPC   C2B42716  38.988  35.587   6.550
 3249POPC   C3B42717  38.767  35.704   6.935
 3249POPC   C4B42718  38.852  35.781   7.363
 3250POPC   NC342719  28.146  35.105   5.563
 3250POPC   PO442720  28.849  35.299   5.599
 3250POPC   GL142721  28.529  35.259   5.887
 3250POPC   GL242722  28.347  35.540   5.804
 3250POPC   C1A42723  28.433  35.231   6.323
 3250POPC   D2A42724  28.503  35.261   6.775
 3250POPC   C3A42725  28.198  35.139   7.062
 3250POPC   C4A42726  28.057  35.320   7.441
 3250POPC   C1B42727  28.580  35.736   6.111
 3250POPC   C2B42728  28.461  35.724   6.515
 3250POPC   C3B42729  28.393  35.790   6.932
 3250POPC   C4B42730  28.499  35.518   7.237
 3251POPC   NC342731  37.478  28.859   5.421
 3251POPC   PO442732  37.714  29.474   5.221
 3251POPC   GL142733  37.727  29.250   5.685
 3251POPC   GL242734  37.890  28.897   5.772
 3251POPC   C1A42735  37.535  29.094   6.110
 3251POPC   D2A42736  37.330  28.860   6.505
 3251POPC   C3A42737  37.472  28.837   6.970
 3251POPC   C4A42738  37.560  29.136   7.340
 3251POPC   C1B42739  38.003  28.943   6.238
 3251POPC   C2B42740  37.796  29.093   6.652
 3251POPC   C3B42741  37.976  28.953   7.074
 3251POPC   C4B42742  38.071  28.914   7.559
 3252POPC   NC342743  13.377  41.835   5.442
 3252POPC   PO442744  13.128  41.252   5.463
 3252POPC   GL142745  13.376  41.458   5.781
 3252POPC   GL242746  13.760  41.534   5.700
 3252POPC   C1A42747  13.513  41.597   6.162
 3252POPC   D2A42748  13.342  41.524   6.578
 3252POPC   C3A42749  13.425  41.780   6.922
 3252POPC   C4A42750  13.344  41.558   7.286
 3252POPC   C1B42751  14.005  41.480   6.103
 3252POPC   C2B42752  13.865  41.642   6.525
 3252POPC   C3B42753  13.880  41.534   6.948
 3252POPC   C4B42754  13.799  41.808   7.290
 3253POPC   NC342755  31.997  35.789   5.689
 3253POPC   PO442756  32.273  36.319   5.306
 3253POPC   GL142757  32.337  36.450   5.720
 3253POPC   GL242758  32.164  36.198   5.959
 3253POPC   C1A42759  32.477  36.559   6.126
 3253POPC   D2A42760  32.286  36.353   6.456
 3253POPC   C3A42761  32.488  36.157   6.773
 3253POPC   C4A42762  32.417  36.179   7.193
 3253POPC   C1B42763  32.100  35.884   6.317
 3253POPC   C2B42764  32.261  35.661   6.664
 3253POPC   C3B42765  32.116  35.723   7.072
 3253POPC   C4B42766  32.092  35.803   7.511
 3254POPC   NC342767  10.133  20.110   5.541
 3254POPC   PO442768   9.540  19.612   5.403
 3254POPC   GL142769   9.596  19.798   5.807
 3254POPC   GL242770   9.476  19.498   5.888
 3254POPC   C1A42771   9.692  20.021   6.231
 3254POPC   D2A42772   9.891  20.247   6.611
 3254POPC   C3A42773  10.005  20.032   7.018
 3254POPC   C4A42774  10.290  19.773   7.298
 3254POPC   C1B42775   9.686  19.500   6.285
 3254POPC   C2B42776   9.780  19.686   6.686
 3254POPC   C3B42777   9.856  19.549   7.117
 3254POPC   C4B42778   9.698  19.780   7.448
 3255POPC   NC342779   8.826  25.056   5.464
 3255POPC   PO442780   9.332  25.571   5.509
 3255POPC   GL142781   9.134  25.312   5.806
 3255POPC   GL242782   9.322  24.975   5.778
 3255POPC   C1A42783   8.870  25.495   6.159
 3255POPC   D2A42784   8.953  25.640   6.594
 3255POPC   C3A42785   8.772  25.344   6.898
 3255POPC   C4A42786   8.799  25.338   7.327
 3255POPC   C1B42787   9.377  25.028   6.243
 3255POPC   C2B42788   9.101  25.038   6.623
 3255POPC   C3B42789   9.046  24.936   7.072
 3255POPC   C4B42790   9.263  25.058   7.442
 3256POPC   NC342791  23.582  40.205   5.437
 3256POPC   PO442792  23.677  39.570   5.499
 3256POPC   GL142793  23.775  39.805   5.922
 3256POPC   GL242794  23.675  40.126   5.913
 3256POPC   C1A42795  23.642  39.975   6.380
 3256POPC   D2A42796  23.374  39.842   6.728
 3256POPC   C3A42797  23.624  39.804   7.121
 3256POPC   C4A42798  24.037  40.036   7.200
 3256POPC   C1B42799  23.286  40.252   6.078
 3256POPC   C2B42800  23.247  40.312   6.508
 3256POPC   C3B42801  23.549  40.330   6.830
 3256POPC   C4B42802  23.567  40.320   7.257
 3257POPC   NC342803  20.139  23.293   5.404
 3257POPC   PO442804  20.699  22.911   5.229
 3257POPC   GL142805  20.762  22.761   5.727
 3257POPC   GL242806  20.739  23.088   5.996
 3257POPC   C1A42807  20.664  22.647   6.189
 3257POPC   D2A42808  20.680  22.998   6.513
 3257POPC   C3A42809  20.697  22.864   6.916
 3257POPC   C4A42810  20.719  23.030   7.301
 3257POPC   C1B42811  20.285  23.028   6.203
 3257POPC   C2B42812  20.174  22.918   6.615
 3257POPC   C3B42813  20.348  23.216   6.882
 3257POPC   C4B42814  20.312  23.327   7.287
 3258POPC   NC342815  15.793  41.034   5.592
 3258POPC   PO442816  16.179  41.489   5.236
 3258POPC   GL142817  16.013  41.611   5.687
 3258POPC   GL242818  15.664  41.499   5.788
 3258POPC   C1A42819  16.068  41.750   6.155
 3258POPC   D2A42820  15.869  41.843   6.589
 3258POPC   C3A42821  16.081  41.679   6.974
 3258POPC   C4A42822  16.212  41.279   7.167
 3258POPC   C1B42823  15.549  41.645   6.215
 3258POPC   C2B42824  15.391  41.552   6.640
 3258POPC   C3B42825  15.572  41.698   7.030
 3258POPC   C4B42826  15.643  41.689   7.487
 3259POPC   NC342827  24.210  41.668   5.414
 3259POPC   PO442828  24.853  41.511   5.314
 3259POPC   GL142829  24.783  41.629   5.781
 3259POPC   GL242830  24.440  41.573   5.856
 3259POPC   C1A42831  24.723  41.797   6.218
 3259POPC   D2A42832  24.633  41.547   6.578
 3259POPC   C3A42833  24.616  41.688   7.006
 3259POPC   C4A42834  24.754  41.449   7.367
 3259POPC   C1B42835  24.264  41.396   6.223
 3259POPC   C2B42836  24.130  41.546   6.622
 3259POPC   C3B42837  24.031  41.354   6.984
 3259POPC   C4B42838  24.239  41.536   7.319
 3260POPC   NC342839   8.976  44.530   5.435
 3260POPC   PO442840   9.304   0.162   5.389
 3260POPC   GL142841   8.994  44.929   5.754
 3260POPC   GL242842   9.118  44.610   5.906
 3260POPC   C1A42843   8.763  44.850   6.181
 3260POPC   D2A42844   8.732  44.548   6.540
 3260POPC   C3A42845   8.817  44.713   6.972
 3260POPC   C4A42846   9.170  44.814   7.235
 3260POPC   C1B42847   9.167  44.375   6.286
 3260POPC   C2B42848   9.199  44.179   6.697
 3260POPC   C3B42849   9.097  44.294   7.131
 3260POPC   C4B42850   9.107  44.201   7.587
 3261POPC   NC342851  34.689  21.688   5.150
 3261POPC   PO442852  34.446  22.285   5.438
 3261POPC   GL142853  34.566  22.183   5.847
 3261POPC   GL242854  34.896  22.381   5.828
 3261POPC   C1A42855  34.389  21.998   6.262
 3261POPC   D2A42856  34.256  22.164   6.691
 3261POPC   C3A42857  34.402  22.011   7.107
 3261POPC   C4A42858  34.292  21.923   7.566
 3261POPC   C1B42859  34.917  22.253   6.271
 3261POPC   C2B42860  34.767  22.023   6.637
 3261POPC   C3B42861  34.873  21.842   7.035
 3261POPC   C4B42862  34.803  21.899   7.496
 3262POPC   NC342863  37.536  22.747   5.450
 3262POPC   PO442864  38.184  22.745   5.478
 3262POPC   GL142865  37.836  22.713   5.856
 3262POPC   GL242866  37.570  23.007   5.905
 3262POPC   C1A42867  37.506  22.590   6.193
 3262POPC   D2A42868  37.623  22.592   6.636
 3262POPC   C3A42869  37.529  22.873   7.013
 3262POPC   C4A42870  37.552  22.894   7.490
 3262POPC   C1B42871  37.848  22.961   6.317
 3262POPC   C2B42872  37.982  22.943   6.786
 3262POPC   C3B42873  37.988  22.902   7.254
 3262POPC   C4B42874  37.935  23.206   7.640
 3263POPC   NC342875  34.149  37.293   5.439
 3263POPC   PO442876  33.723  36.789   5.433
 3263POPC   GL142877  33.778  36.927   5.827
 3263POPC   GL242878  33.724  37.226   5.740
 3263POPC   C1A42879  33.867  36.732   6.241
 3263POPC   D2A42880  33.838  36.614   6.682
 3263POPC   C3A42881  33.588  36.875   6.929
 3263POPC   C4A42882  33.421  37.164   7.226
 3263POPC   C1B42883  33.715  37.289   6.198
 3263POPC   C2B42884  33.930  37.156   6.578
 3263POPC   C3B42885  33.986  37.192   7.011
 3263POPC   C4B42886  33.896  36.971   7.345
 3264POPC   NC342887   8.217  24.824   5.363
 3264POPC   PO442888   8.544  24.263   5.477
 3264POPC   GL142889   8.277  24.462   5.797
 3264POPC   GL242890   7.954  24.590   5.743
 3264POPC   C1A42891   8.213  24.379   6.234
 3264POPC   D2A42892   8.289  24.079   6.584
 3264POPC   C3A42893   8.384  24.252   6.966
 3264POPC   C4A42894   8.157  24.438   7.272
 3264POPC   C1B42895   8.030  24.860   6.111
 3264POPC   C2B42896   7.928  24.938   6.548
 3264POPC   C3B42897   7.918  24.834   7.011
 3264POPC   C4B42898   7.953  24.875   7.477
 3265POPC   NC342899  28.310  30.358   5.299
 3265POPC   PO442900  28.964  30.214   5.491
 3265POPC   GL142901  28.731  30.466   5.827
 3265POPC   GL242902  28.354  30.508   5.793
 3265POPC   C1A42903  28.576  30.620   6.256
 3265POPC   D2A42904  28.582  30.859   6.648
 3265POPC   C3A42905  28.703  30.688   7.029
 3265POPC   C4A42906  28.488  30.599   7.386
 3265POPC   C1B42907  28.065  30.547   6.179
 3265POPC   C2B42908  28.169  30.530   6.615
 3265POPC   C3B42909  28.195  30.795   7.027
 3265POPC   C4B42910  28.078  31.027   7.442
 3266POPC   NC342911   5.461   0.204   5.611
 3266POPC   PO442912   4.898   0.034   5.382
 3266POPC   GL142913   4.938   0.157   5.838
 3266POPC   GL242914   5.057   0.536   5.906
 3266POPC   C1A42915   5.140   0.207   6.256
 3266POPC   D2A42916   5.034   0.455   6.613
 3266POPC   C3A42917   5.185   0.220   6.980
 3266POPC   C4A42918   5.053   0.338   7.402
 3266POPC   C1B42919   5.393   0.663   6.246
 3266POPC   C2B42920   5.534   0.523   6.686
 3266POPC   C3B42921   5.319   0.697   7.070
 3266POPC   C4B42922   5.325   0.782   7.549
 3267POPC   NC342923  35.960  30.916   5.290
 3267POPC   PO442924  36.249  30.297   5.438
 3267POPC   GL142925  36.022  30.489   5.796
 3267POPC   GL242926  35.833  30.787   5.834
 3267POPC   C1A42927  36.186  30.566   6.207
 3267POPC   D2A42928  36.360  30.560   6.622
 3267POPC   C3A42929  36.363  30.936   6.852
 3267POPC   C4A42930  36.195  30.749   7.167
 3267POPC   C1B42931  35.707  30.668   6.298
 3267POPC   C2B42932  35.844  30.746   6.776
 3267POPC   C3B42933  35.683  30.720   7.236
 3267POPC   C4B42934  35.609  30.590   7.682
 3268POPC   NC342935  43.790   7.723   5.375
 3268POPC   PO442936  43.552   7.140   5.619
 3268POPC   GL142937  43.520   7.549   5.755
 3268POPC   GL242938  43.893   7.526   5.823
 3268POPC   C1A42939  43.515   7.630   6.151
 3268POPC   D2A42940  43.563   7.282   6.464
 3268POPC   C3A42941  43.653   7.387   6.890
 3268POPC   C4A42942  43.671   7.478   7.318
 3268POPC   C1B42943  44.025   7.505   6.253
 3268POPC   C2B42944  44.117   7.304   6.659
 3268POPC   C3B42945  44.143   7.380   7.116
 3268POPC   C4B42946  44.434   7.422   7.462
 3269POPC   NC342947   1.710  43.295   5.345
 3269POPC   PO442948   2.225  42.838   5.444
 3269POPC   GL142949   2.101  42.939   5.855
 3269POPC   GL242950   1.858  43.171   5.812
 3269POPC   C1A42951   2.269  43.324   6.087
 3269POPC   D2A42952   2.213  43.479   6.495
 3269POPC   C3A42953   2.050  43.243   6.853
 3269POPC   C4A42954   2.356  43.244   7.208
 3269POPC   C1B42955   1.825  43.166   6.261
 3269POPC   C2B42956   2.023  42.859   6.505
 3269POPC   C3B42957   1.944  42.700   6.901
 3269POPC   C4B42958   1.948  42.945   7.273
 3270POPC   NC342959   7.627  18.769   5.420
 3270POPC   PO442960   7.260  19.298   5.598
 3270POPC   GL142961   7.582  19.118   5.831
 3270POPC   GL242962   7.363  18.836   5.860
 3270POPC   C1A42963   7.821  19.118   6.246
 3270POPC   D2A42964   7.636  19.083   6.664
 3270POPC   C3A42965   7.656  19.001   7.106
 3270POPC   C4A42966   7.860  19.184   7.458
 3270POPC   C1B42967   7.311  19.006   6.265
 3270POPC   C2B42968   7.231  18.766   6.624
 3270POPC   C3B42969   7.180  18.627   7.021
 3270POPC   C4B42970   7.191  18.942   7.288
 3271POPC   NC342971  37.931   9.935   5.544
 3271POPC   PO442972  37.363   9.666   5.268
 3271POPC   GL142973  37.509   9.693   5.717
 3271POPC   GL242974  37.274   9.496   5.928
 3271POPC   C1A42975  37.702   9.687   6.150
 3271POPC   D2A42976  37.532   9.664   6.589
 3271POPC   C3A42977  37.763   9.653   6.978
 3271POPC   C4A42978  37.999   9.941   7.225
 3271POPC   C1B42979  37.242   9.318   6.340
 3271POPC   C2B42980  37.031   9.551   6.682
 3271POPC   C3B42981  37.232   9.830   7.006
 3271POPC   C4B42982  37.517  10.200   7.102
 3272POPC   NC342983  36.404   9.989   5.414
 3272POPC   PO442984  35.935  10.552   5.262
 3272POPC   GL142985  36.031  10.515   5.730
 3272POPC   GL242986  36.297  10.324   5.799
 3272POPC   C1A42987  36.040  10.557   6.193
 3272POPC   D2A42988  36.178  10.750   6.562
 3272POPC   C3A42989  36.015  10.657   6.936
 3272POPC   C4A42990  35.925  10.444   7.295
 3272POPC   C1B42991  36.325  10.147   6.218
 3272POPC   C2B42992  36.137  10.223   6.634
 3272POPC   C3B42993  36.265  10.099   7.044
 3272POPC   C4B42994  36.150  10.022   7.486
 3273POPC   NC342995  14.992  44.390   5.531
 3273POPC   PO442996  15.468  44.847   5.240
 3273POPC   GL142997  15.284  44.823   5.682
 3273POPC   GL242998  15.400  44.542   5.817
 3273POPC   C1A42999  15.013  44.764   6.076
 3273POPC   D2A43000  14.892  44.482   6.424
 3273POPC   C3A43001  15.020  44.663   6.822
 3273POPC   C4A43002  15.144  44.701   7.233
 3273POPC   C1B43003  15.620  44.409   6.158
 3273POPC   C2B43004  15.423  44.512   6.519
 3273POPC   C3B43005  15.528  44.535   6.936
 3273POPC   C4B43006  15.522  44.326   7.331
 3274POPC   NC343007  37.082   5.675   5.390
 3274POPC   PO443008  36.479   6.003   5.277
 3274POPC   GL143009  36.791   5.996   5.677
 3274POPC   GL243010  36.817   5.684   5.832
 3274POPC   C1A43011  36.950   6.114   6.102
 3274POPC   D2A43012  36.772   6.376   6.424
 3274POPC   C3A43013  36.827   6.287   6.867
 3274POPC   C4A43014  36.763   6.005   7.208
 3274POPC   C1B43015  36.685   5.649   6.270
 3274POPC   C2B43016  36.932   5.797   6.646
 3274POPC   C3B43017  36.987   5.580   7.030
 3274POPC   C4B43018  36.755   5.263   7.227
 3275POPC   NC343019  25.051  39.422   5.514
 3275POPC   PO443020  24.398  39.044   5.334
 3275POPC   GL143021  24.424  39.143   5.773
 3275POPC   GL243022  24.759  39.189   5.864
 3275POPC   C1A43023  24.257  39.286   6.173
 3275POPC   D2A43024  24.399  39.102   6.557
 3275POPC   C3A43025  24.541  39.246   6.948
 3275POPC   C4A43026  24.323  38.924   7.140
 3275POPC   C1B43027  24.801  39.340   6.295
 3275POPC   C2B43028  24.974  39.472   6.695
 3275POPC   C3B43029  24.847  39.646   7.102
 3275POPC   C4B43030  24.806  39.459   7.523
 3276POPC   NC343031  26.372  35.606   5.151
 3276POPC   PO443032  26.908  35.481   5.613
 3276POPC   GL143033  26.927  35.649   5.966
 3276POPC   GL243034  27.215  35.872   5.956
 3276POPC   C1A43035  26.774  35.531   6.387
 3276POPC   D2A43036  26.470  35.473   6.756
 3276POPC   C3A43037  26.582  35.465   7.205
 3276POPC   C4A43038  26.776  35.103   7.460
 3276POPC   C1B43039  27.282  35.555   6.301
 3276POPC   C2B43040  27.181  35.599   6.699
 3276POPC   C3B43041  27.369  35.460   7.022
 3276POPC   C4B43042  27.118  35.489   7.331
 3277POPC   NC343043  11.153  27.406   5.181
 3277POPC   PO443044  11.661  27.804   5.471
 3277POPC   GL143045  11.531  27.632   5.852
 3277POPC   GL243046  11.169  27.527   5.785
 3277POPC   C1A43047  11.371  27.609   6.249
 3277POPC   D2A43048  11.310  27.374   6.583
 3277POPC   C3A43049  11.525  27.454   6.913
 3277POPC   C4A43050  11.418  27.587   7.309
 3277POPC   C1B43051  10.915  27.776   6.129
 3277POPC   C2B43052  10.979  27.766   6.569
 3277POPC   C3B43053  10.995  27.564   6.960
 3277POPC   C4B43054  10.907  27.721   7.333
 3278POPC   NC343055  19.860  30.132   5.550
 3278POPC   PO443056  19.703  29.518   5.446
 3278POPC   GL143057  19.890  29.636   5.811
 3278POPC   GL243058  19.594  29.784   5.904
 3278POPC   C1A43059  20.029  29.919   6.163
 3278POPC   D2A43060  20.201  30.151   6.534
 3278POPC   C3A43061  19.986  30.011   6.884
 3278POPC   C4A43062  20.049  29.954   7.285
 3278POPC   C1B43063  19.567  29.841   6.366
 3278POPC   C2B43064  19.502  29.883   6.793
 3278POPC   C3B43065  19.555  29.917   7.209
 3278POPC   C4B43066  19.659  29.687   7.515
 3279POPC   NC343067  11.609  37.736   5.560
 3279POPC   PO443068  11.007  37.490   5.406
 3279POPC   GL143069  11.100  37.743   5.766
 3279POPC   GL243070  10.848  38.004   5.855
 3279POPC   C1A43071  11.252  37.578   6.161
 3279POPC   D2A43072  11.072  37.520   6.573
 3279POPC   C3A43073  11.331  37.555   6.913
 3279POPC   C4A43074  11.154  37.574   7.303
 3279POPC   C1B43075  10.889  37.918   6.283
 3279POPC   C2B43076  10.911  38.136   6.668
 3279POPC   C3B43077  10.909  37.992   7.071
 3279POPC   C4B43078  10.667  37.770   7.330
 3280POPC   NC343079  27.406   1.774   5.393
 3280POPC   PO443080  27.901   2.218   5.363
 3280POPC   GL143081  27.696   2.114   5.725
 3280POPC   GL243082  27.725   1.804   5.810
 3280POPC   C1A43083  27.602   2.190   6.170
 3280POPC   D2A43084  27.474   1.971   6.548
 3280POPC   C3A43085  27.601   2.179   6.973
 3280POPC   C4A43086  27.888   2.171   7.317
 3280POPC   C1B43087  27.365   1.710   6.075
 3280POPC   C2B43088  27.338   1.465   6.428
 3280POPC   C3B43089  27.593   1.527   6.782
 3280POPC   C4B43090  27.345   1.602   7.109
 3281POPC   NC343091  35.239   0.960   5.090
 3281POPC   PO443092  35.197   1.469   5.471
 3281POPC   GL143093  35.228   1.343   5.862
 3281POPC   GL243094  35.109   1.008   5.739
 3281POPC   C1A43095  35.378   1.364   6.266
 3281POPC   D2A43096  35.615   1.439   6.609
 3281POPC   C3A43097  35.408   1.268   6.962
 3281POPC   C4A43098  35.643   1.001   7.212
 3281POPC   C1B43099  35.234   0.899   6.154
 3281POPC   C2B43100  35.314   0.904   6.604
 3281POPC   C3B43101  35.116   0.795   7.001
 3281POPC   C4B43102  35.256   0.772   7.434
 3282POPC   NC343103  26.496  16.635   5.543
 3282POPC   PO443104  26.966  17.065   5.410
 3282POPC   GL143105  27.055  16.805   5.766
 3282POPC   GL243106  26.746  16.775   5.961
 3282POPC   C1A43107  27.151  16.866   6.220
 3282POPC   D2A43108  26.857  16.768   6.531
 3282POPC   C3A43109  26.962  16.800   6.929
 3282POPC   C4A43110  26.745  16.894   7.285
 3282POPC   C1B43111  26.629  16.415   6.250
 3282POPC   C2B43112  26.328  16.486   6.588
 3282POPC   C3B43113  26.440  16.604   6.991
 3282POPC   C4B43114  26.371  16.302   7.306
 3283POPC   NC343115   6.071  30.254   5.113
 3283POPC   PO443116   5.850  29.622   5.046
 3283POPC   GL143117   5.819  29.814   5.639
 3283POPC   GL243118   5.917  30.128   5.726
 3283POPC   C1A43119   5.894  29.779   6.148
 3283POPC   D2A43120   6.076  29.880   6.598
 3283POPC   C3A43121   5.901  29.791   7.022
 3283POPC   C4A43122   5.771  29.440   7.328
 3283POPC   C1B43123   5.554  30.175   6.040
 3283POPC   C2B43124   5.500  30.201   6.515
 3283POPC   C3B43125   5.468  30.257   6.971
 3283POPC   C4B43126   5.751  30.267   7.319
 3284POPC   NC343127   9.489  32.766   5.182
 3284POPC   PO443128   9.784  33.361   5.439
 3284POPC   GL143129   9.585  33.097   5.767
 3284POPC   GL243130   9.787  32.804   5.773
 3284POPC   C1A43131   9.586  32.956   6.225
 3284POPC   D2A43132   9.741  32.795   6.628
 3284POPC   C3A43133   9.515  32.980   6.984
 3284POPC   C4A43134   9.603  33.161   7.414
 3284POPC   C1B43135  10.105  32.860   6.143
 3284POPC   C2B43136  10.220  33.037   6.558
 3284POPC   C3B43137  10.042  33.024   6.979
 3284POPC   C4B43138  10.242  32.834   7.360
 3285POPC   NC343139  25.461  36.648   5.022
 3285POPC   PO443140  25.310  36.454   5.661
 3285POPC   GL143141  25.551  36.275   5.971
 3285POPC   GL243142  25.392  35.948   5.916
 3285POPC   C1A43143  25.554  36.299   6.437
 3285POPC   D2A43144  25.263  36.183   6.780
 3285POPC   C3A43145  25.446  36.214   7.187
 3285POPC   C4A43146  25.410  35.858   7.509
 3285POPC   C1B43147  25.130  36.066   6.273
 3285POPC   C2B43148  24.814  35.980   6.559
 3285POPC   C3B43149  24.758  36.176   6.928
 3285POPC   C4B43150  25.004  35.994   7.234
 3286POPC   NC343151  40.272  29.135   5.555
 3286POPC   PO443152  40.944  29.294   5.617
 3286POPC   GL143153  40.642  29.167   5.904
 3286POPC   GL243154  40.576  28.815   5.825
 3286POPC   C1A43155  40.831  28.999   6.253
 3286POPC   D2A43156  41.078  29.207   6.518
 3286POPC   C3A43157  40.875  29.305   6.861
 3286POPC   C4A43158  40.879  29.300   7.263
 3286POPC   C1B43159  40.350  28.819   6.232
 3286POPC   C2B43160  40.538  28.926   6.659
 3286POPC   C3B43161  40.702  28.853   7.060
 3286POPC   C4B43162  40.479  28.825   7.424
 3287POPC   NC343163  10.595  42.759   5.496
 3287POPC   PO443164  10.215  42.218   5.572
 3287POPC   GL143165  10.576  42.099   5.778
 3287POPC   GL243166  10.830  42.341   5.696
 3287POPC   C1A43167  10.661  42.244   6.176
 3287POPC   D2A43168  10.525  42.371   6.562
 3287POPC   C3A43169  10.626  42.159   6.912
 3287POPC   C4A43170  10.453  42.401   7.197
 3287POPC   C1B43171  10.953  42.657   6.050
 3287POPC   C2B43172  10.989  42.588   6.493
 3287POPC   C3B43173  10.819  42.660   6.922
 3287POPC   C4B43174  10.926  42.608   7.366
 3288POPC   NC343175   3.372  36.747   5.271
 3288POPC   PO443176   3.849  37.163   5.468
 3288POPC   GL143177   3.613  36.974   5.803
 3288POPC   GL243178   3.235  36.914   5.754
 3288POPC   C1A43179   3.781  36.820   6.194
 3288POPC   D2A43180   3.839  37.048   6.591
 3288POPC   C3A43181   3.776  36.862   7.015
 3288POPC   C4A43182   3.821  36.882   7.507
 3288POPC   C1B43183   2.955  37.060   6.140
 3288POPC   C2B43184   3.006  37.014   6.630
 3288POPC   C3B43185   3.255  36.903   7.033
 3288POPC   C4B43186   3.438  36.622   7.338
 3289POPC   NC343187  12.166  12.663   5.365
 3289POPC   PO443188  11.958  13.256   5.196
 3289POPC   GL143189  11.922  13.124   5.672
 3289POPC   GL243190  11.994  12.788   5.846
 3289POPC   C1A43191  12.105  13.189   6.137
 3289POPC   D2A43192  12.132  12.930   6.541
 3289POPC   C3A43193  12.185  13.137   6.959
 3289POPC   C4A43194  12.073  13.031   7.381
 3289POPC   C1B43195  11.793  12.544   6.197
 3289POPC   C2B43196  11.959  12.429   6.595
 3289POPC   C3B43197  12.007  12.636   6.984
 3289POPC   C4B43198  11.752  12.639   7.333
 3290POPC   NC343199   9.785   2.979   4.936
 3290POPC   PO443200   9.991   2.664   5.496
 3290POPC   GL143201   9.992   2.611   5.894
 3290POPC   GL243202   9.660   2.715   5.971
 3290POPC   C1A43203  10.005   2.831   6.299
 3290POPC   D2A43204  10.217   3.006   6.605
 3290POPC   C3A43205  10.040   2.780   6.921
 3290POPC   C4A43206   9.995   2.800   7.344
 3290POPC   C1B43207   9.720   2.341   6.227
 3290POPC   C2B43208   9.789   2.376   6.663
 3290POPC   C3B43209   9.690   2.472   7.084
 3290POPC   C4B43210   9.524   2.886   7.187
 3291POPC   NC343211   9.444  27.485   5.383
 3291POPC   PO443212  10.081  27.811   5.468
 3291POPC   GL143213   9.827  27.728   5.830
 3291POPC   GL243214   9.734  27.362   5.803
 3291POPC   C1A43215   9.894  27.793   6.273
 3291POPC   D2A43216  10.104  27.866   6.682
 3291POPC   C3A43217   9.862  27.823   7.099
 3291POPC   C4A43218   9.519  28.026   7.399
 3291POPC   C1B43219  10.072  27.324   6.126
 3291POPC   C2B43220  10.021  27.348   6.561
 3291POPC   C3B43221  10.128  27.137   6.925
 3291POPC   C4B43222  10.022  27.354   7.265
 3292POPC   NC343223  37.736  15.580   5.436
 3292POPC   PO443224  37.588  14.945   5.287
 3292POPC   GL143225  37.689  15.119   5.663
 3292POPC   GL243226  37.419  14.926   5.802
 3292POPC   C1A43227  37.673  15.361   6.075
 3292POPC   D2A43228  37.401  15.426   6.448
 3292POPC   C3A43229  37.632  15.345   6.844
 3292POPC   C4A43230  37.465  15.225   7.231
 3292POPC   C1B43231  37.776  14.872   6.080
 3292POPC   C2B43232  37.800  15.010   6.481
 3292POPC   C3B43233  37.661  14.798   6.837
 3292POPC   C4B43234  37.739  14.716   7.242
 3293POPC   NC343235  37.799   3.099   5.365
 3293POPC   PO443236  37.709   2.425   5.335
 3293POPC   GL143237  37.931   2.609   5.729
 3293POPC   GL243238  37.932   2.420   6.068
 3293POPC   C1A43239  37.830   2.907   6.093
 3293POPC   D2A43240  37.479   2.807   6.402
 3293POPC   C3A43241  37.589   2.802   6.852
 3293POPC   C4A43242  37.756   2.575   7.207
 3293POPC   C1B43243  37.465   2.384   6.097
 3293POPC   C2B43244  37.269   2.302   6.511
 3293POPC   C3B43245  37.120   2.577   6.811
 3293POPC   C4B43246  37.236   2.600   7.204
 3294POPC   NC343247  43.922  33.132   4.930
 3294POPC   PO443248  43.620  32.804   5.387
 3294POPC   GL143249  43.532  32.975   5.775
 3294POPC   GL243250  43.844  33.145   5.730
 3294POPC   C1A43251  43.625  32.890   6.207
 3294POPC   D2A43252  43.500  32.980   6.611
 3294POPC   C3A43253  43.706  32.880   6.995
 3294POPC   C4A43254  44.028  32.971   7.280
 3294POPC   C1B43255  44.056  33.127   6.118
 3294POPC   C2B43256  44.038  32.998   6.560
 3294POPC   C3B43257  44.033  33.292   6.889
 3294POPC   C4B43258  44.195  33.493   7.272
 3295POPC   NC343259   7.466  13.377   5.359
 3295POPC   PO443260   7.190  13.947   5.572
 3295POPC   GL143261   7.403  13.741   5.909
 3295POPC   GL243262   7.716  13.940   6.012
 3295POPC   C1A43263   7.347  13.362   6.176
 3295POPC   D2A43264   7.232  13.178   6.588
 3295POPC   C3A43265   7.253  13.422   6.967
 3295POPC   C4A43266   7.577  13.555   7.260
 3295POPC   C1B43267   7.813  13.581   6.236
 3295POPC   C2B43268   7.670  13.543   6.646
 3295POPC   C3B43269   7.744  13.890   6.919
 3295POPC   C4B43270   7.608  14.067   7.323
 3296POPC   NC343271  15.940   0.951   5.313
 3296POPC   PO443272  16.278   0.364   5.520
 3296POPC   GL143273  15.946   0.578   5.763
 3296POPC   GL243274  16.221   0.581   6.008
 3296POPC   C1A43275  15.771   0.757   6.185
 3296POPC   D2A43276  16.012   0.908   6.584
 3296POPC   C3A43277  15.955   0.765   7.019
 3296POPC   C4A43278  15.608   0.595   7.234
 3296POPC   C1B43279  16.090   0.394   6.410
 3296POPC   C2B43280  15.787   0.366   6.767
 3296POPC   C3B43281  15.895   0.190   7.192
 3296POPC   C4B43282  16.048   0.076   7.675
 3297POPC   NC343283   3.155  26.214   5.504
 3297POPC   PO443284   3.733  26.017   5.356
 3297POPC   GL143285   3.669  25.770   5.697
 3297POPC   GL243286   3.501  26.036   5.870
 3297POPC   C1A43287   3.846  25.733   6.097
 3297POPC   D2A43288   3.631  26.033   6.390
 3297POPC   C3A43289   3.501  25.983   6.815
 3297POPC   C4A43290   3.750  25.971   7.184
 3297POPC   C1B43291   3.303  26.347   6.156
 3297POPC   C2B43292   3.076  26.181   6.505
 3297POPC   C3B43293   3.059  26.299   6.912
 3297POPC   C4B43294   3.390  26.432   7.166
 3298POPC   NC343295  29.655   6.103   5.500
 3298POPC   PO443296  30.022   5.571   5.386
 3298POPC   GL143297  29.980   5.828   5.787
 3298POPC   GL243298  29.660   5.881   5.956
 3298POPC   C1A43299  30.064   6.121   6.159
 3298POPC   D2A43300  30.269   5.978   6.552
 3298POPC   C3A43301  30.068   5.977   6.956
 3298POPC   C4A43302  29.964   5.600   7.175
 3298POPC   C1B43303  29.878   5.642   6.284
 3298POPC   C2B43304  29.746   5.684   6.697
 3298POPC   C3B43305  29.578   6.085   6.892
 3298POPC   C4B43306  29.530   6.131   7.341
 3299POPC   NC343307   9.857  31.030   5.083
 3299POPC   PO443308   9.533  30.518   5.381
 3299POPC   GL143309   9.435  30.660   5.796
 3299POPC   GL243310   9.337  30.327   5.852
 3299POPC   C1A43311   9.566  30.850   6.244
 3299POPC   D2A43312   9.819  30.919   6.664
 3299POPC   C3A43313   9.586  30.954   7.096
 3299POPC   C4A43314   9.609  30.922   7.564
 3299POPC   C1B43315   9.638  30.355   6.167
 3299POPC   C2B43316   9.568  30.459   6.588
 3299POPC   C3B43317   9.600  30.444   6.995
 3299POPC   C4B43318   9.831  30.515   7.366
 3300POPC   NC343319  25.721  10.229   5.391
 3300POPC   PO443320  26.092  10.849   5.389
 3300POPC   GL143321  26.168  10.685   5.783
 3300POPC   GL243322  26.203  11.015   5.899
 3300POPC   C1A43323  25.899  10.611   6.112
 3300POPC   D2A43324  25.790  10.658   6.510
 3300POPC   C3A43325  25.957  10.385   6.804
 3300POPC   C4A43326  26.089  10.513   7.218
 3300POPC   C1B43327  26.288  10.945   6.335
 3300POPC   C2B43328  26.269  10.798   6.764
 3300POPC   C3B43329  26.479  10.832   7.159
 3300POPC   C4B43330  26.339  10.730   7.613
 3301POPC   NC343331  43.523   9.320   5.057
 3301POPC   PO443332  43.820   8.935   5.527
 3301POPC   GL143333  43.716   8.880   5.933
 3301POPC   GL243334  44.017   8.786   6.063
 3301POPC   C1A43335  43.537   8.963   6.323
 3301POPC   D2A43336  43.642   8.815   6.754
 3301POPC   C3A43337  44.008   8.925   6.986
 3301POPC   C4A43338  43.839   9.201   7.269
 3301POPC   C1B43339  44.019   9.020   6.457
 3301POPC   C2B43340  43.862   9.340   6.758
 3301POPC   C3B43341  44.115   9.566   7.066
 3301POPC   C4B43342  44.283   9.369   7.478
 3302POPC   NC343343  44.317   3.833   5.585
 3302POPC   PO443344  44.557   4.486   5.466
 3302POPC   GL143345  44.836   4.573   5.810
 3302POPC   GL243346  44.559   4.620   6.030
 3302POPC   C1A43347   0.003   4.517   6.234
 3302POPC   D2A43348  44.949   4.224   6.579
 3302POPC   C3A43349  44.963   4.358   6.981
 3302POPC   C4A43350  44.884   4.025   7.256
 3302POPC   C1B43351  44.537   4.247   6.297
 3302POPC   C2B43352  44.451   4.356   6.759
 3302POPC   C3B43353  44.546   4.494   7.230
 3302POPC   C4B43354  44.417   4.588   7.722
 3303POPC   NC343355  31.756  14.690   5.427
 3303POPC   PO443356  31.271  14.300   5.559
 3303POPC   GL143357  31.303  14.517   5.902
 3303POPC   GL243358  31.669  14.526   5.896
 3303POPC   C1A43359  31.130  14.454   6.298
 3303POPC   D2A43360  31.012  14.117   6.592
 3303POPC   C3A43361  31.206  14.148   6.994
 3303POPC   C4A43362  31.597  14.052   7.210
 3303POPC   C1B43363  31.675  14.290   6.257
 3303POPC   C2B43364  31.503  14.352   6.635
 3303POPC   C3B43365  31.579  14.535   7.015
 3303POPC   C4B43366  31.759  14.544   7.398
 3304POPC   NC343367   5.644  33.154   5.420
 3304POPC   PO443368   6.281  32.819   5.521
 3304POPC   GL143369   5.905  32.856   5.792
 3304POPC   GL243370   5.780  33.195   5.901
 3304POPC   C1A43371   5.722  32.747   6.192
 3304POPC   D2A43372   5.606  32.733   6.626
 3304POPC   C3A43373   5.808  32.860   6.992
 3304POPC   C4A43374   5.658  32.823   7.399
 3304POPC   C1B43375   6.100  33.124   6.212
 3304POPC   C2B43376   5.968  33.226   6.614
 3304POPC   C3B43377   5.721  33.383   6.939
 3304POPC   C4B43378   5.881  33.277   7.314
 3305POPC   NC343379  22.021  37.230   5.507
 3305POPC   PO443380  21.822  36.625   5.292
 3305POPC   GL143381  21.987  36.768   5.751
 3305POPC   GL243382  21.898  37.092   5.971
 3305POPC   C1A43383  22.322  36.832   6.101
 3305POPC   D2A43384  22.551  36.842   6.519
 3305POPC   C3A43385  22.430  36.927   6.962
 3305POPC   C4A43386  22.105  36.648   7.155
 3305POPC   C1B43387  22.002  37.344   6.307
 3305POPC   C2B43388  22.179  37.303   6.690
 3305POPC   C3B43389  22.056  37.236   7.088
 3305POPC   C4B43390  22.258  37.436   7.362
 3306POPC   NC343391  40.184  32.065   5.318
 3306POPC   PO443392  39.681  32.416   5.464
 3306POPC   GL143393  39.962  32.221   5.806
 3306POPC   GL243394  40.309  32.028   5.814
 3306POPC   C1A43395  39.819  32.269   6.228
 3306POPC   D2A43396  39.838  32.028   6.604
 3306POPC   C3A43397  39.819  32.298   6.951
 3306POPC   C4A43398  39.850  32.124   7.327
 3306POPC   C1B43399  40.313  32.142   6.238
 3306POPC   C2B43400  40.194  32.404   6.568
 3306POPC   C3B43401  40.314  32.282   6.961
 3306POPC   C4B43402  40.281  32.398   7.335
 3307POPC   NC343403  39.440  43.634   5.579
 3307POPC   PO443404  38.929  44.046   5.418
 3307POPC   GL143405  39.087  43.986   5.808
 3307POPC   GL243406  38.927  43.680   5.868
 3307POPC   C1A43407  39.095  43.962   6.273
 3307POPC   D2A43408  38.998  43.752   6.656
 3307POPC   C3A43409  39.053  44.021   7.001
 3307POPC   C4A43410  39.273  44.006   7.389
 3307POPC   C1B43411  39.108  43.442   6.242
 3307POPC   C2B43412  39.446  43.511   6.568
 3307POPC   C3B43413  39.413  43.625   7.028
 3307POPC   C4B43414  39.311  43.402   7.421
 3308POPC   NC343415  10.848   3.815   5.539
 3308POPC   PO443416  10.320   3.413   5.289
 3308POPC   GL143417  10.236   3.477   5.733
 3308POPC   GL243418  10.561   3.509   5.821
 3308POPC   C1A43419  10.198   3.326   6.170
 3308POPC   D2A43420  10.018   3.500   6.558
 3308POPC   C3A43421  10.195   3.835   6.801
 3308POPC   C4A43422  10.457   3.798   7.167
 3308POPC   C1B43423  10.520   3.739   6.195
 3308POPC   C2B43424  10.660   3.672   6.605
 3308POPC   C3B43425  10.926   3.513   6.930
 3308POPC   C4B43426  10.722   3.328   7.222
 3309POPC   NC343427  39.499  16.445   5.043
 3309POPC   PO443428  38.949  16.757   5.300
 3309POPC   GL143429  39.010  16.861   5.731
 3309POPC   GL243430  39.362  16.925   5.779
 3309POPC   C1A43431  38.942  16.867   6.170
 3309POPC   D2A43432  38.994  16.723   6.594
 3309POPC   C3A43433  39.079  16.979   6.964
 3309POPC   C4A43434  39.139  16.758   7.339
 3309POPC   C1B43435  39.463  16.884   6.231
 3309POPC   C2B43436  39.506  16.905   6.684
 3309POPC   C3B43437  39.546  16.611   7.023
 3309POPC   C4B43438  39.577  16.589   7.543
 3310POPC   NC343439  26.203  27.467   5.454
 3310POPC   PO443440  25.771  28.082   5.380
 3310POPC   GL143441  25.858  27.767   5.752
 3310POPC   GL243442  25.782  27.389   5.761
 3310POPC   C1A43443  26.038  27.604   6.159
 3310POPC   D2A43444  26.101  27.400   6.579
 3310POPC   C3A43445  25.972  27.645   6.947
 3310POPC   C4A43446  26.237  27.768   7.279
 3310POPC   C1B43447  25.615  27.304   6.189
 3310POPC   C2B43448  25.586  27.355   6.643
 3310POPC   C3B43449  25.628  27.285   7.074
 3310POPC   C4B43450  25.992  27.284   7.327
 3311POPC   NC343451  43.977  39.673   5.346
 3311POPC   PO443452  43.882  40.333   5.133
 3311POPC   GL143453  44.024  40.110   5.580
 3311POPC   GL243454  43.940  40.229   5.872
 3311POPC   C1A43455  44.137  39.806   6.021
 3311POPC   D2A43456  44.250  39.844   6.496
 3311POPC   C3A43457  44.147  39.672   6.942
 3311POPC   C4A43458  43.835  39.724   7.248
 3311POPC   C1B43459  43.856  40.176   6.319
 3311POPC   C2B43460  43.795  40.003   6.719
 3311POPC   C3B43461  43.649  40.183   7.107
 3311POPC   C4B43462  43.799  40.472   7.416
 3312POPC   NC343463  11.705  27.298   5.501
 3312POPC   PO443464  12.363  27.487   5.287
 3312POPC   GL143465  12.204  27.615   5.697
 3312POPC   GL243466  12.402  27.921   5.667
 3312POPC   C1A43467  12.048  27.725   6.111
 3312POPC   D2A43468  11.829  27.599   6.473
 3312POPC   C3A43469  12.006  27.600   6.865
 3312POPC   C4A43470  11.933  27.398   7.247
 3312POPC   C1B43471  12.517  27.943   6.097
 3312POPC   C2B43472  12.383  27.804   6.509
 3312POPC   C3B43473  12.368  27.951   6.929
 3312POPC   C4B43474  12.506  27.833   7.297
 3313POPC   NC343475  30.472  35.018   5.427
 3313POPC   PO443476  30.571  35.699   5.419
 3313POPC   GL143477  30.784  35.566   5.773
 3313POPC   GL243478  30.819  35.205   5.783
 3313POPC   C1A43479  30.714  35.563   6.209
 3313POPC   D2A43480  30.776  35.793   6.593
 3313POPC   C3A43481  30.657  35.529   6.901
 3313POPC   C4A43482  30.572  35.384   7.276
 3313POPC   C1B43483  30.737  35.046   6.192
 3313POPC   C2B43484  30.830  35.129   6.600
 3313POPC   C3B43485  30.881  35.067   7.025
 3313POPC   C4B43486  30.656  34.892   7.366
 3314POPC   NC343487  20.470  34.389   5.189
 3314POPC   PO443488  20.048  33.812   5.336
 3314POPC   GL143489  19.901  33.831   5.742
 3314POPC   GL243490  20.150  33.577   5.790
 3314POPC   C1A43491  19.678  33.941   6.146
 3314POPC   D2A43492  19.806  33.928   6.603
 3314POPC   C3A43493  19.671  34.022   7.045
 3314POPC   C4A43494  19.867  34.344   7.320
 3314POPC   C1B43495  19.896  33.472   6.121
 3314POPC   C2B43496  20.019  33.471   6.530
 3314POPC   C3B43497  20.137  33.504   6.933
 3314POPC   C4B43498  19.940  33.655   7.277
 3315POPC   NC343499  19.466  17.587   5.364
 3315POPC   PO443500  18.851  17.275   5.277
 3315POPC   GL143501  19.084  17.383   5.685
 3315POPC   GL243502  18.847  17.571   5.804
 3315POPC   C1A43503  19.339  17.600   6.084
 3315POPC   D2A43504  19.483  17.512   6.576
 3315POPC   C3A43505  19.345  17.732   6.947
 3315POPC   C4A43506  18.949  17.762   7.134
 3315POPC   C1B43507  18.863  17.404   6.221
 3315POPC   C2B43508  18.958  17.463   6.660
 3315POPC   C3B43509  19.001  17.197   7.012
 3315POPC   C4B43510  18.752  16.958   7.331
 3316POPC   NC343511  13.832   3.409   5.398
 3316POPC   PO443512  13.420   3.903   5.448
 3316POPC   GL143513  13.703   3.878   5.814
 3316POPC   GL243514  13.702   3.507   5.874
 3316POPC   C1A43515  13.695   3.816   6.273
 3316POPC   D2A43516  13.501   3.542   6.588
 3316POPC   C3A43517  13.414   3.729   6.984
 3316POPC   C4A43518  13.702   3.881   7.292
 3316POPC   C1B43519  13.801   3.231   6.219
 3316POPC   C2B43520  13.859   3.157   6.657
 3316POPC   C3B43521  13.780   3.360   7.048
 3316POPC   C4B43522  13.640   3.369   7.461
 3317POPC   NC343523  44.940  14.020   5.490
 3317POPC   PO443524  44.303  14.284   5.518
 3317POPC   GL143525  44.620  14.248   5.899
 3317POPC   GL243526  44.845  14.535   5.960
 3317POPC   C1A43527  44.569  14.358   6.380
 3317POPC   D2A43528  44.393  14.424   6.820
 3317POPC   C3A43529  44.570  14.167   7.133
 3317POPC   C4A43530  44.378  13.824   7.345
 3317POPC   C1B43531  44.969  14.849   6.281
 3317POPC   C2B43532  44.922  14.853   6.727
 3317POPC   C3B43533  44.842  14.594   7.064
 3317POPC   C4B43534  44.904  14.405   7.451
 3318POPC   NC343535  14.174  15.755   5.278
 3318POPC   PO443536  13.547  15.770   5.505
 3318POPC   GL143537  13.696  15.838   5.910
 3318POPC   GL243538  13.835  15.523   5.881
 3318POPC   C1A43539  13.534  15.771   6.339
 3318POPC   D2A43540  13.330  15.670   6.727
 3318POPC   C3A43541  13.407  15.822   7.154
 3318POPC   C4A43542  13.090  15.935   7.471
 3318POPC   C1B43543  14.029  15.618   6.269
 3318POPC   C2B43544  14.110  15.781   6.687
 3318POPC   C3B43545  13.904  15.722   7.095
 3318POPC   C4B43546  13.994  15.699   7.550
 3319POPC   NC343547  34.703  32.271   5.460
 3319POPC   PO443548  34.083  32.055   5.514
 3319POPC   GL143549  34.303  32.217   5.876
 3319POPC   GL243550  34.658  32.108   5.939
 3319POPC   C1A43551  34.363  32.230   6.334
 3319POPC   D2A43552  34.175  32.369   6.695
 3319POPC   C3A43553  34.504  32.467   7.009
 3319POPC   C4A43554  34.784  32.126   7.064
 3319POPC   C1B43555  34.828  32.435   6.253
 3319POPC   C2B43556  35.019  32.370   6.679
 3319POPC   C3B43557  35.032  32.564   7.129
 3319POPC   C4B43558  34.891  32.554   7.568
 3320POPC   NC343559  31.317  18.946   5.291
 3320POPC   PO443560  30.644  19.018   5.409
 3320POPC   GL143561  30.603  19.219   5.805
 3320POPC   GL243562  30.910  19.088   5.888
 3320POPC   C1A43563  30.656  19.312   6.242
 3320POPC   D2A43564  30.956  19.232   6.564
 3320POPC   C3A43565  30.770  19.160   6.985
 3320POPC   C4A43566  30.747  19.315   7.463
 3320POPC   C1B43567  30.892  18.828   6.234
 3320POPC   C2B43568  30.674  18.776   6.611
 3320POPC   C3B43569  30.803  18.593   6.982
 3320POPC   C4B43570  30.711  18.805   7.344
 3321POPC   NC343571  39.763  40.974   5.093
 3321POPC   PO443572  40.349  40.758   5.386
 3321POPC   GL143573  40.127  41.037   5.706
 3321POPC   GL243574  39.745  41.033   5.685
 3321POPC   C1A43575  40.233  41.048   6.163
 3321POPC   D2A43576  40.181  40.817   6.558
 3321POPC   C3A43577  40.443  40.783   6.926
 3321POPC   C4A43578  40.323  40.615   7.317
 3321POPC   C1B43579  39.774  40.830   6.118
 3321POPC   C2B43580  39.659  40.712   6.561
 3321POPC   C3B43581  39.848  40.829   6.970
 3321POPC   C4B43582  39.826  40.700   7.395
 3322POPC   NC343583  44.887   7.302   5.629
 3322POPC   PO443584  44.227   7.475   5.391
 3322POPC   GL143585  44.402   7.439   5.843
 3322POPC   GL243586  44.698   7.645   5.966
 3322POPC   C1A43587  44.511   7.292   6.283
 3322POPC   D2A43588  44.806   7.145   6.616
 3322POPC   C3A43589  44.670   7.235   7.037
 3322POPC   C4A43590  44.958   7.387   7.341
 3322POPC   C1B43591  44.958   7.612   6.349
 3322POPC   C2B43592  44.919   7.633   6.803
 3322POPC   C3B43593  44.684   7.779   7.156
 3322POPC   C4B43594  44.460   7.929   7.506
 3323POPC   NC343595  31.861   5.247   5.579
 3323POPC   PO443596  32.253   4.734   5.434
 3323POPC   GL143597  32.357   4.915   5.811
 3323POPC   GL243598  32.324   5.271   5.870
 3323POPC   C1A43599  32.517   4.954   6.206
 3323POPC   D2A43600  32.310   4.935   6.575
 3323POPC   C3A43601  32.459   4.774   6.954
 3323POPC   C4A43602  32.395   4.992   7.331
 3323POPC   C1B43603  32.021   5.141   6.203
 3323POPC   C2B43604  31.926   5.285   6.608
 3323POPC   C3B43605  31.992   5.030   6.960
 3323POPC   C4B43606  31.902   5.104   7.357
 3324POPC   NC343607  23.921  35.019   5.297
 3324POPC   PO443608  23.585  35.545   5.178
 3324POPC   GL143609  23.441  35.485   5.663
 3324POPC   GL243610  23.755  35.319   5.720
 3324POPC   C1A43611  23.368  35.248   6.093
 3324POPC   D2A43612  23.604  35.228   6.509
 3324POPC   C3A43613  23.392  35.257   6.873
 3324POPC   C4A43614  23.355  35.312   7.265
 3324POPC   C1B43615  23.802  35.517   6.122
 3324POPC   C2B43616  24.024  35.528   6.496
 3324POPC   C3B43617  23.814  35.566   6.882
 3324POPC   C4B43618  23.743  35.718   7.287
 3325POPC   NC343619  36.895  33.483   5.642
 3325POPC   PO443620  36.873  32.852   5.314
 3325POPC   GL143621  37.019  32.997   5.734
 3325POPC   GL243622  36.715  33.060   5.936
 3325POPC   C1A43623  37.165  33.123   6.147
 3325POPC   D2A43624  37.053  33.057   6.553
 3325POPC   C3A43625  37.331  32.895   6.859
 3325POPC   C4A43626  37.312  33.187   7.200
 3325POPC   C1B43627  36.722  33.402   6.269
 3325POPC   C2B43628  36.831  33.498   6.684
 3325POPC   C3B43629  36.835  33.197   7.011
 3325POPC   C4B43630  36.813  33.391   7.375
 3326POPC   NC343631  25.198  37.507   5.454
 3326POPC   PO443632  25.484  38.068   5.372
 3326POPC   GL143633  25.394  38.011   5.821
 3326POPC   GL243634  25.391  37.658   5.888
 3326POPC   C1A43635  25.547  37.938   6.263
 3326POPC   D2A43636  25.656  37.635   6.582
 3326POPC   C3A43637  25.306  37.753   6.864
 3326POPC   C4A43638  25.332  37.800   7.307
 3326POPC   C1B43639  25.045  37.584   6.190
 3326POPC   C2B43640  24.932  37.483   6.601
 3326POPC   C3B43641  24.997  37.312   7.019
 3326POPC   C4B43642  24.873  37.576   7.319
 3327POPC   NC343643  13.811  11.224   5.383
 3327POPC   PO443644  13.228  11.277   5.117
 3327POPC   GL143645  13.392  11.323   5.637
 3327POPC   GL243646  13.474  11.069   5.873
 3327POPC   C1A43647  13.432  11.513   6.104
 3327POPC   D2A43648  13.715  11.612   6.481
 3327POPC   C3A43649  13.659  11.632   6.942
 3327POPC   C4A43650  13.573  11.379   7.324
 3327POPC   C1B43651  13.661  11.112   6.341
 3327POPC   C2B43652  13.613  11.066   6.821
 3327POPC   C3B43653  13.296  10.966   7.199
 3327POPC   C4B43654  13.148  11.191   7.603
 3328POPC   NC343655   2.898  16.235   5.385
 3328POPC   PO443656   2.559  15.623   5.395
 3328POPC   GL143657   2.567  15.884   5.783
 3328POPC   GL243658   2.928  15.891   5.812
 3328POPC   C1A43659   2.613  15.848   6.270
 3328POPC   D2A43660   2.418  15.745   6.696
 3328POPC   C3A43661   2.591  15.975   7.057
 3328POPC   C4A43662   2.719  16.106   7.475
 3328POPC   C1B43663   3.116  15.974   6.224
 3328POPC   C2B43664   3.020  15.896   6.660
 3328POPC   C3B43665   3.091  16.049   7.085
 3328POPC   C4B43666   3.153  15.840   7.474
 3329POPC   NC343667  36.226  15.147   5.274
 3329POPC   PO443668  35.684  15.515   5.470
 3329POPC   GL143669  35.971  15.225   5.760
 3329POPC   GL243670  36.333  15.193   5.773
 3329POPC   C1A43671  36.007  14.946   6.152
 3329POPC   D2A43672  36.154  15.034   6.600
 3329POPC   C3A43673  36.172  14.762   6.983
 3329POPC   C4A43674  35.881  14.730   7.342
 3329POPC   C1B43675  36.323  15.366   6.204
 3329POPC   C2B43676  36.592  15.272   6.565
 3329POPC   C3B43677  36.495  15.316   7.005
 3329POPC   C4B43678  36.173  15.530   7.255
 3330POPC   NC343679  25.972  23.359   5.394
 3330POPC   PO443680  26.555  23.104   5.480
 3330POPC   GL143681  26.266  23.236   5.836
 3330POPC   GL243682  25.884  23.145   5.841
 3330POPC   C1A43683  26.150  23.186   6.274
 3330POPC   D2A43684  26.003  22.848   6.546
 3330POPC   C3A43685  26.131  22.888   6.967
 3330POPC   C4A43686  26.100  23.223   7.231
 3330POPC   C1B43687  25.627  22.977   6.180
 3330POPC   C2B43688  25.538  23.062   6.608
 3330POPC   C3B43689  25.595  22.886   7.029
 3330POPC   C4B43690  25.681  22.981   7.477
 3331POPC   NC343691  15.071  14.654   5.334
 3331POPC   PO443692  15.060  13.996   5.434
 3331POPC   GL143693  14.970  14.340   5.737
 3331POPC   GL243694  15.312  14.509   5.770
 3331POPC   C1A43695  14.879  14.549   6.146
 3331POPC   D2A43696  14.971  14.737   6.569
 3331POPC   C3A43697  14.889  14.451   6.927
 3331POPC   C4A43698  15.096  14.113   7.147
 3331POPC   C1B43699  15.368  14.249   6.125
 3331POPC   C2B43700  15.203  14.254   6.548
 3331POPC   C3B43701  15.404  14.497   6.869
 3331POPC   C4B43702  15.305  14.611   7.263
 3332POPC   NC343703  27.581  39.926   5.283
 3332POPC   PO443704  27.314  40.479   5.489
 3332POPC   GL143705  27.387  40.126   5.769
 3332POPC   GL243706  27.668  39.873   5.793
 3332POPC   C1A43707  27.523  40.138   6.206
 3332POPC   D2A43708  27.317  40.098   6.574
 3332POPC   C3A43709  27.489  40.117   6.974
 3332POPC   C4A43710  27.524  39.868   7.349
 3332POPC   C1B43711  27.742  39.666   6.205
 3332POPC   C2B43712  27.706  39.777   6.613
 3332POPC   C3B43713  27.539  39.565   6.953
 3332POPC   C4B43714  27.887  39.520   7.213
 3333POPC   NC343715  41.690  25.420   5.493
 3333POPC   PO443716  42.118  24.990   5.734
 3333POPC   GL143717  41.747  25.144   5.935
 3333POPC   GL243718  41.410  25.339   5.902
 3333POPC   C1A43719  41.776  25.453   6.237
 3333POPC   D2A43720  41.983  25.420   6.610
 3333POPC   C3A43721  41.836  25.483   7.025
 3333POPC   C4A43722  41.620  25.392   7.423
 3333POPC   C1B43723  41.394  25.120   6.313
 3333POPC   C2B43724  41.506  25.163   6.749
 3333POPC   C3B43725  41.440  24.998   7.170
 3333POPC   C4B43726  41.165  25.185   7.548
 3334POPC   NC343727  28.628   7.417   5.384
 3334POPC   PO443728  29.236   7.111   5.374
 3334POPC   GL143729  29.350   7.275   5.781
 3334POPC   GL243730  29.007   7.415   5.752
 3334POPC   C1A43731  29.514   7.305   6.233
 3334POPC   D2A43732  29.731   7.657   6.455
 3334POPC   C3A43733  29.665   7.684   6.911
 3334POPC   C4A43734  29.512   7.823   7.325
 3334POPC   C1B43735  29.136   7.635   6.102
 3334POPC   C2B43736  29.223   7.620   6.539
 3334POPC   C3B43737  29.051   7.473   6.921
 3334POPC   C4B43738  29.056   7.585   7.316
 3335POPC   NC343739  23.490  13.331   5.573
 3335POPC   PO443740  23.982  13.738   5.346
 3335POPC   GL143741  23.710  13.801   5.756
 3335POPC   GL243742  23.724  13.519   5.999
 3335POPC   C1A43743  23.485  13.905   6.192
 3335POPC   D2A43744  23.637  13.716   6.602
 3335POPC   C3A43745  23.612  13.979   6.986
 3335POPC   C4A43746  23.597  14.205   7.378
 3335POPC   C1B43747  23.817  13.208   6.310
 3335POPC   C2B43748  24.046  13.191   6.650
 3335POPC   C3B43749  24.031  13.521   6.905
 3335POPC   C4B43750  23.670  13.506   7.119
 3336POPC   NC343751  35.484   7.220   5.339
 3336POPC   PO443752  34.910   7.235   5.557
 3336POPC   GL143753  35.318   7.109   5.811
 3336POPC   GL243754  35.564   7.409   5.828
 3336POPC   C1A43755  35.492   7.101   6.233
 3336POPC   D2A43756  35.346   7.303   6.606
 3336POPC   C3A43757  35.507   7.211   7.012
 3336POPC   C4A43758  35.147   7.257   7.280
 3336POPC   C1B43759  35.762   7.810   6.042
 3336POPC   C2B43760  35.726   7.950   6.497
 3336POPC   C3B43761  35.572   7.785   6.908
 3336POPC   C4B43762  35.794   7.807   7.299
 3337POPC   NC343763   5.916  41.854   5.458
 3337POPC   PO443764   6.079  41.145   5.341
 3337POPC   GL143765   5.976  41.276   5.761
 3337POPC   GL243766   6.160  41.555   5.813
 3337POPC   C1A43767   5.739  41.421   6.144
 3337POPC   D2A43768   5.828  41.308   6.608
 3337POPC   C3A43769   5.819  41.631   6.958
 3337POPC   C4A43770   5.475  41.791   7.195
 3337POPC   C1B43771   6.229  41.385   6.246
 3337POPC   C2B43772   6.334  41.415   6.706
 3337POPC   C3B43773   6.307  41.635   7.123
 3337POPC   C4B43774   6.046  41.597   7.511
 3338POPC   NC343775  11.004   2.959   5.355
 3338POPC   PO443776  11.571   2.568   5.354
 3338POPC   GL143777  11.306   2.715   5.700
 3338POPC   GL243778  11.340   3.066   5.734
 3338POPC   C1A43779  11.111   2.760   6.110
 3338POPC   D2A43780  11.165   2.934   6.510
 3338POPC   C3A43781  11.058   2.785   6.906
 3338POPC   C4A43782  11.205   2.596   7.266
 3338POPC   C1B43783  11.445   3.173   6.127
 3338POPC   C2B43784  11.608   3.172   6.540
 3338POPC   C3B43785  11.390   3.233   6.929
 3338POPC   C4B43786  11.584   3.116   7.317
 3339POPC   NC343787  42.504  29.562   5.395
 3339POPC   PO443788  42.133  30.129   5.351
 3339POPC   GL143789  42.256  29.868   5.726
 3339POPC   GL243790  42.583  29.687   5.856
 3339POPC   C1A43791  42.140  29.659   6.105
 3339POPC   D2A43792  42.171  29.736   6.566
 3339POPC   C3A43793  41.989  29.626   7.000
 3339POPC   C4A43794  41.957  29.828   7.435
 3339POPC   C1B43795  42.597  29.859   6.220
 3339POPC   C2B43796  42.692  29.732   6.596
 3339POPC   C3B43797  42.509  29.831   6.947
 3339POPC   C4B43798  42.691  29.876   7.302
 3340POPC   NC343799  19.679  32.374   5.223
 3340POPC   PO443800  20.284  32.077   5.249
 3340POPC   GL143801  19.960  32.123   5.622
 3340POPC   GL243802  19.757  32.447   5.720
 3340POPC   C1A43803  19.947  32.129   6.108
 3340POPC   D2A43804  20.190  32.112   6.509
 3340POPC   C3A43805  20.027  32.203   6.938
 3340POPC   C4A43806  19.865  32.072   7.352
 3340POPC   C1B43807  19.584  32.491   6.137
 3340POPC   C2B43808  19.580  32.187   6.503
 3340POPC   C3B43809  19.504  32.128   6.947
 3340POPC   C4B43810  19.428  32.448   7.248
 3341POPC   NC343811  17.345   5.657   5.482
 3341POPC   PO443812  17.607   6.280   5.453
 3341POPC   GL143813  17.555   5.992   5.790
 3341POPC   GL243814  17.207   5.982   5.852
 3341POPC   C1A43815  17.556   5.685   6.148
 3341POPC   D2A43816  17.658   5.857   6.552
 3341POPC   C3A43817  17.627   5.660   6.960
 3341POPC   C4A43818  17.629   5.823   7.348
 3341POPC   C1B43819  17.132   5.920   6.288
 3341POPC   C2B43820  17.177   5.798   6.728
 3341POPC   C3B43821  17.158   5.780   7.174
 3341POPC   C4B43822  17.085   5.752   7.607
 3342POPC   NC343823  43.608   3.802   5.210
 3342POPC   PO443824  44.130   3.466   5.349
 3342POPC   GL143825  43.785   3.507   5.692
 3342POPC   GL243826  43.903   3.769   5.892
 3342POPC   C1A43827  43.747   3.396   6.183
 3342POPC   D2A43828  43.830   3.419   6.651
 3342POPC   C3A43829  43.710   3.358   7.106
 3342POPC   C4A43830  44.065   3.442   7.334
 3342POPC   C1B43831  43.971   4.005   6.235
 3342POPC   C2B43832  44.077   3.988   6.630
 3342POPC   C3B43833  43.893   3.824   6.990
 3342POPC   C4B43834  43.890   3.945   7.403
 3343POPC   NC343835  13.118  10.956   5.441
 3343POPC   PO443836  12.645  10.428   5.407
 3343POPC   GL143837  12.799  10.653   5.733
 3343POPC   GL243838  12.541  10.768   5.920
 3343POPC   C1A43839  12.957  10.559   6.135
 3343POPC   D2A43840  12.948  10.191   6.408
 3343POPC   C3A43841  12.867  10.296   6.842
 3343POPC   C4A43842  13.093  10.112   7.184
 3343POPC   C1B43843  12.577  10.868   6.313
 3343POPC   C2B43844  12.826  10.815   6.650
 3343POPC   C3B43845  12.673  10.769   7.053
 3343POPC   C4B43846  12.821  10.838   7.450
 3344POPC   NC343847  41.778  18.415   5.425
 3344POPC   PO443848  41.151  18.142   5.531
 3344POPC   GL143849  41.482  18.227   5.827
 3344POPC   GL243850  41.617  18.545   5.881
 3344POPC   C1A43851  41.621  18.061   6.230
 3344POPC   D2A43852  41.477  17.798   6.587
 3344POPC   C3A43853  41.540  17.999   6.987
 3344POPC   C4A43854  41.757  18.197   7.345
 3344POPC   C1B43855  41.372  18.533   6.253
 3344POPC   C2B43856  41.480  18.429   6.673
 3344POPC   C3B43857  41.358  18.471   7.103
 3344POPC   C4B43858  41.145  18.785   7.352
 3345POPC   NC343859  12.437  36.430   5.297
 3345POPC   PO443860  12.858  35.889   5.376
 3345POPC   GL143861  12.669  36.066   5.744
 3345POPC   GL243862  12.887  36.383   5.789
 3345POPC   C1A43863  12.600  36.221   6.186
 3345POPC   D2A43864  12.805  36.352   6.566
 3345POPC   C3A43865  12.626  36.240   6.946
 3345POPC   C4A43866  12.521  36.399   7.338
 3345POPC   C1B43867  13.137  36.234   6.165
 3345POPC   C2B43868  13.401  36.138   6.528
 3345POPC   C3B43869  13.149  35.986   6.867
 3345POPC   C4B43870  12.982  36.074   7.262
 3346POPC   NC343871  13.921  36.762   5.740
 3346POPC   PO443872  13.493  37.170   5.484
 3346POPC   GL143873  13.490  36.957   5.887
 3346POPC   GL243874  13.479  36.587   5.974
 3346POPC   C1A43875  13.677  37.028   6.303
 3346POPC   D2A43876  13.718  37.261   6.741
 3346POPC   C3A43877  13.657  36.954   7.098
 3346POPC   C4A43878  13.917  36.571   7.179
 3346POPC   C1B43879  13.798  36.476   6.314
 3346POPC   C2B43880  13.672  36.600   6.708
 3346POPC   C3B43881  13.224  36.557   6.781
 3346POPC   C4B43882  13.017  36.558   7.163
 3347POPC   NC343883  41.032  22.545   5.409
 3347POPC   PO443884  41.510  21.995   5.209
 3347POPC   GL143885  41.467  22.019   5.676
 3347POPC   GL243886  41.282  22.307   5.803
 3347POPC   C1A43887  41.659  22.051   6.121
 3347POPC   D2A43888  41.926  22.056   6.516
 3347POPC   C3A43889  41.732  21.912   6.905
 3347POPC   C4A43890  41.526  22.070   7.250
 3347POPC   C1B43891  41.436  22.537   6.169
 3347POPC   C2B43892  41.640  22.602   6.545
 3347POPC   C3B43893  41.642  22.434   6.927
 3347POPC   C4B43894  41.527  22.599   7.338
 3348POPC   NC343895   5.947  18.454   5.498
 3348POPC   PO443896   6.551  18.329   5.613
 3348POPC   GL143897   6.255  18.322   5.899
 3348POPC   GL243898   6.084  18.008   5.890
 3348POPC   C1A43899   6.097  18.397   6.287
 3348POPC   D2A43900   5.738  18.428   6.531
 3348POPC   C3A43901   5.766  18.349   6.952
 3348POPC   C4A43902   5.382  18.438   7.094
 3348POPC   C1B43903   5.731  18.022   6.205
 3348POPC   C2B43904   5.635  17.899   6.623
 3348POPC   C3B43905   5.965  17.861   6.902
 3348POPC   C4B43906   5.961  17.814   7.314
 3349POPC   NC343907  10.315  40.617   4.962
 3349POPC   PO443908  10.834  40.726   5.347
 3349POPC   GL143909  10.740  40.794   5.781
 3349POPC   GL243910  10.386  40.887   5.831
 3349POPC   C1A43911  10.721  40.740   6.229
 3349POPC   D2A43912  10.888  40.716   6.629
 3349POPC   C3A43913  10.618  40.589   6.918
 3349POPC   C4A43914  10.592  40.708   7.305
 3349POPC   C1B43915  10.316  41.112   6.225
 3349POPC   C2B43916  10.413  40.952   6.624
 3349POPC   C3B43917  10.292  41.039   7.063
 3349POPC   C4B43918  10.049  41.211   7.424
 3350POPC   NC343919  29.736  42.412   5.276
 3350POPC   PO443920  30.195  41.977   5.367
 3350POPC   GL143921  29.935  42.258   5.725
 3350POPC   GL243922  29.696  42.597   5.748
 3350POPC   C1A43923  29.924  42.426   6.175
 3350POPC   D2A43924  30.050  42.285   6.599
 3350POPC   C3A43925  29.770  42.017   6.868
 3350POPC   C4A43926  29.897  41.850   7.264
 3350POPC   C1B43927  29.529  42.803   6.125
 3350POPC   C2B43928  29.718  42.780   6.539
 3350POPC   C3B43929  29.735  42.542   6.900
 3350POPC   C4B43930  29.917  42.355   7.257
 3351POPC   NC343931  32.861  17.919   5.401
 3351POPC   PO443932  33.261  18.488   5.381
 3351POPC   GL143933  33.134  18.198   5.725
 3351POPC   GL243934  32.789  18.205   5.854
 3351POPC   C1A43935  33.188  18.103   6.141
 3351POPC   D2A43936  32.907  18.265   6.461
 3351POPC   C3A43937  33.127  18.222   6.847
 3351POPC   C4A43938  32.970  18.013   7.185
 3351POPC   C1B43939  33.016  18.586   6.064
 3351POPC   C2B43940  33.068  18.740   6.517
 3351POPC   C3B43941  32.815  18.643   6.858
 3351POPC   C4B43942  32.999  18.565   7.263
 3352POPC   NC343943   3.885  43.101   5.117
 3352POPC   PO443944   4.421  43.210   5.337
 3352POPC   GL143945   4.452  43.078   5.769
 3352POPC   GL243946   4.089  43.099   5.789
 3352POPC   C1A43947   4.470  43.261   6.196
 3352POPC   D2A43948   4.356  43.413   6.644
 3352POPC   C3A43949   4.344  43.128   7.032
 3352POPC   C4A43950   4.507  43.083   7.473
 3352POPC   C1B43951   4.078  42.931   6.210
 3352POPC   C2B43952   3.846  43.122   6.539
 3352POPC   C3B43953   3.838  43.218   6.968
 3352POPC   C4B43954   3.862  42.919   7.292
 3353POPC   NC343955  26.536  10.065   5.405
 3353POPC   PO443956  26.792   9.437   5.495
 3353POPC   GL143957  26.903   9.850   5.718
 3353POPC   GL243958  26.664  10.091   5.899
 3353POPC   C1A43959  27.136   9.966   6.086
 3353POPC   D2A43960  27.154   9.837   6.529
 3353POPC   C3A43961  26.856   9.983   6.823
 3353POPC   C4A43962  26.776   9.727   7.177
 3353POPC   C1B43963  26.635   9.724   6.176
 3353POPC   C2B43964  26.504   9.619   6.609
 3353POPC   C3B43965  26.328   9.829   6.973
 3353POPC   C4B43966  26.347   9.940   7.422
 3354POPC   NC343967  35.619  32.557   5.180
 3354POPC   PO443968  35.214  33.021   5.495
 3354POPC   GL143969  35.334  33.097   5.906
 3354POPC   GL243970  35.657  33.183   5.817
 3354POPC   C1A43971  35.418  32.945   6.330
 3354POPC   D2A43972  35.283  32.798   6.721
 3354POPC   C3A43973  35.462  32.935   7.097
 3354POPC   C4A43974  35.200  32.968   7.450
 3354POPC   C1B43975  35.730  33.336   6.254
 3354POPC   C2B43976  35.893  33.339   6.658
 3354POPC   C3B43977  35.778  33.381   7.096
 3354POPC   C4B43978  35.653  33.328   7.528
 3355POPC   NC343979  11.869  11.978   5.370
 3355POPC   PO443980  12.577  11.992   5.352
 3355POPC   GL143981  12.259  12.187   5.671
 3355POPC   GL243982  11.980  12.020   5.859
 3355POPC   C1A43983  12.280  12.336   6.133
 3355POPC   D2A43984  12.498  12.279   6.555
 3355POPC   C3A43985  12.271  12.151   6.928
 3355POPC   C4A43986  12.097  12.266   7.337
 3355POPC   C1B43987  11.967  11.939   6.310
 3355POPC   C2B43988  11.819  11.953   6.734
 3355POPC   C3B43989  11.671  12.217   7.063
 3355POPC   C4B43990  11.579  12.188   7.537
 3356POPC   NC343991  40.460  11.566   5.771
 3356POPC   PO443992  40.292  11.038   5.460
 3356POPC   GL143993  40.491  11.045   5.896
 3356POPC   GL243994  40.848  11.063   5.882
 3356POPC   C1A43995  40.419  11.267   6.337
 3356POPC   D2A43996  40.663  11.497   6.665
 3356POPC   C3A43997  40.652  11.516   7.127
 3356POPC   C4A43998  40.617  11.273   7.531
 3356POPC   C1B43999  40.914  11.208   6.310
 3356POPC   C2B44000  40.980  11.096   6.739
 3356POPC   C3B44001  40.860  11.051   7.137
 3356POPC   C4B44002  41.060  10.919   7.483
 3357POPC   NC344003  38.265  12.287   5.294
 3357POPC   PO444004  38.741  11.837   5.489
 3357POPC   GL144005  38.591  11.963   5.854
 3357POPC   GL244006  38.682  12.273   5.921
 3357POPC   C1A44007  38.708  11.889   6.271
 3357POPC   D2A44008  38.589  11.647   6.630
 3357POPC   C3A44009  38.667  11.800   7.019
 3357POPC   C4A44010  38.354  11.840   7.298
 3357POPC   C1B44011  38.341  12.271   6.241
 3357POPC   C2B44012  38.352  12.093   6.661
 3357POPC   C3B44013  38.296  12.266   7.038
 3357POPC   C4B44014  38.415  12.366   7.436
 3358POPC   NC344015  36.433  43.950   5.334
 3358POPC   PO444016  35.844  43.584   5.375
 3358POPC   GL144017  36.153  43.682   5.694
 3358POPC   GL244018  35.986  43.962   5.830
 3358POPC   C1A44019  36.280  43.646   6.124
 3358POPC   D2A44020  36.420  43.695   6.546
 3358POPC   C3A44021  36.190  43.764   6.935
 3358POPC   C4A44022  36.392  43.710   7.358
 3358POPC   C1B44023  36.237  44.151   6.194
 3358POPC   C2B44024  36.309  44.215   6.652
 3358POPC   C3B44025  36.136  44.264   7.082
 3358POPC   C4B44026  36.000  44.024   7.466
 3359POPC   NC344027  20.290   4.729   5.514
 3359POPC   PO444028  20.671   5.279   5.367
 3359POPC   GL144029  20.598   5.363   5.796
 3359POPC   GL244030  20.515   5.024   5.856
 3359POPC   C1A44031  20.740   5.292   6.237
 3359POPC   D2A44032  21.021   5.158   6.549
 3359POPC   C3A44033  20.845   5.274   6.959
 3359POPC   C4A44034  20.593   5.227   7.310
 3359POPC   C1B44035  20.379   4.898   6.259
 3359POPC   C2B44036  20.577   4.913   6.678
 3359POPC   C3B44037  20.558   4.765   7.116
 3359POPC   C4B44038  20.579   4.779   7.583
 3360POPC   NC344039  43.006  29.141   5.362
 3360POPC   PO444040  43.554  28.838   5.435
 3360POPC   GL144041  43.227  28.933   5.794
 3360POPC   GL244042  43.085  29.270   5.858
 3360POPC   C1A44043  43.197  28.962   6.269
 3360POPC   D2A44044  43.368  28.827   6.685
 3360POPC   C3A44045  43.149  29.028   7.035
 3360POPC   C4A44046  42.686  29.053   7.144
 3360POPC   C1B44047  42.964  29.453   6.243
 3360POPC   C2B44048  42.904  29.277   6.654
 3360POPC   C3B44049  42.908  29.492   7.033
 3360POPC   C4B44050  43.301  29.592   7.179
 3361POPC   NC344051   3.601   6.607   5.256
 3361POPC   PO444052   4.142   6.364   5.490
 3361POPC   GL144053   3.755   6.510   5.742
 3361POPC   GL244054   3.355   6.488   5.713
 3361POPC   C1A44055   3.636   6.782   6.084
 3361POPC   D2A44056   3.536   6.606   6.481
 3361POPC   C3A44057   3.304   6.811   6.794
 3361POPC   C4A44058   3.436   6.761   7.215
 3361POPC   C1B44059   3.216   6.370   6.154
 3361POPC   C2B44060   3.326   6.138   6.543
 3361POPC   C3B44061   3.355   6.329   6.910
 3361POPC   C4B44062   3.138   6.376   7.290
 3362POPC   NC344063  35.362  26.430   5.375
 3362POPC   PO444064  35.227  27.075   5.331
 3362POPC   GL144065  35.209  27.050   5.831
 3362POPC   GL244066  34.976  26.798   6.017
 3362POPC   C1A44067  35.435  26.869   6.232
 3362POPC   D2A44068  35.679  26.914   6.623
 3362POPC   C3A44069  35.463  26.976   7.024
 3362POPC   C4A44070  35.522  27.177   7.430
 3362POPC   C1B44071  35.036  26.518   6.366
 3362POPC   C2B44072  35.272  26.580   6.727
 3362POPC   C3B44073  35.148  26.577   7.145
 3362POPC   C4B44074  35.385  26.452   7.476
 3363POPC   NC344075  26.779  30.023   5.456
 3363POPC   PO444076  26.683  29.453   5.187
 3363POPC   GL144077  26.517  29.637   5.679
 3363POPC   GL244078  26.415  30.009   5.824
 3363POPC   C1A44079  26.679  29.658   6.142
 3363POPC   D2A44080  26.554  29.570   6.577
 3363POPC   C3A44081  26.694  29.788   6.952
 3363POPC   C4A44082  27.049  29.723   7.247
 3363POPC   C1B44083  26.590  30.130   6.263
 3363POPC   C2B44084  26.892  30.133   6.630
 3363POPC   C3B44085  26.955  30.203   7.102
 3363POPC   C4B44086  27.056  30.426   7.508
 3364POPC   NC344087  14.270  28.190   5.331
 3364POPC   PO444088  13.962  28.754   5.651
 3364POPC   GL144089  14.074  28.343   5.837
 3364POPC   GL244090  14.433  28.324   5.785
 3364POPC   C1A44091  14.291  28.273   6.271
 3364POPC   D2A44092  14.489  28.386   6.664
 3364POPC   C3A44093  14.238  28.343   7.028
 3364POPC   C4A44094  14.298  28.587   7.411
 3364POPC   C1B44095  14.729  28.092   6.035
 3364POPC   C2B44096  14.741  27.970   6.449
 3364POPC   C3B44097  14.830  28.026   6.868
 3364POPC   C4B44098  14.576  27.949   7.200
 3365POPC   NC344099  13.352  31.822   5.417
 3365POPC   PO444100  13.588  31.156   5.316
 3365POPC   GL144101  13.731  31.141   5.768
 3365POPC   GL244102  13.749  31.499   5.809
 3365POPC   C1A44103  13.640  31.244   6.249
 3365POPC   D2A44104  13.465  31.288   6.697
 3365POPC   C3A44105  13.667  31.093   7.073
 3365POPC   C4A44106  13.975  31.102   7.411
 3365POPC   C1B44107  13.738  31.750   6.204
 3365POPC   C2B44108  13.451  31.776   6.572
 3365POPC   C3B44109  13.487  31.726   7.043
 3365POPC   C4B44110  13.338  31.836   7.472
 3366POPC   NC344111  22.853  34.427   5.436
 3366POPC   PO444112  23.481  34.740   5.323
 3366POPC   GL144113  23.252  34.518   5.733
 3366POPC   GL244114  22.892  34.542   5.918
 3366POPC   C1A44115  23.294  34.403   6.182
 3366POPC   D2A44116  23.054  34.624   6.502
 3366POPC   C3A44117  23.104  34.609   6.946
 3366POPC   C4A44118  23.334  34.410   7.278
 3366POPC   C1B44119  22.590  34.556   6.271
 3366POPC   C2B44120  22.609  34.449   6.724
 3366POPC   C3B44121  22.596  34.666   7.112
 3366POPC   C4B44122  22.551  34.537   7.525
 3367POPC   NC344123  30.296  26.806   5.332
 3367POPC   PO444124  29.812  27.221   5.253
 3367POPC   GL144125  29.907  27.063   5.712
 3367POPC   GL244126  29.915  26.694   5.710
 3367POPC   C1A44127  29.871  27.076   6.206
 3367POPC   D2A44128  30.010  27.042   6.685
 3367POPC   C3A44129  29.884  27.005   7.169
 3367POPC   C4A44130  29.973  27.237   7.618
 3367POPC   C1B44131  30.059  26.589   6.127
 3367POPC   C2B44132  30.104  26.462   6.542
 3367POPC   C3B44133  29.907  26.403   6.910
 3367POPC   C4B44134  30.057  26.447   7.332
 3368POPC   NC344135   4.605  13.634   5.530
 3368POPC   PO444136   5.276  13.347   5.488
 3368POPC   GL144137   5.034  13.497   5.844
 3368POPC   GL244138   4.968  13.865   5.809
 3368POPC   C1A44139   5.186  13.674   6.259
 3368POPC   D2A44140   5.380  13.833   6.639
 3368POPC   C3A44141   5.417  13.532   6.952
 3368POPC   C4A44142   5.250  13.161   7.096
 3368POPC   C1B44143   4.675  13.758   6.172
 3368POPC   C2B44144   4.554  13.718   6.603
 3368POPC   C3B44145   4.721  13.826   7.013
 3368POPC   C4B44146   5.024  13.635   7.297
 3369POPC   NC344147   8.022  21.216   5.473
 3369POPC   PO444148   8.546  21.747   5.321
 3369POPC   GL144149   8.481  21.425   5.617
 3369POPC   GL244150   8.194  21.615   5.754
 3369POPC   C1A44151   8.503  21.232   6.017
 3369POPC   D2A44152   8.502  21.357   6.447
 3369POPC   C3A44153   8.217  21.248   6.793
 3369POPC   C4A44154   8.277  21.430   7.220
 3369POPC   C1B44155   8.027  21.455   6.167
 3369POPC   C2B44156   7.879  21.603   6.582
 3369POPC   C3B44157   7.780  21.399   6.995
 3369POPC   C4B44158   7.957  21.018   7.228
 3370POPC   NC344159  29.571  18.016   5.705
 3370POPC   PO444160  29.187  18.564   5.436
 3370POPC   GL144161  29.133  18.331   5.812
 3370POPC   GL244162  28.781  18.174   5.855
 3370POPC   C1A44163  29.390  18.435   6.169
 3370POPC   D2A44164  29.434  18.726   6.484
 3370POPC   C3A44165  29.497  18.557   6.852
 3370POPC   C4A44166  29.449  18.659   7.256
 3370POPC   C1B44167  28.984  18.027   6.232
 3370POPC   C2B44168  29.159  18.252   6.590
 3370POPC   C3B44169  29.153  18.233   7.012
 3370POPC   C4B44170  28.958  17.938   7.207
 3371POPC   NC344171  33.112  15.516   5.578
 3371POPC   PO444172  33.301  16.184   5.434
 3371POPC   GL144173  33.016  16.010   5.761
 3371POPC   GL244174  32.756  15.743   5.841
 3371POPC   C1A44175  33.036  16.160   6.185
 3371POPC   D2A44176  33.286  16.236   6.566
 3371POPC   C3A44177  33.078  16.098   6.961
 3371POPC   C4A44178  33.257  16.026   7.365
 3371POPC   C1B44179  32.663  15.549   6.230
 3371POPC   C2B44180  32.673  15.576   6.669
 3371POPC   C3B44181  32.664  15.536   7.098
 3371POPC   C4B44182  32.579  15.489   7.565
 3372POPC   NC344183  33.262   2.246   5.368
 3372POPC   PO444184  32.705   1.759   5.353
 3372POPC   GL144185  32.941   1.965   5.679
 3372POPC   GL244186  32.838   2.311   5.699
 3372POPC   C1A44187  33.176   2.131   6.061
 3372POPC   D2A44188  33.146   2.135   6.533
 3372POPC   C3A44189  33.104   1.752   6.793
 3372POPC   C4A44190  33.341   1.696   7.163
 3372POPC   C1B44191  32.652   2.226   6.129
 3372POPC   C2B44192  32.671   2.318   6.583
 3372POPC   C3B44193  32.851   2.168   6.989
 3372POPC   C4B44194  33.174   2.239   7.329
 3373POPC   NC344195   2.358  14.493   5.446
 3373POPC   PO444196   1.747  14.877   5.337
 3373POPC   GL144197   1.857  14.489   5.731
 3373POPC   GL244198   2.193  14.409   5.917
 3373POPC   C1A44199   1.757  14.470   6.201
 3373POPC   D2A44200   1.674  14.562   6.656
 3373POPC   C3A44201   1.937  14.392   6.977
 3373POPC   C4A44202   1.907  14.056   7.277
 3373POPC   C1B44203   2.281  14.696   6.275
 3373POPC   C2B44204   2.183  14.795   6.690
 3373POPC   C3B44205   2.358  14.700   7.076
 3373POPC   C4B44206   2.338  14.340   7.323
 3374POPC   NC344207  19.294  12.617   5.276
 3374POPC   PO444208  19.178  13.319   5.351
 3374POPC   GL144209  19.022  13.144   5.757
 3374POPC   GL244210  19.141  12.795   5.738
 3374POPC   C1A44211  18.884  13.127   6.215
 3374POPC   D2A44212  19.120  13.043   6.622
 3374POPC   C3A44213  18.945  13.112   7.025
 3374POPC   C4A44214  19.223  13.055   7.363
 3374POPC   C1B44215  19.232  12.783   6.181
 3374POPC   C2B44216  19.178  12.559   6.586
 3374POPC   C3B44217  19.188  12.678   7.019
 3374POPC   C4B44218  18.941  12.594   7.351
 3375POPC   NC344219  24.091   3.126   5.545
 3375POPC   PO444220  23.567   3.600   5.454
 3375POPC   GL144221  23.737   3.415   5.794
 3375POPC   GL244222  23.990   3.609   5.803
 3375POPC   C1A44223  23.610   3.299   6.187
 3375POPC   D2A44224  23.628   3.508   6.558
 3375POPC   C3A44225  23.807   3.291   6.869
 3375POPC   C4A44226  23.625   3.570   7.138
 3375POPC   C1B44227  23.889   3.774   6.203
 3375POPC   C2B44228  23.960   3.971   6.627
 3375POPC   C3B44229  24.106   3.875   7.018
 3375POPC   C4B44230  24.091   3.520   7.248
 3376POPC   NC344231  23.704  37.243   5.275
 3376POPC   PO444232  23.467  37.819   5.245
 3376POPC   GL144233  23.610  37.701   5.733
 3376POPC   GL244234  23.675  38.014   5.988
 3376POPC   C1A44235  23.642  37.574   6.221
 3376POPC   D2A44236  23.585  37.771   6.647
 3376POPC   C3A44237  23.591  37.499   7.017
 3376POPC   C4A44238  23.459  37.540   7.434
 3376POPC   C1B44239  24.019  37.907   6.361
 3376POPC   C2B44240  24.076  37.838   6.859
 3376POPC   C3B44241  23.884  37.856   7.323
 3376POPC   C4B44242  23.907  37.936   7.824
 3377POPC   NC344243   7.499  43.606   5.339
 3377POPC   PO444244   7.130  44.007   5.618
 3377POPC   GL144245   7.495  43.877   5.782
 3377POPC   GL244246   7.667  44.167   5.839
 3377POPC   C1A44247   7.574  43.838   6.208
 3377POPC   D2A44248   7.433  44.022   6.571
 3377POPC   C3A44249   7.493  43.868   6.970
 3377POPC   C4A44250   7.595  44.193   7.266
 3377POPC   C1B44251   7.293  44.282   6.162
 3377POPC   C2B44252   6.960  44.222   6.467
 3377POPC   C3B44253   7.112  44.241   6.917
 3377POPC   C4B44254   7.111  43.996   7.292
 3378POPC   NC344255   9.350  35.164   5.370
 3378POPC   PO444256   8.682  35.483   5.332
 3378POPC   GL144257   8.924  35.498   5.737
 3378POPC   GL244258   8.614  35.601   5.846
 3378POPC   C1A44259   8.962  35.356   6.230
 3378POPC   D2A44260   8.949  35.134   6.687
 3378POPC   C3A44261   9.089  35.359   7.073
 3378POPC   C4A44262   9.288  35.789   7.144
 3378POPC   C1B44263   8.461  35.557   6.267
 3378POPC   C2B44264   8.668  35.563   6.633
 3378POPC   C3B44265   8.554  35.467   7.024
 3378POPC   C4B44266   8.746  35.480   7.447
 3379POPC   NC344267   2.451  43.619   5.504
 3379POPC   PO444268   2.494  44.287   5.489
 3379POPC   GL144269   2.743  43.985   5.738
 3379POPC   GL244270   3.008  44.168   5.832
 3379POPC   C1A44271   2.726  43.726   6.133
 3379POPC   D2A44272   2.674  43.863   6.576
 3379POPC   C3A44273   2.609  43.560   6.895
 3379POPC   C4A44274   2.753  43.647   7.317
 3379POPC   C1B44275   2.813  44.240   6.229
 3379POPC   C2B44276   2.944  44.329   6.642
 3379POPC   C3B44277   2.724  44.194   6.998
 3379POPC   C4B44278   2.809  44.166   7.415
 3380POPC   NC344279   2.230   9.668   5.156
 3380POPC   PO444280   1.826   9.968   5.662
 3380POPC   GL144281   2.113  10.018   6.004
 3380POPC   GL244282   2.417  10.086   5.806
 3380POPC   C1A44283   2.031   9.805   6.419
 3380POPC   D2A44284   1.750   9.827   6.808
 3380POPC   C3A44285   1.724   9.491   7.128
 3380POPC   C4A44286   1.427   9.218   7.387
 3380POPC   C1B44287   2.570  10.012   6.238
 3380POPC   C2B44288   2.497   9.762   6.608
 3380POPC   C3B44289   2.217   9.663   6.937
 3380POPC   C4B44290   2.235   9.370   7.236
 3381POPC   NC344291  34.657  14.631   5.465
 3381POPC   PO444292  34.633  13.939   5.388
 3381POPC   GL144293  34.682  14.229   5.774
 3381POPC   GL244294  34.427  14.448   5.881
 3381POPC   C1A44295  34.612  14.149   6.242
 3381POPC   D2A44296  34.212  14.108   6.473
 3381POPC   C3A44297  34.315  14.076   6.910
 3381POPC   C4A44298  34.643  14.333   7.093
 3381POPC   C1B44299  34.392  14.654   6.253
 3381POPC   C2B44300  34.308  14.886   6.593
 3381POPC   C3B44301  34.297  14.660   6.897
 3381POPC   C4B44302  34.508  14.803   7.218
 3382POPC   NC344303   7.948  39.805   5.418
 3382POPC   PO444304   8.242  40.412   5.349
 3382POPC   GL144305   8.258  40.099   5.695
 3382POPC   GL244306   8.547  39.981   5.807
 3382POPC   C1A44307   8.139  39.891   6.125
 3382POPC   D2A44308   7.940  39.968   6.556
 3382POPC   C3A44309   8.220  39.999   6.931
 3382POPC   C4A44310   8.068  39.849   7.331
 3382POPC   C1B44311   8.434  40.325   6.116
 3382POPC   C2B44312   8.284  40.361   6.536
 3382POPC   C3B44313   8.333  40.530   6.936
 3382POPC   C4B44314   8.597  40.302   7.249
 3383POPC   NC344315   2.995  17.747   5.477
 3383POPC   PO444316   2.466  17.436   5.276
 3383POPC   GL144317   2.647  17.494   5.741
 3383POPC   GL244318   2.574  17.803   5.799
 3383POPC   C1A44319   2.698  17.337   6.202
 3383POPC   D2A44320   2.595  17.168   6.646
 3383POPC   C3A44321   2.806  17.420   6.977
 3383POPC   C4A44322   2.885  17.477   7.412
 3383POPC   C1B44323   2.426  17.774   6.193
 3383POPC   C2B44324   2.557  17.692   6.608
 3383POPC   C3B44325   2.605  17.890   7.010
 3383POPC   C4B44326   2.315  18.157   7.240
 3384POPC   NC344327  35.217   2.688   5.375
 3384POPC   PO444328  35.897   2.569   5.318
 3384POPC   GL144329  35.600   2.693   5.713
 3384POPC   GL244330  35.395   3.017   5.730
 3384POPC   C1A44331  35.420   2.712   6.149
 3384POPC   D2A44332  35.480   2.487   6.541
 3384POPC   C3A44333  35.276   2.560   6.895
 3384POPC   C4A44334  35.463   2.554   7.273
 3384POPC   C1B44335  35.120   3.138   6.090
 3384POPC   C2B44336  35.094   2.979   6.521
 3384POPC   C3B44337  35.284   3.078   6.919
 3384POPC   C4B44338  35.186   2.976   7.292
 3385POPC   NC344339   9.428   9.785   5.364
 3385POPC   PO444340  10.094   9.670   5.461
 3385POPC   GL144341   9.797   9.894   5.717
 3385POPC   GL244342   9.563   9.649   5.856
 3385POPC   C1A44343   9.762  10.032   6.146
 3385POPC   D2A44344   9.736   9.796   6.548
 3385POPC   C3A44345   9.686   9.986   6.952
 3385POPC   C4A44346   9.753   9.800   7.356
 3385POPC   C1B44347   9.940   9.510   6.120
 3385POPC   C2B44348  10.111   9.422   6.553
 3385POPC   C3B44349   9.978   9.511   6.994
 3385POPC   C4B44350   9.676   9.317   7.304
 3386POPC   NC344351  41.700  34.500   5.561
 3386POPC   PO444352  41.124  34.833   5.506
 3386POPC   GL144353  41.373  34.744   5.883
 3386POPC   GL244354  41.343  34.359   5.914
 3386POPC   C1A44355  41.562  34.830   6.293
 3386POPC   D2A44356  41.405  34.909   6.728
 3386POPC   C3A44357  41.670  34.825   7.108
 3386POPC   C4A44358  41.588  34.856   7.559
 3386POPC   C1B44359  41.659  34.318   6.230
 3386POPC   C2B44360  41.652  34.450   6.653
 3386POPC   C3B44361  41.389  34.416   6.996
 3386POPC   C4B44362  41.607  34.379   7.393
 3387POPC   NC344363  32.595  39.271   5.538
 3387POPC   PO444364  31.961  39.441   5.380
 3387POPC   GL144365  32.134  39.297   5.800
 3387POPC   GL244366  32.314  38.969   5.878
 3387POPC   C1A44367  32.385  39.367   6.192
 3387POPC   D2A44368  32.234  39.471   6.582
 3387POPC   C3A44369  32.144  39.202   6.904
 3387POPC   C4A44370  32.201  39.303   7.311
 3387POPC   C1B44371  32.351  38.864   6.330
 3387POPC   C2B44372  32.570  39.067   6.691
 3387POPC   C3B44373  32.534  38.935   7.149
 3387POPC   C4B44374  32.782  38.779   7.510
 3388POPC   NC344375  41.767  30.332   5.560
 3388POPC   PO444376  41.878  30.935   5.376
 3388POPC   GL144377  41.558  30.815   5.695
 3388POPC   GL244378  41.190  30.865   5.683
 3388POPC   C1A44379  41.563  30.647   6.121
 3388POPC   D2A44380  41.855  30.694   6.466
 3388POPC   C3A44381  41.696  30.544   6.859
 3388POPC   C4A44382  41.806  30.833   7.178
 3388POPC   C1B44383  41.143  30.951   6.126
 3388POPC   C2B44384  41.266  30.795   6.546
 3388POPC   C3B44385  41.302  30.932   6.978
 3388POPC   C4B44386  41.327  31.049   7.398
 3389POPC   NC344387   9.073  28.515   5.389
 3389POPC   PO444388   8.543  28.118   5.474
 3389POPC   GL144389   8.778  28.349   5.776
 3389POPC   GL244390   9.003  28.138   5.762
 3389POPC   C1A44391   9.049  28.524   6.135
 3389POPC   D2A44392   8.930  28.499   6.572
 3389POPC   C3A44393   9.118  28.731   6.903
 3389POPC   C4A44394   9.105  28.763   7.373
 3389POPC   C1B44395   8.997  28.028   6.181
 3389POPC   C2B44396   9.173  28.025   6.591
 3389POPC   C3B44397   9.060  28.183   6.993
 3389POPC   C4B44398   8.992  27.972   7.364
 3390POPC   NC344399  42.589  34.767   5.370
 3390POPC   PO444400  41.933  34.906   5.568
 3390POPC   GL144401  42.305  34.814   5.858
 3390POPC   GL244402  42.521  34.529   5.842
 3390POPC   C1A44403  42.413  34.760   6.324
 3390POPC   D2A44404  42.092  34.753   6.658
 3390POPC   C3A44405  42.035  34.501   7.006
 3390POPC   C4A44406  42.041  34.631   7.466
 3390POPC   C1B44407  42.160  34.374   6.092
 3390POPC   C2B44408  42.107  34.228   6.524
 3390POPC   C3B44409  42.215  34.036   6.910
 3390POPC   C4B44410  42.098  34.146   7.346
 3391POPC   NC344411   4.155  25.844   5.455
 3391POPC   PO444412   4.530  26.365   5.546
 3391POPC   GL144413   4.400  26.079   5.836
 3391POPC   GL244414   4.026  26.172   5.823
 3391POPC   C1A44415   4.595  25.915   6.206
 3391POPC   D2A44416   4.590  26.157   6.584
 3391POPC   C3A44417   4.229  26.092   6.831
 3391POPC   C4A44418   4.312  26.120   7.244
 3391POPC   C1B44419   4.131  26.110   6.272
 3391POPC   C2B44420   4.182  25.706   6.502
 3391POPC   C3B44421   4.032  25.606   6.921
 3391POPC   C4B44422   4.151  25.643   7.350
 3392POPC   NC344423  17.895   3.782   5.131
 3392POPC   PO444424  17.538   3.381   5.554
 3392POPC   GL144425  17.698   3.674   5.857
 3392POPC   GL244426  17.950   3.954   5.772
 3392POPC   C1A44427  17.682   3.529   6.275
 3392POPC   D2A44428  17.389   3.373   6.549
 3392POPC   C3A44429  17.567   3.445   6.928
 3392POPC   C4A44430  17.476   3.468   7.349
 3392POPC   C1B44431  17.779   4.034   6.201
 3392POPC   C2B44432  17.555   3.940   6.598
 3392POPC   C3B44433  17.649   3.938   7.036
 3392POPC   C4B44434  17.801   3.874   7.416
 3393POPC   NC344435   2.085  42.414   5.289
 3393POPC   PO444436   1.493  42.220   5.631
 3393POPC   GL144437   1.817  42.186   5.928
 3393POPC   GL244438   2.063  42.408   5.788
 3393POPC   C1A44439   2.019  41.991   6.301
 3393POPC   D2A44440   2.095  41.980   6.752
 3393POPC   C3A44441   1.760  42.168   7.031
 3393POPC   C4A44442   1.745  42.211   7.503
 3393POPC   C1B44443   2.178  42.468   6.207
 3393POPC   C2B44444   2.329  42.444   6.642
 3393POPC   C3B44445   2.250  42.323   7.096
 3393POPC   C4B44446   2.179  42.528   7.466
 3394POPC   NC344447  33.138  44.806   5.342
 3394POPC   PO444448  32.486   0.054   5.418
 3394POPC   GL144449  32.788  44.839   5.771
 3394POPC   GL244450  33.202  44.750   5.849
 3394POPC   C1A44451  32.849  44.740   6.220
 3394POPC   D2A44452  33.145  44.707   6.554
 3394POPC   C3A44453  32.884  44.682   6.912
 3394POPC   C4A44454  32.781  44.514   7.303
 3394POPC   C1B44455  33.531  44.721   6.194
 3394POPC   C2B44456  33.635  44.555   6.621
 3394POPC   C3B44457  33.357  44.465   6.982
 3394POPC   C4B44458  33.263  44.733   7.313
 3395POPC   NC344459  30.109  12.727   5.468
 3395POPC   PO444460  29.630  13.229   5.229
 3395POPC   GL144461  29.769  13.201   5.744
 3395POPC   GL244462  30.061  13.038   5.868
 3395POPC   C1A44463  29.711  12.925   6.190
 3395POPC   D2A44464  29.479  12.602   6.464
 3395POPC   C3A44465  29.535  12.709   6.896
 3395POPC   C4A44466  29.691  13.066   7.143
 3395POPC   C1B44467  30.196  12.705   6.150
 3395POPC   C2B44468  30.075  12.655   6.569
 3395POPC   C3B44469  30.157  12.839   6.968
 3395POPC   C4B44470  29.935  12.619   7.255
 3396POPC   NC344471   5.365  35.547   5.446
 3396POPC   PO444472   4.893  34.982   5.422
 3396POPC   GL144473   5.088  35.193   5.778
 3396POPC   GL244474   5.044  35.537   5.831
 3396POPC   C1A44475   4.870  35.181   6.202
 3396POPC   D2A44476   4.759  35.328   6.626
 3396POPC   C3A44477   4.835  35.080   6.976
 3396POPC   C4A44478   4.848  35.056   7.440
 3396POPC   C1B44479   5.245  35.521   6.218
 3396POPC   C2B44480   5.128  35.672   6.627
 3396POPC   C3B44481   5.152  35.501   7.033
 3396POPC   C4B44482   5.504  35.483   7.247
 3397POPC   NC344483  16.396  25.530   5.459
 3397POPC   PO444484  16.986  25.076   5.411
 3397POPC   GL144485  17.103  25.217   5.846
 3397POPC   GL244486  16.923  25.554   5.928
 3397POPC   C1A44487  17.052  25.142   6.278
 3397POPC   D2A44488  16.780  25.280   6.623
 3397POPC   C3A44489  16.762  25.071   7.030
 3397POPC   C4A44490  17.070  25.057   7.356
 3397POPC   C1B44491  16.519  25.517   6.201
 3397POPC   C2B44492  16.319  25.522   6.635
 3397POPC   C3B44493  16.540  25.567   7.059
 3397POPC   C4B44494  16.360  25.620   7.487
 3398POPC   NC344495  42.857  20.657   5.412
 3398POPC   PO444496  43.543  20.803   5.428
 3398POPC   GL144497  43.250  20.817   5.785
 3398POPC   GL244498  43.236  20.476   5.849
 3398POPC   C1A44499  43.070  20.793   6.236
 3398POPC   D2A44500  43.000  20.593   6.665
 3398POPC   C3A44501  43.121  20.748   7.086
 3398POPC   C4A44502  42.964  20.897   7.510
 3398POPC   C1B44503  43.351  20.212   6.199
 3398POPC   C2B44504  43.436  20.058   6.619
 3398POPC   C3B44505  43.228  20.232   6.986
 3398POPC   C4B44506  42.792  20.286   7.134
 3399POPC   NC344507  34.691  13.051   5.344
 3399POPC   PO444508  34.209  12.701   5.426
 3399POPC   GL144509  34.385  13.001   5.783
 3399POPC   GL244510  34.766  13.098   5.846
 3399POPC   C1A44511  34.444  12.910   6.240
 3399POPC   D2A44512  34.454  12.577   6.570
 3399POPC   C3A44513  34.476  12.739   6.984
 3399POPC   C4A44514  34.655  12.647   7.377
 3399POPC   C1B44515  34.842  13.219   6.271
 3399POPC   C2B44516  34.843  12.940   6.659
 3399POPC   C3B44517  34.840  13.065   7.098
 3399POPC   C4B44518  34.711  13.406   7.299
 3400POPC   NC344519  10.009  10.648   5.281
 3400POPC   PO444520   9.540  10.229   5.410
 3400POPC   GL144521   9.742  10.436   5.739
 3400POPC   GL244522  10.053  10.343   5.698
 3400POPC   C1A44523   9.736  10.571   6.174
 3400POPC   D2A44524   9.610  10.774   6.555
 3400POPC   C3A44525   9.746  10.535   6.890
 3400POPC   C4A44526   9.584  10.648   7.244
 3400POPC   C1B44527  10.205  10.386   6.107
 3400POPC   C2B44528  10.038  10.272   6.510
 3400POPC   C3B44529  10.173  10.169   6.898
 3400POPC   C4B44530   9.962  10.254   7.286
 3401POPC   NC344531  24.251  18.062   5.502
 3401POPC   PO444532  24.609  17.482   5.329
 3401POPC   GL144533  24.671  17.397   5.741
 3401POPC   GL244534  24.459  17.209   5.794
 3401POPC   C1A44535  24.745  17.475   6.179
 3401POPC   D2A44536  24.611  17.760   6.487
 3401POPC   C3A44537  24.664  17.635   6.910
 3401POPC   C4A44538  24.533  17.773   7.299
 3401POPC   C1B44539  24.443  17.069   6.205
 3401POPC   C2B44540  24.440  17.254   6.607
 3401POPC   C3B44541  24.386  17.126   7.022
 3401POPC   C4B44542  24.281  17.358   7.392
 3402POPC   NC344543  10.103   6.019   5.283
 3402POPC   PO444544   9.415   5.670   5.537
 3402POPC   GL144545   9.595   5.821   5.908
 3402POPC   GL244546   9.717   6.186   5.911
 3402POPC   C1A44547   9.616   5.593   6.292
 3402POPC   D2A44548   9.838   5.688   6.661
 3402POPC   C3A44549   9.642   5.646   7.026
 3402POPC   C4A44550   9.482   6.021   7.218
 3402POPC   C1B44551  10.057   6.154   6.240
 3402POPC   C2B44552  10.223   6.020   6.646
 3402POPC   C3B44553   9.993   6.043   7.050
 3402POPC   C4B44554   9.909   6.165   7.474
 3403POPC   NC344555  14.596  35.249   5.345
 3403POPC   PO444556  14.054  35.588   5.266
 3403POPC   GL144557  14.173  35.369   5.731
 3403POPC   GL244558  14.485  35.239   5.819
 3403POPC   C1A44559  14.289  35.392   6.240
 3403POPC   D2A44560  14.196  35.179   6.645
 3403POPC   C3A44561  14.245  35.356   7.030
 3403POPC   C4A44562  14.265  35.371   7.469
 3403POPC   C1B44563  14.774  35.222   6.123
 3403POPC   C2B44564  14.877  35.357   6.502
 3403POPC   C3B44565  14.716  35.194   6.851
 3403POPC   C4B44566  14.739  35.341   7.264
 3404POPC   NC344567  20.809  28.746   5.631
 3404POPC   PO444568  20.693  29.392   5.433
 3404POPC   GL144569  20.629  29.192   5.807
 3404POPC   GL244570  20.345  28.991   5.752
 3404POPC   C1A44571  20.775  29.275   6.217
 3404POPC   D2A44572  20.616  29.436   6.582
 3404POPC   C3A44573  20.719  29.263   6.969
 3404POPC   C4A44574  20.770  29.297   7.391
 3404POPC   C1B44575  20.475  28.859   6.191
 3404POPC   C2B44576  20.607  28.894   6.614
 3404POPC   C3B44577  20.478  28.792   7.029
 3404POPC   C4B44578  20.673  28.772   7.457
 3405POPC   NC344579  23.681  34.241   5.393
 3405POPC   PO444580  24.086  34.731   5.594
 3405POPC   GL144581  23.712  34.809   5.797
 3405POPC   GL244582  23.730  34.486   5.865
 3405POPC   C1A44583  23.577  34.805   6.238
 3405POPC   D2A44584  23.561  34.587   6.662
 3405POPC   C3A44585  23.558  34.828   7.064
 3405POPC   C4A44586  23.839  35.172   7.214
 3405POPC   C1B44587  23.801  34.330   6.267
 3405POPC   C2B44588  24.062  34.354   6.609
 3405POPC   C3B44589  24.138  34.339   7.054
 3405POPC   C4B44590  23.837  34.472   7.341
 3406POPC   NC344591  17.779  35.723   5.291
 3406POPC   PO444592  17.572  35.017   5.329
 3406POPC   GL144593  17.779  35.117   5.720
 3406POPC   GL244594  17.817  35.485   5.761
 3406POPC   C1A44595  17.640  35.114   6.145
 3406POPC   D2A44596  17.532  34.954   6.546
 3406POPC   C3A44597  17.416  35.291   6.834
 3406POPC   C4A44598  17.363  35.254   7.283
 3406POPC   C1B44599  17.880  35.582   6.219
 3406POPC   C2B44600  17.932  35.304   6.570
 3406POPC   C3B44601  17.867  35.146   6.975
 3406POPC   C4B44602  17.849  35.504   7.273
 3407POPC   NC344603   5.349  36.134   5.072
 3407POPC   PO444604   4.880  35.841   5.422
 3407POPC   GL144605   5.183  36.179   5.569
 3407POPC   GL244606   5.324  35.973   5.808
 3407POPC   C1A44607   5.192  36.451   5.976
 3407POPC   D2A44608   5.165  36.522   6.421
 3407POPC   C3A44609   5.104  36.415   6.875
 3407POPC   C4A44610   4.983  36.372   7.332
 3407POPC   C1B44611   5.224  36.024   6.252
 3407POPC   C2B44612   5.462  36.080   6.645
 3407POPC   C3B44613   5.387  36.034   7.093
 3407POPC   C4B44614   5.263  35.862   7.482
 3408POPC   NC344615  12.120  33.029   5.161
 3408POPC   PO444616  11.663  32.896   5.661
 3408POPC   GL144617  12.072  32.965   5.839
 3408POPC   GL244618  12.249  32.741   5.594
 3408POPC   C1A44619  12.072  33.142   6.250
 3408POPC   D2A44620  12.086  32.983   6.638
 3408POPC   C3A44621  11.766  32.960   6.903
 3408POPC   C4A44622  11.845  33.283   7.171
 3408POPC   C1B44623  12.359  32.579   5.999
 3408POPC   C2B44624  12.349  32.570   6.457
 3408POPC   C3B44625  12.417  32.690   6.880
 3408POPC   C4B44626  12.211  32.932   7.148
 3409POPC   NC344627   7.756  22.767   5.498
 3409POPC   PO444628   7.162  23.014   5.299
 3409POPC   GL144629   7.220  23.033   5.711
 3409POPC   GL244630   7.163  22.719   5.813
 3409POPC   C1A44631   7.390  23.086   6.113
 3409POPC   D2A44632   7.272  23.153   6.539
 3409POPC   C3A44633   7.550  22.944   6.837
 3409POPC   C4A44634   7.513  23.106   7.230
 3409POPC   C1B44635   7.146  22.510   6.168
 3409POPC   C2B44636   7.197  22.644   6.566
 3409POPC   C3B44637   7.267  22.496   6.958
 3409POPC   C4B44638   7.225  22.649   7.352
 3410POPC   NC344639  37.190   1.460   5.413
 3410POPC   PO444640  37.790   1.344   5.204
 3410POPC   GL144641  37.664   1.312   5.694
 3410POPC   GL244642  37.455   1.125   5.943
 3410POPC   C1A44643  37.740   1.483   6.140
 3410POPC   D2A44644  37.566   1.326   6.547
 3410POPC   C3A44645  37.636   1.499   6.955
 3410POPC   C4A44646  37.560   1.294   7.369
 3410POPC   C1B44647  37.806   0.971   6.239
 3410POPC   C2B44648  37.990   1.001   6.633
 3410POPC   C3B44649  37.830   1.040   7.027
 3410POPC   C4B44650  37.932   0.921   7.443
 3411POPC   NC344651   5.215  17.785   5.552
 3411POPC   PO444652   4.755  17.279   5.482
 3411POPC   GL144653   4.787  17.603   5.808
 3411POPC   GL244654   5.126  17.524   5.972
 3411POPC   C1A44655   4.756  17.827   6.204
 3411POPC   D2A44656   5.144  17.799   6.437
 3411POPC   C3A44657   5.146  17.658   6.857
 3411POPC   C4A44658   5.104  17.606   7.304
 3411POPC   C1B44659   4.839  17.304   6.240
 3411POPC   C2B44660   4.763  17.376   6.671
 3411POPC   C3B44661   4.925  17.182   7.056
 3411POPC   C4B44662   4.832  17.141   7.496
 3412POPC   NC344663  17.789  32.583   5.308
 3412POPC   PO444664  17.351  33.049   5.145
 3412POPC   GL144665  17.329  33.052   5.645
 3412POPC   GL244666  17.591  32.807   5.786
 3412POPC   C1A44667  17.356  33.112   6.147
 3412POPC   D2A44668  17.295  33.002   6.615
 3412POPC   C3A44669  17.537  33.089   7.021
 3412POPC   C4A44670  17.566  32.898   7.479
 3412POPC   C1B44671  17.721  32.741   6.245
 3412POPC   C2B44672  17.796  32.679   6.695
 3412POPC   C3B44673  17.534  32.583   7.037
 3412POPC   C4B44674  17.449  32.409   7.432
 3413POPC   NC344675  20.215  19.035   5.526
 3413POPC   PO444676  20.785  18.712   5.462
 3413POPC   GL144677  20.591  18.863   5.835
 3413POPC   GL244678  20.549  19.240   5.852
 3413POPC   C1A44679  20.520  18.878   6.265
 3413POPC   D2A44680  20.425  18.678   6.656
 3413POPC   C3A44681  20.703  18.788   6.987
 3413POPC   C4A44682  20.710  19.214   7.152
 3413POPC   C1B44683  20.266  19.391   6.181
 3413POPC   C2B44684  20.322  19.475   6.628
 3413POPC   C3B44685  20.185  19.337   7.046
 3413POPC   C4B44686  20.224  18.892   7.148
 3414POPC   NC344687  28.775  34.542   5.353
 3414POPC   PO444688  28.195  34.662   5.453
 3414POPC   GL144689  28.473  34.738   5.790
 3414POPC   GL244690  28.704  34.482   5.839
 3414POPC   C1A44691  28.392  34.696   6.238
 3414POPC   D2A44692  28.231  34.838   6.612
 3414POPC   C3A44693  28.160  34.625   6.986
 3414POPC   C4A44694  28.490  34.728   7.180
 3414POPC   C1B44695  28.829  34.447   6.261
 3414POPC   C2B44696  28.653  34.543   6.698
 3414POPC   C3B44697  28.580  34.246   7.050
 3414POPC   C4B44698  28.857  34.100   7.397
 3415POPC   NC344699  41.138  15.960   5.430
 3415POPC   PO444700  40.562  15.784   5.516
 3415POPC   GL144701  40.775  15.680   5.897
 3415POPC   GL244702  41.094  15.870   5.932
 3415POPC   C1A44703  40.780  15.908   6.320
 3415POPC   D2A44704  40.745  16.032   6.769
 3415POPC   C3A44705  40.848  15.713   7.101
 3415POPC   C4A44706  41.190  15.526   7.335
 3415POPC   C1B44707  41.273  16.244   6.220
 3415POPC   C2B44708  41.321  16.479   6.652
 3415POPC   C3B44709  41.021  16.502   7.016
 3415POPC   C4B44710  40.804  16.198   7.251
 3416POPC   NC344711  21.203  18.899   5.453
 3416POPC   PO444712  21.187  19.510   5.579
 3416POPC   GL144713  21.214  19.105   5.923
 3416POPC   GL244714  21.418  18.757   5.884
 3416POPC   C1A44715  21.377  18.920   6.358
 3416POPC   D2A44716  21.371  19.149   6.766
 3416POPC   C3A44717  21.579  18.996   7.147
 3416POPC   C4A44718  21.556  19.154   7.602
 3416POPC   C1B44719  21.004  18.665   6.090
 3416POPC   C2B44720  20.940  18.673   6.521
 3416POPC   C3B44721  21.214  18.678   6.880
 3416POPC   C4B44722  21.118  18.871   7.298
 3417POPC   NC344723   6.691  10.192   5.226
 3417POPC   PO444724   6.329   9.703   5.586
 3417POPC   GL144725   6.665   9.588   5.876
 3417POPC   GL244726   6.828   9.873   6.057
 3417POPC   C1A44727   6.655   9.418   6.304
 3417POPC   D2A44728   6.700   9.681   6.656
 3417POPC   C3A44729   6.538   9.635   7.058
 3417POPC   C4A44730   6.356   9.942   7.292
 3417POPC   C1B44731   7.098   9.903   6.410
 3417POPC   C2B44732   6.992  10.118   6.797
 3417POPC   C3B44733   6.888   9.955   7.194
 3417POPC   C4B44734   7.143   9.866   7.528
 3418POPC   NC344735  35.599  11.187   5.104
 3418POPC   PO444736  36.147  11.488   5.407
 3418POPC   GL144737  36.111  11.251   5.767
 3418POPC   GL244738  36.439  11.142   5.794
 3418POPC   C1A44739  36.031  11.066   6.156
 3418POPC   D2A44740  36.096  11.230   6.543
 3418POPC   C3A44741  35.796  11.111   6.842
 3418POPC   C4A44742  35.933  11.040   7.266
 3418POPC   C1B44743  36.513  11.227   6.219
 3418POPC   C2B44744  36.594  11.047   6.593
 3418POPC   C3B44745  36.356  11.081   6.954
 3418POPC   C4B44746  36.419  11.229   7.367
 3419POPC   NC344747   7.997  27.108   5.335
 3419POPC   PO444748   8.430  26.724   5.305
 3419POPC   GL144749   8.362  26.657   5.776
 3419POPC   GL244750   7.999  26.672   5.882
 3419POPC   C1A44751   8.392  26.926   6.167
 3419POPC   D2A44752   8.299  27.081   6.584
 3419POPC   C3A44753   8.411  26.886   6.988
 3419POPC   C4A44754   8.275  26.930   7.423
 3419POPC   C1B44755   7.937  26.741   6.357
 3419POPC   C2B44756   7.978  26.678   6.824
 3419POPC   C3B44757   8.148  26.464   7.222
 3419POPC   C4B44758   7.901  26.344   7.598
 3420POPC   NC344759  17.076  42.576   5.473
 3420POPC   PO444760  17.583  42.323   5.164
 3420POPC   GL144761  17.546  42.413   5.664
 3420POPC   GL244762  17.812  42.657   5.839
 3420POPC   C1A44763  17.425  42.410   6.121
 3420POPC   D2A44764  17.613  42.355   6.557
 3420POPC   C3A44765  17.348  42.323   6.924
 3420POPC   C4A44766  17.095  42.547   7.136
 3420POPC   C1B44767  17.708  42.804   6.283
 3420POPC   C2B44768  17.896  42.758   6.718
 3420POPC   C3B44769  17.825  42.432   7.045
 3420POPC   C4B44770  17.838  42.280   7.507
 3421POPC   NC344771  21.149  30.941   5.442
 3421POPC   PO444772  21.674  30.629   5.403
 3421POPC   GL144773  21.539  30.871   5.799
 3421POPC   GL244774  21.222  30.768   5.909
 3421POPC   C1A44775  21.581  30.891   6.272
 3421POPC   D2A44776  21.457  30.706   6.662
 3421POPC   C3A44777  21.488  30.955   7.011
 3421POPC   C4A44778  21.414  30.828   7.424
 3421POPC   C1B44779  21.256  30.485   6.238
 3421POPC   C2B44780  21.110  30.317   6.603
 3421POPC   C3B44781  20.903  30.400   6.936
 3421POPC   C4B44782  21.077  30.440   7.316
 3422POPC   NC344783  30.212   9.977   5.135
 3422POPC   PO444784  29.741   9.727   5.437
 3422POPC   GL144785  29.766   9.643   5.830
 3422POPC   GL244786  30.053   9.494   5.761
 3422POPC   C1A44787  29.799   9.898   6.216
 3422POPC   D2A44788  29.742  10.151   6.597
 3422POPC   C3A44789  29.706   9.909   6.958
 3422POPC   C4A44790  29.882  10.020   7.310
 3422POPC   C1B44791  30.211   9.576   6.154
 3422POPC   C2B44792  30.120   9.692   6.564
 3422POPC   C3B44793  30.087   9.516   6.959
 3422POPC   C4B44794  30.270   9.694   7.299
 3423POPC   NC344795   2.865   6.386   5.347
 3423POPC   PO444796   2.468   6.894   5.506
 3423POPC   GL144797   2.489   6.639   5.879
 3423POPC   GL244798   2.800   6.444   5.862
 3423POPC   C1A44799   2.586   6.669   6.329
 3423POPC   D2A44800   2.549   6.920   6.714
 3423POPC   C3A44801   2.463   6.633   7.048
 3423POPC   C4A44802   2.764   6.749   7.350
 3423POPC   C1B44803   2.599   6.180   6.177
 3423POPC   C2B44804   2.821   6.116   6.514
 3423POPC   C3B44805   2.846   6.349   6.868
 3423POPC   C4B44806   2.692   6.183   7.251
 3424POPC   NC344807  40.744  28.721   5.121
 3424POPC   PO444808  41.052  28.136   5.301
 3424POPC   GL144809  41.001  28.250   5.758
 3424POPC   GL244810  41.197  28.547   5.888
 3424POPC   C1A44811  40.681  28.367   6.086
 3424POPC   D2A44812  40.511  28.422   6.509
 3424POPC   C3A44813  40.758  28.364   6.899
 3424POPC   C4A44814  40.680  28.380   7.345
 3424POPC   C1B44815  41.154  28.275   6.272
 3424POPC   C2B44816  41.136  28.081   6.671
 3424POPC   C3B44817  41.354  28.124   7.047
 3424POPC   C4B44818  41.171  28.499   7.188
 3425POPC   NC344819  35.039   5.623   5.614
 3425POPC   PO444820  35.394   6.145   5.554
 3425POPC   GL144821  35.452   5.912   5.894
 3425POPC   GL244822  35.478   5.552   5.872
 3425POPC   C1A44823  35.176   5.853   6.234
 3425POPC   D2A44824  35.086   5.510   6.489
 3425POPC   C3A44825  35.125   5.699   6.868
 3425POPC   C4A44826  35.283   6.059   7.104
 3425POPC   C1B44827  35.596   5.537   6.326
 3425POPC   C2B44828  35.607   5.450   6.784
 3425POPC   C3B44829  35.500   5.592   7.181
 3425POPC   C4B44830  35.089   5.675   7.372
 3426POPC   NC344831  19.478  41.978   5.381
 3426POPC   PO444832  19.960  42.493   5.579
 3426POPC   GL144833  19.939  42.213   5.880
 3426POPC   GL244834  19.627  42.126   5.834
 3426POPC   C1A44835  19.894  42.412   6.277
 3426POPC   D2A44836  20.162  42.481   6.618
 3426POPC   C3A44837  19.866  42.592   6.921
 3426POPC   C4A44838  19.692  42.350   7.236
 3426POPC   C1B44839  19.623  41.985   6.258
 3426POPC   C2B44840  19.682  42.123   6.705
 3426POPC   C3B44841  19.407  41.981   7.072
 3426POPC   C4B44842  19.445  42.042   7.574
 3427POPC   NC344843   6.668  23.522   5.360
 3427POPC   PO444844   6.239  24.092   5.346
 3427POPC   GL144845   6.537  23.899   5.716
 3427POPC   GL244846   6.850  23.659   5.812
 3427POPC   C1A44847   6.583  23.840   6.191
 3427POPC   D2A44848   6.403  23.691   6.594
 3427POPC   C3A44849   6.604  23.850   6.953
 3427POPC   C4A44850   6.476  23.661   7.338
 3427POPC   C1B44851   7.031  23.491   6.199
 3427POPC   C2B44852   6.867  23.480   6.607
 3427POPC   C3B44853   6.821  23.401   7.023
 3427POPC   C4B44854   7.023  23.602   7.335
 3428POPC   NC344855  13.648  20.216   5.474
 3428POPC   PO444856  13.732  20.894   5.403
 3428POPC   GL144857  13.702  20.629   5.761
 3428POPC   GL244858  14.047  20.669   5.806
 3428POPC   C1A44859  13.670  20.385   6.170
 3428POPC   D2A44860  13.527  20.661   6.531
 3428POPC   C3A44861  13.664  20.650   6.969
 3428POPC   C4A44862  13.453  20.713   7.374
 3428POPC   C1B44863  13.930  20.825   6.203
 3428POPC   C2B44864  14.049  20.684   6.590
 3428POPC   C3B44865  14.181  20.778   6.999
 3428POPC   C4B44866  13.974  20.666   7.408
 3429POPC   NC344867  38.519   6.136   5.210
 3429POPC   PO444868  38.151   5.647   5.570
 3429POPC   GL144869  38.509   5.906   5.784
 3429POPC   GL244870  38.867   5.755   5.825
 3429POPC   C1A44871  38.353   6.076   6.196
 3429POPC   D2A44872  38.192   5.999   6.632
 3429POPC   C3A44873  38.366   6.083   7.065
 3429POPC   C4A44874  38.271   5.925   7.500
 3429POPC   C1B44875  38.754   5.753   6.286
 3429POPC   C2B44876  38.673   5.787   6.754
 3429POPC   C3B44877  38.598   5.652   7.214
 3429POPC   C4B44878  38.835   5.418   7.524
 3430POPC   NC344879  41.094   9.676   5.305
 3430POPC   PO444880  40.584   9.462   5.709
 3430POPC   GL144881  40.918   9.572   5.965
 3430POPC   GL244882  40.959   9.896   5.876
 3430POPC   C1A44883  40.891   9.595   6.396
 3430POPC   D2A44884  41.069   9.768   6.764
 3430POPC   C3A44885  40.761   9.716   7.089
 3430POPC   C4A44886  40.435   9.588   7.366
 3430POPC   C1B44887  40.619  10.040   6.151
 3430POPC   C2B44888  40.526  10.263   6.528
 3430POPC   C3B44889  40.686  10.185   6.928
 3430POPC   C4B44890  41.097  10.143   7.125
 3431POPC   NC344891  24.015  35.843   5.433
 3431POPC   PO444892  23.502  36.327   5.504
 3431POPC   GL144893  23.372  36.132   5.823
 3431POPC   GL244894  23.675  35.905   5.824
 3431POPC   C1A44895  23.537  36.169   6.224
 3431POPC   D2A44896  23.722  35.944   6.550
 3431POPC   C3A44897  23.637  36.151   6.940
 3431POPC   C4A44898  23.439  36.185   7.335
 3431POPC   C1B44899  24.056  35.963   6.117
 3431POPC   C2B44900  24.263  36.070   6.515
 3431POPC   C3B44901  24.138  35.998   6.944
 3431POPC   C4B44902  23.970  36.156   7.358
 3432POPC   NC344903  29.938   3.651   5.417
 3432POPC   PO444904  29.822   3.046   5.367
 3432POPC   GL144905  29.869   3.326   5.810
 3432POPC   GL244906  29.789   3.704   5.891
 3432POPC   C1A44907  30.104   3.498   6.210
 3432POPC   D2A44908  29.959   3.540   6.623
 3432POPC   C3A44909  30.078   3.351   6.997
 3432POPC   C4A44910  30.267   3.626   7.219
 3432POPC   C1B44911  29.680   3.867   6.314
 3432POPC   C2B44912  29.588   3.865   6.764
 3432POPC   C3B44913  29.702   3.651   7.159
 3432POPC   C4B44914  29.660   3.771   7.630
 3433POPC   NC344915  35.041  41.891   5.495
 3433POPC   PO444916  35.187  41.182   5.358
 3433POPC   GL144917  35.279  41.472   5.712
 3433POPC   GL244918  35.595  41.704   5.649
 3433POPC   C1A44919  35.108  41.620   6.118
 3433POPC   D2A44920  34.887  41.737   6.503
 3433POPC   C3A44921  35.075  41.733   6.925
 3433POPC   C4A44922  34.967  41.518   7.322
 3433POPC   C1B44923  35.633  41.767   6.103
 3433POPC   C2B44924  35.433  41.687   6.524
 3433POPC   C3B44925  35.555  41.917   6.915
 3433POPC   C4B44926  35.720  41.689   7.245
 3434POPC   NC344927  23.286   8.909   5.394
 3434POPC   PO444928  22.697   8.567   5.514
 3434POPC   GL144929  22.767   8.896   5.829
 3434POPC   GL244930  23.083   9.083   5.836
 3434POPC   C1A44931  22.842   8.902   6.275
 3434POPC   D2A44932  23.177   8.758   6.562
 3434POPC   C3A44933  23.053   8.927   6.954
 3434POPC   C4A44934  22.749   8.833   7.260
 3434POPC   C1B44935  23.316   9.127   6.244
 3434POPC   C2B44936  23.452   9.198   6.716
 3434POPC   C3B44937  23.427   9.173   7.200
 3434POPC   C4B44938  23.125   9.024   7.554
 3435POPC   NC344939  17.740  16.911   5.468
 3435POPC   PO444940  17.921  17.611   5.434
 3435POPC   GL144941  17.761  17.435   5.828
 3435POPC   GL244942  17.386  17.400   5.841
 3435POPC   C1A44943  17.624  17.727   6.164
 3435POPC   D2A44944  17.778  17.988   6.482
 3435POPC   C3A44945  17.647  17.923   6.898
 3435POPC   C4A44946  17.748  17.885   7.322
 3435POPC   C1B44947  17.510  17.239   6.264
 3435POPC   C2B44948  17.484  17.286   6.731
 3435POPC   C3B44949  17.524  17.446   7.132
 3435POPC   C4B44950  17.267  17.645   7.424
 3436POPC   NC344951  39.772   7.019   5.601
 3436POPC   PO444952  40.322   6.727   5.611
 3436POPC   GL144953  40.092   6.526   5.971
 3436POPC   GL244954  39.821   6.736   6.065
 3436POPC   C1A44955  40.155   6.242   6.342
 3436POPC   D2A44956  40.227   6.225   6.813
 3436POPC   C3A44957  40.134   6.563   7.146
 3436POPC   C4A44958  40.235   6.650   7.599
 3436POPC   C1B44959  39.572   7.096   6.269
 3436POPC   C2B44960  39.658   7.149   6.710
 3436POPC   C3B44961  39.673   6.793   7.012
 3436POPC   C4B44962  39.779   6.799   7.453
 3437POPC   NC344963   3.009  24.890   5.613
 3437POPC   PO444964   2.435  24.672   5.231
 3437POPC   GL144965   2.793  24.436   5.601
 3437POPC   GL244966   2.746  24.096   5.716
 3437POPC   C1A44967   2.850  24.461   6.094
 3437POPC   D2A44968   2.649  24.543   6.491
 3437POPC   C3A44969   2.861  24.563   6.899
 3437POPC   C4A44970   2.665  24.834   7.183
 3437POPC   C1B44971   2.518  24.089   6.135
 3437POPC   C2B44972   2.370  24.098   6.559
 3437POPC   C3B44973   2.363  24.380   6.908
 3437POPC   C4B44974   2.463  24.383   7.334
 3438POPC   NC344975  12.191  38.054   5.426
 3438POPC   PO444976  11.931  37.409   5.485
 3438POPC   GL144977  12.171  37.656   5.756
 3438POPC   GL244978  11.976  37.948   5.865
 3438POPC   C1A44979  12.331  37.682   6.169
 3438POPC   D2A44980  12.232  37.872   6.563
 3438POPC   C3A44981  12.354  37.717   6.989
 3438POPC   C4A44982  12.172  37.841   7.387
 3438POPC   C1B44983  11.767  37.784   6.208
 3438POPC   C2B44984  11.774  37.597   6.592
 3438POPC   C3B44985  11.844  37.797   6.959
 3438POPC   C4B44986  11.669  37.671   7.326
 3439POPC   NC344987  28.190  16.900   5.328
 3439POPC   PO444988  28.625  16.364   5.479
 3439POPC   GL144989  28.618  16.670   5.770
 3439POPC   GL244990  28.259  16.720   5.816
 3439POPC   C1A44991  28.611  16.634   6.217
 3439POPC   D2A44992  28.612  16.421   6.621
 3439POPC   C3A44993  28.452  16.560   7.008
 3439POPC   C4A44994  28.639  16.495   7.412
 3439POPC   C1B44995  28.097  16.595   6.239
 3439POPC   C2B44996  27.941  16.759   6.622
 3439POPC   C3B44997  27.942  16.678   7.050
 3439POPC   C4B44998  28.203  16.764   7.411
 3440POPC   NC344999  25.795  43.952   5.252
 3440POPC   PO445000  25.259  44.131   5.533
 3440POPC   GL145001  25.373  43.771   5.754
 3440POPC   GL245002  25.372  43.994   6.021
 3440POPC   C1A45003  25.167  43.526   6.107
 3440POPC   D2A45004  24.996  43.539   6.539
 3440POPC   C3A45005  25.156  43.729   6.897
 3440POPC   C4A45006  25.305  43.586   7.284
 3440POPC   C1B45007  25.155  43.997   6.389
 3440POPC   C2B45008  25.402  44.126   6.728
 3440POPC   C3B45009  25.512  44.024   7.123
 3440POPC   C4B45010  25.127  44.104   7.271
 3441POPC   NC345011   7.195  39.445   5.308
 3441POPC   PO445012   7.855  39.229   5.277
 3441POPC   GL145013   7.651  39.285   5.693
 3441POPC   GL245014   7.822  38.971   5.819
 3441POPC   C1A45015   7.363  39.423   6.058
 3441POPC   D2A45016   7.319  39.465   6.554
 3441POPC   C3A45017   7.239  39.103   6.899
 3441POPC   C4A45018   7.004  38.818   7.209
 3441POPC   C1B45019   7.751  39.133   6.235
 3441POPC   C2B45020   7.708  39.146   6.690
 3441POPC   C3B45021   7.722  39.104   7.143
 3441POPC   C4B45022   7.881  39.373   7.474
 3442POPC   NC345023  21.874  18.155   5.456
 3442POPC   PO445024  21.327  18.466   5.391
 3442POPC   GL145025  21.242  18.278   5.811
 3442POPC   GL245026  21.568  18.089   5.865
 3442POPC   C1A45027  21.350  18.340   6.273
 3442POPC   D2A45028  21.518  18.024   6.579
 3442POPC   C3A45029  21.405  18.183   6.945
 3442POPC   C4A45030  21.379  18.407   7.280
 3442POPC   C1B45031  21.826  18.253   6.206
 3442POPC   C2B45032  21.708  18.500   6.608
 3442POPC   C3B45033  21.808  18.521   7.038
 3442POPC   C4B45034  21.862  18.317   7.437
 3443POPC   NC345035  44.026  38.904   5.448
 3443POPC   PO445036  43.613  39.359   5.241
 3443POPC   GL145037  43.777  39.238   5.757
 3443POPC   GL245038  44.035  38.973   5.930
 3443POPC   C1A45039  43.928  39.366   6.217
 3443POPC   D2A45040  43.789  39.461   6.636
 3443POPC   C3A45041  43.684  39.141   6.907
 3443POPC   C4A45042  43.870  39.199   7.270
 3443POPC   C1B45043  43.899  38.834   6.339
 3443POPC   C2B45044  44.077  38.849   6.766
 3443POPC   C3B45045  44.248  38.873   7.163
 3443POPC   C4B45046  44.423  39.264   7.345
 3444POPC   NC345047  35.805  10.921   5.524
 3444POPC   PO445048  35.414  11.536   5.393
 3444POPC   GL145049  35.475  11.251   5.775
 3444POPC   GL245050  35.140  11.179   5.889
 3444POPC   C1A45051  35.510  11.074   6.240
 3444POPC   D2A45052  35.168  11.089   6.606
 3444POPC   C3A45053  35.310  11.183   7.024
 3444POPC   C4A45054  35.605  11.438   7.239
 3444POPC   C1B45055  35.235  11.486   6.230
 3444POPC   C2B45056  35.393  11.564   6.660
 3444POPC   C3B45057  35.259  11.766   7.047
 3444POPC   C4B45058  35.100  11.512   7.376
 3445POPC   NC345059  14.136  12.630   5.472
 3445POPC   PO445060  13.897  13.206   5.425
 3445POPC   GL145061  13.817  13.194   5.825
 3445POPC   GL245062  13.846  12.813   5.866
 3445POPC   C1A45063  13.671  13.101   6.226
 3445POPC   D2A45064  13.855  12.959   6.580
 3445POPC   C3A45065  13.584  13.049   6.893
 3445POPC   C4A45066  13.423  12.877   7.216
 3445POPC   C1B45067  13.973  12.590   6.220
 3445POPC   C2B45068  14.112  12.499   6.643
 3445POPC   C3B45069  13.961  12.692   7.032
 3445POPC   C4B45070  13.742  12.519   7.396
 3446POPC   NC345071  38.620  44.394   5.472
 3446POPC   PO445072  38.150  44.840   5.602
 3446POPC   GL145073  38.430  44.673   5.858
 3446POPC   GL245074  38.296  44.345   5.900
 3446POPC   C1A45075  38.556  44.738   6.259
 3446POPC   D2A45076  38.341  44.987   6.564
 3446POPC   C3A45077  38.396  44.819   6.987
 3446POPC   C4A45078  38.053  44.929   7.239
 3446POPC   C1B45079  38.686  44.256   6.147
 3446POPC   C2B45080  38.853  44.338   6.581
 3446POPC   C3B45081  38.659  44.356   7.004
 3446POPC   C4B45082  38.729  44.139   7.432
 3447POPC   NC345083  29.716  27.656   5.061
 3447POPC   PO445084  29.178  27.632   5.440
 3447POPC   GL145085  29.300  27.777   5.828
 3447POPC   GL245086  29.066  28.065   5.820
 3447POPC   C1A45087  29.244  27.578   6.240
 3447POPC   D2A45088  29.009  27.546   6.632
 3447POPC   C3A45089  29.326  27.564   6.945
 3447POPC   C4A45090  29.371  27.253   7.251
 3447POPC   C1B45091  28.846  27.884   6.179
 3447POPC   C2B45092  28.733  27.999   6.612
 3447POPC   C3B45093  28.898  27.939   7.032
 3447POPC   C4B45094  28.938  27.557   7.283
 3448POPC   NC345095  28.862   3.704   5.771
 3448POPC   PO445096  29.464   3.636   5.492
 3448POPC   GL145097  29.342   3.365   5.836
 3448POPC   GL245098  29.309   3.655   6.033
 3448POPC   C1A45099  29.073   3.289   6.259
 3448POPC   D2A45100  29.093   3.655   6.589
 3448POPC   C3A45101  28.829   3.723   6.990
 3448POPC   C4A45102  28.823   3.662   7.458
 3448POPC   C1B45103  29.575   3.369   6.298
 3448POPC   C2B45104  29.489   3.371   6.732
 3448POPC   C3B45105  29.208   3.397   7.044
 3448POPC   C4B45106  29.301   3.488   7.437
 3449POPC   NC345107  15.099  33.840   5.323
 3449POPC   PO445108  15.675  33.654   5.410
 3449POPC   GL145109  15.398  33.748   5.775
 3449POPC   GL245110  14.984  33.752   5.808
 3449POPC   C1A45111  15.571  33.728   6.204
 3449POPC   D2A45112  15.485  33.515   6.576
 3449POPC   C3A45113  15.594  33.742   6.962
 3449POPC   C4A45114  15.461  33.743   7.390
 3449POPC   C1B45115  15.132  34.007   6.175
 3449POPC   C2B45116  15.256  33.962   6.619
 3449POPC   C3B45117  15.088  33.882   7.040
 3449POPC   C4B45118  15.030  34.077   7.458
 3450POPC   NC345119  19.623  34.810   5.538
 3450POPC   PO445120  20.268  34.796   5.339
 3450POPC   GL145121  20.158  34.448   5.677
 3450POPC   GL245122  19.797  34.344   5.786
 3450POPC   C1A45123  20.174  34.404   6.165
 3450POPC   D2A45124  20.121  34.406   6.651
 3450POPC   C3A45125  19.941  34.773   6.883
 3450POPC   C4A45126  19.745  34.836   7.292
 3450POPC   C1B45127  19.536  34.456   6.182
 3450POPC   C2B45128  19.329  34.550   6.616
 3450POPC   C3B45129  19.436  34.473   7.075
 3450POPC   C4B45130  19.422  34.248   7.522
 3451POPC   NC345131  14.314  44.870   5.436
 3451POPC   PO445132  14.520  44.260   5.455
 3451POPC   GL145133  14.336  44.491   5.823
 3451POPC   GL245134  14.524  44.803   5.903
 3451POPC   C1A45135  14.333  44.529   6.309
 3451POPC   D2A45136  14.051  44.422   6.682
 3451POPC   C3A45137  14.306  44.459   7.040
 3451POPC   C4A45138  14.592  44.805   7.110
 3451POPC   C1B45139  14.093  44.916   6.059
 3451POPC   C2B45140  13.926  44.894   6.466
 3451POPC   C3B45141  14.100  44.907   6.883
 3451POPC   C4B45142  13.894   0.014   7.229
 3452POPC   NC345143  26.700  39.435   5.466
 3452POPC   PO445144  26.953  38.844   5.272
 3452POPC   GL145145  27.071  39.124   5.668
 3452POPC   GL245146  27.072  39.498   5.796
 3452POPC   C1A45147  26.860  39.137   6.086
 3452POPC   D2A45148  26.923  39.242   6.513
 3452POPC   C3A45149  26.838  38.971   6.858
 3452POPC   C4A45150  26.756  39.071   7.291
 3452POPC   C1B45151  27.160  39.730   6.194
 3452POPC   C2B45152  26.922  39.761   6.604
 3452POPC   C3B45153  26.932  39.495   6.983
 3452POPC   C4B45154  27.122  39.486   7.394
 3453POPC   NC345155  10.833  14.798   5.297
 3453POPC   PO445156  10.391  15.290   5.321
 3453POPC   GL145157  10.570  15.046   5.740
 3453POPC   GL245158  10.896  14.878   5.789
 3453POPC   C1A45159  10.316  14.926   6.120
 3453POPC   D2A45160  10.336  15.140   6.511
 3453POPC   C3A45161  10.318  14.920   6.881
 3453POPC   C4A45162  10.181  15.135   7.216
 3453POPC   C1B45163  10.798  15.069   6.223
 3453POPC   C2B45164  10.890  15.068   6.670
 3453POPC   C3B45165  10.929  15.061   7.126
 3453POPC   C4B45166  10.626  15.187   7.447
 3454POPC   NC345167  14.733  40.092   5.319
 3454POPC   PO445168  14.143  40.156   5.355
 3454POPC   GL145169  14.330  40.034   5.748
 3454POPC   GL245170  14.530  40.317   5.803
 3454POPC   C1A45171  14.249  39.876   6.196
 3454POPC   D2A45172  14.316  40.071   6.602
 3454POPC   C3A45173  14.070  40.101   6.940
 3454POPC   C4A45174  14.139  39.741   7.210
 3454POPC   C1B45175  14.655  40.193   6.229
 3454POPC   C2B45176  14.820  40.101   6.664
 3454POPC   C3B45177  14.588  40.159   7.056
 3454POPC   C4B45178  14.285  40.215   7.385
 3455POPC   NC345179  17.676  11.844   5.702
 3455POPC   PO445180  17.973  12.438   5.571
 3455POPC   GL145181  17.825  12.307   5.914
 3455POPC   GL245182  17.472  12.300   5.854
 3455POPC   C1A45183  17.884  12.240   6.338
 3455POPC   D2A45184  17.706  12.441   6.709
 3455POPC   C3A45185  17.606  12.168   7.034
 3455POPC   C4A45186  17.767  12.193   7.430
 3455POPC   C1B45187  17.446  12.525   6.248
 3455POPC   C2B45188  17.182  12.354   6.599
 3455POPC   C3B45189  17.109  12.461   7.023
 3455POPC   C4B45190  17.289  12.349   7.431
 3456POPC   NC345191  14.193  16.501   5.521
 3456POPC   PO445192  13.480  16.573   5.463
 3456POPC   GL145193  13.776  16.597   5.834
 3456POPC   GL245194  13.966  16.294   5.925
 3456POPC   C1A45195  13.846  16.726   6.278
 3456POPC   D2A45196  13.871  16.553   6.706
 3456POPC   C3A45197  13.773  16.798   7.058
 3456POPC   C4A45198  13.345  16.995   7.113
 3456POPC   C1B45199  13.793  16.202   6.328
 3456POPC   C2B45200  13.699  16.059   6.757
 3456POPC   C3B45201  13.579  16.319   7.103
 3456POPC   C4B45202  13.305  16.393   7.480
 3457POPC   NC345203  43.336  30.115   5.447
 3457POPC   PO445204  42.957  29.578   5.483
 3457POPC   GL145205  43.075  29.847   5.811
 3457POPC   GL245206  42.839  30.136   5.807
 3457POPC   C1A45207  43.093  29.964   6.224
 3457POPC   D2A45208  43.204  29.801   6.626
 3457POPC   C3A45209  43.021  29.989   6.946
 3457POPC   C4A45210  43.160  30.065   7.349
 3457POPC   C1B45211  42.696  30.372   6.182
 3457POPC   C2B45212  42.570  30.228   6.598
 3457POPC   C3B45213  42.607  30.323   7.025
 3457POPC   C4B45214  42.849  30.465   7.348
 3458POPC   NC345215  36.667  40.774   5.330
 3458POPC   PO445216  37.300  40.812   5.147
 3458POPC   GL145217  37.068  40.774   5.642
 3458POPC   GL245218  36.775  40.993   5.793
 3458POPC   C1A45219  36.784  40.584   6.075
 3458POPC   D2A45220  36.701  40.456   6.565
 3458POPC   C3A45221  36.820  40.626   7.005
 3458POPC   C4A45222  36.705  41.029   7.239
 3458POPC   C1B45223  37.124  40.953   6.134
 3458POPC   C2B45224  37.238  41.088   6.559
 3458POPC   C3B45225  37.053  41.273   6.944
 3458POPC   C4B45226  37.153  41.268   7.398
 3459POPC   NC345227  28.695  36.502   5.372
 3459POPC   PO445228  28.626  35.819   5.416
 3459POPC   GL145229  28.492  36.123   5.719
 3459POPC   GL245230  28.190  36.263   5.694
 3459POPC   C1A45231  28.555  36.297   6.154
 3459POPC   D2A45232  28.425  36.228   6.565
 3459POPC   C3A45233  28.667  36.247   6.932
 3459POPC   C4A45234  28.450  36.215   7.277
 3459POPC   C1B45235  28.135  36.032   6.124
 3459POPC   C2B45236  27.989  35.974   6.593
 3459POPC   C3B45237  27.999  36.089   7.043
 3459POPC   C4B45238  28.124  35.835   7.420
 3460POPC   NC345239  41.100  26.316   5.590
 3460POPC   PO445240  41.462  25.740   5.220
 3460POPC   GL145241  41.416  25.863   5.661
 3460POPC   GL245242  41.602  26.170   5.643
 3460POPC   C1A45243  41.517  25.891   6.128
 3460POPC   D2A45244  41.541  25.727   6.592
 3460POPC   C3A45245  41.386  25.753   7.016
 3460POPC   C4A45246  41.636  25.886   7.305
 3460POPC   C1B45247  41.682  26.378   6.030
 3460POPC   C2B45248  41.685  26.341   6.455
 3460POPC   C3B45249  41.581  26.219   6.850
 3460POPC   C4B45250  41.649  26.380   7.260
 3461POPC   NC345251  16.141  32.531   5.583
 3461POPC   PO445252  16.097  33.150   5.299
 3461POPC   GL145253  16.300  33.041   5.692
 3461POPC   GL245254  15.977  32.980   5.870
 3461POPC   C1A45255  16.435  33.128   6.120
 3461POPC   D2A45256  16.323  33.230   6.529
 3461POPC   C3A45257  16.098  32.954   6.784
 3461POPC   C4A45258  16.093  33.047   7.203
 3461POPC   C1B45259  15.654  33.140   6.180
 3461POPC   C2B45260  15.592  33.014   6.591
 3461POPC   C3B45261  15.693  33.227   6.941
 3461POPC   C4B45262  15.645  33.215   7.351
 3462POPC   NC345263  33.248  16.652   5.372
 3462POPC   PO445264  32.777  17.053   5.507
 3462POPC   GL145265  33.038  16.887   5.813
 3462POPC   GL245266  32.961  16.531   5.797
 3462POPC   C1A45267  33.197  16.770   6.219
 3462POPC   D2A45268  32.992  16.780   6.624
 3462POPC   C3A45269  33.251  16.580   6.944
 3462POPC   C4A45270  33.400  16.509   7.385
 3462POPC   C1B45271  32.707  16.582   6.180
 3462POPC   C2B45272  32.721  16.356   6.577
 3462POPC   C3B45273  32.691  16.511   6.981
 3462POPC   C4B45274  32.905  16.462   7.319
 3463POPC   NC345275  44.046  44.890   5.361
 3463POPC   PO445276  43.664  44.411   5.454
 3463POPC   GL145277  43.975  44.556   5.750
 3463POPC   GL245278  43.877  44.900   5.860
 3463POPC   C1A45279  43.998  44.444   6.176
 3463POPC   D2A45280  44.031  44.639   6.581
 3463POPC   C3A45281  44.006  44.407   7.006
 3463POPC   C4A45282  43.891  44.483   7.466
 3463POPC   C1B45283  44.020   0.104   6.279
 3463POPC   C2B45284  44.048   0.104   6.757
 3463POPC   C3B45285  43.966  44.905   7.175
 3463POPC   C4B45286  44.055  44.948   7.658
 3464POPC   NC345287  18.015   1.243   5.364
 3464POPC   PO445288  17.429   0.854   5.183
 3464POPC   GL145289  17.368   0.974   5.644
 3464POPC   GL245290  17.589   1.274   5.660
 3464POPC   C1A45291  17.293   1.194   6.071
 3464POPC   D2A45292  17.341   1.601   6.301
 3464POPC   C3A45293  17.302   1.608   6.773
 3464POPC   C4A45294  17.331   1.279   7.101
 3464POPC   C1B45295  17.806   1.427   6.028
 3464POPC   C2B45296  17.811   1.364   6.466
 3464POPC   C3B45297  17.789   1.444   6.891
 3464POPC   C4B45298  17.864   1.274   7.291
 3465POPC   NC345299  32.164  27.108   5.197
 3465POPC   PO445300  32.081  26.524   5.540
 3465POPC   GL145301  32.202  26.760   5.879
 3465POPC   GL245302  32.371  26.496   6.023
 3465POPC   C1A45303  32.271  27.031   6.257
 3465POPC   D2A45304  32.152  27.276   6.613
 3465POPC   C3A45305  32.331  27.141   6.980
 3465POPC   C4A45306  32.742  27.222   7.179
 3465POPC   C1B45307  32.376  26.436   6.419
 3465POPC   C2B45308  32.242  26.720   6.714
 3465POPC   C3B45309  32.159  26.684   7.159
 3465POPC   C4B45310  32.150  27.001   7.467
 3466POPC   NC345311  34.216   2.546   5.360
 3466POPC   PO445312  34.845   2.895   5.207
 3466POPC   GL145313  34.839   2.937   5.691
 3466POPC   GL245314  34.495   3.001   5.872
 3466POPC   C1A45315  34.891   2.678   6.113
 3466POPC   D2A45316  34.778   2.542   6.563
 3466POPC   C3A45317  34.820   2.749   6.978
 3466POPC   C4A45318  34.938   2.514   7.364
 3466POPC   C1B45319  34.584   3.025   6.357
 3466POPC   C2B45320  34.387   2.958   6.788
 3466POPC   C3B45321  34.197   3.156   7.201
 3466POPC   C4B45322  34.351   3.159   7.644
 3467POPC   NC345323  27.701  41.330   5.519
 3467POPC   PO445324  27.141  41.713   5.273
 3467POPC   GL145325  27.353  41.621   5.737
 3467POPC   GL245326  27.613  41.826   5.905
 3467POPC   C1A45327  27.544  41.381   6.165
 3467POPC   D2A45328  27.805  41.286   6.588
 3467POPC   C3A45329  27.579  41.266   6.990
 3467POPC   C4A45330  27.215  41.516   7.133
 3467POPC   C1B45331  27.908  41.751   6.269
 3467POPC   C2B45332  27.779  41.781   6.694
 3467POPC   C3B45333  27.634  41.782   7.090
 3467POPC   C4B45334  27.863  41.926   7.432
 3468POPC   NC345335  17.060   7.420   5.621
 3468POPC   PO445336  16.492   7.622   5.471
 3468POPC   GL145337  16.625   7.474   5.864
 3468POPC   GL245338  16.665   7.120   5.821
 3468POPC   C1A45339  16.745   7.624   6.255
 3468POPC   D2A45340  16.956   7.521   6.658
 3468POPC   C3A45341  16.768   7.652   7.024
 3468POPC   C4A45342  16.651   7.492   7.409
 3468POPC   C1B45343  16.932   7.154   6.207
 3468POPC   C2B45344  16.834   7.034   6.607
 3468POPC   C3B45345  16.708   7.137   6.994
 3468POPC   C4B45346  17.007   7.095   7.310
 3469POPC   NC345347  44.528   7.821   5.517
 3469POPC   PO445348  44.677   8.508   5.554
 3469POPC   GL145349  44.540   8.220   5.841
 3469POPC   GL245350  44.229   8.374   5.861
 3469POPC   C1A45351  44.688   8.080   6.236
 3469POPC   D2A45352  44.936   8.118   6.602
 3469POPC   C3A45353  44.839   8.253   7.016
 3469POPC   C4A45354   0.039   8.584   7.271
 3469POPC   C1B45355  44.210   8.324   6.292
 3469POPC   C2B45356  44.390   8.140   6.664
 3469POPC   C3B45357  44.318   8.179   7.087
 3469POPC   C4B45358  44.532   8.421   7.401
 3470POPC   NC345359  27.195  17.506   5.394
 3470POPC   PO445360  27.809  17.208   5.219
 3470POPC   GL145361  27.672  17.325   5.620
 3470POPC   GL245362  27.975  17.196   5.751
 3470POPC   C1A45363  27.463  17.449   6.039
 3470POPC   D2A45364  27.622  17.561   6.478
 3470POPC   C3A45365  27.413  17.634   6.878
 3470POPC   C4A45366  27.496  17.560   7.312
 3470POPC   C1B45367  27.993  17.426   6.145
 3470POPC   C2B45368  28.093  17.338   6.572
 3470POPC   C3B45369  27.872  17.401   6.952
 3470POPC   C4B45370  27.805  17.121   7.274
 3471POPC   NC345371  32.104  18.572   5.375
 3471POPC   PO445372  32.424  18.020   5.518
 3471POPC   GL145373  32.313  18.388   5.803
 3471POPC   GL245374  31.961  18.507   5.862
 3471POPC   C1A45375  32.442  18.392   6.209
 3471POPC   D2A45376  32.259  18.188   6.547
 3471POPC   C3A45377  32.337  18.447   6.877
 3471POPC   C4A45378  32.557  18.341   7.214
 3471POPC   C1B45379  31.950  18.535   6.319
 3471POPC   C2B45380  31.832  18.487   6.756
 3471POPC   C3B45381  31.938  18.313   7.156
 3471POPC   C4B45382  32.176  18.626   7.417
 3472POPC   NC345383  21.757  27.356   5.467
 3472POPC   PO445384  21.878  28.047   5.486
 3472POPC   GL145385  21.715  27.722   5.822
 3472POPC   GL245386  21.346  27.583   5.795
 3472POPC   C1A45387  21.597  27.571   6.282
 3472POPC   D2A45388  21.204  27.462   6.544
 3472POPC   C3A45389  21.199  27.326   7.014
 3472POPC   C4A45390  21.550  27.347   7.308
 3472POPC   C1B45391  21.352  27.968   6.085
 3472POPC   C2B45392  21.442  28.035   6.540
 3472POPC   C3B45393  21.451  27.770   6.926
 3472POPC   C4B45394  21.228  27.764   7.344
 3473POPC   NC345395  38.130   8.955   5.530
 3473POPC   PO445396  38.853   9.190   5.453
 3473POPC   GL145397  38.701   8.884   5.735
 3473POPC   GL245398  38.950   8.973   5.960
 3473POPC   C1A45399  38.451   8.816   6.113
 3473POPC   D2A45400  38.102   8.829   6.414
 3473POPC   C3A45401  38.168   8.954   6.841
 3473POPC   C4A45402  38.275   8.862   7.262
 3473POPC   C1B45403  38.790   9.114   6.360
 3473POPC   C2B45404  38.718   8.925   6.763
 3473POPC   C3B45405  38.720   9.088   7.172
 3473POPC   C4B45406  38.474   9.270   7.518
 3474POPC   NC345407   2.145  17.801   5.447
 3474POPC   PO445408   2.300  17.140   5.707
 3474POPC   GL145409   2.119  17.504   5.858
 3474POPC   GL245410   1.837  17.320   5.924
 3474POPC   C1A45411   1.918  17.746   6.209
 3474POPC   D2A45412   2.122  18.016   6.544
 3474POPC   C3A45413   2.096  17.790   6.939
 3474POPC   C4A45414   1.779  17.517   7.128
 3474POPC   C1B45415   2.137  17.298   6.320
 3474POPC   C2B45416   1.992  17.203   6.713
 3474POPC   C3B45417   2.226  17.238   7.058
 3474POPC   C4B45418   2.384  17.508   7.265
 3475POPC   NC345419  31.230  29.436   5.381
 3475POPC   PO445420  31.534  30.007   5.537
 3475POPC   GL145421  31.416  29.679   5.825
 3475POPC   GL245422  31.091  29.758   5.761
 3475POPC   C1A45423  31.566  29.714   6.253
 3475POPC   D2A45424  31.622  29.997   6.582
 3475POPC   C3A45425  31.548  29.828   6.972
 3475POPC   C4A45426  31.726  29.964   7.392
 3475POPC   C1B45427  31.167  30.024   6.121
 3475POPC   C2B45428  31.093  29.952   6.539
 3475POPC   C3B45429  31.167  30.169   6.905
 3475POPC   C4B45430  31.250  30.069   7.296
 3476POPC   NC345431  15.174  16.129   5.323
 3476POPC   PO445432  15.147  15.447   5.294
 3476POPC   GL145433  15.239  15.747   5.680
 3476POPC   GL245434  14.952  15.989   5.748
 3476POPC   C1A45435  15.285  15.922   6.125
 3476POPC   D2A45436  15.106  15.771   6.533
 3476POPC   C3A45437  15.153  16.003   6.927
 3476POPC   C4A45438  15.317  15.898   7.347
 3476POPC   C1B45439  14.789  16.033   6.142
 3476POPC   C2B45440  14.833  16.218   6.543
 3476POPC   C3B45441  14.644  16.096   6.918
 3476POPC   C4B45442  14.801  15.899   7.289
 3477POPC   NC345443   5.226  19.504   5.671
 3477POPC   PO445444   4.959  20.176   5.565
 3477POPC   GL145445   4.871  19.867   5.830
 3477POPC   GL245446   4.672  19.609   5.698
 3477POPC   C1A45447   5.065  19.844   6.219
 3477POPC   D2A45448   5.161  20.031   6.599
 3477POPC   C3A45449   5.288  19.664   6.829
 3477POPC   C4A45450   5.494  19.702   7.220
 3477POPC   C1B45451   4.576  19.657   6.178
 3477POPC   C2B45452   4.779  19.705   6.613
 3477POPC   C3B45453   4.884  19.880   7.040
 3477POPC   C4B45454   4.785  19.728   7.442
 3478POPC   NC345455  18.684  34.465   5.531
 3478POPC   PO445456  19.352  34.438   5.518
 3478POPC   GL145457  19.114  34.402   5.856
 3478POPC   GL245458  19.119  34.758   5.885
 3478POPC   C1A45459  19.051  34.242   6.275
 3478POPC   D2A45460  18.704  34.283   6.586
 3478POPC   C3A45461  18.889  34.380   6.983
 3478POPC   C4A45462  19.042  34.517   7.372
 3478POPC   C1B45463  18.808  34.681   6.226
 3478POPC   C2B45464  18.785  34.800   6.671
 3478POPC   C3B45465  19.099  34.854   6.982
 3478POPC   C4B45466  19.264  34.954   7.389
 3479POPC   NC345467  11.424  26.488   5.382
 3479POPC   PO445468  11.524  27.118   5.116
 3479POPC   GL145469  11.279  27.032   5.581
 3479POPC   GL245470  11.268  26.699   5.809
 3479POPC   C1A45471  11.341  27.126   6.062
 3479POPC   D2A45472  11.207  26.891   6.441
 3479POPC   C3A45473  11.397  26.937   6.850
 3479POPC   C4A45474  11.470  27.084   7.274
 3479POPC   C1B45475  11.071  26.480   6.180
 3479POPC   C2B45476  10.848  26.522   6.593
 3479POPC   C3B45477  10.915  26.521   7.042
 3479POPC   C4B45478  11.298  26.593   7.209
 3480POPC   NC345479  31.834  39.003   5.218
 3480POPC   PO445480  31.241  39.101   5.550
 3480POPC   GL145481  31.417  38.994   5.924
 3480POPC   GL245482  31.767  38.906   5.836
 3480POPC   C1A45483  31.336  39.168   6.305
 3480POPC   D2A45484  31.095  39.194   6.656
 3480POPC   C3A45485  31.297  39.077   6.930
 3480POPC   C4A45486  31.247  39.251   7.300
 3480POPC   C1B45487  31.881  39.137   6.238
 3480POPC   C2B45488  31.713  39.326   6.635
 3480POPC   C3B45489  31.705  39.330   7.102
 3480POPC   C4B45490  31.784  39.584   7.455
 3481POPC   NC345491  31.913   6.455   5.462
 3481POPC   PO445492  32.437   6.929   5.422
 3481POPC   GL145493  32.256   6.701   5.764
 3481POPC   GL245494  31.962   6.892   5.799
 3481POPC   C1A45495  32.247   6.466   6.159
 3481POPC   D2A45496  32.304   6.608   6.560
 3481POPC   C3A45497  32.457   6.414   6.940
 3481POPC   C4A45498  32.428   6.628   7.332
 3481POPC   C1B45499  32.141   6.959   6.212
 3481POPC   C2B45500  31.941   6.987   6.610
 3481POPC   C3B45501  31.845   6.948   7.045
 3481POPC   C4B45502  32.077   6.992   7.431
 3482POPC   NC345503  31.980   7.141   5.337
 3482POPC   PO445504  32.284   7.739   5.502
 3482POPC   GL145505  32.178   7.385   5.764
 3482POPC   GL245506  32.459   7.171   5.865
 3482POPC   C1A45507  32.144   7.458   6.192
 3482POPC   D2A45508  31.935   7.539   6.568
 3482POPC   C3A45509  32.166   7.400   6.904
 3482POPC   C4A45510  32.121   7.470   7.306
 3482POPC   C1B45511  32.646   6.932   6.175
 3482POPC   C2B45512  32.523   7.093   6.565
 3482POPC   C3B45513  32.360   6.937   6.936
 3482POPC   C4B45514  32.524   7.127   7.261
 3483POPC   NC345515  34.481   0.310   5.151
 3483POPC   PO445516  34.996   0.665   5.359
 3483POPC   GL145517  34.712   0.437   5.651
 3483POPC   GL245518  34.717   0.705   5.937
 3483POPC   C1A45519  34.451   0.278   5.983
 3483POPC   D2A45520  34.404   0.244   6.434
 3483POPC   C3A45521  34.446   0.138   6.868
 3483POPC   C4A45522  34.461   0.388   7.227
 3483POPC   C1B45523  34.887   0.547   6.325
 3483POPC   C2B45524  34.727   0.552   6.739
 3483POPC   C3B45525  34.611   0.839   7.062
 3483POPC   C4B45526  34.742   0.733   7.464
 3484POPC   NC345527   1.649  21.413   5.326
 3484POPC   PO445528   2.299  21.235   5.418
 3484POPC   GL145529   1.981  21.294   5.705
 3484POPC   GL245530   1.738  21.003   5.657
 3484POPC   C1A45531   1.873  21.623   6.014
 3484POPC   D2A45532   1.977  21.688   6.458
 3484POPC   C3A45533   1.751  21.615   6.813
 3484POPC   C4A45534   1.877  21.694   7.225
 3484POPC   C1B45535   1.902  20.969   6.088
 3484POPC   C2B45536   1.847  21.181   6.476
 3484POPC   C3B45537   1.957  21.168   6.896
 3484POPC   C4B45538   1.773  21.201   7.269
 3485POPC   NC345539  26.385  36.449   5.349
 3485POPC   PO445540  26.748  35.883   5.289
 3485POPC   GL145541  26.783  36.084   5.712
 3485POPC   GL245542  26.632  36.410   5.798
 3485POPC   C1A45543  26.816  36.078   6.188
 3485POPC   D2A45544  26.976  36.286   6.582
 3485POPC   C3A45545  27.024  36.021   6.946
 3485POPC   C4A45546  26.893  35.951   7.360
 3485POPC   C1B45547  26.486  36.448   6.236
 3485POPC   C2B45548  26.455  36.399   6.700
 3485POPC   C3B45549  26.707  36.425   7.074
 3485POPC   C4B45550  26.635  36.358   7.514
 3486POPC   NC345551  33.484   2.891   5.433
 3486POPC   PO445552  34.152   3.076   5.377
 3486POPC   GL145553  33.935   3.030   5.749
 3486POPC   GL245554  33.944   2.663   5.792
 3486POPC   C1A45555  34.058   2.967   6.191
 3486POPC   D2A45556  33.978   2.654   6.540
 3486POPC   C3A45557  33.964   2.761   6.992
 3486POPC   C4A45558  33.649   3.021   7.180
 3486POPC   C1B45559  33.561   2.639   6.042
 3486POPC   C2B45560  33.437   2.539   6.438
 3486POPC   C3B45561  33.520   2.576   6.852
 3486POPC   C4B45562  33.612   2.503   7.276
 3487POPC   NC345563  19.208  30.567   5.370
 3487POPC   PO445564  19.000  31.150   5.398
 3487POPC   GL145565  19.157  30.919   5.768
 3487POPC   GL245566  19.327  31.191   5.892
 3487POPC   C1A45567  19.112  30.782   6.240
 3487POPC   D2A45568  18.868  30.730   6.677
 3487POPC   C3A45569  19.029  30.509   7.081
 3487POPC   C4A45570  19.276  30.290   7.428
 3487POPC   C1B45571  19.345  31.241   6.354
 3487POPC   C2B45572  19.316  30.974   6.702
 3487POPC   C3B45573  19.262  31.019   7.133
 3487POPC   C4B45574  19.157  30.774   7.494
 3488POPC   NC345575  24.455   4.750   5.454
 3488POPC   PO445576  24.099   5.308   5.557
 3488POPC   GL145577  24.378   5.100   5.809
 3488POPC   GL245578  24.124   4.837   5.838
 3488POPC   C1A45579  24.631   4.887   6.151
 3488POPC   D2A45580  24.697   4.711   6.597
 3488POPC   C3A45581  24.601   4.981   7.007
 3488POPC   C4A45582  24.345   5.093   7.395
 3488POPC   C1B45583  24.145   5.055   6.234
 3488POPC   C2B45584  24.251   4.952   6.613
 3488POPC   C3B45585  24.090   5.139   6.942
 3488POPC   C4B45586  23.853   4.868   7.120
 3489POPC   NC345587  36.139  18.589   5.345
 3489POPC   PO445588  36.300  19.256   5.285
 3489POPC   GL145589  36.144  19.008   5.661
 3489POPC   GL245590  36.484  19.014   5.775
 3489POPC   C1A45591  36.075  18.996   6.127
 3489POPC   D2A45592  35.841  19.055   6.543
 3489POPC   C3A45593  36.016  19.067   6.993
 3489POPC   C4A45594  36.018  19.374   7.344
 3489POPC   C1B45595  36.501  19.270   6.148
 3489POPC   C2B45596  36.335  19.226   6.569
 3489POPC   C3B45597  36.359  19.447   6.945
 3489POPC   C4B45598  36.576  19.262   7.249
 3490POPC   NC345599   8.897  39.555   5.418
 3490POPC   PO445600   8.790  38.875   5.279
 3490POPC   GL145601   8.832  39.108   5.724
 3490POPC   GL245602   8.657  39.435   5.846
 3490POPC   C1A45603   8.981  39.240   6.186
 3490POPC   D2A45604   9.285  39.252   6.548
 3490POPC   C3A45605   9.101  39.083   6.943
 3490POPC   C4A45606   8.964  39.075   7.391
 3490POPC   C1B45607   8.657  39.659   6.235
 3490POPC   C2B45608   8.845  39.511   6.647
 3490POPC   C3B45609   8.803  39.480   7.087
 3490POPC   C4B45610   8.583  39.793   7.272
 3491POPC   NC345611   4.695  41.434   5.377
 3491POPC   PO445612   5.414  41.717   5.497
 3491POPC   GL145613   5.080  41.543   5.731
 3491POPC   GL245614   5.191  41.193   5.741
 3491POPC   C1A45615   4.971  41.703   6.161
 3491POPC   D2A45616   4.804  41.821   6.570
 3491POPC   C3A45617   5.052  41.760   6.926
 3491POPC   C4A45618   5.081  41.425   7.219
 3491POPC   C1B45619   5.231  41.254   6.209
 3491POPC   C2B45620   5.196  41.304   6.668
 3491POPC   C3B45621   5.497  41.241   7.002
 3491POPC   C4B45622   5.598  41.360   7.424
 3492POPC   NC345623   5.112   4.715   5.328
 3492POPC   PO445624   4.816   4.123   5.493
 3492POPC   GL145625   5.124   4.317   5.721
 3492POPC   GL245626   4.938   4.560   5.795
 3492POPC   C1A45627   5.223   4.234   6.149
 3492POPC   D2A45628   5.104   3.947   6.462
 3492POPC   C3A45629   5.075   4.132   6.842
 3492POPC   C4A45630   5.069   4.108   7.249
 3492POPC   C1B45631   4.997   4.699   6.180
 3492POPC   C2B45632   5.234   4.644   6.558
 3492POPC   C3B45633   5.026   4.636   6.936
 3492POPC   C4B45634   5.022   4.592   7.333
 3493POPC   NC345635  12.090  34.875   5.480
 3493POPC   PO445636  12.392  34.253   5.269
 3493POPC   GL145637  12.232  34.287   5.722
 3493POPC   GL245638  11.914  34.238   5.881
 3493POPC   C1A45639  12.378  34.266   6.157
 3493POPC   D2A45640  12.318  34.527   6.541
 3493POPC   C3A45641  12.381  34.317   6.922
 3493POPC   C4A45642  12.031  34.171   7.156
 3493POPC   C1B45643  11.991  34.617   6.122
 3493POPC   C2B45644  11.905  34.846   6.508
 3493POPC   C3B45645  12.001  34.935   6.923
 3493POPC   C4B45646  11.813  34.852   7.292
 3494POPC   NC345647  20.152  29.365   5.403
 3494POPC   PO445648  19.762  28.881   5.224
 3494POPC   GL145649  19.830  29.078   5.677
 3494POPC   GL245650  19.581  29.213   5.864
 3494POPC   C1A45651  19.994  28.974   6.108
 3494POPC   D2A45652  20.140  29.118   6.513
 3494POPC   C3A45653  20.011  29.022   6.920
 3494POPC   C4A45654  20.268  29.212   7.214
 3494POPC   C1B45655  19.750  29.387   6.248
 3494POPC   C2B45656  19.715  29.420   6.683
 3494POPC   C3B45657  19.863  29.510   7.071
 3494POPC   C4B45658  19.791  29.200   7.382
 3495POPC   NC345659   6.979  20.896   5.662
 3495POPC   PO445660   6.393  20.607   5.390
 3495POPC   GL145661   6.556  20.586   5.800
 3495POPC   GL245662   6.475  20.923   5.815
 3495POPC   C1A45663   6.563  20.416   6.237
 3495POPC   D2A45664   6.775  20.256   6.611
 3495POPC   C3A45665   6.769  20.454   7.044
 3495POPC   C4A45666   7.098  20.734   7.265
 3495POPC   C1B45667   6.654  20.928   6.234
 3495POPC   C2B45668   6.606  20.780   6.659
 3495POPC   C3B45669   6.689  20.960   7.072
 3495POPC   C4B45670   6.506  21.085   7.434
 3496POPC   NC345671  23.655  36.771   5.533
 3496POPC   PO445672  24.030  37.384   5.575
 3496POPC   GL145673  23.768  37.159   5.881
 3496POPC   GL245674  23.429  37.194   5.981
 3496POPC   C1A45675  23.745  37.028   6.341
 3496POPC   D2A45676  23.566  37.018   6.751
 3496POPC   C3A45677  23.820  36.827   7.066
 3496POPC   C4A45678  23.805  37.069   7.399
 3496POPC   C1B45679  23.357  36.743   6.173
 3496POPC   C2B45680  23.430  36.536   6.577
 3496POPC   C3B45681  23.369  36.609   7.015
 3496POPC   C4B45682  23.481  36.669   7.486
 3497POPC   NC345683  30.421  34.355   5.564
 3497POPC   PO445684  30.908  34.781   5.512
 3497POPC   GL145685  30.985  34.671   5.920
 3497POPC   GL245686  30.846  34.345   5.916
 3497POPC   C1A45687  30.979  34.619   6.348
 3497POPC   D2A45688  31.015  34.649   6.759
 3497POPC   C3A45689  30.623  34.613   6.941
 3497POPC   C4A45690  30.739  34.414   7.288
 3497POPC   C1B45691  30.766  34.133   6.338
 3497POPC   C2B45692  30.755  34.142   6.792
 3497POPC   C3B45693  30.441  34.083   7.088
 3497POPC   C4B45694  30.435  34.108   7.540
 3498POPC   NC345695  39.370  18.144   5.312
 3498POPC   PO445696  38.728  18.248   5.387
 3498POPC   GL145697  39.094  18.343   5.720
 3498POPC   GL245698  39.242  18.683   5.671
 3498POPC   C1A45699  39.334  18.132   6.106
 3498POPC   D2A45700  39.241  17.824   6.471
 3498POPC   C3A45701  39.360  17.900   6.925
 3498POPC   C4A45702  39.177  18.234   7.197
 3498POPC   C1B45703  39.445  18.629   6.080
 3498POPC   C2B45704  39.465  18.453   6.523
 3498POPC   C3B45705  39.383  18.658   6.931
 3498POPC   C4B45706  39.338  18.690   7.349
 3499POPC   NC345707  40.281  18.049   5.406
 3499POPC   PO445708  39.705  18.456   5.427
 3499POPC   GL145709  39.788  18.283   5.826
 3499POPC   GL245710  40.158  18.283   5.849
 3499POPC   C1A45711  39.876  18.279   6.269
 3499POPC   D2A45712  40.063  18.253   6.675
 3499POPC   C3A45713  39.718  18.270   6.951
 3499POPC   C4A45714  39.676  18.278   7.382
 3499POPC   C1B45715  40.396  18.288   6.244
 3499POPC   C2B45716  40.631  18.238   6.624
 3499POPC   C3B45717  40.472  18.312   7.034
 3499POPC   C4B45718  40.131  18.119   7.188
 3500POPC   NC345719  36.841  13.892   5.123
 3500POPC   PO445720  37.060  14.407   5.496
 3500POPC   GL145721  36.987  14.494   5.912
 3500POPC   GL245722  37.070  14.204   6.057
 3500POPC   C1A45723  36.728  14.532   6.282
 3500POPC   D2A45724  36.579  14.716   6.653
 3500POPC   C3A45725  36.818  14.506   6.944
 3500POPC   C4A45726  36.936  14.392   7.361
 3500POPC   C1B45727  36.852  13.998   6.354
 3500POPC   C2B45728  36.945  14.002   6.778
 3500POPC   C3B45729  37.122  13.947   7.156
 3500POPC   C4B45730  36.831  13.904   7.448
 3501POPC   NC345731  34.133  12.245   5.544
 3501POPC   PO445732  34.735  11.850   5.451
 3501POPC   GL145733  34.654  11.970   5.856
 3501POPC   GL245734  34.972  11.789   5.912
 3501POPC   C1A45735  34.453  12.115   6.250
 3501POPC   D2A45736  34.476  11.919   6.664
 3501POPC   C3A45737  34.531  12.222   6.982
 3501POPC   C4A45738  34.223  12.391   7.237
 3501POPC   C1B45739  34.850  11.791   6.325
 3501POPC   C2B45740  34.889  11.606   6.715
 3501POPC   C3B45741  34.746  11.771   7.100
 3501POPC   C4B45742  34.912  12.153   7.329
 3502POPC   NC345743  14.662  23.020   5.220
 3502POPC   PO445744  14.186  22.680   5.532
 3502POPC   GL145745  14.350  22.949   5.818
 3502POPC   GL245746  14.613  22.738   5.857
 3502POPC   C1A45747  14.496  23.061   6.223
 3502POPC   D2A45748  14.285  22.991   6.578
 3502POPC   C3A45749  14.464  23.145   6.954
 3502POPC   C4A45750  14.598  23.307   7.324
 3502POPC   C1B45751  14.252  22.615   6.192
 3502POPC   C2B45752  14.170  22.490   6.620
 3502POPC   C3B45753  14.238  22.691   6.998
 3502POPC   C4B45754  14.491  22.791   7.396
 3503POPC   NC345755  21.278  36.586   5.588
 3503POPC   PO445756  21.477  35.950   5.268
 3503POPC   GL145757  21.489  35.944   5.745
 3503POPC   GL245758  21.415  36.241   5.935
 3503POPC   C1A45759  21.512  35.823   6.198
 3503POPC   D2A45760  21.317  36.088   6.533
 3503POPC   C3A45761  21.181  35.893   6.920
 3503POPC   C4A45762  21.578  35.779   7.145
 3503POPC   C1B45763  21.059  36.373   6.183
 3503POPC   C2B45764  20.953  36.443   6.565
 3503POPC   C3B45765  21.136  36.447   6.941
 3503POPC   C4B45766  21.359  36.251   7.255
 3504POPC   NC345767  27.106  21.747   5.534
 3504POPC   PO445768  27.007  22.406   5.553
 3504POPC   GL145769  26.846  22.067   5.871
 3504POPC   GL245770  26.485  21.958   5.898
 3504POPC   C1A45771  26.725  22.173   6.305
 3504POPC   D2A45772  26.862  22.516   6.597
 3504POPC   C3A45773  26.944  22.351   7.032
 3504POPC   C4A45774  27.238  22.502   7.326
 3504POPC   C1B45775  26.345  21.818   6.240
 3504POPC   C2B45776  26.384  21.904   6.632
 3504POPC   C3B45777  26.366  21.699   6.995
 3504POPC   C4B45778  26.645  21.903   7.245
 3505POPC   NC345779  32.567  38.632   5.532
 3505POPC   PO445780  32.876  38.158   5.254
 3505POPC   GL145781  33.020  38.397   5.691
 3505POPC   GL245782  32.769  38.418   5.943
 3505POPC   C1A45783  33.204  38.446   6.166
 3505POPC   D2A45784  33.094  38.409   6.601
 3505POPC   C3A45785  33.271  38.465   7.026
 3505POPC   C4A45786  33.118  38.365   7.456
 3505POPC   C1B45787  32.570  38.375   6.326
 3505POPC   C2B45788  32.640  38.574   6.689
 3505POPC   C3B45789  32.767  38.496   7.078
 3505POPC   C4B45790  32.613  38.308   7.428
 3506POPC   NC345791  35.009  23.988   5.593
 3506POPC   PO445792  35.505  23.643   5.387
 3506POPC   GL145793  35.384  23.685   5.803
 3506POPC   GL245794  35.318  23.346   5.816
 3506POPC   C1A45795  35.396  23.920   6.192
 3506POPC   D2A45796  35.330  24.190   6.533
 3506POPC   C3A45797  35.311  23.957   6.927
 3506POPC   C4A45798  35.363  23.885   7.356
 3506POPC   C1B45799  35.182  23.449   6.251
 3506POPC   C2B45800  35.185  23.505   6.699
 3506POPC   C3B45801  35.082  23.477   7.140
 3506POPC   C4B45802  35.246  23.449   7.574
 3507POPC   NC345803  22.217  27.931   5.156
 3507POPC   PO445804  22.097  28.622   5.349
 3507POPC   GL145805  22.270  28.501   5.742
 3507POPC   GL245806  21.991  28.402   5.856
 3507POPC   C1A45807  22.416  28.381   6.183
 3507POPC   D2A45808  22.443  28.580   6.585
 3507POPC   C3A45809  22.328  28.338   6.898
 3507POPC   C4A45810  22.565  28.151   7.211
 3507POPC   C1B45811  21.860  28.135   6.181
 3507POPC   C2B45812  21.895  28.276   6.593
 3507POPC   C3B45813  21.894  28.058   6.949
 3507POPC   C4B45814  22.048  28.217   7.318
 3508POPC   NC345815   7.950   7.490   5.333
 3508POPC   PO445816   8.587   7.671   5.426
 3508POPC   GL145817   8.308   7.413   5.764
 3508POPC   GL245818   7.953   7.267   5.785
 3508POPC   C1A45819   8.203   7.322   6.222
 3508POPC   D2A45820   8.071   7.492   6.617
 3508POPC   C3A45821   8.265   7.473   7.045
 3508POPC   C4A45822   8.177   7.653   7.463
 3508POPC   C1B45823   7.770   7.010   6.120
 3508POPC   C2B45824   7.681   7.122   6.558
 3508POPC   C3B45825   7.906   7.109   6.943
 3508POPC   C4B45826   7.886   7.216   7.364
 3509POPC   NC345827  30.324  28.121   5.573
 3509POPC   PO445828  29.741  28.443   5.278
 3509POPC   GL145829  29.899  28.378   5.725
 3509POPC   GL245830  29.805  28.057   5.899
 3509POPC   C1A45831  29.881  28.489   6.192
 3509POPC   D2A45832  29.669  28.654   6.590
 3509POPC   C3A45833  29.796  28.441   7.000
 3509POPC   C4A45834  30.121  28.419   7.387
 3509POPC   C1B45835  30.069  28.000   6.267
 3509POPC   C2B45836  30.045  28.074   6.723
 3509POPC   C3B45837  29.923  27.977   7.160
 3509POPC   C4B45838  29.675  28.192   7.495
 3510POPC   NC345839  14.008  39.412   5.431
 3510POPC   PO445840  14.647  39.293   5.340
 3510POPC   GL145841  14.384  39.181   5.723
 3510POPC   GL245842  14.339  39.519   5.806
 3510POPC   C1A45843  14.107  39.146   6.108
 3510POPC   D2A45844  14.079  39.341   6.533
 3510POPC   C3A45845  14.407  39.214   6.823
 3510POPC   C4A45846  14.621  38.918   7.112
 3510POPC   C1B45847  14.518  39.429   6.192
 3510POPC   C2B45848  14.571  39.633   6.559
 3510POPC   C3B45849  14.635  39.649   6.985
 3510POPC   C4B45850  14.494  39.376   7.297
 3511POPC   NC345851  35.657  12.840   5.494
 3511POPC   PO445852  35.119  13.137   5.429
 3511POPC   GL145853  35.259  12.952   5.826
 3511POPC   GL245854  35.377  12.607   5.846
 3511POPC   C1A45855  35.146  12.809   6.251
 3511POPC   D2A45856  35.285  12.575   6.595
 3511POPC   C3A45857  35.271  12.824   6.965
 3511POPC   C4A45858  35.134  12.797   7.416
 3511POPC   C1B45859  35.655  12.857   6.145
 3511POPC   C2B45860  35.646  12.949   6.562
 3511POPC   C3B45861  35.779  12.960   6.960
 3511POPC   C4B45862  35.578  13.023   7.314
 3512POPC   NC345863   2.431  20.815   5.306
 3512POPC   PO445864   1.844  20.537   5.385
 3512POPC   GL145865   1.789  20.515   5.839
 3512POPC   GL245866   2.150  20.507   5.910
 3512POPC   C1A45867   1.826  20.474   6.309
 3512POPC   D2A45868   2.049  20.729   6.622
 3512POPC   C3A45869   1.901  20.697   7.069
 3512POPC   C4A45870   1.686  20.644   7.485
 3512POPC   C1B45871   2.333  20.393   6.320
 3512POPC   C2B45872   2.153  20.242   6.712
 3512POPC   C3B45873   2.014  20.218   7.130
 3512POPC   C4B45874   2.202  20.419   7.505
 3513POPC   NC345875  41.174  11.915   5.426
 3513POPC   PO445876  41.842  12.277   5.367
 3513POPC   GL145877  41.589  12.165   5.729
 3513POPC   GL245878  41.809  11.948   5.866
 3513POPC   C1A45879  41.333  11.977   6.077
 3513POPC   D2A45880  41.207  11.899   6.507
 3513POPC   C3A45881  41.517  11.941   6.837
 3513POPC   C4A45882  41.416  12.109   7.236
 3513POPC   C1B45883  41.755  12.254   6.229
 3513POPC   C2B45884  41.884  12.308   6.667
 3513POPC   C3B45885  41.882  12.262   7.108
 3513POPC   C4B45886  41.853  12.002   7.456
 3514POPC   NC345887  37.187   4.754   5.453
 3514POPC   PO445888  36.775   5.318   5.377
 3514POPC   GL145889  36.997   5.156   5.754
 3514POPC   GL245890  36.713   5.202   5.921
 3514POPC   C1A45891  37.116   5.015   6.194
 3514POPC   D2A45892  36.956   5.202   6.597
 3514POPC   C3A45893  37.199   5.114   6.964
 3514POPC   C4A45894  37.057   4.825   7.256
 3514POPC   C1B45895  36.607   4.873   6.167
 3514POPC   C2B45896  36.595   4.784   6.569
 3514POPC   C3B45897  36.513   4.909   6.963
 3514POPC   C4B45898  36.540   4.800   7.376
 3515POPC   NC345899  41.715  42.406   5.332
 3515POPC   PO445900  41.194  42.086   5.572
 3515POPC   GL145901  41.509  42.299   5.804
 3515POPC   GL245902  41.504  42.638   5.747
 3515POPC   C1A45903  41.708  42.205   6.210
 3515POPC   D2A45904  41.690  41.873   6.528
 3515POPC   C3A45905  41.600  42.005   6.975
 3515POPC   C4A45906  41.947  42.108   7.265
 3515POPC   C1B45907  41.386  42.627   6.183
 3515POPC   C2B45908  41.435  42.455   6.611
 3515POPC   C3B45909  41.267  42.450   7.032
 3515POPC   C4B45910  41.244  42.790   7.372
 3516POPC   NC345911  38.526  16.867   5.438
 3516POPC   PO445912  38.047  16.366   5.485
 3516POPC   GL145913  38.257  16.467   5.893
 3516POPC   GL245914  38.537  16.704   5.906
 3516POPC   C1A45915  38.505  16.390   6.304
 3516POPC   D2A45916  38.624  16.343   6.754
 3516POPC   C3A45917  38.381  16.492   7.124
 3516POPC   C4A45918  38.659  16.784   7.230
 3516POPC   C1B45919  38.330  16.879   6.251
 3516POPC   C2B45920  38.289  16.730   6.677
 3516POPC   C3B45921  38.247  17.005   7.067
 3516POPC   C4B45922  38.279  17.013   7.535
 3517POPC   NC345923  30.901   8.430   5.468
 3517POPC   PO445924  30.358   8.075   5.351
 3517POPC   GL145925  30.258   8.174   5.771
 3517POPC   GL245926  30.525   8.414   5.818
 3517POPC   C1A45927  30.367   8.134   6.203
 3517POPC   D2A45928  30.410   8.357   6.530
 3517POPC   C3A45929  30.489   8.125   6.841
 3517POPC   C4A45930  30.432   8.162   7.247
 3517POPC   C1B45931  30.855   8.253   6.149
 3517POPC   C2B45932  30.913   8.392   6.582
 3517POPC   C3B45933  30.978   8.201   6.979
 3517POPC   C4B45934  30.911   8.389   7.346
 3518POPC   NC345935  23.779  43.524   5.188
 3518POPC   PO445936  24.108  42.958   5.446
 3518POPC   GL145937  23.871  43.162   5.781
 3518POPC   GL245938  23.797  43.497   5.693
 3518POPC   C1A45939  23.815  43.187   6.224
 3518POPC   D2A45940  23.709  43.030   6.648
 3518POPC   C3A45941  23.925  43.043   7.079
 3518POPC   C4A45942  23.484  43.085   7.252
 3518POPC   C1B45943  23.492  43.543   6.013
 3518POPC   C2B45944  23.511  43.534   6.478
 3518POPC   C3B45945  23.331  43.364   6.852
 3518POPC   C4B45946  23.356  43.583   7.227
 3519POPC   NC345947  13.794  10.534   5.615
 3519POPC   PO445948  14.437  10.338   5.355
 3519POPC   GL145949  14.317  10.500   5.791
 3519POPC   GL245950  14.610  10.399   5.976
 3519POPC   C1A45951  14.293  10.708   6.246
 3519POPC   D2A45952  14.169  10.980   6.636
 3519POPC   C3A45953  14.314  10.830   7.046
 3519POPC   C4A45954  14.161  10.504   7.331
 3519POPC   C1B45955  14.451  10.228   6.383
 3519POPC   C2B45956  14.377  10.371   6.796
 3519POPC   C3B45957  14.603  10.344   7.184
 3519POPC   C4B45958  14.571  10.249   7.615
 3520POPC   NC345959  11.418  44.884   5.487
 3520POPC   PO445960  11.098  44.246   5.423
 3520POPC   GL145961  11.204  44.526   5.782
 3520POPC   GL245962  11.191  44.901   5.921
 3520POPC   C1A45963  11.438  44.437   6.148
 3520POPC   D2A45964  11.285  44.398   6.544
 3520POPC   C3A45965  11.510  44.288   6.904
 3520POPC   C4A45966  11.324  44.401   7.286
 3520POPC   C1B45967  11.301  44.915   6.337
 3520POPC   C2B45968  11.315  44.885   6.764
 3520POPC   C3B45969  11.306  44.901   7.179
 3520POPC   C4B45970  11.380   0.181   7.488
 3521POPC   NC345971  10.368  29.570   5.467
 3521POPC   PO445972  10.505  30.291   5.434
 3521POPC   GL145973  10.409  30.010   5.782
 3521POPC   GL245974  10.694  29.774   5.808
 3521POPC   C1A45975  10.299  30.081   6.237
 3521POPC   D2A45976  10.553  30.306   6.575
 3521POPC   C3A45977  10.499  30.143   7.004
 3521POPC   C4A45978  10.473  30.058   7.477
 3521POPC   C1B45979  10.531  29.632   6.191
 3521POPC   C2B45980  10.573  29.789   6.608
 3521POPC   C3B45981  10.761  29.723   7.012
 3521POPC   C4B45982  10.869  29.752   7.434
 3522POPC   NC345983  40.867  44.926   5.468
 3522POPC   PO445984  40.412  44.521   5.628
 3522POPC   GL145985  40.677  44.701   5.924
 3522POPC   GL245986  41.035  44.622   5.822
 3522POPC   C1A45987  40.581  44.695   6.358
 3522POPC   D2A45988  40.388  44.529   6.736
 3522POPC   C3A45989  40.609  44.643   7.117
 3522POPC   C4A45990  40.957  44.905   7.232
 3522POPC   C1B45991  41.027  44.428   6.201
 3522POPC   C2B45992  41.010  44.569   6.601
 3522POPC   C3B45993  40.865  44.289   6.887
 3522POPC   C4B45994  40.888  44.154   7.307
 3523POPC   NC345995  38.517   4.442   5.466
 3523POPC   PO445996  37.767   4.365   5.446
 3523POPC   GL145997  38.107   4.491   5.809
 3523POPC   GL245998  38.381   4.245   5.900
 3523POPC   C1A45999  38.324   4.580   6.264
 3523POPC   D2A46000  38.490   4.548   6.699
 3523POPC   C3A46001  38.204   4.422   7.053
 3523POPC   C4A46002  38.336   4.186   7.448
 3523POPC   C1B46003  38.626   4.170   6.273
 3523POPC   C2B46004  38.635   4.058   6.706
 3523POPC   C3B46005  38.705   4.145   7.102
 3523POPC   C4B46006  38.712   3.844   7.388
 3524POPC   NC346007   0.148  27.435   5.568
 3524POPC   PO446008  44.559  27.343   5.227
 3524POPC   GL146009  44.658  27.293   5.741
 3524POPC   GL246010  44.831  27.565   5.974
 3524POPC   C1A46011  44.398  27.410   6.178
 3524POPC   D2A46012  44.173  27.493   6.584
 3524POPC   C3A46013  44.335  27.740   6.942
 3524POPC   C4A46014  44.654  27.677   7.295
 3524POPC   C1B46015  44.742  27.769   6.384
 3524POPC   C2B46016  44.837  27.732   6.829
 3524POPC   C3B46017   0.093  27.455   7.156
 3524POPC   C4B46018   0.015  27.169   7.539
 3525POPC   NC346019  27.020  24.929   5.529
 3525POPC   PO446020  26.783  25.556   5.424
 3525POPC   GL146021  26.579  25.337   5.767
 3525POPC   GL246022  26.872  25.186   5.947
 3525POPC   C1A46023  26.454  25.253   6.215
 3525POPC   D2A46024  26.699  25.139   6.588
 3525POPC   C3A46025  26.503  25.237   6.974
 3525POPC   C4A46026  26.560  25.094   7.412
 3525POPC   C1B46027  27.168  25.066   6.299
 3525POPC   C2B46028  27.171  25.049   6.789
 3525POPC   C3B46029  27.037  25.074   7.236
 3525POPC   C4B46030  27.294  25.172   7.623
 3526POPC   NC346031   7.134  41.169   5.420
 3526POPC   PO446032   7.520  40.626   5.421
 3526POPC   GL146033   7.474  40.745   5.821
 3526POPC   GL246034   7.724  40.985   5.779
 3526POPC   C1A46035   7.450  40.650   6.269
 3526POPC   D2A46036   7.247  40.757   6.666
 3526POPC   C3A46037   7.445  40.817   7.027
 3526POPC   C4A46038   7.867  40.729   7.072
 3526POPC   C1B46039   7.707  41.092   6.187
 3526POPC   C2B46040   7.738  40.980   6.610
 3526POPC   C3B46041   7.730  41.223   6.960
 3526POPC   C4B46042   7.755  41.118   7.368
 3527POPC   NC346043  22.831  27.374   5.368
 3527POPC   PO446044  23.509  27.380   5.457
 3527POPC   GL146045  23.151  27.575   5.725
 3527POPC   GL246046  23.034  27.267   5.821
 3527POPC   C1A46047  23.032  27.631   6.198
 3527POPC   D2A46048  22.743  27.584   6.568
 3527POPC   C3A46049  22.816  27.721   6.930
 3527POPC   C4A46050  22.773  27.683   7.306
 3527POPC   C1B46051  22.951  27.117   6.209
 3527POPC   C2B46052  23.086  27.205   6.595
 3527POPC   C3B46053  23.026  27.273   7.024
 3527POPC   C4B46054  22.930  27.022   7.361
 3528POPC   NC346055  35.864  31.669   5.487
 3528POPC   PO446056  36.357  31.152   5.381
 3528POPC   GL146057  36.250  31.426   5.731
 3528POPC   GL246058  35.934  31.298   5.857
 3528POPC   C1A46059  36.269  31.525   6.193
 3528POPC   D2A46060  36.432  31.379   6.602
 3528POPC   C3A46061  36.212  31.547   6.966
 3528POPC   C4A46062  35.929  31.658   7.291
 3528POPC   C1B46063  36.009  31.087   6.269
 3528POPC   C2B46064  35.917  31.245   6.682
 3528POPC   C3B46065  35.914  31.169   7.133
 3528POPC   C4B46066  35.916  31.289   7.623
 3529POPC   NC346067  27.153  11.502   5.522
 3529POPC   PO446068  27.687  11.218   5.132
 3529POPC   GL146069  27.562  11.292   5.662
 3529POPC   GL246070  27.659  11.586   5.788
 3529POPC   C1A46071  27.399  11.158   6.140
 3529POPC   D2A46072  27.545  10.983   6.580
 3529POPC   C3A46073  27.428  11.151   7.023
 3529POPC   C4A46074  27.589  11.308   7.471
 3529POPC   C1B46075  27.441  11.675   6.186
 3529POPC   C2B46076  27.386  11.482   6.618
 3529POPC   C3B46077  27.485  11.642   7.061
 3529POPC   C4B46078  27.300  11.709   7.513
 3530POPC   NC346079  26.255  26.520   5.399
 3530POPC   PO446080  25.897  27.131   5.327
 3530POPC   GL146081  26.093  26.966   5.719
 3530POPC   GL246082  26.338  26.713   5.861
 3530POPC   C1A46083  26.128  27.071   6.160
 3530POPC   D2A46084  25.870  26.919   6.489
 3530POPC   C3A46085  26.024  26.970   6.896
 3530POPC   C4A46086  25.763  26.804   7.212
 3530POPC   C1B46087  26.100  26.514   6.170
 3530POPC   C2B46088  26.017  26.415   6.591
 3530POPC   C3B46089  26.242  26.495   6.967
 3530POPC   C4B46090  26.528  26.544   7.325
 3531POPC   NC346091  15.029  24.945   5.507
 3531POPC   PO446092  15.239  25.589   5.572
 3531POPC   GL146093  15.144  25.278   5.895
 3531POPC   GL246094  15.298  24.934   5.981
 3531POPC   C1A46095  15.180  25.289   6.342
 3531POPC   D2A46096  15.064  25.126   6.739
 3531POPC   C3A46097  15.084  25.401   7.114
 3531POPC   C4A46098  15.428  25.235   7.334
 3531POPC   C1B46099  14.881  24.869   6.187
 3531POPC   C2B46100  14.606  25.087   6.497
 3531POPC   C3B46101  14.628  25.051   6.979
 3531POPC   C4B46102  15.039  24.895   7.217
 3532POPC   NC346103  30.845  23.314   5.357
 3532POPC   PO446104  30.474  22.861   5.653
 3532POPC   GL146105  30.671  22.988   5.931
 3532POPC   GL246106  30.938  22.754   5.984
 3532POPC   C1A46107  30.535  22.904   6.347
 3532POPC   D2A46108  30.679  22.621   6.657
 3532POPC   C3A46109  30.529  22.731   7.058
 3532POPC   C4A46110  30.528  22.505   7.448
 3532POPC   C1B46111  30.995  23.155   6.260
 3532POPC   C2B46112  30.816  23.236   6.668
 3532POPC   C3B46113  30.867  23.151   7.119
 3532POPC   C4B46114  31.005  23.227   7.556
 3533POPC   NC346115   6.742  34.761   5.220
 3533POPC   PO446116   6.307  34.446   5.529
 3533POPC   GL146117   6.284  34.654   5.876
 3533POPC   GL246118   6.554  34.874   5.699
 3533POPC   C1A46119   6.310  34.543   6.297
 3533POPC   D2A46120   6.606  34.652   6.592
 3533POPC   C3A46121   6.460  34.553   6.978
 3533POPC   C4A46122   6.795  34.400   7.208
 3533POPC   C1B46123   6.633  34.920   6.128
 3533POPC   C2B46124   6.582  35.162   6.485
 3533POPC   C3B46125   6.635  35.119   6.905
 3533POPC   C4B46126   6.683  34.904   7.305
 3534POPC   NC346127  35.737  39.125   5.506
 3534POPC   PO446128  36.211  39.547   5.423
 3534POPC   GL146129  36.141  39.325   5.773
 3534POPC   GL246130  35.815  39.502   5.863
 3534POPC   C1A46131  36.133  39.024   6.130
 3534POPC   D2A46132  36.151  38.741   6.499
 3534POPC   C3A46133  36.110  38.927   6.911
 3534POPC   C4A46134  35.867  39.054   7.271
 3534POPC   C1B46135  36.076  39.541   6.222
 3534POPC   C2B46136  36.167  39.308   6.580
 3534POPC   C3B46137  36.110  39.448   6.976
 3534POPC   C4B46138  35.749  39.563   7.180
 3535POPC   NC346139   4.920  23.672   4.965
 3535POPC   PO446140   4.851  23.627   5.657
 3535POPC   GL146141   5.172  23.898   5.901
 3535POPC   GL246142   4.854  24.124   5.882
 3535POPC   C1A46143   5.371  23.859   6.317
 3535POPC   D2A46144   5.110  23.564   6.555
 3535POPC   C3A46145   5.127  23.597   6.985
 3535POPC   C4A46146   5.305  23.978   7.196
 3535POPC   C1B46147   4.860  23.943   6.283
 3535POPC   C2B46148   4.988  24.066   6.658
 3535POPC   C3B46149   4.817  24.035   7.029
 3535POPC   C4B46150   4.796  23.761   7.335
 3536POPC   NC346151  28.187   1.835   5.380
 3536POPC   PO446152  28.628   2.289   5.127
 3536POPC   GL146153  28.581   2.103   5.626
 3536POPC   GL246154  28.242   2.219   5.756
 3536POPC   C1A46155  28.591   1.854   6.094
 3536POPC   D2A46156  28.365   1.757   6.527
 3536POPC   C3A46157  28.580   1.734   6.926
 3536POPC   C4A46158  28.708   2.020   7.246
 3536POPC   C1B46159  28.092   1.996   6.129
 3536POPC   C2B46160  27.966   2.074   6.568
 3536POPC   C3B46161  27.977   1.839   6.937
 3536POPC   C4B46162  28.235   1.783   7.305
 3537POPC   NC346163   4.837  43.085   5.427
 3537POPC   PO446164   5.381  43.434   5.530
 3537POPC   GL146165   5.115  43.272   5.827
 3537POPC   GL246166   5.171  42.915   5.798
 3537POPC   C1A46167   4.974  43.163   6.224
 3537POPC   D2A46168   4.748  43.085   6.587
 3537POPC   C3A46169   4.840  43.285   6.937
 3537POPC   C4A46170   4.983  43.120   7.278
 3537POPC   C1B46171   5.479  43.050   6.150
 3537POPC   C2B46172   5.533  43.256   6.519
 3537POPC   C3B46173   5.393  43.140   6.912
 3537POPC   C4B46174   5.532  43.091   7.303
 3538POPC   NC346175  30.161   0.025   5.377
 3538POPC   PO446176  29.747  44.420   5.324
 3538POPC   GL146177  29.916  44.657   5.662
 3538POPC   GL246178  30.277  44.610   5.731
 3538POPC   C1A46179  29.946  44.802   6.089
 3538POPC   D2A46180  29.913  44.571   6.482
 3538POPC   C3A46181  30.019  44.820   6.834
 3538POPC   C4A46182  29.963  44.735   7.281
 3538POPC   C1B46183  30.290  44.414   6.145
 3538POPC   C2B46184  30.431  44.536   6.576
 3538POPC   C3B46185  30.284  44.402   6.978
 3538POPC   C4B46186  30.084  44.260   7.342
 3539POPC   NC346187  42.359   6.305   5.438
 3539POPC   PO446188  42.142   6.971   5.532
 3539POPC   GL146189  42.227   6.759   5.938
 3539POPC   GL246190  42.316   6.387   5.944
 3539POPC   C1A46191  42.406   6.930   6.317
 3539POPC   D2A46192  42.605   6.782   6.642
 3539POPC   C3A46193  42.445   6.559   6.924
 3539POPC   C4A46194  42.556   6.237   7.206
 3539POPC   C1B46195  42.320   6.422   6.391
 3539POPC   C2B46196  42.030   6.689   6.608
 3539POPC   C3B46197  42.028   6.847   7.002
 3539POPC   C4B46198  42.189   6.593   7.370
 3540POPC   NC346199   7.149  30.050   5.348
 3540POPC   PO446200   7.848  29.928   5.511
 3540POPC   GL146201   7.595  29.905   5.889
 3540POPC   GL246202   7.364  30.196   5.877
 3540POPC   C1A46203   7.584  29.841   6.360
 3540POPC   D2A46204   7.344  29.904   6.762
 3540POPC   C3A46205   7.483  29.632   7.114
 3540POPC   C4A46206   7.346  29.669   7.540
 3540POPC   C1B46207   7.379  30.312   6.358
 3540POPC   C2B46208   7.570  30.344   6.822
 3540POPC   C3B46209   7.386  30.122   7.230
 3540POPC   C4B46210   7.521  30.139   7.709
 3541POPC   NC346211   1.336  15.937   5.627
 3541POPC   PO446212   0.913  16.371   5.305
 3541POPC   GL146213   1.078  16.333   5.787
 3541POPC   GL246214   1.431  16.314   5.934
 3541POPC   C1A46215   1.078  16.107   6.227
 3541POPC   D2A46216   0.817  15.988   6.569
 3541POPC   C3A46217   1.019  16.019   6.956
 3541POPC   C4A46218   1.151  15.686   7.140
 3541POPC   C1B46219   1.586  15.958   6.221
 3541POPC   C2B46220   1.395  15.886   6.608
 3541POPC   C3B46221   1.566  15.927   6.993
 3541POPC   C4B46222   1.388  16.240   7.262
 3542POPC   NC346223  23.674  22.967   5.456
 3542POPC   PO446224  24.149  22.569   5.641
 3542POPC   GL146225  23.896  22.862   5.905
 3542POPC   GL246226  23.555  22.750   5.897
 3542POPC   C1A46227  23.776  23.206   6.197
 3542POPC   D2A46228  23.930  23.370   6.608
 3542POPC   C3A46229  23.720  23.329   6.990
 3542POPC   C4A46230  23.902  23.302   7.357
 3542POPC   C1B46231  23.621  22.738   6.359
 3542POPC   C2B46232  23.825  22.862   6.776
 3542POPC   C3B46233  23.761  22.840   7.240
 3542POPC   C4B46234  23.517  22.604   7.551
 3543POPC   NC346235  41.479  37.123   5.479
 3543POPC   PO446236  41.338  36.426   5.428
 3543POPC   GL146237  41.261  36.736   5.753
 3543POPC   GL246238  41.626  36.709   5.784
 3543POPC   C1A46239  41.394  36.999   6.135
 3543POPC   D2A46240  41.706  37.034   6.490
 3543POPC   C3A46241  41.549  36.955   6.886
 3543POPC   C4A46242  41.637  36.940   7.294
 3543POPC   C1B46243  41.846  36.471   6.095
 3543POPC   C2B46244  41.941  36.554   6.494
 3543POPC   C3B46245  41.792  36.505   6.876
 3543POPC   C4B46246  41.788  36.446   7.300
 3544POPC   NC346247  43.565  20.303   5.473
 3544POPC   PO446248  43.858  19.696   5.224
 3544POPC   GL146249  43.822  19.661   5.699
 3544POPC   GL246250  43.703  19.333   5.752
 3544POPC   C1A46251  43.767  19.905   6.146
 3544POPC   D2A46252  43.965  19.943   6.534
 3544POPC   C3A46253  43.820  19.947   6.942
 3544POPC   C4A46254  44.056  20.095   7.286
 3544POPC   C1B46255  43.979  19.443   6.123
 3544POPC   C2B46256  44.074  19.316   6.527
 3544POPC   C3B46257  44.023  19.477   6.908
 3544POPC   C4B46258  43.813  19.576   7.310
 3545POPC   NC346259  40.957  14.123   5.587
 3545POPC   PO446260  40.398  14.217   5.216
 3545POPC   GL146261  40.486  14.182   5.713
 3545POPC   GL246262  40.537  14.537   5.834
 3545POPC   C1A46263  40.683  14.209   6.180
 3545POPC   D2A46264  40.512  14.400   6.553
 3545POPC   C3A46265  40.765  14.276   6.876
 3545POPC   C4A46266  40.767  14.106   7.284
 3545POPC   C1B46267  40.696  14.756   6.187
 3545POPC   C2B46268  40.804  14.957   6.544
 3545POPC   C3B46269  40.625  14.814   6.910
 3545POPC   C4B46270  40.766  14.595   7.271
 3546POPC   NC346271   1.845  39.344   5.414
 3546POPC   PO446272   2.418  38.966   5.468
 3546POPC   GL146273   2.081  39.098   5.796
 3546POPC   GL246274   2.082  39.462   5.843
 3546POPC   C1A46275   1.878  39.093   6.223
 3546POPC   D2A46276   2.030  38.945   6.624
 3546POPC   C3A46277   1.872  39.134   6.954
 3546POPC   C4A46278   1.991  39.092   7.353
 3546POPC   C1B46279   2.257  39.604   6.199
 3546POPC   C2B46280   2.135  39.464   6.600
 3546POPC   C3B46281   2.240  39.481   7.035
 3546POPC   C4B46282   1.988  39.663   7.342
 3547POPC   NC346283  26.693   1.607   5.462
 3547POPC   PO446284  27.213   1.362   5.527
 3547POPC   GL146285  26.962   1.343   5.902
 3547POPC   GL246286  26.594   1.262   5.856
 3547POPC   C1A46287  26.849   1.232   6.321
 3547POPC   D2A46288  26.585   1.213   6.665
 3547POPC   C3A46289  26.844   1.340   7.001
 3547POPC   C4A46290  26.719   1.123   7.362
 3547POPC   C1B46291  26.362   1.434   6.229
 3547POPC   C2B46292  26.262   1.627   6.642
 3547POPC   C3B46293  26.407   1.571   7.091
 3547POPC   C4B46294  26.536   1.556   7.521
 3548POPC   NC346295   7.724   5.053   5.406
 3548POPC   PO446296   7.348   5.425   5.261
 3548POPC   GL146297   7.381   5.233   5.741
 3548POPC   GL246298   7.582   4.907   5.888
 3548POPC   C1A46299   7.190   5.104   6.156
 3548POPC   D2A46300   7.169   4.966   6.584
 3548POPC   C3A46301   7.276   5.178   6.947
 3548POPC   C4A46302   7.087   5.153   7.308
 3548POPC   C1B46303   7.658   4.987   6.370
 3548POPC   C2B46304   7.724   4.940   6.841
 3548POPC   C3B46305   7.646   4.982   7.302
 3548POPC   C4B46306   7.775   4.898   7.736
 3549POPC   NC346307  21.255  15.670   5.427
 3549POPC   PO446308  20.924  16.285   5.415
 3549POPC   GL146309  20.977  16.130   5.806
 3549POPC   GL246310  21.331  16.008   5.826
 3549POPC   C1A46311  21.102  16.252   6.216
 3549POPC   D2A46312  21.342  15.974   6.505
 3549POPC   C3A46313  21.256  16.041   6.940
 3549POPC   C4A46314  21.064  16.367   7.174
 3549POPC   C1B46315  21.431  15.645   6.104
 3549POPC   C2B46316  21.513  15.475   6.508
 3549POPC   C3B46317  21.631  15.690   6.852
 3549POPC   C4B46318  21.604  15.801   7.265
 3550POPC   NC346319  33.982   3.515   5.445
 3550POPC   PO446320  33.416   3.417   5.491
 3550POPC   GL146321  33.682   3.627   5.833
 3550POPC   GL246322  33.996   3.905   5.733
 3550POPC   C1A46323  33.764   3.414   6.244
 3550POPC   D2A46324  33.890   3.172   6.625
 3550POPC   C3A46325  33.823   3.427   6.934
 3550POPC   C4A46326  33.957   3.639   7.246
 3550POPC   C1B46327  33.949   3.902   6.172
 3550POPC   C2B46328  34.020   3.810   6.591
 3550POPC   C3B46329  34.217   3.955   6.943
 3550POPC   C4B46330  34.156   4.112   7.333
 3551POPC   NC346331   2.411  37.024   5.315
 3551POPC   PO446332   2.917  36.648   5.323
 3551POPC   GL146333   2.729  36.929   5.696
 3551POPC   GL246334   2.750  37.275   5.646
 3551POPC   C1A46335   2.435  36.922   6.068
 3551POPC   D2A46336   2.263  36.850   6.485
 3551POPC   C3A46337   2.573  36.768   6.809
 3551POPC   C4A46338   2.762  36.931   7.167
 3551POPC   C1B46339   2.574  37.418   6.063
 3551POPC   C2B46340   2.574  37.282   6.475
 3551POPC   C3B46341   2.545  37.317   6.912
 3551POPC   C4B46342   2.442  37.286   7.340
 3552POPC   NC346343  17.969  37.419   5.136
 3552POPC   PO446344  17.534  36.880   5.414
 3552POPC   GL146345  17.508  37.033   5.839
 3552POPC   GL246346  17.337  37.343   5.930
 3552POPC   C1A46347  17.642  37.044   6.246
 3552POPC   D2A46348  17.479  36.840   6.602
 3552POPC   C3A46349  17.667  36.681   6.990
 3552POPC   C4A46350  17.426  36.832   7.363
 3552POPC   C1B46351  17.166  37.184   6.338
 3552POPC   C2B46352  17.069  37.128   6.779
 3552POPC   C3B46353  17.099  37.247   7.213
 3552POPC   C4B46354  17.424  37.441   7.510
 3553POPC   NC346355  31.768   8.881   5.283
 3553POPC   PO446356  31.468   9.467   5.300
 3553POPC   GL146357  31.415   9.115   5.655
 3553POPC   GL246358  31.695   8.852   5.796
 3553POPC   C1A46359  31.430   9.187   6.132
 3553POPC   D2A46360  31.162   8.995   6.476
 3553POPC   C3A46361  31.262   9.045   6.937
 3553POPC   C4A46362  31.190   8.843   7.348
 3553POPC   C1B46363  31.578   8.705   6.241
 3553POPC   C2B46364  31.684   8.853   6.664
 3553POPC   C3B46365  31.685   8.815   7.116
 3553POPC   C4B46366  31.626   9.142   7.405
 3554POPC   NC346367   7.847  11.792   5.382
 3554POPC   PO446368   8.197  11.223   5.549
 3554POPC   GL146369   8.227  11.424   5.909
 3554POPC   GL246370   8.043  11.727   5.856
 3554POPC   C1A46371   8.244  11.246   6.326
 3554POPC   D2A46372   8.095  10.953   6.632
 3554POPC   C3A46373   8.099  11.119   7.066
 3554POPC   C4A46374   8.419  11.189   7.390
 3554POPC   C1B46375   8.162  11.754   6.300
 3554POPC   C2B46376   8.161  11.602   6.735
 3554POPC   C3B46377   8.128  11.714   7.162
 3554POPC   C4B46378   8.001  11.490   7.518
 3555POPC   NC346379   1.034   3.285   5.438
 3555POPC   PO446380   1.267   3.927   5.470
 3555POPC   GL146381   1.060   3.887   5.869
 3555POPC   GL246382   0.941   3.532   5.874
 3555POPC   C1A46383   1.248   3.799   6.289
 3555POPC   D2A46384   1.611   3.692   6.579
 3555POPC   C3A46385   1.478   3.445   6.960
 3555POPC   C4A46386   1.343   3.425   7.368
 3555POPC   C1B46387   0.833   3.494   6.285
 3555POPC   C2B46388   1.079   3.444   6.646
 3555POPC   C3B46389   0.965   3.314   7.055
 3555POPC   C4B46390   0.807   3.383   7.469
 3556POPC   NC346391   8.311  19.427   5.329
 3556POPC   PO446392   7.989  19.969   5.465
 3556POPC   GL146393   8.174  19.733   5.803
 3556POPC   GL246394   7.950  19.491   5.906
 3556POPC   C1A46395   8.415  19.864   6.189
 3556POPC   D2A46396   8.491  19.883   6.636
 3556POPC   C3A46397   8.268  19.752   6.997
 3556POPC   C4A46398   8.247  20.012   7.358
 3556POPC   C1B46399   7.923  19.804   6.255
 3556POPC   C2B46400   7.936  19.959   6.665
 3556POPC   C3B46401   7.796  19.988   7.087
 3556POPC   C4B46402   7.884  19.669   7.358
 3557POPC   NC346403  34.340   4.221   5.365
 3557POPC   PO446404  34.934   4.213   5.749
 3557POPC   GL146405  34.539   3.990   5.811
 3557POPC   GL246406  34.314   4.271   5.870
 3557POPC   C1A46407  34.439   3.906   6.236
 3557POPC   D2A46408  34.345   4.232   6.540
 3557POPC   C3A46409  34.740   4.334   6.788
 3557POPC   C4A46410  34.770   4.387   7.227
 3557POPC   C1B46411  34.497   4.565   6.146
 3557POPC   C2B46412  34.448   4.737   6.556
 3557POPC   C3B46413  34.356   4.579   6.996
 3557POPC   C4B46414  34.371   4.557   7.478
 3558POPC   NC346415  36.842  20.369   5.380
 3558POPC   PO446416  36.776  20.994   5.371
 3558POPC   GL146417  36.835  20.722   5.767
 3558POPC   GL246418  36.941  20.376   5.872
 3558POPC   C1A46419  36.750  20.779   6.225
 3558POPC   D2A46420  36.979  20.852   6.658
 3558POPC   C3A46421  36.809  20.631   7.058
 3558POPC   C4A46422  36.462  20.290   7.100
 3558POPC   C1B46423  37.146  20.463   6.279
 3558POPC   C2B46424  37.125  20.339   6.708
 3558POPC   C3B46425  37.040  20.158   7.095
 3558POPC   C4B46426  37.252  20.176   7.444
 3559POPC   NC346427  29.381  21.461   5.458
 3559POPC   PO446428  28.734  21.547   5.562
 3559POPC   GL146429  29.015  21.335   5.849
 3559POPC   GL246430  29.212  21.048   5.736
 3559POPC   C1A46431  29.036  21.400   6.298
 3559POPC   D2A46432  28.703  21.331   6.601
 3559POPC   C3A46433  28.848  21.330   7.027
 3559POPC   C4A46434  29.190  21.557   7.219
 3559POPC   C1B46435  29.493  21.234   6.094
 3559POPC   C2B46436  29.545  21.367   6.560
 3559POPC   C3B46437  29.488  21.202   7.025
 3559POPC   C4B46438  29.519  21.266   7.528
 3560POPC   NC346439  42.659  19.042   5.389
 3560POPC   PO446440  42.218  18.551   5.418
 3560POPC   GL146441  42.115  18.939   5.675
 3560POPC   GL246442  42.443  18.978   5.822
 3560POPC   C1A46443  42.096  19.248   6.056
 3560POPC   D2A46444  42.247  19.120   6.440
 3560POPC   C3A46445  42.173  19.279   6.815
 3560POPC   C4A46446  42.120  19.031   7.167
 3560POPC   C1B46447  42.663  19.154   6.142
 3560POPC   C2B46448  42.738  19.035   6.565
 3560POPC   C3B46449  42.636  19.146   6.962
 3560POPC   C4B46450  42.608  18.868   7.280
 3561POPC   NC346451  39.209  11.093   5.372
 3561POPC   PO446452  39.291  11.734   5.160
 3561POPC   GL146453  39.156  11.524   5.619
 3561POPC   GL246454  39.374  11.561   5.891
 3561POPC   C1A46455  39.159  11.136   6.014
 3561POPC   D2A46456  39.148  10.949   6.486
 3561POPC   C3A46457  39.226  11.094   6.907
 3561POPC   C4A46458  39.426  11.064   7.308
 3561POPC   C1B46459  39.183  11.672   6.248
 3561POPC   C2B46460  39.334  11.441   6.554
 3561POPC   C3B46461  39.506  11.522   6.948
 3561POPC   C4B46462  39.190  11.523   7.240
 3562POPC   NC346463  35.837  42.378   5.469
 3562POPC   PO446464  36.355  42.192   5.072
 3562POPC   GL146465  36.316  42.357   5.639
 3562POPC   GL246466  36.023  42.194   5.889
 3562POPC   C1A46467  36.445  42.298   6.105
 3562POPC   D2A46468  36.322  42.153   6.507
 3562POPC   C3A46469  36.445  42.393   6.874
 3562POPC   C4A46470  36.490  42.351   7.327
 3562POPC   C1B46471  35.852  42.283   6.281
 3562POPC   C2B46472  35.992  42.521   6.649
 3562POPC   C3B46473  35.971  42.349   7.064
 3562POPC   C4B46474  35.910  42.520   7.510
 3563POPC   NC346475  21.394  36.568   5.097
 3563POPC   PO446476  21.545  37.029   5.616
 3563POPC   GL146477  21.513  36.755   5.995
 3563POPC   GL246478  21.183  36.898   6.063
 3563POPC   C1A46479  21.412  36.644   6.435
 3563POPC   D2A46480  21.098  36.928   6.606
 3563POPC   C3A46481  21.201  36.955   7.013
 3563POPC   C4A46482  21.582  36.726   7.125
 3563POPC   C1B46483  21.524  37.131   6.335
 3563POPC   C2B46484  21.652  37.119   6.769
 3563POPC   C3B46485  21.572  37.247   7.209
 3563POPC   C4B46486  21.667  37.146   7.651
 3564POPC   NC346487  25.584  24.217   5.058
 3564POPC   PO446488  25.392  24.621   5.585
 3564POPC   GL146489  25.176  24.361   5.870
 3564POPC   GL246490  24.868  24.236   5.747
 3564POPC   C1A46491  25.350  24.293   6.253
 3564POPC   D2A46492  25.418  24.556   6.551
 3564POPC   C3A46493  25.451  24.310   6.881
 3564POPC   C4A46494  25.307  24.501   7.193
 3564POPC   C1B46495  24.877  24.120   6.201
 3564POPC   C2B46496  24.977  24.302   6.632
 3564POPC   C3B46497  24.941  24.134   7.046
 3564POPC   C4B46498  25.109  24.125   7.461
 3565POPC   NC346499  13.869  29.102   5.325
 3565POPC   PO446500  13.264  29.352   5.294
 3565POPC   GL146501  13.482  29.097   5.660
 3565POPC   GL246502  13.755  29.202   5.879
 3565POPC   C1A46503  13.385  28.897   6.086
 3565POPC   D2A46504  13.551  28.798   6.513
 3565POPC   C3A46505  13.649  29.135   6.785
 3565POPC   C4A46506  13.592  29.100   7.228
 3565POPC   C1B46507  13.542  29.328   6.294
 3565POPC   C2B46508  13.276  29.502   6.641
 3565POPC   C3B46509  13.485  29.602   7.035
 3565POPC   C4B46510  13.928  29.489   7.059
 3566POPC   NC346511   6.687  20.221   5.351
 3566POPC   PO446512   6.392  19.662   5.514
 3566POPC   GL146513   6.563  19.702   5.916
 3566POPC   GL246514   6.600  20.053   5.855
 3566POPC   C1A46515   6.586  19.717   6.367
 3566POPC   D2A46516   6.657  19.429   6.665
 3566POPC   C3A46517   6.449  19.529   7.017
 3566POPC   C4A46518   6.445  19.848   7.307
 3566POPC   C1B46519   6.939  20.006   6.147
 3566POPC   C2B46520   7.048  19.816   6.561
 3566POPC   C3B46521   6.810  19.872   6.944
 3566POPC   C4B46522   6.939  20.072   7.329
 3567POPC   NC346523   0.474   1.614   5.538
 3567POPC   PO446524   0.224   1.020   5.296
 3567POPC   GL146525   0.338   1.118   5.772
 3567POPC   GL246526   0.195   1.413   5.924
 3567POPC   C1A46527   0.379   1.021   6.245
 3567POPC   D2A46528   0.544   0.946   6.681
 3567POPC   C3A46529   0.218   0.928   6.973
 3567POPC   C4A46530   0.111   1.190   7.324
 3567POPC   C1B46531   0.598   1.486   6.179
 3567POPC   C2B46532   0.514   1.550   6.604
 3567POPC   C3B46533   0.502   1.385   7.016
 3567POPC   C4B46534   0.813   1.515   7.294
 3568POPC   NC346535  44.542   5.513   5.758
 3568POPC   PO446536  44.549   6.018   5.364
 3568POPC   GL146537  44.564   6.084   5.799
 3568POPC   GL246538  44.926   6.102   5.825
 3568POPC   C1A46539  44.343   5.956   6.201
 3568POPC   D2A46540  44.217   5.886   6.607
 3568POPC   C3A46541  44.398   5.577   6.897
 3568POPC   C4A46542  44.502   5.724   7.300
 3568POPC   C1B46543  44.900   5.855   6.219
 3568POPC   C2B46544  44.876   5.620   6.623
 3568POPC   C3B46545  44.937   5.805   7.034
 3568POPC   C4B46546   0.239   6.001   7.301
 3569POPC   NC346547  15.303  19.333   5.489
 3569POPC   PO446548  15.170  18.776   5.157
 3569POPC   GL146549  15.220  18.861   5.681
 3569POPC   GL246550  15.019  18.702   5.931
 3569POPC   C1A46551  15.381  19.045   6.135
 3569POPC   D2A46552  15.734  19.063   6.473
 3569POPC   C3A46553  15.578  19.107   6.916
 3569POPC   C4A46554  15.197  18.990   7.143
 3569POPC   C1B46555  14.930  18.864   6.340
 3569POPC   C2B46556  14.990  19.152   6.671
 3569POPC   C3B46557  14.767  19.230   7.064
 3569POPC   C4B46558  14.702  18.824   7.278
 3570POPC   NC346559   2.797  13.911   5.383
 3570POPC   PO446560   2.762  13.278   5.597
 3570POPC   GL146561   2.594  13.338   5.941
 3570POPC   GL246562   2.576  13.675   5.859
 3570POPC   C1A46563   2.644  13.247   6.343
 3570POPC   D2A46564   2.857  13.478   6.641
 3570POPC   C3A46565   2.766  13.304   7.021
 3570POPC   C4A46566   2.661  13.409   7.405
 3570POPC   C1B46567   2.716  13.782   6.235
 3570POPC   C2B46568   2.491  13.855   6.614
 3570POPC   C3B46569   2.422  13.704   7.026
 3570POPC   C4B46570   2.364  13.826   7.445
 3571POPC   NC346571  43.063  41.281   5.430
 3571POPC   PO446572  43.308  41.862   5.311
 3571POPC   GL146573  43.216  41.659   5.728
 3571POPC   GL246574  43.360  41.288   5.835
 3571POPC   C1A46575  43.037  41.595   6.133
 3571POPC   D2A46576  42.777  41.392   6.466
 3571POPC   C3A46577  42.860  41.246   6.899
 3571POPC   C4A46578  42.921  41.488   7.304
 3571POPC   C1B46579  43.211  41.135   6.243
 3571POPC   C2B46580  43.298  41.419   6.607
 3571POPC   C3B46581  43.346  41.314   7.041
 3571POPC   C4B46582  43.185  41.033   7.314
 3572POPC   NC346583   2.841  23.189   5.497
 3572POPC   PO446584   2.694  22.531   5.258
 3572POPC   GL146585   2.647  22.683   5.762
 3572POPC   GL246586   2.762  23.042   5.958
 3572POPC   C1A46587   2.618  22.677   6.252
 3572POPC   D2A46588   2.371  23.036   6.492
 3572POPC   C3A46589   2.489  23.242   6.896
 3572POPC   C4A46590   2.750  23.056   7.204
 3572POPC   C1B46591   3.038  22.943   6.290
 3572POPC   C2B46592   2.896  23.009   6.688
 3572POPC   C3B46593   2.989  22.689   6.957
 3572POPC   C4B46594   2.946  22.607   7.395
 3573POPC   NC346595  24.056  39.326   5.478
 3573POPC   PO446596  23.391  38.926   5.397
 3573POPC   GL146597  23.628  39.104   5.730
 3573POPC   GL246598  23.485  39.388   5.920
 3573POPC   C1A46599  23.762  39.002   6.122
 3573POPC   D2A46600  23.900  39.049   6.518
 3573POPC   C3A46601  23.723  39.035   6.903
 3573POPC   C4A46602  23.853  38.699   7.152
 3573POPC   C1B46603  23.670  39.472   6.320
 3573POPC   C2B46604  23.930  39.529   6.699
 3573POPC   C3B46605  24.033  39.382   7.126
 3573POPC   C4B46606  23.957  39.529   7.550
 3574POPC   NC346607  17.917  12.727   5.219
 3574POPC   PO446608  17.364  13.070   5.115
 3574POPC   GL146609  17.408  13.053   5.607
 3574POPC   GL246610  17.634  12.795   5.723
 3574POPC   C1A46611  17.339  13.040   6.089
 3574POPC   D2A46612  17.446  13.217   6.517
 3574POPC   C3A46613  17.470  12.940   6.880
 3574POPC   C4A46614  17.583  12.660   7.174
 3574POPC   C1B46615  17.859  12.965   6.060
 3574POPC   C2B46616  17.824  12.887   6.504
 3574POPC   C3B46617  17.975  12.944   6.938
 3574POPC   C4B46618  17.986  12.905   7.362
 3575POPC   NC346619  33.170  17.302   5.511
 3575POPC   PO446620  32.591  17.544   5.285
 3575POPC   GL146621  32.647  17.583   5.747
 3575POPC   GL246622  32.608  17.276   5.913
 3575POPC   C1A46623  32.975  17.597   6.105
 3575POPC   D2A46624  33.091  17.791   6.520
 3575POPC   C3A46625  33.184  17.639   6.926
 3575POPC   C4A46626  32.905  17.488   7.264
 3575POPC   C1B46627  32.803  17.124   6.255
 3575POPC   C2B46628  32.860  17.323   6.653
 3575POPC   C3B46629  33.116  17.144   6.956
 3575POPC   C4B46630  33.179  16.947   7.288
 3576POPC   NC346631  29.535  15.750   5.559
 3576POPC   PO446632  30.090  15.729   5.455
 3576POPC   GL146633  29.906  15.899   5.846
 3576POPC   GL246634  30.154  16.035   5.973
 3576POPC   C1A46635  29.724  15.847   6.246
 3576POPC   D2A46636  29.942  15.760   6.628
 3576POPC   C3A46637  29.722  15.706   6.986
 3576POPC   C4A46638  29.560  16.071   7.199
 3576POPC   C1B46639  30.368  15.917   6.344
 3576POPC   C2B46640  30.400  15.940   6.778
 3576POPC   C3B46641  30.094  16.036   7.096
 3576POPC   C4B46642  30.168  16.126   7.547
 3577POPC   NC346643   2.916  30.198   5.262
 3577POPC   PO446644   2.396  30.557   5.592
 3577POPC   GL146645   2.520  30.839   5.951
 3577POPC   GL246646   2.661  31.184   5.872
 3577POPC   C1A46647   2.478  30.814   6.396
 3577POPC   D2A46648   2.647  30.509   6.656
 3577POPC   C3A46649   2.564  30.361   7.054
 3577POPC   C4A46650   2.974  30.259   7.245
 3577POPC   C1B46651   2.855  31.176   6.277
 3577POPC   C2B46652   2.919  30.966   6.669
 3577POPC   C3B46653   2.903  30.746   7.066
 3577POPC   C4B46654   2.816  30.681   7.480
 3578POPC   NC346655  18.533  35.821   5.375
 3578POPC   PO446656  18.054  35.369   5.212
 3578POPC   GL146657  18.284  35.302   5.648
 3578POPC   GL246658  18.324  35.627   5.825
 3578POPC   C1A46659  18.163  35.155   6.088
 3578POPC   D2A46660  18.394  35.074   6.487
 3578POPC   C3A46661  18.384  35.248   6.905
 3578POPC   C4A46662  18.252  35.167   7.293
 3578POPC   C1B46663  18.554  35.477   6.202
 3578POPC   C2B46664  18.779  35.401   6.605
 3578POPC   C3B46665  18.718  35.652   6.993
 3578POPC   C4B46666  18.503  35.598   7.400
 3579POPC   NC346667  22.666  12.830   5.414
 3579POPC   PO446668  23.320  12.650   5.629
 3579POPC   GL146669  22.990  12.955   5.808
 3579POPC   GL246670  22.616  13.117   5.812
 3579POPC   C1A46671  22.836  12.829   6.194
 3579POPC   D2A46672  22.900  12.675   6.605
 3579POPC   C3A46673  22.894  12.984   6.927
 3579POPC   C4A46674  23.054  12.922   7.314
 3579POPC   C1B46675  22.399  13.143   6.170
 3579POPC   C2B46676  22.570  13.117   6.556
 3579POPC   C3B46677  22.405  13.194   6.960
 3579POPC   C4B46678  22.584  13.092   7.339
 3580POPC   NC346679  25.074  31.766   5.454
 3580POPC   PO446680  25.697  31.695   5.472
 3580POPC   GL146681  25.406  31.422   5.742
 3580POPC   GL246682  25.441  31.028   5.758
 3580POPC   C1A46683  25.255  31.399   6.182
 3580POPC   D2A46684  25.514  31.414   6.582
 3580POPC   C3A46685  25.381  31.677   6.955
 3580POPC   C4A46686  25.228  31.517   7.351
 3580POPC   C1B46687  25.418  30.918   6.202
 3580POPC   C2B46688  25.161  31.020   6.570
 3580POPC   C3B46689  25.195  31.198   6.957
 3580POPC   C4B46690  25.606  31.216   7.153
 3581POPC   NC346691  21.302  13.512   5.202
 3581POPC   PO446692  21.072  12.995   5.552
 3581POPC   GL146693  21.195  13.333   5.836
 3581POPC   GL246694  21.346  13.648   5.749
 3581POPC   C1A46695  21.291  13.476   6.266
 3581POPC   D2A46696  21.061  13.469   6.630
 3581POPC   C3A46697  21.340  13.434   6.965
 3581POPC   C4A46698  21.342  13.698   7.266
 3581POPC   C1B46699  21.604  13.833   6.102
 3581POPC   C2B46700  21.738  13.804   6.529
 3581POPC   C3B46701  21.634  13.945   6.939
 3581POPC   C4B46702  21.825  14.148   7.297
 3582POPC   NC346703  13.182   5.110   5.539
 3582POPC   PO446704  12.552   4.795   5.411
 3582POPC   GL146705  12.772   4.912   5.791
 3582POPC   GL246706  12.762   5.277   5.906
 3582POPC   C1A46707  12.740   4.827   6.228
 3582POPC   D2A46708  12.938   4.944   6.596
 3582POPC   C3A46709  12.690   5.112   6.920
 3582POPC   C4A46710  12.824   4.925   7.278
 3582POPC   C1B46711  12.716   5.348   6.369
 3582POPC   C2B46712  13.021   5.470   6.717
 3582POPC   C3B46713  13.007   5.414   7.174
 3582POPC   C4B46714  12.593   5.392   7.379
 3583POPC   NC346715  44.073  17.425   5.142
 3583POPC   PO446716  44.691  17.269   5.430
 3583POPC   GL146717  44.628  17.353   5.828
 3583POPC   GL246718  44.925  17.537   5.902
 3583POPC   C1A46719  44.520  17.543   6.202
 3583POPC   D2A46720  44.763  17.608   6.559
 3583POPC   C3A46721  44.470  17.551   6.887
 3583POPC   C4A46722  44.251  17.409   7.227
 3583POPC   C1B46723  44.972  17.234   6.223
 3583POPC   C2B46724   0.005  17.162   6.651
 3583POPC   C3B46725  44.985  17.428   7.001
 3583POPC   C4B46726  44.728  17.370   7.361
 3584POPC   NC346727  23.088  26.384   5.504
 3584POPC   PO446728  22.749  26.910   5.395
 3584POPC   GL146729  22.776  26.800   5.788
 3584POPC   GL246730  22.552  27.085   5.845
 3584POPC   C1A46731  23.039  26.626   6.116
 3584POPC   D2A46732  22.881  26.703   6.513
 3584POPC   C3A46733  23.022  26.781   6.887
 3584POPC   C4A46734  22.996  26.508   7.224
 3584POPC   C1B46735  22.491  27.296   6.236
 3584POPC   C2B46736  22.566  27.122   6.673
 3584POPC   C3B46737  22.514  27.252   7.118
 3584POPC   C4B46738  22.457  26.991   7.510
 3585POPC   NC346739  27.417  16.963   5.334
 3585POPC   PO446740  27.897  16.496   5.449
 3585POPC   GL146741  27.753  16.640   5.863
 3585POPC   GL246742  27.550  16.919   5.894
 3585POPC   C1A46743  27.556  16.560   6.278
 3585POPC   D2A46744  27.396  16.726   6.670
 3585POPC   C3A46745  27.430  16.516   7.062
 3585POPC   C4A46746  27.766  16.261   7.241
 3585POPC   C1B46747  27.615  17.067   6.337
 3585POPC   C2B46748  27.242  17.217   6.614
 3585POPC   C3B46749  27.149  17.246   7.067
 3585POPC   C4B46750  27.261  16.929   7.357
 3586POPC   NC346751  18.032  32.129   5.545
 3586POPC   PO446752  17.401  32.072   5.350
 3586POPC   GL146753  17.414  32.285   5.731
 3586POPC   GL246754  17.700  32.304   5.932
 3586POPC   C1A46755  17.283  32.120   6.153
 3586POPC   D2A46756  17.310  31.988   6.577
 3586POPC   C3A46757  17.285  32.142   7.005
 3586POPC   C4A46758  17.299  31.935   7.416
 3586POPC   C1B46759  17.750  32.244   6.378
 3586POPC   C2B46760  17.745  32.150   6.822
 3586POPC   C3B46761  17.937  32.264   7.229
 3586POPC   C4B46762  17.917  32.532   7.638
 3587POPC   NC346763   2.721  19.864   5.411
 3587POPC   PO446764   3.242  19.441   5.610
 3587POPC   GL146765   2.963  19.702   5.841
 3587POPC   GL246766   2.947  20.031   5.851
 3587POPC   C1A46767   2.759  19.633   6.212
 3587POPC   D2A46768   2.902  19.465   6.584
 3587POPC   C3A46769   2.651  19.543   6.923
 3587POPC   C4A46770   2.643  19.553   7.362
 3587POPC   C1B46771   2.800  20.163   6.283
 3587POPC   C2B46772   2.811  20.194   6.761
 3587POPC   C3B46773   2.934  19.981   7.202
 3587POPC   C4B46774   3.021  20.017   7.697
 3588POPC   NC346775  23.598  33.449   5.278
 3588POPC   PO446776  23.642  32.848   5.360
 3588POPC   GL146777  23.664  32.811   5.840
 3588POPC   GL246778  23.615  33.151   5.891
 3588POPC   C1A46779  23.429  32.909   6.278
 3588POPC   D2A46780  23.361  33.171   6.684
 3588POPC   C3A46781  23.574  33.059   7.081
 3588POPC   C4A46782  23.266  32.854   7.350
 3588POPC   C1B46783  23.684  33.374   6.306
 3588POPC   C2B46784  23.773  33.485   6.747
 3588POPC   C3B46785  24.098  33.446   7.070
 3588POPC   C4B46786  24.008  33.199   7.464
 3589POPC   NC346787  21.509   8.524   5.484
 3589POPC   PO446788  21.170   7.911   5.443
 3589POPC   GL146789  21.353   8.032   5.820
 3589POPC   GL246790  21.222   8.351   5.872
 3589POPC   C1A46791  21.457   8.096   6.256
 3589POPC   D2A46792  21.245   7.981   6.625
 3589POPC   C3A46793  21.530   8.074   6.903
 3589POPC   C4A46794  21.440   8.129   7.288
 3589POPC   C1B46795  21.544   8.583   6.153
 3589POPC   C2B46796  21.560   8.510   6.611
 3589POPC   C3B46797  21.427   8.586   7.055
 3589POPC   C4B46798  21.678   8.658   7.438
 3590POPC   NC346799  21.862  39.850   5.579
 3590POPC   PO446800  21.436  40.326   5.267
 3590POPC   GL146801  21.529  40.398   5.753
 3590POPC   GL246802  21.743  40.149   5.957
 3590POPC   C1A46803  21.334  40.285   6.203
 3590POPC   D2A46804  21.586  40.150   6.603
 3590POPC   C3A46805  21.394  39.902   6.938
 3590POPC   C4A46806  21.229  40.121   7.268
 3590POPC   C1B46807  21.649  39.783   6.255
 3590POPC   C2B46808  21.741  39.568   6.664
 3590POPC   C3B46809  21.821  39.678   7.098
 3590POPC   C4B46810  21.753  40.085   7.287
 3591POPC   NC346811  35.270  17.527   5.179
 3591POPC   PO446812  35.858  17.777   5.484
 3591POPC   GL146813  35.574  17.746   5.854
 3591POPC   GL246814  35.245  17.566   5.824
 3591POPC   C1A46815  35.413  17.658   6.286
 3591POPC   D2A46816  35.113  17.705   6.622
 3591POPC   C3A46817  35.356  17.511   6.962
 3591POPC   C4A46818  35.564  17.675   7.312
 3591POPC   C1B46819  35.007  17.378   6.200
 3591POPC   C2B46820  35.091  17.197   6.620
 3591POPC   C3B46821  34.922  17.270   7.038
 3591POPC   C4B46822  35.079  17.409   7.451
 3592POPC   NC346823  16.226  44.930   5.644
 3592POPC   PO446824  16.086  44.441   5.186
 3592POPC   GL146825  15.964  44.515   5.722
 3592POPC   GL246826  15.787  44.851   5.882
 3592POPC   C1A46827  16.115  44.586   6.181
 3592POPC   D2A46828  15.940  44.501   6.583
 3592POPC   C3A46829  16.301  44.419   6.839
 3592POPC   C4A46830  16.416  44.493   7.259
 3592POPC   C1B46831  15.814  44.954   6.347
 3592POPC   C2B46832  16.066  44.951   6.749
 3592POPC   C3B46833  15.967  44.700   7.116
 3592POPC   C4B46834  15.614  44.821   7.399
 3593POPC   NC346835  14.818  41.228   5.461
 3593POPC   PO446836  14.766  40.547   5.408
 3593POPC   GL146837  14.557  40.839   5.774
 3593POPC   GL246838  14.171  40.892   5.836
 3593POPC   C1A46839  14.458  40.827   6.251
 3593POPC   D2A46840  14.254  40.574   6.604
 3593POPC   C3A46841  14.333  40.655   7.046
 3593POPC   C4A46842  14.595  41.017   7.178
 3593POPC   C1B46843  13.989  40.990   6.275
 3593POPC   C2B46844  14.192  41.091   6.693
 3593POPC   C3B46845  14.078  41.097   7.136
 3593POPC   C4B46846  13.844  41.329   7.425
 3594POPC   NC346847  15.948  24.655   5.236
 3594POPC   PO446848  16.062  25.183   5.575
 3594POPC   GL146849  15.906  24.782   5.780
 3594POPC   GL246850  15.871  24.401   5.718
 3594POPC   C1A46851  15.980  24.610   6.191
 3594POPC   D2A46852  15.730  24.522   6.536
 3594POPC   C3A46853  15.900  24.526   6.936
 3594POPC   C4A46854  15.779  24.470   7.326
 3594POPC   C1B46855  16.017  24.112   6.081
 3594POPC   C2B46856  16.077  24.103   6.542
 3594POPC   C3B46857  16.263  24.163   6.964
 3594POPC   C4B46858  16.125  24.106   7.391
 3595POPC   NC346859  39.770  33.216   5.434
 3595POPC   PO446860  39.951  33.806   5.287
 3595POPC   GL146861  39.855  33.773   5.749
 3595POPC   GL246862  39.546  33.566   5.772
 3595POPC   C1A46863  40.046  33.711   6.180
 3595POPC   D2A46864  40.133  33.453   6.575
 3595POPC   C3A46865  40.225  33.679   6.986
 3595POPC   C4A46866  40.333  33.793   7.425
 3595POPC   C1B46867  39.530  33.763   6.184
 3595POPC   C2B46868  39.722  33.820   6.562
 3595POPC   C3B46869  39.686  33.660   6.945
 3595POPC   C4B46870  39.830  33.785   7.305
 3596POPC   NC346871  30.034  41.442   5.232
 3596POPC   PO446872  29.618  41.737   5.664
 3596POPC   GL146873  29.759  41.323   5.784
 3596POPC   GL246874  29.501  41.120   5.933
 3596POPC   C1A46875  30.029  41.190   6.122
 3596POPC   D2A46876  30.266  41.430   6.444
 3596POPC   C3A46877  30.107  41.587   6.847
 3596POPC   C4A46878  30.002  41.355   7.234
 3596POPC   C1B46879  29.568  41.439   6.252
 3596POPC   C2B46880  29.621  41.465   6.679
 3596POPC   C3B46881  29.568  41.207   7.017
 3596POPC   C4B46882  29.521  41.500   7.326
 3597POPC   NC346883  27.937  26.302   5.662
 3597POPC   PO446884  27.743  25.787   5.269
 3597POPC   GL146885  27.796  25.831   5.786
 3597POPC   GL246886  28.067  25.967   6.042
 3597POPC   C1A46887  27.622  25.829   6.247
 3597POPC   D2A46888  27.253  25.974   6.502
 3597POPC   C3A46889  27.311  25.995   6.957
 3597POPC   C4A46890  27.459  26.121   7.370
 3597POPC   C1B46891  27.831  26.297   6.299
 3597POPC   C2B46892  27.659  26.245   6.657
 3597POPC   C3B46893  27.833  26.089   7.001
 3597POPC   C4B46894  27.908  26.388   7.292
 3598POPC   NC346895   9.485  43.063   5.424
 3598POPC   PO446896  10.140  42.893   5.545
 3598POPC   GL146897   9.813  43.100   5.844
 3598POPC   GL246898   9.527  42.926   5.901
 3598POPC   C1A46899   9.706  43.208   6.302
 3598POPC   D2A46900   9.902  43.184   6.720
 3598POPC   C3A46901   9.658  43.287   7.081
 3598POPC   C4A46902   9.706  43.527   7.449
 3598POPC   C1B46903   9.535  42.720   6.262
 3598POPC   C2B46904   9.452  42.793   6.705
 3598POPC   C3B46905   9.609  42.769   7.100
 3598POPC   C4B46906   9.972  42.553   7.209
 3599POPC   NC346907   5.062  23.961   5.430
 3599POPC   PO446908   4.838  24.633   5.564
 3599POPC   GL146909   5.005  24.620   5.938
 3599POPC   GL246910   5.266  24.418   5.872
 3599POPC   C1A46911   4.843  24.460   6.315
 3599POPC   D2A46912   4.737  24.595   6.702
 3599POPC   C3A46913   5.010  24.487   6.974
 3599POPC   C4A46914   5.044  24.483   7.410
 3599POPC   C1B46915   5.344  24.390   6.321
 3599POPC   C2B46916   5.458  24.237   6.742
 3599POPC   C3B46917   5.478  24.449   7.145
 3599POPC   C4B46918   5.539  24.324   7.589
 3600POPC   NC346919  23.908  16.598   5.397
 3600POPC   PO446920  23.623  17.222   5.412
 3600POPC   GL146921  23.561  16.897   5.772
 3600POPC   GL246922  23.831  16.675   5.881
 3600POPC   C1A46923  23.479  16.812   6.225
 3600POPC   D2A46924  23.699  16.679   6.596
 3600POPC   C3A46925  23.583  16.879   7.000
 3600POPC   C4A46926  23.653  16.581   7.327
 3600POPC   C1B46927  24.054  16.767   6.234
 3600POPC   C2B46928  24.290  16.753   6.620
 3600POPC   C3B46929  24.050  16.692   6.975
 3600POPC   C4B46930  24.000  16.942   7.333
 3601POPC   NC346931  14.502  11.240   5.587
 3601POPC   PO446932  13.960  10.951   5.717
 3601POPC   GL146933  14.256  11.203   6.041
 3601POPC   GL246934  14.371  11.573   5.961
 3601POPC   C1A46935  14.389  11.413   6.455
 3601POPC   D2A46936  14.213  11.585   6.837
 3601POPC   C3A46937  14.041  11.265   7.121
 3601POPC   C4A46938  14.167  11.008   7.519
 3601POPC   C1B46939  14.790  11.411   6.142
 3601POPC   C2B46940  14.924  11.252   6.555
 3601POPC   C3B46941  14.628  11.239   6.897
 3601POPC   C4B46942  14.497  11.456   7.257
 3602POPC   NC346943  24.357  18.616   5.413
 3602POPC   PO446944  24.938  18.878   5.457
 3602POPC   GL146945  24.667  18.776   5.841
 3602POPC   GL246946  24.314  18.906   5.827
 3602POPC   C1A46947  24.801  18.754   6.290
 3602POPC   D2A46948  25.002  18.704   6.719
 3602POPC   C3A46949  24.734  18.695   7.116
 3602POPC   C4A46950  24.752  18.702   7.608
 3602POPC   C1B46951  24.283  18.797   6.286
 3602POPC   C2B46952  24.526  19.008   6.649
 3602POPC   C3B46953  24.393  19.165   7.053
 3602POPC   C4B46954  24.322  18.879   7.393
 3603POPC   NC346955  31.833  18.995   5.653
 3603POPC   PO446956  31.367  19.406   5.335
 3603POPC   GL146957  31.377  19.201   5.745
 3603POPC   GL246958  31.360  18.854   5.806
 3603POPC   C1A46959  31.357  19.171   6.206
 3603POPC   D2A46960  31.475  19.450   6.542
 3603POPC   C3A46961  31.252  19.386   6.942
 3603POPC   C4A46962  31.172  19.072   7.282
 3603POPC   C1B46963  31.466  18.673   6.203
 3603POPC   C2B46964  31.213  18.591   6.571
 3603POPC   C3B46965  31.325  18.707   6.976
 3603POPC   C4B46966  31.714  18.774   7.202
 3604POPC   NC346967   1.829  41.895   5.485
 3604POPC   PO446968   1.671  41.254   5.447
 3604POPC   GL146969   1.706  41.475   5.790
 3604POPC   GL246970   2.050  41.429   5.763
 3604POPC   C1A46971   1.809  41.534   6.204
 3604POPC   D2A46972   2.056  41.473   6.538
 3604POPC   C3A46973   1.897  41.546   6.944
 3604POPC   C4A46974   2.021  41.822   7.296
 3604POPC   C1B46975   2.264  41.153   6.104
 3604POPC   C2B46976   2.479  41.180   6.495
 3604POPC   C3B46977   2.326  41.244   6.913
 3604POPC   C4B46978   2.206  41.331   7.308
 3605POPC   NC346979   9.382   0.652   5.384
 3605POPC   PO446980   9.967   0.355   5.302
 3605POPC   GL146981   9.926   0.243   5.730
 3605POPC   GL246982   9.602   0.422   5.795
 3605POPC   C1A46983   9.956   0.383   6.165
 3605POPC   D2A46984   9.648   0.524   6.477
 3605POPC   C3A46985   9.684   0.275   6.855
 3605POPC   C4A46986   9.812   0.500   7.202
 3605POPC   C1B46987   9.345   0.695   6.083
 3605POPC   C2B46988   9.131   0.641   6.486
 3605POPC   C3B46989   9.306   0.641   6.892
 3605POPC   C4B46990   9.349   0.810   7.308
 3606POPC   NC346991  33.945   1.787   5.503
 3606POPC   PO446992  33.688   2.460   5.395
 3606POPC   GL146993  33.672   2.184   5.767
 3606POPC   GL246994  34.022   2.134   5.878
 3606POPC   C1A46995  33.668   2.117   6.245
 3606POPC   D2A46996  33.934   2.147   6.628
 3606POPC   C3A46997  33.765   2.083   7.020
 3606POPC   C4A46998  33.657   1.983   7.416
 3606POPC   C1B46999  34.155   1.884   6.240
 3606POPC   C2B47000  34.120   1.663   6.617
 3606POPC   C3B47001  34.325   1.764   6.970
 3606POPC   C4B47002  34.143   1.893   7.339
 3607POPC   NC347003  23.893  26.101   5.318
 3607POPC   PO447004  23.486  25.607   5.531
 3607POPC   GL147005  23.817  25.835   5.762
 3607POPC   GL247006  23.699  26.149   5.806
 3607POPC   C1A47007  23.957  25.846   6.189
 3607POPC   D2A47008  23.771  25.752   6.612
 3607POPC   C3A47009  23.770  25.884   7.072
 3607POPC   C4A47010  24.121  26.000   7.374
 3607POPC   C1B47011  23.541  26.435   6.116
 3607POPC   C2B47012  23.652  26.375   6.524
 3607POPC   C3B47013  23.407  26.450   6.875
 3607POPC   C4B47014  23.551  26.344   7.249
 3608POPC   NC347015  12.013  22.863   5.356
 3608POPC   PO447016  12.142  23.533   5.260
 3608POPC   GL147017  12.163  23.303   5.699
 3608POPC   GL247018  11.888  23.060   5.792
 3608POPC   C1A47019  12.149  23.233   6.186
 3608POPC   D2A47020  12.098  23.276   6.663
 3608POPC   C3A47021  12.282  23.055   7.051
 3608POPC   C4A47022  12.184  23.215   7.466
 3608POPC   C1B47023  11.792  22.810   6.137
 3608POPC   C2B47024  11.975  22.661   6.524
 3608POPC   C3B47025  12.022  22.617   6.932
 3608POPC   C4B47026  11.964  22.756   7.340
 3609POPC   NC347027   4.053   8.181   5.338
 3609POPC   PO447028   4.596   8.427   4.991
 3609POPC   GL147029   4.590   8.424   5.506
 3609POPC   GL247030   4.459   8.129   5.721
 3609POPC   C1A47031   4.549   8.585   5.978
 3609POPC   D2A47032   4.412   8.641   6.431
 3609POPC   C3A47033   4.460   8.312   6.754
 3609POPC   C4A47034   4.498   8.300   7.209
 3609POPC   C1B47035   4.361   8.136   6.192
 3609POPC   C2B47036   4.105   8.013   6.548
 3609POPC   C3B47037   4.170   7.936   6.978
 3609POPC   C4B47038   4.103   8.023   7.403
 3610POPC   NC347039  33.174  23.676   5.370
 3610POPC   PO447040  32.692  23.344   5.690
 3610POPC   GL147041  32.733  23.666   5.961
 3610POPC   GL247042  33.041  23.790   5.853
 3610POPC   C1A47043  32.801  23.649   6.410
 3610POPC   D2A47044  33.128  23.821   6.676
 3610POPC   C3A47045  32.863  23.817   6.982
 3610POPC   C4A47046  32.801  23.612   7.336
 3610POPC   C1B47047  33.189  23.439   6.144
 3610POPC   C2B47048  33.319  23.351   6.597
 3610POPC   C3B47049  33.229  23.422   7.048
 3610POPC   C4B47050  33.266  23.779   7.326
 3611POPC   NC347051  13.855  35.169   5.372
 3611POPC   PO447052  13.323  35.500   5.674
 3611POPC   GL147053  13.684  35.395   5.891
 3611POPC   GL247054  13.725  35.012   5.873
 3611POPC   C1A47055  13.803  35.308   6.312
 3611POPC   D2A47056  13.660  35.010   6.590
 3611POPC   C3A47057  13.790  35.082   6.999
 3611POPC   C4A47058  13.759  35.369   7.322
 3611POPC   C1B47059  13.356  35.092   6.177
 3611POPC   C2B47060  13.141  34.905   6.526
 3611POPC   C3B47061  13.277  34.955   6.944
 3611POPC   C4B47062  13.290  35.359   7.122
 3612POPC   NC347063  12.929  11.648   5.179
 3612POPC   PO447064  12.645  11.127   5.534
 3612POPC   GL147065  12.905  11.152   5.861
 3612POPC   GL247066  12.950  11.481   5.837
 3612POPC   C1A47067  13.085  11.096   6.244
 3612POPC   D2A47068  13.220  11.335   6.595
 3612POPC   C3A47069  12.944  11.272   6.976
 3612POPC   C4A47070  12.690  11.316   7.346
 3612POPC   C1B47071  12.970  11.688   6.203
 3612POPC   C2B47072  13.236  11.869   6.480
 3612POPC   C3B47073  13.155  11.750   6.886
 3612POPC   C4B47074  12.921  11.748   7.242
 3613POPC   NC347075  42.890  27.251   5.375
 3613POPC   PO447076  43.235  26.760   5.445
 3613POPC   GL147077  42.970  26.874   5.771
 3613POPC   GL247078  43.128  27.172   5.821
 3613POPC   C1A47079  42.795  26.902   6.200
 3613POPC   D2A47080  42.608  26.802   6.629
 3613POPC   C3A47081  42.842  26.906   7.015
 3613POPC   C4A47082  43.243  26.711   7.184
 3613POPC   C1B47083  43.275  27.107   6.231
 3613POPC   C2B47084  43.189  26.910   6.619
 3613POPC   C3B47085  43.313  27.156   6.947
 3613POPC   C4B47086  43.367  27.210   7.381
 3614POPC   NC347087  19.384  31.437   5.410
 3614POPC   PO447088  18.763  31.795   5.382
 3614POPC   GL147089  18.959  31.559   5.717
 3614POPC   GL247090  18.783  31.260   5.867
 3614POPC   C1A47091  19.189  31.635   6.082
 3614POPC   D2A47092  19.051  31.632   6.522
 3614POPC   C3A47093  19.329  31.483   6.863
 3614POPC   C4A47094  19.393  31.722   7.249
 3614POPC   C1B47095  18.822  31.187   6.345
 3614POPC   C2B47096  18.878  31.224   6.816
 3614POPC   C3B47097  18.764  31.014   7.226
 3614POPC   C4B47098  18.812  31.043   7.711
 3615POPC   NC347099  20.071   2.720   5.380
 3615POPC   PO447100  19.731   3.235   5.595
 3615POPC   GL147101  19.953   2.956   5.832
 3615POPC   GL247102  19.897   2.580   5.826
 3615POPC   C1A47103  20.022   2.913   6.249
 3615POPC   D2A47104  19.826   3.110   6.569
 3615POPC   C3A47105  19.986   3.032   6.953
 3615POPC   C4A47106  19.864   2.972   7.341
 3615POPC   C1B47107  19.937   2.424   6.240
 3615POPC   C2B47108  19.884   2.607   6.651
 3615POPC   C3B47109  20.018   2.507   7.058
 3615POPC   C4B47110  19.800   2.487   7.444
 3616POPC   NC347111   9.513  40.234   5.019
 3616POPC   PO447112   9.820  39.944   5.602
 3616POPC   GL147113   9.805  40.044   6.000
 3616POPC   GL247114   9.457  40.162   6.052
 3616POPC   C1A47115   9.998  39.963   6.394
 3616POPC   D2A47116   9.904  40.114   6.819
 3616POPC   C3A47117   9.788  39.821   7.105
 3616POPC   C4A47118   9.544  39.903   7.453
 3616POPC   C1B47119   9.706  40.391   6.354
 3616POPC   C2B47120   9.625  40.573   6.730
 3616POPC   C3B47121   9.563  40.432   7.124
 3616POPC   C4B47122   9.873  40.289   7.395
 3617POPC   NC347123  22.600   4.615   5.658
 3617POPC   PO447124  23.095   4.276   5.278
 3617POPC   GL147125  23.047   4.297   5.733
 3617POPC   GL247126  23.199   4.592   5.928
 3617POPC   C1A47127  22.848   4.247   6.156
 3617POPC   D2A47128  22.998   4.292   6.567
 3617POPC   C3A47129  22.866   4.084   6.919
 3617POPC   C4A47130  22.965   4.278   7.321
 3617POPC   C1B47131  22.881   4.767   6.228
 3617POPC   C2B47132  22.595   4.601   6.546
 3617POPC   C3B47133  22.662   4.544   6.973
 3617POPC   C4B47134  22.721   4.734   7.356
 3618POPC   NC347135   8.166  16.428   5.317
 3618POPC   PO447136   8.346  17.098   5.270
 3618POPC   GL147137   8.230  16.848   5.686
 3618POPC   GL247138   7.975  16.566   5.758
 3618POPC   C1A47139   8.191  16.818   6.157
 3618POPC   D2A47140   7.886  16.889   6.478
 3618POPC   C3A47141   8.133  16.789   6.832
 3618POPC   C4A47142   8.144  16.692   7.270
 3618POPC   C1B47143   7.791  16.471   6.150
 3618POPC   C2B47144   7.887  16.395   6.575
 3618POPC   C3B47145   7.793  16.434   6.999
 3618POPC   C4B47146   7.882  16.111   7.315
 3619POPC   NC347147  40.544   3.889   5.276
 3619POPC   PO447148  40.818   4.540   5.311
 3619POPC   GL147149  40.839   4.491   5.731
 3619POPC   GL247150  41.174   4.422   5.855
 3619POPC   C1A47151  40.718   4.377   6.121
 3619POPC   D2A47152  40.685   4.166   6.479
 3619POPC   C3A47153  40.623   4.409   6.826
 3619POPC   C4A47154  40.663   4.087   7.092
 3619POPC   C1B47155  41.208   4.363   6.311
 3619POPC   C2B47156  41.131   4.291   6.742
 3619POPC   C3B47157  41.136   4.226   7.178
 3619POPC   C4B47158  40.891   4.199   7.550
 3620POPC   NC347159  31.215   7.171   5.462
 3620POPC   PO447160  31.776   7.565   5.320
 3620POPC   GL147161  31.665   7.327   5.720
 3620POPC   GL247162  31.346   7.401   5.892
 3620POPC   C1A47163  31.700   7.206   6.185
 3620POPC   D2A47164  31.483   7.269   6.599
 3620POPC   C3A47165  31.643   7.427   7.007
 3620POPC   C4A47166  31.587   7.211   7.404
 3620POPC   C1B47167  31.155   7.552   6.272
 3620POPC   C2B47168  30.978   7.358   6.632
 3620POPC   C3B47169  31.070   7.155   7.006
 3620POPC   C4B47170  31.144   7.463   7.279
 3621POPC   NC347171  22.511  13.624   5.464
 3621POPC   PO447172  23.166  13.603   5.373
 3621POPC   GL147173  22.950  13.494   5.770
 3621POPC   GL247174  22.666  13.711   5.951
 3621POPC   C1A47175  22.901  13.348   6.217
 3621POPC   D2A47176  22.743  13.606   6.589
 3621POPC   C3A47177  22.721  13.632   7.037
 3621POPC   C4A47178  22.996  13.402   7.245
 3621POPC   C1B47179  22.938  13.968   6.288
 3621POPC   C2B47180  23.114  13.972   6.758
 3621POPC   C3B47181  23.154  13.912   7.245
 3621POPC   C4B47182  23.251  13.984   7.737
 3622POPC   NC347183   8.650  11.209   5.504
 3622POPC   PO447184   9.276  11.105   5.300
 3622POPC   GL147185   9.122  11.336   5.746
 3622POPC   GL247186   8.879  11.637   5.791
 3622POPC   C1A47187   8.855  11.255   6.181
 3622POPC   D2A47188   8.672  10.948   6.551
 3622POPC   C3A47189   8.952  10.850   6.944
 3622POPC   C4A47190   8.912  11.006   7.392
 3622POPC   C1B47191   9.167  11.689   6.162
 3622POPC   C2B47192   9.251  11.449   6.546
 3622POPC   C3B47193   8.989  11.378   6.919
 3622POPC   C4B47194   8.871  11.508   7.323
 3623POPC   NC347195  13.495  27.712   5.481
 3623POPC   PO447196  13.830  27.074   5.461
 3623POPC   GL147197  13.647  27.331   5.783
 3623POPC   GL247198  13.417  27.137   5.867
 3623POPC   C1A47199  13.465  27.554   6.172
 3623POPC   D2A47200  13.273  27.733   6.578
 3623POPC   C3A47201  13.516  27.708   6.968
 3623POPC   C4A47202  13.467  27.566   7.385
 3623POPC   C1B47203  13.711  27.111   6.228
 3623POPC   C2B47204  13.720  27.288   6.639
 3623POPC   C3B47205  13.633  27.186   7.058
 3623POPC   C4B47206  13.909  27.362   7.326
 3624POPC   NC347207  20.074  15.950   5.218
 3624POPC   PO447208  19.439  15.796   5.078
 3624POPC   GL147209  19.667  15.841   5.562
 3624POPC   GL247210  19.947  16.104   5.672
 3624POPC   C1A47211  19.659  15.701   6.070
 3624POPC   D2A47212  19.602  15.900   6.500
 3624POPC   C3A47213  19.504  15.710   6.914
 3624POPC   C4A47214  19.829  15.604   7.214
 3624POPC   C1B47215  19.892  16.154   6.089
 3624POPC   C2B47216  20.017  16.229   6.484
 3624POPC   C3B47217  19.967  16.027   6.873
 3624POPC   C4B47218  19.728  16.117   7.252
 3625POPC   NC347219  12.676  30.393   5.343
 3625POPC   PO447220  12.889  29.824   5.550
 3625POPC   GL147221  12.801  29.799   5.908
 3625POPC   GL247222  12.672  29.477   5.906
 3625POPC   C1A47223  12.770  30.063   6.239
 3625POPC   D2A47224  12.874  29.873   6.600
 3625POPC   C3A47225  12.721  30.060   6.922
 3625POPC   C4A47226  12.954  29.991   7.253
 3625POPC   C1B47227  12.573  29.550   6.311
 3625POPC   C2B47228  12.778  29.361   6.639
 3625POPC   C3B47229  12.811  29.525   7.011
 3625POPC   C4B47230  12.401  29.694   7.080
 3626POPC   NC347231  40.990  32.365   4.808
 3626POPC   PO447232  40.607  32.255   5.363
 3626POPC   GL147233  40.704  32.379   5.797
 3626POPC   GL247234  40.397  32.529   5.906
 3626POPC   C1A47235  40.829  32.195   6.212
 3626POPC   D2A47236  41.093  31.930   6.475
 3626POPC   C3A47237  41.044  32.029   6.908
 3626POPC   C4A47238  40.832  32.303   7.222
 3626POPC   C1B47239  40.575  32.645   6.293
 3626POPC   C2B47240  40.694  32.493   6.691
 3626POPC   C3B47241  40.609  32.707   7.074
 3626POPC   C4B47242  40.646  32.656   7.560
 3627POPC   NC347243  25.111  38.337   5.507
 3627POPC   PO447244  25.696  38.462   5.741
 3627POPC   GL147245  25.303  38.520   5.957
 3627POPC   GL247246  25.090  38.771   5.771
 3627POPC   C1A47247  25.240  38.445   6.407
 3627POPC   D2A47248  25.473  38.566   6.782
 3627POPC   C3A47249  25.466  38.283   7.128
 3627POPC   C4A47250  25.538  38.453   7.527
 3627POPC   C1B47251  25.022  38.897   6.184
 3627POPC   C2B47252  24.855  38.888   6.578
 3627POPC   C3B47253  24.972  38.603   6.854
 3627POPC   C4B47254  25.126  38.644   7.250
 3628POPC   NC347255  25.025  34.210   5.013
 3628POPC   PO447256  25.230  34.749   5.449
 3628POPC   GL147257  25.045  34.629   5.924
 3628POPC   GL247258  24.996  34.231   6.020
 3628POPC   C1A47259  25.185  34.567   6.364
 3628POPC   D2A47260  25.478  34.666   6.680
 3628POPC   C3A47261  25.238  34.706   7.037
 3628POPC   C4A47262  24.938  34.784   7.364
 3628POPC   C1B47263  24.939  34.111   6.465
 3628POPC   C2B47264  24.980  34.319   6.864
 3628POPC   C3B47265  25.102  34.263   7.313
 3628POPC   C4B47266  25.189  34.099   7.747
 3629POPC   NC347267   1.413  38.128   5.430
 3629POPC   PO447268   1.488  37.461   5.552
 3629POPC   GL147269   1.190  37.554   5.864
 3629POPC   GL247270   1.106  37.898   5.796
 3629POPC   C1A47271   1.110  37.555   6.311
 3629POPC   D2A47272   1.203  37.698   6.764
 3629POPC   C3A47273   1.257  37.467   7.153
 3629POPC   C4A47274   1.603  37.328   7.419
 3629POPC   C1B47275   1.276  38.014   6.212
 3629POPC   C2B47276   1.073  38.158   6.624
 3629POPC   C3B47277   1.155  38.108   7.070
 3629POPC   C4B47278   1.292  37.915   7.439
 3630POPC   NC347279  10.371  22.613   5.649
 3630POPC   PO447280  10.799  22.076   5.615
 3630POPC   GL147281  10.670  22.335   5.948
 3630POPC   GL247282  10.937  22.538   5.957
 3630POPC   C1A47283  10.416  22.446   6.344
 3630POPC   D2A47284  10.248  22.589   6.769
 3630POPC   C3A47285  10.321  22.270   7.092
 3630POPC   C4A47286  10.393  21.849   7.260
 3630POPC   C1B47287  10.958  22.268   6.351
 3630POPC   C2B47288  10.969  21.891   6.592
 3630POPC   C3B47289  10.876  21.783   7.024
 3630POPC   C4B47290  10.801  22.159   7.269
 3631POPC   NC347291  23.146   8.378   5.566
 3631POPC   PO447292  23.000   7.786   5.773
 3631POPC   GL147293  22.772   8.214   5.910
 3631POPC   GL247294  23.005   8.486   6.035
 3631POPC   C1A47295  22.518   8.487   6.210
 3631POPC   D2A47296  22.716   8.530   6.626
 3631POPC   C3A47297  22.490   8.482   7.004
 3631POPC   C4A47298  22.419   8.108   7.249
 3631POPC   C1B47299  23.132   8.238   6.378
 3631POPC   C2B47300  22.962   8.104   6.773
 3631POPC   C3B47301  22.915   8.268   7.205
 3631POPC   C4B47302  23.055   8.519   7.571
 3632POPC   NC347303  21.836  13.338   5.474
 3632POPC   PO447304  21.587  13.889   5.365
 3632POPC   GL147305  21.955  13.784   5.726
 3632POPC   GL247306  22.176  13.457   5.830
 3632POPC   C1A47307  22.160  13.793   6.179
 3632POPC   D2A47308  22.232  13.523   6.548
 3632POPC   C3A47309  22.215  13.695   6.975
 3632POPC   C4A47310  22.293  13.501   7.390
 3632POPC   C1B47311  21.865  13.369   6.178
 3632POPC   C2B47312  21.652  13.300   6.582
 3632POPC   C3B47313  21.842  13.346   6.980
 3632POPC   C4B47314  21.824  13.634   7.309
 3633POPC   NC347315   6.731  39.488   5.708
 3633POPC   PO447316   7.122  39.020   5.470
 3633POPC   GL147317   6.876  39.010   5.867
 3633POPC   GL247318   6.523  39.121   6.008
 3633POPC   C1A47319   6.957  39.203   6.282
 3633POPC   D2A47320   6.780  39.086   6.650
 3633POPC   C3A47321   6.757  39.235   7.012
 3633POPC   C4A47322   6.500  38.978   7.198
 3633POPC   C1B47323   6.499  39.419   6.370
 3633POPC   C2B47324   6.310  39.304   6.769
 3633POPC   C3B47325   6.316  39.428   7.174
 3633POPC   C4B47326   6.647  39.673   7.320
 3634POPC   NC347327   5.262  30.631   5.446
 3634POPC   PO447328   4.668  30.986   5.491
 3634POPC   GL147329   4.958  30.809   5.849
 3634POPC   GL247330   5.108  30.486   5.905
 3634POPC   C1A47331   5.155  30.864   6.275
 3634POPC   D2A47332   5.374  30.722   6.659
 3634POPC   C3A47333   5.286  30.980   7.008
 3634POPC   C4A47334   4.873  31.036   7.191
 3634POPC   C1B47335   4.863  30.431   6.276
 3634POPC   C2B47336   5.012  30.348   6.691
 3634POPC   C3B47337   5.020  30.530   7.083
 3634POPC   C4B47338   4.624  30.540   7.252
 3635POPC   NC347339  36.123  16.641   5.470
 3635POPC   PO447340  36.187  17.148   5.859
 3635POPC   GL147341  35.938  16.784   5.939
 3635POPC   GL247342  35.974  16.417   5.912
 3635POPC   C1A47343  35.836  16.675   6.351
 3635POPC   D2A47344  36.126  16.671   6.690
 3635POPC   C3A47345  36.049  16.859   7.080
 3635POPC   C4A47346  36.321  17.158   7.285
 3635POPC   C1B47347  36.198  16.309   6.264
 3635POPC   C2B47348  36.155  16.169   6.667
 3635POPC   C3B47349  36.304  16.337   7.040
 3635POPC   C4B47350  36.108  16.435   7.391
 3636POPC   NC347351  30.273  27.476   5.055
 3636POPC   PO447352  29.896  27.938   5.406
 3636POPC   GL147353  29.777  27.604   5.620
 3636POPC   GL247354  30.120  27.502   5.567
 3636POPC   C1A47355  29.738  27.570   6.069
 3636POPC   D2A47356  29.681  27.742   6.491
 3636POPC   C3A47357  29.858  27.541   6.832
 3636POPC   C4A47358  29.804  27.495   7.230
 3636POPC   C1B47359  30.224  27.412   6.004
 3636POPC   C2B47360  30.220  27.526   6.467
 3636POPC   C3B47361  30.347  27.706   6.893
 3636POPC   C4B47362  30.294  27.546   7.334
 3637POPC   NC347363   8.540  33.079   5.152
 3637POPC   PO447364   9.205  33.037   5.418
 3637POPC   GL147365   8.917  33.068   5.720
 3637POPC   GL247366   8.758  32.756   5.826
 3637POPC   C1A47367   8.941  33.154   6.153
 3637POPC   D2A47368   9.138  32.976   6.505
 3637POPC   C3A47369   9.011  33.193   6.861
 3637POPC   C4A47370   9.088  33.081   7.234
 3637POPC   C1B47371   8.538  32.832   6.230
 3637POPC   C2B47372   8.644  32.925   6.649
 3637POPC   C3B47373   8.832  32.687   6.999
 3637POPC   C4B47374   8.844  32.605   7.463
 3638POPC   NC347375  22.935  38.765   5.378
 3638POPC   PO447376  22.926  38.064   5.491
 3638POPC   GL147377  23.088  38.227   5.856
 3638POPC   GL247378  22.986  38.551   5.829
 3638POPC   C1A47379  23.081  38.292   6.273
 3638POPC   D2A47380  23.321  38.296   6.615
 3638POPC   C3A47381  23.089  38.252   6.962
 3638POPC   C4A47382  23.169  38.391   7.402
 3638POPC   C1B47383  22.845  38.747   6.215
 3638POPC   C2B47384  22.889  38.607   6.649
 3638POPC   C3B47385  22.891  38.756   7.088
 3638POPC   C4B47386  22.789  38.670   7.560
 3639POPC   NC347387  34.249  34.025   5.602
 3639POPC   PO447388  34.857  33.674   5.411
 3639POPC   GL147389  34.703  33.810   5.843
 3639POPC   GL247390  34.393  33.617   5.881
 3639POPC   C1A47391  34.639  34.006   6.288
 3639POPC   D2A47392  34.504  33.867   6.717
 3639POPC   C3A47393  34.722  34.084   7.047
 3639POPC   C4A47394  34.873  33.876   7.417
 3639POPC   C1B47395  34.540  33.517   6.297
 3639POPC   C2B47396  34.785  33.350   6.615
 3639POPC   C3B47397  34.824  33.555   6.999
 3639POPC   C4B47398  34.471  33.669   7.224
 3640POPC   NC347399  33.706  43.966   5.445
 3640POPC   PO447400  34.346  44.208   5.461
 3640POPC   GL147401  34.015  44.168   5.823
 3640POPC   GL247402  33.871  43.832   5.917
 3640POPC   C1A47403  33.763  44.214   6.232
 3640POPC   D2A47404  33.641  44.009   6.631
 3640POPC   C3A47405  33.795  44.207   7.013
 3640POPC   C4A47406  33.545  44.184   7.422
 3640POPC   C1B47407  33.665  43.602   6.285
 3640POPC   C2B47408  33.710  43.495   6.753
 3640POPC   C3B47409  33.724  43.728   7.145
 3640POPC   C4B47410  33.804  43.729   7.620
 3641POPC   NC347411   3.678  28.562   5.300
 3641POPC   PO447412   3.693  27.970   5.561
 3641POPC   GL147413   3.597  28.310   5.770
 3641POPC   GL247414   3.250  28.193   5.851
 3641POPC   C1A47415   3.688  28.402   6.191
 3641POPC   D2A47416   3.635  28.197   6.574
 3641POPC   C3A47417   3.829  28.353   6.902
 3641POPC   C4A47418   3.794  28.229   7.303
 3641POPC   C1B47419   3.139  27.924   6.221
 3641POPC   C2B47420   3.279  27.839   6.667
 3641POPC   C3B47421   3.314  28.129   7.046
 3641POPC   C4B47422   3.323  28.238   7.508
 3642POPC   NC347423  26.044  19.236   5.356
 3642POPC   PO447424  26.458  18.721   5.251
 3642POPC   GL147425  26.269  18.874   5.669
 3642POPC   GL247426  25.916  18.990   5.792
 3642POPC   C1A47427  26.355  19.038   6.083
 3642POPC   D2A47428  26.243  19.146   6.509
 3642POPC   C3A47429  26.044  18.839   6.768
 3642POPC   C4A47430  26.006  18.848   7.237
 3642POPC   C1B47431  25.927  19.330   6.136
 3642POPC   C2B47432  25.775  19.323   6.599
 3642POPC   C3B47433  25.987  19.318   7.010
 3642POPC   C4B47434  25.924  19.538   7.407
 3643POPC   NC347435   0.162  29.846   5.247
 3643POPC   PO447436   0.636  30.231   5.407
 3643POPC   GL147437   0.330  30.033   5.737
 3643POPC   GL247438   0.251  29.666   5.708
 3643POPC   C1A47439   0.330  30.118   6.205
 3643POPC   D2A47440   0.452  30.317   6.596
 3643POPC   C3A47441   0.535  30.113   7.015
 3643POPC   C4A47442   0.762  29.744   7.206
 3643POPC   C1B47443   0.324  29.606   6.117
 3643POPC   C2B47444   0.256  29.658   6.553
 3643POPC   C3B47445   0.286  29.670   7.019
 3643POPC   C4B47446   0.301  29.873   7.454
 3644POPC   NC347447  39.588  12.858   5.461
 3644POPC   PO447448  40.288  12.921   5.517
 3644POPC   GL147449  40.155  13.063   5.929
 3644POPC   GL247450  39.859  12.842   5.935
 3644POPC   C1A47451  40.030  13.006   6.388
 3644POPC   D2A47452  39.982  12.634   6.614
 3644POPC   C3A47453  40.105  12.629   7.024
 3644POPC   C4A47454  40.144  13.042   7.121
 3644POPC   C1B47455  39.586  13.133   6.201
 3644POPC   C2B47456  39.450  13.139   6.641
 3644POPC   C3B47457  39.622  12.846   6.941
 3644POPC   C4B47458  39.727  12.759   7.356
 3645POPC   NC347459  18.785  16.884   5.042
 3645POPC   PO447460  19.283  16.717   5.462
 3645POPC   GL147461  19.233  16.870   5.870
 3645POPC   GL247462  19.487  17.121   5.844
 3645POPC   C1A47463  18.903  16.837   6.231
 3645POPC   D2A47464  18.744  16.949   6.634
 3645POPC   C3A47465  18.894  16.657   6.952
 3645POPC   C4A47466  18.916  16.471   7.372
 3645POPC   C1B47467  19.314  17.142   6.279
 3645POPC   C2B47468  19.262  16.895   6.609
 3645POPC   C3B47469  19.376  16.852   6.991
 3645POPC   C4B47470  19.250  16.886   7.405
 3646POPC   NC347471   3.726  17.856   5.416
 3646POPC   PO447472   3.257  17.369   5.527
 3646POPC   GL147473   3.589  17.496   5.792
 3646POPC   GL247474   3.398  17.775   5.882
 3646POPC   C1A47475   3.789  17.565   6.186
 3646POPC   D2A47476   3.523  17.698   6.535
 3646POPC   C3A47477   3.744  17.690   6.938
 3646POPC   C4A47478   3.836  17.304   7.162
 3646POPC   C1B47479   3.256  17.413   6.169
 3646POPC   C2B47480   3.082  17.397   6.553
 3646POPC   C3B47481   3.327  17.398   6.922
 3646POPC   C4B47482   3.336  17.235   7.321
 3647POPC   NC347483  11.608  34.059   5.515
 3647POPC   PO447484  11.619  34.714   5.534
 3647POPC   GL147485  11.443  34.428   5.880
 3647POPC   GL247486  11.168  34.196   5.778
 3647POPC   C1A47487  11.603  34.323   6.311
 3647POPC   D2A47488  11.892  34.234   6.652
 3647POPC   C3A47489  11.710  34.515   6.938
 3647POPC   C4A47490  11.449  34.881   6.900
 3647POPC   C1B47491  11.129  34.127   6.214
 3647POPC   C2B47492  11.076  34.432   6.540
 3647POPC   C3B47493  11.148  34.444   6.961
 3647POPC   C4B47494  11.100  34.173   7.315
 3648POPC   NC347495  30.912   4.944   5.669
 3648POPC   PO447496  31.529   5.035   5.350
 3648POPC   GL147497  31.385   5.098   5.789
 3648POPC   GL247498  31.164   5.386   5.855
 3648POPC   C1A47499  31.259   4.939   6.219
 3648POPC   D2A47500  31.547   4.907   6.555
 3648POPC   C3A47501  31.399   4.692   6.906
 3648POPC   C4A47502  31.692   4.677   7.225
 3648POPC   C1B47503  31.493   5.380   6.210
 3648POPC   C2B47504  31.437   5.427   6.650
 3648POPC   C3B47505  31.508   5.192   7.024
 3648POPC   C4B47506  31.320   5.068   7.428
 3649POPC   NC347507  24.321  40.723   5.196
 3649POPC   PO447508  24.041  40.370   5.675
 3649POPC   GL147509  24.418  40.643   5.856
 3649POPC   GL247510  24.470  41.032   5.814
 3649POPC   C1A47511  24.737  40.689   6.217
 3649POPC   D2A47512  24.793  40.477   6.644
 3649POPC   C3A47513  24.666  40.687   7.021
 3649POPC   C4A47514  24.894  40.970   7.266
 3649POPC   C1B47515  24.753  41.208   6.171
 3649POPC   C2B47516  24.739  41.043   6.620
 3649POPC   C3B47517  24.531  41.193   6.967
 3649POPC   C4B47518  24.310  41.006   7.279
 3650POPC   NC347519   3.624  18.695   5.536
 3650POPC   PO447520   3.249  18.131   5.394
 3650POPC   GL147521   3.468  18.271   5.783
 3650POPC   GL247522   3.830  18.156   5.840
 3650POPC   C1A47523   3.339  18.160   6.227
 3650POPC   D2A47524   3.481  18.198   6.657
 3650POPC   C3A47525   3.423  18.523   6.968
 3650POPC   C4A47526   3.327  18.284   7.319
 3650POPC   C1B47527   3.783  18.395   6.253
 3650POPC   C2B47528   3.895  18.490   6.691
 3650POPC   C3B47529   3.928  18.555   7.126
 3650POPC   C4B47530   3.773  18.517   7.517
 3651POPC   NC347531  18.718  23.009   5.552
 3651POPC   PO447532  19.218  22.586   5.270
 3651POPC   GL147533  19.323  22.790   5.735
 3651POPC   GL247534  19.141  23.078   5.825
 3651POPC   C1A47535  19.327  22.847   6.233
 3651POPC   D2A47536  19.115  23.104   6.594
 3651POPC   C3A47537  19.297  22.925   6.913
 3651POPC   C4A47538  19.401  22.549   7.125
 3651POPC   C1B47539  18.830  22.990   6.187
 3651POPC   C2B47540  18.806  22.700   6.557
 3651POPC   C3B47541  18.778  22.836   6.997
 3651POPC   C4B47542  18.840  23.281   7.016
 3652POPC   NC347543  29.827  22.245   5.109
 3652POPC   PO447544  30.409  21.981   5.397
 3652POPC   GL147545  30.114  22.072   5.784
 3652POPC   GL247546  29.789  22.266   5.712
 3652POPC   C1A47547  30.073  22.289   6.202
 3652POPC   D2A47548  30.158  22.560   6.585
 3652POPC   C3A47549  30.177  22.327   6.973
 3652POPC   C4A47550  30.143  22.197   7.381
 3652POPC   C1B47551  29.563  22.417   6.114
 3652POPC   C2B47552  29.499  22.530   6.569
 3652POPC   C3B47553  29.654  22.555   7.036
 3652POPC   C4B47554  29.644  22.267   7.420
 3653POPC   NC347555  37.360  18.858   4.966
 3653POPC   PO447556  37.944  18.826   5.248
 3653POPC   GL147557  37.691  18.887   5.699
 3653POPC   GL247558  37.854  19.175   5.874
 3653POPC   C1A47559  37.605  18.801   6.160
 3653POPC   D2A47560  37.675  19.052   6.527
 3653POPC   C3A47561  37.740  18.863   6.912
 3653POPC   C4A47562  37.485  18.816   7.264
 3653POPC   C1B47563  38.043  19.315   6.279
 3653POPC   C2B47564  38.125  19.205   6.727
 3653POPC   C3B47565  37.887  19.358   7.068
 3653POPC   C4B47566  37.472  19.322   7.240
 3654POPC   NC347567  21.481   3.747   5.405
 3654POPC   PO447568  21.440   3.112   5.668
 3654POPC   GL147569  21.272   3.472   5.858
 3654POPC   GL247570  21.218   3.844   5.821
 3654POPC   C1A47571  21.251   3.479   6.288
 3654POPC   D2A47572  21.073   3.326   6.665
 3654POPC   C3A47573  21.296   3.462   7.026
 3654POPC   C4A47574  21.245   3.690   7.398
 3654POPC   C1B47575  21.422   3.940   6.222
 3654POPC   C2B47576  21.528   3.756   6.632
 3654POPC   C3B47577  21.637   3.848   7.067
 3654POPC   C4B47578  21.682   3.917   7.521
 3655POPC   NC347579  24.775   7.206   4.976
 3655POPC   PO447580  25.048   7.611   5.463
 3655POPC   GL147581  24.680   7.447   5.735
 3655POPC   GL247582  24.434   7.676   5.826
 3655POPC   C1A47583  24.514   7.226   6.127
 3655POPC   D2A47584  24.180   7.323   6.456
 3655POPC   C3A47585  24.312   7.308   6.882
 3655POPC   C4A47586  24.149   7.201   7.276
 3655POPC   C1B47587  24.727   7.703   6.185
 3655POPC   C2B47588  24.580   7.677   6.618
 3655POPC   C3B47589  24.700   7.615   7.066
 3655POPC   C4B47590  24.622   7.538   7.516
 3656POPC   NC347591  41.468  12.535   5.388
 3656POPC   PO447592  41.886  13.040   5.398
 3656POPC   GL147593  41.627  13.039   5.772
 3656POPC   GL247594  41.578  12.687   5.855
 3656POPC   C1A47595  41.477  13.081   6.207
 3656POPC   D2A47596  41.349  12.938   6.620
 3656POPC   C3A47597  41.547  13.087   6.999
 3656POPC   C4A47598  41.778  12.987   7.378
 3656POPC   C1B47599  41.307  12.511   6.169
 3656POPC   C2B47600  41.369  12.395   6.600
 3656POPC   C3B47601  41.476  12.570   6.992
 3656POPC   C4B47602  41.454  12.580   7.440
 3657POPC   NC347603  27.022  40.904   5.301
 3657POPC   PO447604  26.464  40.555   5.399
 3657POPC   GL147605  26.656  40.775   5.729
 3657POPC   GL247606  26.991  40.759   5.796
 3657POPC   C1A47607  26.676  40.649   6.189
 3657POPC   D2A47608  26.500  40.690   6.615
 3657POPC   C3A47609  26.800  40.655   6.949
 3657POPC   C4A47610  26.896  40.658   7.381
 3657POPC   C1B47611  27.139  41.024   6.140
 3657POPC   C2B47612  27.314  41.079   6.545
 3657POPC   C3B47613  27.108  41.059   6.931
 3657POPC   C4B47614  27.244  41.052   7.355
 3658POPC   NC347615  31.790   4.594   5.342
 3658POPC   PO447616  31.109   4.441   5.466
 3658POPC   GL147617  31.450   4.343   5.805
 3658POPC   GL247618  31.649   3.991   5.779
 3658POPC   C1A47619  31.360   4.432   6.271
 3658POPC   D2A47620  31.118   4.269   6.626
 3658POPC   C3A47621  31.266   4.216   7.042
 3658POPC   C4A47622  31.341   4.396   7.446
 3658POPC   C1B47623  31.759   4.127   6.221
 3658POPC   C2B47624  31.635   4.246   6.679
 3658POPC   C3B47625  31.770   4.181   7.112
 3658POPC   C4B47626  31.939   3.897   7.442
 3659POPC   NC347627   3.065   7.362   5.425
 3659POPC   PO447628   2.467   7.537   5.266
 3659POPC   GL147629   2.673   7.568   5.717
 3659POPC   GL247630   2.725   7.216   5.820
 3659POPC   C1A47631   2.773   7.712   6.160
 3659POPC   D2A47632   2.624   7.581   6.571
 3659POPC   C3A47633   2.849   7.601   6.958
 3659POPC   C4A47634   2.698   7.795   7.296
 3659POPC   C1B47635   2.711   7.178   6.270
 3659POPC   C2B47636   3.004   7.216   6.640
 3659POPC   C3B47637   3.062   7.147   7.100
 3659POPC   C4B47638   2.919   7.254   7.514
 3660POPC   NC347639  37.202  37.785   5.438
 3660POPC   PO447640  36.831  37.205   5.389
 3660POPC   GL147641  36.861  37.509   5.713
 3660POPC   GL247642  37.197  37.415   5.822
 3660POPC   C1A47643  36.877  37.811   6.096
 3660POPC   D2A47644  36.720  37.932   6.565
 3660POPC   C3A47645  36.817  37.716   6.984
 3660POPC   C4A47646  36.928  37.712   7.430
 3660POPC   C1B47647  36.943  37.323   6.178
 3660POPC   C2B47648  36.910  37.427   6.570
 3660POPC   C3B47649  37.249  37.435   6.817
 3660POPC   C4B47650  37.330  37.305   7.195
 3661POPC   NC347651   3.346  25.765   5.266
 3661POPC   PO447652   3.269  25.132   5.327
 3661POPC   GL147653   3.341  25.310   5.725
 3661POPC   GL247654   3.560  25.040   5.790
 3661POPC   C1A47655   3.469  25.407   6.162
 3661POPC   D2A47656   3.682  25.538   6.542
 3661POPC   C3A47657   3.501  25.462   6.938
 3661POPC   C4A47658   3.681  25.479   7.316
 3661POPC   C1B47659   3.421  24.893   6.166
 3661POPC   C2B47660   3.448  25.076   6.569
 3661POPC   C3B47661   3.479  24.937   6.973
 3661POPC   C4B47662   3.171  24.873   7.240
 3662POPC   NC347663  30.141  20.023   5.443
 3662POPC   PO447664  29.723  19.409   5.437
 3662POPC   GL147665  29.975  19.564   5.773
 3662POPC   GL247666  29.890  19.901   5.858
 3662POPC   C1A47667  30.211  19.555   6.153
 3662POPC   D2A47668  30.048  19.538   6.553
 3662POPC   C3A47669  30.164  19.721   6.938
 3662POPC   C4A47670  29.965  19.698   7.325
 3662POPC   C1B47671  29.737  20.157   6.208
 3662POPC   C2B47672  29.618  20.099   6.633
 3662POPC   C3B47673  29.837  20.117   7.026
 3662POPC   C4B47674  30.029  20.238   7.414
 3663POPC   NC347675  43.765   2.253   5.466
 3663POPC   PO447676  43.747   1.571   5.480
 3663POPC   GL147677  43.645   1.667   5.896
 3663POPC   GL247678  43.830   1.962   5.881
 3663POPC   C1A47679  43.813   1.654   6.301
 3663POPC   D2A47680  44.096   1.816   6.612
 3663POPC   C3A47681  43.934   1.648   6.967
 3663POPC   C4A47682  44.034   1.772   7.349
 3663POPC   C1B47683  44.003   2.183   6.243
 3663POPC   C2B47684  44.089   2.355   6.631
 3663POPC   C3B47685  44.090   2.154   7.018
 3663POPC   C4B47686  44.085   2.321   7.436
 3664POPC   NC347687  21.243  43.518   5.194
 3664POPC   PO447688  21.509  42.896   5.297
 3664POPC   GL147689  21.397  43.052   5.738
 3664POPC   GL247690  21.721  42.883   5.795
 3664POPC   C1A47691  21.184  43.129   6.144
 3664POPC   D2A47692  21.153  42.909   6.542
 3664POPC   C3A47693  21.268  43.226   6.887
 3664POPC   C4A47694  21.417  43.239   7.343
 3664POPC   C1B47695  21.510  42.733   6.180
 3664POPC   C2B47696  21.589  42.640   6.644
 3664POPC   C3B47697  21.518  42.752   7.106
 3664POPC   C4B47698  21.808  42.592   7.468
 3665POPC   NC347699  32.993  29.232   5.066
 3665POPC   PO447700  33.511  29.056   5.342
 3665POPC   GL147701  33.168  29.175   5.640
 3665POPC   GL247702  33.026  28.919   5.831
 3665POPC   C1A47703  32.945  29.360   6.066
 3665POPC   D2A47704  32.809  29.200   6.494
 3665POPC   C3A47705  33.041  29.240   6.925
 3665POPC   C4A47706  33.076  29.235   7.399
 3665POPC   C1B47707  33.104  28.785   6.249
 3665POPC   C2B47708  33.022  28.778   6.682
 3665POPC   C3B47709  33.155  28.779   7.089
 3665POPC   C4B47710  33.065  28.720   7.517
 3666POPC   NC347711   6.030  37.021   5.352
 3666POPC   PO447712   5.486  36.543   5.249
 3666POPC   GL147713   5.620  36.583   5.721
 3666POPC   GL247714   5.988  36.719   5.765
 3666POPC   C1A47715   5.665  36.727   6.192
 3666POPC   D2A47716   5.588  36.682   6.652
 3666POPC   C3A47717   5.853  36.834   7.007
 3666POPC   C4A47718   5.733  36.860   7.456
 3666POPC   C1B47719   6.076  37.053   6.092
 3666POPC   C2B47720   6.018  37.049   6.534
 3666POPC   C3B47721   6.041  37.336   6.880
 3666POPC   C4B47722   6.089  37.217   7.283
 3667POPC   NC347723   3.167  32.540   5.621
 3667POPC   PO447724   2.601  32.217   5.500
 3667POPC   GL147725   2.838  32.217   5.852
 3667POPC   GL247726   2.691  32.521   5.898
 3667POPC   C1A47727   2.937  32.129   6.259
 3667POPC   D2A47728   2.767  32.097   6.644
 3667POPC   C3A47729   3.043  32.063   6.969
 3667POPC   C4A47730   2.976  32.172   7.380
 3667POPC   C1B47731   2.521  32.425   6.273
 3667POPC   C2B47732   2.650  32.630   6.634
 3667POPC   C3B47733   2.740  32.484   7.023
 3667POPC   C4B47734   2.595  32.504   7.428
 3668POPC   NC347735  36.450  21.302   5.435
 3668POPC   PO447736  37.077  21.570   5.523
 3668POPC   GL147737  36.854  21.538   5.868
 3668POPC   GL247738  36.721  21.205   5.866
 3668POPC   C1A47739  36.852  21.769   6.245
 3668POPC   D2A47740  36.576  21.781   6.571
 3668POPC   C3A47741  36.791  21.746   6.952
 3668POPC   C4A47742  36.716  21.730   7.348
 3668POPC   C1B47743  36.768  21.277   6.319
 3668POPC   C2B47744  37.000  21.378   6.673
 3668POPC   C3B47745  36.916  21.208   7.091
 3668POPC   C4B47746  36.835  21.273   7.531
 3669POPC   NC347747  41.954  20.694   5.258
 3669POPC   PO447748  42.476  20.390   5.331
 3669POPC   GL147749  42.393  20.593   5.714
 3669POPC   GL247750  42.492  20.298   5.877
 3669POPC   C1A47751  42.395  20.723   6.183
 3669POPC   D2A47752  42.524  20.830   6.642
 3669POPC   C3A47753  42.421  20.652   7.078
 3669POPC   C4A47754  42.570  20.593   7.511
 3669POPC   C1B47755  42.182  20.261   6.252
 3669POPC   C2B47756  42.135  20.378   6.722
 3669POPC   C3B47757  42.290  20.158   7.113
 3669POPC   C4B47758  42.235  20.196   7.572
 3670POPC   NC347759   2.128  16.802   5.451
 3670POPC   PO447760   1.737  16.185   5.490
 3670POPC   GL147761   1.797  16.613   5.778
 3670POPC   GL247762   2.140  16.616   5.927
 3670POPC   C1A47763   1.848  16.893   6.202
 3670POPC   D2A47764   2.222  16.777   6.484
 3670POPC   C3A47765   2.136  16.760   6.938
 3670POPC   C4A47766   1.801  16.979   7.171
 3670POPC   C1B47767   1.839  16.394   6.231
 3670POPC   C2B47768   1.622  16.384   6.604
 3670POPC   C3B47769   1.818  16.373   6.997
 3670POPC   C4B47770   1.841  16.529   7.397
 3671POPC   NC347771  16.541  42.818   5.318
 3671POPC   PO447772  16.620  42.119   5.338
 3671POPC   GL147773  16.660  42.438   5.714
 3671POPC   GL247774  16.931  42.330   5.914
 3671POPC   C1A47775  16.593  42.648   6.149
 3671POPC   D2A47776  16.352  42.709   6.536
 3671POPC   C3A47777  16.532  42.727   6.961
 3671POPC   C4A47778  16.623  42.559   7.328
 3671POPC   C1B47779  16.968  42.388   6.373
 3671POPC   C2B47780  16.818  42.297   6.782
 3671POPC   C3B47781  16.894  42.095   7.193
 3671POPC   C4B47782  16.963  41.739   7.472
 3672POPC   NC347783   1.220  12.859   5.488
 3672POPC   PO447784   1.680  12.468   5.426
 3672POPC   GL147785   1.649  12.753   5.838
 3672POPC   GL247786   1.288  12.810   5.993
 3672POPC   C1A47787   1.667  12.924   6.295
 3672POPC   D2A47788   1.481  12.715   6.685
 3672POPC   C3A47789   1.458  12.915   7.096
 3672POPC   C4A47790   1.185  13.080   7.396
 3672POPC   C1B47791   1.134  13.002   6.402
 3672POPC   C2B47792   1.001  13.005   6.861
 3672POPC   C3B47793   0.793  12.807   7.238
 3672POPC   C4B47794   0.897  12.781   7.701
 3673POPC   NC347795  24.493  27.176   5.144
 3673POPC   PO447796  24.835  27.730   5.384
 3673POPC   GL147797  24.650  27.647   5.833
 3673POPC   GL247798  24.294  27.673   5.889
 3673POPC   C1A47799  24.538  27.540   6.290
 3673POPC   D2A47800  24.308  27.582   6.657
 3673POPC   C3A47801  24.629  27.486   6.949
 3673POPC   C4A47802  24.753  27.648   7.328
 3673POPC   C1B47803  24.117  27.278   6.235
 3673POPC   C2B47804  23.970  27.182   6.664
 3673POPC   C3B47805  24.193  27.256   7.043
 3673POPC   C4B47806  24.252  27.648   7.241
 3674POPC   NC347807   6.182  22.956   5.514
 3674POPC   PO447808   5.627  23.324   5.533
 3674POPC   GL147809   5.805  23.073   5.865
 3674POPC   GL247810   6.139  23.113   6.003
 3674POPC   C1A47811   5.772  22.970   6.298
 3674POPC   D2A47812   5.859  22.894   6.694
 3674POPC   C3A47813   5.794  23.186   7.006
 3674POPC   C4A47814   5.684  22.958   7.357
 3674POPC   C1B47815   6.235  22.713   6.235
 3674POPC   C2B47816   6.279  22.609   6.695
 3674POPC   C3B47817   6.117  22.777   7.110
 3674POPC   C4B47818   6.191  22.760   7.552
 3675POPC   NC347819  24.259  15.720   5.472
 3675POPC   PO447820  24.946  15.767   5.558
 3675POPC   GL147821  24.609  15.865   5.840
 3675POPC   GL247822  24.435  16.171   5.731
 3675POPC   C1A47823  24.323  15.855   6.199
 3675POPC   D2A47824  24.051  15.806   6.557
 3675POPC   C3A47825  24.320  15.844   6.928
 3675POPC   C4A47826  24.487  15.640   7.277
 3675POPC   C1B47827  24.138  16.298   6.038
 3675POPC   C2B47828  24.096  16.308   6.465
 3675POPC   C3B47829  23.969  16.202   6.855
 3675POPC   C4B47830  24.044  16.234   7.250
 3676POPC   NC347831  35.433  30.767   5.509
 3676POPC   PO447832  34.777  30.595   5.505
 3676POPC   GL147833  35.090  30.668   5.863
 3676POPC   GL247834  35.416  30.471   5.913
 3676POPC   C1A47835  35.055  30.934   6.235
 3676POPC   D2A47836  34.978  30.798   6.656
 3676POPC   C3A47837  35.192  30.814   7.063
 3676POPC   C4A47838  35.186  30.808   7.523
 3676POPC   C1B47839  35.213  30.456   6.320
 3676POPC   C2B47840  35.399  30.522   6.681
 3676POPC   C3B47841  35.517  30.312   6.986
 3676POPC   C4B47842  35.287  30.351   7.315
 3677POPC   NC347843  32.901  34.072   5.553
 3677POPC   PO447844  33.155  33.474   5.385
 3677POPC   GL147845  33.164  33.675   5.822
 3677POPC   GL247846  33.203  34.022   5.982
 3677POPC   C1A47847  33.146  33.627   6.281
 3677POPC   D2A47848  33.268  33.899   6.643
 3677POPC   C3A47849  33.073  33.741   7.007
 3677POPC   C4A47850  33.000  33.521   7.378
 3677POPC   C1B47851  32.882  34.232   6.262
 3677POPC   C2B47852  32.759  34.336   6.705
 3677POPC   C3B47853  32.951  34.236   7.088
 3677POPC   C4B47854  32.775  33.978   7.439
 3678POPC   NC347855   5.387  40.318   5.341
 3678POPC   PO447856   4.970  39.836   5.445
 3678POPC   GL147857   5.008  39.891   5.839
 3678POPC   GL247858   5.310  39.860   5.910
 3678POPC   C1A47859   4.929  40.025   6.249
 3678POPC   D2A47860   5.099  39.909   6.619
 3678POPC   C3A47861   4.830  39.913   6.935
 3678POPC   C4A47862   5.047  40.033   7.267
 3678POPC   C1B47863   5.382  40.237   6.151
 3678POPC   C2B47864   5.286  40.401   6.555
 3678POPC   C3B47865   5.411  40.266   6.977
 3678POPC   C4B47866   5.485  40.483   7.340
 3679POPC   NC347867   7.414  24.202   5.383
 3679POPC   PO447868   7.749  24.842   5.298
 3679POPC   GL147869   7.467  24.701   5.684
 3679POPC   GL247870   7.538  24.849   5.965
 3679POPC   C1A47871   7.212  24.479   6.065
 3679POPC   D2A47872   7.314  24.375   6.539
 3679POPC   C3A47873   7.293  24.648   6.945
 3679POPC   C4A47874   7.162  24.455   7.366
 3679POPC   C1B47875   7.702  24.471   6.186
 3679POPC   C2B47876   7.845  24.380   6.594
 3679POPC   C3B47877   7.667  24.284   6.965
 3679POPC   C4B47878   7.651  24.501   7.308
 3680POPC   NC347879   4.468  24.917   5.536
 3680POPC   PO447880   4.529  25.584   5.559
 3680POPC   GL147881   4.270  25.378   5.885
 3680POPC   GL247882   4.076  25.053   5.842
 3680POPC   C1A47883   4.408  25.266   6.306
 3680POPC   D2A47884   4.608  25.096   6.667
 3680POPC   C3A47885   4.440  25.298   7.053
 3680POPC   C4A47886   4.649  25.650   7.288
 3680POPC   C1B47887   3.899  25.138   6.243
 3680POPC   C2B47888   4.025  25.140   6.664
 3680POPC   C3B47889   3.949  25.123   7.095
 3680POPC   C4B47890   4.029  25.201   7.561
 3681POPC   NC347891  16.680  41.660   5.279
 3681POPC   PO447892  17.135  41.267   5.426
 3681POPC   GL147893  16.915  41.525   5.735
 3681POPC   GL247894  17.112  41.496   6.058
 3681POPC   C1A47895  16.667  41.731   6.091
 3681POPC   D2A47896  16.910  41.886   6.459
 3681POPC   C3A47897  16.829  41.730   6.865
 3681POPC   C4A47898  16.535  41.684   7.205
 3681POPC   C1B47899  16.804  41.376   6.424
 3681POPC   C2B47900  16.500  41.367   6.747
 3681POPC   C3B47901  16.766  41.266   7.081
 3681POPC   C4B47902  17.087  41.247   7.406
 3682POPC   NC347903   4.472  42.374   5.473
 3682POPC   PO447904   3.822  42.162   5.408
 3682POPC   GL147905   4.047  42.345   5.834
 3682POPC   GL247906   4.292  42.611   5.869
 3682POPC   C1A47907   4.182  42.380   6.303
 3682POPC   D2A47908   4.418  42.154   6.616
 3682POPC   C3A47909   4.319  42.265   7.051
 3682POPC   C4A47910   4.017  42.197   7.384
 3682POPC   C1B47911   4.586  42.735   6.199
 3682POPC   C2B47912   4.662  42.601   6.636
 3682POPC   C3B47913   4.615  42.688   7.102
 3682POPC   C4B47914   4.282  42.637   7.406
 3683POPC   NC347915  38.635  43.630   5.414
 3683POPC   PO447916  38.113  44.146   5.434
 3683POPC   GL147917  38.170  43.839   5.782
 3683POPC   GL247918  38.403  43.566   5.866
 3683POPC   C1A47919  38.277  43.922   6.204
 3683POPC   D2A47920  38.531  43.945   6.546
 3683POPC   C3A47921  38.308  44.010   6.879
 3683POPC   C4A47922  38.299  43.928   7.277
 3683POPC   C1B47923  38.600  43.507   6.244
 3683POPC   C2B47924  38.576  43.440   6.664
 3683POPC   C3B47925  38.649  43.667   7.023
 3683POPC   C4B47926  38.897  43.662   7.361
 3684POPC   NC347927   7.195  27.896   5.333
 3684POPC   PO447928   7.645  27.423   5.382
 3684POPC   GL147929   7.396  27.468   5.748
 3684POPC   GL247930   7.323  27.801   5.824
 3684POPC   C1A47931   7.384  27.445   6.212
 3684POPC   D2A47932   7.496  27.657   6.597
 3684POPC   C3A47933   7.415  27.457   7.003
 3684POPC   C4A47934   7.542  27.617   7.412
 3684POPC   C1B47935   7.056  27.832   6.186
 3684POPC   C2B47936   7.152  28.048   6.568
 3684POPC   C3B47937   7.329  27.980   6.981
 3684POPC   C4B47938   7.131  27.936   7.349
 3685POPC   NC347939  22.473   3.693   5.519
 3685POPC   PO447940  21.830   3.444   5.358
 3685POPC   GL147941  21.786   3.606   5.793
 3685POPC   GL247942  22.135   3.663   5.910
 3685POPC   C1A47943  21.762   3.506   6.230
 3685POPC   D2A47944  22.060   3.497   6.555
 3685POPC   C3A47945  21.950   3.443   6.987
 3685POPC   C4A47946  22.086   3.777   7.283
 3685POPC   C1B47947  22.494   3.787   6.183
 3685POPC   C2B47948  22.622   3.759   6.595
 3685POPC   C3B47949  22.413   3.635   6.923
 3685POPC   C4B47950  22.502   3.479   7.307
 3686POPC   NC347951  36.475  29.888   5.391
 3686POPC   PO447952  37.054  29.656   5.402
 3686POPC   GL147953  36.884  29.775   5.796
 3686POPC   GL247954  37.215  29.928   5.871
 3686POPC   C1A47955  36.927  29.830   6.275
 3686POPC   D2A47956  37.114  29.782   6.696
 3686POPC   C3A47957  36.778  29.722   6.982
 3686POPC   C4A47958  36.639  30.005   7.273
 3686POPC   C1B47959  37.373  30.116   6.283
 3686POPC   C2B47960  37.344  30.438   6.637
 3686POPC   C3B47961  37.122  30.317   7.019
 3686POPC   C4B47962  37.158  29.930   7.269
 3687POPC   NC347963  42.644  40.621   5.230
 3687POPC   PO447964  42.015  40.700   5.559
 3687POPC   GL147965  42.245  40.904   5.855
 3687POPC   GL247966  42.533  40.999   5.664
 3687POPC   C1A47967  42.287  40.734   6.282
 3687POPC   D2A47968  41.978  40.745   6.611
 3687POPC   C3A47969  42.075  40.534   6.940
 3687POPC   C4A47970  42.256  40.695   7.260
 3687POPC   C1B47971  42.713  41.026   6.087
 3687POPC   C2B47972  42.768  40.892   6.506
 3687POPC   C3B47973  42.559  40.749   6.862
 3687POPC   C4B47974  42.721  40.882   7.244
 3688POPC   NC347975   5.596   3.178   5.512
 3688POPC   PO447976   6.051   2.718   5.411
 3688POPC   GL147977   6.149   2.540   5.794
 3688POPC   GL247978   5.857   2.677   6.005
 3688POPC   C1A47979   6.251   2.434   6.199
 3688POPC   D2A47980   5.951   2.499   6.502
 3688POPC   C3A47981   6.145   2.512   6.885
 3688POPC   C4A47982   5.939   2.819   7.105
 3688POPC   C1B47983   5.744   2.973   6.353
 3688POPC   C2B47984   5.463   3.002   6.722
 3688POPC   C3B47985   5.445   2.967   7.181
 3688POPC   C4B47986   5.620   2.565   7.403
 3689POPC   NC347987  15.219  11.467   5.082
 3689POPC   PO447988  14.941  11.020   5.534
 3689POPC   GL147989  15.219  11.194   5.854
 3689POPC   GL247990  15.313  11.544   5.771
 3689POPC   C1A47991  15.281  11.012   6.261
 3689POPC   D2A47992  15.188  10.785   6.641
 3689POPC   C3A47993  15.257  11.067   6.994
 3689POPC   C4A47994  14.948  11.200   7.309
 3689POPC   C1B47995  15.264  11.549   6.223
 3689POPC   C2B47996  15.480  11.382   6.557
 3689POPC   C3B47997  15.550  11.521   6.927
 3689POPC   C4B47998  15.265  11.579   7.218
 3690POPC   NC347999  18.726  42.166   5.410
 3690POPC   PO448000  19.219  42.597   5.094
 3690POPC   GL148001  19.172  42.397   5.568
 3690POPC   GL248002  18.853  42.468   5.792
 3690POPC   C1A48003  19.262  42.368   6.063
 3690POPC   D2A48004  19.158  42.302   6.512
 3690POPC   C3A48005  19.332  42.456   6.880
 3690POPC   C4A48006  19.191  42.411   7.320
 3690POPC   C1B48007  18.702  42.524   6.243
 3690POPC   C2B48008  18.768  42.611   6.673
 3690POPC   C3B48009  18.751  42.431   7.068
 3690POPC   C4B48010  18.689  42.354   7.513
 3691POPC   NC348011  18.488  28.581   5.417
 3691POPC   PO448012  17.976  28.904   5.294
 3691POPC   GL148013  18.085  29.026   5.733
 3691POPC   GL248014  17.947  29.370   5.807
 3691POPC   C1A48015  18.178  28.993   6.212
 3691POPC   D2A48016  18.162  28.903   6.696
 3691POPC   C3A48017  18.528  28.802   6.999
 3691POPC   C4A48018  18.633  28.786   7.447
 3691POPC   C1B48019  17.954  29.455   6.264
 3691POPC   C2B48020  18.235  29.426   6.648
 3691POPC   C3B48021  18.449  29.319   7.062
 3691POPC   C4B48022  18.383  29.325   7.521
 3692POPC   NC348023  13.263  16.133   5.514
 3692POPC   PO448024  12.626  15.994   5.504
 3692POPC   GL148025  12.859  15.850   5.868
 3692POPC   GL248026  13.189  15.709   5.880
 3692POPC   C1A48027  13.123  16.081   6.207
 3692POPC   D2A48028  13.280  16.269   6.597
 3692POPC   C3A48029  13.093  16.200   7.012
 3692POPC   C4A48030  12.805  16.339   7.343
 3692POPC   C1B48031  13.036  15.587   6.293
 3692POPC   C2B48032  12.886  15.882   6.633
 3692POPC   C3B48033  12.638  15.981   7.004
 3692POPC   C4B48034  12.596  15.848   7.416
 3693POPC   NC348035  16.160   2.970   5.287
 3693POPC   PO448036  15.735   2.691   5.690
 3693POPC   GL148037  16.013   2.759   5.978
 3693POPC   GL248038  16.249   2.482   5.884
 3693POPC   C1A48039  15.815   2.744   6.390
 3693POPC   D2A48040  15.569   2.906   6.745
 3693POPC   C3A48041  15.643   2.852   7.177
 3693POPC   C4A48042  15.840   2.707   7.552
 3693POPC   C1B48043  16.327   2.579   6.323
 3693POPC   C2B48044  16.178   2.700   6.737
 3693POPC   C3B48045  16.159   2.819   7.129
 3693POPC   C4B48046  16.056   3.236   7.227
 3694POPC   NC348047   4.785  37.527   5.574
 3694POPC   PO448048   5.367  37.885   5.646
 3694POPC   GL148049   5.106  37.782   5.946
 3694POPC   GL248050   5.144  37.444   5.953
 3694POPC   C1A48051   5.268  37.724   6.346
 3694POPC   D2A48052   5.192  37.499   6.679
 3694POPC   C3A48053   5.329  37.734   7.042
 3694POPC   C4A48054   5.099  37.971   7.382
 3694POPC   C1B48055   4.814  37.393   6.284
 3694POPC   C2B48056   4.724  37.255   6.724
 3694POPC   C3B48057   4.994  37.240   7.094
 3694POPC   C4B48058   5.121  37.476   7.426
 3695POPC   NC348059   1.335  44.182   5.547
 3695POPC   PO448060   0.976  43.647   5.603
 3695POPC   GL148061   0.997  44.005   5.915
 3695POPC   GL248062   1.335  44.137   6.042
 3695POPC   C1A48063   1.000  44.036   6.389
 3695POPC   D2A48064   1.166  43.825   6.731
 3695POPC   C3A48065   0.888  43.861   7.037
 3695POPC   C4A48066   0.903  44.091   7.392
 3695POPC   C1B48067   1.379  43.696   6.242
 3695POPC   C2B48068   1.636  43.544   6.599
 3695POPC   C3B48069   1.620  43.801   6.966
 3695POPC   C4B48070   1.321  43.743   7.272
 3696POPC   NC348071   0.250  22.323   5.035
 3696POPC   PO448072   0.822  22.154   5.356
 3696POPC   GL148073   0.596  22.298   5.738
 3696POPC   GL248074   0.275  22.081   5.689
 3696POPC   C1A48075   0.688  22.452   6.197
 3696POPC   D2A48076   0.853  22.523   6.647
 3696POPC   C3A48077   0.575  22.322   7.004
 3696POPC   C4A48078   0.392  22.087   7.377
 3696POPC   C1B48079   0.215  22.305   6.079
 3696POPC   C2B48080   0.271  22.308   6.537
 3696POPC   C3B48081   0.116  22.112   6.930
 3696POPC   C4B48082  44.907  22.169   7.307
 3697POPC   NC348083  41.138  35.324   5.492
 3697POPC   PO448084  40.410  35.414   5.380
 3697POPC   GL148085  40.695  35.470   5.717
 3697POPC   GL248086  40.818  35.125   5.850
 3697POPC   C1A48087  40.740  35.561   6.159
 3697POPC   D2A48088  40.615  35.384   6.579
 3697POPC   C3A48089  40.382  35.644   6.864
 3697POPC   C4A48090  40.249  35.533   7.274
 3697POPC   C1B48091  41.062  35.173   6.274
 3697POPC   C2B48092  41.102  35.327   6.738
 3697POPC   C3B48093  40.791  35.382   7.109
 3697POPC   C4B48094  40.549  35.131   7.436
 3698POPC   NC348095  20.235  41.349   5.560
 3698POPC   PO448096  19.922  41.911   5.437
 3698POPC   GL148097  19.891  41.679   5.889
 3698POPC   GL248098  20.083  41.426   6.017
 3698POPC   C1A48099  19.705  41.486   6.338
 3698POPC   D2A48100  19.757  41.630   6.775
 3698POPC   C3A48101  19.663  41.394   7.137
 3698POPC   C4A48102  19.595  41.261   7.573
 3698POPC   C1B48103  20.182  41.622   6.347
 3698POPC   C2B48104  20.246  41.466   6.745
 3698POPC   C3B48105  20.170  41.660   7.087
 3698POPC   C4B48106  19.832  41.842   7.289
 3699POPC   NC348107  25.499  42.700   5.086
 3699POPC   PO448108  24.994  42.494   5.434
 3699POPC   GL148109  25.126  42.243   5.795
 3699POPC   GL248110  25.389  42.039   5.670
 3699POPC   C1A48111  25.004  42.247   6.252
 3699POPC   D2A48112  25.317  42.296   6.590
 3699POPC   C3A48113  25.180  42.264   6.993
 3699POPC   C4A48114  24.750  42.165   7.059
 3699POPC   C1B48115  25.469  42.075   6.136
 3699POPC   C2B48116  25.590  41.863   6.544
 3699POPC   C3B48117  25.475  41.770   6.997
 3699POPC   C4B48118  25.094  41.821   7.234
 3700POPC   NC348119   5.601  13.703   5.475
 3700POPC   PO448120   6.081  13.215   5.382
 3700POPC   GL148121   5.983  13.425   5.755
 3700POPC   GL248122   6.303  13.500   5.886
 3700POPC   C1A48123   5.694  13.494   6.103
 3700POPC   D2A48124   5.675  13.373   6.523
 3700POPC   C3A48125   5.943  13.585   6.791
 3700POPC   C4A48126   5.838  13.675   7.196
 3700POPC   C1B48127   6.158  13.676   6.274
 3700POPC   C2B48128   6.355  13.877   6.610
 3700POPC   C3B48129   6.229  13.963   7.014
 3700POPC   C4B48130   6.179  13.931   7.438
 3701POPC   NC348131  29.285  40.090   5.251
 3701POPC   PO448132  29.043  39.611   5.652
 3701POPC   GL148133  29.310  39.992   5.760
 3701POPC   GL248134  29.054  40.176   5.807
 3701POPC   C1A48135  29.491  40.113   6.153
 3701POPC   D2A48136  29.373  40.330   6.491
 3701POPC   C3A48137  29.331  40.105   6.868
 3701POPC   C4A48138  29.130  40.315   7.198
 3701POPC   C1B48139  29.013  39.981   6.233
 3701POPC   C2B48140  28.859  40.039   6.666
 3701POPC   C3B48141  28.927  39.841   7.074
 3701POPC   C4B48142  29.237  39.604   7.310
 3702POPC   NC348143  11.586   1.420   5.415
 3702POPC   PO448144  10.981   1.046   5.323
 3702POPC   GL148145  11.221   1.143   5.696
 3702POPC   GL248146  11.483   0.911   5.691
 3702POPC   C1A48147  11.426   1.337   6.077
 3702POPC   D2A48148  11.426   1.320   6.533
 3702POPC   C3A48149  11.050   1.430   6.770
 3702POPC   C4A48150  11.037   1.310   7.200
 3702POPC   C1B48151  11.449   0.826   6.167
 3702POPC   C2B48152  11.539   0.817   6.636
 3702POPC   C3B48153  11.476   1.070   7.015
 3702POPC   C4B48154  11.519   1.109   7.469
 3703POPC   NC348155   8.166   8.307   5.570
 3703POPC   PO448156   7.739   7.862   5.503
 3703POPC   GL148157   8.052   7.895   5.862
 3703POPC   GL248158   8.420   7.923   5.840
 3703POPC   C1A48159   8.191   8.236   6.214
 3703POPC   D2A48160   8.478   8.374   6.562
 3703POPC   C3A48161   8.289   8.387   6.984
 3703POPC   C4A48162   8.281   8.335   7.464
 3703POPC   C1B48163   8.427   7.788   6.274
 3703POPC   C2B48164   8.416   7.880   6.727
 3703POPC   C3B48165   8.468   7.937   7.174
 3703POPC   C4B48166   8.579   7.928   7.624
 3704POPC   NC348167  26.005   9.273   5.104
 3704POPC   PO448168  26.103   9.849   5.417
 3704POPC   GL148169  26.219   9.844   5.850
 3704POPC   GL248170  26.134  10.167   5.900
 3704POPC   C1A48171  26.092   9.758   6.275
 3704POPC   D2A48172  25.714   9.645   6.520
 3704POPC   C3A48173  25.894   9.575   6.907
 3704POPC   C4A48174  25.955   9.568   7.368
 3704POPC   C1B48175  25.719  10.117   6.108
 3704POPC   C2B48176  25.539  10.197   6.504
 3704POPC   C3B48177  25.585  10.003   6.901
 3704POPC   C4B48178  25.908  10.043   7.184
 3705POPC   NC348179  32.189   9.750   5.424
 3705POPC   PO448180  32.576  10.205   5.439
 3705POPC   GL148181  32.502   9.934   5.816
 3705POPC   GL248182  32.279   9.624   5.911
 3705POPC   C1A48183  32.447   9.969   6.263
 3705POPC   D2A48184  32.594  10.143   6.645
 3705POPC   C3A48185  32.503   9.896   7.030
 3705POPC   C4A48186  32.426   9.768   7.487
 3705POPC   C1B48187  32.328   9.476   6.351
 3705POPC   C2B48188  32.345   9.469   6.811
 3705POPC   C3B48189  32.024   9.306   7.111
 3705POPC   C4B48190  31.961   9.528   7.519
 3706POPC   NC348191  10.723  23.657   5.461
 3706POPC   PO448192  10.244  23.246   5.549
 3706POPC   GL148193  10.396  23.543   5.866
 3706POPC   GL248194  10.702  23.496   5.934
 3706POPC   C1A48195  10.424  23.774   6.260
 3706POPC   D2A48196  10.152  23.903   6.549
 3706POPC   C3A48197  10.284  23.795   6.963
 3706POPC   C4A48198  10.333  23.643   7.371
 3706POPC   C1B48199  10.667  23.345   6.354
 3706POPC   C2B48200  10.717  23.508   6.765
 3706POPC   C3B48201  10.757  23.335   7.172
 3706POPC   C4B48202  10.759  23.472   7.616
 3707POPC   NC348203  20.007  27.565   5.556
 3707POPC   PO448204  20.675  27.596   5.446
 3707POPC   GL148205  20.760  27.407   5.861
 3707POPC   GL248206  20.905  27.646   6.081
 3707POPC   C1A48207  20.566  27.295   6.277
 3707POPC   D2A48208  20.455  27.099   6.678
 3707POPC   C3A48209  20.614  27.385   7.002
 3707POPC   C4A48210  20.380  27.470   7.396
 3707POPC   C1B48211  20.511  27.819   6.305
 3707POPC   C2B48212  20.454  27.809   6.766
 3707POPC   C3B48213  20.624  27.877   7.194
 3707POPC   C4B48214  20.455  27.987   7.645
 3708POPC   NC348215   7.126  40.373   5.458
 3708POPC   PO448216   7.464  39.784   5.443
 3708POPC   GL148217   7.301  39.904   5.822
 3708POPC   GL248218   7.447  40.239   5.851
 3708POPC   C1A48219   7.510  39.895   6.221
 3708POPC   D2A48220   7.439  40.109   6.566
 3708POPC   C3A48221   7.385  39.853   6.909
 3708POPC   C4A48222   7.571  39.718   7.288
 3708POPC   C1B48223   7.109  40.258   6.166
 3708POPC   C2B48224   6.984  40.314   6.607
 3708POPC   C3B48225   7.246  40.338   6.992
 3708POPC   C4B48226   7.286  40.509   7.385
 3709POPC   NC348227  11.766  23.831   5.318
 3709POPC   PO448228  11.176  23.607   5.525
 3709POPC   GL148229  11.412  23.691   5.942
 3709POPC   GL248230  11.046  23.832   6.064
 3709POPC   C1A48231  11.440  23.913   6.351
 3709POPC   D2A48232  11.087  23.875   6.667
 3709POPC   C3A48233  11.114  23.828   7.144
 3709POPC   C4A48234  11.076  23.870   7.642
 3709POPC   C1B48235  11.150  23.473   6.295
 3709POPC   C2B48236  11.423  23.482   6.646
 3709POPC   C3B48237  11.330  23.350   7.038
 3709POPC   C4B48238  11.214  23.403   7.438
 3710POPC   NC348239   2.405  40.136   5.652
 3710POPC   PO448240   3.027  40.426   5.408
 3710POPC   GL148241   3.199  40.312   5.842
 3710POPC   GL248242   2.904  40.136   5.872
 3710POPC   C1A48243   3.162  40.279   6.320
 3710POPC   D2A48244   2.890  40.323   6.702
 3710POPC   C3A48245   2.751  39.976   6.963
 3710POPC   C4A48246   2.941  39.867   7.353
 3710POPC   C1B48247   2.693  40.027   6.256
 3710POPC   C2B48248   2.361  40.241   6.476
 3710POPC   C3B48249   2.388  40.387   6.878
 3710POPC   C4B48250   2.708  40.430   7.212
 3711POPC   NC348251  41.722  14.001   4.878
 3711POPC   PO448252  41.380  14.223   5.410
 3711POPC   GL148253  41.369  14.385   5.814
 3711POPC   GL248254  41.187  14.158   6.042
 3711POPC   C1A48255  41.224  14.692   6.125
 3711POPC   D2A48256  41.041  14.517   6.491
 3711POPC   C3A48257  41.137  14.687   6.897
 3711POPC   C4A48258  41.224  14.319   7.135
 3711POPC   C1B48259  41.606  14.149   6.199
 3711POPC   C2B48260  41.970  14.223   6.459
 3711POPC   C3B48261  41.835  14.261   6.881
 3711POPC   C4B48262  41.632  14.049   7.251
 3712POPC   NC348263  22.973  15.546   5.567
 3712POPC   PO448264  22.745  14.937   5.557
 3712POPC   GL148265  22.788  15.256   5.929
 3712POPC   GL248266  22.451  15.367   6.103
 3712POPC   C1A48267  23.150  15.311   6.224
 3712POPC   D2A48268  23.152  15.459   6.650
 3712POPC   C3A48269  22.941  15.181   6.928
 3712POPC   C4A48270  23.119  14.929   7.242
 3712POPC   C1B48271  22.692  15.213   6.440
 3712POPC   C2B48272  22.788  14.800   6.575
 3712POPC   C3B48273  22.718  14.692   6.987
 3712POPC   C4B48274  22.580  14.961   7.284
 3713POPC   NC348275  21.955   1.865   5.386
 3713POPC   PO448276  22.551   1.765   5.507
 3713POPC   GL148277  22.247   1.860   5.803
 3713POPC   GL248278  22.224   2.204   5.773
 3713POPC   C1A48279  21.929   1.899   6.132
 3713POPC   D2A48280  22.102   1.867   6.548
 3713POPC   C3A48281  22.141   1.711   6.959
 3713POPC   C4A48282  21.989   1.779   7.349
 3713POPC   C1B48283  22.257   2.290   6.199
 3713POPC   C2B48284  21.955   2.355   6.550
 3713POPC   C3B48285  22.055   2.201   6.955
 3713POPC   C4B48286  22.363   2.127   7.299
 3714POPC   NC348287  23.940   9.754   5.360
 3714POPC   PO448288  23.387   9.370   5.400
 3714POPC   GL148289  23.395   9.496   5.867
 3714POPC   GL248290  23.612   9.786   5.875
 3714POPC   C1A48291  23.430   9.592   6.337
 3714POPC   D2A48292  23.742   9.695   6.622
 3714POPC   C3A48293  23.561   9.669   7.026
 3714POPC   C4A48294  23.891   9.746   7.229
 3714POPC   C1B48295  23.547  10.072   6.268
 3714POPC   C2B48296  23.429  10.072   6.731
 3714POPC   C3B48297  23.463  10.207   7.169
 3714POPC   C4B48298  23.539   9.971   7.570
 3715POPC   NC348299  32.335  17.187   5.488
 3715POPC   PO448300  31.845  16.886   5.184
 3715POPC   GL148301  32.093  16.750   5.671
 3715POPC   GL248302  32.455  16.709   5.730
 3715POPC   C1A48303  32.277  16.954   6.133
 3715POPC   D2A48304  32.395  17.104   6.564
 3715POPC   C3A48305  32.367  16.897   6.921
 3715POPC   C4A48306  32.292  16.743   7.304
 3715POPC   C1B48307  32.207  16.458   6.079
 3715POPC   C2B48308  32.242  16.558   6.526
 3715POPC   C3B48309  32.175  16.382   6.950
 3715POPC   C4B48310  32.360  16.262   7.363
 3716POPC   NC348311  11.627  15.274   5.298
 3716POPC   PO448312  11.973  15.717   5.645
 3716POPC   GL148313  11.560  15.496   5.817
 3716POPC   GL248314  11.424  15.124   5.764
 3716POPC   C1A48315  11.294  15.376   6.199
 3716POPC   D2A48316  11.425  15.115   6.572
 3716POPC   C3A48317  11.449  15.313   7.016
 3716POPC   C4A48318  11.460  15.760   7.120
 3716POPC   C1B48319  11.249  14.871   6.142
 3716POPC   C2B48320  11.162  14.660   6.547
 3716POPC   C3B48321  11.355  14.807   6.957
 3716POPC   C4B48322  11.346  15.009   7.415
 3717POPC   NC348323  17.648  18.028   5.465
 3717POPC   PO448324  17.964  18.608   5.498
 3717POPC   GL148325  17.643  18.523   5.840
 3717POPC   GL248326  17.354  18.254   5.832
 3717POPC   C1A48327  17.505  18.409   6.267
 3717POPC   D2A48328  17.335  18.248   6.628
 3717POPC   C3A48329  17.460  18.457   6.973
 3717POPC   C4A48330  17.518  18.340   7.372
 3717POPC   C1B48331  17.181  17.976   6.205
 3717POPC   C2B48332  17.152  17.781   6.660
 3717POPC   C3B48333  17.183  18.012   7.090
 3717POPC   C4B48334  16.999  18.082   7.521
 3718POPC   NC348335   5.332   6.296   5.471
 3718POPC   PO448336   4.910   5.752   5.577
 3718POPC   GL148337   5.152   5.948   5.850
 3718POPC   GL248338   5.128   5.626   6.032
 3718POPC   C1A48339   5.348   6.063   6.210
 3718POPC   D2A48340   5.550   5.915   6.564
 3718POPC   C3A48341   5.231   5.903   6.856
 3718POPC   C4A48342   5.083   6.098   7.218
 3718POPC   C1B48343   5.170   5.579   6.435
 3718POPC   C2B48344   4.803   5.582   6.685
 3718POPC   C3B48345   4.826   5.657   7.097
 3718POPC   C4B48346   5.237   5.617   7.298
 3719POPC   NC348347  21.057   2.292   5.490
 3719POPC   PO448348  21.533   1.826   5.549
 3719POPC   GL148349  21.265   1.942   5.846
 3719POPC   GL248350  20.996   1.731   5.809
 3719POPC   C1A48351  21.420   2.030   6.248
 3719POPC   D2A48352  21.416   2.180   6.656
 3719POPC   C3A48353  21.626   1.937   6.993
 3719POPC   C4A48354  21.619   2.113   7.416
 3719POPC   C1B48355  20.922   1.920   6.235
 3719POPC   C2B48356  20.933   1.776   6.688
 3719POPC   C3B48357  21.124   1.979   7.033
 3719POPC   C4B48358  21.121   2.189   7.400
 3720POPC   NC348359  38.864   7.628   5.523
 3720POPC   PO448360  39.375   7.200   5.431
 3720POPC   GL148361  39.186   7.285   5.845
 3720POPC   GL248362  38.819   7.394   5.961
 3720POPC   C1A48363  39.361   7.563   6.172
 3720POPC   D2A48364  39.749   7.605   6.449
 3720POPC   C3A48365  39.652   7.649   6.879
 3720POPC   C4A48366  39.287   7.540   7.131
 3720POPC   C1B48367  39.007   7.219   6.316
 3720POPC   C2B48368  39.181   7.365   6.667
 3720POPC   C3B48369  38.937   7.188   7.015
 3720POPC   C4B48370  38.704   7.540   7.172
 3721POPC   NC348371   2.418  21.670   5.553
 3721POPC   PO448372   2.892  21.246   5.421
 3721POPC   GL148373   2.845  21.339   5.845
 3721POPC   GL248374   2.513  21.276   5.866
 3721POPC   C1A48375   2.811  21.216   6.288
 3721POPC   D2A48376   2.998  21.066   6.661
 3721POPC   C3A48377   2.762  21.208   7.019
 3721POPC   C4A48378   2.870  21.312   7.452
 3721POPC   C1B48379   2.314  21.406   6.194
 3721POPC   C2B48380   2.497  21.587   6.538
 3721POPC   C3B48381   2.282  21.589   6.909
 3721POPC   C4B48382   2.313  21.328   7.253
 3722POPC   NC348383  14.223  24.601   5.026
 3722POPC   PO448384  14.620  24.286   5.366
 3722POPC   GL148385  14.445  24.573   5.725
 3722POPC   GL248386  14.265  24.314   5.854
 3722POPC   C1A48387  14.343  24.648   6.220
 3722POPC   D2A48388  14.267  24.754   6.679
 3722POPC   C3A48389  14.372  24.509   7.046
 3722POPC   C4A48390  14.591  24.713   7.380
 3722POPC   C1B48391  14.086  24.188   6.238
 3722POPC   C2B48392  14.126  24.265   6.653
 3722POPC   C3B48393  14.033  24.109   7.059
 3722POPC   C4B48394  14.301  24.115   7.414
 3723POPC   NC348395   6.844  17.526   5.375
 3723POPC   PO448396   6.847  16.840   5.359
 3723POPC   GL148397   6.646  16.926   5.802
 3723POPC   GL248398   6.279  17.022   5.924
 3723POPC   C1A48399   6.606  16.744   6.218
 3723POPC   D2A48400   6.453  16.637   6.608
 3723POPC   C3A48401   6.769  16.721   6.925
 3723POPC   C4A48402   6.623  16.664   7.344
 3723POPC   C1B48403   6.369  17.197   6.294
 3723POPC   C2B48404   6.630  17.119   6.607
 3723POPC   C3B48405   6.555  17.152   7.037
 3723POPC   C4B48406   6.418  17.115   7.436
 3724POPC   NC348407  13.209  30.771   4.874
 3724POPC   PO448408  12.909  30.777   5.459
 3724POPC   GL148409  12.872  30.543   5.814
 3724POPC   GL248410  13.102  30.264   5.758
 3724POPC   C1A48411  12.726  30.727   6.199
 3724POPC   D2A48412  12.612  31.038   6.511
 3724POPC   C3A48413  12.715  30.821   6.847
 3724POPC   C4A48414  12.882  30.918   7.219
 3724POPC   C1B48415  13.186  30.399   6.191
 3724POPC   C2B48416  13.026  30.431   6.612
 3724POPC   C3B48417  13.013  30.451   7.054
 3724POPC   C4B48418  12.646  30.484   7.277
 3725POPC   NC348419   5.342   7.090   5.454
 3725POPC   PO448420   5.076   7.725   5.517
 3725POPC   GL148421   5.276   7.475   5.807
 3725POPC   GL248422   5.037   7.194   5.849
 3725POPC   C1A48423   5.255   7.452   6.246
 3725POPC   D2A48424   4.974   7.400   6.613
 3725POPC   C3A48425   5.152   7.405   7.029
 3725POPC   C4A48426   5.313   7.421   7.474
 3725POPC   C1B48427   4.721   7.287   6.155
 3725POPC   C2B48428   4.526   7.167   6.549
 3725POPC   C3B48429   4.716   7.077   6.979
 3725POPC   C4B48430   4.821   7.293   7.391
 3726POPC   NC348431  16.393  34.596   5.575
 3726POPC   PO448432  17.050  34.493   5.400
 3726POPC   GL148433  16.877  34.569   5.820
 3726POPC   GL248434  16.655  34.311   5.941
 3726POPC   C1A48435  16.806  34.777   6.229
 3726POPC   D2A48436  16.525  34.790   6.584
 3726POPC   C3A48437  16.656  34.859   7.001
 3726POPC   C4A48438  16.819  34.640   7.353
 3726POPC   C1B48439  16.773  34.297   6.407
 3726POPC   C2B48440  16.536  34.279   6.797
 3726POPC   C3B48441  16.420  34.287   7.237
 3726POPC   C4B48442  16.507  34.380   7.682
 3727POPC   NC348443  36.999   9.904   5.106
 3727POPC   PO448444  36.559   9.462   5.381
 3727POPC   GL148445  36.792   9.659   5.774
 3727POPC   GL248446  37.063   9.930   5.765
 3727POPC   C1A48447  36.753   9.863   6.205
 3727POPC   D2A48448  36.685  10.033   6.635
 3727POPC   C3A48449  36.653   9.765   6.988
 3727POPC   C4A48450  36.907   9.452   7.174
 3727POPC   C1B48451  37.254   9.959   6.231
 3727POPC   C2B48452  37.173  10.213   6.633
 3727POPC   C3B48453  36.922  10.239   7.040
 3727POPC   C4B48454  36.591  10.284   7.378
 3728POPC   NC348455  11.092  22.431   5.501
 3728POPC   PO448456  11.364  21.793   5.475
 3728POPC   GL148457  11.291  22.070   5.817
 3728POPC   GL248458  11.560  22.320   5.847
 3728POPC   C1A48459  11.394  21.990   6.238
 3728POPC   D2A48460  11.602  22.197   6.589
 3728POPC   C3A48461  11.283  22.172   6.900
 3728POPC   C4A48462  11.294  22.000   7.269
 3728POPC   C1B48463  11.390  22.489   6.198
 3728POPC   C2B48464  11.265  22.607   6.610
 3728POPC   C3B48465  11.518  22.623   6.931
 3728POPC   C4B48466  11.680  22.353   7.246
 3729POPC   NC348467  12.417  37.231   5.436
 3729POPC   PO448468  12.173  36.777   5.146
 3729POPC   GL148469  12.172  36.849   5.683
 3729POPC   GL248470  11.789  36.954   5.849
 3729POPC   C1A48471  12.146  36.844   6.180
 3729POPC   D2A48472  11.926  36.981   6.603
 3729POPC   C3A48473  12.172  37.037   7.007
 3729POPC   C4A48474  12.296  37.315   7.352
 3729POPC   C1B48475  11.637  36.719   6.232
 3729POPC   C2B48476  11.633  36.567   6.683
 3729POPC   C3B48477  11.751  36.732   7.104
 3729POPC   C4B48478  11.709  36.547   7.515
 3730POPC   NC348479   6.251  21.054   5.367
 3730POPC   PO448480   5.555  20.932   5.483
 3730POPC   GL148481   5.682  20.654   5.812
 3730POPC   GL248482   6.033  20.596   5.773
 3730POPC   C1A48483   5.668  20.507   6.245
 3730POPC   D2A48484   5.526  20.703   6.630
 3730POPC   C3A48485   5.770  20.533   6.948
 3730POPC   C4A48486   5.859  20.571   7.370
 3730POPC   C1B48487   6.153  20.774   6.180
 3730POPC   C2B48488   6.052  20.813   6.624
 3730POPC   C3B48489   6.238  20.717   7.033
 3730POPC   C4B48490   6.260  20.298   7.149
 3731POPC   NC348491  22.625  40.485   5.508
 3731POPC   PO448492  21.955  40.425   5.376
 3731POPC   GL148493  22.072  40.531   5.796
 3731POPC   GL248494  22.127  40.878   5.820
 3731POPC   C1A48495  22.290  40.563   6.230
 3731POPC   D2A48496  22.301  40.820   6.669
 3731POPC   C3A48497  22.169  40.668   7.087
 3731POPC   C4A48498  21.971  40.975   7.373
 3731POPC   C1B48499  22.024  40.997   6.246
 3731POPC   C2B48500  21.866  41.232   6.550
 3731POPC   C3B48501  22.019  41.246   6.934
 3731POPC   C4B48502  22.405  41.152   7.141
 3732POPC   NC348503  24.545   2.965   5.127
 3732POPC   PO448504  24.718   3.578   5.357
 3732POPC   GL148505  24.478   3.620   5.713
 3732POPC   GL248506  24.418   3.912   5.888
 3732POPC   C1A48507  24.353   3.424   6.128
 3732POPC   D2A48508  24.486   3.190   6.496
 3732POPC   C3A48509  24.338   3.199   6.933
 3732POPC   C4A48510  24.465   3.167   7.366
 3732POPC   C1B48511  24.387   3.904   6.339
 3732POPC   C2B48512  24.453   3.658   6.719
 3732POPC   C3B48513  24.555   3.648   7.178
 3732POPC   C4B48514  24.320   3.829   7.581
 3733POPC   NC348515  22.134  17.057   5.545
 3733POPC   PO448516  22.314  16.342   5.450
 3733POPC   GL148517  22.231  16.639   5.837
 3733POPC   GL248518  21.880  16.793   5.930
 3733POPC   C1A48519  22.430  16.929   6.166
 3733POPC   D2A48520  22.538  16.857   6.636
 3733POPC   C3A48521  22.330  16.978   7.039
 3733POPC   C4A48522  22.385  16.836   7.473
 3733POPC   C1B48523  22.044  16.625   6.329
 3733POPC   C2B48524  21.983  16.709   6.763
 3733POPC   C3B48525  22.013  16.591   7.188
 3733POPC   C4B48526  21.949  16.602   7.657
 3734POPC   NC348527  43.943  14.008   5.576
 3734POPC   PO448528  43.943  13.353   5.472
 3734POPC   GL148529  43.645  13.321   5.818
 3734POPC   GL248530  43.742  13.650   5.874
 3734POPC   C1A48531  43.594  13.377   6.275
 3734POPC   D2A48532  43.836  13.495   6.613
 3734POPC   C3A48533  43.828  13.318   7.004
 3734POPC   C4A48534  44.015  13.485   7.430
 3734POPC   C1B48535  43.887  13.885   6.227
 3734POPC   C2B48536  43.851  14.004   6.645
 3734POPC   C3B48537  43.990  13.832   7.015
 3734POPC   C4B48538  43.737  13.924   7.367
 3735POPC   NC348539  41.813   5.653   5.452
 3735POPC   PO448540  42.448   5.854   5.408
 3735POPC   GL148541  42.483   5.871   5.827
 3735POPC   GL248542  42.253   5.594   5.874
 3735POPC   C1A48543  42.645   6.053   6.199
 3735POPC   D2A48544  42.737   6.184   6.626
 3735POPC   C3A48545  42.542   5.875   6.878
 3735POPC   C4A48546  42.300   5.808   7.260
 3735POPC   C1B48547  42.349   5.399   6.225
 3735POPC   C2B48548  42.236   5.662   6.559
 3735POPC   C3B48549  41.954   5.697   6.911
 3735POPC   C4B48550  41.961   5.393   7.238
 3736POPC   NC348551  37.875  36.393   5.347
 3736POPC   PO448552  37.499  35.792   5.454
 3736POPC   GL148553  37.753  36.013   5.775
 3736POPC   GL248554  37.733  36.372   5.819
 3736POPC   C1A48555  37.696  36.095   6.247
 3736POPC   D2A48556  37.487  36.255   6.650
 3736POPC   C3A48557  37.563  35.969   7.009
 3736POPC   C4A48558  37.715  35.991   7.437
 3736POPC   C1B48559  38.012  36.530   6.159
 3736POPC   C2B48560  38.069  36.320   6.541
 3736POPC   C3B48561  37.927  36.341   6.952
 3736POPC   C4B48562  37.978  36.576   7.313
 3737POPC   NC348563   6.524  10.104   5.726
 3737POPC   PO448564   6.900  10.590   5.347
 3737POPC   GL148565   6.713  10.668   5.752
 3737POPC   GL248566   6.884  10.407   5.907
 3737POPC   C1A48567   6.465  10.653   6.140
 3737POPC   D2A48568   6.393  10.407   6.524
 3737POPC   C3A48569   6.374  10.635   6.925
 3737POPC   C4A48570   6.591  10.404   7.245
 3737POPC   C1B48571   6.867  10.369   6.319
 3737POPC   C2B48572   6.813  10.714   6.593
 3737POPC   C3B48573   7.028  10.753   6.971
 3737POPC   C4B48574   7.099  10.402   7.241
 3738POPC   NC348575  34.298  42.590   5.316
 3738POPC   PO448576  34.594  42.001   5.518
 3738POPC   GL148577  34.528  42.217   5.898
 3738POPC   GL248578  34.364  42.499   5.821
 3738POPC   C1A48579  34.767  42.573   6.138
 3738POPC   D2A48580  34.875  42.560   6.583
 3738POPC   C3A48581  34.705  42.159   6.764
 3738POPC   C4A48582  34.729  42.080   7.178
 3738POPC   C1B48583  34.270  42.493   6.277
 3738POPC   C2B48584  34.377  42.556   6.772
 3738POPC   C3B48585  34.410  42.532   7.229
 3738POPC   C4B48586  34.377  42.789   7.617
 3739POPC   NC348587  41.811  36.233   5.400
 3739POPC   PO448588  41.495  35.618   5.282
 3739POPC   GL148589  41.762  35.799   5.687
 3739POPC   GL248590  41.575  36.108   5.819
 3739POPC   C1A48591  41.753  35.844   6.200
 3739POPC   D2A48592  41.577  36.146   6.523
 3739POPC   C3A48593  41.614  36.047   6.990
 3739POPC   C4A48594  41.326  36.217   7.314
 3739POPC   C1B48595  41.349  36.367   6.098
 3739POPC   C2B48596  41.386  36.614   6.472
 3739POPC   C3B48597  41.288  36.484   6.876
 3739POPC   C4B48598  41.131  36.687   7.228
 3740POPC   NC348599   0.913  13.804   5.567
 3740POPC   PO448600   0.840  13.122   5.517
 3740POPC   GL148601   1.129  13.394   5.862
 3740POPC   GL248602   1.119  13.768   6.023
 3740POPC   C1A48603   1.412  13.410   6.260
 3740POPC   D2A48604   1.498  13.244   6.693
 3740POPC   C3A48605   1.259  13.419   7.021
 3740POPC   C4A48606   1.083  13.809   7.101
 3740POPC   C1B48607   0.915  13.529   6.369
 3740POPC   C2B48608   0.757  13.483   6.804
 3740POPC   C3B48609   0.782  13.355   7.246
 3740POPC   C4B48610   0.824  13.304   7.707
 3741POPC   NC348611  19.791  43.571   5.316
 3741POPC   PO448612  20.035  44.128   5.281
 3741POPC   GL148613  19.921  44.052   5.754
 3741POPC   GL248614  20.177  44.157   6.016
 3741POPC   C1A48615  19.700  43.874   6.143
 3741POPC   D2A48616  19.879  43.747   6.555
 3741POPC   C3A48617  19.662  43.587   6.928
 3741POPC   C4A48618  19.664  43.585   7.388
 3741POPC   C1B48619  19.900  44.267   6.420
 3741POPC   C2B48620  19.689  44.135   6.820
 3741POPC   C3B48621  19.969  43.976   7.093
 3741POPC   C4B48622  20.214  43.599   7.141
 3742POPC   NC348623  16.314  14.380   5.625
 3742POPC   PO448624  16.930  14.525   5.373
 3742POPC   GL148625  16.811  14.516   5.780
 3742POPC   GL248626  17.042  14.263   5.870
 3742POPC   C1A48627  16.714  14.647   6.209
 3742POPC   D2A48628  16.921  14.621   6.626
 3742POPC   C3A48629  16.650  14.645   6.963
 3742POPC   C4A48630  16.289  14.433   7.183
 3742POPC   C1B48631  17.147  14.253   6.295
 3742POPC   C2B48632  16.963  14.076   6.648
 3742POPC   C3B48633  16.655  14.134   6.979
 3742POPC   C4B48634  16.764  14.124   7.423
 3743POPC   NC348635  15.572  37.786   5.596
 3743POPC   PO448636  15.182  37.522   5.130
 3743POPC   GL148637  15.159  37.511   5.695
 3743POPC   GL248638  15.244  37.793   5.984
 3743POPC   C1A48639  15.178  37.363   6.189
 3743POPC   D2A48640  15.190  37.633   6.566
 3743POPC   C3A48641  15.295  37.508   6.970
 3743POPC   C4A48642  15.356  37.522   7.385
 3743POPC   C1B48643  15.520  37.924   6.312
 3743POPC   C2B48644  15.684  37.979   6.756
 3743POPC   C3B48645  15.492  37.971   7.176
 3743POPC   C4B48646  15.373  37.994   7.646
 3744POPC   NC348647   4.193  11.420   5.402
 3744POPC   PO448648   4.104  10.710   5.487
 3744POPC   GL148649   4.192  11.044   5.811
 3744POPC   GL248650   4.530  11.018   5.930
 3744POPC   C1A48651   4.233  11.234   6.262
 3744POPC   D2A48652   4.023  11.118   6.643
 3744POPC   C3A48653   4.200  11.287   7.022
 3744POPC   C4A48654   4.218  11.703   7.199
 3744POPC   C1B48655   4.728  10.919   6.254
 3744POPC   C2B48656   4.792  11.154   6.597
 3744POPC   C3B48657   4.690  11.060   7.009
 3744POPC   C4B48658   4.586  11.351   7.344
 3745POPC   NC348659  21.994  28.953   5.664
 3745POPC   PO448660  22.528  29.302   5.405
 3745POPC   GL148661  22.383  29.273   5.805
 3745POPC   GL248662  22.510  28.938   5.787
 3745POPC   C1A48663  22.214  29.403   6.227
 3745POPC   D2A48664  22.381  29.387   6.643
 3745POPC   C3A48665  22.204  29.465   7.058
 3745POPC   C4A48666  22.301  29.380   7.512
 3745POPC   C1B48667  22.356  28.902   6.201
 3745POPC   C2B48668  22.107  28.968   6.561
 3745POPC   C3B48669  22.288  28.941   6.972
 3745POPC   C4B48670  22.371  28.648   7.300
 3746POPC   NC348671  34.124  23.524   5.558
 3746POPC   PO448672  34.595  24.054   5.428
 3746POPC   GL148673  34.530  23.786   5.784
 3746POPC   GL248674  34.806  23.520   5.862
 3746POPC   C1A48675  34.637  23.917   6.176
 3746POPC   D2A48676  34.940  23.869   6.459
 3746POPC   C3A48677  34.816  23.921   6.859
 3746POPC   C4A48678  34.673  23.768   7.237
 3746POPC   C1B48679  34.667  23.431   6.306
 3746POPC   C2B48680  34.704  23.401   6.761
 3746POPC   C3B48681  34.528  23.303   7.139
 3746POPC   C4B48682  34.708  23.380   7.582
 3747POPC   NC348683  37.350  17.385   5.446
 3747POPC   PO448684  37.876  17.795   5.364
 3747POPC   GL148685  37.671  17.674   5.750
 3747POPC   GL248686  37.706  17.979   5.854
 3747POPC   C1A48687  37.593  17.379   6.109
 3747POPC   D2A48688  37.440  17.357   6.537
 3747POPC   C3A48689  37.751  17.344   6.864
 3747POPC   C4A48690  37.747  17.456   7.291
 3747POPC   C1B48691  37.834  17.830   6.239
 3747POPC   C2B48692  37.681  17.821   6.612
 3747POPC   C3B48693  37.805  17.854   7.000
 3747POPC   C4B48694  37.898  17.950   7.396
 3748POPC   NC348695  39.042   6.623   5.446
 3748POPC   PO448696  39.729   6.545   5.575
 3748POPC   GL148697  39.369   6.685   5.855
 3748POPC   GL248698  39.125   6.442   5.923
 3748POPC   C1A48699  39.372   6.624   6.328
 3748POPC   D2A48700  39.236   6.865   6.679
 3748POPC   C3A48701  39.168   6.628   7.020
 3748POPC   C4A48702  39.346   6.217   7.126
 3748POPC   C1B48703  38.818   6.252   6.154
 3748POPC   C2B48704  38.640   6.287   6.571
 3748POPC   C3B48705  38.840   6.238   6.962
 3748POPC   C4B48706  38.910   6.310   7.384
 3749POPC   NC348707  14.891  31.635   5.401
 3749POPC   PO448708  15.093  31.052   5.529
 3749POPC   GL148709  14.976  31.351   5.827
 3749POPC   GL248710  15.308  31.512   5.837
 3749POPC   C1A48711  14.960  31.490   6.240
 3749POPC   D2A48712  15.164  31.550   6.611
 3749POPC   C3A48713  15.052  31.338   6.973
 3749POPC   C4A48714  14.778  31.576   7.180
 3749POPC   C1B48715  15.404  31.807   6.196
 3749POPC   C2B48716  15.346  32.012   6.643
 3749POPC   C3B48717  15.303  31.796   7.042
 3749POPC   C4B48718  15.572  31.856   7.404
 3750POPC   NC348719   9.958  38.099   5.334
 3750POPC   PO448720   9.774  38.717   5.368
 3750POPC   GL148721   9.853  38.420   5.713
 3750POPC   GL248722   9.526  38.225   5.726
 3750POPC   C1A48723  10.140  38.402   6.066
 3750POPC   D2A48724  10.005  38.533   6.473
 3750POPC   C3A48725  10.041  38.494   6.923
 3750POPC   C4A48726   9.893  38.843   7.189
 3750POPC   C1B48727   9.635  38.276   6.177
 3750POPC   C2B48728   9.506  38.513   6.559
 3750POPC   C3B48729   9.465  38.725   6.946
 3750POPC   C4B48730   9.447  38.725   7.401
 3751POPC   NC348731  42.068  40.252   5.458
 3751POPC   PO448732  42.676  40.033   5.344
 3751POPC   GL148733  42.411  39.915   5.723
 3751POPC   GL248734  42.098  39.752   5.669
 3751POPC   C1A48735  42.266  40.077   6.138
 3751POPC   D2A48736  42.332  40.299   6.547
 3751POPC   C3A48737  42.492  40.165   6.954
 3751POPC   C4A48738  42.171  40.177   7.284
 3751POPC   C1B48739  42.155  39.579   6.117
 3751POPC   C2B48740  42.308  39.734   6.529
 3751POPC   C3B48741  42.074  39.872   6.903
 3751POPC   C4B48742  42.049  39.687   7.346
 3752POPC   NC348743  22.643  33.691   5.448
 3752POPC   PO448744  23.237  34.033   5.528
 3752POPC   GL148745  22.845  34.008   5.801
 3752POPC   GL248746  23.068  33.979   6.018
 3752POPC   C1A48747  22.704  33.695   6.191
 3752POPC   D2A48748  22.867  33.550   6.624
 3752POPC   C3A48749  22.814  33.739   7.053
 3752POPC   C4A48750  22.786  33.600   7.508
 3752POPC   C1B48751  22.893  34.148   6.359
 3752POPC   C2B48752  23.006  34.135   6.778
 3752POPC   C3B48753  22.854  34.227   7.192
 3752POPC   C4B48754  23.020  34.062   7.563
 3753POPC   NC348755  14.681   2.374   5.586
 3753POPC   PO448756  14.387   1.894   5.198
 3753POPC   GL148757  14.401   1.833   5.672
 3753POPC   GL248758  14.419   2.085   5.921
 3753POPC   C1A48759  14.437   1.617   6.086
 3753POPC   D2A48760  14.312   1.535   6.497
 3753POPC   C3A48761  14.376   1.849   6.816
 3753POPC   C4A48762  14.415   1.802   7.248
 3753POPC   C1B48763  14.213   2.018   6.329
 3753POPC   C2B48764  13.922   2.112   6.679
 3753POPC   C3B48765  13.984   2.363   7.043
 3753POPC   C4B48766  14.411   2.315   7.182
 3754POPC   NC348767  28.484  20.194   5.387
 3754POPC   PO448768  28.090  19.629   5.269
 3754POPC   GL148769  28.265  19.673   5.688
 3754POPC   GL248770  28.623  19.780   5.682
 3754POPC   C1A48771  28.203  19.640   6.139
 3754POPC   D2A48772  28.223  19.898   6.523
 3754POPC   C3A48773  28.283  19.602   6.861
 3754POPC   C4A48774  28.089  19.547   7.236
 3754POPC   C1B48775  28.574  20.017   6.073
 3754POPC   C2B48776  28.697  20.127   6.513
 3754POPC   C3B48777  28.661  19.954   6.920
 3754POPC   C4B48778  28.398  19.925   7.249
 3755POPC   NC348779   1.475   2.540   5.164
 3755POPC   PO448780   2.104   2.921   5.203
 3755POPC   GL148781   2.071   2.861   5.644
 3755POPC   GL248782   1.750   2.651   5.679
 3755POPC   C1A48783   2.075   2.772   6.084
 3755POPC   D2A48784   1.978   2.863   6.511
 3755POPC   C3A48785   2.137   2.647   6.873
 3755POPC   C4A48786   2.179   2.859   7.262
 3755POPC   C1B48787   1.637   2.493   6.111
 3755POPC   C2B48788   1.763   2.410   6.548
 3755POPC   C3B48789   1.634   2.565   6.935
 3755POPC   C4B48790   1.844   2.464   7.278
 3756POPC   NC348791  27.556  41.993   5.304
 3756POPC   PO448792  27.473  42.628   5.497
 3756POPC   GL148793  27.639  42.343   5.778
 3756POPC   GL248794  27.840  42.611   5.890
 3756POPC   C1A48795  27.729  42.233   6.221
 3756POPC   D2A48796  27.516  42.282   6.599
 3756POPC   C3A48797  27.752  42.252   6.955
 3756POPC   C4A48798  27.508  42.241   7.267
 3756POPC   C1B48799  27.428  42.642   6.170
 3756POPC   C2B48800  27.228  42.792   6.573
 3756POPC   C3B48801  27.361  42.627   6.979
 3756POPC   C4B48802  27.472  42.728   7.409
 3757POPC   NC348803  12.727  28.557   5.458
 3757POPC   PO448804  13.132  28.003   5.449
 3757POPC   GL148805  12.934  28.181   5.853
 3757POPC   GL248806  12.940  28.565   5.941
 3757POPC   C1A48807  12.926  28.206   6.330
 3757POPC   D2A48808  13.094  28.482   6.671
 3757POPC   C3A48809  13.136  28.240   7.073
 3757POPC   C4A48810  12.850  28.218   7.448
 3757POPC   C1B48811  12.534  28.508   6.181
 3757POPC   C2B48812  12.462  28.362   6.625
 3757POPC   C3B48813  12.684  28.497   7.018
 3757POPC   C4B48814  12.637  28.685   7.458
 3758POPC   NC348815  36.653   4.002   5.069
 3758POPC   PO448816  36.784   4.489   5.582
 3758POPC   GL148817  36.840   4.294   5.965
 3758POPC   GL248818  37.022   3.978   5.885
 3758POPC   C1A48819  36.954   4.517   6.302
 3758POPC   D2A48820  37.113   4.686   6.673
 3758POPC   C3A48821  36.824   4.492   6.942
 3758POPC   C4A48822  36.826   4.364   7.343
 3758POPC   C1B48823  37.234   4.077   6.238
 3758POPC   C2B48824  37.122   4.161   6.637
 3758POPC   C3B48825  37.192   4.136   7.030
 3758POPC   C4B48826  37.056   3.926   7.352
 3759POPC   NC348827  17.179  11.173   5.426
 3759POPC   PO448828  16.565  11.395   5.194
 3759POPC   GL148829  16.657  11.430   5.662
 3759POPC   GL248830  16.533  11.699   5.893
 3759POPC   C1A48831  16.628  11.138   6.044
 3759POPC   D2A48832  16.799  11.031   6.511
 3759POPC   C3A48833  16.747  11.051   7.010
 3759POPC   C4A48834  16.915  11.113   7.454
 3759POPC   C1B48835  16.701  11.539   6.332
 3759POPC   C2B48836  16.516  11.433   6.763
 3759POPC   C3B48837  16.571  11.494   7.269
 3759POPC   C4B48838  16.463  11.554   7.757
 3760POPC   NC348839  26.175  40.188   5.301
 3760POPC   PO448840  25.562  40.070   5.531
 3760POPC   GL148841  25.902  39.977   5.860
 3760POPC   GL248842  26.284  40.096   5.809
 3760POPC   C1A48843  25.872  39.734   6.268
 3760POPC   D2A48844  26.074  39.679   6.653
 3760POPC   C3A48845  25.901  39.645   7.056
 3760POPC   C4A48846  26.118  39.973   7.260
 3760POPC   C1B48847  26.198  40.443   6.091
 3760POPC   C2B48848  26.039  40.518   6.520
 3760POPC   C3B48849  26.209  40.345   6.885
 3760POPC   C4B48850  26.525  40.292   7.207
 3761POPC   NC348851   6.315  12.229   5.537
 3761POPC   PO448852   5.805  11.808   5.564
 3761POPC   GL148853   5.894  12.094   5.831
 3761POPC   GL248854   6.194  11.893   5.898
 3761POPC   C1A48855   5.764  12.001   6.232
 3761POPC   D2A48856   5.847  12.224   6.613
 3761POPC   C3A48857   5.697  12.012   6.951
 3761POPC   C4A48858   5.842  11.833   7.344
 3761POPC   C1B48859   6.264  12.150   6.227
 3761POPC   C2B48860   6.375  11.962   6.597
 3761POPC   C3B48861   6.197  11.975   6.980
 3761POPC   C4B48862   5.988  12.311   7.221
 3762POPC   NC348863  38.291   3.469   5.470
 3762POPC   PO448864  38.654   3.981   5.512
 3762POPC   GL148865  38.439   3.742   5.888
 3762POPC   GL248866  38.444   3.352   5.948
 3762POPC   C1A48867  38.453   3.692   6.347
 3762POPC   D2A48868  38.614   3.290   6.476
 3762POPC   C3A48869  38.562   3.200   6.908
 3762POPC   C4A48870  38.421   3.459   7.205
 3762POPC   C1B48871  38.042   3.418   6.202
 3762POPC   C2B48872  38.007   3.632   6.630
 3762POPC   C3B48873  37.942   3.460   7.053
 3762POPC   C4B48874  38.033   3.263   7.484
 3763POPC   NC348875  15.406   1.271   5.478
 3763POPC   PO448876  14.828   1.580   5.375
 3763POPC   GL148877  14.729   1.358   5.754
 3763POPC   GL248878  14.992   1.078   5.800
 3763POPC   C1A48879  14.921   1.449   6.175
 3763POPC   D2A48880  15.062   1.615   6.590
 3763POPC   C3A48881  15.129   1.341   6.947
 3763POPC   C4A48882  15.198   1.477   7.373
 3763POPC   C1B48883  15.341   1.109   6.116
 3763POPC   C2B48884  15.366   1.013   6.549
 3763POPC   C3B48885  15.499   1.004   6.963
 3763POPC   C4B48886  15.267   0.991   7.395
 3764POPC   NC348887  21.083  33.222   5.574
 3764POPC   PO448888  21.493  32.701   5.414
 3764POPC   GL148889  21.406  32.920   5.813
 3764POPC   GL248890  21.624  33.199   5.914
 3764POPC   C1A48891  21.215  33.123   6.204
 3764POPC   D2A48892  21.041  33.305   6.578
 3764POPC   C3A48893  21.199  33.129   6.962
 3764POPC   C4A48894  21.083  33.179   7.388
 3764POPC   C1B48895  21.672  32.885   6.231
 3764POPC   C2B48896  21.460  32.833   6.604
 3764POPC   C3B48897  21.395  32.623   6.973
 3764POPC   C4B48898  21.469  32.827   7.321
 3765POPC   NC348899  41.146  33.706   5.308
 3765POPC   PO448900  41.722  34.033   5.456
 3765POPC   GL148901  41.662  33.921   5.872
 3765POPC   GL248902  41.316  33.824   5.819
 3765POPC   C1A48903  41.680  33.546   6.157
 3765POPC   D2A48904  41.641  33.351   6.559
 3765POPC   C3A48905  41.419  33.584   6.879
 3765POPC   C4A48906  41.550  33.547   7.277
 3765POPC   C1B48907  41.329  33.893   6.273
 3765POPC   C2B48908  41.679  33.923   6.587
 3765POPC   C3B48909  41.690  34.006   7.044
 3765POPC   C4B48910  41.284  33.995   7.298
 3766POPC   NC348911   3.552  42.361   5.081
 3766POPC   PO448912   3.198  42.111   5.639
 3766POPC   GL148913   3.396  42.066   6.047
 3766POPC   GL248914   3.717  41.971   5.927
 3766POPC   C1A48915   3.665  42.316   6.356
 3766POPC   D2A48916   3.835  42.517   6.764
 3766POPC   C3A48917   3.594  42.490   7.179
 3766POPC   C4A48918   3.503  42.205   7.555
 3766POPC   C1B48919   3.730  41.802   6.330
 3766POPC   C2B48920   3.930  41.984   6.631
 3766POPC   C3B48921   3.752  42.039   6.982
 3766POPC   C4B48922   3.860  41.735   7.253
 3767POPC   NC348923  30.988   4.886   5.161
 3767POPC   PO448924  30.639   5.311   5.614
 3767POPC   GL148925  30.626   5.249   6.009
 3767POPC   GL248926  30.449   4.905   5.924
 3767POPC   C1A48927  30.930   5.330   6.359
 3767POPC   D2A48928  31.070   5.076   6.724
 3767POPC   C3A48929  30.883   5.206   7.116
 3767POPC   C4A48930  30.692   5.465   7.401
 3767POPC   C1B48931  30.744   4.841   6.268
 3767POPC   C2B48932  30.782   4.660   6.607
 3767POPC   C3B48933  30.681   4.785   6.979
 3767POPC   C4B48934  30.998   4.709   7.262
 3768POPC   NC348935  30.803  41.140   5.419
 3768POPC   PO448936  30.561  40.519   5.467
 3768POPC   GL148937  30.724  40.730   5.819
 3768POPC   GL248938  31.072  40.662   5.802
 3768POPC   C1A48939  30.815  40.636   6.264
 3768POPC   D2A48940  30.664  40.474   6.640
 3768POPC   C3A48941  30.671  40.746   6.953
 3768POPC   C4A48942  30.835  40.821   7.331
 3768POPC   C1B48943  31.050  41.046   6.098
 3768POPC   C2B48944  31.088  41.033   6.531
 3768POPC   C3B48945  30.939  41.172   6.923
 3768POPC   C4B48946  30.844  41.341   7.300
 3769POPC   NC348947  33.923  34.792   5.480
 3769POPC   PO448948  33.392  34.674   5.145
 3769POPC   GL148949  33.513  34.605   5.678
 3769POPC   GL248950  33.792  34.353   5.731
 3769POPC   C1A48951  33.725  34.751   6.140
 3769POPC   D2A48952  33.925  34.807   6.604
 3769POPC   C3A48953  33.644  34.826   7.001
 3769POPC   C4A48954  33.627  34.890   7.466
 3769POPC   C1B48955  33.623  34.259   6.149
 3769POPC   C2B48956  33.727  34.343   6.566
 3769POPC   C3B48957  33.543  34.207   6.969
 3769POPC   C4B48958  33.741  34.100   7.356
 3770POPC   NC348959   9.614   7.021   5.353
 3770POPC   PO448960  10.007   6.420   5.527
 3770POPC   GL148961   9.958   6.670   5.870
 3770POPC   GL248962   9.605   6.778   5.822
 3770POPC   C1A48963   9.819   6.635   6.295
 3770POPC   D2A48964   9.786   6.353   6.658
 3770POPC   C3A48965   9.853   6.540   7.055
 3770POPC   C4A48966   9.573   6.537   7.376
 3770POPC   C1B48967   9.532   7.049   6.167
 3770POPC   C2B48968   9.787   7.133   6.482
 3770POPC   C3B48969   9.737   7.002   6.853
 3770POPC   C4B48970   9.677   7.014   7.280
 3771POPC   NC348971  19.349  36.009   5.361
 3771POPC   PO448972  18.783  35.916   5.746
 3771POPC   GL148973  19.200  36.108   5.868
 3771POPC   GL248974  19.467  36.386   5.903
 3771POPC   C1A48975  19.178  36.103   6.297
 3771POPC   D2A48976  18.853  35.892   6.518
 3771POPC   C3A48977  18.680  36.138   6.832
 3771POPC   C4A48978  18.855  36.139   7.249
 3771POPC   C1B48979  19.614  36.337   6.369
 3771POPC   C2B48980  19.340  36.265   6.772
 3771POPC   C3B48981  19.381  36.325   7.240
 3771POPC   C4B48982  19.592  36.405   7.679
 3772POPC   NC348983  24.504   4.020   5.372
 3772POPC   PO448984  24.864   4.564   5.435
 3772POPC   GL148985  24.727   4.315   5.771
 3772POPC   GL248986  24.419   4.422   5.850
 3772POPC   C1A48987  24.735   4.273   6.240
 3772POPC   D2A48988  24.828   4.003   6.608
 3772POPC   C3A48989  24.572   4.100   6.976
 3772POPC   C4A48990  24.661   4.152   7.419
 3772POPC   C1B48991  24.282   4.544   6.242
 3772POPC   C2B48992  24.326   4.360   6.611
 3772POPC   C3B48993  24.295   4.558   6.990
 3772POPC   C4B48994  24.188   4.281   7.319
 3773POPC   NC348995  34.618  43.352   5.683
 3773POPC   PO448996  34.160  42.914   5.598
 3773POPC   GL148997  34.389  42.996   5.988
 3773POPC   GL248998  34.381  43.348   6.123
 3773POPC   C1A48999  34.461  42.917   6.433
 3773POPC   D2A49000  34.643  43.002   6.832
 3773POPC   C3A49001  34.426  43.373   6.964
 3773POPC   C4A49002  34.126  43.438   7.280
 3773POPC   C1B49003  34.803  43.242   6.307
 3773POPC   C2B49004  34.987  43.350   6.695
 3773POPC   C3B49005  34.888  43.389   7.128
 3773POPC   C4B49006  34.564  43.706   7.321
 3774POPC   NC349007  40.718  34.605   5.405
 3774POPC   PO449008  40.471  34.069   5.681
 3774POPC   GL149009  40.508  34.492   5.853
 3774POPC   GL249010  40.874  34.589   5.890
 3774POPC   C1A49011  40.542  34.625   6.258
 3774POPC   D2A49012  40.678  34.364   6.550
 3774POPC   C3A49013  40.545  34.498   6.903
 3774POPC   C4A49014  40.750  34.389   7.237
 3774POPC   C1B49015  41.053  34.663   6.310
 3774POPC   C2B49016  40.828  34.881   6.661
 3774POPC   C3B49017  40.856  34.872   7.111
 3774POPC   C4B49018  41.164  34.672   7.375
 3775POPC   NC349019  20.392  32.535   5.357
 3775POPC   PO449020  20.776  32.007   5.482
 3775POPC   GL149021  20.651  32.293   5.736
 3775POPC   GL249022  20.400  32.105   5.887
 3775POPC   C1A49023  20.675  32.507   6.107
 3775POPC   D2A49024  20.451  32.565   6.476
 3775POPC   C3A49025  20.524  32.388   6.859
 3775POPC   C4A49026  20.514  32.145   7.233
 3775POPC   C1B49027  20.693  32.008   6.217
 3775POPC   C2B49028  20.888  32.074   6.619
 3775POPC   C3B49029  20.870  31.831   6.989
 3775POPC   C4B49030  20.676  31.596   7.309
 3776POPC   NC349031  38.720  29.429   5.465
 3776POPC   PO449032  39.425  29.272   5.303
 3776POPC   GL149033  39.200  29.261   5.720
 3776POPC   GL249034  39.494  29.303   5.926
 3776POPC   C1A49035  39.160  28.950   6.120
 3776POPC   D2A49036  39.391  29.061   6.513
 3776POPC   C3A49037  39.219  29.117   6.943
 3776POPC   C4A49038  39.039  28.944   7.351
 3776POPC   C1B49039  39.098  29.438   6.193
 3776POPC   C2B49040  38.918  29.502   6.611
 3776POPC   C3B49041  39.085  29.606   7.025
 3776POPC   C4B49042  39.280  29.399   7.384
 3777POPC   NC349043  13.228   8.158   5.357
 3777POPC   PO449044  12.546   7.977   5.388
 3777POPC   GL149045  12.840   8.145   5.698
 3777POPC   GL249046  13.084   7.860   5.764
 3777POPC   C1A49047  13.038   8.220   6.121
 3777POPC   D2A49048  13.102   8.228   6.563
 3777POPC   C3A49049  12.691   8.293   6.754
 3777POPC   C4A49050  12.470   8.141   7.105
 3777POPC   C1B49051  13.120   7.673   6.208
 3777POPC   C2B49052  13.267   7.748   6.656
 3777POPC   C3B49053  13.145   7.629   7.078
 3777POPC   C4B49054  12.895   7.826   7.394
 3778POPC   NC349055  30.208  19.244   5.428
 3778POPC   PO449056  29.837  18.697   5.428
 3778POPC   GL149057  29.873  19.034   5.770
 3778POPC   GL249058  30.156  19.053   5.918
 3778POPC   C1A49059  29.770  19.249   6.176
 3778POPC   D2A49060  29.785  19.089   6.595
 3778POPC   C3A49061  29.840  19.308   6.976
 3778POPC   C4A49062  29.825  19.205   7.404
 3778POPC   C1B49063  30.248  19.037   6.358
 3778POPC   C2B49064  30.287  19.117   6.791
 3778POPC   C3B49065  30.302  19.121   7.246
 3778POPC   C4B49066  30.254  19.395   7.634
 3779POPC   NC349067  35.191  38.162   5.505
 3779POPC   PO449068  35.619  38.679   5.515
 3779POPC   GL149069  35.338  38.537   5.846
 3779POPC   GL249070  35.449  38.199   5.975
 3779POPC   C1A49071  35.265  38.611   6.287
 3779POPC   D2A49072  35.328  38.483   6.710
 3779POPC   C3A49073  35.518  38.700   7.035
 3779POPC   C4A49074  35.614  38.366   7.282
 3779POPC   C1B49075  35.083  38.096   6.247
 3779POPC   C2B49076  34.971  38.106   6.692
 3779POPC   C3B49077  35.097  38.255   7.113
 3779POPC   C4B49078  35.167  38.371   7.539
 3780POPC   NC349079   7.261  21.865   5.476
 3780POPC   PO449080   7.383  22.503   5.400
 3780POPC   GL149081   7.398  22.258   5.785
 3780POPC   GL249082   7.671  22.438   5.871
 3780POPC   C1A49083   7.227  22.013   6.167
 3780POPC   D2A49084   7.046  22.149   6.586
 3780POPC   C3A49085   7.256  21.990   6.969
 3780POPC   C4A49086   7.452  22.180   7.333
 3780POPC   C1B49087   7.627  22.653   6.211
 3780POPC   C2B49088   7.727  22.530   6.579
 3780POPC   C3B49089   7.772  22.413   6.957
 3780POPC   C4B49090   7.741  22.666   7.265
 3781POPC   NC349091  31.871  15.681   5.500
 3781POPC   PO449092  31.196  15.723   5.443
 3781POPC   GL149093  31.469  15.781   5.857
 3781POPC   GL249094  31.773  15.956   5.913
 3781POPC   C1A49095  31.406  15.878   6.316
 3781POPC   D2A49096  31.257  16.197   6.635
 3781POPC   C3A49097  31.335  15.997   7.022
 3781POPC   C4A49098  31.739  15.811   7.160
 3781POPC   C1B49099  31.707  16.293   6.175
 3781POPC   C2B49100  31.776  16.349   6.601
 3781POPC   C3B49101  31.634  16.407   7.012
 3781POPC   C4B49102  31.873  16.470   7.375
 3782POPC   NC349103   9.383  21.460   5.350
 3782POPC   PO449104  10.050  21.431   5.463
 3782POPC   GL149105   9.785  21.412   5.822
 3782POPC   GL249106   9.551  21.145   5.771
 3782POPC   C1A49107   9.862  21.454   6.267
 3782POPC   D2A49108   9.860  21.663   6.643
 3782POPC   C3A49109   9.742  21.449   7.042
 3782POPC   C4A49110   9.861  21.023   7.096
 3782POPC   C1B49111   9.397  21.226   6.209
 3782POPC   C2B49112   9.497  21.222   6.636
 3782POPC   C3B49113   9.271  21.172   7.020
 3782POPC   C4B49114   9.338  21.319   7.410
 3783POPC   NC349115  17.466   0.388   5.102
 3783POPC   PO449116  17.671   0.133   5.690
 3783POPC   GL149117  17.625   0.544   5.816
 3783POPC   GL249118  17.886   0.814   5.705
 3783POPC   C1A49119  17.503   0.516   6.252
 3783POPC   D2A49120  17.746   0.335   6.571
 3783POPC   C3A49121  17.607   0.426   6.968
 3783POPC   C4A49122  17.378   0.295   7.273
 3783POPC   C1B49123  17.741   0.940   6.124
 3783POPC   C2B49124  17.492   0.965   6.531
 3783POPC   C3B49125  17.667   0.932   6.963
 3783POPC   C4B49126  17.729   0.786   7.396
 3784POPC   NC349127  41.882  22.319   5.537
 3784POPC   PO449128  42.523  21.964   5.487
 3784POPC   GL149129  42.321  22.026   5.857
 3784POPC   GL249130  42.281  22.365   5.831
 3784POPC   C1A49131  42.396  22.164   6.282
 3784POPC   D2A49132  42.464  22.029   6.677
 3784POPC   C3A49133  42.588  22.321   6.963
 3784POPC   C4A49134  42.378  22.028   7.278
 3784POPC   C1B49135  41.992  22.458   6.190
 3784POPC   C2B49136  42.142  22.509   6.643
 3784POPC   C3B49137  42.113  22.423   7.102
 3784POPC   C4B49138  42.474  22.494   7.426
 3785POPC   NC349139  24.793  10.145   5.372
 3785POPC   PO449140  24.251  10.542   5.376
 3785POPC   GL149141  24.381  10.664   5.786
 3785POPC   GL249142  24.724  10.782   5.692
 3785POPC   C1A49143  24.379  10.534   6.254
 3785POPC   D2A49144  24.510  10.361   6.694
 3785POPC   C3A49145  24.406  10.430   7.162
 3785POPC   C4A49146  24.582  10.657   7.565
 3785POPC   C1B49147  24.853  10.831   6.134
 3785POPC   C2B49148  24.763  10.785   6.581
 3785POPC   C3B49149  24.651  10.863   7.015
 3785POPC   C4B49150  24.948  10.903   7.333
 3786POPC   NC349151  26.323   9.448   5.557
 3786POPC   PO449152  25.756   9.065   5.438
 3786POPC   GL149153  26.016   9.081   5.821
 3786POPC   GL249154  26.265   9.296   6.032
 3786POPC   C1A49155  25.909   8.999   6.236
 3786POPC   D2A49156  26.123   9.167   6.576
 3786POPC   C3A49157  26.011   8.910   6.925
 3786POPC   C4A49158  26.172   9.117   7.283
 3786POPC   C1B49159  26.379   8.843   6.149
 3786POPC   C2B49160  26.349   8.694   6.564
 3786POPC   C3B49161  26.486   8.822   6.991
 3786POPC   C4B49162  26.240   8.612   7.331
 3787POPC   NC349163   5.398  21.435   5.199
 3787POPC   PO449164   6.069  21.561   5.349
 3787POPC   GL149165   5.914  21.466   5.740
 3787POPC   GL249166   5.938  21.111   5.794
 3787POPC   C1A49167   5.845  21.484   6.172
 3787POPC   D2A49168   6.086  21.646   6.493
 3787POPC   C3A49169   5.884  21.574   6.893
 3787POPC   C4A49170   5.746  21.441   7.305
 3787POPC   C1B49171   5.701  21.010   6.195
 3787POPC   C2B49172   5.702  21.199   6.596
 3787POPC   C3B49173   5.765  21.032   7.012
 3787POPC   C4B49174   6.025  21.043   7.373
 3788POPC   NC349175  18.805  16.934   5.601
 3788POPC   PO449176  18.693  16.438   5.135
 3788POPC   GL149177  18.450  16.573   5.583
 3788POPC   GL249178  18.163  16.777   5.723
 3788POPC   C1A49179  18.443  16.600   6.100
 3788POPC   D2A49180  18.183  16.604   6.496
 3788POPC   C3A49181  18.342  16.749   6.895
 3788POPC   C4A49182  18.425  16.570   7.284
 3788POPC   C1B49183  18.015  16.958   6.129
 3788POPC   C2B49184  17.848  16.979   6.550
 3788POPC   C3B49185  17.879  17.052   6.983
 3788POPC   C4B49186  17.722  17.049   7.405
 3789POPC   NC349187   6.109  17.655   5.494
 3789POPC   PO449188   5.570  18.146   5.550
 3789POPC   GL149189   5.658  17.706   5.825
 3789POPC   GL249190   5.991  17.494   5.951
 3789POPC   C1A49191   5.584  17.516   6.260
 3789POPC   D2A49192   5.734  17.331   6.665
 3789POPC   C3A49193   5.598  17.531   7.054
 3789POPC   C4A49194   5.474  17.945   7.132
 3789POPC   C1B49195   6.119  17.674   6.329
 3789POPC   C2B49196   6.272  17.502   6.703
 3789POPC   C3B49197   6.082  17.365   7.082
 3789POPC   C4B49198   5.897  17.306   7.443
 3790POPC   NC349199   8.748  14.134   5.417
 3790POPC   PO449200   9.162  14.555   5.348
 3790POPC   GL149201   9.115  14.412   5.737
 3790POPC   GL249202   8.788  14.394   5.826
 3790POPC   C1A49203   9.119  14.526   6.172
 3790POPC   D2A49204   9.070  14.222   6.477
 3790POPC   C3A49205   9.229  14.279   6.890
 3790POPC   C4A49206   9.119  14.223   7.310
 3790POPC   C1B49207   8.742  14.005   6.090
 3790POPC   C2B49208   8.647  13.910   6.527
 3790POPC   C3B49209   8.711  14.226   6.851
 3790POPC   C4B49210   8.632  14.394   7.232
 3791POPC   NC349211  25.247  40.386   5.367
 3791POPC   PO449212  25.024  39.700   5.141
 3791POPC   GL149213  25.061  39.903   5.645
 3791POPC   GL249214  25.370  39.824   5.925
 3791POPC   C1A49215  24.916  39.811   6.125
 3791POPC   D2A49216  24.824  39.954   6.553
 3791POPC   C3A49217  25.163  39.985   6.825
 3791POPC   C4A49218  25.169  40.007   7.261
 3791POPC   C1B49219  25.584  40.153   6.236
 3791POPC   C2B49220  25.759  40.115   6.657
 3791POPC   C3B49221  25.627  40.097   7.067
 3791POPC   C4B49222  25.475  40.371   7.421
 3792POPC   NC349223  10.402  13.017   5.405
 3792POPC   PO449224  11.074  13.041   5.304
 3792POPC   GL149225  10.891  12.917   5.763
 3792POPC   GL249226  10.557  12.753   5.832
 3792POPC   C1A49227  10.740  13.060   6.230
 3792POPC   D2A49228  10.650  13.243   6.678
 3792POPC   C3A49229  10.726  12.973   7.081
 3792POPC   C4A49230  10.624  12.564   7.316
 3792POPC   C1B49231  10.722  12.565   6.237
 3792POPC   C2B49232  10.698  12.670   6.674
 3792POPC   C3B49233  10.302  12.670   6.938
 3792POPC   C4B49234  10.125  12.694   7.378
 3793POPC   NC349235  27.214  35.802   5.452
 3793POPC   PO449236  27.872  35.455   5.453
 3793POPC   GL149237  27.840  35.542   5.856
 3793POPC   GL249238  27.500  35.451   5.868
 3793POPC   C1A49239  28.020  35.545   6.272
 3793POPC   D2A49240  27.704  35.560   6.612
 3793POPC   C3A49241  27.885  35.571   7.018
 3793POPC   C4A49242  27.649  35.643   7.412
 3793POPC   C1B49243  27.663  35.182   6.251
 3793POPC   C2B49244  27.808  35.079   6.717
 3793POPC   C3B49245  27.693  35.099   7.161
 3793POPC   C4B49246  27.263  34.998   7.311
 3794POPC   NC349247  15.264  40.505   5.385
 3794POPC   PO449248  15.419  41.220   5.395
 3794POPC   GL149249  15.291  41.111   5.799
 3794POPC   GL249250  15.082  40.833   5.735
 3794POPC   C1A49251  15.213  40.960   6.225
 3794POPC   D2A49252  15.011  41.075   6.572
 3794POPC   C3A49253  15.224  40.939   6.919
 3794POPC   C4A49254  15.091  40.908   7.296
 3794POPC   C1B49255  14.882  40.623   6.079
 3794POPC   C2B49256  14.818  40.598   6.521
 3794POPC   C3B49257  14.827  40.611   6.941
 3794POPC   C4B49258  15.026  40.364   7.221
 3795POPC   NC349259  13.342   8.696   5.758
 3795POPC   PO449260  13.706   9.169   5.439
 3795POPC   GL149261  13.677   9.085   5.854
 3795POPC   GL249262  13.354   9.243   5.810
 3795POPC   C1A49263  13.683   8.934   6.302
 3795POPC   D2A49264  13.991   8.850   6.610
 3795POPC   C3A49265  13.812   8.958   6.997
 3795POPC   C4A49266  13.747   8.866   7.393
 3795POPC   C1B49267  13.471   9.374   6.228
 3795POPC   C2B49268  13.409   9.202   6.684
 3795POPC   C3B49269  13.395   9.244   7.160
 3795POPC   C4B49270  13.456   9.203   7.614
 3796POPC   NC349271  37.140  32.298   5.111
 3796POPC   PO449272  36.746  31.913   5.500
 3796POPC   GL149273  36.934  32.200   5.808
 3796POPC   GL249274  37.092  32.450   5.644
 3796POPC   C1A49275  36.842  32.177   6.248
 3796POPC   D2A49276  36.655  32.238   6.636
 3796POPC   C3A49277  36.861  32.185   7.031
 3796POPC   C4A49278  36.689  32.375   7.359
 3796POPC   C1B49279  37.015  32.631   6.079
 3796POPC   C2B49280  37.061  32.558   6.520
 3796POPC   C3B49281  36.835  32.683   6.878
 3796POPC   C4B49282  37.041  32.714   7.248
 3797POPC   NC349283  14.495  32.935   5.397
 3797POPC   PO449284  13.961  33.324   5.579
 3797POPC   GL149285  14.275  33.165   5.844
 3797POPC   GL249286  14.647  33.194   5.814
 3797POPC   C1A49287  14.370  32.843   6.142
 3797POPC   D2A49288  14.665  32.830   6.488
 3797POPC   C3A49289  14.497  33.018   6.862
 3797POPC   C4A49290  14.338  32.836   7.252
 3797POPC   C1B49291  14.638  33.318   6.213
 3797POPC   C2B49292  14.555  33.519   6.586
 3797POPC   C3B49293  14.742  33.469   6.959
 3797POPC   C4B49294  14.579  33.275   7.319
 3798POPC   NC349295   4.229  14.543   5.351
 3798POPC   PO449296   4.787  14.053   5.343
 3798POPC   GL149297   4.431  14.109   5.641
 3798POPC   GL249298   4.434  14.444   5.803
 3798POPC   C1A49299   4.254  14.048   6.077
 3798POPC   D2A49300   4.429  14.214   6.458
 3798POPC   C3A49301   4.243  14.228   6.855
 3798POPC   C4A49302   4.381  14.193   7.245
 3798POPC   C1B49303   4.212  14.589   6.178
 3798POPC   C2B49304   4.360  14.709   6.601
 3798POPC   C3B49305   4.345  14.697   7.039
 3798POPC   C4B49306   3.999  14.615   7.320
 3799POPC   NC349307   5.667  31.618   5.154
 3799POPC   PO449308   6.243  31.271   5.237
 3799POPC   GL149309   5.991  31.471   5.623
 3799POPC   GL249310   5.614  31.542   5.675
 3799POPC   C1A49311   5.973  31.554   6.105
 3799POPC   D2A49312   5.776  31.662   6.533
 3799POPC   C3A49313   5.961  31.634   6.951
 3799POPC   C4A49314   5.960  31.856   7.323
 3799POPC   C1B49315   5.449  31.363   6.077
 3799POPC   C2B49316   5.429  31.252   6.524
 3799POPC   C3B49317   5.500  31.455   6.932
 3799POPC   C4B49318   5.649  31.453   7.366
 3800POPC   NC349319  29.983  13.538   5.290
 3800POPC   PO449320  30.222  14.004   5.582
 3800POPC   GL149321  30.122  13.609   5.800
 3800POPC   GL249322  29.816  13.727   5.883
 3800POPC   C1A49323  30.148  13.391   6.211
 3800POPC   D2A49324  30.008  13.174   6.590
 3800POPC   C3A49325  30.027  13.424   6.985
 3800POPC   C4A49326  29.907  13.762   7.258
 3800POPC   C1B49327  30.069  13.885   6.269
 3800POPC   C2B49328  30.143  13.896   6.740
 3800POPC   C3B49329  30.392  13.811   7.115
 3800POPC   C4B49330  30.329  14.093   7.497
 3801POPC   NC349331  17.314  23.704   5.373
 3801POPC   PO449332  17.957  23.807   5.299
 3801POPC   GL149333  17.714  23.685   5.720
 3801POPC   GL249334  17.431  23.942   5.810
 3801POPC   C1A49335  17.664  23.688   6.196
 3801POPC   D2A49336  17.484  23.911   6.565
 3801POPC   C3A49337  17.713  23.881   6.944
 3801POPC   C4A49338  17.703  23.896   7.392
 3801POPC   C1B49339  17.215  23.561   6.019
 3801POPC   C2B49340  17.279  23.332   6.402
 3801POPC   C3B49341  17.433  23.434   6.826
 3801POPC   C4B49342  17.315  23.612   7.226
 3802POPC   NC349343  38.172  15.935   5.359
 3802POPC   PO449344  38.816  15.766   5.261
 3802POPC   GL149345  38.581  15.746   5.705
 3802POPC   GL249346  38.213  15.728   5.807
 3802POPC   C1A49347  38.548  15.853   6.197
 3802POPC   D2A49348  38.700  15.845   6.649
 3802POPC   C3A49349  38.481  15.978   7.074
 3802POPC   C4A49350  38.769  16.238   7.352
 3802POPC   C1B49351  38.154  15.515   6.189
 3802POPC   C2B49352  38.272  15.581   6.618
 3802POPC   C3B49353  38.073  15.631   7.015
 3802POPC   C4B49354  38.207  15.606   7.449
 3803POPC   NC349355  39.807   4.433   5.613
 3803POPC   PO449356  39.177   4.471   5.453
 3803POPC   GL149357  39.036   4.332   5.851
 3803POPC   GL249358  39.403   4.255   5.873
 3803POPC   C1A49359  39.131   4.169   6.268
 3803POPC   D2A49360  39.053   4.323   6.614
 3803POPC   C3A49361  39.171   4.062   6.917
 3803POPC   C4A49362  39.241   4.181   7.335
 3803POPC   C1B49363  39.396   4.617   6.177
 3803POPC   C2B49364  39.369   4.737   6.610
 3803POPC   C3B49365  39.452   4.572   7.031
 3803POPC   C4B49366  39.514   4.869   7.370
 3804POPC   NC349367  18.189  34.031   5.320
 3804POPC   PO449368  18.214  33.391   5.253
 3804POPC   GL149369  18.307  33.657   5.657
 3804POPC   GL249370  17.990  33.896   5.758
 3804POPC   C1A49371  18.378  33.710   6.124
 3804POPC   D2A49372  18.182  33.555   6.538
 3804POPC   C3A49373  18.345  33.674   6.947
 3804POPC   C4A49374  18.482  34.070   7.030
 3804POPC   C1B49375  17.860  33.706   6.136
 3804POPC   C2B49376  17.755  33.873   6.532
 3804POPC   C3B49377  17.834  33.760   6.944
 3804POPC   C4B49378  18.039  33.711   7.357
 3805POPC   NC349379  13.537   9.598   5.374
 3805POPC   PO449380  13.474  10.249   5.391
 3805POPC   GL149381  13.684   9.944   5.738
 3805POPC   GL249382  13.742   9.603   5.827
 3805POPC   C1A49383  13.506   9.899   6.204
 3805POPC   D2A49384  13.505   9.706   6.610
 3805POPC   C3A49385  13.413   9.758   7.038
 3805POPC   C4A49386  13.682   9.896   7.365
 3805POPC   C1B49387  13.940   9.629   6.217
 3805POPC   C2B49388  13.896   9.374   6.557
 3805POPC   C3B49389  13.801   9.464   6.966
 3805POPC   C4B49390  13.873   9.386   7.372
 3806POPC   NC349391   1.007  27.393   5.445
 3806POPC   PO449392   1.511  27.841   5.571
 3806POPC   GL149393   1.215  27.650   5.841
 3806POPC   GL249394   0.908  27.779   5.742
 3806POPC   C1A49395   1.234  27.472   6.258
 3806POPC   D2A49396   1.461  27.471   6.641
 3806POPC   C3A49397   1.222  27.548   6.962
 3806POPC   C4A49398   1.290  27.350   7.331
 3806POPC   C1B49399   0.860  27.838   6.163
 3806POPC   C2B49400   0.845  27.709   6.569
 3806POPC   C3B49401   0.832  27.874   6.989
 3806POPC   C4B49402   1.030  27.856   7.374
 3807POPC   NC349403  40.156  14.610   5.239
 3807POPC   PO449404  40.213  15.271   5.426
 3807POPC   GL149405  39.998  15.213   5.848
 3807POPC   GL249406  39.731  15.485   5.974
 3807POPC   C1A49407  40.139  14.947   6.207
 3807POPC   D2A49408  39.922  14.811   6.591
 3807POPC   C3A49409  40.133  14.962   6.958
 3807POPC   C4A49410  40.032  15.264   7.249
 3807POPC   C1B49411  39.977  15.416   6.350
 3807POPC   C2B49412  39.936  15.482   6.802
 3807POPC   C3B49413  39.618  15.568   7.144
 3807POPC   C4B49414  39.753  15.485   7.630
 3808POPC   NC349415  42.053  28.808   5.537
 3808POPC   PO449416  42.565  29.132   5.262
 3808POPC   GL149417  42.466  29.173   5.710
 3808POPC   GL249418  42.488  28.853   5.843
 3808POPC   C1A49419  42.482  29.269   6.149
 3808POPC   D2A49420  42.468  29.052   6.533
 3808POPC   C3A49421  42.401  29.346   6.836
 3808POPC   C4A49422  42.380  29.456   7.272
 3808POPC   C1B49423  42.208  28.770   6.186
 3808POPC   C2B49424  42.000  28.873   6.606
 3808POPC   C3B49425  42.188  28.909   7.022
 3808POPC   C4B49426  42.015  28.962   7.430
 3809POPC   NC349427  44.056  22.583   5.601
 3809POPC   PO449428  43.850  23.219   5.489
 3809POPC   GL149429  43.838  22.952   5.861
 3809POPC   GL249430  43.578  22.666   5.787
 3809POPC   C1A49431  44.037  22.963   6.273
 3809POPC   D2A49432  44.269  22.934   6.665
 3809POPC   C3A49433  44.021  22.872   6.996
 3809POPC   C4A49434  43.859  23.107   7.285
 3809POPC   C1B49435  43.744  22.488   6.174
 3809POPC   C2B49436  43.799  22.644   6.586
 3809POPC   C3B49437  43.733  22.459   6.985
 3809POPC   C4B49438  43.793  22.621   7.409
 3810POPC   NC349439  33.231  35.371   5.435
 3810POPC   PO449440  32.656  35.280   5.223
 3810POPC   GL149441  32.807  35.383   5.692
 3810POPC   GL249442  33.000  35.715   5.748
 3810POPC   C1A49443  33.046  35.334   6.104
 3810POPC   D2A49444  33.244  35.065   6.441
 3810POPC   C3A49445  33.183  35.200   6.877
 3810POPC   C4A49446  33.171  35.024   7.279
 3810POPC   C1B49447  33.203  35.866   6.161
 3810POPC   C2B49448  33.387  35.701   6.563
 3810POPC   C3B49449  33.277  35.725   7.002
 3810POPC   C4B49450  33.037  35.517   7.333
 3811POPC   NC349451  10.406   7.630   5.310
 3811POPC   PO449452  10.782   7.080   5.555
 3811POPC   GL149453  10.484   7.351   5.785
 3811POPC   GL249454  10.178   7.610   5.772
 3811POPC   C1A49455  10.594   7.542   6.184
 3811POPC   D2A49456  10.773   7.700   6.578
 3811POPC   C3A49457  10.593   7.537   6.926
 3811POPC   C4A49458  10.776   7.282   7.172
 3811POPC   C1B49459  10.144   7.801   6.214
 3811POPC   C2B49460  10.292   7.866   6.661
 3811POPC   C3B49461  10.215   7.805   7.137
 3811POPC   C4B49462  10.216   7.436   7.422
 3812POPC   NC349463  34.462   7.193   5.446
 3812POPC   PO449464  34.020   7.688   5.606
 3812POPC   GL149465  34.305   7.490   5.823
 3812POPC   GL249466  34.594   7.682   5.886
 3812POPC   C1A49467  34.441   7.246   6.141
 3812POPC   D2A49468  34.667   7.376   6.505
 3812POPC   C3A49469  34.481   7.386   6.909
 3812POPC   C4A49470  34.670   7.407   7.299
 3812POPC   C1B49471  34.296   7.772   6.254
 3812POPC   C2B49472  34.286   7.835   6.705
 3812POPC   C3B49473  34.612   7.885   7.042
 3812POPC   C4B49474  34.545   7.869   7.502
 3813POPC   NC349475  37.330  27.614   5.358
 3813POPC   PO449476  36.866  27.952   5.158
 3813POPC   GL149477  36.988  27.817   5.691
 3813POPC   GL249478  37.063  27.461   5.759
 3813POPC   C1A49479  36.734  27.565   6.120
 3813POPC   D2A49480  36.460  27.503   6.504
 3813POPC   C3A49481  36.644  27.370   6.885
 3813POPC   C4A49482  36.724  27.640   7.257
 3813POPC   C1B49483  37.221  27.671   6.172
 3813POPC   C2B49484  37.031  27.543   6.604
 3813POPC   C3B49485  37.174  27.538   7.042
 3813POPC   C4B49486  37.170  27.451   7.513
 3814POPC   NC349487  10.529  25.584   5.546
 3814POPC   PO449488  10.696  24.925   5.410
 3814POPC   GL149489  10.698  25.155   5.817
 3814POPC   GL249490  10.779  25.501   5.983
 3814POPC   C1A49491  10.387  25.179   6.130
 3814POPC   D2A49492  10.275  25.019   6.511
 3814POPC   C3A49493  10.460  25.152   6.887
 3814POPC   C4A49494  10.229  25.087   7.237
 3814POPC   C1B49495  10.935  25.198   6.295
 3814POPC   C2B49496  11.067  25.202   6.733
 3814POPC   C3B49497  10.879  25.393   7.103
 3814POPC   C4B49498  10.690  25.121   7.442
 3815POPC   NC349499  41.235  20.305   5.132
 3815POPC   PO449500  41.643  19.856   5.471
 3815POPC   GL149501  41.499  19.779   5.858
 3815POPC   GL249502  41.305  19.485   5.817
 3815POPC   C1A49503  41.555  20.051   6.209
 3815POPC   D2A49504  41.811  20.033   6.517
 3815POPC   C3A49505  41.691  20.162   6.909
 3815POPC   C4A49506  41.828  20.008   7.295
 3815POPC   C1B49507  41.605  19.397   6.168
 3815POPC   C2B49508  41.719  19.500   6.586
 3815POPC   C3B49509  41.586  19.616   7.000
 3815POPC   C4B49510  41.182  19.675   7.187
 3816POPC   NC349511  27.367  10.485   5.448
 3816POPC   PO449512  27.788  10.866   5.689
 3816POPC   GL149513  27.494  10.667   5.930
 3816POPC   GL249514  27.491  10.307   5.903
 3816POPC   C1A49515  27.333  10.582   6.330
 3816POPC   D2A49516  27.238  10.323   6.681
 3816POPC   C3A49517  27.469  10.481   7.018
 3816POPC   C4A49518  27.675  10.805   7.272
 3816POPC   C1B49519  27.777  10.303   6.217
 3816POPC   C2B49520  27.749  10.196   6.628
 3816POPC   C3B49521  27.941  10.077   6.983
 3816POPC   C4B49522  27.881  10.338   7.277
 3817POPC   NC349523  27.584  38.220   5.406
 3817POPC   PO449524  27.868  38.847   5.464
 3817POPC   GL149525  27.654  38.572   5.792
 3817POPC   GL249526  27.703  38.266   5.912
 3817POPC   C1A49527  27.550  38.710   6.209
 3817POPC   D2A49528  27.772  38.658   6.589
 3817POPC   C3A49529  27.539  38.632   6.976
 3817POPC   C4A49530  27.591  38.740   7.427
 3817POPC   C1B49531  27.328  38.256   6.175
 3817POPC   C2B49532  27.269  38.400   6.585
 3817POPC   C3B49533  27.181  38.256   6.976
 3817POPC   C4B49534  27.428  38.261   7.321
 3818POPC   NC349535   3.011  32.724   5.046
 3818POPC   PO449536   2.648  33.207   5.367
 3818POPC   GL149537   2.818  33.240   5.817
 3818POPC   GL249538   2.965  32.942   5.869
 3818POPC   C1A49539   2.743  33.100   6.290
 3818POPC   D2A49540   2.535  33.130   6.699
 3818POPC   C3A49541   2.782  33.287   7.031
 3818POPC   C4A49542   2.858  32.960   7.255
 3818POPC   C1B49543   3.035  32.659   6.254
 3818POPC   C2B49544   3.136  32.460   6.643
 3818POPC   C3B49545   3.219  32.668   7.053
 3818POPC   C4B49546   3.141  32.636   7.497
 3819POPC   NC349547   4.481  18.506   5.508
 3819POPC   PO449548   4.144  18.022   5.315
 3819POPC   GL149549   4.357  18.025   5.755
 3819POPC   GL249550   4.403  18.324   5.959
 3819POPC   C1A49551   4.206  17.937   6.187
 3819POPC   D2A49552   3.952  17.983   6.548
 3819POPC   C3A49553   4.092  18.096   6.967
 3819POPC   C4A49554   4.461  18.121   7.257
 3819POPC   C1B49555   4.281  18.431   6.352
 3819POPC   C2B49556   4.434  18.388   6.750
 3819POPC   C3B49557   4.418  18.616   7.124
 3819POPC   C4B49558   4.320  18.503   7.570
 3820POPC   NC349559  38.108  37.364   5.398
 3820POPC   PO449560  38.287  37.940   5.722
 3820POPC   GL149561  38.655  37.842   5.971
 3820POPC   GL249562  38.660  37.499   5.850
 3820POPC   C1A49563  38.608  38.018   6.378
 3820POPC   D2A49564  38.186  38.006   6.558
 3820POPC   C3A49565  38.177  37.744   6.888
 3820POPC   C4A49566  38.371  37.780   7.255
 3820POPC   C1B49567  38.641  37.364   6.282
 3820POPC   C2B49568  38.649  37.615   6.679
 3820POPC   C3B49569  38.846  37.617   7.089
 3820POPC   C4B49570  38.754  37.579   7.551
 3821POPC   NC349571  17.753  42.722   5.317
 3821POPC   PO449572  18.451  42.544   5.447
 3821POPC   GL149573  18.383  42.690   5.840
 3821POPC   GL249574  18.338  42.327   5.909
 3821POPC   C1A49575  18.191  42.668   6.240
 3821POPC   D2A49576  18.184  42.325   6.470
 3821POPC   C3A49577  18.299  42.450   6.836
 3821POPC   C4A49578  18.268  42.390   7.264
 3821POPC   C1B49579  18.577  42.048   6.182
 3821POPC   C2B49580  18.685  42.098   6.626
 3821POPC   C3B49581  18.434  41.982   6.981
 3821POPC   C4B49582  18.451  41.914   7.418
 3822POPC   NC349583   8.242  38.955   5.313
 3822POPC   PO449584   8.419  39.637   5.440
 3822POPC   GL149585   8.171  39.363   5.706
 3822POPC   GL249586   8.332  39.039   5.790
 3822POPC   C1A49587   8.210  39.354   6.175
 3822POPC   D2A49588   8.273  39.578   6.578
 3822POPC   C3A49589   8.038  39.499   6.960
 3822POPC   C4A49590   8.340  39.354   7.274
 3822POPC   C1B49591   8.200  38.816   6.128
 3822POPC   C2B49592   8.071  38.822   6.512
 3822POPC   C3B49593   8.174  39.016   6.865
 3822POPC   C4B49594   8.169  38.885   7.262
 3823POPC   NC349595   2.086  25.948   5.616
 3823POPC   PO449596   1.447  26.057   5.707
 3823POPC   GL149597   1.619  26.213   6.048
 3823POPC   GL249598   1.987  26.185   6.068
 3823POPC   C1A49599   1.691  25.974   6.423
 3823POPC   D2A49600   2.096  26.075   6.611
 3823POPC   C3A49601   2.035  26.191   7.039
 3823POPC   C4A49602   1.963  26.376   7.449
 3823POPC   C1B49603   2.183  25.752   6.220
 3823POPC   C2B49604   2.196  25.458   6.563
 3823POPC   C3B49605   2.115  25.681   6.932
 3823POPC   C4B49606   2.026  25.775   7.330
 3824POPC   NC349607  33.363   5.970   5.523
 3824POPC   PO449608  32.841   5.535   5.546
 3824POPC   GL149609  32.979   5.784   5.833
 3824POPC   GL249610  32.833   6.068   5.699
 3824POPC   C1A49611  32.947   5.925   6.228
 3824POPC   D2A49612  32.778   5.786   6.609
 3824POPC   C3A49613  33.120   5.785   6.898
 3824POPC   C4A49614  33.195   5.959   7.308
 3824POPC   C1B49615  32.724   6.361   6.024
 3824POPC   C2B49616  32.708   6.308   6.477
 3824POPC   C3B49617  32.953   6.272   6.857
 3824POPC   C4B49618  32.809   6.293   7.282
 3825POPC   NC349619  30.090  37.939   5.504
 3825POPC   PO449620  29.802  37.367   5.537
 3825POPC   GL149621  29.962  37.591   5.894
 3825POPC   GL249622  29.755  37.871   5.906
 3825POPC   C1A49623  29.827  37.580   6.340
 3825POPC   D2A49624  29.907  37.779   6.724
 3825POPC   C3A49625  30.168  37.680   7.056
 3825POPC   C4A49626  30.157  37.454   7.441
 3825POPC   C1B49627  29.835  38.089   6.307
 3825POPC   C2B49628  29.874  38.299   6.675
 3825POPC   C3B49629  29.889  38.161   7.066
 3825POPC   C4B49630  30.014  37.956   7.442
 3826POPC   NC349631   7.665   6.964   5.400
 3826POPC   PO449632   7.305   6.422   5.318
 3826POPC   GL149633   7.603   6.480   5.662
 3826POPC   GL249634   7.424   6.739   5.805
 3826POPC   C1A49635   7.703   6.466   6.110
 3826POPC   D2A49636   7.661   6.359   6.537
 3826POPC   C3A49637   7.655   6.672   6.817
 3826POPC   C4A49638   7.645   6.767   7.234
 3826POPC   C1B49639   7.265   6.711   6.235
 3826POPC   C2B49640   7.205   6.923   6.631
 3826POPC   C3B49641   7.174   6.758   7.018
 3826POPC   C4B49642   6.916   6.446   7.173
 3827POPC   NC349643  34.660  37.571   5.437
 3827POPC   PO449644  34.310  37.088   5.809
 3827POPC   GL149645  34.493  37.549   5.916
 3827POPC   GL249646  34.839  37.752   5.890
 3827POPC   C1A49647  34.471  37.844   6.284
 3827POPC   D2A49648  34.206  37.643   6.615
 3827POPC   C3A49649  34.292  37.590   7.039
 3827POPC   C4A49650  34.627  37.387   7.177
 3827POPC   C1B49651  34.880  37.550   6.282
 3827POPC   C2B49652  34.738  37.655   6.717
 3827POPC   C3B49653  35.009  37.735   7.065
 3827POPC   C4B49654  35.131  37.412   7.292
 3828POPC   NC349655  14.752  15.575   5.556
 3828POPC   PO449656  14.439  16.152   5.320
 3828POPC   GL149657  14.397  16.013   5.765
 3828POPC   GL249658  14.310  15.671   5.791
 3828POPC   C1A49659  14.293  16.053   6.230
 3828POPC   D2A49660  14.317  16.326   6.592
 3828POPC   C3A49661  14.132  16.216   6.996
 3828POPC   C4A49662  14.311  15.998   7.307
 3828POPC   C1B49663  14.530  15.550   6.166
 3828POPC   C2B49664  14.596  15.738   6.538
 3828POPC   C3B49665  14.581  15.605   6.937
 3828POPC   C4B49666  14.323  15.478   7.238
 3829POPC   NC349667  21.705  12.616   5.376
 3829POPC   PO449668  22.271  13.162   5.429
 3829POPC   GL149669  22.097  12.919   5.745
 3829POPC   GL249670  22.331  12.651   5.844
 3829POPC   C1A49671  21.966  12.847   6.165
 3829POPC   D2A49672  22.073  13.026   6.574
 3829POPC   C3A49673  21.985  12.864   6.990
 3829POPC   C4A49674  22.074  13.054   7.372
 3829POPC   C1B49675  22.400  12.618   6.318
 3829POPC   C2B49676  22.414  12.686   6.780
 3829POPC   C3B49677  22.384  12.644   7.227
 3829POPC   C4B49678  22.260  12.666   7.657
 3830POPC   NC349679  32.427  38.203   5.129
 3830POPC   PO449680  32.115  38.728   5.481
 3830POPC   GL149681  32.254  38.445   5.867
 3830POPC   GL249682  32.426  38.163   5.672
 3830POPC   C1A49683  32.047  38.356   6.260
 3830POPC   D2A49684  32.057  38.338   6.671
 3830POPC   C3A49685  32.188  38.695   6.851
 3830POPC   C4A49686  32.042  38.794   7.249
 3830POPC   C1B49687  32.353  37.973   6.074
 3830POPC   C2B49688  32.307  37.926   6.515
 3830POPC   C3B49689  32.455  38.133   6.891
 3830POPC   C4B49690  32.183  38.293   7.172
 3831POPC   NC349691  42.947  12.623   5.424
 3831POPC   PO449692  43.376  13.037   5.232
 3831POPC   GL149693  43.159  13.176   5.654
 3831POPC   GL249694  42.984  12.915   5.845
 3831POPC   C1A49695  43.089  13.374   6.098
 3831POPC   D2A49696  43.116  13.224   6.531
 3831POPC   C3A49697  43.331  13.238   6.913
 3831POPC   C4A49698  43.071  13.164   7.237
 3831POPC   C1B49699  42.858  12.603   6.153
 3831POPC   C2B49700  42.779  12.397   6.569
 3831POPC   C3B49701  42.868  12.611   6.972
 3831POPC   C4B49702  42.711  12.570   7.382
 3832POPC   NC349703  16.152  42.027   5.398
 3832POPC   PO449704  16.228  42.663   5.620
 3832POPC   GL149705  16.105  42.302   5.838
 3832POPC   GL249706  16.365  42.049   5.845
 3832POPC   C1A49707  15.914  42.245   6.239
 3832POPC   D2A49708  16.057  42.328   6.675
 3832POPC   C3A49709  15.782  42.487   6.994
 3832POPC   C4A49710  15.676  42.143   7.242
 3832POPC   C1B49711  16.435  42.164   6.267
 3832POPC   C2B49712  16.412  41.920   6.628
 3832POPC   C3B49713  16.403  42.120   7.011
 3832POPC   C4B49714  16.177  42.351   7.243
 3833POPC   NC349715  10.190   2.242   5.476
 3833POPC   PO449716  10.244   1.547   5.452
 3833POPC   GL149717  10.503   1.792   5.758
 3833POPC   GL249718  10.771   2.063   5.682
 3833POPC   C1A49719  10.717   1.830   6.171
 3833POPC   D2A49720  10.575   2.032   6.548
 3833POPC   C3A49721  10.586   1.820   6.946
 3833POPC   C4A49722  10.676   1.821   7.392
 3833POPC   C1B49723  10.847   2.320   6.097
 3833POPC   C2B49724  10.850   2.467   6.551
 3833POPC   C3B49725  10.828   2.298   6.966
 3833POPC   C4B49726  10.767   2.330   7.401
 3834POPC   NC349727  24.511  24.573   5.570
 3834POPC   PO449728  23.950  24.107   5.580
 3834POPC   GL149729  24.115  24.341   5.945
 3834POPC   GL249730  24.484  24.430   6.052
 3834POPC   C1A49731  24.124  24.379   6.400
 3834POPC   D2A49732  24.470  24.616   6.615
 3834POPC   C3A49733  24.524  24.429   7.012
 3834POPC   C4A49734  24.522  24.244   7.410
 3834POPC   C1B49735  24.874  24.632   6.221
 3834POPC   C2B49736  24.974  24.893   6.575
 3834POPC   C3B49737  24.908  24.736   6.973
 3834POPC   C4B49738  24.868  24.613   7.414
 3835POPC   NC349739  18.666   5.444   5.064
 3835POPC   PO449740  18.423   4.854   5.379
 3835POPC   GL149741  18.364   5.056   5.770
 3835POPC   GL249742  18.017   5.128   5.871
 3835POPC   C1A49743  18.494   5.271   6.138
 3835POPC   D2A49744  18.577   5.118   6.535
 3835POPC   C3A49745  18.270   5.050   6.846
 3835POPC   C4A49746  18.431   5.147   7.256
 3835POPC   C1B49747  18.034   5.491   6.190
 3835POPC   C2B49748  18.224   5.506   6.600
 3835POPC   C3B49749  18.124   5.502   7.034
 3835POPC   C4B49750  17.929   5.410   7.414
 3836POPC   NC349751  27.012  44.444   5.610
 3836POPC   PO449752  26.506  44.801   5.280
 3836POPC   GL149753  26.753  44.864   5.706
 3836POPC   GL249754  26.652  44.570   5.952
 3836POPC   C1A49755  26.917  44.960   6.159
 3836POPC   D2A49756  27.073  44.749   6.562
 3836POPC   C3A49757  26.916  44.886   6.971
 3836POPC   C4A49758  26.700  44.703   7.325
 3836POPC   C1B49759  27.007  44.323   6.221
 3836POPC   C2B49760  27.184  44.223   6.608
 3836POPC   C3B49761  26.924  44.358   6.922
 3836POPC   C4B49762  26.918  44.203   7.314
 3837POPC   NC349763  36.863  18.783   5.468
 3837POPC   PO449764  37.298  19.248   5.221
 3837POPC   GL149765  37.324  19.263   5.695
 3837POPC   GL249766  37.069  19.017   5.877
 3837POPC   C1A49767  37.408  19.274   6.137
 3837POPC   D2A49768  37.173  18.983   6.426
 3837POPC   C3A49769  37.257  19.071   6.851
 3837POPC   C4A49770  37.027  19.021   7.226
 3837POPC   C1B49771  36.751  18.812   6.159
 3837POPC   C2B49772  36.703  18.611   6.539
 3837POPC   C3B49773  36.646  18.869   6.889
 3837POPC   C4B49774  36.398  18.755   7.209
 3838POPC   NC349775  24.356  32.060   5.472
 3838POPC   PO449776  24.732  31.433   5.485
 3838POPC   GL149777  24.456  31.619   5.790
 3838POPC   GL249778  24.719  31.844   5.837
 3838POPC   C1A49779  24.279  31.514   6.226
 3838POPC   D2A49780  24.491  31.427   6.639
 3838POPC   C3A49781  24.311  31.438   7.067
 3838POPC   C4A49782  23.955  31.241   7.240
 3838POPC   C1B49783  24.785  31.677   6.244
 3838POPC   C2B49784  25.002  31.538   6.612
 3838POPC   C3B49785  24.829  31.545   7.010
 3838POPC   C4B49786  24.767  31.309   7.358
 3839POPC   NC349787   1.501  18.271   5.394
 3839POPC   PO449788   0.882  18.506   5.390
 3839POPC   GL149789   1.026  18.612   5.809
 3839POPC   GL249790   1.391  18.575   5.797
 3839POPC   C1A49791   1.097  18.467   6.232
 3839POPC   D2A49792   1.372  18.274   6.534
 3839POPC   C3A49793   1.123  18.193   6.907
 3839POPC   C4A49794   1.097  18.034   7.315
 3839POPC   C1B49795   1.521  18.766   6.174
 3839POPC   C2B49796   1.346  18.786   6.583
 3839POPC   C3B49797   1.477  18.562   6.957
 3839POPC   C4B49798   1.205  18.588   7.333
 3840POPC   NC349799  26.131  21.798   5.318
 3840POPC   PO449800  26.110  21.227   5.326
 3840POPC   GL149801  26.263  21.433   5.681
 3840POPC   GL249802  26.041  21.673   5.822
 3840POPC   C1A49803  26.417  21.335   6.097
 3840POPC   D2A49804  26.540  21.405   6.540
 3840POPC   C3A49805  26.420  21.150   6.933
 3840POPC   C4A49806  26.195  21.206   7.349
 3840POPC   C1B49807  25.948  21.493   6.246
 3840POPC   C2B49808  26.049  21.433   6.687
 3840POPC   C3B49809  25.887  21.525   7.102
 3840POPC   C4B49810  25.476  21.575   7.262
 3841POPC   NC349811  34.484  18.164   5.280
 3841POPC   PO449812  35.070  17.875   5.416
 3841POPC   GL149813  34.859  17.919   5.821
 3841POPC   GL249814  34.631  18.198   5.841
 3841POPC   C1A49815  34.926  18.078   6.260
 3841POPC   D2A49816  34.730  18.400   6.553
 3841POPC   C3A49817  34.610  18.268   6.985
 3841POPC   C4A49818  34.763  18.202   7.385
 3841POPC   C1B49819  34.364  18.183   6.245
 3841POPC   C2B49820  34.173  18.260   6.690
 3841POPC   C3B49821  34.153  18.507   7.103
 3841POPC   C4B49822  34.383  18.547   7.533
 3842POPC   NC349823   4.236  28.939   5.261
 3842POPC   PO449824   4.727  29.372   5.349
 3842POPC   GL149825   4.456  29.170   5.661
 3842POPC   GL249826   4.133  29.351   5.617
 3842POPC   C1A49827   4.406  29.155   6.129
 3842POPC   D2A49828   4.564  28.933   6.511
 3842POPC   C3A49829   4.389  29.042   6.921
 3842POPC   C4A49830   4.478  28.938   7.348
 3842POPC   C1B49831   3.966  29.426   6.053
 3842POPC   C2B49832   4.102  29.540   6.483
 3842POPC   C3B49833   4.008  29.403   6.913
 3842POPC   C4B49834   4.239  29.390   7.303
 3843POPC   NC349835  34.997   6.349   5.405
 3843POPC   PO449836  34.299   6.471   5.348
 3843POPC   GL149837  34.573   6.605   5.696
 3843POPC   GL249838  34.539   6.305   5.883
 3843POPC   C1A49839  34.639   6.772   6.138
 3843POPC   D2A49840  34.419   6.916   6.543
 3843POPC   C3A49841  34.619   6.899   6.956
 3843POPC   C4A49842  34.484   6.931   7.369
 3843POPC   C1B49843  34.350   6.389   6.306
 3843POPC   C2B49844  34.539   6.449   6.730
 3843POPC   C3B49845  34.556   6.425   7.195
 3843POPC   C4B49846  34.405   6.118   7.493
 3844POPC   NC349847  37.888  27.313   5.450
 3844POPC   PO449848  37.550  27.975   5.512
 3844POPC   GL149849  37.616  27.800   5.865
 3844POPC   GL249850  37.569  27.469   5.818
 3844POPC   C1A49851  37.783  27.787   6.263
 3844POPC   D2A49852  37.528  27.663   6.601
 3844POPC   C3A49853  37.520  27.913   6.934
 3844POPC   C4A49854  37.545  27.750   7.332
 3844POPC   C1B49855  37.617  27.306   6.217
 3844POPC   C2B49856  37.924  27.326   6.575
 3844POPC   C3B49857  37.860  27.473   7.009
 3844POPC   C4B49858  37.606  27.244   7.311
 3845POPC   NC349859  24.584  42.705   5.489
 3845POPC   PO449860  24.462  42.029   5.551
 3845POPC   GL149861  24.618  42.343   5.895
 3845POPC   GL249862  24.867  42.661   5.905
 3845POPC   C1A49863  24.402  42.387   6.305
 3845POPC   D2A49864  24.126  42.544   6.653
 3845POPC   C3A49865  24.347  42.456   7.043
 3845POPC   C4A49866  24.394  42.239   7.448
 3845POPC   C1B49867  24.781  42.731   6.306
 3845POPC   C2B49868  24.765  42.511   6.669
 3845POPC   C3B49869  24.851  42.677   7.039
 3845POPC   C4B49870  24.707  42.636   7.438
 3846POPC   NC349871   6.175  40.317   5.759
 3846POPC   PO449872   6.626  39.888   5.512
 3846POPC   GL149873   6.765  39.968   5.912
 3846POPC   GL249874   6.425  39.888   6.028
 3846POPC   C1A49875   6.963  39.768   6.289
 3846POPC   D2A49876   6.860  39.639   6.717
 3846POPC   C3A49877   6.872  39.985   6.992
 3846POPC   C4A49878   6.581  40.188   7.251
 3846POPC   C1B49879   6.577  40.246   6.301
 3846POPC   C2B49880   6.479  40.283   6.735
 3846POPC   C3B49881   6.360  39.873   6.912
 3846POPC   C4B49882   6.165  39.877   7.315
 3847POPC   NC349883  43.349  21.236   5.495
 3847POPC   PO449884  44.015  21.427   5.415
 3847POPC   GL149885  43.821  21.290   5.819
 3847POPC   GL249886  43.534  21.509   5.889
 3847POPC   C1A49887  44.034  21.122   6.233
 3847POPC   D2A49888  44.011  20.931   6.665
 3847POPC   C3A49889  44.063  21.183   7.036
 3847POPC   C4A49890  44.276  21.119   7.427
 3847POPC   C1B49891  43.673  21.482   6.297
 3847POPC   C2B49892  43.632  21.314   6.716
 3847POPC   C3B49893  43.661  21.560   7.086
 3847POPC   C4B49894  43.688  21.759   7.501
 3848POPC   NC349895  43.226   6.898   5.386
 3848POPC   PO449896  42.819   6.296   5.474
 3848POPC   GL149897  42.778   6.566   5.815
 3848POPC   GL249898  43.087   6.794   5.867
 3848POPC   C1A49899  42.813   6.558   6.249
 3848POPC   D2A49900  43.102   6.839   6.474
 3848POPC   C3A49901  42.984   6.933   6.910
 3848POPC   C4A49902  42.897   6.599   7.141
 3848POPC   C1B49903  43.254   6.405   6.055
 3848POPC   C2B49904  43.256   6.338   6.508
 3848POPC   C3B49905  43.370   6.610   6.851
 3848POPC   C4B49906  43.389   6.551   7.278
 3849POPC   NC349907   7.422  44.275   5.381
 3849POPC   PO449908   7.639  44.958   5.527
 3849POPC   GL149909   7.750  44.672   5.836
 3849POPC   GL249910   7.392  44.597   5.802
 3849POPC   C1A49911   7.784  44.460   6.249
 3849POPC   D2A49912   7.487  44.541   6.583
 3849POPC   C3A49913   7.614  44.632   6.997
 3849POPC   C4A49914   7.254  44.564   7.283
 3849POPC   C1B49915   7.445  44.887   6.176
 3849POPC   C2B49916   7.294   0.036   6.559
 3849POPC   C3B49917   7.227  44.976   6.999
 3849POPC   C4B49918   7.535  44.998   7.357
 3850POPC   NC349919  24.288  43.359   5.551
 3850POPC   PO449920  24.874  43.076   5.590
 3850POPC   GL149921  24.478  43.021   5.869
 3850POPC   GL249922  24.298  43.317   6.056
 3850POPC   C1A49923  24.220  42.841   6.175
 3850POPC   D2A49924  24.209  43.072   6.542
 3850POPC   C3A49925  24.390  42.923   6.875
 3850POPC   C4A49926  24.517  43.053   7.226
 3850POPC   C1B49927  24.668  43.227   6.292
 3850POPC   C2B49928  24.817  43.105   6.705
 3850POPC   C3B49929  24.755  43.443   6.989
 3850POPC   C4B49930  24.681  43.515   7.424
 3851POPC   NC349931   6.688  28.211   5.437
 3851POPC   PO449932   6.417  28.872   5.387
 3851POPC   GL149933   6.554  28.532   5.794
 3851POPC   GL249934   6.411  28.191   5.854
 3851POPC   C1A49935   6.767  28.248   6.204
 3851POPC   D2A49936   6.650  27.985   6.603
 3851POPC   C3A49937   6.853  28.198   6.987
 3851POPC   C4A49938   6.869  28.617   7.212
 3851POPC   C1B49939   6.325  28.466   6.231
 3851POPC   C2B49940   6.227  28.311   6.608
 3851POPC   C3B49941   6.353  28.160   7.004
 3851POPC   C4B49942   6.180  28.194   7.407
 3852POPC   NC349943  13.932  37.348   5.404
 3852POPC   PO449944  13.441  37.897   5.371
 3852POPC   GL149945  13.543  37.740   5.807
 3852POPC   GL249946  13.740  37.414   5.884
 3852POPC   C1A49947  13.693  37.800   6.244
 3852POPC   D2A49948  13.953  37.915   6.595
 3852POPC   C3A49949  13.817  37.745   6.952
 3852POPC   C4A49950  13.577  37.922   7.268
 3852POPC   C1B49951  13.353  37.406   6.152
 3852POPC   C2B49952  13.199  37.537   6.554
 3852POPC   C3B49953  13.340  37.512   6.983
 3852POPC   C4B49954  13.657  37.424   7.312
 3853POPC   NC349955  21.991  15.981   5.450
 3853POPC   PO449956  22.523  15.666   5.697
 3853POPC   GL149957  22.209  15.805   5.983
 3853POPC   GL249958  21.849  15.913   5.947
 3853POPC   C1A49959  22.368  15.972   6.360
 3853POPC   D2A49960  22.234  16.252   6.659
 3853POPC   C3A49961  22.412  16.093   7.018
 3853POPC   C4A49962  22.014  16.068   7.148
 3853POPC   C1B49963  21.859  15.910   6.417
 3853POPC   C2B49964  22.135  15.727   6.745
 3853POPC   C3B49965  22.068  15.563   7.140
 3853POPC   C4B49966  21.925  15.580   7.577
 3854POPC   NC349967   2.220  31.804   5.473
 3854POPC   PO449968   1.698  31.401   5.494
 3854POPC   GL149969   1.854  31.611   5.822
 3854POPC   GL249970   2.177  31.445   5.840
 3854POPC   C1A49971   1.920  31.607   6.274
 3854POPC   D2A49972   1.886  31.782   6.679
 3854POPC   C3A49973   1.860  31.544   7.058
 3854POPC   C4A49974   1.676  31.662   7.464
 3854POPC   C1B49975   2.298  31.262   6.225
 3854POPC   C2B49976   2.242  31.280   6.665
 3854POPC   C3B49977   2.335  31.389   7.095
 3854POPC   C4B49978   2.108  31.343   7.460
 3855POPC   NC349979  44.092  18.357   5.455
 3855POPC   PO449980  43.439  18.281   5.396
 3855POPC   GL149981  43.677  18.295   5.772
 3855POPC   GL249982  43.859  17.977   5.789
 3855POPC   C1A49983  43.793  18.242   6.209
 3855POPC   D2A49984  44.075  18.331   6.548
 3855POPC   C3A49985  43.857  18.315   6.955
 3855POPC   C4A49986  43.895  18.669   7.166
 3855POPC   C1B49987  44.249  18.003   6.069
 3855POPC   C2B49988  44.399  17.952   6.516
 3855POPC   C3B49989  44.255  18.013   6.940
 3855POPC   C4B49990  44.060  17.903   7.339
 3856POPC   NC349991  33.053  10.254   5.422
 3856POPC   PO449992  33.396   9.654   5.396
 3856POPC   GL149993  33.094   9.819   5.731
 3856POPC   GL249994  33.223  10.143   5.878
 3856POPC   C1A49995  32.833   9.632   6.090
 3856POPC   D2A49996  32.767   9.677   6.547
 3856POPC   C3A49997  32.971   9.434   6.863
 3856POPC   C4A49998  32.813   9.508   7.237
 3856POPC   C1B49999  33.068  10.037   6.279
 3856POPC   C2B50000  33.105  10.051   6.705
 3856POPC   C3B50001  33.013   9.932   7.083
 3856POPC   C4B50002  32.923   9.952   7.540
 3857POPC   NC350003  44.342  26.868   5.400
 3857POPC   PO450004   0.059  26.692   5.249
 3857POPC   GL150005  44.755  26.605   5.664
 3857POPC   GL250006  44.931  26.859   5.813
 3857POPC   C1A50007  44.591  26.667   6.169
 3857POPC   D2A50008  44.430  26.617   6.618
 3857POPC   C3A50009  44.644  26.659   7.001
 3857POPC   C4A50010  44.615  26.964   7.340
 3857POPC   C1B50011  44.850  27.103   6.180
 3857POPC   C2B50012  44.713  27.270   6.561
 3857POPC   C3B50013  44.610  27.286   6.961
 3857POPC   C4B50014  44.267  27.339   7.236
 3858POPC   NC350015   2.994   3.618   5.470
 3858POPC   PO450016   2.472   3.341   5.535
 3858POPC   GL150017   2.691   3.456   5.878
 3858POPC   GL250018   2.970   3.245   5.853
 3858POPC   C1A50019   2.520   3.420   6.281
 3858POPC   D2A50020   2.484   3.678   6.620
 3858POPC   C3A50021   2.509   3.495   7.024
 3858POPC   C4A50022   2.862   3.442   7.269
 3858POPC   C1B50023   3.027   3.384   6.290
 3858POPC   C2B50024   2.989   3.511   6.714
 3858POPC   C3B50025   3.291   3.350   7.005
 3858POPC   C4B50026   3.181   2.976   7.198
 3859POPC   NC350027  40.748  13.217   5.511
 3859POPC   PO450028  41.014  12.556   5.479
 3859POPC   GL150029  41.037  12.839   5.828
 3859POPC   GL250030  40.673  12.851   5.864
 3859POPC   C1A50031  40.976  12.897   6.285
 3859POPC   D2A50032  40.917  12.658   6.691
 3859POPC   C3A50033  41.074  12.911   7.044
 3859POPC   C4A50034  41.100  13.339   7.130
 3859POPC   C1B50035  40.476  12.809   6.263
 3859POPC   C2B50036  40.453  12.961   6.683
 3859POPC   C3B50037  40.587  12.820   7.074
 3859POPC   C4B50038  40.401  12.679   7.457
 3860POPC   NC350039  11.932   0.617   5.272
 3860POPC   PO450040  12.472   0.552   5.598
 3860POPC   GL150041  12.135   0.352   5.786
 3860POPC   GL250042  11.911   0.646   5.800
 3860POPC   C1A50043  12.154   0.145   6.198
 3860POPC   D2A50044  12.184  44.924   6.603
 3860POPC   C3A50045  12.084   0.213   6.937
 3860POPC   C4A50046  11.955   0.323   7.370
 3860POPC   C1B50047  12.147   0.675   6.196
 3860POPC   C2B50048  12.007   0.600   6.611
 3860POPC   C3B50049  12.025   0.720   7.047
 3860POPC   C4B50050  12.431   0.860   7.217
 3861POPC   NC350051  27.753   7.888   5.402
 3861POPC   PO450052  27.538   7.230   5.350
 3861POPC   GL150053  27.471   7.425   5.799
 3861POPC   GL250054  27.814   7.601   5.843
 3861POPC   C1A50055  27.258   7.626   6.223
 3861POPC   D2A50056  27.376   7.826   6.634
 3861POPC   C3A50057  27.589   7.610   7.008
 3861POPC   C4A50058  27.377   7.390   7.378
 3861POPC   C1B50059  27.753   7.592   6.297
 3861POPC   C2B50060  27.803   7.296   6.639
 3861POPC   C3B50061  27.748   7.141   7.084
 3861POPC   C4B50062  27.865   7.423   7.424
 3862POPC   NC350063  10.903  21.608   5.575
 3862POPC   PO450064  10.620  21.078   5.223
 3862POPC   GL150065  10.534  21.230   5.686
 3862POPC   GL250066  10.234  21.164   5.870
 3862POPC   C1A50067  10.653  21.229   6.168
 3862POPC   D2A50068  10.760  21.429   6.575
 3862POPC   C3A50069  10.732  21.271   6.990
 3862POPC   C4A50070  10.664  21.411   7.391
 3862POPC   C1B50071  10.308  21.580   6.036
 3862POPC   C2B50072  10.352  21.717   6.431
 3862POPC   C3B50073  10.329  21.580   6.845
 3862POPC   C4B50074  10.202  21.381   7.223
 3863POPC   NC350075   9.400  29.336   5.377
 3863POPC   PO450076   9.447  28.670   5.607
 3863POPC   GL150077   9.481  29.039   5.823
 3863POPC   GL250078   9.794  28.943   5.912
 3863POPC   C1A50079   9.552  29.279   6.224
 3863POPC   D2A50080   9.433  29.137   6.642
 3863POPC   C3A50081   9.478  29.447   6.977
 3863POPC   C4A50082   9.839  29.549   7.217
 3863POPC   C1B50083   9.660  28.705   6.302
 3863POPC   C2B50084   9.648  28.681   6.767
 3863POPC   C3B50085   9.544  28.954   7.113
 3863POPC   C4B50086   9.657  28.948   7.531
 3864POPC   NC350087  16.391   0.804   5.558
 3864POPC   PO450088  15.861   1.383   5.462
 3864POPC   GL150089  15.784   1.134   5.802
 3864POPC   GL250090  16.085   1.059   5.855
 3864POPC   C1A50091  15.844   1.272   6.239
 3864POPC   D2A50092  15.690   1.420   6.624
 3864POPC   C3A50093  15.939   1.293   6.957
 3864POPC   C4A50094  15.686   1.312   7.309
 3864POPC   C1B50095  16.363   1.044   6.213
 3864POPC   C2B50096  16.543   0.895   6.628
 3864POPC   C3B50097  16.421   0.982   7.050
 3864POPC   C4B50098  16.164   1.030   7.401
 3865POPC   NC350099  44.020  20.779   5.373
 3865POPC   PO450100  43.971  20.125   5.581
 3865POPC   GL150101  43.770  20.397   5.930
 3865POPC   GL250102  43.766  20.766   5.883
 3865POPC   C1A50103  43.856  20.528   6.367
 3865POPC   D2A50104  43.974  20.412   6.805
 3865POPC   C3A50105  44.119  20.618   7.191
 3865POPC   C4A50106  44.281  20.433   7.610
 3865POPC   C1B50107  43.559  20.949   6.254
 3865POPC   C2B50108  43.507  20.788   6.680
 3865POPC   C3B50109  43.651  20.855   7.106
 3865POPC   C4B50110  43.467  20.811   7.521
 3866POPC   NC350111   1.588   7.502   5.489
 3866POPC   PO450112   0.999   7.867   5.389
 3866POPC   GL150113   1.142   7.698   5.798
 3866POPC   GL250114   1.094   7.341   5.761
 3866POPC   C1A50115   1.237   7.799   6.262
 3866POPC   D2A50116   1.001   7.707   6.678
 3866POPC   C3A50117   1.299   7.563   7.027
 3866POPC   C4A50118   1.637   7.724   7.303
 3866POPC   C1B50119   0.988   7.380   6.217
 3866POPC   C2B50120   1.235   7.242   6.567
 3866POPC   C3B50121   1.310   7.014   6.933
 3866POPC   C4B50122   1.245   7.138   7.350
 3867POPC   NC350123  41.596  32.812   5.306
 3867POPC   PO450124  41.113  33.241   5.407
 3867POPC   GL150125  41.280  32.997   5.773
 3867POPC   GL250126  41.647  32.909   5.813
 3867POPC   C1A50127  41.386  33.043   6.238
 3867POPC   D2A50128  41.487  32.857   6.640
 3867POPC   C3A50129  41.469  33.091   7.028
 3867POPC   C4A50130  41.391  33.119   7.494
 3867POPC   C1B50131  41.676  32.634   6.192
 3867POPC   C2B50132  41.924  32.601   6.558
 3867POPC   C3B50133  41.890  32.768   6.958
 3867POPC   C4B50134  41.646  32.686   7.308
 3868POPC   NC350135  41.953   3.426   5.531
 3868POPC   PO450136  41.325   3.726   5.593
 3868POPC   GL150137  41.357   3.364   5.838
 3868POPC   GL250138  41.037   3.198   5.904
 3868POPC   C1A50139  41.627   3.203   6.193
 3868POPC   D2A50140  41.876   3.343   6.557
 3868POPC   C3A50141  41.746   3.261   6.980
 3868POPC   C4A50142  41.689   3.623   7.259
 3868POPC   C1B50143  41.129   3.386   6.294
 3868POPC   C2B50144  41.332   3.253   6.650
 3868POPC   C3B50145  41.234   3.330   7.059
 3868POPC   C4B50146  41.429   3.229   7.411
 3869POPC   NC350147  36.811   3.191   5.489
 3869POPC   PO450148  36.888   2.527   5.442
 3869POPC   GL150149  36.922   2.782   5.813
 3869POPC   GL250150  37.201   3.019   5.808
 3869POPC   C1A50151  36.959   2.579   6.215
 3869POPC   D2A50152  36.683   2.483   6.560
 3869POPC   C3A50153  36.675   2.869   6.790
 3869POPC   C4A50154  36.676   2.765   7.224
 3869POPC   C1B50155  37.028   3.080   6.246
 3869POPC   C2B50156  37.148   3.092   6.665
 3869POPC   C3B50157  37.053   3.049   7.089
 3869POPC   C4B50158  37.036   2.941   7.556
 3870POPC   NC350159   4.531  22.559   5.652
 3870POPC   PO450160   4.114  23.033   5.588
 3870POPC   GL150161   4.350  23.004   5.924
 3870POPC   GL250162   4.438  23.349   5.934
 3870POPC   C1A50163   4.460  22.808   6.319
 3870POPC   D2A50164   4.302  22.941   6.734
 3870POPC   C3A50165   4.450  22.759   7.076
 3870POPC   C4A50166   4.395  22.694   7.517
 3870POPC   C1B50167   4.262  23.276   6.364
 3870POPC   C2B50168   3.862  23.208   6.623
 3870POPC   C3B50169   3.764  23.031   7.011
 3870POPC   C4B50170   4.030  22.931   7.293
 3871POPC   NC350171  15.418  36.456   5.196
 3871POPC   PO450172  15.217  37.026   5.559
 3871POPC   GL150173  14.924  37.020   5.891
 3871POPC   GL250174  14.724  37.324   5.924
 3871POPC   C1A50175  14.993  36.906   6.311
 3871POPC   D2A50176  15.230  37.062   6.677
 3871POPC   C3A50177  15.417  36.693   6.901
 3871POPC   C4A50178  15.244  36.490   7.274
 3871POPC   C1B50179  14.655  37.276   6.383
 3871POPC   C2B50180  14.632  36.924   6.688
 3871POPC   C3B50181  14.911  36.823   7.042
 3871POPC   C4B50182  15.254  37.050   7.218
 3872POPC   NC350183  11.420   3.866   5.294
 3872POPC   PO450184  11.018   3.388   5.501
 3872POPC   GL150185  11.296   3.596   5.784
 3872POPC   GL250186  11.060   3.488   6.016
 3872POPC   C1A50187  11.517   3.669   6.215
 3872POPC   D2A50188  11.615   3.671   6.685
 3872POPC   C3A50189  11.376   3.738   7.063
 3872POPC   C4A50190  11.444   3.839   7.496
 3872POPC   C1B50191  11.135   3.457   6.461
 3872POPC   C2B50192  11.139   3.876   6.620
 3872POPC   C3B50193  10.860   4.025   6.939
 3872POPC   C4B50194  10.944   3.844   7.351
 3873POPC   NC350195  25.804  30.241   5.465
 3873POPC   PO450196  25.987  29.670   5.464
 3873POPC   GL150197  25.938  29.806   5.876
 3873POPC   GL250198  25.641  29.991   5.889
 3873POPC   C1A50199  26.192  29.784   6.238
 3873POPC   D2A50200  26.256  29.984   6.621
 3873POPC   C3A50201  26.174  29.741   6.964
 3873POPC   C4A50202  26.352  29.892   7.322
 3873POPC   C1B50203  25.727  29.958   6.344
 3873POPC   C2B50204  25.756  29.946   6.771
 3873POPC   C3B50205  25.743  29.897   7.231
 3873POPC   C4B50206  25.603  30.000   7.675
 3874POPC   NC350207  41.162   7.505   5.226
 3874POPC   PO450208  41.833   7.461   5.332
 3874POPC   GL150209  41.648   7.357   5.787
 3874POPC   GL250210  41.298   7.144   5.730
 3874POPC   C1A50211  41.672   7.583   6.246
 3874POPC   D2A50212  41.517   7.794   6.654
 3874POPC   C3A50213  41.532   7.575   7.040
 3874POPC   C4A50214  41.636   7.172   7.155
 3874POPC   C1B50215  41.230   7.377   6.095
 3874POPC   C2B50216  41.334   7.320   6.519
 3874POPC   C3B50217  41.157   7.255   6.892
 3874POPC   C4B50218  41.149   7.242   7.315
 3875POPC   NC350219  24.617  36.935   5.315
 3875POPC   PO450220  23.968  36.872   5.199
 3875POPC   GL150221  24.160  36.889   5.671
 3875POPC   GL250222  24.493  37.015   5.808
 3875POPC   C1A50223  24.197  36.842   6.167
 3875POPC   D2A50224  24.355  37.053   6.556
 3875POPC   C3A50225  24.309  36.974   6.988
 3875POPC   C4A50226  24.531  37.184   7.279
 3875POPC   C1B50227  24.730  37.141   6.210
 3875POPC   C2B50228  24.861  36.984   6.636
 3875POPC   C3B50229  24.798  36.782   7.033
 3875POPC   C4B50230  24.992  36.499   7.318
 3876POPC   NC350231  43.322  36.431   5.561
 3876POPC   PO450232  43.941  36.147   5.328
 3876POPC   GL150233  43.717  36.131   5.673
 3876POPC   GL250234  43.779  36.512   5.738
 3876POPC   C1A50235  43.648  35.973   6.069
 3876POPC   D2A50236  43.710  36.195   6.426
 3876POPC   C3A50237  43.466  36.059   6.780
 3876POPC   C4A50238  43.583  36.159   7.220
 3876POPC   C1B50239  43.769  36.651   6.164
 3876POPC   C2B50240  44.019  36.620   6.515
 3876POPC   C3B50241  44.011  36.801   6.931
 3876POPC   C4B50242  44.010  36.534   7.302
 3877POPC   NC350243   0.353   0.648   5.549
 3877POPC   PO450244   0.164  44.983   5.555
 3877POPC   GL150245   0.414   0.103   5.882
 3877POPC   GL250246   0.678   0.350   5.811
 3877POPC   C1A50247   0.305   0.222   6.299
 3877POPC   D2A50248   0.255   0.522   6.630
 3877POPC   C3A50249   0.175   0.402   7.037
 3877POPC   C4A50250   0.125   0.648   7.413
 3877POPC   C1B50251   0.685   0.577   6.224
 3877POPC   C2B50252   0.744   0.393   6.623
 3877POPC   C3B50253   0.700   0.509   7.041
 3877POPC   C4B50254   0.919   0.501   7.432
 3878POPC   NC350255  11.213  32.560   5.448
 3878POPC   PO450256  11.703  32.001   5.458
 3878POPC   GL150257  11.463  32.226   5.770
 3878POPC   GL250258  11.613  32.066   5.962
 3878POPC   C1A50259  11.136  32.271   6.109
 3878POPC   D2A50260  10.972  32.207   6.550
 3878POPC   C3A50261  11.082  32.372   6.941
 3878POPC   C4A50262  11.166  32.310   7.393
 3878POPC   C1B50263  11.619  32.246   6.318
 3878POPC   C2B50264  11.483  32.166   6.682
 3878POPC   C3B50265  11.569  32.263   7.059
 3878POPC   C4B50266  11.484  32.634   7.156
 3879POPC   NC350267  25.637   6.770   5.589
 3879POPC   PO450268  25.051   6.622   5.317
 3879POPC   GL150269  25.107   6.690   5.752
 3879POPC   GL250270  25.293   6.387   5.766
 3879POPC   C1A50271  25.092   6.925   6.151
 3879POPC   D2A50272  24.950   6.772   6.575
 3879POPC   C3A50273  25.228   6.778   6.936
 3879POPC   C4A50274  25.063   6.760   7.350
 3879POPC   C1B50275  25.140   6.408   6.224
 3879POPC   C2B50276  25.261   6.333   6.673
 3879POPC   C3B50277  25.279   6.321   7.158
 3879POPC   C4B50278  25.459   6.525   7.569
 3880POPC   NC350279  42.216  31.244   5.395
 3880POPC   PO450280  42.548  31.737   5.184
 3880POPC   GL150281  42.433  31.574   5.699
 3880POPC   GL250282  42.608  31.295   5.858
 3880POPC   C1A50283  42.469  31.698   6.148
 3880POPC   D2A50284  42.577  31.474   6.540
 3880POPC   C3A50285  42.287  31.600   6.876
 3880POPC   C4A50286  42.301  31.695   7.319
 3880POPC   C1B50287  42.223  31.237   6.085
 3880POPC   C2B50288  42.152  31.139   6.513
 3880POPC   C3B50289  42.403  31.106   6.881
 3880POPC   C4B50290  42.237  31.159   7.278
 3881POPC   NC350291  27.720  20.599   5.482
 3881POPC   PO450292  27.244  21.112   5.451
 3881POPC   GL150293  27.408  20.843   5.811
 3881POPC   GL250294  27.804  20.778   5.923
 3881POPC   C1A50295  27.373  20.790   6.221
 3881POPC   D2A50296  27.161  20.673   6.542
 3881POPC   C3A50297  27.311  20.728   6.912
 3881POPC   C4A50298  27.639  20.980   7.052
 3881POPC   C1B50299  27.805  20.526   6.232
 3881POPC   C2B50300  27.712  20.670   6.623
 3881POPC   C3B50301  27.727  20.454   7.020
 3881POPC   C4B50302  27.503  20.295   7.351
 3882POPC   NC350303  31.429   5.753   5.390
 3882POPC   PO450304  31.980   5.634   5.773
 3882POPC   GL150305  31.543   5.791   5.901
 3882POPC   GL250306  31.301   6.080   5.835
 3882POPC   C1A50307  31.387   5.860   6.330
 3882POPC   D2A50308  31.701   5.879   6.666
 3882POPC   C3A50309  31.499   5.772   7.039
 3882POPC   C4A50310  31.214   5.537   7.248
 3882POPC   C1B50311  31.308   6.357   6.261
 3882POPC   C2B50312  31.338   6.240   6.729
 3882POPC   C3B50313  31.524   6.252   7.168
 3882POPC   C4B50314  31.838   5.964   7.428
 3883POPC   NC350315  23.354   3.196   5.529
 3883POPC   PO450316  23.107   2.562   5.273
 3883POPC   GL150317  22.970   2.583   5.728
 3883POPC   GL250318  22.620   2.583   5.755
 3883POPC   C1A50319  23.042   2.712   6.164
 3883POPC   D2A50320  22.942   2.543   6.571
 3883POPC   C3A50321  22.770   2.839   6.846
 3883POPC   C4A50322  22.844   3.086   7.188
 3883POPC   C1B50323  22.514   2.759   6.153
 3883POPC   C2B50324  22.396   2.632   6.559
 3883POPC   C3B50325  22.539   2.364   6.872
 3883POPC   C4B50326  22.526   2.604   7.230
 3884POPC   NC350327  30.996   9.424   5.417
 3884POPC   PO450328  30.695   8.859   5.479
 3884POPC   GL150329  30.604   8.927   5.850
 3884POPC   GL250330  30.930   9.029   5.971
 3884POPC   C1A50331  30.620   8.707   6.233
 3884POPC   D2A50332  30.649   8.856   6.633
 3884POPC   C3A50333  30.616   8.614   6.979
 3884POPC   C4A50334  30.664   8.856   7.335
 3884POPC   C1B50335  30.574   9.215   6.254
 3884POPC   C2B50336  30.503   9.356   6.654
 3884POPC   C3B50337  30.584   9.303   7.097
 3884POPC   C4B50338  30.659   9.318   7.564
 3885POPC   NC350339  35.160  12.007   5.469
 3885POPC   PO450340  35.744  12.364   5.530
 3885POPC   GL150341  35.531  12.123   5.867
 3885POPC   GL250342  35.480  11.770   5.844
 3885POPC   C1A50343  35.220  12.159   6.248
 3885POPC   D2A50344  35.034  12.113   6.703
 3885POPC   C3A50345  35.302  12.305   7.039
 3885POPC   C4A50346  35.518  12.272   7.413
 3885POPC   C1B50347  35.618  11.841   6.276
 3885POPC   C2B50348  35.565  12.056   6.682
 3885POPC   C3B50349  35.737  11.932   7.095
 3885POPC   C4B50350  35.755  11.839   7.555
 3886POPC   NC350351  42.594  36.441   5.411
 3886POPC   PO450352  42.062  36.814   5.161
 3886POPC   GL150353  42.098  36.870   5.643
 3886POPC   GL250354  42.436  36.840   5.760
 3886POPC   C1A50355  42.060  36.942   6.131
 3886POPC   D2A50356  42.302  36.908   6.544
 3886POPC   C3A50357  42.103  36.895   6.912
 3886POPC   C4A50358  42.129  36.808   7.333
 3886POPC   C1B50359  42.549  37.103   6.123
 3886POPC   C2B50360  42.642  37.279   6.519
 3886POPC   C3B50361  42.648  37.098   6.908
 3886POPC   C4B50362  42.424  37.199   7.239
 3887POPC   NC350363  40.202  30.127   5.662
 3887POPC   PO450364  40.285  30.737   5.342
 3887POPC   GL150365  39.975  30.618   5.697
 3887POPC   GL250366  40.257  30.549   5.905
 3887POPC   C1A50367  39.800  30.636   6.143
 3887POPC   D2A50368  40.031  30.477   6.492
 3887POPC   C3A50369  39.982  30.686   6.852
 3887POPC   C4A50370  39.816  30.642   7.238
 3887POPC   C1B50371  40.280  30.805   6.208
 3887POPC   C2B50372  40.164  31.063   6.513
 3887POPC   C3B50373  40.385  31.036   6.856
 3887POPC   C4B50374  40.413  30.731   7.167
 3888POPC   NC350375  43.723  26.090   5.514
 3888POPC   PO450376  44.089  26.464   5.162
 3888POPC   GL150377  44.115  26.098   5.817
 3888POPC   GL250378  44.223  25.832   5.926
 3888POPC   C1A50379  44.241  26.257   6.269
 3888POPC   D2A50380  43.958  26.460   6.584
 3888POPC   C3A50381  44.037  26.352   7.020
 3888POPC   C4A50382  43.669  26.340   7.285
 3888POPC   C1B50383  44.031  25.801   6.307
 3888POPC   C2B50384  43.720  25.739   6.594
 3888POPC   C3B50385  43.761  25.925   6.974
 3888POPC   C4B50386  44.148  25.828   7.167
 3889POPC   NC350387  32.405   1.694   4.995
 3889POPC   PO450388  31.992   1.834   5.525
 3889POPC   GL150389  32.049   2.014   5.955
 3889POPC   GL250390  32.366   1.803   5.934
 3889POPC   C1A50391  32.228   1.989   6.395
 3889POPC   D2A50392  32.502   1.841   6.728
 3889POPC   C3A50393  32.415   1.895   7.177
 3889POPC   C4A50394  32.620   2.211   7.458
 3889POPC   C1B50395  32.008   1.543   6.125
 3889POPC   C2B50396  31.856   1.575   6.532
 3889POPC   C3B50397  31.988   1.831   6.852
 3889POPC   C4B50398  31.858   1.952   7.226
 3890POPC   NC350399   4.714  16.040   5.598
 3890POPC   PO450400   4.098  15.847   5.426
 3890POPC   GL150401   4.261  15.884   5.811
 3890POPC   GL250402   3.948  15.958   5.909
 3890POPC   C1A50403   4.335  16.070   6.211
 3890POPC   D2A50404   4.467  15.961   6.607
 3890POPC   C3A50405   4.274  16.151   6.952
 3890POPC   C4A50406   4.064  16.000   7.329
 3890POPC   C1B50407   3.975  15.680   6.254
 3890POPC   C2B50408   4.063  15.651   6.691
 3890POPC   C3B50409   3.932  15.577   7.091
 3890POPC   C4B50410   4.116  15.509   7.532
 3891POPC   NC350411  35.437  24.185   5.294
 3891POPC   PO450412  36.036  23.815   5.360
 3891POPC   GL150413  36.102  23.944   5.768
 3891POPC   GL250414  35.791  24.007   5.843
 3891POPC   C1A50415  36.225  24.145   6.136
 3891POPC   D2A50416  36.356  24.063   6.558
 3891POPC   C3A50417  36.064  23.853   6.813
 3891POPC   C4A50418  36.113  23.583   7.142
 3891POPC   C1B50419  35.881  23.742   6.231
 3891POPC   C2B50420  35.631  23.705   6.602
 3891POPC   C3B50421  35.604  23.547   7.026
 3891POPC   C4B50422  35.787  23.226   7.242
 3892POPC   NC350423  22.126  30.617   5.342
 3892POPC   PO450424  22.614  30.264   5.569
 3892POPC   GL150425  22.335  30.576   5.811
 3892POPC   GL250426  21.965  30.572   5.818
 3892POPC   C1A50427  22.230  30.873   6.154
 3892POPC   D2A50428  22.445  30.880   6.562
 3892POPC   C3A50429  22.387  30.530   6.860
 3892POPC   C4A50430  22.277  30.743   7.217
 3892POPC   C1B50431  21.852  30.467   6.203
 3892POPC   C2B50432  21.962  30.668   6.564
 3892POPC   C3B50433  21.866  30.589   6.966
 3892POPC   C4B50434  21.843  30.539   7.389
 3893POPC   NC350435  29.483  30.236   5.448
 3893POPC   PO450436  29.309  29.551   5.418
 3893POPC   GL150437  29.330  29.836   5.767
 3893POPC   GL250438  29.000  29.909   5.901
 3893POPC   C1A50439  29.346  29.796   6.223
 3893POPC   D2A50440  29.136  29.939   6.570
 3893POPC   C3A50441  29.183  29.746   6.959
 3893POPC   C4A50442  29.243  30.015   7.291
 3893POPC   C1B50443  28.725  29.769   6.243
 3893POPC   C2B50444  28.698  29.769   6.707
 3893POPC   C3B50445  28.832  30.112   6.990
 3893POPC   C4B50446  28.729  30.101   7.429
 3894POPC   NC350447  40.241  21.990   5.329
 3894POPC   PO450448  39.724  22.367   5.362
 3894POPC   GL150449  39.949  22.169   5.716
 3894POPC   GL250450  40.219  22.384   5.669
 3894POPC   C1A50451  40.135  21.926   6.101
 3894POPC   D2A50452  40.315  21.944   6.572
 3894POPC   C3A50453  40.056  22.003   6.962
 3894POPC   C4A50454  39.810  22.231   7.313
 3894POPC   C1B50455  40.320  22.413   6.092
 3894POPC   C2B50456  40.201  22.560   6.493
 3894POPC   C3B50457  40.339  22.447   6.875
 3894POPC   C4B50458  40.285  22.339   7.271
 3895POPC   NC350459   7.975  40.804   5.389
 3895POPC   PO450460   8.536  40.897   5.730
 3895POPC   GL150461   8.155  40.719   5.890
 3895POPC   GL250462   7.912  40.472   5.767
 3895POPC   C1A50463   8.096  40.774   6.319
 3895POPC   D2A50464   8.363  40.977   6.648
 3895POPC   C3A50465   8.223  41.095   7.072
 3895POPC   C4A50466   8.202  40.887   7.471
 3895POPC   C1B50467   7.857  40.335   6.191
 3895POPC   C2B50468   7.781  40.467   6.630
 3895POPC   C3B50469   7.767  40.230   7.015
 3895POPC   C4B50470   8.080  40.358   7.335
 3896POPC   NC350471   6.233  12.786   5.270
 3896POPC   PO450472   6.828  12.903   5.475
 3896POPC   GL150473   6.632  12.983   5.861
 3896POPC   GL250474   6.294  12.985   5.800
 3896POPC   C1A50475   6.783  12.831   6.241
 3896POPC   D2A50476   7.007  12.684   6.583
 3896POPC   C3A50477   6.838  12.957   6.847
 3896POPC   C4A50478   6.630  13.071   7.171
 3896POPC   C1B50479   6.265  12.707   6.168
 3896POPC   C2B50480   6.394  12.744   6.608
 3896POPC   C3B50481   6.304  12.696   7.055
 3896POPC   C4B50482   6.164  12.983   7.387
 3897POPC   NC350483  16.456  15.806   5.526
 3897POPC   PO450484  16.882  16.182   5.259
 3897POPC   GL150485  16.826  16.128   5.753
 3897POPC   GL250486  16.559  16.327   5.887
 3897POPC   C1A50487  16.688  15.910   6.181
 3897POPC   D2A50488  16.517  15.871   6.626
 3897POPC   C3A50489  16.710  15.747   7.019
 3897POPC   C4A50490  16.842  15.934   7.426
 3897POPC   C1B50491  16.860  16.446   6.195
 3897POPC   C2B50492  17.043  16.335   6.593
 3897POPC   C3B50493  16.882  16.254   7.010
 3897POPC   C4B50494  17.013  16.431   7.416
 3898POPC   NC350495  13.588  38.343   5.329
 3898POPC   PO450496  13.956  38.928   5.418
 3898POPC   GL150497  13.634  38.653   5.770
 3898POPC   GL250498  13.431  38.281   5.807
 3898POPC   C1A50499  13.760  38.383   6.176
 3898POPC   D2A50500  13.931  38.436   6.600
 3898POPC   C3A50501  13.656  38.259   6.894
 3898POPC   C4A50502  13.522  38.430   7.277
 3898POPC   C1B50503  13.255  38.087   6.223
 3898POPC   C2B50504  13.230  38.037   6.699
 3898POPC   C3B50505  13.151  38.127   7.146
 3898POPC   C4B50506  13.245  38.167   7.604
 3899POPC   NC350507   8.108   9.211   5.459
 3899POPC   PO450508   7.827   8.604   5.610
 3899POPC   GL150509   8.152   8.814   5.827
 3899POPC   GL250510   7.957   9.095   5.955
 3899POPC   C1A50511   8.290   8.791   6.265
 3899POPC   D2A50512   8.045   9.090   6.522
 3899POPC   C3A50513   8.155   9.110   6.962
 3899POPC   C4A50514   8.366   9.336   7.303
 3899POPC   C1B50515   7.793   8.729   6.244
 3899POPC   C2B50516   7.950   8.517   6.576
 3899POPC   C3B50517   7.777   8.505   6.958
 3899POPC   C4B50518   7.984   8.709   7.275
 3900POPC   NC350519  21.895   4.505   5.419
 3900POPC   PO450520  22.490   4.155   5.600
 3900POPC   GL150521  22.235   4.186   5.951
 3900POPC   GL250522  21.963   4.410   5.922
 3900POPC   C1A50523  21.952   4.001   6.263
 3900POPC   D2A50524  21.973   3.990   6.700
 3900POPC   C3A50525  22.344   4.153   6.853
 3900POPC   C4A50526  22.497   4.064   7.254
 3900POPC   C1B50527  22.112   4.521   6.342
 3900POPC   C2B50528  21.943   4.516   6.753
 3900POPC   C3B50529  21.929   4.288   7.132
 3900POPC   C4B50530  22.257   4.522   7.285
 3901POPC   NC350531  11.863  40.240   5.413
 3901POPC   PO450532  11.756  39.717   5.801
 3901POPC   GL150533  12.020  40.060   5.897
 3901POPC   GL250534  11.911  40.398   5.891
 3901POPC   C1A50535  12.258  40.146   6.255
 3901POPC   D2A50536  12.386  40.023   6.684
 3901POPC   C3A50537  12.063  39.843   6.911
 3901POPC   C4A50538  12.018  39.686   7.295
 3901POPC   C1B50539  11.740  40.358   6.272
 3901POPC   C2B50540  11.926  40.254   6.627
 3901POPC   C3B50541  12.006  40.351   7.023
 3901POPC   C4B50542  11.723  40.139   7.295
 3902POPC   NC350543   9.922  37.304   5.627
 3902POPC   PO450544   9.665  37.763   5.176
 3902POPC   GL150545   9.697  37.748   5.679
 3902POPC   GL250546   9.925  37.916   5.891
 3902POPC   C1A50547   9.549  37.614   6.133
 3902POPC   D2A50548   9.558  37.509   6.599
 3902POPC   C3A50549   9.755  37.816   6.883
 3902POPC   C4A50550   9.735  37.826   7.330
 3902POPC   C1B50551  10.071  37.576   6.194
 3902POPC   C2B50552  10.067  37.481   6.627
 3902POPC   C3B50553  10.179  37.567   7.063
 3902POPC   C4B50554  10.117  37.522   7.510
 3903POPC   NC350555   5.108  10.072   5.676
 3903POPC   PO450556   5.239  10.704   5.459
 3903POPC   GL150557   5.257  10.544   5.845
 3903POPC   GL250558   4.881  10.524   5.833
 3903POPC   C1A50559   5.164  10.663   6.277
 3903POPC   D2A50560   4.927  10.657   6.687
 3903POPC   C3A50561   5.074  10.298   6.912
 3903POPC   C4A50562   5.472  10.176   7.143
 3903POPC   C1B50563   4.711  10.385   6.245
 3903POPC   C2B50564   4.523  10.250   6.632
 3903POPC   C3B50565   4.565  10.400   7.046
 3903POPC   C4B50566   4.887  10.597   7.258
 3904POPC   NC350567  41.707  13.483   5.421
 3904POPC   PO450568  41.034  13.560   5.333
 3904POPC   GL150569  41.337  13.769   5.686
 3904POPC   GL250570  41.686  13.915   5.735
 3904POPC   C1A50571  41.436  13.649   6.132
 3904POPC   D2A50572  41.286  13.473   6.551
 3904POPC   C3A50573  41.501  13.616   6.932
 3904POPC   C4A50574  41.597  13.476   7.349
 3904POPC   C1B50575  41.942  13.775   6.144
 3904POPC   C2B50576  41.901  13.722   6.614
 3904POPC   C3B50577  42.000  13.758   7.071
 3904POPC   C4B50578  41.965  13.790   7.567
 3905POPC   NC350579  33.575  36.361   5.361
 3905POPC   PO450580  33.458  35.772   5.437
 3905POPC   GL150581  33.656  36.052   5.808
 3905POPC   GL250582  33.751  36.417   5.828
 3905POPC   C1A50583  33.934  36.188   6.231
 3905POPC   D2A50584  33.737  36.114   6.654
 3905POPC   C3A50585  33.990  36.092   7.072
 3905POPC   C4A50586  33.958  35.723   7.385
 3905POPC   C1B50587  33.453  36.362   6.165
 3905POPC   C2B50588  33.315  36.542   6.556
 3905POPC   C3B50589  33.401  36.389   6.938
 3905POPC   C4B50590  33.706  36.484   7.233
 3906POPC   NC350591  24.999  36.119   5.637
 3906POPC   PO450592  24.444  36.013   5.389
 3906POPC   GL150593  24.515  35.977   5.829
 3906POPC   GL250594  24.780  35.779   5.955
 3906POPC   C1A50595  24.636  36.247   6.169
 3906POPC   D2A50596  24.828  36.487   6.498
 3906POPC   C3A50597  24.458  36.548   6.733
 3906POPC   C4A50598  24.336  36.462   7.159
 3906POPC   C1B50599  24.484  35.662   6.262
 3906POPC   C2B50600  24.467  35.645   6.707
 3906POPC   C3B50601  24.663  35.672   7.047
 3906POPC   C4B50602  24.491  35.988   7.311
 3907POPC   NC350603  27.041  14.274   5.518
 3907POPC   PO450604  26.459  14.493   5.397
 3907POPC   GL150605  26.619  14.395   5.815
 3907POPC   GL250606  26.328  14.506   5.976
 3907POPC   C1A50607  26.957  14.293   6.141
 3907POPC   D2A50608  27.047  14.111   6.517
 3907POPC   C3A50609  27.001  14.373   6.871
 3907POPC   C4A50610  26.898  14.111   7.178
 3907POPC   C1B50611  26.499  14.311   6.355
 3907POPC   C2B50612  26.549  14.086   6.748
 3907POPC   C3B50613  26.372  14.080   7.171
 3907POPC   C4B50614  26.533  14.500   7.256
 3908POPC   NC350615  26.582  15.111   5.264
 3908POPC   PO450616  27.193  15.067   5.100
 3908POPC   GL150617  26.962  15.137   5.600
 3908POPC   GL250618  26.699  14.901   5.738
 3908POPC   C1A50619  26.891  15.251   6.088
 3908POPC   D2A50620  26.581  15.226   6.460
 3908POPC   C3A50621  26.709  15.284   6.908
 3908POPC   C4A50622  27.014  15.317   7.235
 3908POPC   C1B50623  26.747  14.765   6.196
 3908POPC   C2B50624  26.871  14.836   6.649
 3908POPC   C3B50625  26.905  14.837   7.115
 3908POPC   C4B50626  26.765  14.899   7.580
 3909POPC   NC350627  17.020  23.096   5.541
 3909POPC   PO450628  16.574  22.631   5.259
 3909POPC   GL150629  16.577  22.755   5.696
 3909POPC   GL250630  16.901  22.702   5.834
 3909POPC   C1A50631  16.419  22.840   6.129
 3909POPC   D2A50632  16.212  22.722   6.518
 3909POPC   C3A50633  16.390  22.708   6.930
 3909POPC   C4A50634  16.527  22.813   7.352
 3909POPC   C1B50635  16.932  22.957   6.200
 3909POPC   C2B50636  16.739  22.881   6.581
 3909POPC   C3B50637  16.767  23.052   6.969
 3909POPC   C4B50638  17.085  23.110   7.253
 3910POPC   NC350639   6.268   5.719   5.537
 3910POPC   PO450640   5.735   6.066   5.410
 3910POPC   GL150641   5.728   6.034   5.871
 3910POPC   GL250642   5.636   5.684   5.961
 3910POPC   C1A50643   5.969   6.065   6.296
 3910POPC   D2A50644   6.006   6.100   6.780
 3910POPC   C3A50645   6.168   5.919   7.196
 3910POPC   C4A50646   6.110   6.041   7.666
 3910POPC   C1B50647   5.837   5.533   6.353
 3910POPC   C2B50648   5.892   5.588   6.790
 3910POPC   C3B50649   5.675   5.845   7.109
 3910POPC   C4B50650   5.653   5.742   7.550
 3911POPC   NC350651  16.954  24.615   5.380
 3911POPC   PO450652  16.326  24.328   5.335
 3911POPC   GL150653  16.638  24.299   5.638
 3911POPC   GL250654  16.379  24.410   5.859
 3911POPC   C1A50655  16.875  24.410   6.021
 3911POPC   D2A50656  16.804  24.702   6.392
 3911POPC   C3A50657  16.785  24.468   6.776
 3911POPC   C4A50658  16.912  24.591   7.162
 3911POPC   C1B50659  16.442  24.343   6.297
 3911POPC   C2B50660  16.309  24.606   6.654
 3911POPC   C3B50661  16.394  24.638   7.126
 3911POPC   C4B50662  16.582  24.300   7.421
 3912POPC   NC350663   6.325  26.153   5.091
 3912POPC   PO450664   6.892  26.242   5.423
 3912POPC   GL150665   6.865  26.079   5.815
 3912POPC   GL250666   6.588  25.844   5.746
 3912POPC   C1A50667   6.765  26.275   6.218
 3912POPC   D2A50668   6.446  26.161   6.508
 3912POPC   C3A50669   6.563  26.095   6.916
 3912POPC   C4A50670   6.274  26.164   7.229
 3912POPC   C1B50671   6.579  25.784   6.188
 3912POPC   C2B50672   6.815  25.757   6.578
 3912POPC   C3B50673   6.767  25.586   6.954
 3912POPC   C4B50674   6.439  25.668   7.213
 3913POPC   NC350675   6.850  14.219   5.437
 3913POPC   PO450676   6.466  14.709   5.445
 3913POPC   GL150677   6.666  14.566   5.811
 3913POPC   GL250678   6.483  14.249   5.818
 3913POPC   C1A50679   6.924  14.679   6.213
 3913POPC   D2A50680   6.991  14.522   6.674
 3913POPC   C3A50681   6.817  14.694   7.105
 3913POPC   C4A50682   7.018  14.537   7.522
 3913POPC   C1B50683   6.239  14.209   6.211
 3913POPC   C2B50684   6.194  14.378   6.627
 3913POPC   C3B50685   6.559  14.314   6.874
 3913POPC   C4B50686   6.647  14.239   7.306
 3914POPC   NC350687  31.255  34.430   5.553
 3914POPC   PO450688  31.860  34.499   5.381
 3914POPC   GL150689  31.714  34.608   5.777
 3914POPC   GL250690  31.587  34.274   5.915
 3914POPC   C1A50691  31.701  34.812   6.179
 3914POPC   D2A50692  31.478  34.613   6.514
 3914POPC   C3A50693  31.502  34.752   6.930
 3914POPC   C4A50694  31.645  34.659   7.287
 3914POPC   C1B50695  31.277  34.207   6.239
 3914POPC   C2B50696  31.261  34.159   6.700
 3914POPC   C3B50697  31.206  34.326   7.139
 3914POPC   C4B50698  31.097  34.343   7.615
 3915POPC   NC350699  23.439  17.986   5.537
 3915POPC   PO450700  23.956  18.428   5.485
 3915POPC   GL150701  23.767  18.236   5.864
 3915POPC   GL250702  23.519  18.407   6.025
 3915POPC   C1A50703  23.677  17.968   6.265
 3915POPC   D2A50704  23.717  17.986   6.733
 3915POPC   C3A50705  23.681  18.218   7.118
 3915POPC   C4A50706  23.638  18.111   7.548
 3915POPC   C1B50707  23.920  18.408   6.320
 3915POPC   C2B50708  23.976  18.449   6.758
 3915POPC   C3B50709  24.154  18.454   7.150
 3915POPC   C4B50710  23.882  18.594   7.468
 3916POPC   NC350711   3.130  40.894   5.420
 3916POPC   PO450712   2.504  40.954   5.225
 3916POPC   GL150713   2.565  40.681   5.623
 3916POPC   GL250714   2.891  40.706   5.814
 3916POPC   C1A50715   2.502  40.675   6.100
 3916POPC   D2A50716   2.761  40.747   6.469
 3916POPC   C3A50717   2.611  40.832   6.867
 3916POPC   C4A50718   2.368  40.826   7.246
 3916POPC   C1B50719   3.168  40.775   6.175
 3916POPC   C2B50720   3.295  40.821   6.629
 3916POPC   C3B50721   3.093  40.737   7.002
 3916POPC   C4B50722   2.856  40.959   7.296
 3917POPC   NC350723  10.784  33.970   5.456
 3917POPC   PO450724  10.469  33.415   5.437
 3917POPC   GL150725  10.525  33.703   5.794
 3917POPC   GL250726  10.311  33.990   5.841
 3917POPC   C1A50727  10.695  33.828   6.187
 3917POPC   D2A50728  10.630  33.634   6.591
 3917POPC   C3A50729  10.675  33.813   7.020
 3917POPC   C4A50730  10.828  33.762   7.447
 3917POPC   C1B50731  10.253  34.089   6.260
 3917POPC   C2B50732  10.184  33.903   6.667
 3917POPC   C3B50733  10.210  33.996   7.079
 3917POPC   C4B50734  10.318  33.760   7.409
 3918POPC   NC350735  10.871  11.977   5.295
 3918POPC   PO450736  11.513  12.169   5.138
 3918POPC   GL150737  11.439  12.084   5.616
 3918POPC   GL250738  11.145  12.172   5.742
 3918POPC   C1A50739  11.524  12.100   6.079
 3918POPC   D2A50740  11.449  12.243   6.506
 3918POPC   C3A50741  11.291  11.948   6.845
 3918POPC   C4A50742  11.457  11.782   7.234
 3918POPC   C1B50743  11.027  12.162   6.179
 3918POPC   C2B50744  10.931  12.218   6.586
 3918POPC   C3B50745  10.917  12.257   7.017
 3918POPC   C4B50746  10.959  11.877   7.282
 3919POPC   NC350747   2.945  18.468   5.294
 3919POPC   PO450748   2.432  18.161   5.479
 3919POPC   GL150749   2.680  18.325   5.805
 3919POPC   GL250750   2.977  18.127   5.848
 3919POPC   C1A50751   2.652  18.257   6.246
 3919POPC   D2A50752   2.555  18.276   6.674
 3919POPC   C3A50753   2.889  18.400   6.948
 3919POPC   C4A50754   2.825  18.212   7.327
 3919POPC   C1B50755   2.945  17.826   6.223
 3919POPC   C2B50756   3.034  17.896   6.689
 3919POPC   C3B50757   3.133  17.832   7.145
 3919POPC   C4B50758   3.076  17.897   7.630
 3920POPC   NC350759  21.149  29.331   5.335
 3920POPC   PO450760  21.537  28.899   5.645
 3920POPC   GL150761  21.178  29.086   5.889
 3920POPC   GL250762  21.063  29.475   5.817
 3920POPC   C1A50763  21.350  29.023   6.326
 3920POPC   D2A50764  21.641  29.237   6.637
 3920POPC   C3A50765  21.526  29.057   7.038
 3920POPC   C4A50766  21.092  28.970   7.186
 3920POPC   C1B50767  21.241  29.502   6.238
 3920POPC   C2B50768  21.133  29.341   6.678
 3920POPC   C3B50769  21.222  29.460   7.127
 3920POPC   C4B50770  21.260  29.499   7.586
 3921POPC   NC350771  34.465  16.422   5.497
 3921POPC   PO450772  34.536  17.072   5.490
 3921POPC   GL150773  34.677  16.809   5.799
 3921POPC   GL250774  34.968  17.024   5.812
 3921POPC   C1A50775  34.503  16.636   6.189
 3921POPC   D2A50776  34.283  16.824   6.582
 3921POPC   C3A50777  34.530  16.831   6.985
 3921POPC   C4A50778  34.725  16.513   7.252
 3921POPC   C1B50779  34.987  16.866   6.203
 3921POPC   C2B50780  34.825  16.748   6.568
 3921POPC   C3B50781  35.024  16.766   6.923
 3921POPC   C4B50782  35.074  16.881   7.319
 3922POPC   NC350783  42.043  11.828   5.389
 3922POPC   PO450784  42.574  12.319   5.315
 3922POPC   GL150785  42.303  12.165   5.711
 3922POPC   GL250786  42.055  12.392   5.822
 3922POPC   C1A50787  42.198  12.012   6.177
 3922POPC   D2A50788  42.364  12.073   6.596
 3922POPC   C3A50789  42.260  11.916   7.027
 3922POPC   C4A50790  42.293  11.776   7.474
 3922POPC   C1B50791  42.356  12.487   6.144
 3922POPC   C2B50792  42.297  12.594   6.564
 3922POPC   C3B50793  42.390  12.423   6.975
 3922POPC   C4B50794  42.305  12.269   7.392
 3923POPC   NC350795   1.829  27.057   5.456
 3923POPC   PO450796   2.143  26.428   5.518
 3923POPC   GL150797   1.864  26.647   5.831
 3923POPC   GL250798   1.982  26.964   5.956
 3923POPC   C1A50799   1.725  26.668   6.280
 3923POPC   D2A50800   1.724  26.429   6.659
 3923POPC   C3A50801   1.781  26.642   7.034
 3923POPC   C4A50802   1.438  26.786   7.277
 3923POPC   C1B50803   2.226  26.807   6.336
 3923POPC   C2B50804   2.212  26.598   6.737
 3923POPC   C3B50805   2.313  26.609   7.160
 3923POPC   C4B50806   2.106  26.877   7.475
 3924POPC   NC350807  13.874  21.985   5.130
 3924POPC   PO450808  13.707  21.831   5.753
 3924POPC   GL150809  13.598  22.246   5.829
 3924POPC   GL250810  13.970  22.329   5.860
 3924POPC   C1A50811  13.306  22.407   6.166
 3924POPC   D2A50812  13.372  22.445   6.625
 3924POPC   C3A50813  13.361  22.082   6.897
 3924POPC   C4A50814  13.674  21.894   7.197
 3924POPC   C1B50815  13.805  22.319   6.293
 3924POPC   C2B50816  13.826  22.116   6.696
 3924POPC   C3B50817  13.783  22.386   7.056
 3924POPC   C4B50818  13.986  22.592   7.409
 3925POPC   NC350819   7.249  10.337   5.580
 3925POPC   PO450820   7.831  10.612   5.313
 3925POPC   GL150821   7.595  10.707   5.746
 3925POPC   GL250822   7.213  10.825   5.726
 3925POPC   C1A50823   7.649  10.499   6.189
 3925POPC   D2A50824   7.354  10.339   6.494
 3925POPC   C3A50825   7.480  10.377   6.903
 3925POPC   C4A50826   7.664  10.361   7.313
 3925POPC   C1B50827   7.214  10.749   6.187
 3925POPC   C2B50828   7.547  10.807   6.577
 3925POPC   C3B50829   7.577  10.857   7.024
 3925POPC   C4B50830   7.299  10.827   7.409
 3926POPC   NC350831   6.463   9.259   5.505
 3926POPC   PO450832   6.864   8.728   5.557
 3926POPC   GL150833   6.734   8.972   5.844
 3926POPC   GL250834   6.392   8.812   5.797
 3926POPC   C1A50835   6.971   9.020   6.207
 3926POPC   D2A50836   6.857   8.952   6.619
 3926POPC   C3A50837   6.754   9.216   6.912
 3926POPC   C4A50838   6.522   9.190   7.333
 3926POPC   C1B50839   6.456   8.804   6.239
 3926POPC   C2B50840   6.343   8.972   6.620
 3926POPC   C3B50841   6.503   8.776   6.972
 3926POPC   C4B50842   6.330   8.693   7.329
 3927POPC   NC350843  21.735  43.284   5.464
 3927POPC   PO450844  22.262  42.911   5.587
 3927POPC   GL150845  22.349  43.231   5.833
 3927POPC   GL250846  22.020  43.317   5.886
 3927POPC   C1A50847  22.368  43.420   6.250
 3927POPC   D2A50848  22.504  43.519   6.661
 3927POPC   C3A50849  22.327  43.234   6.938
 3927POPC   C4A50850  22.415  43.072   7.332
 3927POPC   C1B50851  21.682  43.247   6.137
 3927POPC   C2B50852  21.612  43.137   6.524
 3927POPC   C3B50853  21.778  43.211   6.938
 3927POPC   C4B50854  21.908  43.064   7.317
 3928POPC   NC350855   4.556  24.271   5.487
 3928POPC   PO450856   4.069  24.704   5.437
 3928POPC   GL150857   4.246  24.562   5.806
 3928POPC   GL250858   4.092  24.262   5.831
 3928POPC   C1A50859   4.439  24.755   6.174
 3928POPC   D2A50860   4.257  24.640   6.535
 3928POPC   C3A50861   4.311  24.799   6.941
 3928POPC   C4A50862   4.267  24.817   7.369
 3928POPC   C1B50863   4.411  24.236   6.149
 3928POPC   C2B50864   4.480  24.142   6.565
 3928POPC   C3B50865   4.352  24.296   6.908
 3928POPC   C4B50866   4.557  24.432   7.229
 3929POPC   NC350867   8.837  13.138   5.443
 3929POPC   PO450868   9.139  12.513   5.449
 3929POPC   GL150869   9.073  12.794   5.824
 3929POPC   GL250870   8.850  13.048   5.971
 3929POPC   C1A50871   9.076  12.699   6.262
 3929POPC   D2A50872   8.914  12.986   6.621
 3929POPC   C3A50873   8.907  12.835   7.068
 3929POPC   C4A50874   9.122  12.742   7.463
 3929POPC   C1B50875   9.257  13.177   6.254
 3929POPC   C2B50876   9.404  13.149   6.720
 3929POPC   C3B50877   9.182  13.265   7.060
 3929POPC   C4B50878   8.820  13.388   7.172
 3930POPC   NC350879  12.455  33.800   5.050
 3930POPC   PO450880  11.983  33.783   5.564
 3930POPC   GL150881  12.152  33.799   5.932
 3930POPC   GL250882  12.214  33.488   5.933
 3930POPC   C1A50883  12.053  33.864   6.319
 3930POPC   D2A50884  11.952  33.520   6.589
 3930POPC   C3A50885  11.921  33.722   6.958
 3930POPC   C4A50886  11.973  33.711   7.397
 3930POPC   C1B50887  12.436  33.524   6.315
 3930POPC   C2B50888  12.388  33.816   6.695
 3930POPC   C3B50889  12.409  33.823   7.118
 3930POPC   C4B50890  12.516  34.103   7.411
 3931POPC   NC350891   1.107  41.195   5.509
 3931POPC   PO450892   1.304  40.527   5.424
 3931POPC   GL150893   1.245  40.784   5.833
 3931POPC   GL250894   1.478  40.733   6.092
 3931POPC   C1A50895   0.999  40.897   6.238
 3931POPC   D2A50896   1.053  40.779   6.674
 3931POPC   C3A50897   1.042  40.955   7.086
 3931POPC   C4A50898   1.040  40.688   7.448
 3931POPC   C1B50899   1.408  41.200   6.154
 3931POPC   C2B50900   1.492  41.375   6.586
 3931POPC   C3B50901   1.498  41.205   7.013
 3931POPC   C4B50902   1.404  41.041   7.477
 3932POPC   NC350903  43.213  17.923   5.256
 3932POPC   PO450904  42.868  18.577   5.417
 3932POPC   GL150905  42.989  18.199   5.673
 3932POPC   GL250906  43.184  18.388   5.865
 3932POPC   C1A50907  43.035  17.977   6.112
 3932POPC   D2A50908  43.291  18.149   6.470
 3932POPC   C3A50909  43.183  18.159   6.934
 3932POPC   C4A50910  42.973  18.215   7.370
 3932POPC   C1B50911  43.413  18.615   6.171
 3932POPC   C2B50912  43.597  18.545   6.568
 3932POPC   C3B50913  43.440  18.636   6.954
 3932POPC   C4B50914  43.449  18.431   7.318
 3933POPC   NC350915  28.206  16.228   5.663
 3933POPC   PO450916  28.194  15.765   5.139
 3933POPC   GL150917  28.259  15.722   5.630
 3933POPC   GL250918  28.559  15.845   5.779
 3933POPC   C1A50919  28.191  15.760   6.135
 3933POPC   D2A50920  28.228  16.128   6.470
 3933POPC   C3A50921  28.183  16.121   6.930
 3933POPC   C4A50922  28.217  15.778   7.247
 3933POPC   C1B50923  28.674  16.049   6.204
 3933POPC   C2B50924  28.854  15.983   6.640
 3933POPC   C3B50925  28.697  16.097   7.062
 3933POPC   C4B50926  28.682  15.960   7.497
 3934POPC   NC350927  19.578  42.714   5.495
 3934POPC   PO450928  19.813  43.169   5.104
 3934POPC   GL150929  19.925  43.105   5.577
 3934POPC   GL250930  20.269  42.972   5.749
 3934POPC   C1A50931  19.884  43.237   6.028
 3934POPC   D2A50932  19.943  43.242   6.489
 3934POPC   C3A50933  19.655  43.057   6.791
 3934POPC   C4A50934  19.491  43.133   7.202
 3934POPC   C1B50935  20.217  42.852   6.218
 3934POPC   C2B50936  20.333  42.959   6.662
 3934POPC   C3B50937  20.189  42.946   7.120
 3934POPC   C4B50938  19.846  42.834   7.391
 3935POPC   NC350939   2.047  44.322   5.408
 3935POPC   PO450940   1.963  43.669   5.441
 3935POPC   GL150941   1.881  43.954   5.751
 3935POPC   GL250942   2.219  44.022   5.827
 3935POPC   C1A50943   1.809  44.068   6.175
 3935POPC   D2A50944   1.554  44.094   6.523
 3935POPC   C3A50945   1.690  44.322   6.877
 3935POPC   C4A50946   1.879  44.151   7.248
 3935POPC   C1B50947   2.290  43.979   6.271
 3935POPC   C2B50948   2.021  43.908   6.650
 3935POPC   C3B50949   2.126  43.725   7.025
 3935POPC   C4B50950   2.355  43.948   7.278
 3936POPC   NC350951  13.622  43.436   5.412
 3936POPC   PO450952  13.946  42.850   5.407
 3936POPC   GL150953  13.703  42.885   5.795
 3936POPC   GL250954  13.465  43.133   5.920
 3936POPC   C1A50955  13.846  42.985   6.216
 3936POPC   D2A50956  13.695  43.185   6.579
 3936POPC   C3A50957  13.821  43.097   6.991
 3936POPC   C4A50958  13.516  42.807   7.174
 3936POPC   C1B50959  13.285  43.363   6.325
 3936POPC   C2B50960  13.281  43.397   6.799
 3936POPC   C3B50961  13.420  43.334   7.213
 3936POPC   C4B50962  13.460  43.532   7.598
 3937POPC   NC350963  20.296  36.166   5.675
 3937POPC   PO450964  19.745  36.255   5.399
 3937POPC   GL150965  19.718  35.972   5.747
 3937POPC   GL250966  19.924  36.153   5.995
 3937POPC   C1A50967  19.610  35.843   6.180
 3937POPC   D2A50968  19.873  35.790   6.555
 3937POPC   C3A50969  19.844  36.134   6.847
 3937POPC   C4A50970  19.854  36.132   7.296
 3937POPC   C1B50971  20.140  36.413   6.297
 3937POPC   C2B50972  20.141  36.592   6.713
 3937POPC   C3B50973  20.244  36.367   7.084
 3937POPC   C4B50974  20.143  36.471   7.560
 3938POPC   NC350975  16.368  26.341   5.571
 3938POPC   PO450976  16.753  25.880   5.380
 3938POPC   GL150977  16.697  26.012   5.786
 3938POPC   GL250978  16.997  26.179   5.795
 3938POPC   C1A50979  16.696  25.993   6.219
 3938POPC   D2A50980  16.754  25.802   6.615
 3938POPC   C3A50981  16.712  26.050   6.974
 3938POPC   C4A50982  17.084  26.006   7.223
 3938POPC   C1B50983  17.133  26.268   6.184
 3938POPC   C2B50984  16.948  26.303   6.578
 3938POPC   C3B50985  17.050  26.454   6.977
 3938POPC   C4B50986  17.267  26.477   7.339
 3939POPC   NC350987  36.856  29.245   5.482
 3939POPC   PO450988  36.709  28.616   5.315
 3939POPC   GL150989  36.614  28.909   5.789
 3939POPC   GL250990  36.624  29.309   5.928
 3939POPC   C1A50991  36.840  28.977   6.227
 3939POPC   D2A50992  36.808  29.353   6.493
 3939POPC   C3A50993  36.707  29.234   6.885
 3939POPC   C4A50994  36.756  29.014   7.254
 3939POPC   C1B50995  37.101  29.393   6.066
 3939POPC   C2B50996  37.324  29.379   6.462
 3939POPC   C3B50997  37.211  29.241   6.829
 3939POPC   C4B50998  37.147  29.417   7.182
 3940POPC   NC350999   3.187  23.894   5.419
 3940POPC   PO451000   3.713  23.473   5.384
 3940POPC   GL151001   3.534  23.677   5.748
 3940POPC   GL251002   3.614  24.020   5.751
 3940POPC   C1A51003   3.404  23.635   6.172
 3940POPC   D2A51004   3.369  23.478   6.632
 3940POPC   C3A51005   3.626  23.526   6.996
 3940POPC   C4A51006   3.447  23.556   7.435
 3940POPC   C1B51007   3.736  24.072   6.191
 3940POPC   C2B51008   3.417  24.005   6.527
 3940POPC   C3B51009   3.267  23.914   6.947
 3940POPC   C4B51010   3.618  23.993   7.216
 3941POPC   NC351011  34.668  21.706   5.660
 3941POPC   PO451012  34.368  21.056   5.454
 3941POPC   GL151013  34.408  21.300   5.845
 3941POPC   GL251014  34.680  21.239   5.898
 3941POPC   C1A51015  34.419  21.481   6.256
 3941POPC   D2A51016  34.576  21.372   6.635
 3941POPC   C3A51017  34.441  21.524   7.010
 3941POPC   C4A51018  34.515  21.468   7.444
 3941POPC   C1B51019  34.926  21.319   6.239
 3941POPC   C2B51020  35.041  21.570   6.612
 3941POPC   C3B51021  34.958  21.336   6.985
 3941POPC   C4B51022  34.924  21.125   7.359
 3942POPC   NC351023  29.761  10.808   5.373
 3942POPC   PO451024  29.975  11.488   5.467
 3942POPC   GL151025  29.974  11.152   5.777
 3942POPC   GL251026  29.626  11.145   5.742
 3942POPC   C1A51027  30.153  11.161   6.207
 3942POPC   D2A51028  30.027  11.511   6.501
 3942POPC   C3A51029  29.937  11.425   6.924
 3942POPC   C4A51030  29.865  11.451   7.381
 3942POPC   C1B51031  29.673  11.343   6.148
 3942POPC   C2B51032  29.749  11.103   6.523
 3942POPC   C3B51033  29.577  11.059   6.925
 3942POPC   C4B51034  29.901  10.927   7.200
 3943POPC   NC351035  44.950   3.209   5.547
 3943POPC   PO451036   0.592   3.194   5.390
 3943POPC   GL151037   0.448   3.298   5.810
 3943POPC   GL251038   0.447   3.672   5.875
 3943POPC   C1A51039   0.349   3.311   6.268
 3943POPC   D2A51040   0.574   3.272   6.667
 3943POPC   C3A51041   0.449   3.382   7.047
 3943POPC   C4A51042   0.345   3.589   7.390
 3943POPC   C1B51043   0.652   3.972   6.166
 3943POPC   C2B51044   0.829   3.960   6.544
 3943POPC   C3B51045   0.754   3.758   6.893
 3943POPC   C4B51046   0.783   3.856   7.299
 3944POPC   NC351047   3.595   1.995   5.340
 3944POPC   PO451048   3.033   1.575   5.514
 3944POPC   GL151049   3.348   1.854   5.773
 3944POPC   GL251050   3.722   1.759   5.763
 3944POPC   C1A51051   3.512   2.082   6.157
 3944POPC   D2A51052   3.511   2.070   6.636
 3944POPC   C3A51053   3.519   2.074   7.116
 3944POPC   C4A51054   3.380   1.867   7.503
 3944POPC   C1B51055   3.949   1.816   6.116
 3944POPC   C2B51056   3.853   1.709   6.517
 3944POPC   C3B51057   3.709   1.662   6.916
 3944POPC   C4B51058   3.887   1.759   7.334
 3945POPC   NC351059   2.122  24.956   5.497
 3945POPC   PO451060   1.911  25.581   5.393
 3945POPC   GL151061   2.001  25.455   5.830
 3945POPC   GL251062   2.241  25.210   5.953
 3945POPC   C1A51063   1.802  25.391   6.246
 3945POPC   D2A51064   1.701  25.520   6.691
 3945POPC   C3A51065   1.767  25.364   7.147
 3945POPC   C4A51066   1.748  25.471   7.630
 3945POPC   C1B51067   2.410  24.992   6.317
 3945POPC   C2B51068   2.397  24.920   6.744
 3945POPC   C3B51069   2.279  25.209   7.028
 3945POPC   C4B51070   2.216  25.301   7.435
 3946POPC   NC351071  30.946  20.725   5.512
 3946POPC   PO451072  30.339  20.441   5.495
 3946POPC   GL151073  30.571  20.569   5.899
 3946POPC   GL251074  30.936  20.568   5.994
 3946POPC   C1A51075  30.659  20.342   6.326
 3946POPC   D2A51076  30.782  20.568   6.700
 3946POPC   C3A51077  30.512  20.855   6.943
 3946POPC   C4A51078  30.631  20.541   7.242
 3946POPC   C1B51079  30.731  20.883   6.300
 3946POPC   C2B51080  30.845  21.140   6.650
 3946POPC   C3B51081  31.009  20.903   7.009
 3946POPC   C4B51082  30.927  20.912   7.473
 3947POPC   NC351083   1.043  21.736   5.381
 3947POPC   PO451084   1.315  21.106   5.294
 3947POPC   GL151085   1.302  21.274   5.716
 3947POPC   GL251086   1.031  21.136   5.946
 3947POPC   C1A51087   1.490  21.301   6.112
 3947POPC   D2A51088   1.284  21.189   6.482
 3947POPC   C3A51089   1.387  21.269   6.886
 3947POPC   C4A51090   1.007  21.105   7.100
 3947POPC   C1B51091   1.024  21.529   6.174
 3947POPC   C2B51092   1.169  21.688   6.558
 3947POPC   C3B51093   1.047  21.625   6.969
 3947POPC   C4B51094   1.374  21.754   7.236
 3948POPC   NC351095  11.679  36.087   5.475
 3948POPC   PO451096  12.273  35.988   5.246
 3948POPC   GL151097  12.118  36.111   5.728
 3948POPC   GL251098  11.871  35.831   5.859
 3948POPC   C1A51099  12.028  36.265   6.190
 3948POPC   D2A51100  12.260  36.283   6.582
 3948POPC   C3A51101  12.096  36.376   7.006
 3948POPC   C4A51102  12.066  36.178   7.426
 3948POPC   C1B51103  11.706  35.848   6.270
 3948POPC   C2B51104  11.759  36.043   6.688
 3948POPC   C3B51105  11.757  35.887   7.129
 3948POPC   C4B51106  11.548  36.067   7.492
 3949POPC   NC351107  17.382  20.941   5.503
 3949POPC   PO451108  17.505  21.521   5.428
 3949POPC   GL151109  17.786  21.326   5.736
 3949POPC   GL251110  17.669  21.027   5.939
 3949POPC   C1A51111  17.827  21.653   6.069
 3949POPC   D2A51112  17.685  21.553   6.483
 3949POPC   C3A51113  17.724  21.771   6.862
 3949POPC   C4A51114  17.622  21.517   7.245
 3949POPC   C1B51115  17.397  21.376   6.068
 3949POPC   C2B51116  17.171  21.476   6.420
 3949POPC   C3B51117  17.281  21.493   6.841
 3949POPC   C4B51118  17.128  21.661   7.219
 3950POPC   NC351119  25.296  27.882   5.384
 3950POPC   PO451120  25.259  27.251   5.599
 3950POPC   GL151121  25.353  27.657   5.834
 3950POPC   GL251122  25.087  27.924   5.861
 3950POPC   C1A51123  25.520  27.829   6.240
 3950POPC   D2A51124  25.305  27.774   6.646
 3950POPC   C3A51125  25.462  27.779   7.101
 3950POPC   C4A51126  25.636  27.591   7.498
 3950POPC   C1B51127  25.031  27.623   6.212
 3950POPC   C2B51128  24.970  27.345   6.567
 3950POPC   C3B51129  25.125  27.401   6.975
 3950POPC   C4B51130  25.198  27.423   7.400
 3951POPC   NC351131  26.536  10.848   5.480
 3951POPC   PO451132  26.936  10.315   5.434
 3951POPC   GL151133  26.998  10.469   5.862
 3951POPC   GL251134  26.707  10.697   5.942
 3951POPC   C1A51135  26.882  10.349   6.303
 3951POPC   D2A51136  26.732  10.621   6.619
 3951POPC   C3A51137  26.949  10.579   7.025
 3951POPC   C4A51138  27.085  10.178   7.266
 3951POPC   C1B51139  26.406  10.468   6.191
 3951POPC   C2B51140  26.411  10.165   6.523
 3951POPC   C3B51141  26.468  10.317   6.936
 3951POPC   C4B51142  26.610  10.364   7.328
 3952POPC   NC351143  22.313   0.937   5.491
 3952POPC   PO451144  21.910   1.422   5.250
 3952POPC   GL151145  21.909   1.460   5.751
 3952POPC   GL251146  22.231   1.311   5.822
 3952POPC   C1A51147  22.032   1.424   6.262
 3952POPC   D2A51148  21.836   1.397   6.702
 3952POPC   C3A51149  21.852   1.010   6.986
 3952POPC   C4A51150  21.805   0.988   7.448
 3952POPC   C1B51151  22.146   0.936   6.134
 3952POPC   C2B51152  22.187   1.036   6.574
 3952POPC   C3B51153  22.409   1.294   6.842
 3952POPC   C4B51154  22.207   1.292   7.232
 3953POPC   NC351155   8.406   4.745   5.132
 3953POPC   PO451156   8.518   5.231   5.588
 3953POPC   GL151157   8.129   5.029   5.773
 3953POPC   GL251158   7.906   5.319   5.811
 3953POPC   C1A51159   8.088   4.743   6.146
 3953POPC   D2A51160   8.414   4.680   6.502
 3953POPC   C3A51161   8.211   4.780   6.878
 3953POPC   C4A51162   8.132   5.127   7.173
 3953POPC   C1B51163   7.815   5.467   6.218
 3953POPC   C2B51164   7.913   5.400   6.651
 3953POPC   C3B51165   7.735   5.419   7.051
 3953POPC   C4B51166   7.865   5.411   7.518
 3954POPC   NC351167  25.281  11.018   5.367
 3954POPC   PO451168  25.257  10.345   5.432
 3954POPC   GL151169  25.063  10.382   5.824
 3954POPC   GL251170  24.712  10.271   5.867
 3954POPC   C1A51171  25.320  10.524   6.168
 3954POPC   D2A51172  25.272  10.717   6.546
 3954POPC   C3A51173  25.447  10.521   6.892
 3954POPC   C4A51174  25.416  10.681   7.261
 3954POPC   C1B51175  24.853  10.349   6.298
 3954POPC   C2B51176  25.026  10.307   6.678
 3954POPC   C3B51177  24.935  10.439   7.088
 3954POPC   C4B51178  24.774  10.176   7.414
 3955POPC   NC351179  42.006  44.460   5.800
 3955POPC   PO451180  41.378  44.672   5.416
 3955POPC   GL151181  41.557  44.681   5.813
 3955POPC   GL251182  41.479  44.336   5.860
 3955POPC   C1A51183  41.746  44.903   6.199
 3955POPC   D2A51184  41.565  44.852   6.595
 3955POPC   C3A51185  41.739  44.798   6.981
 3955POPC   C4A51186  41.615   0.056   7.322
 3955POPC   C1B51187  41.527  44.438   6.292
 3955POPC   C2B51188  41.475  44.370   6.719
 3955POPC   C3B51189  41.284  44.601   7.032
 3955POPC   C4B51190  41.351  44.621   7.481
 3956POPC   NC351191   1.376  42.467   5.256
 3956POPC   PO451192   0.803  42.677   5.612
 3956POPC   GL151193   1.250  42.623   5.870
 3956POPC   GL251194   1.581  42.735   5.681
 3956POPC   C1A51195   1.229  42.466   6.308
 3956POPC   D2A51196   0.831  42.484   6.559
 3956POPC   C3A51197   0.851  42.351   6.982
 3956POPC   C4A51198   1.241  42.229   7.177
 3956POPC   C1B51199   1.725  42.669   6.103
 3956POPC   C2B51200   1.727  42.414   6.485
 3956POPC   C3B51201   1.433  42.502   6.808
 3956POPC   C4B51202   1.566  42.616   7.236
 3957POPC   NC351203  38.650   9.654   5.495
 3957POPC   PO451204  38.044   9.441   5.572
 3957POPC   GL151205  38.297   9.637   5.869
 3957POPC   GL251206  38.504   9.331   5.890
 3957POPC   C1A51207  38.310   9.872   6.260
 3957POPC   D2A51208  38.146   9.860   6.694
 3957POPC   C3A51209  38.451   9.949   7.022
 3957POPC   C4A51210  38.514   9.782   7.459
 3957POPC   C1B51211  38.319   9.331   6.301
 3957POPC   C2B51212  38.440   9.386   6.727
 3957POPC   C3B51213  38.248   9.482   7.117
 3957POPC   C4B51214  38.046   9.534   7.546
 3958POPC   NC351215   6.425  44.938   5.609
 3958POPC   PO451216   6.914  44.655   5.210
 3958POPC   GL151217   6.906  44.746   5.731
 3958POPC   GL251218   6.607  44.572   5.903
 3958POPC   C1A51219   6.944  44.746   6.231
 3958POPC   D2A51220   6.969  44.668   6.690
 3958POPC   C3A51221   6.729  44.605   7.062
 3958POPC   C4A51222   6.723  44.840   7.443
 3958POPC   C1B51223   6.340  44.411   6.209
 3958POPC   C2B51224   6.448  44.380   6.631
 3958POPC   C3B51225   6.251  44.392   7.033
 3958POPC   C4B51226   6.376  44.445   7.453
 3959POPC   NC351227   8.732  12.200   5.393
 3959POPC   PO451228   9.272  11.818   5.503
 3959POPC   GL151229   9.075  12.151   5.827
 3959POPC   GL251230   8.766  12.389   5.849
 3959POPC   C1A51231   8.945  12.157   6.285
 3959POPC   D2A51232   8.987  11.883   6.673
 3959POPC   C3A51233   8.680  11.889   7.034
 3959POPC   C4A51234   8.807  12.040   7.454
 3959POPC   C1B51235   8.604  12.557   6.216
 3959POPC   C2B51236   8.756  12.497   6.647
 3959POPC   C3B51237   8.655  12.396   7.061
 3959POPC   C4B51238   8.644  12.537   7.477
 3960POPC   NC351239  14.336  31.998   5.420
 3960POPC   PO451240  14.199  32.596   5.304
 3960POPC   GL151241  14.440  32.430   5.713
 3960POPC   GL251242  14.388  32.066   5.900
 3960POPC   C1A51243  14.651  32.411   6.137
 3960POPC   D2A51244  14.490  32.207   6.509
 3960POPC   C3A51245  14.515  32.492   6.870
 3960POPC   C4A51246  14.597  32.411   7.283
 3960POPC   C1B51247  14.549  31.783   6.199
 3960POPC   C2B51248  14.701  31.758   6.637
 3960POPC   C3B51249  14.687  32.016   6.953
 3960POPC   C4B51250  14.428  31.942   7.311
 3961POPC   NC351251  41.117  18.679   5.615
 3961POPC   PO451252  40.669  18.253   5.254
 3961POPC   GL151253  40.673  18.234   5.722
 3961POPC   GL251254  40.618  18.575   5.767
 3961POPC   C1A51255  40.847  18.032   6.130
 3961POPC   D2A51256  40.887  17.794   6.529
 3961POPC   C3A51257  41.008  17.990   6.939
 3961POPC   C4A51258  40.929  18.288   7.289
 3961POPC   C1B51259  40.837  18.552   6.193
 3961POPC   C2B51260  40.988  18.621   6.617
 3961POPC   C3B51261  40.808  18.686   6.999
 3961POPC   C4B51262  40.641  18.704   7.430
 3962POPC   NC351263   1.033   0.843   5.233
 3962POPC   PO451264   0.884   0.166   5.229
 3962POPC   GL151265   1.134   0.437   5.577
 3962POPC   GL251266   1.321   0.778   5.658
 3962POPC   C1A51267   1.177   0.421   6.050
 3962POPC   D2A51268   1.191   0.620   6.479
 3962POPC   C3A51269   1.217   0.385   6.883
 3962POPC   C4A51270   1.354   0.246   7.288
 3962POPC   C1B51271   1.522   0.816   6.079
 3962POPC   C2B51272   1.483   1.039   6.473
 3962POPC   C3B51273   1.542   0.813   6.873
 3962POPC   C4B51274   1.304   0.782   7.251
 3963POPC   NC351275  38.404  36.622   5.399
 3963POPC   PO451276  38.627  37.328   5.345
 3963POPC   GL151277  38.469  37.052   5.671
 3963POPC   GL251278  38.195  37.182   5.866
 3963POPC   C1A51279  38.454  36.773   6.033
 3963POPC   D2A51280  38.521  36.869   6.441
 3963POPC   C3A51281  38.230  36.767   6.729
 3963POPC   C4A51282  38.346  36.838   7.125
 3963POPC   C1B51283  38.059  37.053   6.280
 3963POPC   C2B51284  38.241  37.289   6.609
 3963POPC   C3B51285  38.421  37.312   7.008
 3963POPC   C4B51286  38.162  37.311   7.328
 3964POPC   NC351287  11.346  10.238   5.522
 3964POPC   PO451288  11.120  10.884   5.666
 3964POPC   GL151289  11.380  10.589   5.883
 3964POPC   GL251290  11.123  10.326   5.950
 3964POPC   C1A51291  11.427  10.555   6.309
 3964POPC   D2A51292  11.081  10.647   6.586
 3964POPC   C3A51293  11.238  10.598   7.002
 3964POPC   C4A51294  11.532  10.586   7.315
 3964POPC   C1B51295  11.057  10.175   6.333
 3964POPC   C2B51296  11.323  10.217   6.689
 3964POPC   C3B51297  11.594  10.161   7.004
 3964POPC   C4B51298  11.460  10.088   7.412
 3965POPC   NC351299  20.871  41.351   5.470
 3965POPC   PO451300  21.492  41.303   5.472
 3965POPC   GL151301  21.335  41.457   5.881
 3965POPC   GL251302  21.477  41.806   5.923
 3965POPC   C1A51303  21.418  41.402   6.348
 3965POPC   D2A51304  21.421  41.199   6.775
 3965POPC   C3A51305  21.383  41.460   7.124
 3965POPC   C4A51306  21.533  41.397   7.546
 3965POPC   C1B51307  21.180  41.855   6.292
 3965POPC   C2B51308  21.177  41.778   6.747
 3965POPC   C3B51309  21.133  41.957   7.166
 3965POPC   C4B51310  21.221  41.810   7.617
 3966POPC   NC351311  36.190  13.504   5.415
 3966POPC   PO451312  36.625  14.055   5.510
 3966POPC   GL151313  36.442  13.739   5.838
 3966POPC   GL251314  36.327  13.359   5.876
 3966POPC   C1A51315  36.212  13.685   6.247
 3966POPC   D2A51316  35.958  13.916   6.526
 3966POPC   C3A51317  36.089  13.800   6.949
 3966POPC   C4A51318  36.354  13.665   7.281
 3966POPC   C1B51319  35.860  13.365   6.056
 3966POPC   C2B51320  35.747  13.448   6.503
 3966POPC   C3B51321  35.656  13.452   6.936
 3966POPC   C4B51322  35.941  13.365   7.264
 3967POPC   NC351323  15.964  17.893   5.433
 3967POPC   PO451324  15.562  17.321   5.403
 3967POPC   GL151325  15.768  17.457   5.770
 3967POPC   GL251326  15.625  17.803   5.805
 3967POPC   C1A51327  16.147  17.283   6.009
 3967POPC   D2A51328  16.216  17.105   6.441
 3967POPC   C3A51329  15.962  17.310   6.764
 3967POPC   C4A51330  15.948  17.469   7.179
 3967POPC   C1B51331  15.995  17.769   6.111
 3967POPC   C2B51332  16.018  17.783   6.555
 3967POPC   C3B51333  15.874  17.924   6.955
 3967POPC   C4B51334  16.123  17.966   7.323
 3968POPC   NC351335   4.956  25.783   5.585
 3968POPC   PO451336   5.289  26.352   5.420
 3968POPC   GL151337   5.068  26.287   5.789
 3968POPC   GL251338   5.312  26.027   5.882
 3968POPC   C1A51339   4.987  26.267   6.242
 3968POPC   D2A51340   5.133  26.183   6.664
 3968POPC   C3A51341   4.868  26.322   7.020
 3968POPC   C4A51342   4.777  26.205   7.460
 3968POPC   C1B51343   5.383  25.830   6.279
 3968POPC   C2B51344   5.638  25.813   6.646
 3968POPC   C3B51345   5.461  25.986   7.014
 3968POPC   C4B51346   5.081  25.864   7.149
 3969POPC   NC351347  33.350  20.264   5.438
 3969POPC   PO451348  32.889  19.759   5.254
 3969POPC   GL151349  32.947  20.006   5.704
 3969POPC   GL251350  33.294  19.947   5.861
 3969POPC   C1A51351  32.894  20.037   6.199
 3969POPC   D2A51352  32.957  19.872   6.649
 3969POPC   C3A51353  32.835  20.056   7.066
 3969POPC   C4A51354  32.957  19.890   7.475
 3969POPC   C1B51355  33.290  19.707   6.269
 3969POPC   C2B51356  33.445  19.671   6.697
 3969POPC   C3B51357  33.153  19.606   7.082
 3969POPC   C4B51358  33.254  19.470   7.529
 3970POPC   NC351359  40.011   8.964   5.439
 3970POPC   PO451360  40.625   9.110   5.275
 3970POPC   GL151361  40.422   8.982   5.735
 3970POPC   GL251362  40.126   9.273   5.829
 3970POPC   C1A51363  40.175   8.906   6.164
 3970POPC   D2A51364  39.879   8.882   6.534
 3970POPC   C3A51365  40.080   8.927   6.934
 3970POPC   C4A51366  40.324   9.317   6.966
 3970POPC   C1B51367  39.792   9.270   6.162
 3970POPC   C2B51368  39.646   9.468   6.546
 3970POPC   C3B51369  39.752   9.316   6.956
 3970POPC   C4B51370  39.628   8.979   7.226
 3971POPC   NC351371  42.496  42.719   5.670
 3971POPC   PO451372  42.380  43.399   5.459
 3971POPC   GL151373  42.276  43.175   5.895
 3971POPC   GL251374  42.117  42.820   5.977
 3971POPC   C1A51375  42.272  43.163   6.372
 3971POPC   D2A51376  42.521  43.168   6.773
 3971POPC   C3A51377  42.308  43.077   7.187
 3971POPC   C4A51378  42.121  43.338   7.538
 3971POPC   C1B51379  42.394  42.650   6.288
 3971POPC   C2B51380  42.346  42.681   6.694
 3971POPC   C3B51381  42.551  42.626   7.026
 3971POPC   C4B51382  42.562  42.660   7.445
 3972POPC   NC351383  24.237  11.914   5.380
 3972POPC   PO451384  23.609  12.064   5.485
 3972POPC   GL151385  23.846  12.053   5.846
 3972POPC   GL251386  23.848  11.713   5.976
 3972POPC   C1A51387  23.592  12.165   6.208
 3972POPC   D2A51388  23.457  11.895   6.555
 3972POPC   C3A51389  23.468  12.027   6.959
 3972POPC   C4A51390  23.680  12.365   7.105
 3972POPC   C1B51391  24.026  11.968   6.337
 3972POPC   C2B51392  23.954  11.974   6.785
 3972POPC   C3B51393  23.941  11.915   7.228
 3972POPC   C4B51394  23.924  11.829   7.691
 3973POPC   NC351395  21.137  14.063   5.326
 3973POPC   PO451396  21.439  14.625   5.391
 3973POPC   GL151397  21.333  14.490   5.745
 3973POPC   GL251398  21.298  14.163   5.791
 3973POPC   C1A51399  21.338  14.555   6.161
 3973POPC   D2A51400  21.525  14.305   6.428
 3973POPC   C3A51401  21.386  14.425   6.793
 3973POPC   C4A51402  21.391  14.381   7.198
 3973POPC   C1B51403  21.132  14.063   6.189
 3973POPC   C2B51404  21.229  13.939   6.622
 3973POPC   C3B51405  21.033  14.039   7.028
 3973POPC   C4B51406  21.124  14.071   7.491
 3974POPC   NC351407  10.462  34.774   5.408
 3974POPC   PO451408   9.810  35.028   5.447
 3974POPC   GL151409  10.177  34.871   5.818
 3974POPC   GL251410  10.392  34.522   5.833
 3974POPC   C1A51411  10.253  34.695   6.273
 3974POPC   D2A51412  10.529  34.670   6.629
 3974POPC   C3A51413  10.360  34.741   7.053
 3974POPC   C4A51414  10.411  34.843   7.505
 3974POPC   C1B51415  10.668  34.362   6.170
 3974POPC   C2B51416  10.632  34.168   6.590
 3974POPC   C3B51417  10.651  34.319   7.003
 3974POPC   C4B51418  10.576  34.197   7.412
 3975POPC   NC351419  23.701   5.202   5.363
 3975POPC   PO451420  23.281   4.744   5.429
 3975POPC   GL151421  23.628   4.793   5.714
 3975POPC   GL251422  23.664   5.140   5.855
 3975POPC   C1A51423  23.734   4.757   6.162
 3975POPC   D2A51424  23.743   5.058   6.534
 3975POPC   C3A51425  23.473   5.076   6.859
 3975POPC   C4A51426  23.533   5.365   7.189
 3975POPC   C1B51427  23.779   5.421   6.161
 3975POPC   C2B51428  23.868   5.580   6.570
 3975POPC   C3B51429  24.018   5.711   6.956
 3975POPC   C4B51430  24.008   5.472   7.325
 3976POPC   NC351431  12.623  20.877   5.558
 3976POPC   PO451432  13.118  20.494   5.302
 3976POPC   GL151433  12.952  20.429   5.677
 3976POPC   GL251434  13.193  20.187   5.746
 3976POPC   C1A51435  12.734  20.479   6.058
 3976POPC   D2A51436  12.794  20.388   6.492
 3976POPC   C3A51437  12.554  20.362   6.830
 3976POPC   C4A51438  12.687  20.463   7.223
 3976POPC   C1B51439  13.160  20.233   6.168
 3976POPC   C2B51440  13.274  20.216   6.597
 3976POPC   C3B51441  13.176  20.402   7.011
 3976POPC   C4B51442  13.195  20.278   7.448
 3977POPC   NC351443  39.410  26.916   5.330
 3977POPC   PO451444  38.746  27.011   5.221
 3977POPC   GL151445  39.006  27.032   5.674
 3977POPC   GL251446  39.238  26.762   5.820
 3977POPC   C1A51447  39.151  27.154   6.146
 3977POPC   D2A51448  39.011  27.003   6.595
 3977POPC   C3A51449  39.202  27.145   7.029
 3977POPC   C4A51450  39.168  27.034   7.481
 3977POPC   C1B51451  39.338  26.690   6.295
 3977POPC   C2B51452  39.311  26.590   6.756
 3977POPC   C3B51453  39.382  26.648   7.214
 3977POPC   C4B51454  39.530  26.728   7.664
 3978POPC   NC351455  23.891   7.514   4.885
 3978POPC   PO451456  23.698   7.265   5.452
 3978POPC   GL151457  23.678   7.188   5.866
 3978POPC   GL251458  24.023   7.225   5.963
 3978POPC   C1A51459  23.513   7.388   6.199
 3978POPC   D2A51460  23.675   7.469   6.551
 3978POPC   C3A51461  23.445   7.438   6.913
 3978POPC   C4A51462  23.648   7.331   7.269
 3978POPC   C1B51463  23.988   7.659   6.119
 3978POPC   C2B51464  24.006   7.849   6.531
 3978POPC   C3B51465  23.949   7.666   6.934
 3978POPC   C4B51466  24.014   7.668   7.362
 3979POPC   NC351467  38.701  18.655   5.596
 3979POPC   PO451468  38.223  18.266   5.628
 3979POPC   GL151469  38.446  18.396   5.996
 3979POPC   GL251470  38.617  18.687   6.073
 3979POPC   C1A51471  38.489  18.392   6.467
 3979POPC   D2A51472  38.590  18.056   6.762
 3979POPC   C3A51473  38.652  18.221   7.147
 3979POPC   C4A51474  38.403  18.519   7.361
 3979POPC   C1B51475  38.968  18.500   6.284
 3979POPC   C2B51476  38.957  18.460   6.729
 3979POPC   C3B51477  38.850  18.671   7.104
 3979POPC   C4B51478  38.890  18.568   7.525
 3980POPC   NC351479  29.412  27.216   5.492
 3980POPC   PO451480  28.974  26.680   5.353
 3980POPC   GL151481  29.085  26.757   5.770
 3980POPC   GL251482  29.034  26.440   5.958
 3980POPC   C1A51483  29.191  26.966   6.163
 3980POPC   D2A51484  29.111  26.769   6.549
 3980POPC   C3A51485  29.055  27.039   6.901
 3980POPC   C4A51486  29.142  26.794   7.253
 3980POPC   C1B51487  29.482  26.544   6.075
 3980POPC   C2B51488  29.647  26.694   6.473
 3980POPC   C3B51489  29.523  26.771   6.904
 3980POPC   C4B51490  29.534  26.471   7.250
 3981POPC   NC351491  34.558   3.245   5.211
 3981POPC   PO451492  34.355   3.756   5.346
 3981POPC   GL151493  34.449   3.483   5.688
 3981POPC   GL251494  34.187   3.452   5.921
 3981POPC   C1A51495  34.706   3.468   6.080
 3981POPC   D2A51496  34.776   3.594   6.534
 3981POPC   C3A51497  34.816   3.288   6.869
 3981POPC   C4A51498  34.719   3.160   7.291
 3981POPC   C1B51499  34.269   3.428   6.359
 3981POPC   C2B51500  34.317   3.452   6.796
 3981POPC   C3B51501  34.471   3.580   7.168
 3981POPC   C4B51502  34.706   3.898   7.113
 3982POPC   NC351503  35.722  18.225   5.544
 3982POPC   PO451504  36.302  18.154   5.189
 3982POPC   GL151505  36.205  18.138   5.661
 3982POPC   GL251506  36.065  18.467   5.843
 3982POPC   C1A51507  36.277  18.060   6.129
 3982POPC   D2A51508  36.062  18.160   6.542
 3982POPC   C3A51509  36.327  18.163   6.932
 3982POPC   C4A51510  36.189  18.176   7.367
 3982POPC   C1B51511  36.266  18.554   6.257
 3982POPC   C2B51512  36.181  18.667   6.691
 3982POPC   C3B51513  35.971  18.518   7.068
 3982POPC   C4B51514  36.025  18.616   7.529
 3983POPC   NC351515  36.312  19.786   5.356
 3983POPC   PO451516  35.647  19.675   5.562
 3983POPC   GL151517  36.024  19.507   5.779
 3983POPC   GL251518  36.325  19.735   5.884
 3983POPC   C1A51519  36.015  19.483   6.231
 3983POPC   D2A51520  35.911  19.593   6.643
 3983POPC   C3A51521  36.174  19.916   6.787
 3983POPC   C4A51522  36.159  19.856   7.206
 3983POPC   C1B51523  36.046  20.010   6.180
 3983POPC   C2B51524  35.776  20.175   6.528
 3983POPC   C3B51525  35.749  20.124   6.977
 3983POPC   C4B51526  35.806  20.229   7.419
 3984POPC   NC351527  15.061  27.578   5.352
 3984POPC   PO451528  14.670  27.095   5.588
 3984POPC   GL151529  14.998  27.234   5.891
 3984POPC   GL251530  15.256  27.471   5.813
 3984POPC   C1A51531  15.228  27.263   6.305
 3984POPC   D2A51532  15.008  27.181   6.703
 3984POPC   C3A51533  15.152  27.346   7.081
 3984POPC   C4A51534  15.056  27.742   7.237
 3984POPC   C1B51535  15.063  27.713   6.154
 3984POPC   C2B51536  15.125  27.669   6.631
 3984POPC   C3B51537  15.435  27.863   6.935
 3984POPC   C4B51538  15.516  28.181   7.282
 3985POPC   NC351539  34.697  41.243   5.505
 3985POPC   PO451540  34.379  41.691   5.092
 3985POPC   GL151541  34.370  41.591   5.658
 3985POPC   GL251542  34.206  41.340   5.863
 3985POPC   C1A51543  34.541  41.663   6.102
 3985POPC   D2A51544  34.379  41.656   6.547
 3985POPC   C3A51545  34.583  41.629   6.931
 3985POPC   C4A51546  34.469  41.662   7.337
 3985POPC   C1B51547  34.382  41.210   6.292
 3985POPC   C2B51548  34.748  41.256   6.599
 3985POPC   C3B51549  34.815  41.137   7.029
 3985POPC   C4B51550  34.503  41.158   7.345
 3986POPC   NC351551  27.390  38.786   5.417
 3986POPC   PO451552  27.460  39.493   5.419
 3986POPC   GL151553  27.541  39.376   5.857
 3986POPC   GL251554  27.565  39.059   5.826
 3986POPC   C1A51555  27.349  39.223   6.248
 3986POPC   D2A51556  27.312  38.929   6.627
 3986POPC   C3A51557  27.303  39.108   7.064
 3986POPC   C4A51558  27.556  39.234   7.431
 3986POPC   C1B51559  27.856  39.138   6.177
 3986POPC   C2B51560  27.718  39.246   6.595
 3986POPC   C3B51561  27.814  39.061   6.986
 3986POPC   C4B51562  28.027  39.011   7.364
 3987POPC   NC351563   0.926  22.637   5.480
 3987POPC   PO451564   1.688  22.627   5.358
 3987POPC   GL151565   1.425  22.254   5.586
 3987POPC   GL251566   1.120  22.250   5.755
 3987POPC   C1A51567   1.489  22.063   6.043
 3987POPC   D2A51568   1.308  22.199   6.475
 3987POPC   C3A51569   1.505  22.044   6.851
 3987POPC   C4A51570   1.677  22.191   7.245
 3987POPC   C1B51571   0.978  22.039   6.118
 3987POPC   C2B51572   0.805  22.038   6.542
 3987POPC   C3B51573   1.023  22.129   6.932
 3987POPC   C4B51574   0.884  21.963   7.301
 3988POPC   NC351575  14.612  12.078   5.256
 3988POPC   PO451576  14.117  11.581   5.458
 3988POPC   GL151577  14.242  12.008   5.662
 3988POPC   GL251578  14.602  11.998   5.759
 3988POPC   C1A51579  14.286  12.174   6.115
 3988POPC   D2A51580  14.441  11.947   6.488
 3988POPC   C3A51581  14.412  12.113   6.903
 3988POPC   C4A51582  14.264  11.896   7.259
 3988POPC   C1B51583  14.838  11.945   6.149
 3988POPC   C2B51584  14.937  11.780   6.566
 3988POPC   C3B51585  14.800  11.786   7.012
 3988POPC   C4B51586  14.722  12.107   7.344
 3989POPC   NC351587  31.904  12.451   5.091
 3989POPC   PO451588  32.233  11.923   5.432
 3989POPC   GL151589  32.438  12.103   5.763
 3989POPC   GL251590  32.146  12.041   5.965
 3989POPC   C1A51591  32.571  12.149   6.192
 3989POPC   D2A51592  32.227  12.191   6.485
 3989POPC   C3A51593  32.274  12.223   6.911
 3989POPC   C4A51594  32.423  12.169   7.312
 3989POPC   C1B51595  31.892  11.713   6.144
 3989POPC   C2B51596  31.731  11.689   6.553
 3989POPC   C3B51597  31.861  11.903   6.901
 3989POPC   C4B51598  32.105  11.790   7.226
 3990POPC   NC351599  19.374  26.137   5.585
 3990POPC   PO451600  20.092  26.153   5.394
 3990POPC   GL151601  19.832  25.932   5.728
 3990POPC   GL251602  19.719  25.581   5.757
 3990POPC   C1A51603  19.706  26.045   6.145
 3990POPC   D2A51604  19.830  26.217   6.517
 3990POPC   C3A51605  19.517  26.186   6.853
 3990POPC   C4A51606  19.579  26.046   7.268
 3990POPC   C1B51607  19.973  25.596   6.150
 3990POPC   C2B51608  20.102  25.759   6.551
 3990POPC   C3B51609  19.966  25.915   6.945
 3990POPC   C4B51610  19.979  25.725   7.351
 3991POPC   NC351611  44.875  44.126   5.360
 3991POPC   PO451612  44.402  44.594   5.440
 3991POPC   GL151613  44.649  44.612   5.834
 3991POPC   GL251614  44.376  44.825   5.988
 3991POPC   C1A51615  44.829  44.855   6.208
 3991POPC   D2A51616  44.484  44.949   6.518
 3991POPC   C3A51617  44.439  44.687   6.880
 3991POPC   C4A51618  44.753  44.600   7.176
 3991POPC   C1B51619  44.485  44.497   6.306
 3991POPC   C2B51620  44.316  44.232   6.580
 3991POPC   C3B51621  44.472  44.163   6.954
 3991POPC   C4B51622  44.397  44.267   7.357
 3992POPC   NC351623   5.075  36.732   5.412
 3992POPC   PO451624   5.633  37.070   5.595
 3992POPC   GL151625   5.308  36.960   5.890
 3992POPC   GL251626   4.945  36.991   5.844
 3992POPC   C1A51627   5.246  37.061   6.321
 3992POPC   D2A51628   5.117  36.932   6.709
 3992POPC   C3A51629   5.333  36.839   7.084
 3992POPC   C4A51630   5.198  36.960   7.479
 3992POPC   C1B51631   4.773  36.849   6.242
 3992POPC   C2B51632   4.704  36.650   6.628
 3992POPC   C3B51633   4.735  36.780   7.043
 3992POPC   C4B51634   4.658  36.759   7.467
 3993POPC   NC351635  39.747   1.475   5.441
 3993POPC   PO451636  40.247   1.018   5.437
 3993POPC   GL151637  39.974   0.957   5.756
 3993POPC   GL251638  39.867   1.301   5.899
 3993POPC   C1A51639  39.795   0.853   6.133
 3993POPC   D2A51640  39.767   1.175   6.454
 3993POPC   C3A51641  39.957   1.087   6.863
 3993POPC   C4A51642  40.094   1.215   7.296
 3993POPC   C1B51643  40.123   1.554   6.174
 3993POPC   C2B51644  40.215   1.462   6.565
 3993POPC   C3B51645  40.119   1.587   6.937
 3993POPC   C4B51646  40.375   1.682   7.283
 3994POPC   NC351647   3.552  30.929   5.510
 3994POPC   PO451648   3.337  30.415   5.295
 3994POPC   GL151649   3.482  30.487   5.725
 3994POPC   GL251650   3.248  30.727   5.898
 3994POPC   C1A51651   3.698  30.405   6.100
 3994POPC   D2A51652   3.529  30.244   6.462
 3994POPC   C3A51653   3.671  30.436   6.862
 3994POPC   C4A51654   3.641  30.581   7.271
 3994POPC   C1B51655   3.000  30.593   6.277
 3994POPC   C2B51656   3.179  30.539   6.696
 3994POPC   C3B51657   3.375  30.883   6.932
 3994POPC   C4B51658   3.625  31.161   7.167
 3995POPC   NC351659  40.726  40.997   5.284
 3995POPC   PO451660  40.820  40.433   5.667
 3995POPC   GL151661  40.614  40.805   5.845
 3995POPC   GL251662  40.618  41.181   5.745
 3995POPC   C1A51663  40.617  40.732   6.291
 3995POPC   D2A51664  40.762  40.460   6.614
 3995POPC   C3A51665  40.985  40.662   6.914
 3995POPC   C4A51666  40.829  40.758   7.286
 3995POPC   C1B51667  40.743  41.220   6.178
 3995POPC   C2B51668  40.722  41.107   6.631
 3995POPC   C3B51669  41.007  41.204   6.939
 3995POPC   C4B51670  41.119  41.150   7.356
 3996POPC   NC351671  40.485  12.422   5.530
 3996POPC   PO451672  40.728  11.745   5.442
 3996POPC   GL151673  40.711  12.008   5.831
 3996POPC   GL251674  40.835  12.343   5.930
 3996POPC   C1A51675  40.751  11.861   6.268
 3996POPC   D2A51676  40.662  12.003   6.676
 3996POPC   C3A51677  41.010  12.139   6.917
 3996POPC   C4A51678  40.953  11.919   7.292
 3996POPC   C1B51679  40.488  12.299   6.254
 3996POPC   C2B51680  40.447  12.449   6.689
 3996POPC   C3B51681  40.582  12.318   7.120
 3996POPC   C4B51682  40.658  12.257   7.552
 3997POPC   NC351683  21.492  44.846   5.331
 3997POPC   PO451684  20.990  44.412   5.304
 3997POPC   GL151685  21.280  44.482   5.679
 3997POPC   GL251686  21.634  44.607   5.813
 3997POPC   C1A51687  21.237  44.530   6.146
 3997POPC   D2A51688  21.473  44.547   6.532
 3997POPC   C3A51689  21.329  44.541   6.914
 3997POPC   C4A51690  21.309  44.641   7.307
 3997POPC   C1B51691  21.580  44.918   6.218
 3997POPC   C2B51692  21.604   0.032   6.686
 3997POPC   C3B51693  21.667   0.026   7.166
 3997POPC   C4B51694  21.637  44.858   7.623
 3998POPC   NC351695  28.123  42.221   5.685
 3998POPC   PO451696  28.699  41.894   5.540
 3998POPC   GL151697  28.574  42.108   5.912
 3998POPC   GL251698  28.577  42.473   5.890
 3998POPC   C1A51699  28.422  42.225   6.321
 3998POPC   D2A51700  28.095  42.163   6.585
 3998POPC   C3A51701  28.208  41.982   6.981
 3998POPC   C4A51702  28.297  42.250   7.341
 3998POPC   C1B51703  28.436  42.733   6.234
 3998POPC   C2B51704  28.282  42.666   6.634
 3998POPC   C3B51705  28.536  42.787   6.974
 3998POPC   C4B51706  28.689  42.699   7.394
 3999POPC   NC351707  14.140   8.566   5.406
 3999POPC   PO451708  14.280   7.973   5.261
 3999POPC   GL151709  14.407   8.186   5.648
 3999POPC   GL251710  14.062   8.179   5.756
 3999POPC   C1A51711  14.465   8.090   6.089
 3999POPC   D2A51712  14.261   7.920   6.483
 3999POPC   C3A51713  14.349   8.096   6.853
 3999POPC   C4A51714  14.297   8.055   7.277
 3999POPC   C1B51715  13.977   8.210   6.209
 3999POPC   C2B51716  13.920   8.335   6.632
 3999POPC   C3B51717  14.092   8.517   7.009
 3999POPC   C4B51718  13.992   8.426   7.438
 4000POPC   NC351719  10.839  37.066   5.303
 4000POPC   PO451720  10.173  36.955   5.477
 4000POPC   GL151721  10.321  36.785   5.831
 4000POPC   GL251722  10.653  36.662   5.696
 4000POPC   C1A51723  10.289  37.062   6.206
 4000POPC   D2A51724  10.436  37.140   6.617
 4000POPC   C3A51725  10.451  36.775   6.882
 4000POPC   C4A51726  10.438  36.803   7.307
 4000POPC   C1B51727  10.771  37.009   5.953
 4000POPC   C2B51728  10.880  37.117   6.347
 4000POPC   C3B51729  10.904  37.053   6.779
 4000POPC   C4B51730  10.965  37.079   7.218
 4001POPC   NC351731  29.857   0.929   5.360
 4001POPC   PO451732  29.782   0.180   5.139
 4001POPC   GL151733  29.752   0.346   5.624
 4001POPC   GL251734  29.770   0.690   5.789
 4001POPC   C1A51735  29.926   0.334   6.096
 4001POPC   D2A51736  29.996   0.606   6.483
 4001POPC   C3A51737  30.152   0.352   6.806
 4001POPC   C4A51738  29.979   0.216   7.158
 4001POPC   C1B51739  29.592   0.739   6.188
 4001POPC   C2B51740  29.512   0.746   6.624
 4001POPC   C3B51741  29.720   0.604   6.978
 4001POPC   C4B51742  29.651   0.474   7.427
 4002POPC   NC351743  10.153  33.094   5.517
 4002POPC   PO451744  10.707  32.694   5.450
 4002POPC   GL151745  10.590  32.917   5.828
 4002POPC   GL251746  10.418  33.224   5.933
 4002POPC   C1A51747  10.632  32.859   6.275
 4002POPC   D2A51748  10.765  32.700   6.678
 4002POPC   C3A51749  10.553  32.963   6.966
 4002POPC   C4A51750  10.385  33.403   6.991
 4002POPC   C1B51751  10.849  33.309   6.063
 4002POPC   C2B51752  11.040  33.139   6.442
 4002POPC   C3B51753  10.934  33.310   6.836
 4002POPC   C4B51754  10.837  33.296   7.247
 4003POPC   NC351755  13.522   5.756   5.308
 4003POPC   PO451756  13.878   6.267   5.537
 4003POPC   GL151757  13.570   6.056   5.828
 4003POPC   GL251758  13.467   5.708   5.800
 4003POPC   C1A51759  13.407   6.083   6.259
 4003POPC   D2A51760  13.492   5.814   6.653
 4003POPC   C3A51761  13.659   6.024   7.044
 4003POPC   C4A51762  13.968   6.369   7.088
 4003POPC   C1B51763  13.569   5.583   6.187
 4003POPC   C2B51764  13.860   5.467   6.511
 4003POPC   C3B51765  13.810   5.525   6.934
 4003POPC   C4B51766  13.483   5.583   7.237
 4004POPC   NC351767   5.296   5.488   5.580
 4004POPC   PO451768   5.540   4.894   5.254
 4004POPC   GL151769   5.345   4.875   5.756
 4004POPC   GL251770   5.052   5.099   5.831
 4004POPC   C1A51771   5.394   5.026   6.231
 4004POPC   D2A51772   5.381   5.166   6.691
 4004POPC   C3A51773   5.390   4.940   7.105
 4004POPC   C4A51774   5.302   5.153   7.510
 4004POPC   C1B51775   4.871   5.193   6.258
 4004POPC   C2B51776   4.871   5.060   6.708
 4004POPC   C3B51777   4.945   5.172   7.156
 4004POPC   C4B51778   4.865   5.420   7.567
 4005POPC   NC351779  36.227  26.528   5.441
 4005POPC   PO451780  36.224  27.146   5.308
 4005POPC   GL151781  36.182  26.965   5.739
 4005POPC   GL251782  36.492  26.871   5.735
 4005POPC   C1A51783  35.989  26.879   6.179
 4005POPC   D2A51784  36.007  26.545   6.519
 4005POPC   C3A51785  35.830  26.566   6.945
 4005POPC   C4A51786  36.049  26.496   7.285
 4005POPC   C1B51787  36.576  27.044   6.154
 4005POPC   C2B51788  36.351  26.998   6.557
 4005POPC   C3B51789  36.382  26.840   6.993
 4005POPC   C4B51790  36.456  26.837   7.449
 4006POPC   NC351791  40.731  30.918   5.358
 4006POPC   PO451792  40.626  30.233   5.484
 4006POPC   GL151793  40.754  30.576   5.769
 4006POPC   GL251794  40.625  30.928   5.854
 4006POPC   C1A51795  40.774  30.597   6.215
 4006POPC   D2A51796  40.584  30.655   6.600
 4006POPC   C3A51797  40.860  30.568   6.921
 4006POPC   C4A51798  40.692  30.289   7.215
 4006POPC   C1B51799  40.664  31.130   6.290
 4006POPC   C2B51800  40.870  31.091   6.706
 4006POPC   C3B51801  40.827  31.025   7.178
 4006POPC   C4B51802  40.558  31.058   7.569
 4007POPC   NC351803   6.497   2.631   5.338
 4007POPC   PO451804   6.993   3.015   5.254
 4007POPC   GL151805   6.836   2.981   5.702
 4007POPC   GL251806   6.452   2.976   5.753
 4007POPC   C1A51807   6.720   2.720   6.086
 4007POPC   D2A51808   6.634   2.796   6.502
 4007POPC   C3A51809   6.833   2.673   6.870
 4007POPC   C4A51810   6.616   2.477   7.197
 4007POPC   C1B51811   6.255   2.966   6.178
 4007POPC   C2B51812   6.174   2.979   6.635
 4007POPC   C3B51813   6.426   2.961   6.996
 4007POPC   C4B51814   6.352   2.850   7.422
 4008POPC   NC351815  30.456  31.544   5.457
 4008POPC   PO451816  30.970  31.166   5.803
 4008POPC   GL151817  30.615  31.393   5.920
 4008POPC   GL251818  30.800  31.696   5.798
 4008POPC   C1A51819  30.414  31.514   6.322
 4008POPC   D2A51820  30.402  31.349   6.754
 4008POPC   C3A51821  30.713  31.091   6.912
 4008POPC   C4A51822  30.992  31.161   7.201
 4008POPC   C1B51823  30.862  31.735   6.215
 4008POPC   C2B51824  30.894  31.483   6.595
 4008POPC   C3B51825  30.811  31.596   7.019
 4008POPC   C4B51826  31.068  31.715   7.362
 4009POPC   NC351827  33.640  37.991   5.482
 4009POPC   PO451828  34.227  37.744   5.397
 4009POPC   GL151829  33.997  37.676   5.790
 4009POPC   GL251830  33.627  37.698   5.890
 4009POPC   C1A51831  33.977  37.896   6.184
 4009POPC   D2A51832  33.821  37.951   6.578
 4009POPC   C3A51833  33.714  37.586   6.815
 4009POPC   C4A51834  33.790  37.615   7.258
 4009POPC   C1B51835  33.460  37.997   6.172
 4009POPC   C2B51836  33.317  37.939   6.582
 4009POPC   C3B51837  33.490  38.010   6.980
 4009POPC   C4B51838  33.359  37.913   7.374
 4010POPC   NC351839  42.297   7.283   5.239
 4010POPC   PO451840  42.513   7.863   5.275
 4010POPC   GL151841  42.514   7.558   5.625
 4010POPC   GL251842  42.167   7.473   5.742
 4010POPC   C1A51843  42.569   7.364   6.060
 4010POPC   D2A51844  42.388   7.448   6.482
 4010POPC   C3A51845  42.478   7.221   6.856
 4010POPC   C4A51846  42.677   7.451   7.179
 4010POPC   C1B51847  42.034   7.242   6.150
 4010POPC   C2B51848  41.933   7.261   6.628
 4010POPC   C3B51849  42.058   7.436   7.055
 4010POPC   C4B51850  41.875   7.549   7.454
 4011POPC   NC351851  15.317   4.745   5.118
 4011POPC   PO451852  14.932   5.124   5.554
 4011POPC   GL151853  15.200   5.065   5.851
 4011POPC   GL251854  15.381   4.743   5.769
 4011POPC   C1A51855  15.040   4.944   6.247
 4011POPC   D2A51856  14.912   4.720   6.568
 4011POPC   C3A51857  15.013   4.799   6.990
 4011POPC   C4A51858  14.805   5.005   7.329
 4011POPC   C1B51859  15.542   4.889   6.187
 4011POPC   C2B51860  15.419   4.823   6.603
 4011POPC   C3B51861  15.511   4.907   7.034
 4011POPC   C4B51862  15.311   4.992   7.409
 4012POPC   NC351863   8.502   5.677   5.481
 4012POPC   PO451864   8.034   6.111   5.503
 4012POPC   GL151865   8.158   5.791   5.835
 4012POPC   GL251866   8.355   6.051   5.960
 4012POPC   C1A51867   8.273   5.681   6.306
 4012POPC   D2A51868   8.171   5.871   6.708
 4012POPC   C3A51869   8.178   5.657   7.130
 4012POPC   C4A51870   8.394   5.830   7.487
 4012POPC   C1B51871   7.891   6.001   6.196
 4012POPC   C2B51872   7.670   5.849   6.565
 4012POPC   C3B51873   7.745   5.930   7.003
 4012POPC   C4B51874   7.889   6.317   7.188
 4013POPC   NC351875  22.839  18.412   5.380
 4013POPC   PO451876  22.305  18.256   5.366
 4013POPC   GL151877  22.263  18.235   5.816
 4013POPC   GL251878  22.586  18.108   5.919
 4013POPC   C1A51879  22.306  18.361   6.276
 4013POPC   D2A51880  22.118  18.163   6.656
 4013POPC   C3A51881  22.264  18.274   7.088
 4013POPC   C4A51882  22.347  18.472   7.514
 4013POPC   C1B51883  22.505  17.895   6.357
 4013POPC   C2B51884  22.644  18.089   6.767
 4013POPC   C3B51885  22.725  18.077   7.229
 4013POPC   C4B51886  22.782  18.211   7.679
 4014POPC   NC351887  32.548  23.000   5.407
 4014POPC   PO451888  31.903  22.788   5.431
 4014POPC   GL151889  32.262  22.670   5.741
 4014POPC   GL251890  32.640  22.755   5.831
 4014POPC   C1A51891  32.290  22.739   6.213
 4014POPC   D2A51892  32.372  22.725   6.656
 4014POPC   C3A51893  32.163  23.003   6.912
 4014POPC   C4A51894  32.170  22.832   7.298
 4014POPC   C1B51895  32.712  23.010   6.249
 4014POPC   C2B51896  32.488  23.236   6.561
 4014POPC   C3B51897  32.545  23.400   6.949
 4014POPC   C4B51898  32.630  23.150   7.290
 4015POPC   NC351899  18.971  19.486   5.423
 4015POPC   PO451900  19.384  20.102   5.413
 4015POPC   GL151901  19.085  20.056   5.764
 4015POPC   GL251902  18.989  19.704   5.898
 4015POPC   C1A51903  19.153  20.114   6.213
 4015POPC   D2A51904  19.079  19.857   6.581
 4015POPC   C3A51905  18.946  19.965   7.011
 4015POPC   C4A51906  18.645  20.062   7.331
 4015POPC   C1B51907  19.242  19.397   6.137
 4015POPC   C2B51908  19.334  19.406   6.555
 4015POPC   C3B51909  19.147  19.445   6.897
 4015POPC   C4B51910  19.168  19.584   7.281
 4016POPC   NC351911  42.532   4.177   5.424
 4016POPC   PO451912  42.292   4.740   5.396
 4016POPC   GL151913  42.173   4.453   5.743
 4016POPC   GL251914  42.210   4.083   5.823
 4016POPC   C1A51915  42.194   4.440   6.197
 4016POPC   D2A51916  42.409   4.343   6.584
 4016POPC   C3A51917  42.101   4.300   6.929
 4016POPC   C4A51918  42.199   4.438   7.347
 4016POPC   C1B51919  42.503   3.977   6.178
 4016POPC   C2B51920  42.644   3.858   6.602
 4016POPC   C3B51921  42.564   4.036   7.014
 4016POPC   C4B51922  42.597   3.913   7.442
 4017POPC   NC351923  39.541  11.861   5.515
 4017POPC   PO451924  40.244  11.923   5.551
 4017POPC   GL151925  40.195  11.965   5.957
 4017POPC   GL251926  40.019  12.282   6.017
 4017POPC   C1A51927  40.215  11.827   6.354
 4017POPC   D2A51928  40.018  12.133   6.564
 4017POPC   C3A51929  40.155  12.106   6.957
 4017POPC   C4A51930  40.127  12.224   7.387
 4017POPC   C1B51931  39.660  12.454   6.254
 4017POPC   C2B51932  39.538  12.399   6.695
 4017POPC   C3B51933  39.706  12.310   7.109
 4017POPC   C4B51934  39.568  12.320   7.594
 4018POPC   NC351935  31.885  39.955   5.372
 4018POPC   PO451936  32.397  40.295   5.425
 4018POPC   GL151937  32.371  40.190   5.866
 4018POPC   GL251938  32.314  39.811   5.888
 4018POPC   C1A51939  32.197  40.107   6.303
 4018POPC   D2A51940  32.380  39.957   6.698
 4018POPC   C3A51941  32.258  40.199   7.051
 4018POPC   C4A51942  31.937  40.350   7.269
 4018POPC   C1B51943  31.964  39.677   6.180
 4018POPC   C2B51944  31.867  39.824   6.613
 4018POPC   C3B51945  32.066  39.713   7.019
 4018POPC   C4B51946  32.485  39.750   7.188
 4019POPC   NC351947  20.109  44.488   5.559
 4019POPC   PO451948  19.610  44.891   5.641
 4019POPC   GL151949  19.742  44.894   6.014
 4019POPC   GL251950  19.853  44.561   5.999
 4019POPC   C1A51951  19.720  44.806   6.445
 4019POPC   D2A51952  19.838  44.621   6.828
 4019POPC   C3A51953  19.765  44.893   7.168
 4019POPC   C4A51954  19.998   0.274   7.240
 4019POPC   C1B51955  20.213  44.667   6.284
 4019POPC   C2B51956  20.384  44.734   6.724
 4019POPC   C3B51957  20.272  44.531   7.146
 4019POPC   C4B51958  19.927  44.395   7.435
 4020POPC   NC351959  21.619  38.227   5.374
 4020POPC   PO451960  21.185  38.731   5.412
 4020POPC   GL151961  21.348  38.513   5.785
 4020POPC   GL251962  21.725  38.539   5.789
 4020POPC   C1A51963  21.478  38.668   6.221
 4020POPC   D2A51964  21.385  38.631   6.671
 4020POPC   C3A51965  21.268  38.877   7.048
 4020POPC   C4A51966  21.450  38.775   7.470
 4020POPC   C1B51967  21.628  38.189   6.116
 4020POPC   C2B51968  21.617  38.155   6.602
 4020POPC   C3B51969  21.579  38.335   7.064
 4020POPC   C4B51970  21.742  38.332   7.518
 4021POPC   NC351971  17.549   4.717   5.210
 4021POPC   PO451972  17.740   5.375   5.485
 4021POPC   GL151973  17.497   5.256   5.820
 4021POPC   GL251974  17.522   4.903   5.768
 4021POPC   C1A51975  17.646   5.145   6.223
 4021POPC   D2A51976  17.741   5.335   6.593
 4021POPC   C3A51977  17.660   5.144   6.980
 4021POPC   C4A51978  17.409   5.309   7.309
 4021POPC   C1B51979  17.228   4.886   6.122
 4021POPC   C2B51980  17.372   4.844   6.557
 4021POPC   C3B51981  17.226   4.736   6.966
 4021POPC   C4B51982  17.465   4.792   7.319
 4022POPC   NC351983   8.106  21.862   5.274
 4022POPC   PO451984   8.379  22.428   5.441
 4022POPC   GL151985   8.130  22.206   5.762
 4022POPC   GL251986   7.837  21.996   5.682
 4022POPC   C1A51987   8.054  22.354   6.213
 4022POPC   D2A51988   8.075  22.115   6.616
 4022POPC   C3A51989   8.225  22.193   7.064
 4022POPC   C4A51990   8.496  21.888   7.341
 4022POPC   C1B51991   7.745  21.959   6.127
 4022POPC   C2B51992   7.573  22.027   6.560
 4022POPC   C3B51993   7.759  21.910   6.978
 4022POPC   C4B51994   7.909  21.940   7.397
 4023POPC   NC351995  33.123  31.657   5.403
 4023POPC   PO451996  32.501  31.383   5.216
 4023POPC   GL151997  32.880  31.255   5.599
 4023POPC   GL251998  32.829  31.500   5.865
 4023POPC   C1A51999  33.197  31.224   6.047
 4023POPC   D2A52000  33.129  31.360   6.534
 4023POPC   C3A52001  33.324  31.359   6.995
 4023POPC   C4A52002  33.394  31.454   7.502
 4023POPC   C1B52003  32.717  31.197   6.246
 4023POPC   C2B52004  32.670  31.197   6.741
 4023POPC   C3B52005  32.876  31.186   7.167
 4023POPC   C4B52006  32.947  31.236   7.630
 4024POPC   NC352007  40.887  13.945   5.084
 4024POPC   PO452008  40.572  13.657   5.586
 4024POPC   GL152009  40.863  13.680   5.849
 4024POPC   GL252010  41.055  13.366   5.889
 4024POPC   C1A52011  40.944  13.747   6.247
 4024POPC   D2A52012  41.093  13.998   6.549
 4024POPC   C3A52013  40.979  13.795   6.913
 4024POPC   C4A52014  41.181  13.820   7.288
 4024POPC   C1B52015  40.680  13.305   6.170
 4024POPC   C2B52016  40.774  13.358   6.595
 4024POPC   C3B52017  40.591  13.371   6.982
 4024POPC   C4B52018  40.694  13.620   7.323
 4025POPC   NC352019   6.082  24.540   5.380
 4025POPC   PO452020   5.470  24.177   5.463
 4025POPC   GL152021   5.771  24.380   5.762
 4025POPC   GL252022   5.686  24.698   5.951
 4025POPC   C1A52023   5.829  24.282   6.199
 4025POPC   D2A52024   5.811  24.552   6.555
 4025POPC   C3A52025   5.938  24.393   6.954
 4025POPC   C4A52026   5.908  24.598   7.356
 4025POPC   C1B52027   6.095  24.739   6.160
 4025POPC   C2B52028   6.218  24.881   6.580
 4025POPC   C3B52029   6.263  24.787   7.031
 4025POPC   C4B52030   6.335  24.829   7.478
 4026POPC   NC352031  41.356  29.161   5.779
 4026POPC   PO452032  41.996  29.304   5.511
 4026POPC   GL152033  41.979  29.169   5.969
 4026POPC   GL252034  41.728  28.936   6.188
 4026POPC   C1A52035  41.810  29.384   6.366
 4026POPC   D2A52036  41.555  29.166   6.656
 4026POPC   C3A52037  41.726  29.138   7.030
 4026POPC   C4A52038  41.676  29.382   7.366
 4026POPC   C1B52039  41.348  28.748   6.363
 4026POPC   C2B52040  41.074  28.738   6.715
 4026POPC   C3B52041  41.228  28.991   7.065
 4026POPC   C4B52042  41.480  28.873   7.426
 4027POPC   NC352043   8.888  26.639   5.302
 4027POPC   PO452044   9.358  27.069   5.164
 4027POPC   GL152045   9.235  26.752   5.625
 4027POPC   GL252046   8.864  26.791   5.787
 4027POPC   C1A52047   9.219  26.686   6.116
 4027POPC   D2A52048   8.961  26.969   6.415
 4027POPC   C3A52049   9.122  26.968   6.843
 4027POPC   C4A52050   9.251  26.916   7.266
 4027POPC   C1B52051   8.721  26.550   6.210
 4027POPC   C2B52052   8.724  26.596   6.686
 4027POPC   C3B52053   8.855  26.620   7.116
 4027POPC   C4B52054   8.856  26.738   7.553
 4028POPC   NC352055   4.356   3.168   5.362
 4028POPC   PO452056   4.007   2.594   5.284
 4028POPC   GL152057   4.025   2.845   5.673
 4028POPC   GL252058   4.373   2.878   5.786
 4028POPC   C1A52059   3.962   2.942   6.122
 4028POPC   D2A52060   3.852   2.767   6.532
 4028POPC   C3A52061   4.072   2.642   6.908
 4028POPC   C4A52062   4.063   2.832   7.304
 4028POPC   C1B52063   4.406   2.720   6.212
 4028POPC   C2B52064   4.322   2.968   6.591
 4028POPC   C3B52065   4.440   3.049   7.006
 4028POPC   C4B52066   4.658   2.714   7.184
 4029POPC   NC352067  15.547  23.390   5.330
 4029POPC   PO452068  16.211  23.443   5.434
 4029POPC   GL152069  15.997  23.699   5.770
 4029POPC   GL252070  15.734  23.900   5.605
 4029POPC   C1A52071  15.808  23.651   6.219
 4029POPC   D2A52072  15.613  23.556   6.638
 4029POPC   C3A52073  15.910  23.539   6.993
 4029POPC   C4A52074  15.950  23.605   7.447
 4029POPC   C1B52075  15.521  24.017   5.997
 4029POPC   C2B52076  15.569  24.050   6.461
 4029POPC   C3B52077  15.745  24.029   6.917
 4029POPC   C4B52078  15.635  23.996   7.347
 4030POPC   NC352079  44.683  37.370   5.468
 4030POPC   PO452080  44.125  37.715   5.498
 4030POPC   GL152081  44.529  37.846   5.750
 4030POPC   GL252082  44.732  37.578   5.938
 4030POPC   C1A52083  44.513  37.938   6.206
 4030POPC   D2A52084  44.455  37.608   6.549
 4030POPC   C3A52085  44.404  37.768   6.953
 4030POPC   C4A52086  44.445  37.989   7.326
 4030POPC   C1B52087  44.910  37.499   6.375
 4030POPC   C2B52088  44.860  37.540   6.837
 4030POPC   C3B52089  44.804  37.568   7.270
 4030POPC   C4B52090   0.133  37.456   7.599
 4031POPC   NC352091  17.005  14.982   5.386
 4031POPC   PO452092  16.894  15.643   5.581
 4031POPC   GL152093  16.910  15.252   5.819
 4031POPC   GL252094  16.614  15.008   5.787
 4031POPC   C1A52095  16.903  15.140   6.245
 4031POPC   D2A52096  16.664  15.366   6.556
 4031POPC   C3A52097  16.693  15.191   6.960
 4031POPC   C4A52098  16.936  15.370   7.294
 4031POPC   C1B52099  16.388  15.094   6.193
 4031POPC   C2B52100  16.387  14.910   6.589
 4031POPC   C3B52101  16.228  14.947   6.992
 4031POPC   C4B52102  16.448  14.906   7.348
 4032POPC   NC352103  19.358  43.076   5.122
 4032POPC   PO452104  18.681  43.427   5.244
 4032POPC   GL152105  18.941  43.226   5.664
 4032POPC   GL252106  19.091  42.909   5.601
 4032POPC   C1A52107  19.178  43.328   6.101
 4032POPC   D2A52108  19.428  43.459   6.470
 4032POPC   C3A52109  19.210  43.337   6.841
 4032POPC   C4A52110  18.892  43.295   7.155
 4032POPC   C1B52111  19.056  42.844   6.082
 4032POPC   C2B52112  19.187  42.887   6.558
 4032POPC   C3B52113  19.077  42.850   7.037
 4032POPC   C4B52114  18.763  42.841   7.393
 4033POPC   NC352115   4.718  35.406   5.426
 4033POPC   PO452116   4.092  35.600   5.434
 4033POPC   GL152117   4.289  35.471   5.844
 4033POPC   GL252118   4.565  35.685   5.838
 4033POPC   C1A52119   4.348  35.255   6.277
 4033POPC   D2A52120   4.470  34.914   6.587
 4033POPC   C3A52121   4.292  35.055   6.976
 4033POPC   C4A52122   4.133  35.431   7.162
 4033POPC   C1B52123   4.713  35.697   6.249
 4033POPC   C2B52124   4.462  35.730   6.634
 4033POPC   C3B52125   4.720  35.758   6.951
 4033POPC   C4B52126   4.646  35.468   7.225
 4034POPC   NC352127  35.272  19.936   5.452
 4034POPC   PO452128  35.322  19.380   5.117
 4034POPC   GL152129  35.256  19.422   5.712
 4034POPC   GL252130  35.144  19.736   5.909
 4034POPC   C1A52131  35.464  19.432   6.154
 4034POPC   D2A52132  35.465  19.786   6.457
 4034POPC   C3A52133  35.397  19.706   6.904
 4034POPC   C4A52134  35.646  19.722   7.261
 4034POPC   C1B52135  34.996  19.999   6.277
 4034POPC   C2B52136  35.077  20.075   6.732
 4034POPC   C3B52137  34.908  19.904   7.122
 4034POPC   C4B52138  34.939  19.946   7.594
 4035POPC   NC352139   3.812  32.768   5.516
 4035POPC   PO452140   3.322  32.195   5.365
 4035POPC   GL152141   3.365  32.099   5.803
 4035POPC   GL252142   3.648  32.360   5.794
 4035POPC   C1A52143   3.409  32.281   6.228
 4035POPC   D2A52144   3.685  32.388   6.545
 4035POPC   C3A52145   3.509  32.279   6.941
 4035POPC   C4A52146   3.577  32.406   7.338
 4035POPC   C1B52147   3.836  32.043   6.076
 4035POPC   C2B52148   3.894  31.929   6.512
 4035POPC   C3B52149   3.975  32.136   6.902
 4035POPC   C4B52150   4.107  32.209   7.306
 4036POPC   NC352151  42.518  13.459   5.402
 4036POPC   PO452152  41.976  13.851   5.266
 4036POPC   GL152153  42.187  13.748   5.698
 4036POPC   GL252154  42.099  13.396   5.735
 4036POPC   C1A52155  42.416  13.540   6.109
 4036POPC   D2A52156  42.639  13.420   6.511
 4036POPC   C3A52157  42.449  13.521   6.925
 4036POPC   C4A52158  42.470  13.815   7.283
 4036POPC   C1B52159  41.971  13.262   6.144
 4036POPC   C2B52160  42.152  13.260   6.552
 4036POPC   C3B52161  42.023  13.249   6.978
 4036POPC   C4B52162  42.169  13.376   7.368
 4037POPC   NC352163  18.596  42.981   5.397
 4037POPC   PO452164  17.928  43.256   5.284
 4037POPC   GL152165  18.092  43.079   5.669
 4037POPC   GL252166  18.431  43.223   5.809
 4037POPC   C1A52167  18.049  43.154   6.129
 4037POPC   D2A52168  18.222  43.423   6.465
 4037POPC   C3A52169  18.094  43.321   6.902
 4037POPC   C4A52170  18.408  43.411   7.212
 4037POPC   C1B52171  18.558  43.025   6.217
 4037POPC   C2B52172  18.379  42.943   6.647
 4037POPC   C3B52173  18.333  42.891   7.113
 4037POPC   C4B52174  18.315  43.039   7.568
 4038POPC   NC352175  27.505  22.573   5.558
 4038POPC   PO452176  27.589  21.879   5.321
 4038POPC   GL152177  27.586  22.069   5.752
 4038POPC   GL252178  27.897  22.275   5.723
 4038POPC   C1A52179  27.522  21.931   6.237
 4038POPC   D2A52180  27.566  22.086   6.704
 4038POPC   C3A52181  27.501  21.869   7.094
 4038POPC   C4A52182  27.126  21.774   7.314
 4038POPC   C1B52183  27.806  22.342   6.131
 4038POPC   C2B52184  27.817  22.487   6.529
 4038POPC   C3B52185  27.964  22.406   6.891
 4038POPC   C4B52186  27.806  22.256   7.252
 4039POPC   NC352187  28.161  15.246   5.474
 4039POPC   PO452188  28.756  14.969   5.364
 4039POPC   GL152189  28.573  14.981   5.809
 4039POPC   GL252190  28.410  15.302   5.903
 4039POPC   C1A52191  28.655  15.086   6.290
 4039POPC   D2A52192  28.354  14.969   6.640
 4039POPC   C3A52193  28.328  15.088   7.067
 4039POPC   C4A52194  28.294  14.855   7.444
 4039POPC   C1B52195  28.141  15.225   6.245
 4039POPC   C2B52196  28.074  15.437   6.642
 4039POPC   C3B52197  27.920  15.397   7.056
 4039POPC   C4B52198  27.997  15.367   7.500
 4040POPC   NC352199  37.860  43.499   5.518
 4040POPC   PO452200  37.401  42.892   5.456
 4040POPC   GL152201  37.457  43.068   5.836
 4040POPC   GL252202  37.831  43.117   5.843
 4040POPC   C1A52203  37.584  43.029   6.258
 4040POPC   D2A52204  37.842  42.774   6.491
 4040POPC   C3A52205  37.729  42.927   6.867
 4040POPC   C4A52206  37.669  42.859   7.284
 4040POPC   C1B52207  38.005  43.404   6.184
 4040POPC   C2B52208  38.101  43.612   6.583
 4040POPC   C3B52209  38.150  43.523   7.012
 4040POPC   C4B52210  38.033  43.185   7.245
 4041POPC   NC352211  35.786  39.803   5.440
 4041POPC   PO452212  36.396  40.088   5.590
 4041POPC   GL152213  36.177  39.893   5.870
 4041POPC   GL252214  35.878  40.058   5.851
 4041POPC   C1A52215  36.144  40.114   6.271
 4041POPC   D2A52216  36.210  40.329   6.630
 4041POPC   C3A52217  36.409  40.270   7.011
 4041POPC   C4A52218  36.435  40.238   7.463
 4041POPC   C1B52219  35.698  39.898   6.229
 4041POPC   C2B52220  35.835  39.755   6.627
 4041POPC   C3B52221  35.997  39.970   6.950
 4041POPC   C4B52222  36.178  39.835   7.318
 4042POPC   NC352223  23.704  29.678   5.249
 4042POPC   PO452224  23.525  30.236   5.402
 4042POPC   GL152225  23.766  29.941   5.735
 4042POPC   GL252226  23.594  29.627   5.747
 4042POPC   C1A52227  23.867  29.877   6.212
 4042POPC   D2A52228  24.039  30.021   6.644
 4042POPC   C3A52229  23.848  29.847   7.053
 4042POPC   C4A52230  23.954  29.699   7.488
 4042POPC   C1B52231  23.513  29.502   6.174
 4042POPC   C2B52232  23.182  29.552   6.489
 4042POPC   C3B52233  23.270  29.534   6.924
 4042POPC   C4B52234  23.530  29.497   7.273
 4043POPC   NC352235  12.887   4.467   5.369
 4043POPC   PO452236  12.469   3.980   5.425
 4043POPC   GL152237  12.706   4.097   5.750
 4043POPC   GL252238  12.606   4.428   5.819
 4043POPC   C1A52239  12.955   4.158   6.118
 4043POPC   D2A52240  12.940   4.395   6.494
 4043POPC   C3A52241  12.962   4.181   6.892
 4043POPC   C4A52242  13.033   4.413   7.274
 4043POPC   C1B52243  12.315   4.571   6.131
 4043POPC   C2B52244  12.428   4.503   6.548
 4043POPC   C3B52245  12.685   4.592   6.930
 4043POPC   C4B52246  12.558   4.520   7.411
 4044POPC   NC352247  20.673  21.717   5.489
 4044POPC   PO452248  20.774  21.094   5.332
 4044POPC   GL152249  20.553  21.127   5.764
 4044POPC   GL252250  20.397  21.450   5.827
 4044POPC   C1A52251  20.747  21.224   6.190
 4044POPC   D2A52252  20.820  21.106   6.658
 4044POPC   C3A52253  20.786  21.433   7.003
 4044POPC   C4A52254  20.900  21.637   7.400
 4044POPC   C1B52255  20.466  21.635   6.229
 4044POPC   C2B52256  20.417  21.422   6.614
 4044POPC   C3B52257  20.264  21.494   6.998
 4044POPC   C4B52258  20.469  21.828   7.207
 4045POPC   NC352259  26.450  17.215   5.346
 4045POPC   PO452260  26.850  17.696   5.176
 4045POPC   GL152261  26.743  17.545   5.634
 4045POPC   GL252262  26.957  17.298   5.863
 4045POPC   C1A52263  26.781  17.720   6.062
 4045POPC   D2A52264  27.088  17.698   6.434
 4045POPC   C3A52265  27.001  17.931   6.831
 4045POPC   C4A52266  27.025  17.760   7.240
 4045POPC   C1B52267  26.799  17.247   6.307
 4045POPC   C2B52268  26.699  17.222   6.770
 4045POPC   C3B52269  26.671  17.386   7.204
 4045POPC   C4B52270  26.495  17.219   7.591
 4046POPC   NC352271   1.429  31.789   5.494
 4046POPC   PO452272   0.998  31.318   5.381
 4046POPC   GL152273   1.257  31.399   5.763
 4046POPC   GL252274   1.025  31.661   5.799
 4046POPC   C1A52275   1.483  31.326   6.201
 4046POPC   D2A52276   1.714  31.254   6.626
 4046POPC   C3A52277   1.436  31.291   6.990
 4046POPC   C4A52278   1.305  31.698   7.096
 4046POPC   C1B52279   0.981  31.430   6.177
 4046POPC   C2B52280   1.119  31.522   6.591
 4046POPC   C3B52281   0.910  31.840   6.825
 4046POPC   C4B52282   0.752  31.710   7.240
 4047POPC   NC352283  20.015  28.484   5.242
 4047POPC   PO452284  19.721  27.910   5.451
 4047POPC   GL152285  19.904  28.247   5.758
 4047POPC   GL252286  19.911  28.597   5.735
 4047POPC   C1A52287  19.963  28.453   6.210
 4047POPC   D2A52288  20.160  28.611   6.619
 4047POPC   C3A52289  19.963  28.487   7.028
 4047POPC   C4A52290  19.552  28.329   7.141
 4047POPC   C1B52291  19.557  28.748   6.076
 4047POPC   C2B52292  19.621  28.932   6.536
 4047POPC   C3B52293  19.509  28.920   7.028
 4047POPC   C4B52294  19.637  28.730   7.449
 4048POPC   NC352295  23.669  11.599   5.506
 4048POPC   PO452296  23.954  11.035   5.246
 4048POPC   GL152297  23.791  11.162   5.717
 4048POPC   GL252298  23.437  11.228   5.814
 4048POPC   C1A52299  23.893  11.211   6.150
 4048POPC   D2A52300  23.758  11.515   6.438
 4048POPC   C3A52301  23.755  11.469   6.881
 4048POPC   C4A52302  23.553  11.608   7.235
 4048POPC   C1B52303  23.491  10.883   6.123
 4048POPC   C2B52304  23.585  11.026   6.530
 4048POPC   C3B52305  23.395  11.043   6.909
 4048POPC   C4B52306  23.639  11.085   7.271
 4049POPC   NC352307  41.312   2.412   5.659
 4049POPC   PO452308  40.932   2.842   5.340
 4049POPC   GL152309  40.939   2.715   5.783
 4049POPC   GL252310  40.674   2.520   5.761
 4049POPC   C1A52311  40.922   2.463   6.221
 4049POPC   D2A52312  40.680   2.412   6.635
 4049POPC   C3A52313  40.838   2.567   7.032
 4049POPC   C4A52314  40.890   2.987   7.218
 4049POPC   C1B52315  40.572   2.844   6.088
 4049POPC   C2B52316  40.419   2.854   6.492
 4049POPC   C3B52317  40.496   2.891   6.882
 4049POPC   C4B52318  40.379   2.731   7.259
 4050POPC   NC352319  20.782  11.622   5.073
 4050POPC   PO452320  20.572  11.822   5.720
 4050POPC   GL152321  20.816  11.486   5.856
 4050POPC   GL252322  20.518  11.323   5.924
 4050POPC   C1A52323  20.926  11.119   6.113
 4050POPC   D2A52324  21.019  11.071   6.515
 4050POPC   C3A52325  20.793  11.281   6.832
 4050POPC   C4A52326  20.596  11.082   7.195
 4050POPC   C1B52327  20.548  11.512   6.368
 4050POPC   C2B52328  20.304  11.427   6.789
 4050POPC   C3B52329  20.321  11.519   7.245
 4050POPC   C4B52330  20.693  11.530   7.476
 4051POPC   NC352331   4.999  29.010   5.468
 4051POPC   PO452332   5.463  29.422   5.530
 4051POPC   GL152333   5.267  29.208   5.882
 4051POPC   GL252334   4.893  29.229   5.931
 4051POPC   C1A52335   5.224  29.211   6.332
 4051POPC   D2A52336   5.081  28.873   6.611
 4051POPC   C3A52337   5.325  29.006   6.928
 4051POPC   C4A52338   5.318  29.006   7.356
 4051POPC   C1B52339   4.787  29.489   6.320
 4051POPC   C2B52340   4.901  29.331   6.739
 4051POPC   C3B52341   4.872  29.096   7.102
 4051POPC   C4B52342   4.882  29.227   7.542
 4052POPC   NC352343  43.671  12.690   5.298
 4052POPC   PO452344  44.288  12.713   5.487
 4052POPC   GL152345  43.907  12.874   5.743
 4052POPC   GL252346  43.518  12.787   5.772
 4052POPC   C1A52347  43.871  12.955   6.204
 4052POPC   D2A52348  44.066  13.004   6.630
 4052POPC   C3A52349  43.991  12.798   7.023
 4052POPC   C4A52350  43.884  13.007   7.410
 4052POPC   C1B52351  43.356  12.946   6.173
 4052POPC   C2B52352  43.543  12.901   6.616
 4052POPC   C3B52353  43.481  12.739   7.072
 4052POPC   C4B52354  43.688  12.549   7.461
 4053POPC   NC352355  36.416  35.809   5.676
 4053POPC   PO452356  35.855  36.077   5.350
 4053POPC   GL152357  36.039  36.162   5.741
 4053POPC   GL252358  36.200  36.488   5.797
 4053POPC   C1A52359  35.998  35.936   6.144
 4053POPC   D2A52360  36.294  35.763   6.453
 4053POPC   C3A52361  36.239  36.028   6.802
 4053POPC   C4A52362  36.154  36.047   7.262
 4053POPC   C1B52363  36.359  36.289   6.202
 4053POPC   C2B52364  36.492  36.487   6.598
 4053POPC   C3B52365  36.567  36.308   7.044
 4053POPC   C4B52366  36.494  36.332   7.534
 4054POPC   NC352367  26.902  40.397   5.282
 4054POPC   PO452368  26.530  39.862   5.406
 4054POPC   GL152369  26.792  39.929   5.744
 4054POPC   GL252370  26.798  40.273   5.758
 4054POPC   C1A52371  26.648  39.888   6.169
 4054POPC   D2A52372  26.423  40.100   6.494
 4054POPC   C3A52373  26.500  39.891   6.898
 4054POPC   C4A52374  26.739  39.851   7.300
 4054POPC   C1B52375  27.014  40.246   6.129
 4054POPC   C2B52376  26.882  40.336   6.551
 4054POPC   C3B52377  26.962  40.165   6.953
 4054POPC   C4B52378  27.138  40.200   7.356
 4055POPC   NC352379  29.541   9.294   5.426
 4055POPC   PO452380  29.078   8.831   5.231
 4055POPC   GL152381  29.208   8.904   5.719
 4055POPC   GL252382  29.387   9.214   5.897
 4055POPC   C1A52383  29.036   9.009   6.172
 4055POPC   D2A52384  29.185   9.294   6.526
 4055POPC   C3A52385  29.144   9.087   6.943
 4055POPC   C4A52386  29.003   8.904   7.331
 4055POPC   C1B52387  29.653   9.372   6.231
 4055POPC   C2B52388  29.652   9.496   6.657
 4055POPC   C3B52389  29.613   9.260   7.056
 4055POPC   C4B52390  29.345   9.285   7.466
 4056POPC   NC352391   0.860  42.822   5.182
 4056POPC   PO452392   0.366  43.208   5.336
 4056POPC   GL152393   0.213  43.074   5.716
 4056POPC   GL252394   0.362  42.775   5.843
 4056POPC   C1A52395   0.261  43.185   6.153
 4056POPC   D2A52396   0.062  43.125   6.557
 4056POPC   C3A52397   0.241  43.116   6.982
 4056POPC   C4A52398   0.633  42.952   7.173
 4056POPC   C1B52399   0.638  42.842   6.225
 4056POPC   C2B52400   0.585  43.083   6.593
 4056POPC   C3B52401   0.693  43.391   6.904
 4056POPC   C4B52402   1.026  43.317   7.206
 4057POPC   NC352403  28.536  13.872   5.537
 4057POPC   PO452404  28.134  13.313   5.408
 4057POPC   GL152405  28.130  13.590   5.770
 4057POPC   GL252406  28.452  13.411   5.855
 4057POPC   C1A52407  28.186  13.647   6.240
 4057POPC   D2A52408  28.371  13.561   6.645
 4057POPC   C3A52409  28.172  13.591   7.034
 4057POPC   C4A52410  28.326  13.471   7.424
 4057POPC   C1B52411  28.634  13.256   6.264
 4057POPC   C2B52412  28.872  13.427   6.627
 4057POPC   C3B52413  28.716  13.452   7.049
 4057POPC   C4B52414  28.845  13.370   7.447
 4058POPC   NC352415  42.921  11.925   5.117
 4058POPC   PO452416  43.358  12.358   5.386
 4058POPC   GL152417  43.180  12.364   5.819
 4058POPC   GL252418  42.842  12.250   5.754
 4058POPC   C1A52419  43.180  12.211   6.281
 4058POPC   D2A52420  43.279  12.446   6.686
 4058POPC   C3A52421  43.227  12.259   7.132
 4058POPC   C4A52422  43.545  12.073   7.442
 4058POPC   C1B52423  42.696  12.104   6.130
 4058POPC   C2B52424  42.817  11.860   6.463
 4058POPC   C3B52425  42.751  11.850   6.884
 4058POPC   C4B52426  42.749  12.061   7.253
 4059POPC   NC352427  32.933   9.388   5.454
 4059POPC   PO452428  33.342   8.924   5.448
 4059POPC   GL152429  33.061   8.922   5.784
 4059POPC   GL252430  32.740   8.974   5.684
 4059POPC   C1A52431  33.052   8.889   6.237
 4059POPC   D2A52432  32.937   8.751   6.643
 4059POPC   C3A52433  33.112   8.902   7.014
 4059POPC   C4A52434  33.411   9.188   7.144
 4059POPC   C1B52435  32.624   9.156   6.075
 4059POPC   C2B52436  32.687   9.169   6.523
 4059POPC   C3B52437  32.627   9.058   6.957
 4059POPC   C4B52438  32.675   8.730   7.255
 4060POPC   NC352439  19.339  15.351   5.025
 4060POPC   PO452440  19.530  14.881   5.470
 4060POPC   GL152441  19.332  15.009   5.849
 4060POPC   GL252442  19.005  15.011   5.807
 4060POPC   C1A52443  19.254  15.341   6.148
 4060POPC   D2A52444  19.165  15.470   6.564
 4060POPC   C3A52445  19.094  15.186   6.884
 4060POPC   C4A52446  19.217  15.366   7.266
 4060POPC   C1B52447  18.822  15.061   6.210
 4060POPC   C2B52448  18.668  14.902   6.567
 4060POPC   C3B52449  18.547  15.013   6.947
 4060POPC   C4B52450  18.819  14.987   7.269
 4061POPC   NC352451  31.861  27.933   5.674
 4061POPC   PO452452  31.780  27.343   5.330
 4061POPC   GL152453  31.530  27.464   5.734
 4061POPC   GL252454  31.347  27.810   5.742
 4061POPC   C1A52455  31.328  27.314   6.155
 4061POPC   D2A52456  31.309  27.148   6.603
 4061POPC   C3A52457  31.333  27.425   6.973
 4061POPC   C4A52458  31.510  27.448   7.395
 4061POPC   C1B52459  31.063  27.780   6.104
 4061POPC   C2B52460  31.227  27.687   6.521
 4061POPC   C3B52461  31.486  27.916   6.842
 4061POPC   C4B52462  31.334  27.912   7.245
 4062POPC   NC352463  14.054  25.046   5.615
 4062POPC   PO452464  14.710  25.273   5.494
 4062POPC   GL152465  14.622  25.390   5.909
 4062POPC   GL252466  14.433  25.089   5.991
 4062POPC   C1A52467  14.325  25.536   6.236
 4062POPC   D2A52468  14.254  25.435   6.667
 4062POPC   C3A52469  13.991  25.659   6.935
 4062POPC   C4A52470  14.221  25.456   7.248
 4062POPC   C1B52471  14.087  25.085   6.329
 4062POPC   C2B52472  13.903  25.087   6.789
 4062POPC   C3B52473  14.164  24.956   7.195
 4062POPC   C4B52474  14.373  25.082   7.629
 4063POPC   NC352475   1.638  40.190   5.439
 4063POPC   PO452476   1.026  39.874   5.433
 4063POPC   GL152477   1.154  40.005   5.827
 4063POPC   GL252478   1.346  40.276   5.854
 4063POPC   C1A52479   1.283  39.914   6.234
 4063POPC   D2A52480   1.462  39.925   6.627
 4063POPC   C3A52481   1.185  39.887   6.972
 4063POPC   C4A52482   1.286  39.828   7.394
 4063POPC   C1B52483   1.095  40.398   6.185
 4063POPC   C2B52484   1.102  40.286   6.599
 4063POPC   C3B52485   1.134  40.389   7.033
 4063POPC   C4B52486   0.902  40.193   7.365
 4064POPC   NC352487  18.425  33.060   5.494
 4064POPC   PO452488  18.046  32.576   5.686
 4064POPC   GL152489  18.301  32.853   5.958
 4064POPC   GL252490  18.299  33.224   5.956
 4064POPC   C1A52491  18.447  32.976   6.383
 4064POPC   D2A52492  18.550  33.231   6.760
 4064POPC   C3A52493  18.411  32.988   7.117
 4064POPC   C4A52494  17.979  32.806   7.203
 4064POPC   C1B52495  17.946  33.198   6.208
 4064POPC   C2B52496  17.831  33.199   6.631
 4064POPC   C3B52497  18.005  33.294   7.057
 4064POPC   C4B52498  17.922  33.246   7.520
 4065POPC   NC352499  20.161  33.372   5.228
 4065POPC   PO452500  19.812  32.809   5.332
 4065POPC   GL152501  19.795  32.973   5.786
 4065POPC   GL252502  20.152  33.058   5.878
 4065POPC   C1A52503  19.794  32.993   6.246
 4065POPC   D2A52504  20.194  33.002   6.476
 4065POPC   C3A52505  20.166  32.985   6.933
 4065POPC   C4A52506  19.816  33.141   7.206
 4065POPC   C1B52507  20.116  32.635   6.078
 4065POPC   C2B52508  19.934  32.554   6.502
 4065POPC   C3B52509  19.757  32.652   6.892
 4065POPC   C4B52510  19.921  32.634   7.279
 4066POPC   NC352511   7.290  42.639   5.485
 4066POPC   PO452512   7.780  42.980   5.326
 4066POPC   GL152513   7.591  42.967   5.742
 4066POPC   GL252514   7.239  43.101   5.739
 4066POPC   C1A52515   7.435  42.799   6.145
 4066POPC   D2A52516   7.324  42.984   6.536
 4066POPC   C3A52517   7.531  42.905   6.917
 4066POPC   C4A52518   7.289  42.980   7.271
 4066POPC   C1B52519   7.394  43.356   6.091
 4066POPC   C2B52520   7.417  43.488   6.536
 4066POPC   C3B52521   7.299  43.379   6.930
 4066POPC   C4B52522   7.561  43.410   7.249
 4067POPC   NC352523   8.010  12.577   5.425
 4067POPC   PO452524   8.296  11.982   5.360
 4067POPC   GL152525   8.241  12.224   5.736
 4067POPC   GL252526   7.884  12.205   5.783
 4067POPC   C1A52527   8.199  12.250   6.188
 4067POPC   D2A52528   8.387  12.132   6.588
 4067POPC   C3A52529   8.177  12.220   6.963
 4067POPC   C4A52530   8.328  12.142   7.373
 4067POPC   C1B52531   7.721  12.026   6.165
 4067POPC   C2B52532   7.731  11.819   6.564
 4067POPC   C3B52533   7.717  11.957   6.961
 4067POPC   C4B52534   7.823  12.164   7.345
 4068POPC   NC352535  44.815  38.152   5.400
 4068POPC   PO452536  44.406  38.664   5.354
 4068POPC   GL152537  44.639  38.465   5.784
 4068POPC   GL252538  44.934  38.194   5.872
 4068POPC   C1A52539  44.710  38.456   6.242
 4068POPC   D2A52540  44.477  38.540   6.631
 4068POPC   C3A52541  44.621  38.404   7.015
 4068POPC   C4A52542  44.766  38.382   7.414
 4068POPC   C1B52543   0.013  37.989   6.248
 4068POPC   C2B52544  44.794  38.039   6.662
 4068POPC   C3B52545  44.969  38.026   7.107
 4068POPC   C4B52546  44.924  37.941   7.594
 4069POPC   NC352547  37.040  43.198   5.496
 4069POPC   PO452548  36.507  42.846   5.500
 4069POPC   GL152549  36.711  43.039   5.862
 4069POPC   GL252550  36.507  43.304   5.846
 4069POPC   C1A52551  37.064  43.057   6.211
 4069POPC   D2A52552  37.253  43.117   6.631
 4069POPC   C3A52553  37.031  43.153   7.005
 4069POPC   C4A52554  37.291  43.245   7.306
 4069POPC   C1B52555  36.751  43.443   6.182
 4069POPC   C2B52556  36.762  43.289   6.584
 4069POPC   C3B52557  36.624  43.455   6.970
 4069POPC   C4B52558  36.895  43.588   7.324
 4070POPC   NC352559   9.372  24.345   5.275
 4070POPC   PO452560   9.881  24.754   5.371
 4070POPC   GL152561   9.762  24.651   5.782
 4070POPC   GL252562   9.911  24.944   5.897
 4070POPC   C1A52563   9.882  24.331   6.108
 4070POPC   D2A52564   9.753  24.225   6.537
 4070POPC   C3A52565  10.012  24.237   6.908
 4070POPC   C4A52566   9.791  24.318   7.221
 4070POPC   C1B52567   9.848  24.811   6.307
 4070POPC   C2B52568   9.802  24.996   6.703
 4070POPC   C3B52569   9.808  24.801   7.109
 4070POPC   C4B52570  10.035  24.649   7.500
 4071POPC   NC352571  31.248  35.465   5.574
 4071POPC   PO452572  31.898  35.345   5.539
 4071POPC   GL152573  31.628  35.263   5.891
 4071POPC   GL252574  31.362  34.998   5.767
 4071POPC   C1A52575  31.529  35.488   6.293
 4071POPC   D2A52576  31.286  35.653   6.651
 4071POPC   C3A52577  31.562  35.801   6.973
 4071POPC   C4A52578  31.691  35.546   7.277
 4071POPC   C1B52579  31.240  35.053   6.192
 4071POPC   C2B52580  31.349  35.110   6.614
 4071POPC   C3B52581  31.344  35.269   7.028
 4071POPC   C4B52582  31.093  35.617   7.172
 4072POPC   NC352583  39.397  28.843   5.511
 4072POPC   PO452584  39.447  28.292   5.109
 4072POPC   GL152585  39.432  28.142   5.570
 4072POPC   GL252586  39.244  28.391   5.736
 4072POPC   C1A52587  39.602  28.111   6.038
 4072POPC   D2A52588  39.553  27.997   6.495
 4072POPC   C3A52589  39.234  28.112   6.789
 4072POPC   C4A52590  39.485  28.220   7.156
 4072POPC   C1B52591  39.119  28.396   6.174
 4072POPC   C2B52592  39.246  28.572   6.549
 4072POPC   C3B52593  39.173  28.602   6.974
 4072POPC   C4B52594  39.487  28.756   7.211
 4073POPC   NC352595  14.562   5.343   5.384
 4073POPC   PO452596  14.857   4.772   5.179
 4073POPC   GL152597  14.468   4.906   5.608
 4073POPC   GL252598  14.108   4.863   5.780
 4073POPC   C1A52599  14.481   5.042   6.085
 4073POPC   D2A52600  14.408   4.909   6.539
 4073POPC   C3A52601  14.635   5.143   6.858
 4073POPC   C4A52602  14.484   5.406   7.211
 4073POPC   C1B52603  13.967   4.775   6.223
 4073POPC   C2B52604  13.880   4.916   6.660
 4073POPC   C3B52605  14.110   5.115   6.962
 4073POPC   C4B52606  14.342   4.882   7.192
 4074POPC   NC352607  43.185   4.708   5.242
 4074POPC   PO452608  43.094   5.338   5.397
 4074POPC   GL152609  43.235   4.993   5.663
 4074POPC   GL252610  42.951   4.969   5.832
 4074POPC   C1A52611  43.375   5.032   6.105
 4074POPC   D2A52612  43.452   5.425   6.350
 4074POPC   C3A52613  43.480   5.438   6.799
 4074POPC   C4A52614  43.314   5.666   7.163
 4074POPC   C1B52615  42.889   5.088   6.262
 4074POPC   C2B52616  43.124   5.124   6.632
 4074POPC   C3B52617  43.223   5.107   7.083
 4074POPC   C4B52618  42.917   5.274   7.367
 4075POPC   NC352619  30.372  18.549   5.434
 4075POPC   PO452620  30.829  18.077   5.624
 4075POPC   GL152621  30.664  18.348   5.941
 4075POPC   GL252622  30.538  18.699   5.895
 4075POPC   C1A52623  30.791  18.316   6.377
 4075POPC   D2A52624  31.028  18.027   6.600
 4075POPC   C3A52625  30.962  18.094   7.023
 4075POPC   C4A52626  30.579  18.129   7.202
 4075POPC   C1B52627  30.341  18.531   6.291
 4075POPC   C2B52628  30.385  18.340   6.732
 4075POPC   C3B52629  30.309  18.541   7.152
 4075POPC   C4B52630  30.433  18.456   7.604
 4076POPC   NC352631  29.310   5.166   5.442
 4076POPC   PO452632  28.843   5.430   5.697
 4076POPC   GL152633  29.151   5.213   5.926
 4076POPC   GL252634  29.222   4.872   5.858
 4076POPC   C1A52635  29.144   5.124   6.362
 4076POPC   D2A52636  29.315   5.354   6.703
 4076POPC   C3A52637  29.159   5.223   7.122
 4076POPC   C4A52638  29.358   5.153   7.520
 4076POPC   C1B52639  29.438   4.720   6.239
 4076POPC   C2B52640  29.435   4.843   6.705
 4076POPC   C3B52641  29.391   4.772   7.167
 4076POPC   C4B52642  29.093   4.710   7.537
 4077POPC   NC352643  35.801  17.326   5.675
 4077POPC   PO452644  36.326  17.159   5.286
 4077POPC   GL152645  36.530  17.466   5.704
 4077POPC   GL252646  36.214  17.656   5.830
 4077POPC   C1A52647  36.518  17.584   6.218
 4077POPC   D2A52648  36.297  17.695   6.637
 4077POPC   C3A52649  36.526  17.670   7.054
 4077POPC   C4A52650  36.388  17.625   7.487
 4077POPC   C1B52651  35.940  17.666   6.237
 4077POPC   C2B52652  35.738  17.376   6.585
 4077POPC   C3B52653  35.856  17.351   7.023
 4077POPC   C4B52654  36.032  17.752   7.141
 4078POPC   NC352655  28.496  25.627   5.519
 4078POPC   PO452656  28.309  25.023   5.405
 4078POPC   GL152657  28.414  25.209   5.794
 4078POPC   GL252658  28.132  25.442   5.860
 4078POPC   C1A52659  28.539  25.389   6.208
 4078POPC   D2A52660  28.449  25.200   6.628
 4078POPC   C3A52661  28.520  25.384   7.058
 4078POPC   C4A52662  28.529  25.166   7.468
 4078POPC   C1B52663  28.110  25.099   6.183
 4078POPC   C2B52664  28.112  24.812   6.526
 4078POPC   C3B52665  27.999  24.999   6.916
 4078POPC   C4B52666  28.032  25.295   7.297
 4079POPC   NC352667  23.536   4.358   5.417
 4079POPC   PO452668  24.190   4.379   5.389
 4079POPC   GL152669  23.914   4.317   5.777
 4079POPC   GL252670  23.667   4.016   5.776
 4079POPC   C1A52671  23.866   4.280   6.227
 4079POPC   D2A52672  23.866   4.565   6.608
 4079POPC   C3A52673  23.824   4.367   6.968
 4079POPC   C4A52674  23.721   4.074   7.261
 4079POPC   C1B52675  23.387   4.136   6.111
 4079POPC   C2B52676  23.488   4.162   6.548
 4079POPC   C3B52677  23.353   4.184   6.944
 4079POPC   C4B52678  23.262   3.885   7.222
 4080POPC   NC352679  12.091  29.821   5.404
 4080POPC   PO452680  12.271  30.361   5.118
 4080POPC   GL152681  12.410  30.113   5.669
 4080POPC   GL252682  12.290  29.793   5.856
 4080POPC   C1A52683  12.262  30.175   6.179
 4080POPC   D2A52684  12.267  29.978   6.630
 4080POPC   C3A52685  12.245  30.190   7.070
 4080POPC   C4A52686  12.483  30.060   7.456
 4080POPC   C1B52687  12.060  29.685   6.236
 4080POPC   C2B52688  11.941  29.564   6.674
 4080POPC   C3B52689  11.877  29.669   7.127
 4080POPC   C4B52690  11.752  29.717   7.580
 4081POPC   NC352691  35.833   8.535   5.338
 4081POPC   PO452692  36.019   9.178   5.223
 4081POPC   GL152693  35.935   8.935   5.668
 4081POPC   GL252694  36.181   8.727   5.798
 4081POPC   C1A52695  35.944   8.927   6.184
 4081POPC   D2A52696  36.070   9.258   6.495
 4081POPC   C3A52697  36.056   9.111   6.933
 4081POPC   C4A52698  35.789   9.370   7.205
 4081POPC   C1B52699  36.444   8.979   6.056
 4081POPC   C2B52700  36.438   8.903   6.475
 4081POPC   C3B52701  36.478   8.763   6.877
 4081POPC   C4B52702  36.268   8.688   7.231
 4082POPC   NC352703  20.296  13.941   5.536
 4082POPC   PO452704  20.840  13.648   5.145
 4082POPC   GL152705  20.837  13.684   5.616
 4082POPC   GL252706  20.538  13.499   5.762
 4082POPC   C1A52707  20.859  13.641   6.095
 4082POPC   D2A52708  20.580  13.641   6.452
 4082POPC   C3A52709  20.600  13.369   6.820
 4082POPC   C4A52710  20.872  13.541   7.137
 4082POPC   C1B52711  20.289  13.347   6.137
 4082POPC   C2B52712  20.120  13.457   6.564
 4082POPC   C3B52713  20.282  13.762   6.875
 4082POPC   C4B52714  20.517  13.903   7.228
 4083POPC   NC352715   0.921  16.833   5.414
 4083POPC   PO452716   0.192  16.812   5.402
 4083POPC   GL152717   0.473  16.868   5.720
 4083POPC   GL252718   0.663  16.602   5.824
 4083POPC   C1A52719   0.454  16.857   6.190
 4083POPC   D2A52720   0.440  16.897   6.645
 4083POPC   C3A52721   0.108  16.692   6.855
 4083POPC   C4A52722   0.055  16.946   7.189
 4083POPC   C1B52723   0.885  16.569   6.240
 4083POPC   C2B52724   1.114  16.416   6.637
 4083POPC   C3B52725   0.938  16.511   7.064
 4083POPC   C4B52726   0.525  16.663   7.163
 4084POPC   NC352727  15.140  35.931   5.454
 4084POPC   PO452728  14.978  36.543   5.155
 4084POPC   GL152729  15.075  36.503   5.676
 4084POPC   GL252730  15.070  36.161   5.908
 4084POPC   C1A52731  15.305  36.531   6.128
 4084POPC   D2A52732  15.328  36.177   6.411
 4084POPC   C3A52733  15.378  36.178   6.871
 4084POPC   C4A52734  15.454  35.933   7.248
 4084POPC   C1B52735  14.827  36.404   6.200
 4084POPC   C2B52736  14.975  36.507   6.623
 4084POPC   C3B52737  14.874  36.286   6.970
 4084POPC   C4B52738  14.763  36.297   7.364
 4085POPC   NC352739  28.478  12.967   5.438
 4085POPC   PO452740  28.108  12.350   5.230
 4085POPC   GL152741  28.152  12.519   5.681
 4085POPC   GL252742  27.994  12.861   5.678
 4085POPC   C1A52743  28.333  12.734   6.082
 4085POPC   D2A52744  28.493  12.697   6.526
 4085POPC   C3A52745  28.526  13.064   6.776
 4085POPC   C4A52746  28.458  13.008   7.221
 4085POPC   C1B52747  28.023  13.159   6.040
 4085POPC   C2B52748  28.131  13.137   6.460
 4085POPC   C3B52749  28.045  13.106   6.913
 4085POPC   C4B52750  27.957  13.082   7.337
 4086POPC   NC352751  22.536   5.604   5.541
 4086POPC   PO452752  22.886   6.150   5.491
 4086POPC   GL152753  22.951   5.842   5.784
 4086POPC   GL252754  23.245   5.954   5.931
 4086POPC   C1A52755  22.778   5.767   6.183
 4086POPC   D2A52756  22.911   5.816   6.603
 4086POPC   C3A52757  22.633   5.626   6.913
 4086POPC   C4A52758  22.652   5.806   7.300
 4086POPC   C1B52759  23.287   5.554   6.100
 4086POPC   C2B52760  23.358   5.463   6.539
 4086POPC   C3B52761  23.122   5.474   6.935
 4086POPC   C4B52762  23.169   5.687   7.359
 4087POPC   NC352763   5.437  21.342   5.685
 4087POPC   PO452764   5.104  21.785   5.218
 4087POPC   GL152765   5.038  21.716   5.752
 4087POPC   GL252766   5.309  21.671   6.041
 4087POPC   C1A52767   4.845  21.557   6.189
 4087POPC   D2A52768   5.024  21.621   6.644
 4087POPC   C3A52769   4.868  21.367   7.020
 4087POPC   C4A52770   4.920  21.473   7.483
 4087POPC   C1B52771   5.268  21.290   6.295
 4087POPC   C2B52772   5.189  21.109   6.667
 4087POPC   C3B52773   5.367  21.359   6.974
 4087POPC   C4B52774   5.313  21.197   7.364
 4088POPC   NC352775  11.821  20.448   5.369
 4088POPC   PO452776  12.173  20.973   5.511
 4088POPC   GL152777  12.011  20.659   5.810
 4088POPC   GL252778  12.293  20.421   5.783
 4088POPC   C1A52779  11.985  20.723   6.274
 4088POPC   D2A52780  12.346  20.753   6.584
 4088POPC   C3A52781  12.251  20.702   7.045
 4088POPC   C4A52782  12.087  20.989   7.352
 4088POPC   C1B52783  12.297  20.328   6.246
 4088POPC   C2B52784  12.030  20.286   6.614
 4088POPC   C3B52785  12.095  20.139   7.033
 4088POPC   C4B52786  12.332  20.176   7.408
 4089POPC   NC352787  39.892   3.617   5.457
 4089POPC   PO452788  40.490   3.387   5.418
 4089POPC   GL152789  40.257   3.589   5.806
 4089POPC   GL252790  39.883   3.444   5.923
 4089POPC   C1A52791  40.314   3.847   6.211
 4089POPC   D2A52792  40.198   3.972   6.651
 4089POPC   C3A52793  40.313   3.713   7.030
 4089POPC   C4A52794  40.239   3.504   7.439
 4089POPC   C1B52795  39.887   3.594   6.341
 4089POPC   C2B52796  39.856   3.588   6.786
 4089POPC   C3B52797  39.785   3.548   7.209
 4089POPC   C4B52798  39.763   3.451   7.644
 4090POPC   NC352799  37.812  20.282   5.610
 4090POPC   PO452800  37.263  20.589   5.458
 4090POPC   GL152801  37.454  20.535   5.866
 4090POPC   GL252802  37.779  20.749   5.874
 4090POPC   C1A52803  37.611  20.253   6.239
 4090POPC   D2A52804  37.576  20.050   6.660
 4090POPC   C3A52805  37.540  20.328   7.035
 4090POPC   C4A52806  37.322  20.766   7.056
 4090POPC   C1B52807  37.536  20.820   6.261
 4090POPC   C2B52808  37.547  20.619   6.614
 4090POPC   C3B52809  37.815  20.745   6.916
 4090POPC   C4B52810  38.108  20.774   7.195
 4091POPC   NC352811  19.716  16.865   5.403
 4091POPC   PO452812  20.213  16.392   5.292
 4091POPC   GL152813  20.094  16.619   5.686
 4091POPC   GL252814  19.980  16.961   5.822
 4091POPC   C1A52815  20.143  16.600   6.141
 4091POPC   D2A52816  20.207  16.807   6.533
 4091POPC   C3A52817  19.973  16.579   6.849
 4091POPC   C4A52818  20.142  16.420   7.232
 4091POPC   C1B52819  19.787  16.955   6.238
 4091POPC   C2B52820  19.768  17.097   6.675
 4091POPC   C3B52821  19.861  16.998   7.096
 4091POPC   C4B52822  19.705  16.640   7.293
 4092POPC   NC352823  10.764   1.423   5.482
 4092POPC   PO452824  10.554   0.746   5.518
 4092POPC   GL152825  10.736   1.003   5.808
 4092POPC   GL252826  10.468   1.233   5.839
 4092POPC   C1A52827  10.972   1.067   6.216
 4092POPC   D2A52828  11.018   0.929   6.677
 4092POPC   C3A52829  10.653   1.080   6.978
 4092POPC   C4A52830  10.246   0.883   7.121
 4092POPC   C1B52831  10.344   1.485   6.157
 4092POPC   C2B52832  10.530   1.486   6.545
 4092POPC   C3B52833  10.254   1.378   6.852
 4092POPC   C4B52834  10.318   1.481   7.237
 4093POPC   NC352835   0.859  29.130   5.283
 4093POPC   PO452836   1.391  28.833   5.595
 4093POPC   GL152837   1.269  29.188   5.797
 4093POPC   GL252838   0.913  29.073   5.797
 4093POPC   C1A52839   1.520  29.243   6.178
 4093POPC   D2A52840   1.525  28.840   6.446
 4093POPC   C3A52841   1.505  28.923   6.885
 4093POPC   C4A52842   1.691  29.250   7.064
 4093POPC   C1B52843   1.074  28.966   6.221
 4093POPC   C2B52844   1.186  29.263   6.560
 4093POPC   C3B52845   1.151  29.270   6.994
 4093POPC   C4B52846   1.073  28.925   7.234
 4094POPC   NC352847  42.779  35.704   5.139
 4094POPC   PO452848  42.270  36.063   5.460
 4094POPC   GL152849  42.235  36.359   5.784
 4094POPC   GL252850  42.518  36.198   5.921
 4094POPC   C1A52851  42.384  36.567   6.200
 4094POPC   D2A52852  42.450  36.404   6.629
 4094POPC   C3A52853  42.503  36.570   7.054
 4094POPC   C4A52854  42.413  36.403   7.508
 4094POPC   C1B52855  42.191  36.106   6.248
 4094POPC   C2B52856  42.045  36.086   6.658
 4094POPC   C3B52857  42.161  36.182   7.045
 4094POPC   C4B52858  42.052  36.019   7.410
 4095POPC   NC352859  39.769   8.031   5.514
 4095POPC   PO452860  40.210   8.545   5.485
 4095POPC   GL152861  40.076   8.329   5.836
 4095POPC   GL252862  40.208   7.970   5.809
 4095POPC   C1A52863  39.841   8.465   6.209
 4095POPC   D2A52864  39.514   8.458   6.525
 4095POPC   C3A52865  39.689   8.568   6.909
 4095POPC   C4A52866  39.971   8.520   7.248
 4095POPC   C1B52867  40.239   8.132   6.270
 4095POPC   C2B52868  39.957   8.163   6.647
 4095POPC   C3B52869  39.970   8.026   7.074
 4095POPC   C4B52870  40.298   8.035   7.419
 4096POPC   NC352871  29.782  24.887   5.310
 4096POPC   PO452872  30.260  24.399   5.202
 4096POPC   GL152873  30.175  24.411   5.658
 4096POPC   GL252874  29.816  24.552   5.724
 4096POPC   C1A52875  30.252  24.440   6.123
 4096POPC   D2A52876  30.084  24.279   6.527
 4096POPC   C3A52877  30.169  24.515   6.911
 4096POPC   C4A52878  30.247  24.380   7.345
 4096POPC   C1B52879  29.737  24.439   6.170
 4096POPC   C2B52880  29.623  24.472   6.599
 4096POPC   C3B52881  29.705  24.317   7.004
 4096POPC   C4B52882  29.773  24.657   7.252
 4097POPC   NC352883  24.455  40.245   5.483
 4097POPC   PO452884  24.607  39.577   5.525
 4097POPC   GL152885  24.496  39.897   5.845
 4097POPC   GL252886  24.743  40.217   5.894
 4097POPC   C1A52887  24.235  39.815   6.210
 4097POPC   D2A52888  24.442  39.612   6.545
 4097POPC   C3A52889  24.362  39.732   6.928
 4097POPC   C4A52890  24.392  39.683   7.340
 4097POPC   C1B52891  24.507  40.241   6.253
 4097POPC   C2B52892  24.365  40.173   6.675
 4097POPC   C3B52893  24.570  40.179   7.086
 4097POPC   C4B52894  24.450  40.427   7.452
 4098POPC   NC352895   2.346  38.479   5.431
 4098POPC   PO452896   1.765  38.221   5.106
 4098POPC   GL152897   1.794  38.463   5.544
 4098POPC   GL252898   1.671  38.210   5.861
 4098POPC   C1A52899   1.933  38.628   5.965
 4098POPC   D2A52900   1.787  38.572   6.388
 4098POPC   C3A52901   2.022  38.382   6.725
 4098POPC   C4A52902   2.095  38.583   7.121
 4098POPC   C1B52903   1.797  38.072   6.285
 4098POPC   C2B52904   1.582  38.061   6.680
 4098POPC   C3B52905   1.643  38.255   7.067
 4098POPC   C4B52906   1.727  38.219   7.478
 4099POPC   NC352907   1.437  31.038   5.372
 4099POPC   PO452908   1.033  30.560   5.600
 4099POPC   GL152909   1.137  30.904   5.806
 4099POPC   GL252910   1.505  30.948   5.859
 4099POPC   C1A52911   1.089  30.933   6.228
 4099POPC   D2A52912   1.262  31.024   6.595
 4099POPC   C3A52913   1.133  30.877   7.016
 4099POPC   C4A52914   1.118  31.011   7.433
 4099POPC   C1B52915   1.472  30.569   6.100
 4099POPC   C2B52916   1.365  30.525   6.515
 4099POPC   C3B52917   1.578  30.710   6.840
 4099POPC   C4B52918   1.574  30.699   7.251
 4100POPC   NC352919  26.934  43.580   5.448
 4100POPC   PO452920  26.548  43.002   5.430
 4100POPC   GL152921  26.559  43.293   5.759
 4100POPC   GL252922  26.897  43.233   5.844
 4100POPC   C1A52923  26.499  43.194   6.209
 4100POPC   D2A52924  26.635  42.857   6.524
 4100POPC   C3A52925  26.557  42.969   6.983
 4100POPC   C4A52926  26.750  42.861   7.403
 4100POPC   C1B52927  26.988  43.282   6.273
 4100POPC   C2B52928  26.870  43.267   6.701
 4100POPC   C3B52929  27.038  43.153   7.078
 4100POPC   C4B52930  27.337  43.323   7.327
 4101POPC   NC352931  24.099   5.761   5.426
 4101POPC   PO452932  24.699   6.002   5.287
 4101POPC   GL152933  24.487   5.970   5.705
 4101POPC   GL252934  24.426   5.632   5.807
 4101POPC   C1A52935  24.458   6.084   6.152
 4101POPC   D2A52936  24.237   5.969   6.558
 4101POPC   C3A52937  24.457   6.020   6.969
 4101POPC   C4A52938  24.468   6.005   7.435
 4101POPC   C1B52939  24.267   5.573   6.221
 4101POPC   C2B52940  24.376   5.464   6.661
 4101POPC   C3B52941  24.475   5.509   7.112
 4101POPC   C4B52942  24.552   5.522   7.572
 4102POPC   NC352943  40.715  38.297   5.295
 4102POPC   PO452944  41.042  38.904   5.291
 4102POPC   GL152945  40.877  38.626   5.666
 4102POPC   GL252946  41.042  38.289   5.707
 4102POPC   C1A52947  40.752  38.514   6.123
 4102POPC   D2A52948  40.558  38.366   6.537
 4102POPC   C3A52949  40.715  38.528   6.961
 4102POPC   C4A52950  40.791  38.551   7.427
 4102POPC   C1B52951  41.164  37.963   6.006
 4102POPC   C2B52952  41.351  37.939   6.431
 4102POPC   C3B52953  41.364  38.040   6.871
 4102POPC   C4B52954  41.081  38.218   7.179
 4103POPC   NC352955  33.310  32.351   5.430
 4103POPC   PO452956  32.760  31.942   5.524
 4103POPC   GL152957  33.049  32.093   5.771
 4103POPC   GL252958  33.206  31.846   5.891
 4103POPC   C1A52959  32.987  32.386   6.100
 4103POPC   D2A52960  32.735  32.441   6.489
 4103POPC   C3A52961  32.952  32.541   6.899
 4103POPC   C4A52962  33.041  32.213   7.190
 4103POPC   C1B52963  32.829  31.893   6.185
 4103POPC   C2B52964  32.676  31.648   6.504
 4103POPC   C3B52965  32.874  31.657   6.898
 4103POPC   C4B52966  32.975  31.663   7.304
 4104POPC   NC352967  43.040   0.712   5.340
 4104POPC   PO452968  43.508   0.248   5.449
 4104POPC   GL152969  43.219   0.408   5.788
 4104POPC   GL252970  43.368   0.722   5.789
 4104POPC   C1A52971  43.020   0.442   6.227
 4104POPC   D2A52972  42.824   0.339   6.631
 4104POPC   C3A52973  42.936   0.543   7.038
 4104POPC   C4A52974  42.919   0.493   7.504
 4104POPC   C1B52975  43.469   0.670   6.226
 4104POPC   C2B52976  43.273   0.665   6.636
 4104POPC   C3B52977  43.444   0.657   7.048
 4104POPC   C4B52978  43.380   0.689   7.483
 4105POPC   NC352979  34.983  24.901   5.485
 4105POPC   PO452980  35.639  24.596   5.378
 4105POPC   GL152981  35.438  24.634   5.783
 4105POPC   GL252982  35.363  24.291   5.856
 4105POPC   C1A52983  35.358  24.660   6.250
 4105POPC   D2A52984  35.664  24.694   6.599
 4105POPC   C3A52985  35.543  24.837   7.030
 4105POPC   C4A52986  35.155  24.728   7.283
 4105POPC   C1B52987  35.001  24.290   6.151
 4105POPC   C2B52988  34.826  24.374   6.545
 4105POPC   C3B52989  35.067  24.408   6.904
 4105POPC   C4B52990  34.951  24.217   7.272
 4106POPC   NC352991  42.221  25.719   5.222
 4106POPC   PO452992  42.362  26.272   5.419
 4106POPC   GL152993  42.399  25.961   5.696
 4106POPC   GL252994  42.039  25.872   5.751
 4106POPC   C1A52995  42.556  25.921   6.091
 4106POPC   D2A52996  42.524  26.184   6.454
 4106POPC   C3A52997  42.513  26.023   6.839
 4106POPC   C4A52998  42.512  26.097   7.259
 4106POPC   C1B52999  42.077  26.085   6.171
 4106POPC   C2B53000  42.032  25.967   6.611
 4106POPC   C3B53001  42.042  26.097   7.044
 4106POPC   C4B53002  42.091  25.998   7.495
 4107POPC   NC353003  31.530  21.740   5.682
 4107POPC   PO453004  31.215  21.144   5.473
 4107POPC   GL153005  31.397  21.253   5.847
 4107POPC   GL253006  31.717  21.148   5.844
 4107POPC   C1A53007  31.495  21.313   6.280
 4107POPC   D2A53008  31.377  21.205   6.687
 4107POPC   C3A53009  31.588  21.520   6.921
 4107POPC   C4A53010  31.418  21.809   7.227
 4107POPC   C1B53011  31.799  20.887   6.216
 4107POPC   C2B53012  32.055  20.875   6.591
 4107POPC   C3B53013  31.982  21.122   6.980
 4107POPC   C4B53014  31.709  21.231   7.326
 4108POPC   NC353015  10.209  14.888   5.445
 4108POPC   PO453016   9.668  15.042   5.170
 4108POPC   GL153017   9.674  15.013   5.597
 4108POPC   GL253018   9.535  14.710   5.718
 4108POPC   C1A53019   9.751  15.231   5.985
 4108POPC   D2A53020   9.651  15.108   6.421
 4108POPC   C3A53021   9.855  15.286   6.794
 4108POPC   C4A53022   9.705  15.251   7.221
 4108POPC   C1B53023   9.837  14.744   6.085
 4108POPC   C2B53024  10.005  14.710   6.534
 4108POPC   C3B53025   9.827  14.812   6.984
 4108POPC   C4B53026   9.772  14.823   7.464
 4109POPC   NC353027  41.880  23.919   5.436
 4109POPC   PO453028  42.480  23.592   5.546
 4109POPC   GL153029  42.403  23.945   5.792
 4109POPC   GL253030  42.594  23.800   6.066
 4109POPC   C1A53031  42.115  24.029   6.131
 4109POPC   D2A53032  42.181  24.080   6.586
 4109POPC   C3A53033  42.518  23.822   6.782
 4109POPC   C4A53034  42.399  23.685   7.171
 4109POPC   C1B53035  42.296  23.596   6.355
 4109POPC   C2B53036  42.070  23.546   6.738
 4109POPC   C3B53037  42.119  23.293   7.080
 4109POPC   C4B53038  42.271  23.337   7.513
 4110POPC   NC353039   0.659  24.135   5.426
 4110POPC   PO453040   0.014  24.319   5.292
 4110POPC   GL153041   0.183  24.512   5.719
 4110POPC   GL253042   0.528  24.466   5.819
 4110POPC   C1A53043   0.105  24.738   6.108
 4110POPC   D2A53044   0.233  24.577   6.510
 4110POPC   C3A53045   0.110  24.730   6.901
 4110POPC   C4A53046   0.370  24.606   7.224
 4110POPC   C1B53047   0.625  24.240   6.182
 4110POPC   C2B53048   0.553  24.180   6.615
 4110POPC   C3B53049   0.694  24.250   7.031
 4110POPC   C4B53050   0.547  24.140   7.462
 4111POPC   NC353051  31.538  42.198   5.455
 4111POPC   PO453052  31.596  42.788   5.339
 4111POPC   GL153053  31.673  42.609   5.763
 4111POPC   GL253054  31.352  42.501   5.889
 4111POPC   C1A53055  31.741  42.344   6.169
 4111POPC   D2A53056  31.510  42.207   6.549
 4111POPC   C3A53057  31.572  42.429   6.945
 4111POPC   C4A53058  31.328  42.774   7.081
 4111POPC   C1B53059  31.186  42.116   6.078
 4111POPC   C2B53060  31.098  41.845   6.427
 4111POPC   C3B53061  31.142  41.946   6.845
 4111POPC   C4B53062  31.343  42.029   7.188
 4112POPC   NC353063   5.914   5.251   5.064
 4112POPC   PO453064   5.673   5.239   5.668
 4112POPC   GL153065   5.873   5.154   5.994
 4112POPC   GL253066   6.109   5.427   5.940
 4112POPC   C1A53067   5.902   4.846   6.319
 4112POPC   D2A53068   5.879   5.017   6.722
 4112POPC   C3A53069   5.862   4.776   7.061
 4112POPC   C4A53070   5.787   4.886   7.450
 4112POPC   C1B53071   6.262   5.214   6.313
 4112POPC   C2B53072   6.323   5.257   6.736
 4112POPC   C3B53073   6.128   5.277   7.136
 4112POPC   C4B53074   5.697   5.340   7.230
 4113POPC   NC353075   4.566   5.467   5.674
 4113POPC   PO453076   3.897   5.512   5.520
 4113POPC   GL153077   4.107   5.877   5.783
 4113POPC   GL253078   4.501   5.986   5.829
 4113POPC   C1A53079   4.162   5.990   6.217
 4113POPC   D2A53080   4.342   5.839   6.589
 4113POPC   C3A53081   4.168   5.890   6.980
 4113POPC   C4A53082   4.355   5.643   7.322
 4113POPC   C1B53083   4.753   5.959   6.261
 4113POPC   C2B53084   4.765   6.120   6.732
 4113POPC   C3B53085   4.589   6.096   7.172
 4113POPC   C4B53086   4.738   5.897   7.561
 4114POPC   NC353087  16.987  19.494   5.407
 4114POPC   PO453088  16.665  18.855   5.416
 4114POPC   GL153089  16.557  18.976   5.839
 4114POPC   GL253090  16.645  19.329   5.822
 4114POPC   C1A53091  16.682  18.857   6.246
 4114POPC   D2A53092  16.819  18.980   6.638
 4114POPC   C3A53093  16.543  19.037   6.985
 4114POPC   C4A53094  16.768  18.970   7.358
 4114POPC   C1B53095  16.787  19.368   6.254
 4114POPC   C2B53096  16.660  19.471   6.686
 4114POPC   C3B53097  16.957  19.333   7.018
 4114POPC   C4B53098  17.121  19.356   7.432
 4115POPC   NC353099   4.575  28.185   5.449
 4115POPC   PO453100   4.092  28.534   5.105
 4115POPC   GL153101   4.120  28.454   5.593
 4115POPC   GL253102   4.168  28.096   5.759
 4115POPC   C1A53103   4.196  28.483   6.074
 4115POPC   D2A53104   4.169  28.242   6.476
 4115POPC   C3A53105   4.330  28.498   6.831
 4115POPC   C4A53106   4.146  28.585   7.242
 4115POPC   C1B53107   4.535  28.093   6.102
 4115POPC   C2B53108   4.666  28.037   6.548
 4115POPC   C3B53109   4.486  28.023   6.981
 4115POPC   C4B53110   4.593  28.360   7.272
 4116POPC   NC353111  13.935  42.562   5.041
 4116POPC   PO453112  14.552  42.603   5.251
 4116POPC   GL153113  14.446  42.453   5.690
 4116POPC   GL253114  14.146  42.223   5.725
 4116POPC   C1A53115  14.393  42.392   6.154
 4116POPC   D2A53116  14.239  42.597   6.526
 4116POPC   C3A53117  14.358  42.403   6.909
 4116POPC   C4A53118  14.356  42.541   7.313
 4116POPC   C1B53119  14.074  41.991   6.114
 4116POPC   C2B53120  14.171  42.078   6.522
 4116POPC   C3B53121  14.165  41.945   6.961
 4116POPC   C4B53122  14.255  42.038   7.432
 4117POPC   NC353123   1.070  23.626   5.481
 4117POPC   PO453124   1.776  23.623   5.367
 4117POPC   GL153125   1.649  23.446   5.792
 4117POPC   GL253126   1.307  23.584   5.930
 4117POPC   C1A53127   1.670  23.506   6.263
 4117POPC   D2A53128   1.341  23.692   6.548
 4117POPC   C3A53129   1.373  23.560   6.985
 4117POPC   C4A53130   1.376  23.714   7.388
 4117POPC   C1B53131   0.958  23.798   6.193
 4117POPC   C2B53132   0.802  23.730   6.632
 4117POPC   C3B53133   0.956  23.822   7.054
 4117POPC   C4B53134   0.881  23.752   7.473
 4118POPC   NC353135  21.646  35.504   5.324
 4118POPC   PO453136  21.082  35.204   5.415
 4118POPC   GL153137  21.238  35.407   5.818
 4118POPC   GL253138  21.617  35.455   5.841
 4118POPC   C1A53139  21.167  35.415   6.260
 4118POPC   D2A53140  21.344  35.152   6.590
 4118POPC   C3A53141  21.320  35.346   6.965
 4118POPC   C4A53142  21.294  35.283   7.357
 4118POPC   C1B53143  21.724  35.329   6.280
 4118POPC   C2B53144  21.756  35.475   6.728
 4118POPC   C3B53145  21.807  35.323   7.173
 4118POPC   C4B53146  21.666  35.486   7.608
 4119POPC   NC353147   5.050  31.508   5.188
 4119POPC   PO453148   5.516  31.061   5.445
 4119POPC   GL153149   5.156  31.243   5.662
 4119POPC   GL253150   5.096  31.608   5.700
 4119POPC   C1A53151   4.921  31.279   6.069
 4119POPC   D2A53152   4.794  31.491   6.449
 4119POPC   C3A53153   5.017  31.384   6.818
 4119POPC   C4A53154   5.114  31.478   7.259
 4119POPC   C1B53155   5.129  31.758   6.146
 4119POPC   C2B53156   5.273  31.774   6.574
 4119POPC   C3B53157   5.212  31.931   7.005
 4119POPC   C4B53158   5.464  31.952   7.384
 4120POPC   NC353159  33.601   8.712   5.143
 4120POPC   PO453160  33.596   8.103   5.447
 4120POPC   GL153161  33.710   8.055   5.830
 4120POPC   GL253162  33.825   8.387   5.873
 4120POPC   C1A53163  33.690   7.913   6.231
 4120POPC   D2A53164  33.755   8.165   6.571
 4120POPC   C3A53165  33.759   7.924   6.890
 4120POPC   C4A53166  33.727   7.756   7.284
 4120POPC   C1B53167  33.484   8.416   6.206
 4120POPC   C2B53168  33.298   8.410   6.608
 4120POPC   C3B53169  33.426   8.271   7.006
 4120POPC   C4B53170  33.715   8.254   7.352
 4121POPC   NC353171   2.140  22.477   5.465
 4121POPC   PO453172   1.671  21.881   5.304
 4121POPC   GL153173   1.901  22.081   5.723
 4121POPC   GL253174   1.814  22.436   5.839
 4121POPC   C1A53175   2.024  22.140   6.213
 4121POPC   D2A53176   2.309  22.048   6.608
 4121POPC   C3A53177   2.143  22.117   7.026
 4121POPC   C4A53178   2.170  22.015   7.480
 4121POPC   C1B53179   1.658  22.509   6.232
 4121POPC   C2B53180   1.777  22.395   6.638
 4121POPC   C3B53181   1.924  22.603   7.012
 4121POPC   C4B53182   2.033  22.519   7.457
 4122POPC   NC353183  31.131  13.891   5.370
 4122POPC   PO453184  31.267  13.261   5.604
 4122POPC   GL153185  31.489  13.563   5.869
 4122POPC   GL253186  31.612  13.895   5.758
 4122POPC   C1A53187  31.363  13.872   6.246
 4122POPC   D2A53188  31.533  13.849   6.655
 4122POPC   C3A53189  31.467  13.498   6.919
 4122POPC   C4A53190  31.329  13.566   7.330
 4122POPC   C1B53191  31.848  13.790   6.163
 4122POPC   C2B53192  32.044  13.876   6.558
 4122POPC   C3B53193  31.947  13.770   6.966
 4122POPC   C4B53194  31.825  13.524   7.289
 4123POPC   NC353195  43.889  23.642   5.291
 4123POPC   PO453196  43.834  24.312   5.395
 4123POPC   GL153197  43.731  23.953   5.741
 4123POPC   GL253198  43.917  23.614   5.834
 4123POPC   C1A53199  43.797  23.953   6.224
 4123POPC   D2A53200  43.944  23.793   6.644
 4123POPC   C3A53201  43.846  23.971   7.063
 4123POPC   C4A53202  44.022  24.017   7.500
 4123POPC   C1B53203  43.758  23.399   6.234
 4123POPC   C2B53204  43.817  23.281   6.696
 4123POPC   C3B53205  43.642  23.506   7.098
 4123POPC   C4B53206  43.747  23.507   7.586
 4124POPC   NC353207  37.370  41.680   5.587
 4124POPC   PO453208  37.884  41.373   5.336
 4124POPC   GL153209  37.734  41.355   5.775
 4124POPC   GL253210  37.845  41.629   6.014
 4124POPC   C1A53211  37.515  41.295   6.165
 4124POPC   D2A53212  37.748  41.460   6.503
 4124POPC   C3A53213  37.540  41.386   6.871
 4124POPC   C4A53214  37.577  41.489   7.241
 4124POPC   C1B53215  37.543  41.892   6.216
 4124POPC   C2B53216  37.376  42.105   6.564
 4124POPC   C3B53217  37.527  41.925   6.930
 4124POPC   C4B53218  37.441  41.979   7.348
 4125POPC   NC353219   2.090  41.050   5.397
 4125POPC   PO453220   2.100  40.356   5.377
 4125POPC   GL153221   2.052  40.605   5.768
 4125POPC   GL253222   1.872  40.949   5.857
 4125POPC   C1A53223   2.019  40.577   6.204
 4125POPC   D2A53224   2.233  40.747   6.526
 4125POPC   C3A53225   2.028  40.816   6.857
 4125POPC   C4A53226   1.985  40.494   7.158
 4125POPC   C1B53227   1.834  41.025   6.346
 4125POPC   C2B53228   1.557  40.801   6.630
 4125POPC   C3B53229   1.538  40.708   7.084
 4125POPC   C4B53230   1.863  40.982   7.302
 4126POPC   NC353231  25.318  13.070   5.365
 4126POPC   PO453232  25.249  12.388   5.574
 4126POPC   GL153233  25.397  12.771   5.793
 4126POPC   GL253234  25.080  12.929   5.804
 4126POPC   C1A53235  25.463  12.995   6.170
 4126POPC   D2A53236  25.343  12.881   6.569
 4126POPC   C3A53237  25.650  12.989   6.859
 4126POPC   C4A53238  25.468  13.043   7.246
 4126POPC   C1B53239  24.910  12.948   6.216
 4126POPC   C2B53240  24.860  13.117   6.612
 4126POPC   C3B53241  25.036  12.984   6.992
 4126POPC   C4B53242  25.131  12.689   7.341
 4127POPC   NC353243   5.847   4.825   5.598
 4127POPC   PO453244   6.391   4.423   5.509
 4127POPC   GL153245   6.096   4.433   5.864
 4127POPC   GL253246   5.785   4.187   5.834
 4127POPC   C1A53247   6.213   4.402   6.303
 4127POPC   D2A53248   5.976   4.456   6.681
 4127POPC   C3A53249   6.003   4.289   7.114
 4127POPC   C4A53250   6.030   4.464   7.554
 4127POPC   C1B53251   5.707   4.357   6.229
 4127POPC   C2B53252   5.534   4.204   6.597
 4127POPC   C3B53253   5.489   4.411   6.980
 4127POPC   C4B53254   5.553   4.316   7.383
 4128POPC   NC353255  27.629  13.473   5.409
 4128POPC   PO453256  27.361  14.092   5.241
 4128POPC   GL153257  27.620  13.938   5.698
 4128POPC   GL253258  27.562  13.594   5.886
 4128POPC   C1A53259  27.742  13.922   6.201
 4128POPC   D2A53260  27.987  13.956   6.641
 4128POPC   C3A53261  27.730  13.866   7.048
 4128POPC   C4A53262  27.372  13.728   7.350
 4128POPC   C1B53263  27.615  13.384   6.277
 4128POPC   C2B53264  27.786  13.479   6.673
 4128POPC   C3B53265  27.605  13.353   7.058
 4128POPC   C4B53266  27.445  13.218   7.476
 4129POPC   NC353267  37.214  34.424   5.630
 4129POPC   PO453268  36.598  34.495   5.354
 4129POPC   GL153269  36.708  34.413   5.777
 4129POPC   GL253270  36.829  34.740   5.853
 4129POPC   C1A53271  36.635  34.459   6.239
 4129POPC   D2A53272  36.722  34.707   6.632
 4129POPC   C3A53273  36.652  34.453   7.009
 4129POPC   C4A53274  36.484  34.549   7.416
 4129POPC   C1B53275  37.079  34.702   6.246
 4129POPC   C2B53276  37.175  34.479   6.646
 4129POPC   C3B53277  37.118  34.641   7.023
 4129POPC   C4B53278  37.391  34.659   7.301
 4130POPC   NC353279  20.742  44.891   5.293
 4130POPC   PO453280  20.525  44.326   5.638
 4130POPC   GL153281  20.802  44.434   5.885
 4130POPC   GL253282  20.855  44.763   5.775
 4130POPC   C1A53283  20.748  44.580   6.303
 4130POPC   D2A53284  20.978  44.769   6.609
 4130POPC   C3A53285  20.835  44.663   7.008
 4130POPC   C4A53286  20.822  44.518   7.413
 4130POPC   C1B53287  20.548  44.982   6.037
 4130POPC   C2B53288  20.592   0.173   6.445
 4130POPC   C3B53289  20.709   0.147   6.868
 4130POPC   C4B53290  20.463   0.006   7.201
 4131POPC   NC353291  25.772  16.759   5.077
 4131POPC   PO453292  26.167  16.945   5.614
 4131POPC   GL153293  25.950  16.740   5.916
 4131POPC   GL253294  26.254  16.636   6.016
 4131POPC   C1A53295  25.881  16.731   6.362
 4131POPC   D2A53296  25.742  16.744   6.752
 4131POPC   C3A53297  25.945  16.690   7.095
 4131POPC   C4A53298  25.866  16.491   7.452
 4131POPC   C1B53299  26.395  16.912   6.323
 4131POPC   C2B53300  26.201  17.024   6.706
 4131POPC   C3B53301  26.278  17.079   7.138
 4131POPC   C4B53302  26.279  16.778   7.497
 4132POPC   NC353303   9.298  41.311   5.440
 4132POPC   PO453304   9.865  41.760   5.334
 4132POPC   GL153305   9.878  41.809   5.798
 4132POPC   GL253306   9.503  41.753   5.799
 4132POPC   C1A53307  10.038  41.700   6.249
 4132POPC   D2A53308  10.211  41.443   6.624
 4132POPC   C3A53309   9.923  41.446   6.984
 4132POPC   C4A53310   9.646  41.760   7.163
 4132POPC   C1B53311   9.644  41.392   6.079
 4132POPC   C2B53312   9.611  41.364   6.537
 4132POPC   C3B53313   9.414  41.337   6.947
 4132POPC   C4B53314   9.524  41.310   7.388
 4133POPC   NC353315   8.367  23.836   5.376
 4133POPC   PO453316   7.720  23.843   5.334
 4133POPC   GL153317   7.854  23.709   5.761
 4133POPC   GL253318   7.824  24.080   5.832
 4133POPC   C1A53319   8.074  23.473   6.146
 4133POPC   D2A53320   8.170  23.591   6.592
 4133POPC   C3A53321   8.370  23.501   6.992
 4133POPC   C4A53322   8.458  23.841   7.250
 4133POPC   C1B53323   7.902  23.955   6.255
 4133POPC   C2B53324   7.747  23.870   6.654
 4133POPC   C3B53325   7.992  23.901   7.036
 4133POPC   C4B53326   7.876  24.035   7.446
 4134POPC   NC353327  38.412  17.886   5.437
 4134POPC   PO453328  38.716  17.274   5.512
 4134POPC   GL153329  38.416  17.496   5.844
 4134POPC   GL253330  38.187  17.805   5.874
 4134POPC   C1A53331  38.134  17.407   6.214
 4134POPC   D2A53332  38.186  17.218   6.608
 4134POPC   C3A53333  38.618  17.138   6.754
 4134POPC   C4A53334  38.665  17.293   7.171
 4134POPC   C1B53335  38.338  17.895   6.300
 4134POPC   C2B53336  38.206  17.709   6.703
 4134POPC   C3B53337  38.329  17.729   7.142
 4134POPC   C4B53338  38.386  17.996   7.505
 4135POPC   NC353339  15.711  43.195   5.098
 4135POPC   PO453340  15.319  42.799   5.528
 4135POPC   GL153341  15.337  43.115   5.827
 4135POPC   GL253342  14.988  43.128   5.818
 4135POPC   C1A53343  15.253  43.033   6.275
 4135POPC   D2A53344  15.214  42.763   6.628
 4135POPC   C3A53345  15.430  42.849   7.008
 4135POPC   C4A53346  15.533  42.950   7.487
 4135POPC   C1B53347  14.801  43.269   6.219
 4135POPC   C2B53348  14.652  43.408   6.604
 4135POPC   C3B53349  14.777  43.363   7.039
 4135POPC   C4B53350  15.140  43.194   7.247
 4136POPC   NC353351   1.945  37.591   5.529
 4136POPC   PO453352   1.984  36.994   5.130
 4136POPC   GL153353   1.935  37.072   5.597
 4136POPC   GL253354   2.219  37.241   5.757
 4136POPC   C1A53355   1.844  36.862   6.029
 4136POPC   D2A53356   1.744  36.960   6.513
 4136POPC   C3A53357   1.926  36.747   6.895
 4136POPC   C4A53358   2.251  36.774   7.243
 4136POPC   C1B53359   2.046  37.282   6.194
 4136POPC   C2B53360   2.084  37.309   6.665
 4136POPC   C3B53361   1.993  37.209   7.116
 4136POPC   C4B53362   2.045  37.134   7.597
 4137POPC   NC353363  22.156  36.282   5.219
 4137POPC   PO453364  22.065  35.646   5.406
 4137POPC   GL153365  22.001  35.952   5.727
 4137POPC   GL253366  22.321  36.092   5.728
 4137POPC   C1A53367  22.032  36.179   6.154
 4137POPC   D2A53368  22.301  36.287   6.544
 4137POPC   C3A53369  22.088  36.120   6.925
 4137POPC   C4A53370  21.854  36.224   7.293
 4137POPC   C1B53371  22.514  35.970   6.157
 4137POPC   C2B53372  22.703  35.958   6.590
 4137POPC   C3B53373  22.571  35.950   7.028
 4137POPC   C4B53374  22.357  36.184   7.350
 4138POPC   NC353375  32.358  21.424   5.284
 4138POPC   PO453376  31.974  21.864   5.697
 4138POPC   GL153377  32.149  21.422   5.780
 4138POPC   GL253378  32.502  21.305   5.761
 4138POPC   C1A53379  32.170  21.240   6.200
 4138POPC   D2A53380  32.340  21.309   6.631
 4138POPC   C3A53381  32.096  21.647   6.832
 4138POPC   C4A53382  31.938  21.709   7.255
 4138POPC   C1B53383  32.672  21.340   6.171
 4138POPC   C2B53384  32.869  21.330   6.582
 4138POPC   C3B53385  32.733  21.282   6.998
 4138POPC   C4B53386  32.359  21.401   7.176
 4139POPC   NC353387  34.085   5.736   5.682
 4139POPC   PO453388  34.714   5.900   5.439
 4139POPC   GL153389  34.584   5.795   5.878
 4139POPC   GL253390  34.805   5.554   6.065
 4139POPC   C1A53391  34.610   5.939   6.326
 4139POPC   D2A53392  34.650   5.715   6.706
 4139POPC   C3A53393  34.724   5.948   7.096
 4139POPC   C4A53394  34.911   6.145   7.475
 4139POPC   C1B53395  34.382   5.484   6.281
 4139POPC   C2B53396  34.154   5.545   6.702
 4139POPC   C3B53397  34.354   5.566   7.103
 4139POPC   C4B53398  34.747   5.371   7.154
 4140POPC   NC353399  35.843   6.212   5.694
 4140POPC   PO453400  35.395   6.601   5.227
 4140POPC   GL153401  35.497   6.619   5.713
 4140POPC   GL253402  35.183   6.484   5.881
 4140POPC   C1A53403  35.586   6.592   6.199
 4140POPC   D2A53404  35.484   6.782   6.637
 4140POPC   C3A53405  35.578   6.649   7.068
 4140POPC   C4A53406  35.478   6.889   7.425
 4140POPC   C1B53407  34.929   6.325   6.233
 4140POPC   C2B53408  34.961   6.161   6.665
 4140POPC   C3B53409  35.024   6.473   7.001
 4140POPC   C4B53410  34.982   6.768   7.316
 4141POPC   NC353411  38.135  30.232   5.583
 4141POPC   PO453412  38.589  29.818   5.249
 4141POPC   GL153413  38.624  29.895   5.748
 4141POPC   GL253414  38.353  30.039   6.007
 4141POPC   C1A53415  38.638  29.686   6.190
 4141POPC   D2A53416  38.357  29.767   6.568
 4141POPC   C3A53417  38.570  29.608   6.983
 4141POPC   C4A53418  38.797  29.853   7.349
 4141POPC   C1B53419  38.640  30.197   6.330
 4141POPC   C2B53420  38.724  30.055   6.760
 4141POPC   C3B53421  38.405  30.058   7.120
 4141POPC   C4B53422  38.496  30.186   7.573
 4142POPC   NC353423   9.260   6.123   5.613
 4142POPC   PO453424   8.875   6.627   5.338
 4142POPC   GL153425   8.824   6.609   5.783
 4142POPC   GL253426   8.834   6.953   5.831
 4142POPC   C1A53427   8.715   6.416   6.181
 4142POPC   D2A53428   8.583   6.594   6.585
 4142POPC   C3A53429   8.840   6.640   6.968
 4142POPC   C4A53430   9.068   6.400   7.301
 4142POPC   C1B53431   8.999   6.897   6.246
 4142POPC   C2B53432   9.329   6.661   6.490
 4142POPC   C3B53433   9.357   6.672   6.938
 4142POPC   C4B53434   9.152   6.887   7.297
 4143POPC   NC353435  30.246   5.099   5.458
 4143POPC   PO453436  29.583   4.801   5.504
 4143POPC   GL153437  29.818   5.119   5.734
 4143POPC   GL253438  29.626   5.410   5.772
 4143POPC   C1A53439  30.110   5.223   6.108
 4143POPC   D2A53440  30.283   4.979   6.469
 4143POPC   C3A53441  30.230   5.157   6.900
 4143POPC   C4A53442  30.368   5.063   7.311
 4143POPC   C1B53443  29.613   5.197   6.187
 4143POPC   C2B53444  29.809   5.179   6.587
 4143POPC   C3B53445  29.677   5.209   7.030
 4143POPC   C4B53446  29.858   5.139   7.422
 4144POPC   NC353447  36.209  22.453   5.419
 4144POPC   PO453448  35.802  21.985   5.287
 4144POPC   GL153449  36.006  22.037   5.728
 4144POPC   GL253450  36.164  22.345   5.899
 4144POPC   C1A53451  36.077  21.874   6.156
 4144POPC   D2A53452  35.888  21.934   6.574
 4144POPC   C3A53453  36.120  21.826   6.941
 4144POPC   C4A53454  36.074  21.947   7.349
 4144POPC   C1B53455  35.961  22.345   6.282
 4144POPC   C2B53456  35.726  22.412   6.628
 4144POPC   C3B53457  35.877  22.308   7.022
 4144POPC   C4B53458  35.685  22.263   7.407
 4145POPC   NC353459  30.915  13.031   5.414
 4145POPC   PO453460  30.278  13.222   5.461
 4145POPC   GL153461  30.540  13.213   5.869
 4145POPC   GL253462  30.897  13.085   5.926
 4145POPC   C1A53463  30.534  13.082   6.335
 4145POPC   D2A53464  30.592  12.705   6.623
 4145POPC   C3A53465  30.668  12.793   7.074
 4145POPC   C4A53466  30.419  12.737   7.452
 4145POPC   C1B53467  31.046  13.004   6.356
 4145POPC   C2B53468  30.901  13.120   6.751
 4145POPC   C3B53469  31.015  13.205   7.162
 4145POPC   C4B53470  31.113  13.203   7.601
 4146POPC   NC353471  35.200  16.609   5.571
 4146POPC   PO453472  35.348  17.203   5.488
 4146POPC   GL153473  35.473  16.980   5.850
 4146POPC   GL253474  35.436  16.640   6.021
 4146POPC   C1A53475  35.456  17.088   6.258
 4146POPC   D2A53476  35.379  16.780   6.562
 4146POPC   C3A53477  35.491  16.965   6.959
 4146POPC   C4A53478  35.554  16.696   7.310
 4146POPC   C1B53479  35.134  16.386   6.294
 4146POPC   C2B53480  35.037  16.263   6.739
 4146POPC   C3B53481  35.201  16.358   7.162
 4146POPC   C4B53482  35.150  16.385   7.601
 4147POPC   NC353483  30.910  26.354   5.577
 4147POPC   PO453484  30.620  25.722   5.573
 4147POPC   GL153485  30.645  25.996   5.916
 4147POPC   GL253486  30.561  26.338   5.937
 4147POPC   C1A53487  30.888  26.085   6.287
 4147POPC   D2A53488  31.082  26.228   6.670
 4147POPC   C3A53489  30.806  26.000   6.973
 4147POPC   C4A53490  30.816  25.786   7.362
 4147POPC   C1B53491  30.553  26.499   6.271
 4147POPC   C2B53492  30.599  26.358   6.632
 4147POPC   C3B53493  30.775  26.523   6.939
 4147POPC   C4B53494  30.582  26.379   7.231
 4148POPC   NC353495  25.527  36.897   5.604
 4148POPC   PO453496  25.037  36.784   5.157
 4148POPC   GL153497  25.017  36.874   5.695
 4148POPC   GL253498  25.179  37.184   5.856
 4148POPC   C1A53499  25.142  36.821   6.209
 4148POPC   D2A53500  25.294  36.690   6.656
 4148POPC   C3A53501  25.309  36.882   7.091
 4148POPC   C4A53502  25.401  36.804   7.553
 4148POPC   C1B53503  25.437  37.269   6.229
 4148POPC   C2B53504  25.361  37.210   6.660
 4148POPC   C3B53505  25.536  37.357   7.054
 4148POPC   C4B53506  25.355  37.298   7.436
 4149POPC   NC353507  25.520  35.157   5.369
 4149POPC   PO453508  25.172  35.796   5.352
 4149POPC   GL153509  25.163  35.525   5.721
 4149POPC   GL253510  25.498  35.424   5.817
 4149POPC   C1A53511  25.173  35.562   6.190
 4149POPC   D2A53512  24.921  35.483   6.529
 4149POPC   C3A53513  25.128  35.651   6.868
 4149POPC   C4A53514  25.097  35.501   7.301
 4149POPC   C1B53515  25.301  35.083   6.096
 4149POPC   C2B53516  25.336  35.167   6.544
 4149POPC   C3B53517  25.450  35.259   6.957
 4149POPC   C4B53518  25.360  35.072   7.337
 4150POPC   NC353519  40.367   9.863   5.561
 4150POPC   PO453520  39.707   9.709   5.433
 4150POPC   GL153521  39.728   9.719   5.883
 4150POPC   GL253522  39.891  10.039   5.875
 4150POPC   C1A53523  40.039   9.723   6.258
 4150POPC   D2A53524  40.412   9.740   6.560
 4150POPC   C3A53525  40.270   9.888   6.959
 4150POPC   C4A53526  39.970   9.768   7.257
 4150POPC   C1B53527  39.696  10.125   6.266
 4150POPC   C2B53528  39.791   9.992   6.697
 4150POPC   C3B53529  39.687  10.165   7.114
 4150POPC   C4B53530  39.863  10.175   7.556
 4151POPC   NC353531   1.095   5.019   5.427
 4151POPC   PO453532   1.609   5.422   5.612
 4151POPC   GL153533   1.329   5.338   5.937
 4151POPC   GL253534   1.013   5.167   5.893
 4151POPC   C1A53535   1.164   5.318   6.354
 4151POPC   D2A53536   1.123   5.059   6.684
 4151POPC   C3A53537   1.288   5.190   7.066
 4151POPC   C4A53538   1.401   5.602   7.240
 4151POPC   C1B53539   1.292   4.863   6.118
 4151POPC   C2B53540   1.384   4.675   6.487
 4151POPC   C3B53541   1.316   4.606   6.930
 4151POPC   C4B53542   1.326   4.744   7.337
 4152POPC   NC353543  18.648  15.179   5.496
 4152POPC   PO453544  18.072  15.525   5.640
 4152POPC   GL153545  18.399  15.348   5.937
 4152POPC   GL253546  18.770  15.459   5.894
 4152POPC   C1A53547  18.342  15.253   6.379
 4152POPC   D2A53548  18.174  15.403   6.782
 4152POPC   C3A53549  18.035  15.077   7.068
 4152POPC   C4A53550  17.685  14.868   7.253
 4152POPC   C1B53551  18.731  15.585   6.300
 4152POPC   C2B53552  18.685  15.461   6.722
 4152POPC   C3B53553  18.721  15.476   7.159
 4152POPC   C4B53554  18.428  15.275   7.425
 4153POPC   NC353555  42.048  26.591   5.516
 4153POPC   PO453556  42.582  26.910   5.377
 4153POPC   GL153557  42.491  26.697   5.768
 4153POPC   GL253558  42.314  26.988   5.826
 4153POPC   C1A53559  42.341  26.622   6.208
 4153POPC   D2A53560  42.152  26.510   6.608
 4153POPC   C3A53561  42.358  26.558   7.019
 4153POPC   C4A53562  42.121  26.487   7.379
 4153POPC   C1B53563  42.349  27.160   6.207
 4153POPC   C2B53564  42.183  27.064   6.592
 4153POPC   C3B53565  42.420  27.211   6.920
 4153POPC   C4B53566  42.550  27.255   7.329
 4154POPC   NC353567   8.263  32.244   5.301
 4154POPC   PO453568   7.756  31.843   5.590
 4154POPC   GL153569   8.099  32.084   5.782
 4154POPC   GL253570   8.447  31.953   5.693
 4154POPC   C1A53571   8.254  32.384   6.124
 4154POPC   D2A53572   8.284  32.544   6.567
 4154POPC   C3A53573   7.891  32.589   6.837
 4154POPC   C4A53574   7.986  32.513   7.289
 4154POPC   C1B53575   8.426  31.892   6.157
 4154POPC   C2B53576   8.480  32.055   6.580
 4154POPC   C3B53577   8.342  32.243   6.978
 4154POPC   C4B53578   8.322  31.987   7.337
 4155POPC   NC353579  17.832  18.974   5.284
 4155POPC   PO453580  17.459  19.464   5.391
 4155POPC   GL153581  17.542  19.150   5.758
 4155POPC   GL253582  17.887  19.005   5.811
 4155POPC   C1A53583  17.328  18.893   6.113
 4155POPC   D2A53584  17.277  18.749   6.563
 4155POPC   C3A53585  17.285  18.946   6.976
 4155POPC   C4A53586  17.290  18.868   7.416
 4155POPC   C1B53587  17.837  18.832   6.221
 4155POPC   C2B53588  17.899  18.965   6.630
 4155POPC   C3B53589  17.800  18.855   7.054
 4155POPC   C4B53590  17.677  19.182   7.320
 4156POPC   NC353591   1.354  37.030   5.493
 4156POPC   PO453592   0.672  37.075   5.580
 4156POPC   GL153593   1.062  37.033   5.902
 4156POPC   GL253594   1.327  36.749   5.937
 4156POPC   C1A53595   1.429  37.185   6.176
 4156POPC   D2A53596   1.321  37.227   6.638
 4156POPC   C3A53597   1.491  37.051   6.988
 4156POPC   C4A53598   1.238  36.998   7.389
 4156POPC   C1B53599   1.258  36.770   6.420
 4156POPC   C2B53600   1.270  36.613   6.880
 4156POPC   C3B53601   1.283  36.505   7.360
 4156POPC   C4B53602   1.222  36.525   7.830
 4157POPC   NC353603   3.681   7.615   5.463
 4157POPC   PO453604   3.405   7.029   5.364
 4157POPC   GL153605   3.443   7.283   5.769
 4157POPC   GL253606   3.161   7.456   5.929
 4157POPC   C1A53607   3.665   7.354   6.156
 4157POPC   D2A53608   3.658   7.097   6.529
 4157POPC   C3A53609   3.650   7.150   6.985
 4157POPC   C4A53610   3.445   7.225   7.434
 4157POPC   C1B53611   3.263   7.589   6.350
 4157POPC   C2B53612   3.585   7.586   6.677
 4157POPC   C3B53613   3.415   7.588   7.055
 4157POPC   C4B53614   3.188   7.685   7.378
 4158POPC   NC353615  38.399  18.909   5.204
 4158POPC   PO453616  38.140  19.460   5.493
 4158POPC   GL153617  38.377  19.138   5.739
 4158POPC   GL253618  38.219  18.802   5.691
 4158POPC   C1A53619  38.536  19.154   6.187
 4158POPC   D2A53620  38.638  18.912   6.572
 4158POPC   C3A53621  38.572  19.114   7.004
 4158POPC   C4A53622  38.603  18.996   7.445
 4158POPC   C1B53623  38.127  18.820   6.116
 4158POPC   C2B53624  38.082  18.723   6.524
 4158POPC   C3B53625  38.268  18.700   6.898
 4158POPC   C4B53626  38.122  18.927   7.243
 4159POPC   NC353627  11.645  21.423   5.514
 4159POPC   PO453628  11.039  21.157   5.650
 4159POPC   GL153629  11.322  21.194   5.931
 4159POPC   GL253630  11.302  21.545   5.924
 4159POPC   C1A53631  11.145  21.163   6.340
 4159POPC   D2A53632  10.809  20.913   6.571
 4159POPC   C3A53633  10.986  20.827   6.995
 4159POPC   C4A53634  11.089  21.111   7.344
 4159POPC   C1B53635  11.549  21.510   6.291
 4159POPC   C2B53636  11.438  21.705   6.691
 4159POPC   C3B53637  11.330  21.492   7.057
 4159POPC   C4B53638  11.599  21.163   7.254
 4160POPC   NC353639  14.791  25.767   5.531
 4160POPC   PO453640  15.299  26.327   5.417
 4160POPC   GL153641  15.132  26.102   5.762
 4160POPC   GL253642  14.826  26.209   5.821
 4160POPC   C1A53643  15.174  26.063   6.220
 4160POPC   D2A53644  15.222  26.325   6.602
 4160POPC   C3A53645  15.332  26.118   7.010
 4160POPC   C4A53646  15.545  25.717   7.124
 4160POPC   C1B53647  14.683  25.893   6.171
 4160POPC   C2B53648  14.739  25.632   6.585
 4160POPC   C3B53649  14.698  25.787   7.044
 4160POPC   C4B53650  14.968  25.922   7.417
 4161POPC   NC353651   4.993   9.975   5.171
 4161POPC   PO453652   5.334   9.656   5.676
 4161POPC   GL153653   5.122   9.673   5.997
 4161POPC   GL253654   4.928   9.399   5.954
 4161POPC   C1A53655   5.054   9.941   6.342
 4161POPC   D2A53656   5.350   9.965   6.643
 4161POPC   C3A53657   5.177   9.804   6.968
 4161POPC   C4A53658   5.360   9.687   7.283
 4161POPC   C1B53659   4.906   9.433   6.372
 4161POPC   C2B53660   4.906   9.440   6.758
 4161POPC   C3B53661   4.925   9.409   7.168
 4161POPC   C4B53662   4.611   9.568   7.383
 4162POPC   NC353663   2.763  12.184   5.510
 4162POPC   PO453664   2.758  11.564   5.238
 4162POPC   GL153665   2.796  11.697   5.696
 4162POPC   GL253666   2.504  11.816   5.810
 4162POPC   C1A53667   2.977  11.881   6.125
 4162POPC   D2A53668   2.944  12.252   6.442
 4162POPC   C3A53669   2.919  12.184   6.901
 4162POPC   C4A53670   2.859  11.829   7.176
 4162POPC   C1B53671   2.501  12.031   6.223
 4162POPC   C2B53672   2.433  12.221   6.599
 4162POPC   C3B53673   2.428  12.036   6.971
 4162POPC   C4B53674   2.547  12.179   7.338
 4163POPC   NC353675  26.961  13.290   5.355
 4163POPC   PO453676  26.569  12.633   5.451
 4163POPC   GL153677  26.783  12.833   5.772
 4163POPC   GL253678  26.741  13.203   5.815
 4163POPC   C1A53679  26.826  12.704   6.181
 4163POPC   D2A53680  26.897  12.813   6.600
 4163POPC   C3A53681  26.640  12.682   6.901
 4163POPC   C4A53682  26.661  12.805   7.335
 4163POPC   C1B53683  26.476  13.064   6.164
 4163POPC   C2B53684  26.438  13.181   6.586
 4163POPC   C3B53685  26.648  13.185   6.969
 4163POPC   C4B53686  26.443  13.304   7.347
 4164POPC   NC353687   4.717   3.664   5.639
 4164POPC   PO453688   4.081   3.528   5.442
 4164POPC   GL153689   4.265   3.411   5.804
 4164POPC   GL253690   4.201   3.738   5.905
 4164POPC   C1A53691   4.400   3.266   6.184
 4164POPC   D2A53692   4.621   3.385   6.566
 4164POPC   C3A53693   4.345   3.539   6.882
 4164POPC   C4A53694   4.516   3.497   7.297
 4164POPC   C1B53695   4.325   3.769   6.334
 4164POPC   C2B53696   4.633   3.904   6.632
 4164POPC   C3B53697   4.641   3.922   7.048
 4164POPC   C4B53698   4.253   3.940   7.249
 4165POPC   NC353699   4.713  33.134   5.750
 4165POPC   PO453700   5.253  32.859   5.454
 4165POPC   GL153701   5.265  33.078   5.841
 4165POPC   GL253702   5.308  33.421   5.755
 4165POPC   C1A53703   5.246  32.972   6.292
 4165POPC   D2A53704   5.116  32.791   6.698
 4165POPC   C3A53705   5.265  32.954   7.085
 4165POPC   C4A53706   5.152  32.792   7.501
 4165POPC   C1B53707   5.068  33.473   6.173
 4165POPC   C2B53708   4.797  33.213   6.463
 4165POPC   C3B53709   4.837  33.251   6.909
 4165POPC   C4B53710   4.943  33.247   7.361
 4166POPC   NC353711   8.689  20.902   5.373
 4166POPC   PO453712   8.961  20.326   5.521
 4166POPC   GL153713   8.813  20.488   5.878
 4166POPC   GL253714   8.824  20.851   5.868
 4166POPC   C1A53715   8.705  20.542   6.295
 4166POPC   D2A53716   8.702  20.396   6.730
 4166POPC   C3A53717   9.042  20.365   6.958
 4166POPC   C4A53718   9.125  20.421   7.343
 4166POPC   C1B53719   8.906  21.020   6.287
 4166POPC   C2B53720   8.999  20.845   6.698
 4166POPC   C3B53721   8.869  20.814   7.136
 4166POPC   C4B53722   9.014  20.896   7.557
 4167POPC   NC353723  15.432  22.464   5.121
 4167POPC   PO453724  15.003  22.870   5.506
 4167POPC   GL153725  15.115  22.855   5.904
 4167POPC   GL253726  15.399  23.024   5.854
 4167POPC   C1A53727  14.969  22.886   6.291
 4167POPC   D2A53728  14.852  23.105   6.632
 4167POPC   C3A53729  14.903  22.889   7.009
 4167POPC   C4A53730  14.968  22.997   7.408
 4167POPC   C1B53731  15.478  22.960   6.298
 4167POPC   C2B53732  15.331  22.857   6.719
 4167POPC   C3B53733  15.407  23.000   7.134
 4167POPC   C4B53734  15.776  23.131   7.363
 4168POPC   NC353735  32.141  34.153   5.296
 4168POPC   PO453736  32.146  33.543   5.450
 4168POPC   GL153737  32.338  33.825   5.723
 4168POPC   GL253738  32.647  33.630   5.713
 4168POPC   C1A53739  32.179  33.933   6.152
 4168POPC   D2A53740  32.238  33.834   6.571
 4168POPC   C3A53741  31.930  33.788   6.888
 4168POPC   C4A53742  31.930  33.917   7.324
 4168POPC   C1B53743  32.665  33.794   6.136
 4168POPC   C2B53744  32.758  33.825   6.570
 4168POPC   C3B53745  32.591  33.905   6.945
 4168POPC   C4B53746  32.381  33.740   7.242
 4169POPC   NC353747  31.064  28.192   5.478
 4169POPC   PO453748  30.536  28.552   5.471
 4169POPC   GL153749  30.728  28.372   5.810
 4169POPC   GL253750  30.868  28.692   5.866
 4169POPC   C1A53751  30.792  28.256   6.229
 4169POPC   D2A53752  30.493  28.287   6.541
 4169POPC   C3A53753  30.624  28.142   6.944
 4169POPC   C4A53754  30.419  28.036   7.298
 4169POPC   C1B53755  30.466  28.683   6.152
 4169POPC   C2B53756  30.194  28.727   6.539
 4169POPC   C3B53757  30.302  28.564   6.933
 4169POPC   C4B53758  30.619  28.548   7.269
 4170POPC   NC353759  26.568  21.146   5.347
 4170POPC   PO453760  26.598  21.811   5.436
 4170POPC   GL153761  26.742  21.542   5.793
 4170POPC   GL253762  26.885  21.231   5.799
 4170POPC   C1A53763  26.851  21.651   6.209
 4170POPC   D2A53764  27.095  21.540   6.585
 4170POPC   C3A53765  26.840  21.506   6.959
 4170POPC   C4A53766  26.674  21.364   7.352
 4170POPC   C1B53767  26.981  21.146   6.248
 4170POPC   C2B53768  26.874  21.053   6.681
 4170POPC   C3B53769  26.962  21.025   7.099
 4170POPC   C4B53770  26.878  20.883   7.479
 4171POPC   NC353771  25.948  17.791   5.378
 4171POPC   PO453772  25.999  17.171   5.181
 4171POPC   GL153773  26.149  17.436   5.683
 4171POPC   GL253774  26.422  17.246   5.919
 4171POPC   C1A53775  26.247  17.685   6.108
 4171POPC   D2A53776  26.121  17.816   6.550
 4171POPC   C3A53777  26.109  17.600   6.962
 4171POPC   C4A53778  25.718  17.634   7.238
 4171POPC   C1B53779  26.012  17.228   6.194
 4171POPC   C2B53780  25.808  17.367   6.588
 4171POPC   C3B53781  25.793  17.191   6.999
 4171POPC   C4B53782  25.886  17.084   7.464
 4172POPC   NC353783  36.153  24.247   5.353
 4172POPC   PO453784  36.763  24.571   5.470
 4172POPC   GL153785  36.360  24.610   5.689
 4172POPC   GL253786  35.986  24.522   5.744
 4172POPC   C1A53787  36.299  24.658   6.118
 4172POPC   D2A53788  36.161  24.546   6.505
 4172POPC   C3A53789  36.114  24.829   6.825
 4172POPC   C4A53790  36.031  24.733   7.226
 4172POPC   C1B53791  35.800  24.437   6.126
 4172POPC   C2B53792  35.826  24.178   6.473
 4172POPC   C3B53793  35.711  24.266   6.868
 4172POPC   C4B53794  35.487  24.354   7.221
 4173POPC   NC353795  28.532  43.315   5.481
 4173POPC   PO453796  28.286  42.628   5.504
 4173POPC   GL153797  28.273  42.974   5.796
 4173POPC   GL253798  28.623  42.982   5.842
 4173POPC   C1A53799  28.244  43.271   6.168
 4173POPC   D2A53800  28.399  43.171   6.574
 4173POPC   C3A53801  28.202  43.196   6.996
 4173POPC   C4A53802  28.185  43.320   7.444
 4173POPC   C1B53803  28.745  43.291   6.124
 4173POPC   C2B53804  28.861  43.419   6.513
 4173POPC   C3B53805  28.782  43.242   6.902
 4173POPC   C4B53806  28.660  43.260   7.298
 4174POPC   NC353807  18.214   1.987   5.361
 4174POPC   PO453808  18.874   1.925   5.327
 4174POPC   GL153809  18.563   1.962   5.749
 4174POPC   GL253810  18.202   1.782   5.832
 4174POPC   C1A53811  18.433   2.105   6.183
 4174POPC   D2A53812  18.492   2.269   6.601
 4174POPC   C3A53813  18.232   2.238   6.954
 4174POPC   C4A53814  18.513   2.100   7.264
 4174POPC   C1B53815  18.187   1.663   6.274
 4174POPC   C2B53816  18.146   1.787   6.713
 4174POPC   C3B53817  18.123   1.714   7.171
 4174POPC   C4B53818  18.350   1.730   7.561
 4175POPC   NC353819  32.909  12.574   5.294
 4175POPC   PO453820  33.033  13.181   5.353
 4175POPC   GL153821  32.935  12.923   5.708
 4175POPC   GL253822  33.159  12.599   5.742
 4175POPC   C1A53823  32.858  13.073   6.138
 4175POPC   D2A53824  33.046  13.067   6.540
 4175POPC   C3A53825  32.830  13.106   6.897
 4175POPC   C4A53826  32.846  13.207   7.310
 4175POPC   C1B53827  32.851  12.556   6.065
 4175POPC   C2B53828  32.844  12.467   6.504
 4175POPC   C3B53829  33.068  12.627   6.844
 4175POPC   C4B53830  32.985  12.728   7.256
 4176POPC   NC353831  33.264  41.798   5.571
 4176POPC   PO453832  32.655  41.651   5.237
 4176POPC   GL153833  32.823  41.569   5.720
 4176POPC   GL253834  33.141  41.342   5.799
 4176POPC   C1A53835  32.964  41.662   6.173
 4176POPC   D2A53836  33.118  41.689   6.633
 4176POPC   C3A53837  32.857  41.792   7.003
 4176POPC   C4A53838  32.932  41.779   7.456
 4176POPC   C1B53839  33.305  41.126   6.191
 4176POPC   C2B53840  33.132  41.147   6.626
 4176POPC   C3B53841  33.129  41.374   7.056
 4176POPC   C4B53842  33.208  41.314   7.498
 4177POPC   NC353843  30.264  37.122   5.423
 4177POPC   PO453844  29.703  36.874   5.116
 4177POPC   GL153845  29.864  36.822   5.576
 4177POPC   GL253846  30.155  36.586   5.631
 4177POPC   C1A53847  29.878  36.922   6.049
 4177POPC   D2A53848  29.722  37.068   6.463
 4177POPC   C3A53849  29.975  37.251   6.795
 4177POPC   C4A53850  29.748  37.310   7.191
 4177POPC   C1B53851  30.109  36.450   6.099
 4177POPC   C2B53852  30.057  36.677   6.536
 4177POPC   C3B53853  29.814  36.789   6.949
 4177POPC   C4B53854  29.910  36.848   7.422
 4178POPC   NC353855  35.682  25.048   5.477
 4178POPC   PO453856  35.107  25.434   5.498
 4178POPC   GL153857  35.370  25.312   5.819
 4178POPC   GL253858  35.194  25.067   5.976
 4178POPC   C1A53859  35.548  25.364   6.243
 4178POPC   D2A53860  35.496  25.576   6.659
 4178POPC   C3A53861  35.313  25.341   7.042
 4178POPC   C4A53862  35.401  25.147   7.460
 4178POPC   C1B53863  35.049  25.471   6.234
 4178POPC   C2B53864  34.956  25.586   6.690
 4178POPC   C3B53865  34.845  25.586   7.140
 4178POPC   C4B53866  35.098  25.588   7.501
 4179POPC   NC353867  13.965  13.668   5.380
 4179POPC   PO453868  13.273  13.610   5.403
 4179POPC   GL153869  13.544  13.656   5.786
 4179POPC   GL253870  13.884  13.858   5.834
 4179POPC   C1A53871  13.399  13.543   6.198
 4179POPC   D2A53872  13.571  13.449   6.582
 4179POPC   C3A53873  13.436  13.630   6.943
 4179POPC   C4A53874  13.459  13.383   7.293
 4179POPC   C1B53875  13.888  13.665   6.217
 4179POPC   C2B53876  13.814  13.893   6.619
 4179POPC   C3B53877  13.941  13.752   7.023
 4179POPC   C4B53878  13.921  13.533   7.414
 4180POPC   NC353879  36.236  43.256   5.423
 4180POPC   PO453880  35.657  42.831   5.456
 4180POPC   GL153881  36.026  42.819   5.691
 4180POPC   GL253882  35.958  43.146   5.829
 4180POPC   C1A53883  36.191  42.782   6.119
 4180POPC   D2A53884  36.301  43.153   6.395
 4180POPC   C3A53885  36.394  43.006   6.828
 4180POPC   C4A53886  36.220  42.778   7.172
 4180POPC   C1B53887  35.778  43.504   6.040
 4180POPC   C2B53888  35.903  43.586   6.461
 4180POPC   C3B53889  35.877  43.328   6.820
 4180POPC   C4B53890  36.126  43.304   7.173
 4181POPC   NC353891   3.726   3.813   5.549
 4181POPC   PO453892   3.249   3.237   5.395
 4181POPC   GL153893   3.435   3.435   5.737
 4181POPC   GL253894   3.754   3.295   5.771
 4181POPC   C1A53895   3.440   3.633   6.143
 4181POPC   D2A53896   3.497   3.581   6.561
 4181POPC   C3A53897   3.335   3.868   6.851
 4181POPC   C4A53898   3.265   3.782   7.270
 4181POPC   C1B53899   3.905   3.444   6.196
 4181POPC   C2B53900   3.936   3.313   6.622
 4181POPC   C3B53901   3.853   3.461   7.053
 4181POPC   C4B53902   4.063   3.337   7.441
 4182POPC   NC353903  37.413  35.330   5.455
 4182POPC   PO453904  38.112  35.373   5.435
 4182POPC   GL153905  37.849  35.494   5.793
 4182POPC   GL253906  37.734  35.173   5.886
 4182POPC   C1A53907  37.658  35.542   6.241
 4182POPC   D2A53908  37.461  35.473   6.679
 4182POPC   C3A53909  37.700  35.465   7.079
 4182POPC   C4A53910  37.712  35.502   7.532
 4182POPC   C1B53911  37.712  34.984   6.322
 4182POPC   C2B53912  37.772  35.009   6.769
 4182POPC   C3B53913  37.818  34.977   7.197
 4182POPC   C4B53914  37.638  35.016   7.561
 4183POPC   NC353915  20.742  38.706   5.300
 4183POPC   PO453916  20.358  38.265   5.498
 4183POPC   GL153917  20.630  38.514   5.807
 4183POPC   GL253918  20.891  38.831   5.803
 4183POPC   C1A53919  20.558  38.365   6.257
 4183POPC   D2A53920  20.547  38.131   6.665
 4183POPC   C3A53921  20.459  38.403   6.982
 4183POPC   C4A53922  20.329  38.543   7.350
 4183POPC   C1B53923  20.977  38.655   6.195
 4183POPC   C2B53924  20.878  38.541   6.617
 4183POPC   C3B53925  20.993  38.450   7.022
 4183POPC   C4B53926  20.824  38.694   7.338
 4184POPC   NC353927  24.228  38.619   5.544
 4184POPC   PO453928  24.703  38.124   5.578
 4184POPC   GL153929  24.474  38.323   5.915
 4184POPC   GL253930  24.591  38.676   5.950
 4184POPC   C1A53931  24.226  38.431   6.307
 4184POPC   D2A53932  24.143  38.634   6.737
 4184POPC   C3A53933  24.135  38.293   7.105
 4184POPC   C4A53934  24.268  38.132   7.515
 4184POPC   C1B53935  24.735  38.445   6.332
 4184POPC   C2B53936  24.535  38.316   6.733
 4184POPC   C3B53937  24.608  38.447   7.163
 4184POPC   C4B53938  24.956  38.167   7.255
 4185POPC   NC353939  30.792   0.486   5.450
 4185POPC   PO453940  30.252   0.767   5.550
 4185POPC   GL153941  30.392   0.499   5.891
 4185POPC   GL253942  30.746   0.415   5.934
 4185POPC   C1A53943  30.445   0.423   6.344
 4185POPC   D2A53944  30.519   0.691   6.701
 4185POPC   C3A53945  30.606   0.439   7.045
 4185POPC   C4A53946  30.448   0.101   7.275
 4185POPC   C1B53947  30.935   0.580   6.294
 4185POPC   C2B53948  30.964   0.433   6.663
 4185POPC   C3B53949  31.255   0.309   6.903
 4185POPC   C4B53950  31.057   0.345   7.276
 4186POPC   NC353951  27.308   8.495   5.647
 4186POPC   PO453952  27.951   8.307   5.458
 4186POPC   GL153953  27.725   8.131   5.849
 4186POPC   GL253954  27.430   7.937   5.844
 4186POPC   C1A53955  27.858   8.112   6.283
 4186POPC   D2A53956  27.872   7.907   6.681
 4186POPC   C3A53957  27.704   8.102   7.033
 4186POPC   C4A53958  27.889   8.302   7.364
 4186POPC   C1B53959  27.360   8.136   6.217
 4186POPC   C2B53960  27.237   8.361   6.530
 4186POPC   C3B53961  27.292   8.396   6.962
 4186POPC   C4B53962  27.351   8.286   7.388
 4187POPC   NC353963  22.781  32.732   5.442
 4187POPC   PO453964  23.011  33.383   5.535
 4187POPC   GL153965  23.101  33.101   5.881
 4187POPC   GL253966  23.176  32.743   5.774
 4187POPC   C1A53967  22.981  33.137   6.330
 4187POPC   D2A53968  22.672  33.061   6.672
 4187POPC   C3A53969  22.808  33.234   7.073
 4187POPC   C4A53970  23.189  33.389   7.219
 4187POPC   C1B53971  22.866  32.688   6.102
 4187POPC   C2B53972  22.900  32.600   6.534
 4187POPC   C3B53973  23.000  32.755   6.932
 4187POPC   C4B53974  22.723  32.788   7.294
 4188POPC   NC353975  43.190  37.245   5.392
 4188POPC   PO453976  43.031  36.582   5.235
 4188POPC   GL153977  42.931  36.746   5.654
 4188POPC   GL253978  42.914  37.077   5.777
 4188POPC   C1A53979  42.872  36.657   6.103
 4188POPC   D2A53980  42.805  36.800   6.519
 4188POPC   C3A53981  43.065  36.780   6.921
 4188POPC   C4A53982  42.886  36.735   7.344
 4188POPC   C1B53983  43.058  37.169   6.188
 4188POPC   C2B53984  43.199  37.146   6.584
 4188POPC   C3B53985  43.139  37.310   6.968
 4188POPC   C4B53986  42.908  37.283   7.318
 4189POPC   NC353987   2.359  31.000   5.478
 4189POPC   PO453988   1.782  30.701   5.308
 4189POPC   GL153989   1.914  30.634   5.756
 4189POPC   GL253990   2.024  30.953   5.859
 4189POPC   C1A53991   2.099  30.486   6.154
 4189POPC   D2A53992   1.858  30.320   6.469
 4189POPC   C3A53993   2.114  30.305   6.787
 4189POPC   C4A53994   2.029  30.522   7.127
 4189POPC   C1B53995   1.842  30.915   6.255
 4189POPC   C2B53996   2.014  30.813   6.637
 4189POPC   C3B53997   1.978  31.018   7.033
 4189POPC   C4B53998   2.405  30.877   7.145
 4190POPC   NC353999  11.389  25.844   5.417
 4190POPC   PO454000  10.879  26.339   5.356
 4190POPC   GL154001  11.155  26.191   5.724
 4190POPC   GL254002  11.521  26.199   5.813
 4190POPC   C1A54003  11.164  25.983   6.146
 4190POPC   D2A54004  11.340  26.189   6.533
 4190POPC   C3A54005  11.187  26.061   6.932
 4190POPC   C4A54006  10.830  26.015   7.179
 4190POPC   C1B54007  11.692  25.939   6.196
 4190POPC   C2B54008  11.748  25.890   6.677
 4190POPC   C3B54009  11.658  26.225   7.017
 4190POPC   C4B54010  11.623  26.299   7.480
 4191POPC   NC354011   5.079  42.035   5.522
 4191POPC   PO454012   4.859  42.625   5.480
 4191POPC   GL154013   4.831  42.399   5.835
 4191POPC   GL254014   5.190  42.371   5.892
 4191POPC   C1A54015   4.778  42.234   6.235
 4191POPC   D2A54016   5.063  42.284   6.582
 4191POPC   C3A54017   4.832  42.225   6.932
 4191POPC   C4A54018   4.911  42.286   7.316
 4191POPC   C1B54019   5.098  42.652   6.211
 4191POPC   C2B54020   5.199  42.835   6.550
 4191POPC   C3B54021   5.084  42.719   6.929
 4191POPC   C4B54022   5.237  42.681   7.310
 4192POPC   NC354023  42.292   8.501   5.531
 4192POPC   PO454024  42.292   9.179   5.467
 4192POPC   GL154025  42.511   8.894   5.782
 4192POPC   GL254026  42.178   8.886   5.937
 4192POPC   C1A54027  42.516   8.671   6.235
 4192POPC   D2A54028  42.196   8.811   6.561
 4192POPC   C3A54029  42.344   8.835   6.995
 4192POPC   C4A54030  42.508   8.727   7.416
 4192POPC   C1B54031  42.463   9.182   6.214
 4192POPC   C2B54032  42.546   9.475   6.542
 4192POPC   C3B54033  42.471   9.352   6.955
 4192POPC   C4B54034  42.423   9.214   7.351
 4193POPC   NC354035  10.071  22.925   5.265
 4193POPC   PO454036  10.763  22.791   5.488
 4193POPC   GL154037  10.600  22.990   5.878
 4193POPC   GL254038  10.901  23.047   5.991
 4193POPC   C1A54039  10.347  22.963   6.291
 4193POPC   D2A54040  10.557  23.004   6.721
 4193POPC   C3A54041  10.314  23.023   7.040
 4193POPC   C4A54042  10.334  23.140   7.421
 4193POPC   C1B54043  10.822  22.771   6.366
 4193POPC   C2B54044  10.776  22.532   6.771
 4193POPC   C3B54045  10.661  22.648   7.193
 4193POPC   C4B54046  10.700  22.503   7.658
 4194POPC   NC354047  24.652  28.153   5.282
 4194POPC   PO454048  24.367  28.848   5.399
 4194POPC   GL154049  24.623  28.584   5.724
 4194POPC   GL254050  24.641  28.196   5.782
 4194POPC   C1A54051  24.472  28.495   6.155
 4194POPC   D2A54052  24.298  28.569   6.559
 4194POPC   C3A54053  24.390  28.257   6.867
 4194POPC   C4A54054  24.320  28.421   7.270
 4194POPC   C1B54055  24.675  28.020   6.206
 4194POPC   C2B54056  24.777  27.838   6.615
 4194POPC   C3B54057  24.969  27.925   6.983
 4194POPC   C4B54058  24.751  28.165   7.262
 4195POPC   NC354059  20.849   4.161   5.556
 4195POPC   PO454060  21.508   4.236   5.433
 4195POPC   GL154061  21.453   4.328   5.884
 4195POPC   GL254062  21.092   4.338   5.964
 4195POPC   C1A54063  21.605   4.400   6.335
 4195POPC   D2A54064  21.495   4.289   6.766
 4195POPC   C3A54065  21.524   4.614   7.117
 4195POPC   C4A54066  21.646   4.414   7.546
 4195POPC   C1B54067  20.890   3.988   6.184
 4195POPC   C2B54068  20.997   3.839   6.567
 4195POPC   C3B54069  21.156   3.954   6.924
 4195POPC   C4B54070  21.304   4.182   7.258
 4196POPC   NC354071  40.237  43.351   5.596
 4196POPC   PO454072  39.778  42.868   5.481
 4196POPC   GL154073  40.012  42.887   5.867
 4196POPC   GL254074  39.980  43.248   6.017
 4196POPC   C1A54075  39.861  42.843   6.284
 4196POPC   D2A54076  39.901  43.105   6.646
 4196POPC   C3A54077  39.863  42.847   6.971
 4196POPC   C4A54078  39.930  42.816   7.391
 4196POPC   C1B54079  40.308  43.122   6.293
 4196POPC   C2B54080  40.418  43.228   6.735
 4196POPC   C3B54081  40.194  43.210   7.129
 4196POPC   C4B54082  39.781  43.299   7.249
 4197POPC   NC354083  21.744  26.915   4.980
 4197POPC   PO454084  21.322  27.222   5.392
 4197POPC   GL154085  21.351  26.981   5.749
 4197POPC   GL254086  21.590  27.144   5.902
 4197POPC   C1A54087  21.316  26.654   6.095
 4197POPC   D2A54088  21.519  26.585   6.500
 4197POPC   C3A54089  21.269  26.587   6.875
 4197POPC   C4A54090  21.489  26.409   7.209
 4197POPC   C1B54091  21.514  27.073   6.322
 4197POPC   C2B54092  21.605  27.158   6.737
 4197POPC   C3B54093  21.624  26.901   7.093
 4197POPC   C4B54094  21.407  26.868   7.480
 4198POPC   NC354095  29.098   1.437   5.492
 4198POPC   PO454096  29.391   0.850   5.492
 4198POPC   GL154097  29.348   1.106   5.877
 4198POPC   GL254098  29.391   1.480   5.902
 4198POPC   C1A54099  29.370   1.183   6.338
 4198POPC   D2A54100  29.090   1.035   6.675
 4198POPC   C3A54101  29.104   1.147   7.074
 4198POPC   C4A54102  29.399   0.882   7.244
 4198POPC   C1B54103  29.144   1.655   6.256
 4198POPC   C2B54104  29.232   1.522   6.690
 4198POPC   C3B54105  29.563   1.236   6.895
 4198POPC   C4B54106  29.551   1.323   7.371
 4199POPC   NC354107  20.813   6.495   5.506
 4199POPC   PO454108  20.241   6.140   5.568
 4199POPC   GL154109  20.474   6.361   5.882
 4199POPC   GL254110  20.326   6.699   5.917
 4199POPC   C1A54111  20.780   6.274   6.212
 4199POPC   D2A54112  20.875   6.139   6.654
 4199POPC   C3A54113  20.668   6.358   6.984
 4199POPC   C4A54114  20.538   6.694   7.230
 4199POPC   C1B54115  20.426   6.621   6.368
 4199POPC   C2B54116  20.491   6.860   6.756
 4199POPC   C3B54117  20.204   7.046   7.099
 4199POPC   C4B54118  19.951   7.156   7.488
 4200POPC   NC354119  14.830   2.027   5.169
 4200POPC   PO454120  15.221   2.360   5.580
 4200POPC   GL154121  15.081   2.157   5.935
 4200POPC   GL254122  14.884   1.860   5.840
 4200POPC   C1A54123  15.318   1.969   6.301
 4200POPC   D2A54124  15.581   1.928   6.686
 4200POPC   C3A54125  15.451   1.763   7.048
 4200POPC   C4A54126  15.239   1.983   7.379
 4200POPC   C1B54127  14.774   1.969   6.286
 4200POPC   C2B54128  14.987   2.259   6.570
 4200POPC   C3B54129  14.963   2.210   6.998
 4200POPC   C4B54130  14.887   1.771   7.072
 4201POPC   NC354131   7.563  35.497   5.480
 4201POPC   PO454132   7.158  34.926   5.413
 4201POPC   GL154133   7.347  35.130   5.788
 4201POPC   GL254134   7.286  35.494   5.885
 4201POPC   C1A54135   7.551  35.172   6.200
 4201POPC   D2A54136   7.452  35.389   6.553
 4201POPC   C3A54137   7.676  35.305   6.907
 4201POPC   C4A54138   7.666  35.025   7.245
 4201POPC   C1B54139   7.525  35.743   6.155
 4201POPC   C2B54140   7.660  35.865   6.577
 4201POPC   C3B54141   7.424  35.764   6.919
 4201POPC   C4B54142   7.368  35.493   7.241
 4202POPC   NC354143  44.634   0.047   5.588
 4202POPC   PO454144  44.890   0.629   5.554
 4202POPC   GL154145  44.639   0.496   5.855
 4202POPC   GL254146  44.918   0.278   5.951
 4202POPC   C1A54147  44.480   0.369   6.232
 4202POPC   D2A54148  44.423   0.443   6.666
 4202POPC   C3A54149  44.658   0.168   6.945
 4202POPC   C4A54150  44.447  44.998   7.296
 4202POPC   C1B54151  45.000   0.654   6.203
 4202POPC   C2B54152  44.875   0.854   6.579
 4202POPC   C3B54153  44.769   0.689   6.968
 4202POPC   C4B54154  44.651   0.495   7.337
 4203POPC   NC354155  43.058  34.184   5.313
 4203POPC   PO454156  43.364  33.684   5.631
 4203POPC   GL154157  42.992  33.748   5.778
 4203POPC   GL254158  42.891  34.083   5.802
 4203POPC   C1A54159  42.935  33.699   6.200
 4203POPC   D2A54160  43.127  33.869   6.588
 4203POPC   C3A54161  42.992  33.654   6.976
 4203POPC   C4A54162  43.259  33.596   7.300
 4203POPC   C1B54163  42.853  34.315   6.197
 4203POPC   C2B54164  42.719  34.265   6.641
 4203POPC   C3B54165  42.859  34.139   7.065
 4203POPC   C4B54166  42.829  34.102   7.545
 4204POPC   NC354167   1.824   4.961   5.530
 4204POPC   PO454168   2.347   5.311   5.279
 4204POPC   GL154169   2.229   5.247   5.750
 4204POPC   GL254170   2.138   4.928   5.936
 4204POPC   C1A54171   1.983   5.344   6.171
 4204POPC   D2A54172   1.639   5.245   6.514
 4204POPC   C3A54173   1.769   5.332   6.948
 4204POPC   C4A54174   2.188   5.272   7.122
 4204POPC   C1B54175   1.803   4.863   6.231
 4204POPC   C2B54176   1.818   4.799   6.713
 4204POPC   C3B54177   1.818   4.840   7.179
 4204POPC   C4B54178   2.105   4.587   7.471
 4205POPC   NC354179  41.190  39.999   5.434
 4205POPC   PO454180  40.566  39.767   5.120
 4205POPC   GL154181  40.694  39.810   5.632
 4205POPC   GL254182  40.989  39.924   5.889
 4205POPC   C1A54183  40.558  39.761   6.104
 4205POPC   D2A54184  40.484  39.785   6.590
 4205POPC   C3A54185  40.395  40.157   6.855
 4205POPC   C4A54186  40.666  40.254   7.209
 4205POPC   C1B54187  40.946  40.032   6.349
 4205POPC   C2B54188  40.930  40.015   6.811
 4205POPC   C3B54189  41.179  40.214   7.143
 4205POPC   C4B54190  41.290  40.277   7.587
 4206POPC   NC354191  42.448  32.838   5.355
 4206POPC   PO454192  42.465  33.474   5.360
 4206POPC   GL154193  42.548  33.171   5.737
 4206POPC   GL254194  42.208  33.019   5.788
 4206POPC   C1A54195  42.655  33.035   6.184
 4206POPC   D2A54196  42.629  33.197   6.646
 4206POPC   C3A54197  42.616  32.875   7.012
 4206POPC   C4A54198  42.256  32.778   7.332
 4206POPC   C1B54199  41.961  33.105   6.185
 4206POPC   C2B54200  42.119  33.105   6.593
 4206POPC   C3B54201  42.199  33.174   7.014
 4206POPC   C4B54202  41.897  33.158   7.318
 4207POPC   NC354203   3.159   1.106   5.481
 4207POPC   PO454204   3.782   0.913   5.233
 4207POPC   GL154205   3.756   1.248   5.639
 4207POPC   GL254206   3.431   1.342   5.829
 4207POPC   C1A54207   3.826   1.263   6.131
 4207POPC   D2A54208   3.648   0.979   6.477
 4207POPC   C3A54209   3.535   1.190   6.855
 4207POPC   C4A54210   3.918   1.264   7.150
 4207POPC   C1B54211   3.445   1.571   6.225
 4207POPC   C2B54212   3.234   1.646   6.611
 4207POPC   C3B54213   3.192   1.647   7.053
 4207POPC   C4B54214   3.448   1.406   7.320
 4208POPC   NC354215  16.691   6.284   5.455
 4208POPC   PO454216  16.882   5.594   5.400
 4208POPC   GL154217  16.725   5.818   5.773
 4208POPC   GL254218  16.408   6.008   5.784
 4208POPC   C1A54219  16.630   5.808   6.216
 4208POPC   D2A54220  16.738   6.052   6.582
 4208POPC   C3A54221  16.699   5.790   6.937
 4208POPC   C4A54222  16.627   5.797   7.357
 4208POPC   C1B54223  16.513   6.301   6.138
 4208POPC   C2B54224  16.391   6.435   6.574
 4208POPC   C3B54225  16.509   6.262   6.992
 4208POPC   C4B54226  16.382   6.256   7.404
 4209POPC   NC354227  31.927   3.554   5.370
 4209POPC   PO454228  32.550   3.433   5.583
 4209POPC   GL154229  32.204   3.532   5.825
 4209POPC   GL254230  31.831   3.447   5.863
 4209POPC   C1A54231  32.182   3.578   6.261
 4209POPC   D2A54232  32.455   3.682   6.619
 4209POPC   C3A54233  32.431   3.396   6.926
 4209POPC   C4A54234  32.506   3.452   7.313
 4209POPC   C1B54235  31.717   3.217   6.249
 4209POPC   C2B54236  31.731   3.360   6.677
 4209POPC   C3B54237  31.955   3.326   7.080
 4209POPC   C4B54238  32.058   3.370   7.514
 4210POPC   NC354239  14.111  33.693   5.368
 4210POPC   PO454240  14.676  33.994   5.383
 4210POPC   GL154241  14.436  33.718   5.752
 4210POPC   GL254242  14.286  34.010   5.872
 4210POPC   C1A54243  14.194  33.602   6.186
 4210POPC   D2A54244  14.127  33.781   6.644
 4210POPC   C3A54245  14.252  33.577   7.040
 4210POPC   C4A54246  14.209  33.557   7.522
 4210POPC   C1B54247  14.627  33.873   6.181
 4210POPC   C2B54248  14.747  33.999   6.562
 4210POPC   C3B54249  14.584  33.975   6.950
 4210POPC   C4B54250  14.644  33.782   7.326
 4211POPC   NC354251  38.138  32.962   5.630
 4211POPC   PO454252  38.338  33.602   5.517
 4211POPC   GL154253  38.334  33.377   5.943
 4211POPC   GL254254  38.063  33.145   6.104
 4211POPC   C1A54255  38.510  33.153   6.323
 4211POPC   D2A54256  38.226  33.043   6.663
 4211POPC   C3A54257  38.273  33.308   6.943
 4211POPC   C4A54258  38.658  33.344   7.171
 4211POPC   C1B54259  38.228  32.711   6.289
 4211POPC   C2B54260  38.541  32.638   6.649
 4211POPC   C3B54261  38.460  32.756   7.104
 4211POPC   C4B54262  38.377  32.563   7.519
 4212POPC   NC354263  33.932  35.710   5.496
 4212POPC   PO454264  33.576  35.110   5.581
 4212POPC   GL154265  33.763  35.343   5.848
 4212POPC   GL254266  33.479  35.541   5.890
 4212POPC   C1A54267  33.848  35.238   6.277
 4212POPC   D2A54268  33.667  35.248   6.679
 4212POPC   C3A54269  33.989  35.221   6.993
 4212POPC   C4A54270  34.087  34.942   7.262
 4212POPC   C1B54271  33.745  35.728   6.192
 4212POPC   C2B54272  33.991  35.667   6.563
 4212POPC   C3B54273  33.766  35.665   6.935
 4212POPC   C4B54274  33.556  35.350   7.213
 4213POPC   NC354275  37.329  37.047   5.433
 4213POPC   PO454276  38.013  36.891   5.415
 4213POPC   GL154277  37.758  36.911   5.816
 4213POPC   GL254278  37.438  36.783   5.845
 4213POPC   C1A54279  37.555  37.156   6.170
 4213POPC   D2A54280  37.684  37.303   6.584
 4213POPC   C3A54281  37.883  37.097   6.914
 4213POPC   C4A54282  37.740  37.014   7.285
 4213POPC   C1B54283  37.515  36.587   6.227
 4213POPC   C2B54284  37.725  36.731   6.573
 4213POPC   C3B54285  37.513  36.706   6.952
 4213POPC   C4B54286  37.511  36.430   7.287
 4214POPC   NC354287   4.965  12.991   5.573
 4214POPC   PO454288   5.083  12.366   5.516
 4214POPC   GL154289   5.045  12.571   5.938
 4214POPC   GL254290   4.865  12.897   6.057
 4214POPC   C1A54291   5.350  12.797   6.219
 4214POPC   D2A54292   5.274  13.060   6.573
 4214POPC   C3A54293   4.907  12.915   6.807
 4214POPC   C4A54294   5.015  12.709   7.197
 4214POPC   C1B54295   4.867  13.272   6.309
 4214POPC   C2B54296   4.953  13.440   6.718
 4214POPC   C3B54297   4.675  13.318   7.044
 4214POPC   C4B54298   4.838  13.147   7.386
 4215POPC   NC354299  37.835  44.489   5.659
 4215POPC   PO454300  37.483  43.886   5.520
 4215POPC   GL154301  37.660  43.878   5.850
 4215POPC   GL254302  37.540  43.558   5.918
 4215POPC   C1A54303  37.765  43.874   6.246
 4215POPC   D2A54304  37.926  44.093   6.552
 4215POPC   C3A54305  37.806  43.924   6.926
 4215POPC   C4A54306  37.813  44.114   7.321
 4215POPC   C1B54307  37.306  43.521   6.270
 4215POPC   C2B54308  37.587  43.515   6.584
 4215POPC   C3B54309  37.644  43.415   6.973
 4215POPC   C4B54310  37.631  43.639   7.318
 4216POPC   NC354311  18.813   1.541   5.626
 4216POPC   PO454312  19.306   1.164   5.278
 4216POPC   GL154313  19.098   1.122   5.692
 4216POPC   GL254314  18.970   0.814   5.831
 4216POPC   C1A54315  19.095   1.196   6.157
 4216POPC   D2A54316  18.920   1.158   6.592
 4216POPC   C3A54317  19.031   1.463   6.884
 4216POPC   C4A54318  19.190   1.320   7.247
 4216POPC   C1B54319  18.704   0.820   6.260
 4216POPC   C2B54320  18.539   0.835   6.715
 4216POPC   C3B54321  18.793   0.976   7.103
 4216POPC   C4B54322  19.146   0.811   7.374
 4217POPC   NC354323  17.414   6.700   5.482
 4217POPC   PO454324  17.447   7.251   5.792
 4217POPC   GL154325  17.543   6.851   6.022
 4217POPC   GL254326  17.727   6.541   5.889
 4217POPC   C1A54327  17.626   6.696   6.456
 4217POPC   D2A54328  17.626   6.659   6.914
 4217POPC   C3A54329  17.274   6.670   7.195
 4217POPC   C4A54330  17.111   6.696   7.631
 4217POPC   C1B54331  17.512   6.270   6.203
 4217POPC   C2B54332  17.333   6.279   6.610
 4217POPC   C3B54333  17.515   6.163   6.985
 4217POPC   C4B54334  17.851   6.332   7.235
 4218POPC   NC354335  15.411  22.559   5.616
 4218POPC   PO454336  14.916  22.184   5.258
 4218POPC   GL154337  15.107  22.109   5.674
 4218POPC   GL254338  15.450  21.996   5.765
 4218POPC   C1A54339  15.102  22.080   6.142
 4218POPC   D2A54340  15.196  22.448   6.422
 4218POPC   C3A54341  15.140  22.375   6.850
 4218POPC   C4A54342  15.063  22.035   7.165
 4218POPC   C1B54343  15.588  22.230   6.160
 4218POPC   C2B54344  15.498  22.040   6.562
 4218POPC   C3B54345  15.559  22.082   6.991
 4218POPC   C4B54346  15.568  22.506   7.122
 4219POPC   NC354347  39.352  44.243   5.379
 4219POPC   PO454348  38.913  44.799   5.508
 4219POPC   GL154349  39.308  44.705   5.774
 4219POPC   GL254350  39.354  44.995   6.019
 4219POPC   C1A54351  39.509  44.481   6.114
 4219POPC   D2A54352  39.392  44.326   6.512
 4219POPC   C3A54353  39.273  44.609   6.818
 4219POPC   C4A54354  39.123  44.510   7.214
 4219POPC   C1B54355  39.079  44.751   6.309
 4219POPC   C2B54356  38.830  44.840   6.694
 4219POPC   C3B54357  38.912  44.980   7.120
 4219POPC   C4B54358  39.029  44.925   7.576
 4220POPC   NC354359  37.749  19.238   5.376
 4220POPC   PO454360  37.685  19.891   5.433
 4220POPC   GL154361  37.725  19.672   5.799
 4220POPC   GL254362  38.036  19.850   5.866
 4220POPC   C1A54363  37.661  19.696   6.272
 4220POPC   D2A54364  37.545  19.526   6.718
 4220POPC   C3A54365  37.447  19.808   7.114
 4220POPC   C4A54366  37.328  19.694   7.572
 4220POPC   C1B54367  38.078  20.006   6.278
 4220POPC   C2B54368  38.017  19.750   6.639
 4220POPC   C3B54369  37.945  19.894   7.037
 4220POPC   C4B54370  38.228  19.884   7.367
 4221POPC   NC354371  22.167  42.506   5.379
 4221POPC   PO454372  22.140  41.931   5.747
 4221POPC   GL154373  22.321  42.292   5.893
 4221POPC   GL254374  22.087  42.543   5.893
 4221POPC   C1A54375  22.358  42.453   6.318
 4221POPC   D2A54376  22.043  42.368   6.605
 4221POPC   C3A54377  22.228  42.198   6.959
 4221POPC   C4A54378  22.048  42.115   7.328
 4221POPC   C1B54379  22.017  42.850   6.221
 4221POPC   C2B54380  22.056  42.898   6.642
 4221POPC   C3B54381  22.022  42.683   7.007
 4221POPC   C4B54382  22.296  42.571   7.322
 4222POPC   NC354383  22.721  41.378   5.342
 4222POPC   PO454384  23.058  40.753   5.422
 4222POPC   GL154385  22.966  40.679   5.834
 4222POPC   GL254386  22.654  40.897   5.860
 4222POPC   C1A54387  22.925  40.641   6.247
 4222POPC   D2A54388  22.790  40.550   6.626
 4222POPC   C3A54389  23.141  40.669   6.887
 4222POPC   C4A54390  23.197  40.697   7.312
 4222POPC   C1B54391  22.579  41.025   6.298
 4222POPC   C2B54392  22.750  41.026   6.756
 4222POPC   C3B54393  22.678  40.703   7.111
 4222POPC   C4B54394  22.464  40.805   7.515
 4223POPC   NC354395  36.485  33.054   5.106
 4223POPC   PO454396  35.880  32.935   5.389
 4223POPC   GL154397  36.063  32.874   5.798
 4223POPC   GL254398  36.236  33.180   5.792
 4223POPC   C1A54399  35.911  32.833   6.235
 4223POPC   D2A54400  35.781  32.717   6.658
 4223POPC   C3A54401  35.996  32.926   6.957
 4223POPC   C4A54402  35.953  32.971   7.377
 4223POPC   C1B54403  36.251  33.202   6.268
 4223POPC   C2B54404  36.403  33.141   6.715
 4223POPC   C3B54405  36.328  33.269   7.171
 4223POPC   C4B54406  36.167  33.354   7.630
 4224POPC   NC354407  24.535  32.677   5.186
 4224POPC   PO454408  24.815  32.153   5.423
 4224POPC   GL154409  24.584  32.333   5.839
 4224POPC   GL254410  24.305  32.114   5.968
 4224POPC   C1A54411  24.653  32.205   6.310
 4224POPC   D2A54412  24.751  31.975   6.714
 4224POPC   C3A54413  24.584  32.188   7.059
 4224POPC   C4A54414  24.557  32.599   7.165
 4224POPC   C1B54415  24.144  32.404   6.286
 4224POPC   C2B54416  23.967  32.574   6.679
 4224POPC   C3B54417  24.077  32.376   7.071
 4224POPC   C4B54418  24.150  31.915   7.040
 4225POPC   NC354419  38.790  10.378   5.469
 4225POPC   PO454420  39.427  10.668   5.392
 4225POPC   GL154421  39.173  10.644   5.710
 4225POPC   GL254422  39.217  10.279   5.757
 4225POPC   C1A54423  39.171  10.595   6.140
 4225POPC   D2A54424  39.428  10.512   6.491
 4225POPC   C3A54425  39.234  10.586   6.874
 4225POPC   C4A54426  39.376  10.559   7.270
 4225POPC   C1B54427  38.936  10.140   6.112
 4225POPC   C2B54428  38.944  10.311   6.534
 4225POPC   C3B54429  38.919  10.192   6.993
 4225POPC   C4B54430  38.873  10.541   7.298
 4226POPC   NC354431  25.813  41.908   5.393
 4226POPC   PO454432  26.351  41.545   5.321
 4226POPC   GL154433  26.046  41.495   5.654
 4226POPC   GL254434  26.160  41.819   5.772
 4226POPC   C1A54435  26.124  41.458   6.139
 4226POPC   D2A54436  26.288  41.710   6.522
 4226POPC   C3A54437  26.290  41.529   6.947
 4226POPC   C4A54438  26.250  41.264   7.275
 4226POPC   C1B54439  25.973  41.965   6.156
 4226POPC   C2B54440  26.006  42.152   6.550
 4226POPC   C3B54441  25.970  41.913   6.915
 4226POPC   C4B54442  25.887  41.896   7.348
 4227POPC   NC354443  21.645  40.774   5.407
 4227POPC   PO454444  21.000  40.585   5.628
 4227POPC   GL154445  21.228  40.933   5.818
 4227POPC   GL254446  21.609  40.948   5.873
 4227POPC   C1A54447  21.303  40.904   6.256
 4227POPC   D2A54448  21.363  40.624   6.582
 4227POPC   C3A54449  21.155  40.708   6.931
 4227POPC   C4A54450  21.280  40.986   7.244
 4227POPC   C1B54451  21.725  40.610   6.166
 4227POPC   C2B54452  21.875  40.582   6.569
 4227POPC   C3B54453  21.708  40.798   6.930
 4227POPC   C4B54454  21.536  40.549   7.250
 4228POPC   NC354455  44.726  38.935   5.524
 4228POPC   PO454456  44.217  39.312   5.532
 4228POPC   GL154457  44.488  39.243   5.880
 4228POPC   GL254458  44.701  38.949   6.005
 4228POPC   C1A54459  44.439  39.418   6.263
 4228POPC   D2A54460  44.289  39.301   6.646
 4228POPC   C3A54461  44.628  39.437   6.918
 4228POPC   C4A54462  44.961  39.329   7.225
 4228POPC   C1B54463  44.412  38.906   6.282
 4228POPC   C2B54464  44.703  39.033   6.557
 4228POPC   C3B54465  44.710  38.921   6.942
 4228POPC   C4B54466  44.749  38.866   7.336
 4229POPC   NC354467   6.785  25.405   5.380
 4229POPC   PO454468   6.494  24.794   5.339
 4229POPC   GL154469   6.534  25.079   5.729
 4229POPC   GL254470   6.739  25.372   5.868
 4229POPC   C1A54471   6.523  25.058   6.186
 4229POPC   D2A54472   6.473  25.368   6.508
 4229POPC   C3A54473   6.580  25.135   6.838
 4229POPC   C4A54474   6.618  25.166   7.257
 4229POPC   C1B54475   6.968  25.461   6.204
 4229POPC   C2B54476   7.041  25.264   6.580
 4229POPC   C3B54477   7.061  25.122   6.988
 4229POPC   C4B54478   7.059  25.393   7.329
 4230POPC   NC354479  31.658  32.563   5.339
 4230POPC   PO454480  31.228  33.179   5.368
 4230POPC   GL154481  31.330  33.202   5.798
 4230POPC   GL254482  31.610  32.930   5.794
 4230POPC   C1A54483  31.330  33.049   6.213
 4230POPC   D2A54484  31.505  32.892   6.564
 4230POPC   C3A54485  31.284  32.948   6.937
 4230POPC   C4A54486  31.260  33.192   7.276
 4230POPC   C1B54487  31.866  32.862   6.194
 4230POPC   C2B54488  32.031  32.923   6.628
 4230POPC   C3B54489  31.780  33.024   6.966
 4230POPC   C4B54490  31.613  32.842   7.320
 4231POPC   NC354491   7.642  19.536   5.506
 4231POPC   PO454492   7.068  19.953   5.418
 4231POPC   GL154493   7.281  19.815   5.816
 4231POPC   GL254494   7.639  19.908   5.836
 4231POPC   C1A54495   7.431  20.025   6.263
 4231POPC   D2A54496   7.456  20.115   6.696
 4231POPC   C3A54497   7.298  19.833   7.025
 4231POPC   C4A54498   7.403  19.889   7.465
 4231POPC   C1B54499   7.508  19.532   6.159
 4231POPC   C2B54500   7.547  19.607   6.574
 4231POPC   C3B54501   7.639  19.490   6.960
 4231POPC   C4B54502   7.398  19.407   7.325
 4232POPC   NC354503  33.860   6.662   5.375
 4232POPC   PO454504  33.807   6.079   5.552
 4232POPC   GL154505  33.720   6.440   5.825
 4232POPC   GL254506  34.067   6.569   5.836
 4232POPC   C1A54507  33.695   6.467   6.299
 4232POPC   D2A54508  33.421   6.521   6.700
 4232POPC   C3A54509  33.669   6.694   7.000
 4232POPC   C4A54510  34.076   6.508   7.060
 4232POPC   C1B54511  34.048   6.844   6.181
 4232POPC   C2B54512  33.904   6.907   6.602
 4232POPC   C3B54513  34.078   7.017   7.023
 4232POPC   C4B54514  33.730   7.219   7.252
 4233POPC   NC354515  37.837  31.592   4.989
 4233POPC   PO454516  37.624  31.288   5.547
 4233POPC   GL154517  37.670  31.513   5.896
 4233POPC   GL254518  37.916  31.769   5.868
 4233POPC   C1A54519  37.480  31.741   6.212
 4233POPC   D2A54520  37.265  31.571   6.559
 4233POPC   C3A54521  37.438  31.602   6.984
 4233POPC   C4A54522  37.252  31.309   7.293
 4233POPC   C1B54523  37.992  31.612   6.253
 4233POPC   C2B54524  37.835  31.742   6.578
 4233POPC   C3B54525  37.999  31.614   6.908
 4233POPC   C4B54526  37.911  31.712   7.257
 4234POPC   NC354527   3.045  20.898   5.661
 4234POPC   PO454528   2.818  20.339   5.411
 4234POPC   GL154529   2.756  20.503   5.843
 4234POPC   GL254530   2.568  20.786   5.810
 4234POPC   C1A54531   2.875  20.679   6.255
 4234POPC   D2A54532   2.647  20.672   6.608
 4234POPC   C3A54533   2.842  20.676   6.958
 4234POPC   C4A54534   2.662  20.412   7.219
 4234POPC   C1B54535   2.393  20.900   6.215
 4234POPC   C2B54536   2.392  21.105   6.630
 4234POPC   C3B54537   2.373  20.869   7.021
 4234POPC   C4B54538   2.604  20.868   7.399
 4235POPC   NC354539  27.797  23.752   5.089
 4235POPC   PO454540  27.174  23.812   5.369
 4235POPC   GL154541  27.291  23.552   5.824
 4235POPC   GL254542  27.639  23.631   5.963
 4235POPC   C1A54543  27.216  23.581   6.267
 4235POPC   D2A54544  27.138  23.809   6.644
 4235POPC   C3A54545  27.170  23.622   7.023
 4235POPC   C4A54546  27.552  23.736   7.198
 4235POPC   C1B54547  27.915  23.678   6.317
 4235POPC   C2B54548  28.071  23.369   6.616
 4235POPC   C3B54549  28.117  23.497   7.039
 4235POPC   C4B54550  27.946  23.563   7.469
 4236POPC   NC354551  14.301  41.795   5.443
 4236POPC   PO454552  14.368  41.127   5.390
 4236POPC   GL154553  14.441  41.350   5.794
 4236POPC   GL254554  14.443  41.702   5.910
 4236POPC   C1A54555  14.543  41.336   6.237
 4236POPC   D2A54556  14.361  41.597   6.538
 4236POPC   C3A54557  14.460  41.493   6.934
 4236POPC   C4A54558  14.280  41.563   7.295
 4236POPC   C1B54559  14.627  41.929   6.240
 4236POPC   C2B54560  14.651  42.041   6.667
 4236POPC   C3B54561  14.641  42.002   7.086
 4236POPC   C4B54562  14.776  41.699   7.310
 4237POPC   NC354563  23.071  30.271   5.507
 4237POPC   PO454564  22.638  30.667   5.141
 4237POPC   GL154565  22.790  30.760   5.613
 4237POPC   GL254566  23.142  30.879   5.765
 4237POPC   C1A54567  22.753  30.763   6.098
 4237POPC   D2A54568  22.970  30.929   6.482
 4237POPC   C3A54569  22.858  30.755   6.893
 4237POPC   C4A54570  23.028  30.897   7.277
 4237POPC   C1B54571  23.253  30.601   6.142
 4237POPC   C2B54572  23.216  30.461   6.575
 4237POPC   C3B54573  23.357  30.610   6.969
 4237POPC   C4B54574  23.342  30.461   7.374
 4238POPC   NC354575   7.024  11.723   5.536
 4238POPC   PO454576   7.524  12.187   5.421
 4238POPC   GL154577   7.327  12.106   5.775
 4238POPC   GL254578   7.497  11.786   5.786
 4238POPC   C1A54579   7.250  12.313   6.164
 4238POPC   D2A54580   7.358  12.157   6.545
 4238POPC   C3A54581   7.180  12.284   6.874
 4238POPC   C4A54582   7.333  12.238   7.239
 4238POPC   C1B54583   7.262  11.783   6.181
 4238POPC   C2B54584   7.281  11.588   6.567
 4238POPC   C3B54585   7.253  11.754   6.976
 4238POPC   C4B54586   7.045  11.824   7.352
 4239POPC   NC354587   8.559   2.859   5.606
 4239POPC   PO454588   7.928   2.701   5.332
 4239POPC   GL154589   8.085   2.740   5.810
 4239POPC   GL254590   8.385   2.838   6.066
 4239POPC   C1A54591   7.999   2.589   6.237
 4239POPC   D2A54592   8.274   2.716   6.599
 4239POPC   C3A54593   8.265   2.460   6.980
 4239POPC   C4A54594   7.962   2.526   7.285
 4239POPC   C1B54595   8.702   2.568   6.283
 4239POPC   C2B54596   8.800   2.645   6.726
 4239POPC   C3B54597   8.563   2.857   7.068
 4239POPC   C4B54598   8.625   2.798   7.527
 4240POPC   NC354599   8.454  38.072   5.376
 4240POPC   PO454600   7.962  38.575   5.372
 4240POPC   GL154601   8.208  38.516   5.714
 4240POPC   GL254602   8.567  38.567   5.655
 4240POPC   C1A54603   8.111  38.300   6.105
 4240POPC   D2A54604   8.211  38.161   6.520
 4240POPC   C3A54605   8.279  38.471   6.843
 4240POPC   C4A54606   8.301  38.381   7.253
 4240POPC   C1B54607   8.604  38.493   6.134
 4240POPC   C2B54608   8.584  38.754   6.547
 4240POPC   C3B54609   8.626  38.860   7.017
 4240POPC   C4B54610   8.599  38.742   7.483
 4241POPC   NC354611  26.354  13.059   5.516
 4241POPC   PO454612  25.741  13.188   5.528
 4241POPC   GL154613  25.889  13.107   5.900
 4241POPC   GL254614  26.004  12.812   5.828
 4241POPC   C1A54615  25.973  13.003   6.321
 4241POPC   D2A54616  26.166  12.734   6.606
 4241POPC   C3A54617  26.192  12.944   6.999
 4241POPC   C4A54618  25.942  13.195   7.244
 4241POPC   C1B54619  25.780  12.553   6.130
 4241POPC   C2B54620  25.695  12.478   6.581
 4241POPC   C3B54621  25.517  12.526   6.988
 4241POPC   C4B54622  25.811  12.666   7.269
 4242POPC   NC354623  40.011  32.694   5.614
 4242POPC   PO454624  39.417  32.933   5.473
 4242POPC   GL154625  39.695  32.989   5.880
 4242POPC   GL254626  39.936  33.274   5.938
 4242POPC   C1A54627  39.999  32.843   6.236
 4242POPC   D2A54628  40.244  32.930   6.587
 4242POPC   C3A54629  40.101  32.746   6.956
 4242POPC   C4A54630  40.238  32.906   7.339
 4242POPC   C1B54631  39.681  33.288   6.297
 4242POPC   C2B54632  39.695  33.199   6.708
 4242POPC   C3B54633  39.980  33.228   7.022
 4242POPC   C4B54634  40.089  33.369   7.411
 4243POPC   NC354635  16.106   5.169   5.439
 4243POPC   PO454636  15.739   4.614   5.258
 4243POPC   GL154637  15.883   4.779   5.695
 4243POPC   GL254638  15.715   5.133   5.764
 4243POPC   C1A54639  16.046   4.938   6.115
 4243POPC   D2A54640  15.926   4.864   6.564
 4243POPC   C3A54641  15.983   5.119   6.951
 4243POPC   C4A54642  16.175   5.009   7.346
 4243POPC   C1B54643  15.727   5.391   6.140
 4243POPC   C2B54644  15.628   5.311   6.586
 4243POPC   C3B54645  15.547   5.417   7.025
 4243POPC   C4B54646  15.737   5.259   7.438
 4244POPC   NC354647  43.447  13.487   5.361
 4244POPC   PO454648  42.801  13.819   5.469
 4244POPC   GL154649  42.977  13.891   5.851
 4244POPC   GL254650  43.251  13.717   5.774
 4244POPC   C1A54651  42.848  13.816   6.259
 4244POPC   D2A54652  42.881  13.890   6.674
 4244POPC   C3A54653  42.952  13.570   6.915
 4244POPC   C4A54654  43.052  13.660   7.295
 4244POPC   C1B54655  43.363  13.839   6.191
 4244POPC   C2B54656  43.350  13.694   6.593
 4244POPC   C3B54657  43.478  13.713   6.997
 4244POPC   C4B54658  43.511  13.438   7.370
 4245POPC   NC354659   7.685  20.288   5.331
 4245POPC   PO454660   7.331  20.801   5.382
 4245POPC   GL154661   7.461  20.649   5.807
 4245POPC   GL254662   7.302  20.330   5.856
 4245POPC   C1A54663   7.685  20.528   6.223
 4245POPC   D2A54664   7.927  20.643   6.618
 4245POPC   C3A54665   7.784  20.497   6.996
 4245POPC   C4A54666   7.622  20.661   7.397
 4245POPC   C1B54667   7.148  20.473   6.289
 4245POPC   C2B54668   7.206  20.548   6.765
 4245POPC   C3B54669   7.342  20.315   7.162
 4245POPC   C4B54670   7.248  20.363   7.634
 4246POPC   NC354671  30.717  24.534   5.316
 4246POPC   PO454672  30.507  23.970   5.642
 4246POPC   GL154673  30.728  24.332   5.800
 4246POPC   GL254674  31.011  24.183   5.987
 4246POPC   C1A54675  30.770  24.613   6.180
 4246POPC   D2A54676  30.902  24.718   6.619
 4246POPC   C3A54677  30.677  24.581   7.011
 4246POPC   C4A54678  30.972  24.585   7.302
 4246POPC   C1B54679  30.639  24.110   6.251
 4246POPC   C2B54680  30.596  24.259   6.624
 4246POPC   C3B54681  30.930  24.168   6.897
 4246POPC   C4B54682  30.816  24.024   7.286
 4247POPC   NC354683  29.483  14.396   5.400
 4247POPC   PO454684  28.845  14.234   5.477
 4247POPC   GL154685  29.138  14.287   5.810
 4247POPC   GL254686  29.337  14.009   5.737
 4247POPC   C1A54687  29.028  14.248   6.246
 4247POPC   D2A54688  29.170  14.286   6.670
 4247POPC   C3A54689  28.896  14.358   7.009
 4247POPC   C4A54690  29.219  14.675   7.118
 4247POPC   C1B54691  29.511  14.053   6.144
 4247POPC   C2B54692  29.689  14.140   6.533
 4247POPC   C3B54693  29.631  14.300   6.927
 4247POPC   C4B54694  29.343  14.170   7.208
 4248POPC   NC354695  34.171  36.672   5.626
 4248POPC   PO454696  34.621  37.100   5.351
 4248POPC   GL154697  34.679  36.783   5.848
 4248POPC   GL254698  34.870  37.055   5.964
 4248POPC   C1A54699  34.579  36.891   6.351
 4248POPC   D2A54700  34.486  37.202   6.677
 4248POPC   C3A54701  34.430  36.948   7.002
 4248POPC   C4A54702  34.177  36.600   7.084
 4248POPC   C1B54703  35.034  36.700   6.285
 4248POPC   C2B54704  34.875  36.572   6.713
 4248POPC   C3B54705  34.752  36.572   7.179
 4248POPC   C4B54706  34.782  36.579   7.642
 4249POPC   NC354707  19.603  22.869   5.315
 4249POPC   PO454708  20.293  22.902   5.597
 4249POPC   GL154709  19.910  22.974   5.732
 4249POPC   GL254710  19.802  22.684   5.808
 4249POPC   C1A54711  19.723  23.170   6.069
 4249POPC   D2A54712  19.608  23.179   6.518
 4249POPC   C3A54713  19.810  23.193   6.898
 4249POPC   C4A54714  19.637  23.034   7.277
 4249POPC   C1B54715  19.859  22.722   6.245
 4249POPC   C2B54716  19.683  22.685   6.644
 4249POPC   C3B54717  19.896  22.707   7.009
 4249POPC   C4B54718  20.286  22.759   7.190
 4250POPC   NC354719   3.864   5.992   5.338
 4250POPC   PO454720   3.192   6.056   5.449
 4250POPC   GL154721   3.562   6.020   5.759
 4250POPC   GL254722   3.647   5.690   5.955
 4250POPC   C1A54723   3.676   6.143   6.165
 4250POPC   D2A54724   3.742   5.827   6.523
 4250POPC   C3A54725   3.651   5.930   6.960
 4250POPC   C4A54726   3.647   6.271   7.305
 4250POPC   C1B54727   3.971   5.483   6.233
 4250POPC   C2B54728   3.901   5.266   6.647
 4250POPC   C3B54729   3.953   5.429   7.065
 4250POPC   C4B54730   3.867   5.776   7.394
 4251POPC   NC354731  40.925  42.024   5.194
 4251POPC   PO454732  40.913  41.405   5.362
 4251POPC   GL154733  40.796  41.731   5.703
 4251POPC   GL254734  40.484  41.938   5.791
 4251POPC   C1A54735  40.759  41.743   6.176
 4251POPC   D2A54736  40.888  41.596   6.572
 4251POPC   C3A54737  40.655  41.581   6.922
 4251POPC   C4A54738  40.596  41.216   7.217
 4251POPC   C1B54739  40.253  41.934   6.255
 4251POPC   C2B54740  40.222  41.863   6.741
 4251POPC   C3B54741  40.445  42.025   7.123
 4251POPC   C4B54742  40.677  42.023   7.525
 4252POPC   NC354743   6.915  41.902   5.484
 4252POPC   PO454744   7.581  42.271   5.503
 4252POPC   GL154745   7.438  42.267   5.874
 4252POPC   GL254746   7.294  41.935   5.833
 4252POPC   C1A54747   7.430  42.269   6.289
 4252POPC   D2A54748   7.342  42.485   6.618
 4252POPC   C3A54749   7.590  42.372   6.931
 4252POPC   C4A54750   7.520  42.533   7.307
 4252POPC   C1B54751   6.999  42.012   6.161
 4252POPC   C2B54752   6.930  42.174   6.570
 4252POPC   C3B54753   7.129  42.160   6.957
 4252POPC   C4B54754   7.083  42.208   7.372
 4253POPC   NC354755  22.675  36.939   5.423
 4253POPC   PO454756  23.310  37.141   5.493
 4253POPC   GL154757  23.036  36.957   5.792
 4253POPC   GL254758  23.128  36.627   5.734
 4253POPC   C1A54759  22.986  37.089   6.254
 4253POPC   D2A54760  23.064  36.889   6.647
 4253POPC   C3A54761  22.943  36.954   7.070
 4253POPC   C4A54762  23.323  37.087   7.244
 4253POPC   C1B54763  22.835  36.621   6.126
 4253POPC   C2B54764  22.845  36.446   6.576
 4253POPC   C3B54765  22.604  36.458   6.972
 4253POPC   C4B54766  22.541  36.635   7.414
 4254POPC   NC354767   6.758  22.728   5.514
 4254POPC   PO454768   6.859  22.061   5.319
 4254POPC   GL154769   6.869  22.137   5.793
 4254POPC   GL254770   6.700  22.417   5.935
 4254POPC   C1A54771   6.684  22.003   6.232
 4254POPC   D2A54772   6.511  22.081   6.681
 4254POPC   C3A54773   6.765  22.046   7.025
 4254POPC   C4A54774   6.928  22.245   7.412
 4254POPC   C1B54775   6.691  22.507   6.400
 4254POPC   C2B54776   6.758  22.528   6.864
 4254POPC   C3B54777   6.496  22.449   7.226
 4254POPC   C4B54778   6.455  22.351   7.663
 4255POPC   NC354779  32.492  10.647   5.324
 4255POPC   PO454780  31.983  10.180   5.457
 4255POPC   GL154781  32.221  10.382   5.796
 4255POPC   GL254782  32.260  10.745   5.797
 4255POPC   C1A54783  32.275  10.454   6.250
 4255POPC   D2A54784  32.421  10.687   6.595
 4255POPC   C3A54785  32.326  10.430   6.954
 4255POPC   C4A54786  32.195  10.206   7.296
 4255POPC   C1B54787  31.907  10.772   6.136
 4255POPC   C2B54788  31.911  10.638   6.598
 4255POPC   C3B54789  32.048  10.829   7.016
 4255POPC   C4B54790  32.067  11.021   7.428
 4256POPC   NC354791   2.147   9.645   5.662
 4256POPC   PO454792   2.708   9.956   5.376
 4256POPC   GL154793   2.755   9.715   5.768
 4256POPC   GL254794   2.936   9.989   5.894
 4256POPC   C1A54795   2.591   9.486   6.166
 4256POPC   D2A54796   2.752   9.319   6.562
 4256POPC   C3A54797   2.688   9.460   6.985
 4256POPC   C4A54798   2.725   9.604   7.406
 4256POPC   C1B54799   3.023   9.726   6.257
 4256POPC   C2B54800   3.008   9.750   6.671
 4256POPC   C3B54801   3.045   9.831   7.067
 4256POPC   C4B54802   2.976  10.105   7.422
 4257POPC   NC354803  34.058  20.912   5.160
 4257POPC   PO454804  34.507  20.408   5.374
 4257POPC   GL154805  34.611  20.550   5.777
 4257POPC   GL254806  34.426  20.788   5.866
 4257POPC   C1A54807  34.604  20.465   6.219
 4257POPC   D2A54808  34.625  20.244   6.566
 4257POPC   C3A54809  34.665  20.444   6.947
 4257POPC   C4A54810  34.826  20.367   7.342
 4257POPC   C1B54811  34.502  20.977   6.269
 4257POPC   C2B54812  34.603  20.860   6.637
 4257POPC   C3B54813  34.563  21.009   7.016
 4257POPC   C4B54814  34.518  20.772   7.342
 4258POPC   NC354815  13.620   7.112   5.533
 4258POPC   PO454816  13.396   7.722   5.336
 4258POPC   GL154817  13.535   7.605   5.762
 4258POPC   GL254818  13.286   7.355   5.843
 4258POPC   C1A54819  13.819   7.519   6.127
 4258POPC   D2A54820  13.867   7.257   6.520
 4258POPC   C3A54821  13.580   7.355   6.839
 4258POPC   C4A54822  13.641   7.626   7.182
 4258POPC   C1B54823  13.423   7.219   6.263
 4258POPC   C2B54824  13.421   6.921   6.611
 4258POPC   C3B54825  13.207   6.882   7.000
 4258POPC   C4B54826  13.357   7.205   7.274
 4259POPC   NC354827   2.688  27.360   5.327
 4259POPC   PO454828   2.496  27.974   5.466
 4259POPC   GL154829   2.524  27.625   5.799
 4259POPC   GL254830   2.859  27.517   5.825
 4259POPC   C1A54831   2.676  27.663   6.272
 4259POPC   D2A54832   2.788  28.006   6.586
 4259POPC   C3A54833   2.859  27.855   7.003
 4259POPC   C4A54834   2.533  27.595   7.142
 4259POPC   C1B54835   3.103  27.389   6.191
 4259POPC   C2B54836   2.982  27.167   6.563
 4259POPC   C3B54837   2.879  27.247   6.987
 4259POPC   C4B54838   3.087  27.464   7.321
 4260POPC   NC354839  39.909  38.829   5.553
 4260POPC   PO454840  40.134  38.178   5.352
 4260POPC   GL154841  40.085  38.397   5.776
 4260POPC   GL254842  39.776  38.355   6.001
 4260POPC   C1A54843  40.236  38.572   6.166
 4260POPC   D2A54844  40.039  38.494   6.574
 4260POPC   C3A54845  40.217  38.321   6.940
 4260POPC   C4A54846  40.300  38.569   7.278
 4260POPC   C1B54847  39.768  38.762   6.213
 4260POPC   C2B54848  39.637  38.860   6.608
 4260POPC   C3B54849  39.734  38.671   7.003
 4260POPC   C4B54850  39.601  38.331   7.267
 4261POPC   NC354851  29.370  36.930   5.409
 4261POPC   PO454852  28.995  37.353   5.681
 4261POPC   GL154853  29.178  36.960   5.869
 4261POPC   GL254854  29.003  36.666   5.765
 4261POPC   C1A54855  29.357  36.743   6.228
 4261POPC   D2A54856  29.173  36.947   6.580
 4261POPC   C3A54857  29.320  37.105   6.964
 4261POPC   C4A54858  28.994  37.033   7.274
 4261POPC   C1B54859  28.831  36.740   6.182
 4261POPC   C2B54860  28.863  36.528   6.557
 4261POPC   C3B54861  29.002  36.631   6.965
 4261POPC   C4B54862  29.373  36.669   7.207
 4262POPC   NC354863  33.253   5.345   5.664
 4262POPC   PO454864  33.176   4.692   5.556
 4262POPC   GL154865  32.959   4.807   5.921
 4262POPC   GL254866  32.824   5.126   5.837
 4262POPC   C1A54867  33.065   5.045   6.279
 4262POPC   D2A54868  33.213   5.374   6.549
 4262POPC   C3A54869  33.195   5.081   6.876
 4262POPC   C4A54870  32.890   4.934   7.189
 4262POPC   C1B54871  32.742   5.424   6.188
 4262POPC   C2B54872  32.714   5.255   6.607
 4262POPC   C3B54873  32.813   5.398   7.008
 4262POPC   C4B54874  32.728   5.369   7.433
 4263POPC   NC354875   9.119  36.843   5.307
 4263POPC   PO454876   8.594  36.513   5.446
 4263POPC   GL154877   8.824  36.720   5.807
 4263POPC   GL254878   8.988  37.062   5.747
 4263POPC   C1A54879   8.881  36.801   6.276
 4263POPC   D2A54880   9.040  36.646   6.698
 4263POPC   C3A54881   8.953  36.763   7.159
 4263POPC   C4A54882   8.754  36.725   7.627
 4263POPC   C1B54883   9.215  37.184   6.118
 4263POPC   C2B54884   9.244  37.097   6.552
 4263POPC   C3B54885   9.119  37.268   6.942
 4263POPC   C4B54886   9.414  37.322   7.263
 4264POPC   NC354887  26.144  37.188   5.514
 4264POPC   PO454888  25.784  36.586   5.360
 4264POPC   GL154889  25.889  36.697   5.858
 4264POPC   GL254890  26.245  36.761   5.837
 4264POPC   C1A54891  25.680  36.824   6.308
 4264POPC   D2A54892  25.852  37.118   6.705
 4264POPC   C3A54893  25.831  36.969   7.197
 4264POPC   C4A54894  25.854  37.005   7.678
 4264POPC   C1B54895  26.171  36.859   6.288
 4264POPC   C2B54896  26.029  36.651   6.674
 4264POPC   C3B54897  26.287  36.776   7.051
 4264POPC   C4B54898  26.260  36.730   7.520
 4265POPC   NC354899  17.123   4.211   5.349
 4265POPC   PO454900  17.770   4.282   5.228
 4265POPC   GL154901  17.654   4.409   5.670
 4265POPC   GL254902  17.460   4.149   5.791
 4265POPC   C1A54903  17.874   4.531   6.092
 4265POPC   D2A54904  17.952   4.364   6.552
 4265POPC   C3A54905  17.659   4.445   6.901
 4265POPC   C4A54906  17.756   4.383   7.332
 4265POPC   C1B54907  17.386   4.392   6.186
 4265POPC   C2B54908  17.191   4.339   6.584
 4265POPC   C3B54909  17.181   4.096   6.964
 4265POPC   C4B54910  17.281   4.241   7.345
 4266POPC   NC354911  32.620  15.915   5.354
 4266POPC   PO454912  32.019  16.120   5.477
 4266POPC   GL154913  32.275  15.918   5.767
 4266POPC   GL254914  32.530  16.201   5.776
 4266POPC   C1A54915  32.147  15.714   6.169
 4266POPC   D2A54916  31.889  15.706   6.551
 4266POPC   C3A54917  32.179  15.627   6.888
 4266POPC   C4A54918  32.251  15.773   7.278
 4266POPC   C1B54919  32.528  16.065   6.194
 4266POPC   C2B54920  32.328  16.018   6.581
 4266POPC   C3B54921  32.562  16.017   6.958
 4266POPC   C4B54922  32.764  15.952   7.368
 4267POPC   NC354923  37.353   0.583   5.423
 4267POPC   PO454924  36.822   1.106   5.422
 4267POPC   GL154925  36.965   1.015   5.838
 4267POPC   GL254926  37.130   0.701   5.870
 4267POPC   C1A54927  37.066   1.152   6.282
 4267POPC   D2A54928  37.033   1.408   6.658
 4267POPC   C3A54929  36.685   1.594   6.876
 4267POPC   C4A54930  36.774   1.408   7.246
 4267POPC   C1B54931  37.352   0.722   6.257
 4267POPC   C2B54932  37.316   0.890   6.696
 4267POPC   C3B54933  37.189   1.136   7.062
 4267POPC   C4B54934  37.098   1.121   7.520
 4268POPC   NC354935  30.889  30.936   5.419
 4268POPC   PO454936  30.598  30.330   5.401
 4268POPC   GL154937  30.567  30.633   5.699
 4268POPC   GL254938  30.909  30.624   5.820
 4268POPC   C1A54939  30.503  30.824   6.085
 4268POPC   D2A54940  30.552  30.800   6.523
 4268POPC   C3A54941  30.260  30.842   6.861
 4268POPC   C4A54942  30.291  30.805   7.300
 4268POPC   C1B54943  31.088  30.522   6.223
 4268POPC   C2B54944  31.269  30.589   6.633
 4268POPC   C3B54945  31.009  30.668   6.997
 4268POPC   C4B54946  30.968  30.489   7.396
 4269POPC   NC354947  26.619   0.278   5.225
 4269POPC   PO454948  27.198   0.494   5.485
 4269POPC   GL154949  26.791   0.395   5.731
 4269POPC   GL254950  26.556   0.694   5.686
 4269POPC   C1A54951  26.591   0.383   6.160
 4269POPC   D2A54952  26.684   0.216   6.580
 4269POPC   C3A54953  26.562   0.372   6.991
 4269POPC   C4A54954  26.777   0.214   7.352
 4269POPC   C1B54955  26.853   0.815   6.025
 4269POPC   C2B54956  26.846   0.710   6.486
 4269POPC   C3B54957  26.820   0.821   6.934
 4269POPC   C4B54958  26.931   0.681   7.363
 4270POPC   NC354959  34.329  19.984   5.292
 4270POPC   PO454960  34.874  19.672   5.465
 4270POPC   GL154961  34.625  19.764   5.823
 4270POPC   GL254962  34.419  20.067   5.810
 4270POPC   C1A54963  34.545  19.710   6.257
 4270POPC   D2A54964  34.671  19.764   6.659
 4270POPC   C3A54965  34.450  19.651   6.957
 4270POPC   C4A54966  34.445  19.861   7.314
 4270POPC   C1B54967  34.219  20.121   6.213
 4270POPC   C2B54968  34.185  19.924   6.600
 4270POPC   C3B54969  34.252  20.138   6.943
 4270POPC   C4B54970  34.237  20.339   7.328
 4271POPC   NC354971  26.187  41.090   5.292
 4271POPC   PO454972  25.549  40.794   5.356
 4271POPC   GL154973  25.874  40.766   5.713
 4271POPC   GL254974  26.185  40.987   5.794
 4271POPC   C1A54975  25.740  40.693   6.147
 4271POPC   D2A54976  25.651  40.865   6.567
 4271POPC   C3A54977  25.681  40.602   6.943
 4271POPC   C4A54978  25.939  40.450   7.280
 4271POPC   C1B54979  26.187  40.947   6.242
 4271POPC   C2B54980  26.104  41.152   6.614
 4271POPC   C3B54981  26.105  40.881   6.934
 4271POPC   C4B54982  26.373  40.757   7.213
 4272POPC   NC354983   7.753  32.272   5.400
 4272POPC   PO454984   7.084  32.223   5.531
 4272POPC   GL154985   7.151  32.099   5.932
 4272POPC   GL254986   7.496  32.172   5.880
 4272POPC   C1A54987   7.261  32.121   6.348
 4272POPC   D2A54988   7.454  32.057   6.728
 4272POPC   C3A54989   7.174  32.155   7.017
 4272POPC   C4A54990   7.095  32.565   7.207
 4272POPC   C1B54991   7.793  32.121   6.225
 4272POPC   C2B54992   7.960  32.140   6.637
 4272POPC   C3B54993   7.845  32.079   7.068
 4272POPC   C4B54994   7.545  32.280   7.331
 4273POPC   NC354995  10.367  10.043   5.460
 4273POPC   PO454996  10.992   9.893   5.701
 4273POPC   GL154997  10.614  10.058   5.944
 4273POPC   GL254998  10.264   9.904   5.941
 4273POPC   C1A54999  10.535  10.101   6.400
 4273POPC   D2A55000  10.805  10.154   6.783
 4273POPC   C3A55001  10.677   9.915   7.128
 4273POPC   C4A55002  10.260   9.836   7.274
 4273POPC   C1B55003  10.473   9.617   6.233
 4273POPC   C2B55004  10.591   9.648   6.685
 4273POPC   C3B55005  10.515   9.426   7.083
 4273POPC   C4B55006  10.620   9.536   7.515
 4274POPC   NC355007  19.127  37.629   5.252
 4274POPC   PO455008  19.213  37.043   5.562
 4274POPC   GL155009  19.315  37.284   5.955
 4274POPC   GL255010  19.205  37.614   5.884
 4274POPC   C1A55011  19.164  37.231   6.403
 4274POPC   D2A55012  18.851  37.400   6.709
 4274POPC   C3A55013  19.025  37.529   7.097
 4274POPC   C4A55014  19.315  37.308   7.369
 4274POPC   C1B55015  19.050  37.727   6.317
 4274POPC   C2B55016  18.966  37.938   6.723
 4274POPC   C3B55017  18.891  38.027   7.167
 4274POPC   C4B55018  18.751  37.751   7.483
 4275POPC   NC355019   5.025   9.397   5.464
 4275POPC   PO455020   5.104   8.727   5.334
 4275POPC   GL155021   5.099   8.928   5.751
 4275POPC   GL255022   5.379   9.147   5.836
 4275POPC   C1A55023   4.904   8.938   6.172
 4275POPC   D2A55024   5.075   8.983   6.574
 4275POPC   C3A55025   4.868   8.945   6.960
 4275POPC   C4A55026   5.069   8.789   7.337
 4275POPC   C1B55027   5.391   9.286   6.283
 4275POPC   C2B55028   5.399   9.378   6.738
 4275POPC   C3B55029   5.594   9.284   7.114
 4275POPC   C4B55030   5.302   9.220   7.467
 4276POPC   NC355031  27.857  42.930   5.483
 4276POPC   PO455032  27.311  43.334   5.549
 4276POPC   GL155033  27.479  43.051   5.840
 4276POPC   GL255034  27.811  43.181   5.909
 4276POPC   C1A55035  27.478  43.139   6.277
 4276POPC   D2A55036  27.372  43.347   6.615
 4276POPC   C3A55037  27.528  43.082   6.910
 4276POPC   C4A55038  27.775  43.101   7.282
 4276POPC   C1B55039  27.929  42.907   6.266
 4276POPC   C2B55040  27.751  42.732   6.594
 4276POPC   C3B55041  27.906  42.721   6.991
 4276POPC   C4B55042  28.181  42.769   7.323
 4277POPC   NC355043  24.632  26.470   5.507
 4277POPC   PO455044  24.317  25.871   5.320
 4277POPC   GL155045  24.268  26.123   5.706
 4277POPC   GL255046  24.092  26.445   5.660
 4277POPC   C1A55047  24.443  26.049   6.127
 4277POPC   D2A55048  24.661  25.951   6.522
 4277POPC   C3A55049  24.531  26.017   6.953
 4277POPC   C4A55050  24.508  26.349   7.260
 4277POPC   C1B55051  24.042  26.348   6.116
 4277POPC   C2B55052  24.147  26.174   6.531
 4277POPC   C3B55053  24.072  26.267   6.937
 4277POPC   C4B55054  24.022  26.502   7.312
 4278POPC   NC355055   0.858   1.888   4.778
 4278POPC   PO455056   0.565   2.023   5.349
 4278POPC   GL155057   0.567   2.034   5.811
 4278POPC   GL255058   0.773   2.319   5.812
 4278POPC   C1A55059   0.310   1.905   6.206
 4278POPC   D2A55060  44.968   1.820   6.525
 4278POPC   C3A55061   0.139   1.783   6.945
 4278POPC   C4A55062   0.517   1.903   7.143
 4278POPC   C1B55063   0.556   2.360   6.215
 4278POPC   C2B55064   0.485   2.210   6.665
 4278POPC   C3B55065   0.583   2.414   7.080
 4278POPC   C4B55066   0.605   2.273   7.528
 4279POPC   NC355067  29.208  15.028   5.354
 4279POPC   PO455068  29.098  15.665   5.560
 4279POPC   GL155069  29.330  15.402   5.886
 4279POPC   GL255070  29.400  15.047   5.819
 4279POPC   C1A55071  29.225  15.174   6.284
 4279POPC   D2A55072  29.087  15.263   6.709
 4279POPC   C3A55073  29.344  15.290   7.089
 4279POPC   C4A55074  29.520  15.569   7.423
 4279POPC   C1B55075  29.055  14.782   5.994
 4279POPC   C2B55076  28.972  14.722   6.444
 4279POPC   C3B55077  28.819  14.849   6.849
 4279POPC   C4B55078  28.830  15.163   7.174
 4280POPC   NC355079   0.194   4.935   5.550
 4280POPC   PO455080   0.748   5.351   5.451
 4280POPC   GL155081   0.498   5.224   5.863
 4280POPC   GL255082   0.575   4.868   5.881
 4280POPC   C1A55083   0.293   5.003   6.277
 4280POPC   D2A55084   0.106   5.149   6.705
 4280POPC   C3A55085   0.181   4.977   7.124
 4280POPC   C4A55086   0.508   4.998   7.410
 4280POPC   C1B55087   0.794   4.921   6.274
 4280POPC   C2B55088   0.621   4.963   6.683
 4280POPC   C3B55089   0.851   4.860   7.063
 4280POPC   C4B55090   0.844   4.606   7.423
 4281POPC   NC355091   1.288  24.856   5.524
 4281POPC   PO455092   1.126  24.128   5.435
 4281POPC   GL155093   1.061  24.383   5.823
 4281POPC   GL255094   1.401  24.485   5.905
 4281POPC   C1A55095   1.081  24.439   6.300
 4281POPC   D2A55096   1.101  24.154   6.670
 4281POPC   C3A55097   1.383  24.121   7.052
 4281POPC   C4A55098   1.168  24.188   7.476
 4281POPC   C1B55099   1.600  24.469   6.315
 4281POPC   C2B55100   1.393  24.594   6.698
 4281POPC   C3B55101   1.205  24.594   7.077
 4281POPC   C4B55102   1.539  24.575   7.367
 4282POPC   NC355103  42.466  24.812   5.329
 4282POPC   PO455104  41.888  24.371   5.337
 4282POPC   GL155105  42.216  24.454   5.756
 4282POPC   GL255106  42.613  24.498   5.882
 4282POPC   C1A55107  42.292  24.479   6.241
 4282POPC   D2A55108  42.266  24.665   6.618
 4282POPC   C3A55109  42.284  24.535   7.012
 4282POPC   C4A55110  42.387  24.174   7.152
 4282POPC   C1B55111  42.722  24.727   6.361
 4282POPC   C2B55112  42.703  24.825   6.836
 4282POPC   C3B55113  42.767  24.622   7.237
 4282POPC   C4B55114  42.725  24.745   7.678
 4283POPC   NC355115   1.859  19.362   5.478
 4283POPC   PO455116   2.426  19.041   5.503
 4283POPC   GL155117   2.123  19.133   5.878
 4283POPC   GL255118   1.737  19.198   5.935
 4283POPC   C1A55119   1.983  18.998   6.312
 4283POPC   D2A55120   1.807  18.931   6.706
 4283POPC   C3A55121   1.962  18.883   7.084
 4283POPC   C4A55122   1.748  18.652   7.388
 4283POPC   C1B55123   1.518  19.250   6.339
 4283POPC   C2B55124   1.704  19.420   6.703
 4283POPC   C3B55125   1.759  19.416   7.170
 4283POPC   C4B55126   1.888  19.160   7.533
 4284POPC   NC355127  44.127  19.355   5.394
 4284POPC   PO455128  43.840  18.739   5.512
 4284POPC   GL155129  43.882  18.858   5.882
 4284POPC   GL255130  44.177  19.081   5.832
 4284POPC   C1A55131  43.717  19.035   6.247
 4284POPC   D2A55132  43.532  19.032   6.621
 4284POPC   C3A55133  43.674  19.129   6.998
 4284POPC   C4A55134  43.517  18.952   7.358
 4284POPC   C1B55135  44.225  18.858   6.247
 4284POPC   C2B55136  44.030  18.824   6.645
 4284POPC   C3B55137  44.234  18.983   6.968
 4284POPC   C4B55138  44.073  19.155   7.331
 4285POPC   NC355139  18.530  22.261   5.632
 4285POPC   PO455140  17.864  22.089   5.384
 4285POPC   GL155141  18.056  22.121   5.814
 4285POPC   GL255142  18.309  21.864   5.936
 4285POPC   C1A55143  18.190  22.264   6.243
 4285POPC   D2A55144  18.048  22.143   6.663
 4285POPC   C3A55145  18.184  22.159   7.104
 4285POPC   C4A55146  18.074  22.329   7.516
 4285POPC   C1B55147  18.226  21.741   6.382
 4285POPC   C2B55148  18.470  21.734   6.769
 4285POPC   C3B55149  18.617  21.905   7.161
 4285POPC   C4B55150  18.398  21.926   7.563
 4286POPC   NC355151  16.948  22.452   5.021
 4286POPC   PO455152  16.873  21.975   5.443
 4286POPC   GL155153  16.747  21.986   5.852
 4286POPC   GL255154  16.611  22.288   5.981
 4286POPC   C1A55155  16.825  21.818   6.234
 4286POPC   D2A55156  16.826  22.040   6.602
 4286POPC   C3A55157  16.778  22.021   7.025
 4286POPC   C4A55158  16.473  22.282   7.193
 4286POPC   C1B55159  16.981  22.407   6.260
 4286POPC   C2B55160  17.086  22.482   6.702
 4286POPC   C3B55161  16.903  22.546   7.124
 4286POPC   C4B55162  16.785  22.447   7.590
 4287POPC   NC355163  41.167  26.132   5.115
 4287POPC   PO455164  40.660  26.183   5.622
 4287POPC   GL155165  40.971  25.976   5.942
 4287POPC   GL255166  40.981  25.619   5.893
 4287POPC   C1A55167  41.126  26.102   6.379
 4287POPC   D2A55168  40.920  26.213   6.786
 4287POPC   C3A55169  41.169  26.222   7.149
 4287POPC   C4A55170  41.015  26.119   7.540
 4287POPC   C1B55171  41.142  25.573   6.301
 4287POPC   C2B55172  41.001  25.704   6.697
 4287POPC   C3B55173  40.865  25.808   7.119
 4287POPC   C4B55174  40.841  25.608   7.494
 4288POPC   NC355175  16.352  35.042   5.246
 4288POPC   PO455176  15.767  35.461   5.391
 4288POPC   GL155177  15.917  35.478   5.793
 4288POPC   GL255178  16.124  35.193   5.743
 4288POPC   C1A55179  15.745  35.569   6.202
 4288POPC   D2A55180  15.920  35.477   6.612
 4288POPC   C3A55181  15.683  35.520   6.995
 4288POPC   C4A55182  15.696  35.475   7.427
 4288POPC   C1B55183  15.939  35.103   6.176
 4288POPC   C2B55184  16.052  34.992   6.616
 4288POPC   C3B55185  16.072  35.165   7.081
 4288POPC   C4B55186  16.066  35.143   7.577
 4289POPC   NC355187  30.749  32.558   5.498
 4289POPC   PO455188  30.461  31.998   5.565
 4289POPC   GL155189  30.709  32.210   5.882
 4289POPC   GL255190  30.428  32.388   5.929
 4289POPC   C1A55191  30.789  32.221   6.324
 4289POPC   D2A55192  30.603  31.929   6.622
 4289POPC   C3A55193  30.745  32.089   6.964
 4289POPC   C4A55194  30.881  32.195   7.329
 4289POPC   C1B55195  30.461  32.605   6.335
 4289POPC   C2B55196  30.529  32.566   6.776
 4289POPC   C3B55197  30.379  32.363   7.177
 4289POPC   C4B55198  30.490  32.329   7.628
 4290POPC   NC355199  12.339   3.535   5.361
 4290POPC   PO455200  11.632   3.437   5.371
 4290POPC   GL155201  11.966   3.368   5.730
 4290POPC   GL255202  12.251   3.586   5.873
 4290POPC   C1A55203  11.955   3.243   6.162
 4290POPC   D2A55204  12.050   3.455   6.549
 4290POPC   C3A55205  11.918   3.297   6.942
 4290POPC   C4A55206  11.809   3.550   7.282
 4290POPC   C1B55207  11.999   3.813   6.201
 4290POPC   C2B55208  12.022   3.991   6.623
 4290POPC   C3B55209  12.197   3.743   6.967
 4290POPC   C4B55210  12.290   3.681   7.406
 4291POPC   NC355211   2.716   8.848   5.460
 4291POPC   PO455212   2.288   9.265   5.390
 4291POPC   GL155213   2.519   9.207   5.761
 4291POPC   GL255214   2.897   9.226   5.746
 4291POPC   C1A55215   2.645   8.929   6.119
 4291POPC   D2A55216   2.449   8.907   6.506
 4291POPC   C3A55217   2.613   8.903   6.903
 4291POPC   C4A55218   2.619   9.069   7.327
 4291POPC   C1B55219   3.070   9.206   6.162
 4291POPC   C2B55220   3.056   8.931   6.533
 4291POPC   C3B55221   3.063   9.102   6.959
 4291POPC   C4B55222   3.087   8.891   7.355
 4292POPC   NC355223  24.215   0.096   5.048
 4292POPC   PO455224  24.635  44.660   5.435
 4292POPC   GL155225  24.586  44.626   5.856
 4292POPC   GL255226  24.257  44.484   5.820
 4292POPC   C1A55227  24.788  44.619   6.271
 4292POPC   D2A55228  24.947  44.394   6.655
 4292POPC   C3A55229  24.661  44.500   6.989
 4292POPC   C4A55230  24.646  44.935   7.110
 4292POPC   C1B55231  24.256  44.722   6.238
 4292POPC   C2B55232  24.281  44.812   6.698
 4292POPC   C3B55233  24.171  44.705   7.107
 4292POPC   C4B55234  24.178  44.306   7.318
 4293POPC   NC355235  14.114  19.808   5.337
 4293POPC   PO455236  13.378  19.863   5.360
 4293POPC   GL155237  13.521  19.791   5.782
 4293POPC   GL255238  13.851  19.910   5.826
 4293POPC   C1A55239  13.489  19.864   6.230
 4293POPC   D2A55240  13.497  19.535   6.530
 4293POPC   C3A55241  13.511  19.641   6.976
 4293POPC   C4A55242  13.886  19.704   7.248
 4293POPC   C1B55243  13.962  19.704   6.221
 4293POPC   C2B55244  13.841  19.897   6.627
 4293POPC   C3B55245  13.641  20.129   6.936
 4293POPC   C4B55246  13.736  20.242   7.307
 4294POPC   NC355247  39.875  20.544   5.213
 4294POPC   PO455248  40.406  20.853   5.448
 4294POPC   GL155249  40.139  20.623   5.790
 4294POPC   GL255250  39.781  20.471   5.745
 4294POPC   C1A55251  40.088  20.636   6.255
 4294POPC   D2A55252  40.213  20.396   6.624
 4294POPC   C3A55253  40.182  20.628   6.960
 4294POPC   C4A55254  39.915  20.705   7.292
 4294POPC   C1B55255  39.613  20.450   6.196
 4294POPC   C2B55256  39.728  20.563   6.649
 4294POPC   C3B55257  39.492  20.544   7.054
 4294POPC   C4B55258  39.593  20.356   7.492
 4295POPC   NC355259  12.202   5.195   5.383
 4295POPC   PO455260  11.872   4.725   5.604
 4295POPC   GL155261  12.101   4.979   5.845
 4295POPC   GL255262  11.931   5.298   5.805
 4295POPC   C1A55263  12.070   5.031   6.268
 4295POPC   D2A55264  12.367   5.005   6.550
 4295POPC   C3A55265  12.238   4.808   6.905
 4295POPC   C4A55266  12.273   4.927   7.278
 4295POPC   C1B55267  12.248   5.473   6.073
 4295POPC   C2B55268  12.204   5.491   6.512
 4295POPC   C3B55269  12.214   5.340   6.954
 4295POPC   C4B55270  11.997   5.349   7.367
 4296POPC   NC355271  20.138  41.290   5.060
 4296POPC   PO455272  20.552  41.693   5.481
 4296POPC   GL155273  20.437  41.760   5.867
 4296POPC   GL255274  20.596  41.421   5.909
 4296POPC   C1A55275  20.657  41.752   6.257
 4296POPC   D2A55276  20.718  41.564   6.601
 4296POPC   C3A55277  20.675  41.791   6.973
 4296POPC   C4A55278  20.757  41.752   7.422
 4296POPC   C1B55279  20.939  41.322   6.172
 4296POPC   C2B55280  20.981  41.120   6.565
 4296POPC   C3B55281  20.932  41.296   6.966
 4296POPC   C4B55282  20.553  41.349   7.192
 4297POPC   NC355283  37.837  38.086   5.670
 4297POPC   PO455284  37.556  37.488   5.445
 4297POPC   GL155285  37.665  37.625   5.864
 4297POPC   GL255286  37.413  37.894   5.913
 4297POPC   C1A55287  37.853  37.684   6.293
 4297POPC   D2A55288  37.693  37.798   6.733
 4297POPC   C3A55289  37.762  37.566   7.138
 4297POPC   C4A55290  37.946  37.729   7.552
 4297POPC   C1B55291  37.328  37.675   6.309
 4297POPC   C2B55292  37.209  37.915   6.668
 4297POPC   C3B55293  37.303  37.840   7.108
 4297POPC   C4B55294  37.408  38.102   7.419
 4298POPC   NC355295  39.679  18.923   5.410
 4298POPC   PO455296  40.360  19.201   5.301
 4298POPC   GL155297  40.040  19.164   5.649
 4298POPC   GL255298  39.961  18.803   5.827
 4298POPC   C1A55299  40.006  19.242   6.090
 4298POPC   D2A55300  40.238  19.162   6.448
 4298POPC   C3A55301  40.149  19.289   6.844
 4298POPC   C4A55302  39.960  19.246   7.207
 4298POPC   C1B55303  39.879  18.787   6.305
 4298POPC   C2B55304  39.863  18.752   6.762
 4298POPC   C3B55305  39.809  18.765   7.222
 4298POPC   C4B55306  39.712  18.684   7.690
 4299POPC   NC355307   0.362  13.310   5.451
 4299POPC   PO455308   0.516  14.017   5.472
 4299POPC   GL155309   0.356  13.713   5.749
 4299POPC   GL255310   0.623  13.548   5.907
 4299POPC   C1A55311   0.121  13.622   6.138
 4299POPC   D2A55312  44.936  13.673   6.569
 4299POPC   C3A55313   0.079  13.756   7.040
 4299POPC   C4A55314   0.227  13.540   7.477
 4299POPC   C1B55315   0.556  13.886   6.229
 4299POPC   C2B55316   0.430  13.910   6.689
 4299POPC   C3B55317   0.557  13.805   7.164
 4299POPC   C4B55318   0.843  13.812   7.548
 4300POPC   NC355319  25.425   8.736   5.366
 4300POPC   PO455320  24.996   9.124   5.637
 4300POPC   GL155321  25.159   8.783   5.866
 4300POPC   GL255322  25.535   8.760   5.879
 4300POPC   C1A55323  25.023   8.596   6.247
 4300POPC   D2A55324  25.128   8.498   6.687
 4300POPC   C3A55325  25.375   8.798   6.972
 4300POPC   C4A55326  25.212   9.135   7.257
 4300POPC   C1B55327  25.421   8.891   6.320
 4300POPC   C2B55328  25.626   9.112   6.661
 4300POPC   C3B55329  25.675   9.205   7.137
 4300POPC   C4B55330  25.613   9.222   7.602
 4301POPC   NC355331  38.499  34.224   4.932
 4301POPC   PO455332  38.670  34.545   5.502
 4301POPC   GL155333  38.652  34.811   5.845
 4301POPC   GL255334  38.315  34.743   5.859
 4301POPC   C1A55335  38.568  35.012   6.247
 4301POPC   D2A55336  38.268  34.940   6.587
 4301POPC   C3A55337  38.473  34.853   6.969
 4301POPC   C4A55338  38.272  34.727   7.291
 4301POPC   C1B55339  38.360  34.543   6.254
 4301POPC   C2B55340  38.338  34.421   6.667
 4301POPC   C3B55341  38.505  34.339   7.022
 4301POPC   C4B55342  38.479  34.080   7.360
 4302POPC   NC355343  23.563   1.508   5.371
 4302POPC   PO455344  23.397   0.834   5.397
 4302POPC   GL155345  23.538   0.983   5.804
 4302POPC   GL255346  23.470   1.350   5.847
 4302POPC   C1A55347  23.514   1.017   6.252
 4302POPC   D2A55348  23.365   1.174   6.645
 4302POPC   C3A55349  23.540   0.904   6.970
 4302POPC   C4A55350  23.807   0.989   7.281
 4302POPC   C1B55351  23.598   1.520   6.257
 4302POPC   C2B55352  23.766   1.502   6.657
 4302POPC   C3B55353  23.560   1.410   7.052
 4302POPC   C4B55354  23.360   1.552   7.401
 4303POPC   NC355355  16.957  12.989   5.323
 4303POPC   PO455356  16.680  12.378   5.341
 4303POPC   GL155357  16.732  12.679   5.683
 4303POPC   GL255358  17.090  12.640   5.750
 4303POPC   C1A55359  16.517  12.857   6.049
 4303POPC   D2A55360  16.634  13.024   6.456
 4303POPC   C3A55361  16.701  12.820   6.858
 4303POPC   C4A55362  16.468  12.843   7.206
 4303POPC   C1B55363  16.932  12.584   6.187
 4303POPC   C2B55364  17.100  12.847   6.525
 4303POPC   C3B55365  17.035  13.187   6.836
 4303POPC   C4B55366  17.076  12.932   7.225
 4304POPC   NC355367  24.687   9.408   5.439
 4304POPC   PO455368  24.366   9.911   5.306
 4304POPC   GL155369  24.473   9.794   5.760
 4304POPC   GL255370  24.285   9.487   5.766
 4304POPC   C1A55371  24.591   9.919   6.218
 4304POPC   D2A55372  24.708   9.877   6.660
 4304POPC   C3A55373  24.389   9.948   6.949
 4304POPC   C4A55374  24.350   9.904   7.331
 4304POPC   C1B55375  24.398   9.456   6.183
 4304POPC   C2B55376  24.280   9.603   6.586
 4304POPC   C3B55377  24.402   9.444   7.000
 4304POPC   C4B55378  24.270   9.402   7.409
 4305POPC   NC355379  44.842  41.670   5.434
 4305POPC   PO455380  44.212  41.449   5.418
 4305POPC   GL155381  44.467  41.484   5.785
 4305POPC   GL255382  44.744  41.236   5.771
 4305POPC   C1A55383  44.541  41.763   6.165
 4305POPC   D2A55384  44.365  41.924   6.559
 4305POPC   C3A55385  44.652  41.836   6.917
 4305POPC   C4A55386  44.786  41.606   7.296
 4305POPC   C1B55387  44.525  41.241   6.225
 4305POPC   C2B55388  44.460  41.431   6.640
 4305POPC   C3B55389  44.321  41.488   7.081
 4305POPC   C4B55390  44.257  41.403   7.526
 4306POPC   NC355391  12.014  10.092   5.504
 4306POPC   PO455392  12.243   9.543   5.406
 4306POPC   GL155393  12.253   9.737   5.821
 4306POPC   GL255394  11.936   9.680   5.831
 4306POPC   C1A55395  12.119   9.952   6.242
 4306POPC   D2A55396  12.001  10.117   6.679
 4306POPC   C3A55397  12.045   9.844   7.071
 4306POPC   C4A55398  11.880   9.823   7.510
 4306POPC   C1B55399  11.932   9.471   6.208
 4306POPC   C2B55400  11.893   9.567   6.631
 4306POPC   C3B55401  11.898   9.301   6.965
 4306POPC   C4B55402  11.949   9.324   7.382
 4307POPC   NC355403  25.120  44.671   5.416
 4307POPC   PO455404  25.832  44.463   5.367
 4307POPC   GL155405  25.541  44.662   5.745
 4307POPC   GL255406  25.216  44.496   5.891
 4307POPC   C1A55407  25.375  44.929   6.129
 4307POPC   D2A55408  25.127  44.893   6.542
 4307POPC   C3A55409  25.341  44.981   6.959
 4307POPC   C4A55410  25.122  44.871   7.331
 4307POPC   C1B55411  25.398  44.439   6.292
 4307POPC   C2B55412  25.531  44.612   6.664
 4307POPC   C3B55413  25.444  44.517   7.098
 4307POPC   C4B55414  25.564  44.384   7.488
 4308POPC   NC355415  14.801  15.125   5.196
 4308POPC   PO455416  15.459  14.898   5.166
 4308POPC   GL155417  15.309  15.010   5.639
 4308POPC   GL255418  15.068  15.247   5.781
 4308POPC   C1A55419  15.265  14.911   6.130
 4308POPC   D2A55420  15.380  15.084   6.573
 4308POPC   C3A55421  15.143  15.006   6.981
 4308POPC   C4A55422  14.840  14.802   7.292
 4308POPC   C1B55423  15.364  15.420   6.119
 4308POPC   C2B55424  15.572  15.563   6.520
 4308POPC   C3B55425  15.408  15.544   6.939
 4308POPC   C4B55426  15.044  15.470   7.178
 4309POPC   NC355427  34.165  27.199   5.654
 4309POPC   PO455428  33.822  27.531   5.229
 4309POPC   GL155429  33.857  27.613   5.657
 4309POPC   GL255430  33.686  27.297   5.720
 4309POPC   C1A55431  33.980  27.615   6.101
 4309POPC   D2A55432  34.039  27.702   6.540
 4309POPC   C3A55433  33.847  27.625   6.941
 4309POPC   C4A55434  33.987  27.403   7.314
 4309POPC   C1B55435  33.680  27.178   6.124
 4309POPC   C2B55436  33.647  27.332   6.519
 4309POPC   C3B55437  33.661  27.152   6.927
 4309POPC   C4B55438  33.444  27.189   7.278
 4310POPC   NC355439   6.662  31.602   5.254
 4310POPC   PO455440   7.019  31.235   5.668
 4310POPC   GL155441   6.879  31.637   5.823
 4310POPC   GL255442   6.498  31.676   5.738
 4310POPC   C1A55443   7.005  31.673   6.253
 4310POPC   D2A55444   6.803  31.499   6.615
 4310POPC   C3A55445   6.968  31.622   7.003
 4310POPC   C4A55446   6.751  31.422   7.372
 4310POPC   C1B55447   6.492  31.634   6.183
 4310POPC   C2B55448   6.311  31.680   6.576
 4310POPC   C3B55449   6.459  31.642   7.006
 4310POPC   C4B55450   6.449  31.847   7.404
 4311POPC   NC355451  22.698  31.128   5.154
 4311POPC   PO455452  23.163  31.482   5.386
 4311POPC   GL155453  22.941  31.400   5.778
 4311POPC   GL255454  22.655  31.571   5.883
 4311POPC   C1A55455  23.087  31.566   6.190
 4311POPC   D2A55456  22.918  31.535   6.564
 4311POPC   C3A55457  22.979  31.260   6.899
 4311POPC   C4A55458  23.114  31.403   7.296
 4311POPC   C1B55459  22.558  31.305   6.278
 4311POPC   C2B55460  22.453  31.382   6.754
 4311POPC   C3B55461  22.588  31.359   7.215
 4311POPC   C4B55462  22.770  31.241   7.625
 4312POPC   NC355463  21.347   9.249   5.443
 4312POPC   PO455464  21.040   8.625   5.478
 4312POPC   GL155465  21.281   8.866   5.775
 4312POPC   GL255466  21.034   9.024   5.936
 4312POPC   C1A55467  21.528   9.097   6.093
 4312POPC   D2A55468  21.399   8.997   6.487
 4312POPC   C3A55469  21.707   8.977   6.779
 4312POPC   C4A55470  21.621   9.085   7.162
 4312POPC   C1B55471  21.044   8.656   6.236
 4312POPC   C2B55472  21.045   8.606   6.690
 4312POPC   C3B55473  21.154   9.004   6.947
 4312POPC   C4B55474  21.186   9.355   7.262
 4313POPC   NC355475  16.549   0.167   5.194
 4313POPC   PO455476  16.573  44.625   5.614
 4313POPC   GL155477  16.829  44.872   5.874
 4313POPC   GL255478  16.714   0.241   5.777
 4313POPC   C1A55479  16.937  44.631   6.260
 4313POPC   D2A55480  16.771  44.382   6.617
 4313POPC   C3A55481  16.925  44.535   7.010
 4313POPC   C4A55482  16.879  44.616   7.460
 4313POPC   C1B55483  16.499   0.146   6.161
 4313POPC   C2B55484  16.489  44.830   6.476
 4313POPC   C3B55485  16.548  44.879   6.909
 4313POPC   C4B55486  16.361   0.009   7.290
 4314POPC   NC355487  35.285   9.372   5.334
 4314POPC   PO455488  35.376   8.686   5.304
 4314POPC   GL155489  35.411   8.962   5.688
 4314POPC   GL255490  35.122   8.887   5.825
 4314POPC   C1A55491  35.449   9.071   6.190
 4314POPC   D2A55492  35.647   8.983   6.633
 4314POPC   C3A55493  35.409   9.041   7.030
 4314POPC   C4A55494  35.053   9.189   7.241
 4314POPC   C1B55495  35.113   8.699   6.243
 4314POPC   C2B55496  35.065   8.754   6.704
 4314POPC   C3B55497  35.071   8.629   7.158
 4314POPC   C4B55498  34.945   8.560   7.605
 4315POPC   NC355499  13.938  23.071   5.501
 4315POPC   PO455500  13.281  23.077   5.376
 4315POPC   GL155501  13.477  23.059   5.814
 4315POPC   GL255502  13.721  22.770   5.857
 4315POPC   C1A55503  13.454  22.907   6.276
 4315POPC   D2A55504  13.753  22.772   6.609
 4315POPC   C3A55505  13.541  22.848   7.010
 4315POPC   C4A55506  13.503  23.287   7.138
 4315POPC   C1B55507  13.940  23.032   6.158
 4315POPC   C2B55508  13.843  23.276   6.518
 4315POPC   C3B55509  13.949  23.158   6.921
 4315POPC   C4B55510  14.085  23.105   7.308
 4316POPC   NC355511  31.716  28.769   5.134
 4316POPC   PO455512  31.534  28.263   5.552
 4316POPC   GL155513  31.580  28.293   5.957
 4316POPC   GL255514  31.227  28.294   5.960
 4316POPC   C1A55515  31.625  28.576   6.313
 4316POPC   D2A55516  31.399  28.556   6.705
 4316POPC   C3A55517  31.690  28.516   6.980
 4316POPC   C4A55518  31.707  28.283   7.329
 4316POPC   C1B55519  31.311  28.162   6.364
 4316POPC   C2B55520  31.066  28.172   6.698
 4316POPC   C3B55521  31.100  28.340   7.103
 4316POPC   C4B55522  30.899  28.130   7.440
 4317POPC   NC355523  39.088   8.757   5.424
 4317POPC   PO455524  39.053   8.006   5.310
 4317POPC   GL155525  39.165   8.140   5.740
 4317POPC   GL255526  39.017   8.459   5.842
 4317POPC   C1A55527  39.366   8.114   6.155
 4317POPC   D2A55528  39.288   7.898   6.553
 4317POPC   C3A55529  39.447   8.113   6.875
 4317POPC   C4A55530  39.441   8.013   7.241
 4317POPC   C1B55531  39.049   8.544   6.280
 4317POPC   C2B55532  38.950   8.296   6.641
 4317POPC   C3B55533  38.969   8.166   7.065
 4317POPC   C4B55534  38.964   8.394   7.461
 4318POPC   NC355535   6.869  38.587   5.442
 4318POPC   PO455536   6.449  39.202   5.475
 4318POPC   GL155537   6.437  38.725   5.703
 4318POPC   GL255538   6.719  38.512   5.908
 4318POPC   C1A55539   6.308  38.629   6.148
 4318POPC   D2A55540   6.332  38.894   6.468
 4318POPC   C3A55541   6.398  38.656   6.832
 4318POPC   C4A55542   6.591  38.494   7.200
 4318POPC   C1B55543   6.796  38.706   6.307
 4318POPC   C2B55544   6.931  38.601   6.740
 4318POPC   C3B55545   7.003  38.277   7.063
 4318POPC   C4B55546   6.955  38.344   7.539
 4319POPC   NC355547  42.697   9.343   5.620
 4319POPC   PO455548  42.305   9.782   5.267
 4319POPC   GL155549  42.315   9.677   5.723
 4319POPC   GL255550  42.145   9.399   5.895
 4319POPC   C1A55551  42.354   9.800   6.149
 4319POPC   D2A55552  42.511  10.027   6.495
 4319POPC   C3A55553  42.520   9.858   6.909
 4319POPC   C4A55554  42.434   9.748   7.328
 4319POPC   C1B55555  42.039   9.457   6.328
 4319POPC   C2B55556  42.086   9.646   6.727
 4319POPC   C3B55557  42.026   9.532   7.157
 4319POPC   C4B55558  42.041   9.404   7.598
 4320POPC   NC355559  12.514  14.130   5.631
 4320POPC   PO455560  12.963  14.554   5.288
 4320POPC   GL155561  13.046  14.547   5.778
 4320POPC   GL255562  12.730  14.625   6.012
 4320POPC   C1A55563  13.085  14.280   6.177
 4320POPC   D2A55564  12.805  14.108   6.527
 4320POPC   C3A55565  12.714  14.364   6.875
 4320POPC   C4A55566  12.987  14.539   7.207
 4320POPC   C1B55567  12.473  14.802   6.394
 4320POPC   C2B55568  12.306  14.679   6.823
 4320POPC   C3B55569  12.515  14.707   7.231
 4320POPC   C4B55570  12.712  14.537   7.637
 4321POPC   NC355571   5.999  35.420   5.108
 4321POPC   PO455572   5.549  35.114   5.480
 4321POPC   GL155573   5.595  35.366   5.852
 4321POPC   GL255574   5.951  35.408   5.839
 4321POPC   C1A55575   5.696  35.298   6.268
 4321POPC   D2A55576   5.621  35.501   6.626
 4321POPC   C3A55577   5.791  35.234   6.929
 4321POPC   C4A55578   5.727  35.040   7.363
 4321POPC   C1B55579   6.153  35.539   6.201
 4321POPC   C2B55580   6.136  35.410   6.574
 4321POPC   C3B55581   6.243  35.480   6.948
 4321POPC   C4B55582   6.026  35.462   7.324
 4322POPC   NC355583   3.903  40.607   5.131
 4322POPC   PO455584   3.885  41.238   5.465
 4322POPC   GL155585   3.538  41.026   5.760
 4322POPC   GL255586   3.585  40.680   5.921
 4322POPC   C1A55587   3.582  41.065   6.242
 4322POPC   D2A55588   3.942  40.931   6.494
 4322POPC   C3A55589   3.800  40.748   6.849
 4322POPC   C4A55590   3.561  40.814   7.200
 4322POPC   C1B55591   3.614  40.541   6.354
 4322POPC   C2B55592   3.462  40.346   6.758
 4322POPC   C3B55593   3.197  40.250   7.120
 4322POPC   C4B55594   3.102  40.311   7.567
 4323POPC   NC355595  35.404  40.726   5.488
 4323POPC   PO455596  34.754  40.775   5.436
 4323POPC   GL155597  35.016  40.703   5.839
 4323POPC   GL255598  35.254  40.985   5.917
 4323POPC   C1A55599  35.271  40.603   6.259
 4323POPC   D2A55600  35.525  40.796   6.610
 4323POPC   C3A55601  35.394  40.677   7.030
 4323POPC   C4A55602  35.245  40.655   7.469
 4323POPC   C1B55603  35.264  41.182   6.354
 4323POPC   C2B55604  35.295  41.255   6.812
 4323POPC   C3B55605  35.309  41.132   7.256
 4323POPC   C4B55606  35.026  41.091   7.625
 4324POPC   NC355607   3.739  12.313   5.332
 4324POPC   PO455608   3.193  11.960   5.513
 4324POPC   GL155609   3.554  12.094   5.761
 4324POPC   GL255610   3.805  11.825   5.836
 4324POPC   C1A55611   3.694  12.215   6.158
 4324POPC   D2A55612   3.820  11.950   6.527
 4324POPC   C3A55613   3.638  12.157   6.853
 4324POPC   C4A55614   3.743  12.231   7.243
 4324POPC   C1B55615   3.474  11.763   6.193
 4324POPC   C2B55616   3.266  11.862   6.646
 4324POPC   C3B55617   3.354  11.847   7.142
 4324POPC   C4B55618   3.161  11.629   7.548
 4325POPC   NC355619  28.862  29.697   5.471
 4325POPC   PO455620  28.158  29.910   5.380
 4325POPC   GL155621  28.297  29.740   5.769
 4325POPC   GL255622  28.529  30.001   5.747
 4325POPC   C1A55623  28.184  29.640   6.199
 4325POPC   D2A55624  28.006  29.616   6.618
 4325POPC   C3A55625  28.268  29.742   7.002
 4325POPC   C4A55626  28.710  29.649   7.185
 4325POPC   C1B55627  28.375  30.132   6.143
 4325POPC   C2B55628  28.508  30.188   6.554
 4325POPC   C3B55629  28.364  30.277   6.992
 4325POPC   C4B55630  28.247  30.143   7.378
 4326POPC   NC355631  39.184  38.744   5.460
 4326POPC   PO455632  39.641  39.280   5.412
 4326POPC   GL155633  39.284  39.231   5.733
 4326POPC   GL255634  39.466  38.909   5.840
 4326POPC   C1A55635  38.995  39.416   6.115
 4326POPC   D2A55636  38.957  39.674   6.534
 4326POPC   C3A55637  39.052  39.454   6.948
 4326POPC   C4A55638  39.376  39.287   7.233
 4326POPC   C1B55639  39.071  38.916   6.097
 4326POPC   C2B55640  39.038  39.070   6.524
 4326POPC   C3B55641  39.226  38.921   6.910
 4326POPC   C4B55642  39.009  38.922   7.305
 4327POPC   NC355643  28.389  38.793   5.441
 4327POPC   PO455644  28.079  38.159   5.343
 4327POPC   GL155645  28.169  38.409   5.703
 4327POPC   GL255646  28.525  38.292   5.757
 4327POPC   C1A55647  28.086  38.611   6.112
 4327POPC   D2A55648  28.378  38.594   6.450
 4327POPC   C3A55649  28.208  38.584   6.849
 4327POPC   C4A55650  28.472  38.511   7.143
 4327POPC   C1B55651  28.370  38.159   6.167
 4327POPC   C2B55652  28.066  38.193   6.514
 4327POPC   C3B55653  28.187  38.071   6.940
 4327POPC   C4B55654  28.604  38.006   7.106
 4328POPC   NC355655  11.162   9.466   5.643
 4328POPC   PO455656  11.634   9.843   5.459
 4328POPC   GL155657  11.605  10.045   5.910
 4328POPC   GL255658  11.426   9.750   5.955
 4328POPC   C1A55659  11.567   9.903   6.389
 4328POPC   D2A55660  11.145   9.745   6.609
 4328POPC   C3A55661  11.181   9.849   7.029
 4328POPC   C4A55662  11.539   9.623   7.190
 4328POPC   C1B55663  11.395   9.420   6.283
 4328POPC   C2B55664  11.424   9.301   6.726
 4328POPC   C3B55665  11.105   9.349   7.070
 4328POPC   C4B55666  11.076   9.307   7.523
 4329POPC   NC355667  35.623  14.369   5.414
 4329POPC   PO455668  35.104  14.781   5.400
 4329POPC   GL155669  35.172  14.461   5.708
 4329POPC   GL255670  35.156  14.076   5.634
 4329POPC   C1A55671  35.408  14.513   6.122
 4329POPC   D2A55672  35.595  14.311   6.511
 4329POPC   C3A55673  35.533  14.535   6.920
 4329POPC   C4A55674  35.585  14.297   7.292
 4329POPC   C1B55675  35.104  14.110   6.064
 4329POPC   C2B55676  35.100  14.231   6.484
 4329POPC   C3B55677  35.140  14.196   6.934
 4329POPC   C4B55678  35.102  14.177   7.369
 4330POPC   NC355679   0.584  44.819   5.373
 4330POPC   PO455680   0.315  44.202   5.235
 4330POPC   GL155681   0.445  44.429   5.691
 4330POPC   GL255682   0.168  44.552   5.875
 4330POPC   C1A55683   0.597  44.683   6.120
 4330POPC   D2A55684   0.443  44.809   6.569
 4330POPC   C3A55685   0.660  44.729   7.000
 4330POPC   C4A55686   0.716  44.546   7.444
 4330POPC   C1B55687   0.144  44.438   6.322
 4330POPC   C2B55688  44.913  44.628   6.661
 4330POPC   C3B55689   0.117  44.880   6.955
 4330POPC   C4B55690   0.254  44.699   7.333
 4331POPC   NC355691  32.120  44.755   5.410
 4331POPC   PO455692  32.268  44.128   5.582
 4331POPC   GL155693  32.263  44.549   5.852
 4331POPC   GL255694  31.988  44.870   5.877
 4331POPC   C1A55695  32.256  44.676   6.273
 4331POPC   D2A55696  32.479  44.845   6.618
 4331POPC   C3A55697  32.387  44.728   7.067
 4331POPC   C4A55698  32.360  44.648   7.550
 4331POPC   C1B55699  31.821  44.980   6.292
 4331POPC   C2B55700  31.965  44.783   6.687
 4331POPC   C3B55701  31.916  44.888   7.111
 4331POPC   C4B55702  31.870  44.839   7.546
 4332POPC   NC355703  36.742  17.029   5.494
 4332POPC   PO455704  36.964  16.397   5.398
 4332POPC   GL155705  36.852  16.616   5.783
 4332POPC   GL255706  36.478  16.633   5.855
 4332POPC   C1A55707  36.960  16.781   6.182
 4332POPC   D2A55708  37.050  16.993   6.564
 4332POPC   C3A55709  37.130  16.726   6.909
 4332POPC   C4A55710  37.319  16.905   7.265
 4332POPC   C1B55711  36.449  16.754   6.282
 4332POPC   C2B55712  36.655  16.658   6.643
 4332POPC   C3B55713  36.589  16.810   7.025
 4332POPC   C4B55714  36.840  16.780   7.351
 4333POPC   NC355715  11.087  38.581   5.439
 4333POPC   PO455716  11.683  38.219   5.514
 4333POPC   GL155717  11.462  38.502   5.805
 4333POPC   GL255718  11.115  38.439   5.921
 4333POPC   C1A55719  11.440  38.688   6.226
 4333POPC   D2A55720  11.337  38.432   6.563
 4333POPC   C3A55721  11.270  38.586   6.977
 4333POPC   C4A55722  11.043  38.438   7.290
 4333POPC   C1B55723  11.331  38.101   6.122
 4333POPC   C2B55724  11.375  37.924   6.537
 4333POPC   C3B55725  11.409  38.077   6.961
 4333POPC   C4B55726  11.326  38.035   7.406
 4334POPC   NC355727  31.057  12.041   5.438
 4334POPC   PO455728  30.438  12.375   5.454
 4334POPC   GL155729  30.335  12.217   5.871
 4334POPC   GL255730  30.593  11.957   5.886
 4334POPC   C1A55731  30.467  12.253   6.307
 4334POPC   D2A55732  30.692  12.128   6.648
 4334POPC   C3A55733  30.491  12.279   6.997
 4334POPC   C4A55734  30.772  12.352   7.293
 4334POPC   C1B55735  30.911  11.892   6.221
 4334POPC   C2B55736  30.929  11.673   6.655
 4334POPC   C3B55737  30.851  11.831   7.093
 4334POPC   C4B55738  30.586  11.897   7.467
 4335POPC   NC355739  42.286  37.383   5.546
 4335POPC   PO455740  41.911  37.857   5.323
 4335POPC   GL155741  42.079  37.947   5.797
 4335POPC   GL255742  42.419  37.783   5.854
 4335POPC   C1A55743  42.266  38.092   6.233
 4335POPC   D2A55744  42.519  37.922   6.592
 4335POPC   C3A55745  42.270  37.746   6.919
 4335POPC   C4A55746  42.266  37.668   7.348
 4335POPC   C1B55747  42.280  37.551   6.253
 4335POPC   C2B55748  42.104  37.352   6.647
 4335POPC   C3B55749  41.943  37.335   7.103
 4335POPC   C4B55750  42.052  37.265   7.570
 4336POPC   NC355751  31.694  13.094   5.601
 4336POPC   PO455752  32.215  12.655   5.362
 4336POPC   GL155753  32.234  12.669   5.825
 4336POPC   GL255754  31.890  12.748   5.902
 4336POPC   C1A55755  32.348  12.627   6.246
 4336POPC   D2A55756  32.523  12.861   6.573
 4336POPC   C3A55757  32.559  12.660   6.976
 4336POPC   C4A55758  32.507  12.823   7.411
 4336POPC   C1B55759  31.894  12.874   6.337
 4336POPC   C2B55760  32.056  12.674   6.705
 4336POPC   C3B55761  32.079  12.695   7.140
 4336POPC   C4B55762  31.770  12.680   7.443
 4337POPC   NC355763  36.621  39.252   5.427
 4337POPC   PO455764  37.099  39.537   5.847
 4337POPC   GL155765  36.970  39.113   5.950
 4337POPC   GL255766  36.621  39.086   5.901
 4337POPC   C1A55767  37.001  39.018   6.396
 4337POPC   D2A55768  37.238  39.137   6.733
 4337POPC   C3A55769  37.091  39.127   7.159
 4337POPC   C4A55770  36.964  39.547   7.197
 4337POPC   C1B55771  36.563  39.329   6.254
 4337POPC   C2B55772  36.693  39.386   6.683
 4337POPC   C3B55773  36.563  39.244   7.085
 4337POPC   C4B55774  36.431  38.918   7.346
 4338POPC   NC355775  32.740  36.241   5.395
 4338POPC   PO455776  32.478  35.788   5.748
 4338POPC   GL155777  32.708  36.129   5.914
 4338POPC   GL255778  33.061  36.229   5.818
 4338POPC   C1A55779  32.765  36.113   6.337
 4338POPC   D2A55780  33.040  36.087   6.693
 4338POPC   C3A55781  32.823  35.912   7.067
 4338POPC   C4A55782  32.785  35.936   7.519
 4338POPC   C1B55783  32.976  36.544   6.166
 4338POPC   C2B55784  32.783  36.553   6.598
 4338POPC   C3B55785  32.890  36.448   7.035
 4338POPC   C4B55786  33.234  36.669   7.339
 4339POPC   NC355787  41.839  35.338   5.424
 4339POPC   PO455788  41.298  35.650   5.775
 4339POPC   GL155789  41.486  35.281   5.929
 4339POPC   GL255790  41.860  35.281   5.930
 4339POPC   C1A55791  41.557  35.333   6.375
 4339POPC   D2A55792  41.603  35.648   6.667
 4339POPC   C3A55793  41.493  35.501   7.054
 4339POPC   C4A55794  41.292  35.141   7.206
 4339POPC   C1B55795  42.028  35.140   6.337
 4339POPC   C2B55796  41.854  35.198   6.800
 4339POPC   C3B55797  41.881  35.258   7.290
 4339POPC   C4B55798  42.022  35.070   7.733
 4340POPC   NC355799  30.479  13.655   5.427
 4340POPC   PO455800  31.030  13.449   5.194
 4340POPC   GL155801  30.882  13.560   5.689
 4340POPC   GL255802  31.048  13.805   5.864
 4340POPC   C1A55803  30.572  13.676   6.063
 4340POPC   D2A55804  30.594  13.786   6.499
 4340POPC   C3A55805  30.486  13.446   6.735
 4340POPC   C4A55806  30.511  13.283   7.139
 4340POPC   C1B55807  31.023  13.498   6.201
 4340POPC   C2B55808  31.065  13.589   6.622
 4340POPC   C3B55809  30.902  13.718   7.014
 4340POPC   C4B55810  30.813  13.605   7.441
 4341POPC   NC355811  20.448  17.431   5.295
 4341POPC   PO455812  20.949  16.992   5.333
 4341POPC   GL155813  20.865  17.172   5.834
 4341POPC   GL255814  20.929  17.517   5.995
 4341POPC   C1A55815  20.697  17.233   6.343
 4341POPC   D2A55816  20.621  17.241   6.842
 4341POPC   C3A55817  20.620  17.589   7.192
 4341POPC   C4A55818  20.656  17.715   7.685
 4341POPC   C1B55819  21.197  17.264   6.218
 4341POPC   C2B55820  21.152  17.106   6.639
 4341POPC   C3B55821  21.104  17.293   7.043
 4341POPC   C4B55822  21.021  17.432   7.439
 4342POPC   NC355823   3.756  35.932   5.517
 4342POPC   PO455824   3.808  36.570   5.241
 4342POPC   GL155825   3.573  36.482   5.710
 4342POPC   GL255826   3.291  36.296   5.805
 4342POPC   C1A55827   3.639  36.305   6.211
 4342POPC   D2A55828   3.407  36.077   6.572
 4342POPC   C3A55829   3.649  35.797   6.890
 4342POPC   C4A55830   3.835  35.832   7.315
 4342POPC   C1B55831   3.266  36.635   6.170
 4342POPC   C2B55832   3.473  36.696   6.585
 4342POPC   C3B55833   3.660  36.395   6.865
 4342POPC   C4B55834   3.456  36.152   7.182
 4343POPC   NC355835  21.908  33.767   5.422
 4343POPC   PO455836  22.437  34.189   5.390
 4343POPC   GL155837  22.315  33.967   5.781
 4343POPC   GL255838  22.304  33.628   5.874
 4343POPC   C1A55839  22.360  34.071   6.239
 4343POPC   D2A55840  22.527  33.944   6.639
 4343POPC   C3A55841  22.364  34.034   7.028
 4343POPC   C4A55842  22.342  33.656   7.241
 4343POPC   C1B55843  21.940  33.777   6.097
 4343POPC   C2B55844  21.848  33.768   6.520
 4343POPC   C3B55845  21.922  33.630   6.930
 4343POPC   C4B55846  21.849  33.896   7.291
 4344POPC   NC355847   0.582  25.503   5.344
 4344POPC   PO455848   0.065  25.197   5.529
 4344POPC   GL155849   0.414  25.280   5.792
 4344POPC   GL255850   0.591  24.985   5.817
 4344POPC   C1A55851   0.433  25.371   6.230
 4344POPC   D2A55852   0.418  25.226   6.663
 4344POPC   C3A55853   0.309  25.571   6.958
 4344POPC   C4A55854   0.168  25.537   7.335
 4344POPC   C1B55855   0.637  24.798   6.235
 4344POPC   C2B55856   0.931  24.840   6.589
 4344POPC   C3B55857   0.762  24.860   6.984
 4344POPC   C4B55858   0.447  25.115   7.170
 4345POPC   NC355859  41.195   4.145   5.415
 4345POPC   PO455860  41.437   4.712   5.474
 4345POPC   GL155861  41.673   4.558   5.804
 4345POPC   GL255862  41.665   4.197   5.738
 4345POPC   C1A55863  41.681   4.553   6.237
 4345POPC   D2A55864  41.463   4.727   6.597
 4345POPC   C3A55865  41.522   4.536   6.999
 4345POPC   C4A55866  41.372   4.550   7.465
 4345POPC   C1B55867  41.633   4.043   6.165
 4345POPC   C2B55868  41.627   4.188   6.589
 4345POPC   C3B55869  41.530   3.991   6.936
 4345POPC   C4B55870  41.654   4.144   7.299
 4346POPC   NC355871  31.466  17.106   5.392
 4346POPC   PO455872  31.701  17.796   5.413
 4346POPC   GL155873  31.623  17.578   5.828
 4346POPC   GL255874  31.319  17.394   5.849
 4346POPC   C1A55875  31.692  17.340   6.255
 4346POPC   D2A55876  31.455  17.231   6.648
 4346POPC   C3A55877  31.667  17.349   7.044
 4346POPC   C4A55878  31.509  17.474   7.455
 4346POPC   C1B55879  31.334  17.712   6.222
 4346POPC   C2B55880  31.431  17.727   6.666
 4346POPC   C3B55881  31.216  17.637   7.056
 4346POPC   C4B55882  31.186  17.895   7.442
 4347POPC   NC355883  15.314  43.466   5.321
 4347POPC   PO455884  15.371  44.130   5.557
 4347POPC   GL155885  15.126  43.981   5.865
 4347POPC   GL255886  15.047  43.635   5.732
 4347POPC   C1A55887  15.205  44.058   6.308
 4347POPC   D2A55888  15.478  44.023   6.677
 4347POPC   C3A55889  15.193  44.144   6.992
 4347POPC   C4A55890  15.003  44.216   7.388
 4347POPC   C1B55891  15.215  43.552   6.155
 4347POPC   C2B55892  15.135  43.623   6.606
 4347POPC   C3B55893  15.322  43.636   7.020
 4347POPC   C4B55894  15.055  43.711   7.354
 4348POPC   NC355895   3.305  43.508   5.367
 4348POPC   PO455896   3.234  44.197   5.372
 4348POPC   GL155897   3.428  43.887   5.701
 4348POPC   GL255898   3.152  43.644   5.832
 4348POPC   C1A55899   3.708  43.907   6.087
 4348POPC   D2A55900   3.684  44.123   6.498
 4348POPC   C3A55901   3.594  43.902   6.897
 4348POPC   C4A55902   3.671  44.077   7.275
 4348POPC   C1B55903   3.212  43.896   6.183
 4348POPC   C2B55904   3.214  43.902   6.559
 4348POPC   C3B55905   3.062  43.805   6.920
 4348POPC   C4B55906   3.221  43.849   7.293
 4349POPC   NC355907  26.068  44.903   5.401
 4349POPC   PO455908  26.208  44.327   5.783
 4349POPC   GL155909  26.056  44.719   5.875
 4349POPC   GL255910  26.298   0.023   5.842
 4349POPC   C1A55911  25.835  44.725   6.242
 4349POPC   D2A55912  26.021  44.765   6.631
 4349POPC   C3A55913  25.844  44.856   7.022
 4349POPC   C4A55914  26.034  44.649   7.355
 4349POPC   C1B55915  26.379  44.909   6.258
 4349POPC   C2B55916  26.542  44.731   6.636
 4349POPC   C3B55917  26.365  44.901   7.006
 4349POPC   C4B55918  26.308   0.064   7.415
 4350POPC   NC355919  29.744  17.179   5.440
 4350POPC   PO455920  29.955  17.768   5.755
 4350POPC   GL155921  29.724  17.415   5.932
 4350POPC   GL255922  30.014  17.232   5.892
 4350POPC   C1A55923  29.665  17.252   6.374
 4350POPC   D2A55924  29.477  17.090   6.773
 4350POPC   C3A55925  29.668  17.373   7.080
 4350POPC   C4A55926  29.843  17.746   7.268
 4350POPC   C1B55927  30.198  17.429   6.282
 4350POPC   C2B55928  30.387  17.794   6.525
 4350POPC   C3B55929  30.257  17.821   6.966
 4350POPC   C4B55930  30.260  17.406   7.147
 4351POPC   NC355931   2.094  37.796   5.038
 4351POPC   PO455932   2.061  38.050   5.577
 4351POPC   GL155933   2.069  37.786   5.962
 4351POPC   GL255934   1.710  37.659   5.986
 4351POPC   C1A55935   2.238  37.706   6.350
 4351POPC   D2A55936   2.049  37.835   6.686
 4351POPC   C3A55937   2.181  37.683   7.032
 4351POPC   C4A55938   2.142  38.076   7.226
 4351POPC   C1B55939   1.652  37.583   6.428
 4351POPC   C2B55940   1.677  37.538   6.870
 4351POPC   C3B55941   1.722  37.770   7.230
 4351POPC   C4B55942   1.670  37.720   7.708
 4352POPC   NC355943  43.852  16.314   5.463
 4352POPC   PO455944  43.516  15.683   5.471
 4352POPC   GL155945  43.746  15.911   5.832
 4352POPC   GL255946  44.007  16.199   5.926
 4352POPC   C1A55947  43.586  16.161   6.196
 4352POPC   D2A55948  43.809  16.254   6.584
 4352POPC   C3A55949  43.719  15.914   6.883
 4352POPC   C4A55950  43.710  15.973   7.313
 4352POPC   C1B55951  44.054  15.923   6.276
 4352POPC   C2B55952  44.214  15.900   6.703
 4352POPC   C3B55953  44.197  15.868   7.172
 4352POPC   C4B55954  44.179  15.590   7.570
 4353POPC   NC355955  30.321   7.617   5.466
 4353POPC   PO455956  31.030   7.672   5.587
 4353POPC   GL155957  30.811   7.299   5.770
 4353POPC   GL255958  30.427   7.320   5.895
 4353POPC   C1A55959  30.817   7.154   6.181
 4353POPC   D2A55960  30.507   7.287   6.472
 4353POPC   C3A55961  30.539   7.265   6.921
 4353POPC   C4A55962  30.664   7.191   7.348
 4353POPC   C1B55963  30.633   7.669   6.135
 4353POPC   C2B55964  30.791   7.854   6.524
 4353POPC   C3B55965  30.795   7.720   6.963
 4353POPC   C4B55966  30.550   7.671   7.313
 4354POPC   NC355967  12.735   7.550   5.375
 4354POPC   PO455968  12.775   6.953   5.192
 4354POPC   GL155969  12.839   7.143   5.695
 4354POPC   GL255970  12.760   7.463   5.857
 4354POPC   C1A55971  12.930   7.149   6.193
 4354POPC   D2A55972  13.056   7.295   6.642
 4354POPC   C3A55973  12.826   7.228   7.048
 4354POPC   C4A55974  12.906   7.318   7.500
 4354POPC   C1B55975  12.632   7.845   6.056
 4354POPC   C2B55976  12.726   7.880   6.464
 4354POPC   C3B55977  12.689   7.718   6.862
 4354POPC   C4B55978  12.463   7.597   7.216
 4355POPC   NC355979   8.958  35.859   5.310
 4355POPC   PO455980   9.260  36.423   5.141
 4355POPC   GL155981   9.090  36.318   5.605
 4355POPC   GL255982   8.787  36.108   5.736
 4355POPC   C1A55983   9.082  36.335   6.114
 4355POPC   D2A55984   9.283  36.215   6.550
 4355POPC   C3A55985   9.172  36.298   7.049
 4355POPC   C4A55986   9.157  36.404   7.529
 4355POPC   C1B55987   8.811  35.919   6.172
 4355POPC   C2B55988   8.787  36.076   6.589
 4355POPC   C3B55989   8.796  35.926   7.003
 4355POPC   C4B55990   8.445  35.891   7.263
 4356POPC   NC355991  14.934   6.296   5.501
 4356POPC   PO455992  15.192   6.994   5.569
 4356POPC   GL155993  15.060   6.783   5.904
 4356POPC   GL255994  15.244   6.476   5.875
 4356POPC   C1A55995  15.249   6.878   6.295
 4356POPC   D2A55996  15.401   7.163   6.608
 4356POPC   C3A55997  15.375   6.906   6.959
 4356POPC   C4A55998  15.074   6.715   7.235
 4356POPC   C1B55999  15.126   6.376   6.280
 4356POPC   C2B56000  15.334   6.459   6.671
 4356POPC   C3B56001  15.487   6.420   7.085
 4356POPC   C4B56002  15.377   6.425   7.533
 4357POPC   NC356003  43.993   3.053   5.553
 4357POPC   PO456004  44.144   2.421   5.658
 4357POPC   GL156005  43.770   2.604   5.871
 4357POPC   GL256006  43.652   2.957   5.936
 4357POPC   C1A56007  43.621   2.571   6.298
 4357POPC   D2A56008  43.433   2.505   6.710
 4357POPC   C3A56009  43.735   2.553   7.047
 4357POPC   C4A56010  43.635   2.530   7.488
 4357POPC   C1B56011  44.004   2.926   6.213
 4357POPC   C2B56012  43.939   2.852   6.635
 4357POPC   C3B56013  44.088   3.062   6.968
 4357POPC   C4B56014  43.936   2.948   7.353
 4358POPC   NC356015  37.720   8.339   5.444
 4358POPC   PO456016  37.194   7.935   5.325
 4358POPC   GL156017  37.216   8.189   5.810
 4358POPC   GL256018  37.422   8.458   5.843
 4358POPC   C1A56019  37.355   8.273   6.303
 4358POPC   D2A56020  37.295   8.133   6.734
 4358POPC   C3A56021  37.563   8.299   7.055
 4358POPC   C4A56022  37.607   7.998   7.407
 4358POPC   C1B56023  37.795   8.473   6.149
 4358POPC   C2B56024  37.818   8.450   6.615
 4358POPC   C3B56025  38.043   8.461   7.008
 4358POPC   C4B56026  37.872   8.566   7.420
 4359POPC   NC356027   7.050   3.455   5.438
 4359POPC   PO456028   6.588   3.802   5.634
 4359POPC   GL156029   6.786   3.527   5.867
 4359POPC   GL256030   7.047   3.782   5.895
 4359POPC   C1A56031   6.775   3.229   6.184
 4359POPC   D2A56032   6.613   3.293   6.607
 4359POPC   C3A56033   6.856   3.281   7.005
 4359POPC   C4A56034   6.592   3.292   7.377
 4359POPC   C1B56035   6.943   3.715   6.346
 4359POPC   C2B56036   6.800   3.756   6.759
 4359POPC   C3B56037   6.560   3.747   7.140
 4359POPC   C4B56038   6.734   3.859   7.580
 4360POPC   NC356039  12.473  33.878   5.554
 4360POPC   PO456040  13.103  33.689   5.689
 4360POPC   GL156041  12.797  33.841   5.948
 4360POPC   GL256042  12.882  34.162   5.947
 4360POPC   C1A56043  12.770  33.931   6.383
 4360POPC   D2A56044  12.842  33.583   6.621
 4360POPC   C3A56045  12.833  33.467   7.019
 4360POPC   C4A56046  12.799  33.663   7.406
 4360POPC   C1B56047  13.201  34.194   6.264
 4360POPC   C2B56048  13.139  34.153   6.689
 4360POPC   C3B56049  12.893  34.012   7.018
 4360POPC   C4B56050  13.054  34.090   7.431
 4361POPC   NC356051  38.289  38.776   5.395
 4361POPC   PO456052  38.076  38.157   5.276
 4361POPC   GL156053  38.214  38.425   5.737
 4361POPC   GL256054  38.545  38.567   5.805
 4361POPC   C1A56055  38.289  38.367   6.196
 4361POPC   D2A56056  38.456  38.463   6.610
 4361POPC   C3A56057  38.320  38.254   6.988
 4361POPC   C4A56058  38.242  38.293   7.415
 4361POPC   C1B56059  38.793  38.490   6.179
 4361POPC   C2B56060  38.960  38.549   6.592
 4361POPC   C3B56061  38.727  38.797   6.882
 4361POPC   C4B56062  38.588  38.639   7.262
 4362POPC   NC356063  30.930  40.233   5.476
 4362POPC   PO456064  30.489  39.687   5.461
 4362POPC   GL156065  30.676  39.948   5.810
 4362POPC   GL256066  31.034  39.822   5.819
 4362POPC   C1A56067  30.552  40.190   6.184
 4362POPC   D2A56068  30.346  40.097   6.571
 4362POPC   C3A56069  30.577  39.997   6.954
 4362POPC   C4A56070  30.755  40.321   7.208
 4362POPC   C1B56071  31.081  40.075   6.201
 4362POPC   C2B56072  30.955  40.041   6.629
 4362POPC   C3B56073  31.103  39.995   7.067
 4362POPC   C4B56074  31.229  39.732   7.421
 4363POPC   NC356075   5.193  14.301   5.461
 4363POPC   PO456076   5.502  14.867   5.425
 4363POPC   GL156077   5.274  14.714   5.763
 4363POPC   GL256078   4.913  14.643   5.756
 4363POPC   C1A56079   5.295  14.532   6.185
 4363POPC   D2A56080   5.093  14.575   6.586
 4363POPC   C3A56081   5.243  14.271   6.880
 4363POPC   C4A56082   5.384  14.450   7.204
 4363POPC   C1B56083   4.834  14.280   6.086
 4363POPC   C2B56084   4.912  14.096   6.516
 4363POPC   C3B56085   4.750  14.326   6.911
 4363POPC   C4B56086   4.920  14.180   7.336
 4364POPC   NC356087  32.540  24.633   5.622
 4364POPC   PO456088  33.052  24.208   5.340
 4364POPC   GL156089  32.981  24.329   5.774
 4364POPC   GL256090  32.677  24.175   5.819
 4364POPC   C1A56091  33.007  24.599   6.186
 4364POPC   D2A56092  33.185  24.667   6.583
 4364POPC   C3A56093  33.008  24.799   6.981
 4364POPC   C4A56094  33.061  24.713   7.424
 4364POPC   C1B56095  32.909  24.109   6.229
 4364POPC   C2B56096  32.860  24.256   6.646
 4364POPC   C3B56097  33.048  24.286   7.051
 4364POPC   C4B56098  32.757  24.129   7.367
 4365POPC   NC356099  10.153   9.196   5.493
 4365POPC   PO456100   9.535   8.992   5.388
 4365POPC   GL156101   9.712   9.072   5.807
 4365POPC   GL256102   9.396   9.156   5.940
 4365POPC   C1A56103   9.782   8.987   6.275
 4365POPC   D2A56104   9.967   8.765   6.633
 4365POPC   C3A56105  10.139   9.031   6.899
 4365POPC   C4A56106  10.165   9.111   7.303
 4365POPC   C1B56107   9.477   9.403   6.315
 4365POPC   C2B56108   9.636   9.285   6.696
 4365POPC   C3B56109   9.629   8.956   6.961
 4365POPC   C4B56110   9.485   8.845   7.358
 4366POPC   NC356111  13.195  37.519   5.494
 4366POPC   PO456112  12.560  37.751   5.410
 4366POPC   GL156113  12.695  37.942   5.824
 4366POPC   GL256114  13.007  37.739   5.921
 4366POPC   C1A56115  12.743  37.951   6.303
 4366POPC   D2A56116  12.703  37.667   6.615
 4366POPC   C3A56117  12.881  37.748   6.981
 4366POPC   C4A56118  12.690  37.841   7.370
 4366POPC   C1B56119  12.822  37.396   6.197
 4366POPC   C2B56120  12.785  37.160   6.615
 4366POPC   C3B56121  12.720  37.284   7.069
 4366POPC   C4B56122  12.792  37.352   7.529
 4367POPC   NC356123  29.494   2.761   5.523
 4367POPC   PO456124  29.848   2.312   5.273
 4367POPC   GL156125  29.914   2.562   5.774
 4367POPC   GL256126  29.715   2.852   5.948
 4367POPC   C1A56127  29.913   2.496   6.261
 4367POPC   D2A56128  29.839   2.335   6.690
 4367POPC   C3A56129  29.673   2.646   6.959
 4367POPC   C4A56130  30.058   2.862   7.151
 4367POPC   C1B56131  29.953   3.013   6.276
 4367POPC   C2B56132  29.846   3.027   6.700
 4367POPC   C3B56133  29.623   3.118   7.160
 4367POPC   C4B56134  29.530   3.079   7.630
 4368POPC   NC356135  22.167  10.939   5.402
 4368POPC   PO456136  22.107  11.575   5.407
 4368POPC   GL156137  22.204  11.274   5.787
 4368POPC   GL256138  21.929  11.023   5.828
 4368POPC   C1A56139  22.308  11.123   6.239
 4368POPC   D2A56140  22.246  11.312   6.637
 4368POPC   C3A56141  22.239  11.144   7.041
 4368POPC   C4A56142  22.260  11.392   7.403
 4368POPC   C1B56143  21.867  10.893   6.226
 4368POPC   C2B56144  21.970  10.885   6.652
 4368POPC   C3B56145  21.750  10.977   7.026
 4368POPC   C4B56146  21.917  10.976   7.439
 4369POPC   NC356147  11.573  43.912   5.347
 4369POPC   PO456148  11.149  43.589   5.144
 4369POPC   GL156149  11.267  43.625   5.668
 4369POPC   GL256150  11.380  43.997   5.805
 4369POPC   C1A56151  11.414  43.613   6.148
 4369POPC   D2A56152  11.510  43.885   6.552
 4369POPC   C3A56153  11.407  43.761   7.014
 4369POPC   C4A56154  11.195  43.528   7.379
 4369POPC   C1B56155  11.035  44.108   6.090
 4369POPC   C2B56156  10.822  44.165   6.497
 4369POPC   C3B56157  11.027  44.094   6.872
 4369POPC   C4B56158  10.998  44.000   7.284
 4370POPC   NC356159   0.350  20.053   5.089
 4370POPC   PO456160   0.571  19.546   5.484
 4370POPC   GL156161   0.322  19.828   5.771
 4370POPC   GL256162   0.207  19.557   5.961
 4370POPC   C1A56163   0.200  20.017   6.182
 4370POPC   D2A56164   0.188  19.683   6.488
 4370POPC   C3A56165   0.339  19.818   6.868
 4370POPC   C4A56166   0.184  19.896   7.289
 4370POPC   C1B56167   0.602  19.717   6.163
 4370POPC   C2B56168   0.689  19.568   6.529
 4370POPC   C3B56169   0.805  19.602   6.922
 4370POPC   C4B56170   0.579  19.596   7.256
 4371POPC   NC356171   1.093  30.108   5.501
 4371POPC   PO456172   1.222  29.427   5.313
 4371POPC   GL156173   0.992  29.621   5.726
 4371POPC   GL256174   1.278  29.702   5.934
 4371POPC   C1A56175   0.824  29.870   6.154
 4371POPC   D2A56176   0.917  30.118   6.595
 4371POPC   C3A56177   1.082  30.127   7.012
 4371POPC   C4A56178   1.281  29.752   7.047
 4371POPC   C1B56179   1.300  30.067   6.216
 4371POPC   C2B56180   1.451  30.040   6.627
 4371POPC   C3B56181   1.628  30.221   6.957
 4371POPC   C4B56182   1.539  30.117   7.332
 4372POPC   NC356183   4.082   1.279   5.241
 4372POPC   PO456184   4.480   0.919   5.586
 4372POPC   GL156185   4.220   1.097   5.876
 4372POPC   GL256186   4.189   1.481   5.772
 4372POPC   C1A56187   4.176   0.950   6.340
 4372POPC   D2A56188   4.066   0.878   6.799
 4372POPC   C3A56189   4.368   0.988   7.125
 4372POPC   C4A56190   4.784   1.171   7.165
 4372POPC   C1B56191   4.315   1.452   6.218
 4372POPC   C2B56192   4.208   1.368   6.638
 4372POPC   C3B56193   4.231   1.651   6.943
 4372POPC   C4B56194   4.425   1.537   7.283
 4373POPC   NC356195   1.235   1.300   5.494
 4373POPC   PO456196   0.770   0.850   5.621
 4373POPC   GL156197   0.874   1.142   5.916
 4373POPC   GL256198   1.217   1.221   5.984
 4373POPC   C1A56199   0.921   1.084   6.366
 4373POPC   D2A56200   0.987   1.310   6.753
 4373POPC   C3A56201   0.898   1.032   7.074
 4373POPC   C4A56202   0.577   0.921   7.316
 4373POPC   C1B56203   1.142   1.544   6.285
 4373POPC   C2B56204   1.376   1.649   6.649
 4373POPC   C3B56205   1.294   1.618   7.096
 4373POPC   C4B56206   1.242   1.280   7.374
 4374POPC   NC356207  43.296  32.486   5.459
 4374POPC   PO456208  42.814  32.066   5.659
 4374POPC   GL156209  43.053  32.357   5.928
 4374POPC   GL256210  43.424  32.472   5.943
 4374POPC   C1A56211  42.957  32.349   6.366
 4374POPC   D2A56212  42.804  32.394   6.762
 4374POPC   C3A56213  43.023  32.226   7.080
 4374POPC   C4A56214  42.788  32.391   7.429
 4374POPC   C1B56215  43.459  32.436   6.393
 4374POPC   C2B56216  43.536  32.101   6.696
 4374POPC   C3B56217  43.548  32.119   7.144
 4374POPC   C4B56218  43.485  32.518   7.323
 4375POPC   NC356219  20.504  44.078   5.255
 4375POPC   PO456220  20.753  43.509   5.109
 4375POPC   GL156221  20.545  43.632   5.583
 4375POPC   GL256222  20.673  43.882   5.866
 4375POPC   C1A56223  20.393  43.503   6.061
 4375POPC   D2A56224  20.369  43.537   6.566
 4375POPC   C3A56225  20.689  43.734   6.878
 4375POPC   C4A56226  20.858  43.577   7.269
 4375POPC   C1B56227  20.992  44.063   6.192
 4375POPC   C2B56228  21.009  44.229   6.625
 4375POPC   C3B56229  20.605  44.243   6.864
 4375POPC   C4B56230  20.460  44.042   7.256
 4376POPC   NC356231  15.602   6.740   5.594
 4376POPC   PO456232  16.218   6.389   5.388
 4376POPC   GL156233  16.073   6.398   5.796
 4376POPC   GL256234  15.743   6.302   5.831
 4376POPC   C1A56235  16.081   6.614   6.188
 4376POPC   D2A56236  15.773   6.842   6.420
 4376POPC   C3A56237  15.863   6.838   6.837
 4376POPC   C4A56238  15.842   6.755   7.249
 4376POPC   C1B56239  15.631   6.369   6.237
 4376POPC   C2B56240  15.851   6.354   6.607
 4376POPC   C3B56241  16.015   6.346   6.985
 4376POPC   C4B56242  15.873   6.246   7.366
 4377POPC   NC356243   0.468   5.713   5.437
 4377POPC   PO456244   0.255   6.311   5.396
 4377POPC   GL156245   0.448   6.074   5.793
 4377POPC   GL256246   0.280   5.730   5.893
 4377POPC   C1A56247   0.535   5.994   6.235
 4377POPC   D2A56248   0.270   5.970   6.596
 4377POPC   C3A56249   0.565   5.936   6.917
 4377POPC   C4A56250   0.725   6.226   7.245
 4377POPC   C1B56251   0.279   5.514   6.268
 4377POPC   C2B56252   0.521   5.465   6.610
 4377POPC   C3B56253   0.534   5.337   7.015
 4377POPC   C4B56254   0.290   5.502   7.291
 4378POPC   NC356255  20.834  19.817   5.595
 4378POPC   PO456256  20.196  19.520   5.453
 4378POPC   GL156257  20.370  19.736   5.799
 4378POPC   GL256258  20.313  20.089   5.794
 4378POPC   C1A56259  20.502  19.853   6.245
 4378POPC   D2A56260  20.747  19.796   6.630
 4378POPC   C3A56261  20.517  19.751   7.011
 4378POPC   C4A56262  20.644  19.636   7.430
 4378POPC   C1B56263  20.013  19.888   6.105
 4378POPC   C2B56264  20.041  19.882   6.527
 4378POPC   C3B56265  19.992  19.848   6.978
 4378POPC   C4B56266  20.201  19.920   7.370
 4379POPC   NC356267  35.157  31.699   5.275
 4379POPC   PO456268  35.652  31.234   5.424
 4379POPC   GL156269  35.436  31.457   5.753
 4379POPC   GL256270  35.187  31.186   5.790
 4379POPC   C1A56271  35.416  31.598   6.228
 4379POPC   D2A56272  35.285  31.856   6.619
 4379POPC   C3A56273  35.429  31.778   7.048
 4379POPC   C4A56274  35.124  31.524   7.244
 4379POPC   C1B56275  35.513  31.098   6.108
 4379POPC   C2B56276  35.452  31.035   6.554
 4379POPC   C3B56277  35.437  31.257   6.925
 4379POPC   C4B56278  35.475  31.176   7.358
 4380POPC   NC356279  40.256  11.549   5.270
 4380POPC   PO456280  39.629  11.337   5.517
 4380POPC   GL156281  39.882  11.552   5.818
 4380POPC   GL256282  40.029  11.249   5.883
 4380POPC   C1A56283  39.799  11.502   6.284
 4380POPC   D2A56284  40.045  11.382   6.666
 4380POPC   C3A56285  39.923  11.291   7.101
 4380POPC   C4A56286  39.947  11.732   7.235
 4380POPC   C1B56287  40.089  10.911   6.185
 4380POPC   C2B56288  40.213  10.887   6.610
 4380POPC   C3B56289  40.381  11.104   6.952
 4380POPC   C4B56290  40.295  10.920   7.339
 4381POPC   NC356291   1.744  15.269   5.588
 4381POPC   PO456292   2.158  14.864   5.647
 4381POPC   GL156293   2.057  15.066   5.977
 4381POPC   GL256294   2.188  15.395   5.892
 4381POPC   C1A56295   1.838  14.967   6.358
 4381POPC   D2A56296   1.664  15.051   6.747
 4381POPC   C3A56297   1.856  14.910   7.069
 4381POPC   C4A56298   2.142  15.094   7.307
 4381POPC   C1B56299   1.790  15.443   6.184
 4381POPC   C2B56300   1.757  15.532   6.605
 4381POPC   C3B56301   1.957  15.443   6.979
 4381POPC   C4B56302   2.349  15.555   7.221
 4382POPC   NC356303  28.006  17.730   5.588
 4382POPC   PO456304  28.432  17.323   5.271
 4382POPC   GL156305  28.460  17.496   5.701
 4382POPC   GL256306  28.487  17.177   5.794
 4382POPC   C1A56307  28.549  17.578   6.192
 4382POPC   D2A56308  28.715  17.783   6.635
 4382POPC   C3A56309  28.464  17.807   7.066
 4382POPC   C4A56310  28.370  17.793   7.547
 4382POPC   C1B56311  28.342  17.064   6.196
 4382POPC   C2B56312  28.472  16.943   6.610
 4382POPC   C3B56313  28.278  17.047   6.973
 4382POPC   C4B56314  28.283  17.352   7.262
 4383POPC   NC356315   3.746  44.717   5.416
 4383POPC   PO456316   3.074  44.931   5.586
 4383POPC   GL156317   3.335  44.577   5.764
 4383POPC   GL256318   3.680  44.648   5.910
 4383POPC   C1A56319   3.332  44.423   6.210
 4383POPC   D2A56320   3.496  44.736   6.529
 4383POPC   C3A56321   3.352  44.724   6.956
 4383POPC   C4A56322   3.230  44.311   7.089
 4383POPC   C1B56323   3.918  44.519   6.263
 4383POPC   C2B56324   4.006  44.553   6.701
 4383POPC   C3B56325   3.837  44.548   7.114
 4383POPC   C4B56326   4.019  44.655   7.517
 4384POPC   NC356327   1.665   4.198   5.461
 4384POPC   PO456328   2.214   4.629   5.541
 4384POPC   GL156329   1.934   4.445   5.853
 4384POPC   GL256330   1.907   4.081   5.935
 4384POPC   C1A56331   1.960   4.402   6.317
 4384POPC   D2A56332   1.809   4.173   6.637
 4384POPC   C3A56333   1.931   4.362   7.004
 4384POPC   C4A56334   1.660   4.357   7.335
 4384POPC   C1B56335   2.330   4.075   6.185
 4384POPC   C2B56336   2.389   4.183   6.617
 4384POPC   C3B56337   2.257   3.965   6.970
 4384POPC   C4B56338   2.067   4.011   7.359
 4385POPC   NC356339  18.703  13.389   5.398
 4385POPC   PO456340  18.281  13.872   5.510
 4385POPC   GL156341  18.493  13.648   5.832
 4385POPC   GL256342  18.205  13.466   5.908
 4385POPC   C1A56343  18.537  13.501   6.295
 4385POPC   D2A56344  18.423  13.555   6.711
 4385POPC   C3A56345  18.492  13.946   6.912
 4385POPC   C4A56346  18.591  13.871   7.305
 4385POPC   C1B56347  18.161  13.838   6.213
 4385POPC   C2B56348  18.038  13.932   6.654
 4385POPC   C3B56349  18.048  13.742   7.072
 4385POPC   C4B56350  18.233  13.337   7.175
 4386POPC   NC356351  39.486  29.707   5.527
 4386POPC   PO456352  39.067  30.168   5.563
 4386POPC   GL156353  39.114  29.873   5.894
 4386POPC   GL256354  39.407  29.991   5.969
 4386POPC   C1A56355  39.076  29.928   6.351
 4386POPC   D2A56356  39.287  30.046   6.688
 4386POPC   C3A56357  39.118  30.155   7.062
 4386POPC   C4A56358  39.301  29.931   7.387
 4386POPC   C1B56359  39.541  29.657   6.275
 4386POPC   C2B56360  39.453  29.541   6.690
 4386POPC   C3B56361  39.636  29.667   7.106
 4386POPC   C4B56362  39.969  29.648   7.456
 4387POPC   NC356363  33.974  32.502   5.536
 4387POPC   PO456364  33.500  31.933   5.460
 4387POPC   GL156365  33.684  32.045   5.831
 4387POPC   GL256366  33.495  32.338   5.912
 4387POPC   C1A56367  33.871  32.185   6.216
 4387POPC   D2A56368  33.796  31.944   6.584
 4387POPC   C3A56369  33.829  32.106   6.985
 4387POPC   C4A56370  33.995  32.496   7.143
 4387POPC   C1B56371  33.364  32.094   6.300
 4387POPC   C2B56372  33.308  31.829   6.676
 4387POPC   C3B56373  33.401  31.854   7.115
 4387POPC   C4B56374  33.340  31.949   7.566
 4388POPC   NC356375  16.325  43.359   5.454
 4388POPC   PO456376  16.954  43.030   5.285
 4388POPC   GL156377  16.845  42.950   5.745
 4388POPC   GL256378  16.518  43.038   5.812
 4388POPC   C1A56379  16.878  43.072   6.211
 4388POPC   D2A56380  16.880  42.845   6.615
 4388POPC   C3A56381  17.032  43.028   7.035
 4388POPC   C4A56382  17.038  42.860   7.511
 4388POPC   C1B56383  16.374  43.132   6.244
 4388POPC   C2B56384  16.501  43.189   6.683
 4388POPC   C3B56385  16.669  43.392   7.034
 4388POPC   C4B56386  16.639  43.115   7.346
 4389POPC   NC356387  33.923  23.141   5.112
 4389POPC   PO456388  33.654  23.717   5.466
 4389POPC   GL156389  33.553  23.772   5.876
 4389POPC   GL256390  33.809  23.563   5.977
 4389POPC   C1A56391  33.519  23.798   6.333
 4389POPC   D2A56392  33.833  23.857   6.646
 4389POPC   C3A56393  33.637  23.785   6.984
 4389POPC   C4A56394  33.552  24.163   7.174
 4389POPC   C1B56395  34.184  23.663   6.241
 4389POPC   C2B56396  34.252  23.570   6.670
 4389POPC   C3B56397  34.143  23.684   7.081
 4389POPC   C4B56398  34.248  23.593   7.492
 4390POPC   NC356399  26.878  22.811   5.386
 4390POPC   PO456400  27.286  23.226   5.463
 4390POPC   GL156401  26.985  23.104   5.806
 4390POPC   GL256402  27.141  22.805   5.876
 4390POPC   C1A56403  26.689  22.887   6.149
 4390POPC   D2A56404  26.505  22.973   6.585
 4390POPC   C3A56405  26.655  22.788   6.985
 4390POPC   C4A56406  26.846  22.841   7.407
 4390POPC   C1B56407  27.144  23.082   6.271
 4390POPC   C2B56408  27.000  23.054   6.679
 4390POPC   C3B56409  27.182  23.035   7.069
 4390POPC   C4B56410  27.347  22.956   7.495
 4391POPC   NC356411   0.768  19.962   5.558
 4391POPC   PO456412   1.440  19.889   5.234
 4391POPC   GL156413   1.465  19.688   5.691
 4391POPC   GL256414   1.186  19.880   5.842
 4391POPC   C1A56415   1.542  19.739   6.169
 4391POPC   D2A56416   1.504  20.070   6.508
 4391POPC   C3A56417   1.610  19.881   6.911
 4391POPC   C4A56418   1.483  19.816   7.337
 4391POPC   C1B56419   0.982  20.063   6.224
 4391POPC   C2B56420   0.864  20.030   6.659
 4391POPC   C3B56421   1.105  19.982   7.047
 4391POPC   C4B56422   0.991  19.828   7.475
 4392POPC   NC356423  36.668   6.409   5.411
 4392POPC   PO456424  37.016   6.895   5.169
 4392POPC   GL156425  37.010   6.612   5.714
 4392POPC   GL256426  36.678   6.561   5.916
 4392POPC   C1A56427  37.093   6.709   6.188
 4392POPC   D2A56428  36.963   6.803   6.640
 4392POPC   C3A56429  37.186   6.721   7.042
 4392POPC   C4A56430  37.051   6.413   7.334
 4392POPC   C1B56431  36.495   6.818   6.286
 4392POPC   C2B56432  36.497   7.009   6.729
 4392POPC   C3B56433  36.678   6.739   7.074
 4392POPC   C4B56434  36.793   6.795   7.507
 4393POPC   NC356435  29.031  10.130   5.459
 4393POPC   PO456436  29.098   9.435   5.533
 4393POPC   GL156437  29.253   9.718   5.855
 4393POPC   GL256438  29.403  10.028   5.831
 4393POPC   C1A56439  29.305   9.789   6.296
 4393POPC   D2A56440  29.049   9.802   6.644
 4393POPC   C3A56441  29.238   9.619   6.988
 4393POPC   C4A56442  28.921   9.476   7.243
 4393POPC   C1B56443  29.437  10.293   6.211
 4393POPC   C2B56444  29.226  10.275   6.645
 4393POPC   C3B56445  29.258  10.137   7.106
 4393POPC   C4B56446  29.418   9.856   7.427
 4394POPC   NC356447  39.321  33.949   5.143
 4394POPC   PO456448  39.053  33.496   5.601
 4394POPC   GL156449  39.114  33.876   5.881
 4394POPC   GL256450  39.436  34.089   5.817
 4394POPC   C1A56451  39.032  33.779   6.319
 4394POPC   D2A56452  39.288  33.524   6.615
 4394POPC   C3A56453  39.183  33.576   7.050
 4394POPC   C4A56454  39.353  33.693   7.462
 4394POPC   C1B56455  39.285  34.223   6.250
 4394POPC   C2B56456  39.271  34.041   6.695
 4394POPC   C3B56457  39.391  34.060   7.120
 4394POPC   C4B56458  39.631  34.208   7.470
 4395POPC   NC356459  11.055   5.494   5.475
 4395POPC   PO456460  11.285   6.121   5.562
 4395POPC   GL156461  11.002   5.907   5.814
 4395POPC   GL256462  11.183   5.619   5.949
 4395POPC   C1A56463  11.037   6.046   6.229
 4395POPC   D2A56464  11.354   6.096   6.555
 4395POPC   C3A56465  11.143   6.070   6.945
 4395POPC   C4A56466  11.214   5.812   7.291
 4395POPC   C1B56467  11.240   5.602   6.388
 4395POPC   C2B56468  11.354   5.614   6.803
 4395POPC   C3B56469  11.522   5.407   7.158
 4395POPC   C4B56470  11.559   5.539   7.573
 4396POPC   NC356471  32.174  34.821   5.507
 4396POPC   PO456472  32.577  34.287   5.316
 4396POPC   GL156473  32.317  34.372   5.728
 4396POPC   GL256474  32.522  34.506   6.016
 4396POPC   C1A56475  32.036  34.405   6.117
 4396POPC   D2A56476  32.287  34.379   6.500
 4396POPC   C3A56477  32.198  34.225   6.920
 4396POPC   C4A56478  32.480  34.328   7.236
 4396POPC   C1B56479  32.247  34.841   6.235
 4396POPC   C2B56480  32.000  34.820   6.616
 4396POPC   C3B56481  32.192  34.722   6.996
 4396POPC   C4B56482  32.343  34.838   7.373
 4397POPC   NC356483   2.917   0.266   5.305
 4397POPC   PO456484   2.430   0.695   5.544
 4397POPC   GL156485   2.739   0.419   5.807
 4397POPC   GL256486   3.097   0.477   5.744
 4397POPC   C1A56487   2.750   0.267   6.258
 4397POPC   D2A56488   2.448   0.116   6.592
 4397POPC   C3A56489   2.524   0.228   7.008
 4397POPC   C4A56490   2.765   0.597   7.118
 4397POPC   C1B56491   3.009   0.701   6.161
 4397POPC   C2B56492   2.944   0.661   6.597
 4397POPC   C3B56493   3.221   0.723   6.932
 4397POPC   C4B56494   3.347   0.400   7.226
 4398POPC   NC356495  32.419  32.366   5.451
 4398POPC   PO456496  31.874  32.194   5.153
 4398POPC   GL156497  32.040  32.144   5.699
 4398POPC   GL256498  32.325  31.909   5.853
 4398POPC   C1A56499  32.317  32.357   6.113
 4398POPC   D2A56500  32.230  32.452   6.585
 4398POPC   C3A56501  32.465  32.407   7.003
 4398POPC   C4A56502  32.280  32.346   7.469
 4398POPC   C1B56503  32.243  31.894   6.340
 4398POPC   C2B56504  32.408  31.952   6.809
 4398POPC   C3B56505  32.585  31.985   7.281
 4398POPC   C4B56506  32.474  31.993   7.770
 4399POPC   NC356507  15.550  31.078   5.460
 4399POPC   PO456508  15.319  30.533   5.279
 4399POPC   GL156509  15.321  30.664   5.750
 4399POPC   GL256510  15.391  30.987   5.945
 4399POPC   C1A56511  15.003  30.711   6.121
 4399POPC   D2A56512  14.822  30.851   6.503
 4399POPC   C3A56513  14.995  30.658   6.861
 4399POPC   C4A56514  14.937  30.791   7.234
 4399POPC   C1B56515  15.435  31.271   6.299
 4399POPC   C2B56516  15.503  31.218   6.779
 4399POPC   C3B56517  15.403  30.923   7.076
 4399POPC   C4B56518  15.375  30.786   7.507
 4400POPC   NC356519  40.436   7.701   5.294
 4400POPC   PO456520  40.850   7.176   5.203
 4400POPC   GL156521  40.803   7.346   5.651
 4400POPC   GL256522  40.561   7.582   5.768
 4400POPC   C1A56523  40.609   7.196   6.083
 4400POPC   D2A56524  40.824   7.224   6.484
 4400POPC   C3A56525  40.649   7.372   6.861
 4400POPC   C4A56526  40.671   7.415   7.282
 4400POPC   C1B56527  40.813   7.642   6.169
 4400POPC   C2B56528  40.994   7.714   6.626
 4400POPC   C3B56529  41.039   7.733   7.106
 4400POPC   C4B56530  40.911   7.755   7.574
 4401POPC   NC356531  32.525  23.658   5.397
 4401POPC   PO456532  31.888  23.585   5.377
 4401POPC   GL156533  32.169  23.531   5.746
 4401POPC   GL256534  32.272  23.856   5.817
 4401POPC   C1A56535  32.299  23.537   6.203
 4401POPC   D2A56536  32.305  23.738   6.617
 4401POPC   C3A56537  32.050  23.533   6.925
 4401POPC   C4A56538  32.163  23.338   7.323
 4401POPC   C1B56539  32.399  24.055   6.225
 4401POPC   C2B56540  32.299  24.278   6.611
 4401POPC   C3B56541  32.416  24.097   6.968
 4401POPC   C4B56542  32.353  23.804   7.257
 4402POPC   NC356543   7.273  26.465   5.585
 4402POPC   PO456544   7.751  26.001   5.431
 4402POPC   GL156545   7.605  25.784   5.820
 4402POPC   GL256546   7.235  25.716   5.825
 4402POPC   C1A56547   7.796  25.905   6.205
 4402POPC   D2A56548   7.717  26.244   6.481
 4402POPC   C3A56549   7.558  26.036   6.856
 4402POPC   C4A56550   7.502  26.106   7.291
 4402POPC   C1B56551   7.175  25.965   6.224
 4402POPC   C2B56552   7.078  26.174   6.657
 4402POPC   C3B56553   7.042  25.985   7.100
 4402POPC   C4B56554   7.082  25.836   7.568
 4403POPC   NC356555   5.320  32.402   5.438
 4403POPC   PO456556   4.896  31.939   5.293
 4403POPC   GL156557   4.974  32.113   5.723
 4403POPC   GL256558   5.341  32.062   5.806
 4403POPC   C1A56559   4.866  32.193   6.166
 4403POPC   D2A56560   4.819  32.008   6.571
 4403POPC   C3A56561   4.894  32.330   6.862
 4403POPC   C4A56562   4.953  32.367   7.279
 4403POPC   C1B56563   5.355  32.362   6.178
 4403POPC   C2B56564   5.338  32.298   6.637
 4403POPC   C3B56565   5.403  32.457   7.089
 4403POPC   C4B56566   5.469  32.407   7.598
 4404POPC   NC356567  38.591  32.098   5.410
 4404POPC   PO456568  38.490  32.676   5.703
 4404POPC   GL156569  38.553  32.314   5.869
 4404POPC   GL256570  38.228  32.151   5.753
 4404POPC   C1A56571  38.698  32.310   6.274
 4404POPC   D2A56572  38.768  32.123   6.644
 4404POPC   C3A56573  38.805  32.339   7.002
 4404POPC   C4A56574  38.697  32.193   7.383
 4404POPC   C1B56575  38.297  32.007   6.159
 4404POPC   C2B56576  38.201  32.253   6.523
 4404POPC   C3B56577  38.299  32.277   6.940
 4404POPC   C4B56578  38.190  32.127   7.331
 4405POPC   NC356579   6.307  42.676   5.667
 4405POPC   PO456580   6.353  42.055   5.441
 4405POPC   GL156581   6.602  42.290   5.762
 4405POPC   GL256582   6.943  42.342   5.781
 4405POPC   C1A56583   6.563  42.279   6.217
 4405POPC   D2A56584   6.394  42.470   6.603
 4405POPC   C3A56585   6.576  42.330   6.988
 4405POPC   C4A56586   6.531  42.057   7.324
 4405POPC   C1B56587   6.991  42.554   6.208
 4405POPC   C2B56588   6.878  42.703   6.656
 4405POPC   C3B56589   6.950  42.637   7.127
 4405POPC   C4B56590   6.688  42.519   7.515
 4406POPC   NC356591  21.229  16.648   5.426
 4406POPC   PO456592  21.637  17.058   5.549
 4406POPC   GL156593  21.355  16.920   5.868
 4406POPC   GL256594  21.380  16.538   5.902
 4406POPC   C1A56595  21.438  16.815   6.314
 4406POPC   D2A56596  21.238  16.542   6.621
 4406POPC   C3A56597  21.431  16.726   6.942
 4406POPC   C4A56598  21.572  16.814   7.315
 4406POPC   C1B56599  21.615  16.339   6.275
 4406POPC   C2B56600  21.695  16.274   6.760
 4406POPC   C3B56601  21.578  16.315   7.222
 4406POPC   C4B56602  21.452  16.469   7.637
 4407POPC   NC356603  39.063  41.220   5.373
 4407POPC   PO456604  38.971  41.862   5.064
 4407POPC   GL156605  39.192  41.738   5.579
 4407POPC   GL256606  39.384  41.427   5.699
 4407POPC   C1A56607  39.486  41.799   6.007
 4407POPC   D2A56608  39.457  41.572   6.445
 4407POPC   C3A56609  39.375  41.676   6.909
 4407POPC   C4A56610  39.423  41.597   7.389
 4407POPC   C1B56611  39.085  41.493   6.067
 4407POPC   C2B56612  38.945  41.376   6.482
 4407POPC   C3B56613  38.939  41.417   6.926
 4407POPC   C4B56614  39.209  41.190   7.208
 4408POPC   NC356615  15.805  44.159   5.416
 4408POPC   PO456616  15.775  43.504   5.448
 4408POPC   GL156617  16.062  43.722   5.743
 4408POPC   GL256618  16.275  44.011   5.650
 4408POPC   C1A56619  16.114  43.603   6.211
 4408POPC   D2A56620  16.021  43.335   6.573
 4408POPC   C3A56621  15.827  43.634   6.826
 4408POPC   C4A56622  15.830  43.717   7.229
 4408POPC   C1B56623  16.087  44.099   6.079
 4408POPC   C2B56624  16.007  44.010   6.532
 4408POPC   C3B56625  15.889  44.151   6.970
 4408POPC   C4B56626  15.986  44.145   7.409
 4409POPC   NC356627  10.858  43.797   5.419
 4409POPC   PO456628  10.197  43.823   5.523
 4409POPC   GL156629  10.392  43.752   5.887
 4409POPC   GL256630  10.688  43.566   5.838
 4409POPC   C1A56631  10.378  44.001   6.274
 4409POPC   D2A56632  10.228  44.036   6.702
 4409POPC   C3A56633  10.530  44.032   7.045
 4409POPC   C4A56634  10.541  43.996   7.508
 4409POPC   C1B56635  10.791  43.685   6.241
 4409POPC   C2B56636  11.068  43.593   6.557
 4409POPC   C3B56637  10.918  43.599   6.950
 4409POPC   C4B56638  10.668  43.562   7.278
 4410POPC   NC356639  40.396  40.316   5.501
 4410POPC   PO456640  39.780  39.970   5.471
 4410POPC   GL156641  40.071  39.981   5.810
 4410POPC   GL256642  39.779  39.866   5.989
 4410POPC   C1A56643  40.144  40.020   6.282
 4410POPC   D2A56644  39.883  39.740   6.541
 4410POPC   C3A56645  40.022  39.777   6.944
 4410POPC   C4A56646  40.327  39.826   7.261
 4410POPC   C1B56647  39.653  40.175   6.333
 4410POPC   C2B56648  39.853  40.243   6.764
 4410POPC   C3B56649  39.944  40.228   7.237
 4410POPC   C4B56650  39.797  40.330   7.721
 4411POPC   NC356651  38.981   1.858   5.377
 4411POPC   PO456652  39.612   1.806   5.726
 4411POPC   GL156653  39.189   1.885   5.871
 4411POPC   GL256654  39.266   2.227   5.837
 4411POPC   C1A56655  39.054   1.899   6.322
 4411POPC   D2A56656  39.231   1.732   6.756
 4411POPC   C3A56657  39.399   1.961   7.135
 4411POPC   C4A56658  39.582   2.140   7.520
 4411POPC   C1B56659  38.975   2.391   6.144
 4411POPC   C2B56660  38.818   2.282   6.573
 4411POPC   C3B56661  38.942   2.239   7.030
 4411POPC   C4B56662  39.065   2.139   7.489
 4412POPC   NC356663  32.944  39.448   4.893
 4412POPC   PO456664  32.921  38.933   5.390
 4412POPC   GL156665  32.868  38.926   5.834
 4412POPC   GL256666  33.077  39.217   5.937
 4412POPC   C1A56667  32.881  38.878   6.280
 4412POPC   D2A56668  33.057  39.180   6.575
 4412POPC   C3A56669  33.023  38.937   6.959
 4412POPC   C4A56670  33.167  39.081   7.347
 4412POPC   C1B56671  32.893  39.529   6.224
 4412POPC   C2B56672  32.732  39.582   6.665
 4412POPC   C3B56673  32.784  39.365   7.079
 4412POPC   C4B56674  32.671  39.271   7.522
 4413POPC   NC356675   7.547  23.410   5.388
 4413POPC   PO456676   7.010  23.934   5.414
 4413POPC   GL156677   7.341  23.853   5.735
 4413POPC   GL256678   7.368  23.530   5.838
 4413POPC   C1A56679   7.403  24.010   6.155
 4413POPC   D2A56680   7.207  23.856   6.529
 4413POPC   C3A56681   7.336  23.693   6.920
 4413POPC   C4A56682   7.352  24.002   7.267
 4413POPC   C1B56683   7.569  23.547   6.237
 4413POPC   C2B56684   7.734  23.350   6.573
 4413POPC   C3B56685   7.829  23.427   6.976
 4413POPC   C4B56686   7.641  23.597   7.331
 4414POPC   NC356687  43.422   4.278   5.571
 4414POPC   PO456688  42.822   4.590   5.478
 4414POPC   GL156689  42.935   4.243   5.712
 4414POPC   GL256690  42.674   4.376   5.933
 4414POPC   C1A56691  43.031   4.042   6.095
 4414POPC   D2A56692  42.951   4.243   6.489
 4414POPC   C3A56693  43.087   4.067   6.872
 4414POPC   C4A56694  43.027   4.157   7.301
 4414POPC   C1B56695  43.085   4.563   6.093
 4414POPC   C2B56696  43.258   4.662   6.471
 4414POPC   C3B56697  43.135   4.594   6.882
 4414POPC   C4B56698  43.227   4.634   7.292
 4415POPC   NC356699  38.865  15.324   5.489
 4415POPC   PO456700  38.141  15.359   5.473
 4415POPC   GL156701  38.438  15.251   5.805
 4415POPC   GL256702  38.640  14.965   5.805
 4415POPC   C1A56703  38.572  15.230   6.240
 4415POPC   D2A56704  38.325  15.084   6.575
 4415POPC   C3A56705  38.415  15.232   6.965
 4415POPC   C4A56706  38.710  15.534   7.049
 4415POPC   C1B56707  38.771  14.743   6.214
 4415POPC   C2B56708  38.682  14.713   6.686
 4415POPC   C3B56709  38.733  14.870   7.131
 4415POPC   C4B56710  38.579  14.793   7.579
 4416POPC   NC356711  39.098  37.334   5.281
 4416POPC   PO456712  39.492  36.826   5.357
 4416POPC   GL156713  39.353  36.935   5.759
 4416POPC   GL256714  39.029  37.147   5.762
 4416POPC   C1A56715  39.476  36.838   6.181
 4416POPC   D2A56716  39.499  37.046   6.568
 4416POPC   C3A56717  39.349  36.828   6.955
 4416POPC   C4A56718  39.254  36.994   7.366
 4416POPC   C1B56719  38.957  36.877   6.121
 4416POPC   C2B56720  39.014  36.875   6.559
 4416POPC   C3B56721  38.882  37.063   6.947
 4416POPC   C4B56722  38.859  36.708   7.185
 4417POPC   NC356723  32.711  30.161   5.304
 4417POPC   PO456724  32.912  29.537   5.401
 4417POPC   GL156725  32.815  29.872   5.781
 4417POPC   GL256726  32.793  30.279   5.803
 4417POPC   C1A56727  32.851  29.888   6.265
 4417POPC   D2A56728  33.040  29.658   6.630
 4417POPC   C3A56729  32.971  29.701   7.118
 4417POPC   C4A56730  33.071  29.726   7.561
 4417POPC   C1B56731  33.208  30.190   6.015
 4417POPC   C2B56732  33.341  30.113   6.457
 4417POPC   C3B56733  33.154  30.104   6.874
 4417POPC   C4B56734  33.317  30.087   7.302
 4418POPC   NC356735   2.892   5.885   5.133
 4418POPC   PO456736   2.489   6.190   5.554
 4418POPC   GL156737   2.752   5.897   5.773
 4418POPC   GL256738   3.059   5.963   5.917
 4418POPC   C1A56739   2.687   5.670   6.180
 4418POPC   D2A56740   2.444   5.763   6.578
 4418POPC   C3A56741   2.596   5.647   7.001
 4418POPC   C4A56742   2.823   5.697   7.366
 4418POPC   C1B56743   3.206   5.727   6.250
 4418POPC   C2B56744   2.985   5.644   6.628
 4418POPC   C3B56745   3.091   5.894   6.983
 4418POPC   C4B56746   3.327   5.887   7.378
 4419POPC   NC356747  42.823   1.900   5.146
 4419POPC   PO456748  43.335   2.094   5.395
 4419POPC   GL156749  43.108   2.142   5.762
 4419POPC   GL256750  43.406   2.237   5.897
 4419POPC   C1A56751  42.987   1.994   6.195
 4419POPC   D2A56752  43.164   2.039   6.637
 4419POPC   C3A56753  42.946   1.985   7.020
 4419POPC   C4A56754  42.643   2.095   7.320
 4419POPC   C1B56755  43.499   2.062   6.260
 4419POPC   C2B56756  43.672   2.063   6.663
 4419POPC   C3B56757  43.580   2.033   7.086
 4419POPC   C4B56758  43.530   1.648   7.309
 4420POPC   NC356759  42.825  26.496   5.401
 4420POPC   PO456760  43.294  25.914   5.433
 4420POPC   GL156761  43.009  25.947   5.812
 4420POPC   GL256762  43.087  26.296   5.787
 4420POPC   C1A56763  43.018  26.005   6.292
 4420POPC   D2A56764  43.379  26.134   6.578
 4420POPC   C3A56765  43.276  26.144   7.005
 4420POPC   C4A56766  42.937  25.869   7.116
 4420POPC   C1B56767  42.800  26.409   6.079
 4420POPC   C2B56768  42.955  26.463   6.507
 4420POPC   C3B56769  42.844  26.397   6.929
 4420POPC   C4B56770  42.805  26.494   7.356
 4421POPC   NC356771  33.413  40.763   5.403
 4421POPC   PO456772  33.528  41.427   5.408
 4421POPC   GL156773  33.751  41.097   5.709
 4421POPC   GL256774  33.602  40.754   5.870
 4421POPC   C1A56775  33.840  41.055   6.179
 4421POPC   D2A56776  33.604  40.789   6.516
 4421POPC   C3A56777  33.863  40.712   6.902
 4421POPC   C4A56778  34.026  41.071   7.143
 4421POPC   C1B56779  33.469  40.421   6.181
 4421POPC   C2B56780  33.405  40.301   6.665
 4421POPC   C3B56781  33.490  40.439   7.148
 4421POPC   C4B56782  33.787  40.483   7.570
 4422POPC   NC356783   4.499  39.835   5.432
 4422POPC   PO456784   4.114  40.354   5.448
 4422POPC   GL156785   4.243  40.176   5.829
 4422POPC   GL256786   4.579  40.146   5.827
 4422POPC   C1A56787   4.335  40.106   6.276
 4422POPC   D2A56788   4.123  39.842   6.536
 4422POPC   C3A56789   4.296  39.922   6.920
 4422POPC   C4A56790   4.099  40.006   7.304
 4422POPC   C1B56791   4.557  39.724   6.065
 4422POPC   C2B56792   4.606  39.697   6.498
 4422POPC   C3B56793   4.541  39.470   6.863
 4422POPC   C4B56794   4.550  39.640   7.276
 4423POPC   NC356795  19.591   5.370   5.197
 4423POPC   PO456796  19.805   4.796   5.496
 4423POPC   GL156797  19.994   5.077   5.808
 4423POPC   GL256798  20.083   5.409   5.727
 4423POPC   C1A56799  19.789   5.117   6.203
 4423POPC   D2A56800  19.597   5.340   6.545
 4423POPC   C3A56801  19.695   5.149   6.926
 4423POPC   C4A56802  19.534   5.129   7.334
 4423POPC   C1B56803  20.232   5.398   6.176
 4423POPC   C2B56804  20.121   5.231   6.581
 4423POPC   C3B56805  20.210   5.121   6.986
 4423POPC   C4B56806  20.099   4.945   7.406
 4424POPC   NC356807  40.963   3.324   5.426
 4424POPC   PO456808  40.969   3.870   5.118
 4424POPC   GL156809  40.832   3.756   5.649
 4424POPC   GL256810  40.613   3.994   5.803
 4424POPC   C1A56811  40.694   3.533   6.058
 4424POPC   D2A56812  40.714   3.652   6.511
 4424POPC   C3A56813  40.727   3.374   6.883
 4424POPC   C4A56814  40.743   3.509   7.308
 4424POPC   C1B56815  40.989   3.942   6.110
 4424POPC   C2B56816  41.213   3.853   6.497
 4424POPC   C3B56817  41.050   3.787   6.913
 4424POPC   C4B56818  41.203   3.759   7.340
 4425POPC   NC356819  27.800  27.091   5.400
 4425POPC   PO456820  27.424  26.471   5.357
 4425POPC   GL156821  27.588  26.698   5.713
 4425POPC   GL256822  27.512  26.383   5.918
 4425POPC   C1A56823  27.730  26.778   6.148
 4425POPC   D2A56824  27.585  26.746   6.587
 4425POPC   C3A56825  27.820  26.863   6.998
 4425POPC   C4A56826  27.533  27.052   7.294
 4425POPC   C1B56827  27.240  26.445   6.284
 4425POPC   C2B56828  27.181  26.458   6.731
 4425POPC   C3B56829  27.466  26.515   7.070
 4425POPC   C4B56830  27.535  26.615   7.558
 4426POPC   NC356831   7.220  21.192   5.162
 4426POPC   PO456832   7.745  21.599   5.370
 4426POPC   GL156833   7.668  21.492   5.786
 4426POPC   GL256834   7.509  21.178   5.684
 4426POPC   C1A56835   7.492  21.525   6.228
 4426POPC   D2A56836   7.178  21.644   6.557
 4426POPC   C3A56837   7.235  21.469   6.977
 4426POPC   C4A56838   7.457  21.663   7.312
 4426POPC   C1B56839   7.678  21.052   6.086
 4426POPC   C2B56840   7.741  21.111   6.530
 4426POPC   C3B56841   7.541  20.944   6.910
 4426POPC   C4B56842   7.463  21.130   7.301
 4427POPC   NC356843   8.512   9.477   5.106
 4427POPC   PO456844   9.010   9.938   5.245
 4427POPC   GL156845   8.838   9.760   5.650
 4427POPC   GL256846   9.053   9.505   5.778
 4427POPC   C1A56847   8.942   9.874   6.109
 4427POPC   D2A56848   9.200   9.832   6.482
 4427POPC   C3A56849   8.970   9.882   6.878
 4427POPC   C4A56850   8.995  10.016   7.309
 4427POPC   C1B56851   8.981   9.380   6.238
 4427POPC   C2B56852   9.102   9.370   6.700
 4427POPC   C3B56853   9.365   9.593   7.012
 4427POPC   C4B56854   9.290   9.642   7.464
 4428POPC   NC356855  31.150  15.404   5.776
 4428POPC   PO456856  31.744  15.163   5.384
 4428POPC   GL156857  31.664  15.290   5.772
 4428POPC   GL256858  31.477  15.001   5.817
 4428POPC   C1A56859  31.749  15.335   6.190
 4428POPC   D2A56860  31.530  15.295   6.579
 4428POPC   C3A56861  31.795  15.290   6.925
 4428POPC   C4A56862  31.671  15.321   7.320
 4428POPC   C1B56863  31.439  14.884   6.238
 4428POPC   C2B56864  31.300  14.819   6.638
 4428POPC   C3B56865  31.365  14.996   7.008
 4428POPC   C4B56866  30.990  15.040   7.229
 4429POPC   NC356867  14.850  20.097   5.587
 4429POPC   PO456868  14.534  19.720   5.160
 4429POPC   GL156869  14.435  19.750   5.694
 4429POPC   GL256870  14.341  19.996   5.830
 4429POPC   C1A56871  14.632  19.756   6.156
 4429POPC   D2A56872  14.897  19.655   6.523
 4429POPC   C3A56873  14.861  19.888   6.908
 4429POPC   C4A56874  14.694  19.694   7.278
 4429POPC   C1B56875  14.171  20.158   6.201
 4429POPC   C2B56876  14.337  19.867   6.544
 4429POPC   C3B56877  14.312  19.859   6.969
 4429POPC   C4B56878  14.225  20.090   7.331
 4430POPC   NC356879   7.318   8.706   5.442
 4430POPC   PO456880   7.660   9.319   5.425
 4430POPC   GL156881   7.458   9.121   5.788
 4430POPC   GL256882   7.443   8.794   5.910
 4430POPC   C1A56883   7.529   9.178   6.240
 4430POPC   D2A56884   7.369   8.893   6.538
 4430POPC   C3A56885   7.277   9.083   6.926
 4430POPC   C4A56886   7.480   8.866   7.242
 4430POPC   C1B56887   7.189   8.553   6.163
 4430POPC   C2B56888   7.025   8.495   6.565
 4430POPC   C3B56889   7.142   8.566   6.980
 4430POPC   C4B56890   6.952   8.880   7.275
 4431POPC   NC356891   7.637  37.088   5.118
 4431POPC   PO456892   7.271  36.610   5.352
 4431POPC   GL156893   7.473  36.620   5.780
 4431POPC   GL256894   7.378  36.969   5.868
 4431POPC   C1A56895   7.609  36.717   6.221
 4431POPC   D2A56896   7.483  36.932   6.580
 4431POPC   C3A56897   7.550  36.780   6.955
 4431POPC   C4A56898   7.410  37.042   7.227
 4431POPC   C1B56899   7.583  37.260   6.215
 4431POPC   C2B56900   7.822  37.338   6.605
 4431POPC   C3B56901   7.767  37.379   7.037
 4431POPC   C4B56902   7.930  37.026   7.252
 4432POPC   NC356903   0.831  20.868   5.509
 4432POPC   PO456904   0.400  20.486   5.189
 4432POPC   GL156905   0.433  20.579   5.694
 4432POPC   GL256906   0.532  20.296   5.922
 4432POPC   C1A56907   0.509  20.850   6.074
 4432POPC   D2A56908   0.377  20.920   6.506
 4432POPC   C3A56909   0.613  20.839   6.870
 4432POPC   C4A56910   0.571  20.633   7.254
 4432POPC   C1B56911   0.553  20.410   6.370
 4432POPC   C2B56912   0.461  20.332   6.818
 4432POPC   C3B56913   0.635  20.125   7.195
 4432POPC   C4B56914   0.785  20.275   7.602
 4433POPC   NC356915  15.827  31.950   5.576
 4433POPC   PO456916  15.605  32.621   5.607
 4433POPC   GL156917  15.753  32.326   5.951
 4433POPC   GL256918  16.073  32.163   5.975
 4433POPC   C1A56919  15.793  32.112   6.389
 4433POPC   D2A56920  16.058  31.928   6.742
 4433POPC   C3A56921  16.005  32.133   7.124
 4433POPC   C4A56922  15.899  32.585   7.114
 4433POPC   C1B56923  16.325  32.121   6.354
 4433POPC   C2B56924  16.305  32.378   6.736
 4433POPC   C3B56925  16.407  32.482   7.159
 4433POPC   C4B56926  16.185  32.401   7.534
 4434POPC   NC356927  41.650  15.619   5.471
 4434POPC   PO456928  41.394  16.339   5.495
 4434POPC   GL156929  41.554  16.041   5.786
 4434POPC   GL256930  41.861  16.085   5.736
 4434POPC   C1A56931  41.533  15.803   6.177
 4434POPC   D2A56932  41.289  15.660   6.524
 4434POPC   C3A56933  41.324  15.859   6.931
 4434POPC   C4A56934  41.652  15.760   7.226
 4434POPC   C1B56935  41.968  16.051   6.171
 4434POPC   C2B56936  41.809  15.937   6.625
 4434POPC   C3B56937  41.720  16.205   7.025
 4434POPC   C4B56938  41.760  16.262   7.532
 4435POPC   NC356939  22.415  11.922   5.499
 4435POPC   PO456940  21.763  12.213   5.605
 4435POPC   GL156941  22.110  12.150   5.857
 4435POPC   GL256942  22.111  11.791   5.894
 4435POPC   C1A56943  22.038  12.242   6.274
 4435POPC   D2A56944  22.070  12.078   6.659
 4435POPC   C3A56945  22.010  12.363   6.944
 4435POPC   C4A56946  22.020  12.282   7.372
 4435POPC   C1B56947  22.237  11.717   6.322
 4435POPC   C2B56948  22.452  11.757   6.746
 4435POPC   C3B56949  22.195  11.830   7.147
 4435POPC   C4B56950  22.208  11.870   7.629
 4436POPC   NC356951   5.338  33.950   5.423
 4436POPC   PO456952   4.831  33.526   5.546
 4436POPC   GL156953   4.957  33.879   5.823
 4436POPC   GL256954   5.286  33.894   5.925
 4436POPC   C1A56955   4.950  33.976   6.273
 4436POPC   D2A56956   4.773  33.726   6.591
 4436POPC   C3A56957   4.920  33.761   7.009
 4436POPC   C4A56958   4.700  33.693   7.383
 4436POPC   C1B56959   5.501  33.897   6.316
 4436POPC   C2B56960   5.788  33.897   6.688
 4436POPC   C3B56961   5.591  34.029   7.068
 4436POPC   C4B56962   5.404  33.669   7.261
 4437POPC   NC356963  16.606  27.027   5.415
 4437POPC   PO456964  17.201  26.772   5.433
 4437POPC   GL156965  16.869  26.680   5.728
 4437POPC   GL256966  16.870  27.017   5.870
 4437POPC   C1A56967  16.661  26.495   6.127
 4437POPC   D2A56968  16.636  26.697   6.532
 4437POPC   C3A56969  16.547  26.560   6.952
 4437POPC   C4A56970  16.534  26.799   7.336
 4437POPC   C1B56971  17.065  26.775   6.198
 4437POPC   C2B56972  17.138  26.805   6.621
 4437POPC   C3B56973  16.870  26.944   6.972
 4437POPC   C4B56974  16.886  27.178   7.401
 4438POPC   NC356975  14.332  17.466   5.300
 4438POPC   PO456976  14.538  18.091   5.468
 4438POPC   GL156977  14.471  17.677   5.756
 4438POPC   GL256978  14.457  17.281   5.744
 4438POPC   C1A56979  14.277  17.531   6.145
 4438POPC   D2A56980  14.147  17.599   6.547
 4438POPC   C3A56981  14.200  17.480   6.938
 4438POPC   C4A56982  14.062  17.608   7.366
 4438POPC   C1B56983  14.525  17.090   6.166
 4438POPC   C2B56984  14.591  17.289   6.556
 4438POPC   C3B56985  14.580  17.133   6.929
 4438POPC   C4B56986  14.420  17.239   7.335
 4439POPC   NC356987   3.385   0.570   5.134
 4439POPC   PO456988   3.491   0.832   5.697
 4439POPC   GL156989   3.574   0.454   5.939
 4439POPC   GL256990   3.577   0.135   5.767
 4439POPC   C1A56991   3.291   0.243   6.264
 4439POPC   D2A56992   3.392   0.228   6.720
 4439POPC   C3A56993   3.694   0.526   6.860
 4439POPC   C4A56994   3.653   0.829   7.184
 4439POPC   C1B56995   3.772   0.056   6.219
 4439POPC   C2B56996   3.871   0.061   6.697
 4439POPC   C3B56997   3.737   0.075   7.155
 4439POPC   C4B56998   3.773   0.103   7.622
 4440POPC   NC356999   7.564  28.680   5.556
 4440POPC   PO457000   7.090  28.215   5.639
 4440POPC   GL157001   7.146  28.557   5.911
 4440POPC   GL257002   7.446  28.386   5.964
 4440POPC   C1A57003   7.308  28.677   6.353
 4440POPC   D2A57004   7.589  28.655   6.740
 4440POPC   C3A57005   7.362  28.534   7.130
 4440POPC   C4A57006   7.250  28.798   7.513
 4440POPC   C1B57007   7.561  28.052   6.219
 4440POPC   C2B57008   7.659  28.156   6.626
 4440POPC   C3B57009   7.793  28.238   7.038
 4440POPC   C4B57010   7.598  28.160   7.413
 4441POPC   NC357011   3.190  34.449   5.113
 4441POPC   PO457012   3.389  34.765   5.680
 4441POPC   GL157013   2.997  34.490   5.879
 4441POPC   GL257014   2.632  34.391   5.762
 4441POPC   C1A57015   2.983  34.505   6.323
 4441POPC   D2A57016   2.980  34.827   6.637
 4441POPC   C3A57017   2.844  34.783   7.054
 4441POPC   C4A57018   3.073  34.565   7.349
 4441POPC   C1B57019   2.483  34.428   6.210
 4441POPC   C2B57020   2.586  34.495   6.667
 4441POPC   C3B57021   2.798  34.267   6.996
 4441POPC   C4B57022   2.703  34.221   7.433
 4442POPC   NC357023  43.034   3.312   5.443
 4442POPC   PO457024  43.187   3.959   5.318
 4442POPC   GL157025  43.250   3.738   5.655
 4442POPC   GL257026  42.879   3.721   5.733
 4442POPC   C1A57027  43.278   3.560   6.054
 4442POPC   D2A57028  43.181   3.738   6.468
 4442POPC   C3A57029  43.334   3.552   6.820
 4442POPC   C4A57030  43.422   3.769   7.193
 4442POPC   C1B57031  42.782   3.551   6.171
 4442POPC   C2B57032  42.865   3.346   6.577
 4442POPC   C3B57033  42.937   3.248   6.994
 4442POPC   C4B57034  42.927   3.662   7.120
 4443POPC   NC357035  29.372  19.737   5.437
 4443POPC   PO457036  28.929  20.149   5.430
 4443POPC   GL157037  29.063  20.054   5.828
 4443POPC   GL257038  29.412  20.075   5.818
 4443POPC   C1A57039  29.184  20.065   6.274
 4443POPC   D2A57040  29.145  19.902   6.699
 4443POPC   C3A57041  29.108  20.101   7.117
 4443POPC   C4A57042  28.856  19.863   7.456
 4443POPC   C1B57043  29.498  19.692   6.099
 4443POPC   C2B57044  29.531  19.556   6.544
 4443POPC   C3B57045  29.539  19.704   6.973
 4443POPC   C4B57046  29.320  19.682   7.344
 4444POPC   NC357047   0.464  18.331   5.384
 4444POPC   PO457048   0.133  17.803   5.519
 4444POPC   GL157049   0.403  18.089   5.831
 4444POPC   GL257050   0.332  18.472   5.873
 4444POPC   C1A57051   0.601  18.169   6.252
 4444POPC   D2A57052   0.426  18.271   6.660
 4444POPC   C3A57053   0.632  18.241   7.090
 4444POPC   C4A57054   0.392  18.166   7.464
 4444POPC   C1B57055   0.628  18.692   6.151
 4444POPC   C2B57056   0.777  18.678   6.598
 4444POPC   C3B57057   0.472  18.699   6.950
 4444POPC   C4B57058   0.103  18.404   7.057
 4445POPC   NC357059  31.986  12.312   5.576
 4445POPC   PO457060  31.500  11.846   5.432
 4445POPC   GL157061  31.651  12.009   5.805
 4445POPC   GL257062  31.563  12.333   5.846
 4445POPC   C1A57063  31.455  11.987   6.219
 4445POPC   D2A57064  31.226  12.097   6.583
 4445POPC   C3A57065  31.349  11.847   6.911
 4445POPC   C4A57066  31.484  11.993   7.272
 4445POPC   C1B57067  31.834  12.353   6.207
 4445POPC   C2B57068  31.710  12.291   6.594
 4445POPC   C3B57069  31.659  12.413   6.992
 4445POPC   C4B57070  31.915  12.241   7.294
 4446POPC   NC357071  24.267  37.816   5.634
 4446POPC   PO457072  24.803  37.307   5.537
 4446POPC   GL157073  24.739  37.659   5.806
 4446POPC   GL257074  24.457  37.495   5.971
 4446POPC   C1A57075  24.617  37.890   6.227
 4446POPC   D2A57076  24.431  37.585   6.520
 4446POPC   C3A57077  24.523  37.554   6.927
 4446POPC   C4A57078  24.527  37.934   7.132
 4446POPC   C1B57079  24.108  37.361   6.222
 4446POPC   C2B57080  23.966  37.369   6.677
 4446POPC   C3B57081  24.078  37.408   7.143
 4446POPC   C4B57082  24.324  37.616   7.471
 4447POPC   NC357083  11.444  11.204   5.568
 4447POPC   PO457084  10.867  11.420   5.300
 4447POPC   GL157085  11.178  11.573   5.757
 4447POPC   GL257086  11.546  11.622   5.883
 4447POPC   C1A57087  11.192  11.671   6.230
 4447POPC   D2A57088  11.499  11.592   6.553
 4447POPC   C3A57089  11.291  11.415   6.924
 4447POPC   C4A57090  11.069  11.061   7.121
 4447POPC   C1B57091  11.585  11.242   6.200
 4447POPC   C2B57092  11.433  11.030   6.593
 4447POPC   C3B57093  11.580  10.995   7.016
 4447POPC   C4B57094  11.885  11.126   7.297
 4448POPC   NC357095   9.582  40.344   5.585
 4448POPC   PO457096   9.448  40.901   5.588
 4448POPC   GL157097   9.669  40.711   5.935
 4448POPC   GL257098   9.975  40.517   5.862
 4448POPC   C1A57099   9.752  40.903   6.326
 4448POPC   D2A57100   9.924  40.993   6.714
 4448POPC   C3A57101   9.738  40.938   7.115
 4448POPC   C4A57102   9.638  40.847   7.571
 4448POPC   C1B57103  10.184  40.612   6.234
 4448POPC   C2B57104  10.195  40.480   6.629
 4448POPC   C3B57105  10.077  40.576   7.019
 4448POPC   C4B57106  10.106  40.722   7.436
 4449POPC   NC357107  11.809  36.960   5.352
 4449POPC   PO457108  11.173  36.781   5.146
 4449POPC   GL157109  11.295  36.946   5.549
 4449POPC   GL257110  11.296  36.642   5.679
 4449POPC   C1A57111  11.291  37.052   6.015
 4449POPC   D2A57112  11.459  37.185   6.430
 4449POPC   C3A57113  11.405  37.019   6.841
 4449POPC   C4A57114  11.479  37.175   7.245
 4449POPC   C1B57115  11.082  36.576   6.066
 4449POPC   C2B57116  11.171  36.711   6.484
 4449POPC   C3B57117  11.070  36.609   6.926
 4449POPC   C4B57118  11.277  36.663   7.265
 4450POPC   NC357119  15.242   0.240   5.397
 4450POPC   PO457120  15.496   0.835   5.392
 4450POPC   GL157121  15.409   0.674   5.811
 4450POPC   GL257122  15.496   0.308   5.868
 4450POPC   C1A57123  15.188   0.619   6.217
 4450POPC   D2A57124  15.294   0.481   6.641
 4450POPC   C3A57125  15.152   0.639   7.017
 4450POPC   C4A57126  15.162   0.508   7.452
 4450POPC   C1B57127  15.336   0.114   6.258
 4450POPC   C2B57128  15.436  44.990   6.699
 4450POPC   C3B57129  15.360   0.156   7.092
 4450POPC   C4B57130  14.927   0.168   7.183
 4451POPC   NC357131   6.346   7.297   5.410
 4451POPC   PO457132   6.831   7.788   5.567
 4451POPC   GL157133   6.799   7.495   5.880
 4451POPC   GL257134   6.626   7.152   5.829
 4451POPC   C1A57135   6.880   7.666   6.280
 4451POPC   D2A57136   6.554   7.838   6.522
 4451POPC   C3A57137   6.598   7.674   6.920
 4451POPC   C4A57138   6.480   7.799   7.329
 4451POPC   C1B57139   6.261   6.979   6.080
 4451POPC   C2B57140   6.312   6.965   6.541
 4451POPC   C3B57141   6.205   7.074   6.976
 4451POPC   C4B57142   6.506   7.259   7.240
 4452POPC   NC357143  24.096  44.237   5.349
 4452POPC   PO457144  23.326  44.255   5.409
 4452POPC   GL157145  23.577  44.009   5.717
 4452POPC   GL257146  23.926  44.016   5.781
 4452POPC   C1A57147  23.590  43.995   6.182
 4452POPC   D2A57148  23.834  44.035   6.526
 4452POPC   C3A57149  23.568  43.940   6.866
 4452POPC   C4A57150  23.332  44.089   7.242
 4452POPC   C1B57151  23.986  43.694   6.131
 4452POPC   C2B57152  24.023  43.551   6.570
 4452POPC   C3B57153  23.797  43.511   6.959
 4452POPC   C4B57154  23.821  43.456   7.423
 4453POPC   NC357155  39.256   0.161   5.549
 4453POPC   PO457156  38.803   0.597   5.572
 4453POPC   GL157157  39.080   0.511   5.919
 4453POPC   GL257158  39.442   0.552   5.815
 4453POPC   C1A57159  39.054   0.578   6.376
 4453POPC   D2A57160  39.208   0.321   6.718
 4453POPC   C3A57161  38.988   0.486   7.081
 4453POPC   C4A57162  38.983   0.416   7.512
 4453POPC   C1B57163  39.510   0.436   6.230
 4453POPC   C2B57164  39.577   0.706   6.584
 4453POPC   C3B57165  39.446   0.688   6.987
 4453POPC   C4B57166  39.429   0.271   7.236
 4454POPC   NC357167  23.956   8.756   5.425
 4454POPC   PO457168  23.404   8.700   5.778
 4454POPC   GL157169  23.693   8.973   5.906
 4454POPC   GL257170  23.831   9.239   5.684
 4454POPC   C1A57171  23.726   8.849   6.332
 4454POPC   D2A57172  24.009   8.714   6.603
 4454POPC   C3A57173  23.768   8.712   6.953
 4454POPC   C4A57174  23.830   8.878   7.334
 4454POPC   C1B57175  23.880   9.399   6.135
 4454POPC   C2B57176  23.938   9.234   6.579
 4454POPC   C3B57177  23.907   9.276   7.037
 4454POPC   C4B57178  23.795   9.350   7.537
 4455POPC   NC357179  44.889  39.313   5.150
 4455POPC   PO457180   0.469  39.161   5.372
 4455POPC   GL157181   0.173  39.080   5.772
 4455POPC   GL257182  44.949  39.370   5.694
 4455POPC   C1A57183   0.141  38.957   6.275
 4455POPC   D2A57184   0.182  39.041   6.771
 4455POPC   C3A57185   0.552  38.856   6.995
 4455POPC   C4A57186   0.899  39.050   7.199
 4455POPC   C1B57187  44.936  39.412   6.152
 4455POPC   C2B57188   0.019  39.525   6.601
 4455POPC   C3B57189   0.380  39.538   6.907
 4455POPC   C4B57190   0.475  39.298   7.271
 4456POPC   NC357191  37.860  33.683   5.477
 4456POPC   PO457192  37.654  34.330   5.573
 4456POPC   GL157193  37.631  33.944   5.872
 4456POPC   GL257194  37.459  33.587   5.950
 4456POPC   C1A57195  37.919  33.673   6.132
 4456POPC   D2A57196  38.054  33.504   6.513
 4456POPC   C3A57197  37.862  33.676   6.889
 4456POPC   C4A57198  37.701  33.512   7.266
 4456POPC   C1B57199  37.494  33.846   6.367
 4456POPC   C2B57200  37.548  34.096   6.763
 4456POPC   C3B57201  37.556  34.128   7.236
 4456POPC   C4B57202  37.464  34.308   7.665
 4457POPC   NC357203  13.793  26.866   5.038
 4457POPC   PO457204  13.494  26.419   5.500
 4457POPC   GL157205  13.392  26.603   5.845
 4457POPC   GL257206  13.725  26.736   5.839
 4457POPC   C1A57207  13.309  26.788   6.218
 4457POPC   D2A57208  13.524  26.799   6.577
 4457POPC   C3A57209  13.282  26.840   6.889
 4457POPC   C4A57210  13.450  26.738   7.282
 4457POPC   C1B57211  13.947  26.646   6.193
 4457POPC   C2B57212  14.019  26.851   6.589
 4457POPC   C3B57213  13.859  26.723   6.979
 4457POPC   C4B57214  13.933  26.853   7.400
 4458POPC   NC357215  24.417  10.972   5.290
 4458POPC   PO457216  24.132  11.515   5.576
 4458POPC   GL157217  24.301  11.173   5.835
 4458POPC   GL257218  24.613  11.225   5.919
 4458POPC   C1A57219  24.400  11.064   6.326
 4458POPC   D2A57220  24.603  11.272   6.711
 4458POPC   C3A57221  24.247  11.275   7.041
 4458POPC   C4A57222  23.987  11.410   7.421
 4458POPC   C1B57223  24.808  11.511   6.213
 4458POPC   C2B57224  24.978  11.696   6.567
 4458POPC   C3B57225  24.951  11.662   7.008
 4458POPC   C4B57226  24.726  11.337   7.222
 4459POPC   NC357227   6.033   8.011   5.240
 4459POPC   PO457228   5.715   7.436   5.503
 4459POPC   GL157229   6.006   7.360   5.838
 4459POPC   GL257230   6.275   7.511   5.861
 4459POPC   C1A57231   5.895   7.312   6.260
 4459POPC   D2A57232   5.703   7.625   6.518
 4459POPC   C3A57233   5.645   7.479   6.925
 4459POPC   C4A57234   5.784   7.234   7.254
 4459POPC   C1B57235   6.415   7.422   6.264
 4459POPC   C2B57236   6.191   7.486   6.657
 4459POPC   C3B57237   6.115   7.571   7.098
 4459POPC   C4B57238   6.154   7.451   7.566
 4460POPC   NC357239  26.418   7.971   5.576
 4460POPC   PO457240  27.090   8.107   5.527
 4460POPC   GL157241  26.964   8.251   5.926
 4460POPC   GL257242  26.783   7.996   5.944
 4460POPC   C1A57243  26.796   8.502   6.272
 4460POPC   D2A57244  26.877   8.684   6.682
 4460POPC   C3A57245  26.811   8.464   7.070
 4460POPC   C4A57246  26.798   8.134   7.327
 4460POPC   C1B57247  26.895   7.986   6.374
 4460POPC   C2B57248  26.958   8.044   6.815
 4460POPC   C3B57249  27.185   7.882   7.124
 4460POPC   C4B57250  27.048   7.746   7.523
 4461POPC   NC357251  25.526   7.763   5.573
 4461POPC   PO457252  25.134   8.391   5.475
 4461POPC   GL157253  25.295   8.270   5.854
 4461POPC   GL257254  25.140   7.935   5.873
 4461POPC   C1A57255  25.490   8.357   6.271
 4461POPC   D2A57256  25.499   8.101   6.660
 4461POPC   C3A57257  25.382   8.264   7.062
 4461POPC   C4A57258  25.069   8.510   7.239
 4461POPC   C1B57259  25.039   8.102   6.274
 4461POPC   C2B57260  24.758   8.159   6.572
 4461POPC   C3B57261  24.874   8.104   6.986
 4461POPC   C4B57262  24.893   7.964   7.395
 4462POPC   NC357263  27.868  39.309   5.492
 4462POPC   PO457264  28.513  39.273   5.507
 4462POPC   GL157265  28.262  39.262   5.839
 4462POPC   GL257266  28.108  39.594   5.844
 4462POPC   C1A57267  28.367  39.082   6.226
 4462POPC   D2A57268  28.159  39.019   6.599
 4462POPC   C3A57269  28.367  39.090   6.991
 4462POPC   C4A57270  28.595  38.960   7.384
 4462POPC   C1B57271  28.261  39.605   6.270
 4462POPC   C2B57272  28.144  39.514   6.698
 4462POPC   C3B57273  28.348  39.616   7.062
 4462POPC   C4B57274  28.336  39.402   7.436
 4463POPC   NC357275  22.711  14.477   5.485
 4463POPC   PO457276  22.047  14.801   5.533
 4463POPC   GL157277  22.397  14.662   5.828
 4463POPC   GL257278  22.497  14.862   6.022
 4463POPC   C1A57279  22.873  14.545   6.104
 4463POPC   D2A57280  23.246  14.558   6.399
 4463POPC   C3A57281  23.158  14.488   6.832
 4463POPC   C4A57282  23.130  14.424   7.277
 4463POPC   C1B57283  22.423  14.491   6.295
 4463POPC   C2B57284  22.672  14.279   6.631
 4463POPC   C3B57285  22.733  14.185   7.069
 4463POPC   C4B57286  22.498  14.469   7.400
 4464POPC   NC357287  24.068   0.712   5.307
 4464POPC   PO457288  24.433   1.314   5.388
 4464POPC   GL157289  24.369   1.241   5.835
 4464POPC   GL257290  23.994   1.262   5.894
 4464POPC   C1A57291  24.529   1.397   6.206
 4464POPC   D2A57292  24.573   1.161   6.563
 4464POPC   C3A57293  24.576   1.360   6.942
 4464POPC   C4A57294  24.498   1.229   7.302
 4464POPC   C1B57295  24.042   1.132   6.333
 4464POPC   C2B57296  24.043   1.099   6.789
 4464POPC   C3B57297  24.061   1.399   7.128
 4464POPC   C4B57298  24.073   1.298   7.592
 4465POPC   NC357299   1.419  14.666   5.592
 4465POPC   PO457300   1.334  13.991   5.546
 4465POPC   GL157301   1.146  14.260   5.814
 4465POPC   GL257302   0.793  14.211   5.888
 4465POPC   C1A57303   1.264  14.251   6.256
 4465POPC   D2A57304   1.204  14.039   6.653
 4465POPC   C3A57305   1.409  14.262   7.002
 4465POPC   C4A57306   1.533  14.584   7.297
 4465POPC   C1B57307   0.936  14.630   6.102
 4465POPC   C2B57308   1.225  14.745   6.464
 4465POPC   C3B57309   1.223  14.821   6.929
 4465POPC   C4B57310   1.029  14.536   7.223
 4466POPC   NC357311  30.681  42.712   5.401
 4466POPC   PO457312  29.920  42.863   5.356
 4466POPC   GL157313  29.899  43.077   5.774
 4466POPC   GL257314  29.664  43.372   5.814
 4466POPC   C1A57315  29.928  43.132   6.241
 4466POPC   D2A57316  29.634  43.293   6.593
 4466POPC   C3A57317  29.611  43.052   6.970
 4466POPC   C4A57318  29.938  42.875   7.234
 4466POPC   C1B57319  29.793  43.616   6.208
 4466POPC   C2B57320  30.094  43.549   6.586
 4466POPC   C3B57321  30.012  43.402   7.018
 4466POPC   C4B57322  29.619  43.499   7.240
 4467POPC   NC357323  37.816  18.247   5.424
 4467POPC   PO457324  37.219  18.545   5.276
 4467POPC   GL157325  37.447  18.428   5.743
 4467POPC   GL257326  37.842  18.462   5.877
 4467POPC   C1A57327  37.521  18.286   6.205
 4467POPC   D2A57328  37.625  18.461   6.592
 4467POPC   C3A57329  37.458  18.201   6.903
 4467POPC   C4A57330  37.325  18.328   7.263
 4467POPC   C1B57331  38.019  18.306   6.245
 4467POPC   C2B57332  38.056  18.183   6.644
 4467POPC   C3B57333  38.150  18.220   7.039
 4467POPC   C4B57334  37.857  18.462   7.256
 4468POPC   NC357335  17.718   7.497   5.522
 4468POPC   PO457336  17.136   7.855   5.488
 4468POPC   GL157337  17.282   7.760   5.931
 4468POPC   GL257338  17.637   7.791   5.925
 4468POPC   C1A57339  17.336   7.530   6.334
 4468POPC   D2A57340  17.394   7.143   6.562
 4468POPC   C3A57341  17.404   7.212   7.007
 4468POPC   C4A57342  17.236   7.546   7.303
 4468POPC   C1B57343  17.855   7.623   6.245
 4468POPC   C2B57344  17.803   7.527   6.655
 4468POPC   C3B57345  17.596   7.712   6.985
 4468POPC   C4B57346  17.531   8.027   7.306
 4469POPC   NC357347  11.052  41.203   5.299
 4469POPC   PO457348  11.576  41.667   5.481
 4469POPC   GL157349  11.243  41.723   5.764
 4469POPC   GL257350  11.189  41.378   5.752
 4469POPC   C1A57351  11.022  41.687   6.146
 4469POPC   D2A57352  11.237  41.603   6.505
 4469POPC   C3A57353  11.313  41.786   6.883
 4469POPC   C4A57354  11.049  41.521   7.120
 4469POPC   C1B57355  11.503  41.409   6.082
 4469POPC   C2B57356  11.718  41.488   6.423
 4469POPC   C3B57357  11.620  41.276   6.748
 4469POPC   C4B57358  11.536  41.390   7.149
 4470POPC   NC357359  34.275  13.893   5.686
 4470POPC   PO457360  33.742  13.486   5.420
 4470POPC   GL157361  33.688  13.508   5.838
 4470POPC   GL257362  33.471  13.768   5.854
 4470POPC   C1A57363  33.891  13.592   6.249
 4470POPC   D2A57364  34.007  13.653   6.684
 4470POPC   C3A57365  33.862  13.299   6.929
 4470POPC   C4A57366  33.696  13.307   7.280
 4470POPC   C1B57367  33.662  14.036   6.176
 4470POPC   C2B57368  33.516  13.895   6.567
 4470POPC   C3B57369  33.563  13.728   6.963
 4470POPC   C4B57370  33.663  13.816   7.392
 4471POPC   NC357371  27.035  20.659   5.499
 4471POPC   PO457372  26.487  20.730   5.187
 4471POPC   GL157373  26.505  20.884   5.765
 4471POPC   GL257374  26.854  20.733   5.952
 4471POPC   C1A57375  26.543  20.890   6.283
 4471POPC   D2A57376  26.681  20.546   6.545
 4471POPC   C3A57377  26.623  20.651   6.996
 4471POPC   C4A57378  26.591  20.467   7.438
 4471POPC   C1B57379  27.060  20.346   6.132
 4471POPC   C2B57380  27.173  20.181   6.527
 4471POPC   C3B57381  26.954  20.251   6.862
 4471POPC   C4B57382  27.030  20.443   7.205
 4472POPC   NC357383  30.039  16.224   5.477
 4472POPC   PO457384  30.158  16.944   5.371
 4472POPC   GL157385  29.908  16.753   5.688
 4472POPC   GL257386  30.077  16.525   5.887
 4472POPC   C1A57387  29.775  16.849   6.099
 4472POPC   D2A57388  29.773  16.730   6.501
 4472POPC   C3A57389  30.014  16.925   6.817
 4472POPC   C4A57390  29.847  16.933   7.225
 4472POPC   C1B57391  30.140  16.401   6.323
 4472POPC   C2B57392  30.180  16.410   6.770
 4472POPC   C3B57393  30.119  16.519   7.202
 4472POPC   C4B57394  29.789  16.457   7.455
 4473POPC   NC357395  29.163   0.442   5.423
 4473POPC   PO457396  28.591   0.757   5.415
 4473POPC   GL157397  28.967   0.742   5.787
 4473POPC   GL257398  29.268   0.465   5.898
 4473POPC   C1A57399  29.084   0.778   6.233
 4473POPC   D2A57400  29.088   0.453   6.543
 4473POPC   C3A57401  29.208   0.487   6.983
 4473POPC   C4A57402  29.004   0.616   7.376
 4473POPC   C1B57403  29.443   0.212   6.231
 4473POPC   C2B57404  29.676   0.201   6.618
 4473POPC   C3B57405  29.559   0.005   6.998
 4473POPC   C4B57406  29.257   0.036   7.270
 4474POPC   NC357407  38.828   1.064   5.536
 4474POPC   PO457408  39.305   1.506   5.294
 4474POPC   GL157409  39.292   1.371   5.716
 4474POPC   GL257410  39.455   1.056   5.688
 4474POPC   C1A57411  39.082   1.408   6.126
 4474POPC   D2A57412  38.872   1.464   6.524
 4474POPC   C3A57413  38.899   1.282   6.915
 4474POPC   C4A57414  39.067   1.258   7.305
 4474POPC   C1B57415  39.294   0.946   6.107
 4474POPC   C2B57416  39.196   1.056   6.531
 4474POPC   C3B57417  39.417   1.235   6.858
 4474POPC   C4B57418  39.569   1.154   7.240
 4475POPC   NC357419  41.566  16.953   5.184
 4475POPC   PO457420  42.168  16.607   5.158
 4475POPC   GL157421  41.845  16.605   5.570
 4475POPC   GL257422  41.661  16.878   5.745
 4475POPC   C1A57423  41.714  16.498   6.055
 4475POPC   D2A57424  41.855  16.426   6.488
 4475POPC   C3A57425  41.838  16.661   6.846
 4475POPC   C4A57426  41.509  16.657   7.144
 4475POPC   C1B57427  41.543  17.029   6.199
 4475POPC   C2B57428  41.492  16.978   6.671
 4475POPC   C3B57429  41.740  17.116   7.055
 4475POPC   C4B57430  41.567  17.137   7.454
 4476POPC   NC357431  27.423  29.795   5.401
 4476POPC   PO457432  27.138  30.335   5.406
 4476POPC   GL157433  27.304  30.096   5.796
 4476POPC   GL257434  27.687  29.963   5.824
 4476POPC   C1A57435  27.280  29.814   6.168
 4476POPC   D2A57436  27.072  29.652   6.548
 4476POPC   C3A57437  27.310  29.881   6.851
 4476POPC   C4A57438  27.695  29.767   7.029
 4476POPC   C1B57439  27.851  30.043   6.269
 4476POPC   C2B57440  27.938  30.104   6.725
 4476POPC   C3B57441  27.827  30.285   7.121
 4476POPC   C4B57442  27.542  30.601   7.291
 4477POPC   NC357443  12.787  32.208   5.280
 4477POPC   PO457444  13.166  32.697   5.582
 4477POPC   GL157445  12.807  32.447   5.763
 4477POPC   GL257446  12.594  32.134   5.775
 4477POPC   C1A57447  12.780  32.407   6.211
 4477POPC   D2A57448  12.840  32.685   6.557
 4477POPC   C3A57449  12.820  32.392   6.865
 4477POPC   C4A57450  12.986  32.232   7.202
 4477POPC   C1B57451  12.814  31.884   6.140
 4477POPC   C2B57452  12.955  31.945   6.593
 4477POPC   C3B57453  12.953  31.760   7.019
 4477POPC   C4B57454  12.603  31.862   7.283
 4478POPC   NC357455  31.202   9.837   5.143
 4478POPC   PO457456  30.516   9.657   5.249
 4478POPC   GL157457  30.500   9.735   5.721
 4478POPC   GL257458  30.716   9.478   5.844
 4478POPC   C1A57459  30.657   9.859   6.162
 4478POPC   D2A57460  30.905   9.886   6.543
 4478POPC   C3A57461  30.643   9.781   6.882
 4478POPC   C4A57462  30.763   9.742   7.299
 4478POPC   C1B57463  31.008   9.476   6.209
 4478POPC   C2B57464  31.262   9.497   6.593
 4478POPC   C3B57465  31.095   9.524   6.996
 4478POPC   C4B57466  31.137   9.349   7.409
 4479POPC   NC357467   4.886  26.628   5.417
 4479POPC   PO457468   5.262  27.115   5.352
 4479POPC   GL157469   5.310  26.800   5.692
 4479POPC   GL257470   5.037  26.980   5.821
 4479POPC   C1A57471   5.394  26.571   6.110
 4479POPC   D2A57472   5.301  26.681   6.578
 4479POPC   C3A57473   5.359  26.515   7.023
 4479POPC   C4A57474   5.095  26.629   7.416
 4479POPC   C1B57475   4.933  26.791   6.212
 4479POPC   C2B57476   4.795  26.692   6.645
 4479POPC   C3B57477   4.976  26.915   7.019
 4479POPC   C4B57478   4.817  27.039   7.477
 4480POPC   NC357479  18.748   0.565   5.419
 4480POPC   PO457480  19.316   0.235   5.239
 4480POPC   GL157481  19.099   0.310   5.701
 4480POPC   GL257482  18.936   0.036   5.907
 4480POPC   C1A57483  19.115   0.459   6.148
 4480POPC   D2A57484  18.962   0.333   6.548
 4480POPC   C3A57485  18.979   0.511   6.951
 4480POPC   C4A57486  18.911   0.347   7.368
 4480POPC   C1B57487  19.261  44.971   6.226
 4480POPC   C2B57488  19.260  44.932   6.661
 4480POPC   C3B57489  19.077  44.988   7.034
 4480POPC   C4B57490  19.310   0.014   7.415
 4481POPC   NC357491  42.125  27.480   5.128
 4481POPC   PO457492  42.733  27.649   5.211
 4481POPC   GL157493  42.503  27.556   5.636
 4481POPC   GL257494  42.135  27.453   5.645
 4481POPC   C1A57495  42.363  27.693   6.079
 4481POPC   D2A57496  42.426  27.561   6.517
 4481POPC   C3A57497  42.337  27.729   6.915
 4481POPC   C4A57498  42.299  27.934   7.315
 4481POPC   C1B57499  41.926  27.416   6.041
 4481POPC   C2B57500  41.921  27.498   6.465
 4481POPC   C3B57501  41.918  27.383   6.895
 4481POPC   C4B57502  42.063  27.498   7.292
 4482POPC   NC357503   9.729  31.884   5.587
 4482POPC   PO457504   9.652  31.436   5.098
 4482POPC   GL157505   9.938  31.403   5.601
 4482POPC   GL257506   9.982  31.680   5.939
 4482POPC   C1A57507   9.823  31.252   6.097
 4482POPC   D2A57508   9.498  31.310   6.473
 4482POPC   C3A57509   9.577  31.470   6.912
 4482POPC   C4A57510   9.937  31.481   7.200
 4482POPC   C1B57511   9.823  31.698   6.368
 4482POPC   C2B57512  10.072  31.653   6.737
 4482POPC   C3B57513  10.222  31.902   7.089
 4482POPC   C4B57514  10.191  31.808   7.547
 4483POPC   NC357515  44.181  44.166   5.450
 4483POPC   PO457516  43.889  43.526   5.585
 4483POPC   GL157517  44.035  43.828   5.824
 4483POPC   GL257518  43.809  44.069   5.803
 4483POPC   C1A57519  44.072  43.902   6.252
 4483POPC   D2A57520  44.015  43.633   6.602
 4483POPC   C3A57521  44.061  43.878   6.947
 4483POPC   C4A57522  43.975  43.987   7.357
 4483POPC   C1B57523  43.607  44.107   6.188
 4483POPC   C2B57524  43.779  44.172   6.596
 4483POPC   C3B57525  43.591  44.070   6.977
 4483POPC   C4B57526  43.491  44.158   7.375
 4484POPC   NC357527  24.711  14.924   5.242
 4484POPC   PO457528  24.128  15.253   5.384
 4484POPC   GL157529  24.339  15.315   5.777
 4484POPC   GL257530  24.371  14.979   5.871
 4484POPC   C1A57531  24.597  15.409   6.127
 4484POPC   D2A57532  24.463  15.484   6.558
 4484POPC   C3A57533  24.723  15.353   6.895
 4484POPC   C4A57534  24.862  15.303   7.315
 4484POPC   C1B57535  24.302  15.038   6.327
 4484POPC   C2B57536  24.424  14.904   6.730
 4484POPC   C3B57537  24.561  14.896   7.150
 4484POPC   C4B57538  24.314  14.894   7.501
 4485POPC   NC357539  20.895  14.738   5.464
 4485POPC   PO457540  20.680  14.112   5.331
 4485POPC   GL157541  20.770  14.183   5.749
 4485POPC   GL257542  20.848  14.486   5.926
 4485POPC   C1A57543  20.600  14.081   6.146
 4485POPC   D2A57544  20.755  14.107   6.569
 4485POPC   C3A57545  20.555  14.319   6.899
 4485POPC   C4A57546  20.716  14.371   7.281
 4485POPC   C1B57547  20.525  14.571   6.286
 4485POPC   C2B57548  20.427  14.781   6.701
 4485POPC   C3B57549  20.533  14.839   7.148
 4485POPC   C4B57550  20.503  14.699   7.596
 4486POPC   NC357551  12.096   2.382   5.386
 4486POPC   PO457552  11.904   1.759   5.343
 4486POPC   GL157553  12.107   1.891   5.719
 4486POPC   GL257554  12.218   2.230   5.852
 4486POPC   C1A57555  12.150   1.758   6.139
 4486POPC   D2A57556  12.265   2.070   6.441
 4486POPC   C3A57557  12.511   2.040   6.807
 4486POPC   C4A57558  12.334   2.121   7.174
 4486POPC   C1B57559  11.860   2.209   6.135
 4486POPC   C2B57560  11.760   2.158   6.576
 4486POPC   C3B57561  11.870   2.252   7.009
 4486POPC   C4B57562  11.905   1.874   7.315
 4487POPC   NC357563  44.198  41.003   5.598
 4487POPC   PO457564  44.737  40.784   5.260
 4487POPC   GL157565  44.789  40.712   5.740
 4487POPC   GL257566  44.525  40.804   5.965
 4487POPC   C1A57567  44.877  40.444   6.106
 4487POPC   D2A57568   0.059  40.573   6.523
 4487POPC   C3A57569  44.739  40.555   6.845
 4487POPC   C4A57570  44.591  40.349   7.203
 4487POPC   C1B57571  44.534  40.737   6.397
 4487POPC   C2B57572  44.412  40.943   6.771
 4487POPC   C3B57573  44.669  41.119   7.111
 4487POPC   C4B57574  44.707  41.127   7.565
 4488POPC   NC357575  24.949  17.812   5.356
 4488POPC   PO457576  25.298  17.267   5.473
 4488POPC   GL157577  25.154  17.279   5.853
 4488POPC   GL257578  25.099  17.665   5.839
 4488POPC   C1A57579  25.250  17.425   6.258
 4488POPC   D2A57580  25.119  17.676   6.597
 4488POPC   C3A57581  25.262  17.439   6.947
 4488POPC   C4A57582  24.929  17.253   7.167
 4488POPC   C1B57583  25.356  17.911   6.147
 4488POPC   C2B57584  25.597  17.852   6.514
 4488POPC   C3B57585  25.444  17.924   6.915
 4488POPC   C4B57586  25.472  18.098   7.299
 4489POPC   NC357587  19.774  25.829   5.211
 4489POPC   PO457588  19.948  25.169   5.293
 4489POPC   GL157589  19.831  25.042   5.692
 4489POPC   GL257590  20.094  25.230   5.810
 4489POPC   C1A57591  19.698  25.156   6.120
 4489POPC   D2A57592  19.627  24.921   6.476
 4489POPC   C3A57593  19.611  25.099   6.852
 4489POPC   C4A57594  19.697  24.968   7.245
 4489POPC   C1B57595  20.210  25.104   6.208
 4489POPC   C2B57596  20.014  25.258   6.550
 4489POPC   C3B57597  20.021  25.390   6.942
 4489POPC   C4B57598  20.128  25.205   7.298
 4490POPC   NC357599  32.388  31.388   5.657
 4490POPC   PO457600  31.795  31.688   5.585
 4490POPC   GL157601  32.003  31.516   5.931
 4490POPC   GL257602  31.887  31.211   5.837
 4490POPC   C1A57603  32.239  31.360   6.320
 4490POPC   D2A57604  32.154  31.518   6.725
 4490POPC   C3A57605  32.431  31.517   7.100
 4490POPC   C4A57606  32.512  31.527   7.545
 4490POPC   C1B57607  31.745  31.267   6.273
 4490POPC   C2B57608  31.819  31.094   6.660
 4490POPC   C3B57609  31.803  31.329   7.031
 4490POPC   C4B57610  32.035  31.358   7.401
 4491POPC   NC357611  29.063  35.731   5.561
 4491POPC   PO457612  29.200  36.455   5.333
 4491POPC   GL157613  29.242  36.197   5.741
 4491POPC   GL257614  28.949  36.066   5.930
 4491POPC   C1A57615  29.352  36.166   6.199
 4491POPC   D2A57616  29.373  35.907   6.587
 4491POPC   C3A57617  29.257  36.184   6.931
 4491POPC   C4A57618  29.542  36.195   7.289
 4491POPC   C1B57619  28.894  36.037   6.408
 4491POPC   C2B57620  28.897  35.833   6.780
 4491POPC   C3B57621  28.866  35.864   7.212
 4491POPC   C4B57622  28.691  35.955   7.628
 4492POPC   NC357623  16.707  20.251   5.381
 4492POPC   PO457624  16.471  19.618   5.362
 4492POPC   GL157625  16.638  19.835   5.697
 4492POPC   GL257626  16.383  20.054   5.765
 4492POPC   C1A57627  16.811  19.878   6.117
 4492POPC   D2A57628  16.767  20.019   6.553
 4492POPC   C3A57629  16.846  19.835   6.998
 4492POPC   C4A57630  16.559  19.542   7.242
 4492POPC   C1B57631  16.211  19.928   6.147
 4492POPC   C2B57632  16.265  20.081   6.550
 4492POPC   C3B57633  16.325  19.874   6.915
 4492POPC   C4B57634  16.468  20.057   7.283
 4493POPC   NC357635  11.996  28.844   5.398
 4493POPC   PO457636  12.354  29.398   5.457
 4493POPC   GL157637  12.202  29.262   5.880
 4493POPC   GL257638  12.164  28.903   5.883
 4493POPC   C1A57639  12.202  29.198   6.355
 4493POPC   D2A57640  12.304  29.236   6.785
 4493POPC   C3A57641  11.956  29.168   7.045
 4493POPC   C4A57642  11.966  29.233   7.472
 4493POPC   C1B57643  12.004  28.737   6.249
 4493POPC   C2B57644  12.114  28.754   6.692
 4493POPC   C3B57645  12.237  28.767   7.131
 4493POPC   C4B57646  12.155  28.776   7.587
 4494POPC   NC357647   8.848  43.030   5.469
 4494POPC   PO457648   9.333  43.366   5.734
 4494POPC   GL157649   8.961  43.232   5.969
 4494POPC   GL257650   8.620  43.026   5.920
 4494POPC   C1A57651   9.140  43.070   6.342
 4494POPC   D2A57652   9.327  43.267   6.687
 4494POPC   C3A57653   9.187  43.087   7.066
 4494POPC   C4A57654   9.189  43.454   7.298
 4494POPC   C1B57655   8.617  43.145   6.349
 4494POPC   C2B57656   8.818  43.250   6.724
 4494POPC   C3B57657   8.711  43.288   7.113
 4494POPC   C4B57658   8.377  43.025   7.085
 4495POPC   NC357659   7.708   2.140   5.299
 4495POPC   PO457660   7.243   1.556   5.312
 4495POPC   GL157661   7.510   1.849   5.695
 4495POPC   GL257662   7.652   2.246   5.792
 4495POPC   C1A57663   7.404   1.931   6.154
 4495POPC   D2A57664   7.620   1.823   6.555
 4495POPC   C3A57665   7.441   1.873   6.971
 4495POPC   C4A57666   7.206   1.865   7.357
 4495POPC   C1B57667   7.511   2.448   6.159
 4495POPC   C2B57668   7.613   2.365   6.550
 4495POPC   C3B57669   7.545   2.502   6.951
 4495POPC   C4B57670   7.531   2.257   7.305
 4496POPC   NC357671  11.280  42.041   5.376
 4496POPC   PO457672  11.098  42.668   5.366
 4496POPC   GL157673  11.315  42.476   5.723
 4496POPC   GL257674  11.622  42.652   5.784
 4496POPC   C1A57675  11.162  42.175   6.076
 4496POPC   D2A57676  10.993  42.061   6.521
 4496POPC   C3A57677  11.152  42.278   6.883
 4496POPC   C4A57678  11.366  42.263   7.254
 4496POPC   C1B57679  11.461  42.555   6.210
 4496POPC   C2B57680  11.485  42.661   6.647
 4496POPC   C3B57681  11.335  42.752   7.053
 4496POPC   C4B57682  11.638  42.676   7.371
 4497POPC   NC357683  23.649  42.861   5.408
 4497POPC   PO457684  23.508  42.250   5.350
 4497POPC   GL157685  23.599  42.340   5.795
 4497POPC   GL257686  23.641  42.701   5.880
 4497POPC   C1A57687  23.570  42.143   6.205
 4497POPC   D2A57688  23.878  42.123   6.512
 4497POPC   C3A57689  23.727  42.170   6.911
 4497POPC   C4A57690  23.914  42.342   7.268
 4497POPC   C1B57691  23.745  42.633   6.280
 4497POPC   C2B57692  23.504  42.519   6.604
 4497POPC   C3B57693  23.613  42.655   7.006
 4497POPC   C4B57694  23.513  42.608   7.438
 4498POPC   NC357695  42.034  41.185   5.447
 4498POPC   PO457696  42.655  41.466   5.511
 4498POPC   GL157697  42.290  41.486   5.806
 4498POPC   GL257698  42.548  41.502   6.017
 4498POPC   C1A57699  42.172  41.717   6.257
 4498POPC   D2A57700  42.549  41.833   6.527
 4498POPC   C3A57701  42.512  41.621   6.918
 4498POPC   C4A57702  42.236  41.691   7.230
 4498POPC   C1B57703  42.269  41.232   6.252
 4498POPC   C2B57704  42.341  41.155   6.655
 4498POPC   C3B57705  42.264  41.181   7.069
 4498POPC   C4B57706  42.466  41.272   7.427
 4499POPC   NC357707  10.042   4.396   5.651
 4499POPC   PO457708   9.542   4.028   5.414
 4499POPC   GL157709   9.642   4.139   5.845
 4499POPC   GL257710   9.916   3.901   5.876
 4499POPC   C1A57711   9.741   4.438   6.204
 4499POPC   D2A57712  10.055   4.562   6.488
 4499POPC   C3A57713   9.925   4.657   6.905
 4499POPC   C4A57714   9.670   4.559   7.253
 4499POPC   C1B57715   9.966   3.982   6.324
 4499POPC   C2B57716   9.802   4.172   6.715
 4499POPC   C3B57717   9.558   4.056   7.075
 4499POPC   C4B57718   9.655   4.074   7.505
 4500POPC   NC357719  36.837  34.107   5.239
 4500POPC   PO457720  37.244  33.754   5.536
 4500POPC   GL157721  37.023  33.986   5.840
 4500POPC   GL257722  36.667  33.914   5.896
 4500POPC   C1A57723  37.092  34.176   6.241
 4500POPC   D2A57724  37.037  33.983   6.651
 4500POPC   C3A57725  37.074  34.119   7.071
 4500POPC   C4A57726  37.220  33.717   7.235
 4500POPC   C1B57727  36.663  33.922   6.294
 4500POPC   C2B57728  36.542  34.119   6.626
 4500POPC   C3B57729  36.611  33.902   6.984
 4500POPC   C4B57730  36.619  34.073   7.362
 4501POPC   NC357731  36.621   4.039   5.592
 4501POPC   PO457732  37.143   3.587   5.519
 4501POPC   GL157733  36.990   3.468   5.907
 4501POPC   GL257734  36.653   3.254   5.956
 4501POPC   C1A57735  37.110   3.586   6.326
 4501POPC   D2A57736  36.848   3.510   6.665
 4501POPC   C3A57737  37.048   3.565   7.002
 4501POPC   C4A57738  37.127   3.422   7.404
 4501POPC   C1B57739  36.616   3.604   6.210
 4501POPC   C2B57740  36.677   3.966   6.479
 4501POPC   C3B57741  36.684   3.972   6.956
 4501POPC   C4B57742  36.614   3.637   7.290
 4502POPC   NC357743   5.354  24.866   5.580
 4502POPC   PO457744   5.439  25.603   5.547
 4502POPC   GL157745   5.211  25.492   5.917
 4502POPC   GL257746   5.061  25.155   5.899
 4502POPC   C1A57747   4.909  25.502   6.267
 4502POPC   D2A57748   4.704  25.612   6.668
 4502POPC   C3A57749   4.941  25.372   6.979
 4502POPC   C4A57750   5.131  25.382   7.381
 4502POPC   C1B57751   5.015  24.968   6.321
 4502POPC   C2B57752   5.282  24.810   6.661
 4502POPC   C3B57753   5.204  24.939   7.086
 4502POPC   C4B57754   4.763  24.906   7.193
 4503POPC   NC357755  18.791   6.352   5.463
 4503POPC   PO457756  18.713   5.605   5.491
 4503POPC   GL157757  18.926   5.734   5.878
 4503POPC   GL257758  18.997   6.079   5.829
 4503POPC   C1A57759  19.243   5.838   6.215
 4503POPC   D2A57760  19.492   5.854   6.573
 4503POPC   C3A57761  19.338   5.634   6.911
 4503POPC   C4A57762  19.327   5.826   7.300
 4503POPC   C1B57763  18.824   6.142   6.222
 4503POPC   C2B57764  18.967   6.059   6.608
 4503POPC   C3B57765  19.156   6.136   6.959
 4503POPC   C4B57766  18.920   6.128   7.286
 4504POPC   NC357767  31.396  31.276   5.669
 4504POPC   PO457768  31.307  30.610   5.428
 4504POPC   GL157769  31.419  30.477   5.821
 4504POPC   GL257770  31.698  30.721   5.850
 4504POPC   C1A57771  31.593  30.355   6.216
 4504POPC   D2A57772  31.802  30.544   6.581
 4504POPC   C3A57773  31.734  30.334   6.976
 4504POPC   C4A57774  31.450  30.519   7.226
 4504POPC   C1B57775  31.470  30.859   6.222
 4504POPC   C2B57776  31.306  31.110   6.584
 4504POPC   C3B57777  31.427  30.979   7.002
 4504POPC   C4B57778  31.740  30.928   7.339
 4505POPC   NC357779  32.977  34.701   5.340
 4505POPC   PO457780  33.359  34.136   5.515
 4505POPC   GL157781  33.048  34.485   5.799
 4505POPC   GL257782  33.089  34.899   5.811
 4505POPC   C1A57783  33.231  34.600   6.187
 4505POPC   D2A57784  33.239  34.421   6.576
 4505POPC   C3A57785  33.170  34.658   6.914
 4505POPC   C4A57786  33.324  34.520   7.315
 4505POPC   C1B57787  32.803  34.884   6.227
 4505POPC   C2B57788  32.581  34.811   6.620
 4505POPC   C3B57789  32.722  34.882   7.027
 4505POPC   C4B57790  32.832  34.663   7.377
 4506POPC   NC357791  32.178  15.024   5.253
 4506POPC   PO457792  32.684  15.456   5.402
 4506POPC   GL157793  32.275  15.343   5.674
 4506POPC   GL257794  32.071  14.975   5.749
 4506POPC   C1A57795  32.283  15.224   6.122
 4506POPC   D2A57796  32.141  15.246   6.527
 4506POPC   C3A57797  32.416  15.148   6.862
 4506POPC   C4A57798  32.266  15.245   7.247
 4506POPC   C1B57799  31.946  14.832   6.190
 4506POPC   C2B57800  31.819  14.845   6.640
 4506POPC   C3B57801  32.019  14.830   7.069
 4506POPC   C4B57802  31.957  14.979   7.541
 4507POPC   NC357803  26.241  24.827   5.218
 4507POPC   PO457804  25.945  25.362   5.487
 4507POPC   GL157805  26.057  25.123   5.826
 4507POPC   GL257806  26.327  24.888   5.739
 4507POPC   C1A57807  25.928  25.210   6.254
 4507POPC   D2A57808  25.926  25.465   6.639
 4507POPC   C3A57809  25.895  25.255   7.027
 4507POPC   C4A57810  26.149  25.399   7.362
 4507POPC   C1B57811  26.229  24.794   6.185
 4507POPC   C2B57812  26.195  24.965   6.649
 4507POPC   C3B57813  26.208  24.849   7.137
 4507POPC   C4B57814  26.140  24.886   7.617
 4508POPC   NC357815  23.213   7.382   5.608
 4508POPC   PO457816  22.734   7.606   5.241
 4508POPC   GL157817  22.625   7.446   5.784
 4508POPC   GL257818  22.599   7.140   5.981
 4508POPC   C1A57819  22.714   7.527   6.289
 4508POPC   D2A57820  22.959   7.532   6.698
 4508POPC   C3A57821  22.756   7.747   7.065
 4508POPC   C4A57822  22.554   7.639   7.450
 4508POPC   C1B57823  23.043   7.157   6.204
 4508POPC   C2B57824  23.319   7.031   6.550
 4508POPC   C3B57825  23.350   6.927   6.974
 4508POPC   C4B57826  23.178   7.130   7.317
 4509POPC   NC357827  12.798  38.850   5.422
 4509POPC   PO457828  12.643  39.450   5.573
 4509POPC   GL157829  12.983  39.357   5.830
 4509POPC   GL257830  12.784  39.095   5.934
 4509POPC   C1A57831  13.068  39.367   6.298
 4509POPC   D2A57832  13.208  39.055   6.663
 4509POPC   C3A57833  13.090  39.210   7.087
 4509POPC   C4A57834  13.213  39.621   7.259
 4509POPC   C1B57835  12.875  38.879   6.303
 4509POPC   C2B57836  12.649  38.810   6.673
 4509POPC   C3B57837  12.659  38.737   7.099
 4509POPC   C4B57838  12.679  38.922   7.488
 4510POPC   NC357839   7.057  33.827   5.392
 4510POPC   PO457840   6.418  33.687   5.445
 4510POPC   GL157841   6.688  33.725   5.784
 4510POPC   GL257842   6.786  34.067   5.796
 4510POPC   C1A57843   6.706  33.535   6.197
 4510POPC   D2A57844   6.728  33.715   6.614
 4510POPC   C3A57845   6.684  33.525   7.004
 4510POPC   C4A57846   6.638  33.654   7.444
 4510POPC   C1B57847   6.503  34.037   6.182
 4510POPC   C2B57848   6.428  34.126   6.642
 4510POPC   C3B57849   6.486  34.005   7.087
 4510POPC   C4B57850   6.309  34.017   7.519
 4511POPC   NC357851  15.028   8.234   5.090
 4511POPC   PO457852  15.586   7.895   5.389
 4511POPC   GL157853  15.401   8.163   5.744
 4511POPC   GL257854  15.044   8.141   5.684
 4511POPC   C1A57855  15.325   8.299   6.183
 4511POPC   D2A57856  15.237   8.092   6.598
 4511POPC   C3A57857  15.223   8.294   6.998
 4511POPC   C4A57858  15.516   8.242   7.326
 4511POPC   C1B57859  14.974   7.898   6.081
 4511POPC   C2B57860  14.759   7.993   6.490
 4511POPC   C3B57861  14.844   7.897   6.913
 4511POPC   C4B57862  14.803   7.983   7.326
 4512POPC   NC357863  16.046   7.728   5.355
 4512POPC   PO457864  15.851   7.062   5.366
 4512POPC   GL157865  15.787   7.322   5.736
 4512POPC   GL257866  16.119   7.425   5.811
 4512POPC   C1A57867  15.697   7.313   6.194
 4512POPC   D2A57868  15.919   7.311   6.613
 4512POPC   C3A57869  15.716   7.323   7.038
 4512POPC   C4A57870  15.837   7.210   7.478
 4512POPC   C1B57871  16.304   7.302   6.220
 4512POPC   C2B57872  16.424   7.478   6.631
 4512POPC   C3B57873  16.266   7.465   7.043
 4512POPC   C4B57874  16.295   7.145   7.304
 4513POPC   NC357875  30.372  21.542   5.565
 4513POPC   PO457876  29.769  21.216   5.463
 4513POPC   GL157877  30.013  21.226   5.809
 4513POPC   GL257878  29.941  21.572   5.881
 4513POPC   C1A57879  29.990  21.190   6.242
 4513POPC   D2A57880  30.192  21.118   6.604
 4513POPC   C3A57881  29.967  21.350   6.873
 4513POPC   C4A57882  29.974  21.260   7.277
 4513POPC   C1B57883  29.955  21.775   6.295
 4513POPC   C2B57884  29.928  21.885   6.756
 4513POPC   C3B57885  30.132  21.751   7.151
 4513POPC   C4B57886  30.343  21.635   7.544
 4514POPC   NC357887  31.623  23.205   5.433
 4514POPC   PO457888  30.974  22.875   5.370
 4514POPC   GL157889  31.223  23.067   5.723
 4514POPC   GL257890  31.453  22.761   5.757
 4514POPC   C1A57891  31.490  23.085   6.135
 4514POPC   D2A57892  31.697  22.880   6.506
 4514POPC   C3A57893  31.431  22.900   6.870
 4514POPC   C4A57894  31.399  23.161   7.237
 4514POPC   C1B57895  31.802  22.592   6.063
 4514POPC   C2B57896  31.960  22.431   6.478
 4514POPC   C3B57897  31.880  22.556   6.920
 4514POPC   C4B57898  31.659  22.706   7.292
 4515POPC   NC357899   9.300  33.543   5.457
 4515POPC   PO457900   8.635  33.445   5.416
 4515POPC   GL157901   8.901  33.570   5.817
 4515POPC   GL257902   9.159  33.846   5.851
 4515POPC   C1A57903   8.912  33.666   6.277
 4515POPC   D2A57904   9.056  33.692   6.709
 4515POPC   C3A57905   8.874  33.627   7.133
 4515POPC   C4A57906   8.840  33.795   7.554
 4515POPC   C1B57907   9.364  33.967   6.253
 4515POPC   C2B57908   9.523  33.892   6.686
 4515POPC   C3B57909   9.282  33.966   7.082
 4515POPC   C4B57910   9.329  33.924   7.529
 4516POPC   NC357911  12.586  19.109   5.201
 4516POPC   PO457912  13.113  18.901   5.426
 4516POPC   GL157913  12.910  19.151   5.797
 4516POPC   GL257914  12.542  19.137   5.814
 4516POPC   C1A57915  12.876  19.130   6.280
 4516POPC   D2A57916  13.112  19.242   6.677
 4516POPC   C3A57917  13.019  19.107   7.119
 4516POPC   C4A57918  12.717  18.878   7.410
 4516POPC   C1B57919  12.550  19.488   6.135
 4516POPC   C2B57920  12.614  19.469   6.613
 4516POPC   C3B57921  12.580  19.368   7.077
 4516POPC   C4B57922  12.677  19.385   7.541
 4517POPC   NC357923  39.225  32.382   5.343
 4517POPC   PO457924  38.909  31.785   5.524
 4517POPC   GL157925  39.080  32.089   5.820
 4517POPC   GL257926  39.453  32.073   5.810
 4517POPC   C1A57927  39.200  32.271   6.228
 4517POPC   D2A57928  39.124  32.517   6.607
 4517POPC   C3A57929  39.320  32.407   6.984
 4517POPC   C4A57930  39.202  32.293   7.387
 4517POPC   C1B57931  39.501  31.865   6.233
 4517POPC   C2B57932  39.313  31.975   6.647
 4517POPC   C3B57933  39.499  31.916   7.039
 4517POPC   C4B57934  39.448  31.875   7.502
 4518POPC   NC357935  23.482  41.867   5.591
 4518POPC   PO457936  23.877  41.324   5.424
 4518POPC   GL157937  23.916  41.537   5.829
 4518POPC   GL257938  23.969  41.907   5.827
 4518POPC   C1A57939  23.784  41.637   6.248
 4518POPC   D2A57940  23.650  41.703   6.671
 4518POPC   C3A57941  23.501  41.366   6.910
 4518POPC   C4A57942  23.366  41.205   7.296
 4518POPC   C1B57943  24.228  41.908   6.214
 4518POPC   C2B57944  24.385  42.014   6.654
 4518POPC   C3B57945  24.165  41.946   7.037
 4518POPC   C4B57946  23.759  41.739   7.173
 4519POPC   NC357947  31.990   7.992   5.277
 4519POPC   PO457948  32.087   8.613   5.054
 4519POPC   GL157949  32.020   8.467   5.545
 4519POPC   GL257950  32.313   8.285   5.681
 4519POPC   C1A57951  31.952   8.435   6.025
 4519POPC   D2A57952  32.052   8.555   6.448
 4519POPC   C3A57953  31.935   8.425   6.874
 4519POPC   C4A57954  31.904   8.301   7.310
 4519POPC   C1B57955  32.414   8.221   6.153
 4519POPC   C2B57956  32.279   8.121   6.601
 4519POPC   C3B57957  32.091   7.918   6.981
 4519POPC   C4B57958  32.260   7.946   7.404
 4520POPC   NC357959  24.569  33.665   5.334
 4520POPC   PO457960  23.916  33.458   5.645
 4520POPC   GL157961  24.296  33.777   5.855
 4520POPC   GL257962  24.649  33.882   5.813
 4520POPC   C1A57963  24.431  34.056   6.275
 4520POPC   D2A57964  24.515  34.171   6.743
 4520POPC   C3A57965  24.375  33.887   7.097
 4520POPC   C4A57966  24.365  33.600   7.491
 4520POPC   C1B57967  24.624  33.594   6.201
 4520POPC   C2B57968  24.668  33.668   6.656
 4520POPC   C3B57969  24.703  33.515   7.086
 4520POPC   C4B57970  24.807  33.847   7.398
 4521POPC   NC357971  24.983   7.123   5.501
 4521POPC   PO457972  25.675   7.219   5.504
 4521POPC   GL157973  25.456   7.208   5.856
 4521POPC   GL257974  25.165   7.398   5.913
 4521POPC   C1A57975  25.514   7.226   6.281
 4521POPC   D2A57976  25.203   7.228   6.593
 4521POPC   C3A57977  25.339   7.264   7.001
 4521POPC   C4A57978  25.646   7.462   7.230
 4521POPC   C1B57979  25.262   7.652   6.269
 4521POPC   C2B57980  25.102   7.758   6.658
 4521POPC   C3B57981  25.262   7.767   7.048
 4521POPC   C4B57982  25.135   7.521   7.394
 4522POPC   NC357983  34.096  22.524   5.598
 4522POPC   PO457984  33.622  22.863   5.320
 4522POPC   GL157985  33.649  22.761   5.749
 4522POPC   GL257986  33.922  23.016   5.769
 4522POPC   C1A57987  33.886  22.688   6.167
 4522POPC   D2A57988  34.089  22.619   6.549
 4522POPC   C3A57989  33.817  22.491   6.872
 4522POPC   C4A57990  33.723  22.721   7.244
 4522POPC   C1B57991  34.053  23.174   6.179
 4522POPC   C2B57992  33.821  23.375   6.495
 4522POPC   C3B57993  33.790  23.287   6.934
 4522POPC   C4B57994  34.058  23.138   7.290
 4523POPC   NC357995  11.386   7.857   5.299
 4523POPC   PO457996  11.064   8.411   5.453
 4523POPC   GL157997  11.240   8.120   5.766
 4523POPC   GL257998  10.964   8.200   5.919
 4523POPC   C1A57999  11.580   8.047   6.150
 4523POPC   D2A58000  11.741   8.244   6.568
 4523POPC   C3A58001  11.529   8.201   6.992
 4523POPC   C4A58002  11.584   7.841   7.269
 4523POPC   C1B58003  11.182   8.347   6.247
 4523POPC   C2B58004  11.267   8.480   6.638
 4523POPC   C3B58005  11.047   8.423   7.026
 4523POPC   C4B58006  11.091   8.208   7.403
 4524POPC   NC358007  34.704   5.287   5.228
 4524POPC   PO458008  34.476   4.680   5.411
 4524POPC   GL158009  34.636   5.000   5.719
 4524POPC   GL258010  34.499   5.296   5.768
 4524POPC   C1A58011  34.757   5.062   6.182
 4524POPC   D2A58012  34.672   5.211   6.618
 4524POPC   C3A58013  34.742   4.903   6.939
 4524POPC   C4A58014  34.804   4.888   7.363
 4524POPC   C1B58015  34.266   5.013   6.067
 4524POPC   C2B58016  34.073   5.091   6.452
 4524POPC   C3B58017  34.226   5.079   6.869
 4524POPC   C4B58018  34.314   5.025   7.261
 4525POPC   NC358019  36.725  16.007   5.380
 4525POPC   PO458020  37.312  15.752   5.564
 4525POPC   GL158021  36.974  15.833   5.850
 4525POPC   GL258022  36.768  16.126   5.865
 4525POPC   C1A58023  37.082  15.980   6.258
 4525POPC   D2A58024  37.145  16.318   6.535
 4525POPC   C3A58025  37.157  16.040   6.887
 4525POPC   C4A58026  37.025  15.930   7.277
 4525POPC   C1B58027  36.707  16.319   6.242
 4525POPC   C2B58028  36.681  16.154   6.672
 4525POPC   C3B58029  36.803  16.344   7.061
 4525POPC   C4B58030  36.645  16.283   7.475
 4526POPC   NC358031  13.305  21.765   5.511
 4526POPC   PO458032  12.816  21.254   5.356
 4526POPC   GL158033  12.996  21.256   5.740
 4526POPC   GL258034  13.177  20.919   5.748
 4526POPC   C1A58035  12.892  21.470   6.158
 4526POPC   D2A58036  13.124  21.357   6.548
 4526POPC   C3A58037  12.851  21.355   6.883
 4526POPC   C4A58038  12.789  21.502   7.269
 4526POPC   C1B58039  12.931  20.954   6.151
 4526POPC   C2B58040  12.857  20.898   6.580
 4526POPC   C3B58041  12.879  20.860   7.000
 4526POPC   C4B58042  12.605  21.015   7.301
 4527POPC   NC358043   4.428  35.935   5.413
 4527POPC   PO458044   4.028  36.289   5.694
 4527POPC   GL158045   4.366  36.155   5.893
 4527POPC   GL258046   4.711  36.201   5.765
 4527POPC   C1A58047   4.242  35.889   6.204
 4527POPC   D2A58048   3.948  35.983   6.520
 4527POPC   C3A58049   4.105  36.067   6.923
 4527POPC   C4A58050   4.332  35.877   7.245
 4527POPC   C1B58051   4.743  36.274   6.209
 4527POPC   C2B58052   4.466  36.219   6.547
 4527POPC   C3B58053   4.606  36.252   6.954
 4527POPC   C4B58054   4.427  36.356   7.295
 4528POPC   NC358055  16.105  19.915   5.358
 4528POPC   PO458056  15.466  19.743   5.295
 4528POPC   GL158057  15.709  19.711   5.701
 4528POPC   GL258058  15.857  20.045   5.787
 4528POPC   C1A58059  15.789  19.507   6.140
 4528POPC   D2A58060  15.939  19.655   6.561
 4528POPC   C3A58061  15.741  19.623   6.989
 4528POPC   C4A58062  16.026  19.768   7.351
 4528POPC   C1B58063  15.681  19.996   6.204
 4528POPC   C2B58064  15.775  20.135   6.612
 4528POPC   C3B58065  15.875  20.110   7.012
 4528POPC   C4B58066  15.671  20.168   7.395
 4529POPC   NC358067  36.409   8.989   5.392
 4529POPC   PO458068  37.064   8.784   5.431
 4529POPC   GL158069  36.978   8.726   5.858
 4529POPC   GL258070  36.952   9.087   5.971
 4529POPC   C1A58071  36.949   8.681   6.306
 4529POPC   D2A58072  36.925   9.003   6.619
 4529POPC   C3A58073  36.946   8.924   7.038
 4529POPC   C4A58074  37.240   8.666   7.223
 4529POPC   C1B58075  36.706   9.350   6.306
 4529POPC   C2B58076  36.539   9.321   6.752
 4529POPC   C3B58077  36.508   9.170   7.180
 4529POPC   C4B58078  36.658   9.330   7.634
 4530POPC   NC358079  42.383  32.021   5.505
 4530POPC   PO458080  42.021  32.578   5.330
 4530POPC   GL158081  42.228  32.493   5.729
 4530POPC   GL258082  42.585  32.545   5.788
 4530POPC   C1A58083  42.229  32.674   6.155
 4530POPC   D2A58084  42.456  32.697   6.543
 4530POPC   C3A58085  42.301  32.462   6.914
 4530POPC   C4A58086  42.307  32.282   7.361
 4530POPC   C1B58087  42.482  32.245   6.188
 4530POPC   C2B58088  42.559  31.993   6.572
 4530POPC   C3B58089  42.544  32.025   7.008
 4530POPC   C4B58090  42.757  31.907   7.384
 4531POPC   NC358091  10.366  27.417   5.498
 4531POPC   PO458092  10.801  27.753   5.138
 4531POPC   GL158093  10.706  27.714   5.692
 4531POPC   GL258094  10.658  27.388   5.923
 4531POPC   C1A58095  10.388  27.753   6.106
 4531POPC   D2A58096  10.505  27.544   6.501
 4531POPC   C3A58097  10.434  27.576   6.952
 4531POPC   C4A58098  10.548  27.363   7.312
 4531POPC   C1B58099  10.909  27.307   6.282
 4531POPC   C2B58100  10.847  27.151   6.695
 4531POPC   C3B58101  10.966  27.048   7.108
 4531POPC   C4B58102  11.019  27.252   7.488
 4532POPC   NC358103  39.893  28.239   5.327
 4532POPC   PO458104  40.301  28.795   5.234
 4532POPC   GL158105  40.139  28.587   5.663
 4532POPC   GL258106  39.769  28.503   5.743
 4532POPC   C1A58107  40.140  28.350   6.088
 4532POPC   D2A58108  40.023  28.221   6.524
 4532POPC   C3A58109  40.249  28.235   6.922
 4532POPC   C4A58110  39.981  28.246   7.273
 4532POPC   C1B58111  39.582  28.630   6.131
 4532POPC   C2B58112  39.755  28.683   6.502
 4532POPC   C3B58113  39.836  28.562   6.900
 4532POPC   C4B58114  39.995  28.758   7.281
 4533POPC   NC358115  26.305  15.892   5.040
 4533POPC   PO458116  26.609  15.491   5.528
 4533POPC   GL158117  26.601  15.895   5.800
 4533POPC   GL258118  26.744  16.251   5.766
 4533POPC   C1A58119  26.850  15.936   6.199
 4533POPC   D2A58120  26.917  15.644   6.552
 4533POPC   C3A58121  26.709  15.802   6.914
 4533POPC   C4A58122  26.813  15.928   7.299
 4533POPC   C1B58123  27.110  16.369   6.040
 4533POPC   C2B58124  27.134  16.312   6.483
 4533POPC   C3B58125  26.840  16.310   6.828
 4533POPC   C4B58126  26.927  16.420   7.261
 4534POPC   NC358127  27.704  12.334   5.470
 4534POPC   PO458128  27.235  12.884   5.495
 4534POPC   GL158129  27.505  12.655   5.817
 4534POPC   GL258130  27.209  12.490   5.921
 4534POPC   C1A58131  27.803  12.718   6.211
 4534POPC   D2A58132  27.658  12.973   6.610
 4534POPC   C3A58133  27.591  12.845   7.072
 4534POPC   C4A58134  27.599  12.742   7.565
 4534POPC   C1B58135  27.316  12.712   6.302
 4534POPC   C2B58136  27.445  12.506   6.675
 4534POPC   C3B58137  27.152  12.518   6.960
 4534POPC   C4B58138  27.089  12.910   7.097
 4535POPC   NC358139  25.571  25.064   5.589
 4535POPC   PO458140  25.136  25.557   5.510
 4535POPC   GL158141  25.294  25.504   5.889
 4535POPC   GL258142  25.653  25.562   5.857
 4535POPC   C1A58143  25.261  25.205   6.242
 4535POPC   D2A58144  25.547  25.056   6.564
 4535POPC   C3A58145  25.350  24.979   6.965
 4535POPC   C4A58146  24.981  25.189   7.193
 4535POPC   C1B58147  25.575  25.607   6.294
 4535POPC   C2B58148  25.378  25.519   6.683
 4535POPC   C3B58149  25.417  25.455   7.112
 4535POPC   C4B58150  25.594  25.658   7.422
 4536POPC   NC358151  12.061  27.843   5.244
 4536POPC   PO458152  12.269  28.467   5.380
 4536POPC   GL158153  12.162  28.368   5.819
 4536POPC   GL258154  11.906  28.101   5.809
 4536POPC   C1A58155  12.112  28.230   6.264
 4536POPC   D2A58156  11.965  28.063   6.636
 4536POPC   C3A58157  12.023  28.323   6.985
 4536POPC   C4A58158  12.338  28.304   7.328
 4536POPC   C1B58159  11.640  28.041   6.207
 4536POPC   C2B58160  11.472  27.926   6.639
 4536POPC   C3B58161  11.645  27.966   7.044
 4536POPC   C4B58162  11.993  27.898   7.317
 4537POPC   NC358163  20.407  17.488   5.769
 4537POPC   PO458164  19.849  17.321   5.351
 4537POPC   GL158165  19.861  17.467   5.793
 4537POPC   GL258166  19.959  17.787   5.890
 4537POPC   C1A58167  19.887  17.454   6.267
 4537POPC   D2A58168  20.109  17.503   6.678
 4537POPC   C3A58169  19.826  17.518   7.027
 4537POPC   C4A58170  19.469  17.311   7.222
 4537POPC   C1B58171  20.253  17.826   6.280
 4537POPC   C2B58172  20.508  17.856   6.663
 4537POPC   C3B58173  20.233  17.878   7.029
 4537POPC   C4B58174  20.213  17.765   7.452
 4538POPC   NC358175  38.561  27.434   5.237
 4538POPC   PO458176  38.119  27.601   5.705
 4538POPC   GL158177  38.511  27.695   5.857
 4538POPC   GL258178  38.751  27.470   5.728
 4538POPC   C1A58179  38.514  27.820   6.290
 4538POPC   D2A58180  38.619  27.978   6.710
 4538POPC   C3A58181  38.298  28.025   7.045
 4538POPC   C4A58182  38.577  27.815   7.281
 4538POPC   C1B58183  38.636  27.254   6.103
 4538POPC   C2B58184  38.649  27.385   6.526
 4538POPC   C3B58185  38.378  27.523   6.860
 4538POPC   C4B58186  38.336  27.348   7.266
 4539POPC   NC358187  31.749  30.426   5.424
 4539POPC   PO458188  32.166  31.039   5.425
 4539POPC   GL158189  32.209  30.820   5.819
 4539POPC   GL258190  32.288  30.468   5.916
 4539POPC   C1A58191  32.061  30.848   6.236
 4539POPC   D2A58192  32.317  30.842   6.598
 4539POPC   C3A58193  32.234  31.065   6.977
 4539POPC   C4A58194  32.441  31.051   7.375
 4539POPC   C1B58195  32.230  30.353   6.366
 4539POPC   C2B58196  32.246  30.381   6.808
 4539POPC   C3B58197  32.129  30.625   7.182
 4539POPC   C4B58198  31.867  30.442   7.509
 4540POPC   NC358199  35.257  33.469   5.534
 4540POPC   PO458200  35.740  33.925   5.428
 4540POPC   GL158201  35.413  33.940   5.772
 4540POPC   GL258202  35.427  33.628   5.970
 4540POPC   C1A58203  35.188  34.009   6.195
 4540POPC   D2A58204  35.017  33.812   6.581
 4540POPC   C3A58205  35.201  33.895   6.973
 4540POPC   C4A58206  35.299  34.128   7.337
 4540POPC   C1B58207  35.202  33.423   6.297
 4540POPC   C2B58208  35.297  33.328   6.742
 4540POPC   C3B58209  35.272  33.420   7.191
 4540POPC   C4B58210  35.296  33.665   7.568
 4541POPC   NC358211  41.677  40.694   5.234
 4541POPC   PO458212  41.682  39.987   5.443
 4541POPC   GL158213  41.655  40.158   5.835
 4541POPC   GL258214  41.774  39.900   6.026
 4541POPC   C1A58215  41.847  40.368   6.217
 4541POPC   D2A58216  41.826  40.226   6.619
 4541POPC   C3A58217  41.562  39.974   6.868
 4541POPC   C4A58218  41.640  39.994   7.286
 4541POPC   C1B58219  41.470  39.954   6.321
 4541POPC   C2B58220  41.265  39.671   6.590
 4541POPC   C3B58221  41.153  39.613   7.031
 4541POPC   C4B58222  41.217  39.786   7.459
 4542POPC   NC358223  20.490   3.891   5.273
 4542POPC   PO458224  20.755   4.602   5.627
 4542POPC   GL158225  20.531   4.327   5.919
 4542POPC   GL258226  20.428   3.967   5.775
 4542POPC   C1A58227  20.609   4.379   6.358
 4542POPC   D2A58228  20.988   4.367   6.625
 4542POPC   C3A58229  20.876   4.371   7.069
 4542POPC   C4A58230  20.526   4.319   7.366
 4542POPC   C1B58231  20.385   3.838   6.172
 4542POPC   C2B58232  20.282   4.025   6.538
 4542POPC   C3B58233  20.530   4.063   6.867
 4542POPC   C4B58234  20.350   3.815   7.153
 4543POPC   NC358235  20.146   1.887   5.399
 4543POPC   PO458236  20.814   1.907   5.369
 4543POPC   GL158237  20.640   2.126   5.749
 4543POPC   GL258238  20.498   1.839   5.833
 4543POPC   C1A58239  20.465   2.205   6.196
 4543POPC   D2A58240  20.690   2.213   6.600
 4543POPC   C3A58241  20.608   2.066   7.030
 4543POPC   C4A58242  20.614   2.247   7.455
 4543POPC   C1B58243  20.493   1.662   6.240
 4543POPC   C2B58244  20.434   1.739   6.643
 4543POPC   C3B58245  20.382   1.533   7.010
 4543POPC   C4B58246  20.362   1.755   7.403
 4544POPC   NC358247  41.525  21.133   5.355
 4544POPC   PO458248  40.925  21.427   5.485
 4544POPC   GL158249  41.293  21.426   5.745
 4544POPC   GL258250  41.247  21.078   5.812
 4544POPC   C1A58251  41.516  21.325   6.181
 4544POPC   D2A58252  41.487  21.098   6.605
 4544POPC   C3A58253  41.688  21.231   7.010
 4544POPC   C4A58254  41.939  21.014   7.316
 4544POPC   C1B58255  40.970  21.343   6.127
 4544POPC   C2B58256  40.834  21.323   6.551
 4544POPC   C3B58257  41.095  21.325   6.893
 4544POPC   C4B58258  41.342  21.572   7.191
 4545POPC   NC358259  10.419   6.238   5.677
 4545POPC   PO458260  10.400   5.645   5.366
 4545POPC   GL158261  10.457   5.726   5.801
 4545POPC   GL258262  10.116   5.844   5.835
 4545POPC   C1A58263  10.558   5.807   6.247
 4545POPC   D2A58264  10.813   5.786   6.622
 4545POPC   C3A58265  10.604   5.867   6.988
 4545POPC   C4A58266  10.709   5.709   7.373
 4545POPC   C1B58267  10.119   5.553   6.212
 4545POPC   C2B58268  10.304   5.493   6.637
 4545POPC   C3B58269  10.189   5.586   7.104
 4545POPC   C4B58270  10.225   5.745   7.528
 4546POPC   NC358271  12.171  39.607   5.606
 4546POPC   PO458272  11.711  39.126   5.409
 4546POPC   GL158273  12.049  39.122   5.757
 4546POPC   GL258274  12.349  38.913   5.700
 4546POPC   C1A58275  12.270  39.254   6.165
 4546POPC   D2A58276  12.313  39.516   6.559
 4546POPC   C3A58277  12.179  39.318   6.956
 4546POPC   C4A58278  12.317  39.291   7.398
 4546POPC   C1B58279  12.395  38.758   6.138
 4546POPC   C2B58280  12.136  38.838   6.511
 4546POPC   C3B58281  12.168  38.761   6.964
 4546POPC   C4B58282  12.171  38.819   7.411
 4547POPC   NC358283  32.514  42.118   5.249
 4547POPC   PO458284  32.294  42.740   5.360
 4547POPC   GL158285  32.407  42.547   5.765
 4547POPC   GL258286  32.373  42.174   5.742
 4547POPC   C1A58287  32.282  42.416   6.210
 4547POPC   D2A58288  32.085  42.176   6.561
 4547POPC   C3A58289  32.097  42.396   6.954
 4547POPC   C4A58290  32.346  42.539   7.288
 4547POPC   C1B58291  32.527  41.957   6.123
 4547POPC   C2B58292  32.646  41.939   6.549
 4547POPC   C3B58293  32.582  42.219   6.892
 4547POPC   C4B58294  32.363  42.015   7.207
 4548POPC   NC358295  26.570  28.368   5.583
 4548POPC   PO458296  27.158  28.662   5.465
 4548POPC   GL158297  27.021  28.462   5.835
 4548POPC   GL258298  27.000  28.139   5.779
 4548POPC   C1A58299  26.875  28.401   6.256
 4548POPC   D2A58300  27.015  28.574   6.647
 4548POPC   C3A58301  26.799  28.504   7.029
 4548POPC   C4A58302  27.017  28.473   7.419
 4548POPC   C1B58303  26.997  27.900   6.145
 4548POPC   C2B58304  26.819  27.763   6.532
 4548POPC   C3B58305  26.883  27.966   6.922
 4548POPC   C4B58306  26.635  28.084   7.260
 4549POPC   NC358307  33.067   0.961   5.146
 4549POPC   PO458308  33.091   0.276   5.266
 4549POPC   GL158309  33.105   0.237   5.708
 4549POPC   GL258310  33.179   0.546   5.808
 4549POPC   C1A58311  33.147   0.177   6.179
 4549POPC   D2A58312  32.880   0.144   6.567
 4549POPC   C3A58313  33.139   0.112   6.903
 4549POPC   C4A58314  33.263   0.270   7.281
 4549POPC   C1B58315  33.137   0.782   6.205
 4549POPC   C2B58316  33.096   0.597   6.606
 4549POPC   C3B58317  32.923   0.552   7.008
 4549POPC   C4B58318  33.164   0.761   7.317
 4550POPC   NC358319   0.862  39.444   5.343
 4550POPC   PO458320   1.459  39.040   5.303
 4550POPC   GL158321   1.487  39.244   5.761
 4550POPC   GL258322   1.522  39.626   5.727
 4550POPC   C1A58323   1.223  39.430   6.114
 4550POPC   D2A58324   0.967  39.316   6.474
 4550POPC   C3A58325   1.138  39.383   6.877
 4550POPC   C4A58326   1.388  39.106   7.115
 4550POPC   C1B58327   1.705  39.579   6.155
 4550POPC   C2B58328   1.623  39.447   6.586
 4550POPC   C3B58329   1.602  39.582   7.026
 4550POPC   C4B58330   1.585  39.402   7.468
 4551POPC   NC358331  15.346   2.823   5.485
 4551POPC   PO458332  14.844   2.565   5.206
 4551POPC   GL158333  14.857   2.820   5.707
 4551POPC   GL258334  15.083   2.680   5.935
 4551POPC   C1A58335  14.885   3.049   6.185
 4551POPC   D2A58336  15.083   2.789   6.563
 4551POPC   C3A58337  15.146   2.746   7.034
 4551POPC   C4A58338  14.936   2.744   7.462
 4551POPC   C1B58339  15.354   2.498   6.236
 4551POPC   C2B58340  15.474   2.420   6.636
 4551POPC   C3B58341  15.479   2.309   7.046
 4551POPC   C4B58342  15.394   2.463   7.443
 4552POPC   NC358343  28.489  23.867   5.505
 4552POPC   PO458344  27.788  23.904   5.562
 4552POPC   GL158345  28.126  23.912   5.863
 4552POPC   GL258346  28.234  23.603   5.933
 4552POPC   C1A58347  28.422  23.944   6.233
 4552POPC   D2A58348  28.347  23.785   6.630
 4552POPC   C3A58349  28.542  23.906   6.978
 4552POPC   C4A58350  28.352  23.835   7.363
 4552POPC   C1B58351  28.511  23.421   6.289
 4552POPC   C2B58352  28.672  23.301   6.734
 4552POPC   C3B58353  28.637  23.448   7.202
 4552POPC   C4B58354  28.661  23.241   7.656
 4553POPC   NC358355   5.696  20.230   5.484
 4553POPC   PO458356   5.584  19.520   5.372
 4553POPC   GL158357   5.737  19.685   5.746
 4553POPC   GL258358   6.046  19.582   5.879
 4553POPC   C1A58359   5.609  19.789   6.167
 4553POPC   D2A58360   5.736  19.746   6.593
 4553POPC   C3A58361   5.607  20.072   6.842
 4553POPC   C4A58362   5.595  20.177   7.259
 4553POPC   C1B58363   6.124  19.857   6.241
 4553POPC   C2B58364   6.228  19.945   6.708
 4553POPC   C3B58365   5.988  19.842   7.093
 4553POPC   C4B58366   5.983  19.604   7.487
 4554POPC   NC358367  15.851  10.247   5.486
 4554POPC   PO458368  15.980   9.564   5.453
 4554POPC   GL158369  15.832   9.799   5.805
 4554POPC   GL258370  15.564   9.603   5.896
 4554POPC   C1A58371  15.736   9.990   6.226
 4554POPC   D2A58372  15.708   9.778   6.620
 4554POPC   C3A58373  16.028   9.763   6.946
 4554POPC   C4A58374  16.197   9.712   7.365
 4554POPC   C1B58375  15.460   9.375   6.275
 4554POPC   C2B58376  15.600   9.274   6.724
 4554POPC   C3B58377  15.567   9.561   7.061
 4554POPC   C4B58378  15.702   9.780   7.412
 4555POPC   NC358379  23.042  43.799   5.446
 4555POPC   PO458380  22.509  44.305   5.479
 4555POPC   GL158381  22.739  44.012   5.800
 4555POPC   GL258382  23.105  44.048   5.900
 4555POPC   C1A58383  22.813  43.720   6.156
 4555POPC   D2A58384  23.143  43.885   6.425
 4555POPC   C3A58385  23.086  43.821   6.841
 4555POPC   C4A58386  22.822  43.630   7.078
 4555POPC   C1B58387  23.280  44.377   6.177
 4555POPC   C2B58388  23.370  44.336   6.605
 4555POPC   C3B58389  23.033  44.336   6.902
 4555POPC   C4B58390  22.826  44.122   7.244
 4556POPC   NC358391  42.778  21.750   5.812
 4556POPC   PO458392  42.899  21.210   5.398
 4556POPC   GL158393  42.939  21.249   5.818
 4556POPC   GL258394  42.740  20.956   5.855
 4556POPC   C1A58395  43.177  21.298   6.209
 4556POPC   D2A58396  43.140  21.154   6.648
 4556POPC   C3A58397  43.148  21.541   6.899
 4556POPC   C4A58398  43.220  21.727   7.307
 4556POPC   C1B58399  42.673  21.167   6.264
 4556POPC   C2B58400  42.654  21.342   6.701
 4556POPC   C3B58401  42.836  21.184   7.095
 4556POPC   C4B58402  43.283  21.211   7.253
 4557POPC   NC358403   8.373  18.740   5.476
 4557POPC   PO458404   7.907  19.166   5.368
 4557POPC   GL158405   8.072  19.004   5.776
 4557POPC   GL258406   8.376  19.214   5.810
 4557POPC   C1A58407   8.262  18.838   6.171
 4557POPC   D2A58408   8.393  18.977   6.599
 4557POPC   C3A58409   8.071  18.818   6.866
 4557POPC   C4A58410   8.017  18.697   7.300
 4557POPC   C1B58411   8.306  19.358   6.242
 4557POPC   C2B58412   8.046  19.429   6.609
 4557POPC   C3B58413   8.091  19.287   7.018
 4557POPC   C4B58414   8.455  19.258   7.206
 4558POPC   NC358415   9.203   2.259   5.315
 4558POPC   PO458416   8.878   1.668   5.314
 4558POPC   GL158417   9.096   1.906   5.677
 4558POPC   GL258418   9.040   1.614   5.835
 4558POPC   C1A58419   8.981   2.092   6.126
 4558POPC   D2A58420   9.178   2.167   6.549
 4558POPC   C3A58421   9.007   1.995   6.929
 4558POPC   C4A58422   9.170   2.080   7.356
 4558POPC   C1B58423   8.812   1.576   6.223
 4558POPC   C2B58424   8.661   1.707   6.618
 4558POPC   C3B58425   8.775   1.512   6.986
 4558POPC   C4B58426   9.008   1.619   7.293
 4559POPC   NC358427  39.408   4.893   5.402
 4559POPC   PO458428  39.034   5.458   5.381
 4559POPC   GL158429  39.169   5.216   5.745
 4559POPC   GL258430  39.113   4.865   5.837
 4559POPC   C1A58431  39.388   5.165   6.165
 4559POPC   D2A58432  39.587   5.262   6.574
 4559POPC   C3A58433  39.376   5.137   6.944
 4559POPC   C4A58434  39.328   5.348   7.335
 4559POPC   C1B58435  38.878   5.163   6.154
 4559POPC   C2B58436  39.059   5.402   6.527
 4559POPC   C3B58437  38.943   5.383   6.963
 4559POPC   C4B58438  38.939   5.035   7.229
 4560POPC   NC358439  32.890   6.848   5.533
 4560POPC   PO458440  33.302   6.401   5.354
 4560POPC   GL158441  33.206   6.419   5.804
 4560POPC   GL258442  33.271   6.770   5.896
 4560POPC   C1A58443  33.165   6.442   6.273
 4560POPC   D2A58444  32.955   6.758   6.566
 4560POPC   C3A58445  32.854   6.766   7.016
 4560POPC   C4A58446  32.898   6.769   7.473
 4560POPC   C1B58447  33.456   6.927   6.303
 4560POPC   C2B58448  33.362   7.043   6.752
 4560POPC   C3B58449  33.290   6.995   7.214
 4560POPC   C4B58450  33.404   7.062   7.656
 4561POPC   NC358451  39.483   2.956   5.395
 4561POPC   PO458452  39.048   2.462   5.437
 4561POPC   GL158453  39.191   2.740   5.775
 4561POPC   GL258454  39.191   3.100   5.808
 4561POPC   C1A58455  39.369   2.784   6.191
 4561POPC   D2A58456  39.186   2.694   6.586
 4561POPC   C3A58457  39.427   2.603   6.947
 4561POPC   C4A58458  39.244   2.562   7.301
 4561POPC   C1B58459  39.241   3.310   6.213
 4561POPC   C2B58460  39.570   3.213   6.517
 4561POPC   C3B58461  39.655   3.107   6.948
 4561POPC   C4B58462  39.472   3.027   7.342
 4562POPC   NC358463  11.186  12.477   5.293
 4562POPC   PO458464  11.826  12.427   5.543
 4562POPC   GL158465  11.467  12.619   5.710
 4562POPC   GL258466  11.409  12.986   5.714
 4562POPC   C1A58467  11.234  12.624   6.074
 4562POPC   D2A58468  11.261  12.820   6.464
 4562POPC   C3A58469  11.473  12.645   6.824
 4562POPC   C4A58470  11.224  12.661   7.180
 4562POPC   C1B58471  11.613  13.029   6.121
 4562POPC   C2B58472  11.665  13.170   6.564
 4562POPC   C3B58473  11.680  13.068   7.025
 4562POPC   C4B58474  11.585  13.084   7.487
 4563POPC   NC358475   1.444   5.861   5.596
 4563POPC   PO458476   1.010   6.316   5.472
 4563POPC   GL158477   0.971   6.038   5.827
 4563POPC   GL258478   0.977   5.684   5.752
 4563POPC   C1A58479   1.065   6.139   6.238
 4563POPC   D2A58480   1.347   6.184   6.566
 4563POPC   C3A58481   1.113   6.070   6.932
 4563POPC   C4A58482   1.189   6.056   7.380
 4563POPC   C1B58483   0.793   5.579   6.134
 4563POPC   C2B58484   0.924   5.754   6.539
 4563POPC   C3B58485   0.965   5.584   6.953
 4563POPC   C4B58486   0.752   5.706   7.332
 4564POPC   NC358487  17.852  22.597   5.352
 4564POPC   PO458488  17.477  23.232   5.492
 4564POPC   GL158489  17.583  23.196   5.921
 4564POPC   GL258490  17.409  22.874   5.890
 4564POPC   C1A58491  17.775  23.189   6.348
 4564POPC   D2A58492  17.820  22.834   6.658
 4564POPC   C3A58493  17.855  22.964   7.042
 4564POPC   C4A58494  17.577  23.167   7.252
 4564POPC   C1B58495  17.406  22.816   6.327
 4564POPC   C2B58496  17.305  22.941   6.751
 4564POPC   C3B58497  17.382  22.712   7.108
 4564POPC   C4B58498  17.236  22.627   7.516
 4565POPC   NC358499  12.505  35.584   5.284
 4565POPC   PO458500  11.870  35.284   5.512
 4565POPC   GL158501  12.171  35.359   5.841
 4565POPC   GL258502  12.343  35.646   5.754
 4565POPC   C1A58503  12.388  35.339   6.262
 4565POPC   D2A58504  12.395  35.378   6.726
 4565POPC   C3A58505  11.978  35.445   6.900
 4565POPC   C4A58506  11.835  35.350   7.323
 4565POPC   C1B58507  12.296  35.825   6.132
 4565POPC   C2B58508  12.164  35.782   6.518
 4565POPC   C3B58509  12.239  35.892   6.925
 4565POPC   C4B58510  12.207  35.683   7.287
 4566POPC   NC358511  41.720  44.968   5.362
 4566POPC   PO458512  41.785   0.575   5.558
 4566POPC   GL158513  41.744   0.384   5.952
 4566POPC   GL258514  41.500   0.180   5.814
 4566POPC   C1A58515  41.553   0.368   6.360
 4566POPC   D2A58516  41.268   0.584   6.649
 4566POPC   C3A58517  41.474   0.623   7.029
 4566POPC   C4A58518  41.846   0.520   7.270
 4566POPC   C1B58519  41.236  44.975   6.129
 4566POPC   C2B58520  41.141   0.088   6.532
 4566POPC   C3B58521  41.288   0.146   6.938
 4566POPC   C4B58522  41.136   0.377   7.310
 4567POPC   NC358523  36.631  22.917   5.317
 4567POPC   PO458524  37.258  23.113   5.395
 4567POPC   GL158525  37.014  22.828   5.721
 4567POPC   GL258526  36.620  22.837   5.813
 4567POPC   C1A58527  36.981  22.756   6.188
 4567POPC   D2A58528  37.094  22.635   6.630
 4567POPC   C3A58529  37.050  22.983   6.924
 4567POPC   C4A58530  37.061  22.857   7.363
 4567POPC   C1B58531  36.403  22.708   6.181
 4567POPC   C2B58532  36.578  22.650   6.598
 4567POPC   C3B58533  36.744  22.602   7.037
 4567POPC   C4B58534  36.558  22.830   7.414
 4568POPC   NC358535  36.336  28.913   5.359
 4568POPC   PO458536  35.985  29.509   5.178
 4568POPC   GL158537  36.048  29.221   5.705
 4568POPC   GL258538  35.759  29.182   5.900
 4568POPC   C1A58539  36.228  29.019   6.086
 4568POPC   D2A58540  36.415  29.001   6.501
 4568POPC   C3A58541  36.235  29.055   6.933
 4568POPC   C4A58542  36.382  29.394   7.246
 4568POPC   C1B58543  35.871  29.237   6.366
 4568POPC   C2B58544  35.810  29.317   6.789
 4568POPC   C3B58545  35.872  29.379   7.203
 4568POPC   C4B58546  35.634  29.255   7.543
 4569POPC   NC358547  37.458  41.150   5.398
 4569POPC   PO458548  37.866  40.599   5.474
 4569POPC   GL158549  37.863  40.832   5.867
 4569POPC   GL258550  37.535  40.871   5.855
 4569POPC   C1A58551  37.951  40.997   6.289
 4569POPC   D2A58552  37.732  40.965   6.669
 4569POPC   C3A58553  37.847  40.949   7.098
 4569POPC   C4A58554  37.693  40.592   7.341
 4569POPC   C1B58555  37.545  40.645   6.275
 4569POPC   C2B58556  37.357  40.618   6.713
 4569POPC   C3B58557  37.317  40.859   7.104
 4569POPC   C4B58558  37.178  40.785   7.545
 4570POPC   NC358559  42.597  16.531   5.034
 4570POPC   PO458560  42.677  16.988   5.569
 4570POPC   GL158561  42.259  16.844   5.814
 4570POPC   GL258562  42.205  16.475   5.923
 4570POPC   C1A58563  42.077  16.841   6.258
 4570POPC   D2A58564  42.309  16.658   6.631
 4570POPC   C3A58565  42.272  16.763   7.092
 4570POPC   C4A58566  41.964  16.743   7.438
 4570POPC   C1B58567  42.551  16.430   6.203
 4570POPC   C2B58568  42.782  16.455   6.600
 4570POPC   C3B58569  42.670  16.444   7.026
 4570POPC   C4B58570  42.459  16.445   7.446
 4571POPC   NC358571  22.160  10.260   5.442
 4571POPC   PO458572  22.602  10.773   5.477
 4571POPC   GL158573  22.384  10.737   5.883
 4571POPC   GL258574  22.087  10.537   5.859
 4571POPC   C1A58575  22.270  10.587   6.326
 4571POPC   D2A58576  22.005  10.388   6.696
 4571POPC   C3A58577  22.151  10.636   7.081
 4571POPC   C4A58578  22.601  10.757   7.183
 4571POPC   C1B58579  21.914  10.232   6.161
 4571POPC   C2B58580  22.064   9.906   6.440
 4571POPC   C3B58581  22.115   9.916   6.881
 4571POPC   C4B58582  22.066  10.171   7.257
 4572POPC   NC358583  29.461  38.587   5.502
 4572POPC   PO458584  28.836  38.682   5.346
 4572POPC   GL158585  28.982  38.575   5.772
 4572POPC   GL258586  29.289  38.651   5.969
 4572POPC   C1A58587  28.826  38.505   6.200
 4572POPC   D2A58588  28.742  38.221   6.577
 4572POPC   C3A58589  28.955  38.344   6.968
 4572POPC   C4A58590  28.996  38.688   7.219
 4572POPC   C1B58591  29.458  38.454   6.346
 4572POPC   C2B58592  29.429  38.527   6.810
 4572POPC   C3B58593  29.433  38.306   7.190
 4572POPC   C4B58594  29.575  38.120   7.614
 4573POPC   NC358595  30.388  22.432   5.535
 4573POPC   PO458596  30.957  21.986   5.642
 4573POPC   GL158597  30.625  22.119   5.861
 4573POPC   GL258598  30.524  22.456   6.019
 4573POPC   C1A58599  30.455  21.934   6.203
 4573POPC   D2A58600  30.448  22.127   6.586
 4573POPC   C3A58601  30.590  21.906   6.933
 4573POPC   C4A58602  30.618  21.994   7.348
 4573POPC   C1B58603  30.861  22.294   6.281
 4573POPC   C2B58604  30.985  22.172   6.689
 4573POPC   C3B58605  30.851  22.333   7.075
 4573POPC   C4B58606  30.987  22.311   7.529
 4574POPC   NC358607  27.779  40.488   5.620
 4574POPC   PO458608  27.380  41.005   5.558
 4574POPC   GL158609  27.630  40.921   5.875
 4574POPC   GL258610  27.448  40.614   5.968
 4574POPC   C1A58611  27.755  40.872   6.291
 4574POPC   D2A58612  27.985  40.797   6.658
 4574POPC   C3A58613  27.798  40.791   7.082
 4574POPC   C4A58614  27.740  40.976   7.485
 4574POPC   C1B58615  27.306  40.591   6.351
 4574POPC   C2B58616  27.486  40.591   6.709
 4574POPC   C3B58617  27.311  40.600   7.081
 4574POPC   C4B58618  27.428  40.597   7.495
 4575POPC   NC358619  19.100  35.183   5.465
 4575POPC   PO458620  18.962  35.787   5.189
 4575POPC   GL158621  19.163  35.626   5.663
 4575POPC   GL258622  18.826  35.421   5.794
 4575POPC   C1A58623  19.165  35.604   6.172
 4575POPC   D2A58624  19.350  35.713   6.608
 4575POPC   C3A58625  19.198  35.839   7.049
 4575POPC   C4A58626  19.007  35.722   7.489
 4575POPC   C1B58627  18.948  35.156   6.166
 4575POPC   C2B58628  19.206  35.126   6.534
 4575POPC   C3B58629  19.174  35.345   6.933
 4575POPC   C4B58630  18.891  35.277   7.278
 4576POPC   NC358631  20.497  15.304   5.485
 4576POPC   PO458632  20.462  14.612   5.585
 4576POPC   GL158633  20.578  14.970   5.899
 4576POPC   GL258634  20.778  15.303   5.924
 4576POPC   C1A58635  20.543  15.160   6.356
 4576POPC   D2A58636  20.835  15.111   6.723
 4576POPC   C3A58637  20.749  15.302   7.118
 4576POPC   C4A58638  20.464  15.236   7.507
 4576POPC   C1B58639  21.049  15.353   6.311
 4576POPC   C2B58640  21.062  15.589   6.725
 4576POPC   C3B58641  21.155  15.595   7.180
 4576POPC   C4B58642  20.904  15.573   7.571
 4577POPC   NC358643  11.138  43.136   5.265
 4577POPC   PO458644  11.723  43.454   5.462
 4577POPC   GL158645  11.540  43.178   5.780
 4577POPC   GL258646  11.212  43.006   5.752
 4577POPC   C1A58647  11.480  43.052   6.204
 4577POPC   D2A58648  11.177  43.066   6.547
 4577POPC   C3A58649  11.316  43.265   6.898
 4577POPC   C4A58650  11.531  43.188   7.264
 4577POPC   C1B58651  11.035  43.260   6.078
 4577POPC   C2B58652  10.704  43.197   6.393
 4577POPC   C3B58653  10.706  43.151   6.838
 4577POPC   C4B58654  10.938  43.102   7.208
 4578POPC   NC358655  37.272   2.252   5.427
 4578POPC   PO458656  36.876   1.749   5.248
 4578POPC   GL158657  37.057   1.863   5.693
 4578POPC   GL258658  37.255   1.605   5.889
 4578POPC   C1A58659  37.033   2.071   6.110
 4578POPC   D2A58660  36.849   1.967   6.541
 4578POPC   C3A58661  36.900   2.126   6.978
 4578POPC   C4A58662  36.759   1.897   7.361
 4578POPC   C1B58663  37.275   1.665   6.295
 4578POPC   C2B58664  37.330   1.821   6.692
 4578POPC   C3B58665  37.182   1.704   7.087
 4578POPC   C4B58666  37.202   1.618   7.506
 4579POPC   NC358667  38.580   5.438   5.535
 4579POPC   PO458668  38.262   4.829   5.376
 4579POPC   GL158669  38.414   4.923   5.769
 4579POPC   GL258670  38.640   4.697   5.885
 4579POPC   C1A58671  38.344   5.092   6.168
 4579POPC   D2A58672  38.051   5.129   6.517
 4579POPC   C3A58673  38.238   4.962   6.891
 4579POPC   C4A58674  38.402   5.143   7.286
 4579POPC   C1B58675  38.866   4.659   6.267
 4579POPC   C2B58676  38.898   4.876   6.669
 4579POPC   C3B58677  38.935   4.593   7.015
 4579POPC   C4B58678  38.605   4.624   7.286
 4580POPC   NC358679  26.141  11.383   5.451
 4580POPC   PO458680  25.473  11.419   5.469
 4580POPC   GL158681  25.765  11.388   5.849
 4580POPC   GL258682  26.116  11.538   5.925
 4580POPC   C1A58683  25.814  11.161   6.252
 4580POPC   D2A58684  25.585  11.096   6.648
 4580POPC   C3A58685  25.813  10.897   6.991
 4580POPC   C4A58686  26.090  11.129   7.281
 4580POPC   C1B58687  25.918  11.684   6.268
 4580POPC   C2B58688  25.914  11.488   6.664
 4580POPC   C3B58689  26.089  11.622   7.032
 4580POPC   C4B58690  26.488  11.400   7.089
 4581POPC   NC358691  23.373  33.620   5.721
 4581POPC   PO458692  23.863  33.819   5.248
 4581POPC   GL158693  23.832  33.941   5.757
 4581POPC   GL258694  23.560  34.029   5.935
 4581POPC   C1A58695  23.947  33.841   6.222
 4581POPC   D2A58696  24.129  33.841   6.649
 4581POPC   C3A58697  23.836  33.912   7.019
 4581POPC   C4A58698  23.658  33.572   7.275
 4581POPC   C1B58699  23.447  33.926   6.378
 4581POPC   C2B58700  23.327  33.726   6.782
 4581POPC   C3B58701  23.296  33.905   7.177
 4581POPC   C4B58702  23.569  34.029   7.535
 4582POPC   NC358703  14.296   0.462   5.295
 4582POPC   PO458704  14.786   0.134   5.465
 4582POPC   GL158705  14.418   0.284   5.763
 4582POPC   GL258706  14.531   0.620   5.876
 4582POPC   C1A58707  14.259   0.366   6.215
 4582POPC   D2A58708  14.356   0.723   6.488
 4582POPC   C3A58709  14.303   0.712   6.934
 4582POPC   C4A58710  14.361   0.287   7.181
 4582POPC   C1B58711  14.793   0.258   6.120
 4582POPC   C2B58712  14.902   0.131   6.555
 4582POPC   C3B58713  14.721   0.448   6.826
 4582POPC   C4B58714  14.711   0.672   7.251
 4583POPC   NC358715  26.326  25.707   5.462
 4583POPC   PO458716  25.836  26.242   5.460
 4583POPC   GL158717  25.956  25.999   5.784
 4583POPC   GL258718  26.253  26.174   5.796
 4583POPC   C1A58719  25.837  26.058   6.221
 4583POPC   D2A58720  25.681  25.966   6.634
 4583POPC   C3A58721  25.895  26.101   7.006
 4583POPC   C4A58722  26.027  25.905   7.387
 4583POPC   C1B58723  26.348  26.017   6.184
 4583POPC   C2B58724  26.189  25.924   6.590
 4583POPC   C3B58725  26.285  25.734   6.970
 4583POPC   C4B58726  26.476  26.045   7.231
 4584POPC   NC358727  43.282   1.635   5.543
 4584POPC   PO458728  43.438   0.965   5.305
 4584POPC   GL158729  43.103   1.128   5.648
 4584POPC   GL258730  43.138   1.389   5.942
 4584POPC   C1A58731  42.993   0.928   6.069
 4584POPC   D2A58732  43.141   1.115   6.454
 4584POPC   C3A58733  43.074   1.045   6.896
 4584POPC   C4A58734  42.993   0.995   7.315
 4584POPC   C1B58735  43.278   1.586   6.339
 4584POPC   C2B58736  43.014   1.541   6.724
 4584POPC   C3B58737  43.069   1.490   7.168
 4584POPC   C4B58738  43.045   1.773   7.503
 4585POPC   NC358739  29.195   8.412   5.373
 4585POPC   PO458740  28.855   7.837   5.450
 4585POPC   GL158741  29.144   8.034   5.740
 4585POPC   GL258742  29.043   8.384   5.862
 4585POPC   C1A58743  29.373   8.069   6.112
 4585POPC   D2A58744  29.432   8.117   6.546
 4585POPC   C3A58745  29.189   7.972   6.925
 4585POPC   C4A58746  28.882   8.047   7.262
 4585POPC   C1B58747  29.223   8.538   6.268
 4585POPC   C2B58748  29.259   8.612   6.715
 4585POPC   C3B58749  29.193   8.457   7.127
 4585POPC   C4B58750  29.393   8.335   7.514
 4586POPC   NC358751  30.234  44.216   5.411
 4586POPC   PO458752  30.612  44.847   5.389
 4586POPC   GL158753  30.775  44.793   5.792
 4586POPC   GL258754  31.094  44.960   5.823
 4586POPC   C1A58755  30.777  44.606   6.183
 4586POPC   D2A58756  30.968  44.614   6.591
 4586POPC   C3A58757  30.790  44.506   6.979
 4586POPC   C4A58758  30.982  44.396   7.355
 4586POPC   C1B58759  30.930   0.076   6.251
 4586POPC   C2B58760  30.647   0.025   6.600
 4586POPC   C3B58761  30.845  44.998   6.973
 4586POPC   C4B58762  30.902  44.891   7.408
 4587POPC   NC358763  43.874  31.670   5.462
 4587POPC   PO458764  44.356  31.117   5.269
 4587POPC   GL158765  44.104  31.239   5.684
 4587POPC   GL258766  43.783  31.211   5.892
 4587POPC   C1A58767  44.160  31.477   6.123
 4587POPC   D2A58768  43.874  31.498   6.505
 4587POPC   C3A58769  44.044  31.591   6.915
 4587POPC   C4A58770  44.064  31.439   7.341
 4587POPC   C1B58771  43.780  31.011   6.339
 4587POPC   C2B58772  43.560  31.130   6.764
 4587POPC   C3B58773  43.592  31.358   7.177
 4587POPC   C4B58774  43.703  31.263   7.649
 4588POPC   NC358775  10.460   5.184   5.322
 4588POPC   PO458776  11.023   4.886   5.554
 4588POPC   GL158777  10.645   4.982   5.801
 4588POPC   GL258778  10.408   4.716   5.886
 4588POPC   C1A58779  10.533   5.218   6.186
 4588POPC   D2A58780  10.786   5.276   6.564
 4588POPC   C3A58781  10.604   5.311   7.002
 4588POPC   C4A58782  10.478   5.236   7.435
 4588POPC   C1B58783  10.527   4.694   6.299
 4588POPC   C2B58784  10.374   4.942   6.657
 4588POPC   C3B58785  10.385   4.844   7.086
 4588POPC   C4B58786  10.077   4.866   7.381
 4589POPC   NC358787  28.909   6.748   5.330
 4589POPC   PO458788  29.260   6.319   5.509
 4589POPC   GL158789  29.325   6.701   5.777
 4589POPC   GL258790  29.030   6.899   5.829
 4589POPC   C1A58791  29.379   6.767   6.247
 4589POPC   D2A58792  29.124   6.606   6.645
 4589POPC   C3A58793  29.218   6.455   7.104
 4589POPC   C4A58794  29.294   6.516   7.594
 4589POPC   C1B58795  29.027   7.148   6.221
 4589POPC   C2B58796  29.262   7.105   6.639
 4589POPC   C3B58797  29.114   6.964   7.055
 4589POPC   C4B58798  29.068   7.018   7.499
 4590POPC   NC358799  31.970  22.268   5.430
 4590POPC   PO458800  32.704  22.473   5.384
 4590POPC   GL158801  32.422  22.180   5.630
 4590POPC   GL258802  32.478  21.804   5.630
 4590POPC   C1A58803  32.314  22.258   6.067
 4590POPC   D2A58804  32.488  22.262   6.462
 4590POPC   C3A58805  32.227  22.151   6.823
 4590POPC   C4A58806  32.227  22.341   7.230
 4590POPC   C1B58807  32.604  21.833   6.039
 4590POPC   C2B58808  32.541  21.752   6.465
 4590POPC   C3B58809  32.607  21.778   6.877
 4590POPC   C4B58810  32.425  21.895   7.260
 4591POPC   NC358811   7.664  38.083   5.366
 4591POPC   PO458812   7.280  37.424   5.338
 4591POPC   GL158813   7.254  37.542   5.780
 4591POPC   GL258814   7.576  37.765   5.798
 4591POPC   C1A58815   7.136  37.530   6.234
 4591POPC   D2A58816   7.338  37.441   6.666
 4591POPC   C3A58817   7.138  37.481   7.084
 4591POPC   C4A58818   7.100  37.871   7.333
 4591POPC   C1B58819   7.654  38.050   6.176
 4591POPC   C2B58820   7.734  37.905   6.611
 4591POPC   C3B58821   7.504  37.863   6.980
 4591POPC   C4B58822   7.614  37.757   7.386
 4592POPC   NC358823  34.355  40.565   5.555
 4592POPC   PO458824  34.568  39.872   5.529
 4592POPC   GL158825  34.644  39.924   5.924
 4592POPC   GL258826  34.868  40.191   5.839
 4592POPC   C1A58827  34.359  39.826   6.256
 4592POPC   D2A58828  34.231  39.943   6.653
 4592POPC   C3A58829  34.509  39.815   6.994
 4592POPC   C4A58830  34.496  40.123   7.316
 4592POPC   C1B58831  34.800  40.368   6.236
 4592POPC   C2B58832  35.004  40.309   6.656
 4592POPC   C3B58833  34.992  40.125   7.090
 4592POPC   C4B58834  34.916  40.239   7.538
 4593POPC   NC358835  12.190  43.699   5.503
 4593POPC   PO458836  11.888  44.286   5.301
 4593POPC   GL158837  11.961  44.109   5.719
 4593POPC   GL258838  12.318  44.102   5.862
 4593POPC   C1A58839  11.894  43.890   6.121
 4593POPC   D2A58840  12.071  43.962   6.537
 4593POPC   C3A58841  11.916  43.701   6.861
 4593POPC   C4A58842  11.856  43.853   7.261
 4593POPC   C1B58843  12.447  43.789   6.210
 4593POPC   C2B58844  12.430  43.589   6.658
 4593POPC   C3B58845  12.366  43.721   7.104
 4593POPC   C4B58846  12.284  44.104   7.343
 4594POPC   NC358847   9.344  43.781   5.504
 4594POPC   PO458848   8.778  44.149   5.572
 4594POPC   GL158849   9.129  44.099   5.833
 4594POPC   GL258850   8.977  43.749   5.864
 4594POPC   C1A58851   9.308  43.879   6.211
 4594POPC   D2A58852   9.029  43.607   6.432
 4594POPC   C3A58853   9.036  43.703   6.876
 4594POPC   C4A58854   8.873  43.865   7.273
 4594POPC   C1B58855   8.806  44.013   6.212
 4594POPC   C2B58856   8.710  44.034   6.611
 4594POPC   C3B58857   8.598  44.244   6.968
 4594POPC   C4B58858   8.663  44.386   7.383
 4595POPC   NC358859  20.483  20.736   5.417
 4595POPC   PO458860  20.820  20.239   5.759
 4595POPC   GL158861  20.665  20.635   5.932
 4595POPC   GL258862  20.341  20.642   5.891
 4595POPC   C1A58863  20.471  20.834   6.316
 4595POPC   D2A58864  20.308  20.702   6.662
 4595POPC   C3A58865  20.641  20.739   6.974
 4595POPC   C4A58866  20.797  21.003   7.295
 4595POPC   C1B58867  20.286  20.333   6.260
 4595POPC   C2B58868  20.421  20.191   6.699
 4595POPC   C3B58869  20.405  20.329   7.142
 4595POPC   C4B58870  20.732  20.516   7.466
 4596POPC   NC358871   6.474  10.871   5.345
 4596POPC   PO458872   6.640  11.540   5.332
 4596POPC   GL158873   6.695  11.247   5.677
 4596POPC   GL258874   6.484  11.461   5.884
 4596POPC   C1A58875   6.762  11.100   6.120
 4596POPC   D2A58876   6.755  11.402   6.482
 4596POPC   C3A58877   6.739  11.199   6.892
 4596POPC   C4A58878   6.787  11.383   7.316
 4596POPC   C1B58879   6.286  11.553   6.287
 4596POPC   C2B58880   6.313  11.460   6.742
 4596POPC   C3B58881   6.303  11.330   7.162
 4596POPC   C4B58882   6.346  11.448   7.601
 4597POPC   NC358883  36.072  40.364   5.449
 4597POPC   PO458884  36.172  41.020   5.303
 4597POPC   GL158885  36.239  40.792   5.694
 4597POPC   GL258886  35.866  40.706   5.783
 4597POPC   C1A58887  36.242  40.614   6.123
 4597POPC   D2A58888  36.021  40.776   6.484
 4597POPC   C3A58889  36.312  40.795   6.838
 4597POPC   C4A58890  36.279  40.696   7.252
 4597POPC   C1B58891  35.740  40.438   6.145
 4597POPC   C2B58892  35.708  40.317   6.575
 4597POPC   C3B58893  35.870  40.547   6.954
 4597POPC   C4B58894  35.759  40.740   7.396
 4598POPC   NC358895  31.677  33.424   5.480
 4598POPC   PO458896  31.233  33.936   5.559
 4598POPC   GL158897  31.489  33.751   5.878
 4598POPC   GL258898  31.842  33.718   5.849
 4598POPC   C1A58899  31.658  33.854   6.316
 4598POPC   D2A58900  31.808  34.210   6.563
 4598POPC   C3A58901  31.681  34.224   7.003
 4598POPC   C4A58902  31.418  33.872   7.216
 4598POPC   C1B58903  31.716  33.373   6.135
 4598POPC   C2B58904  31.773  33.362   6.550
 4598POPC   C3B58905  31.537  33.461   6.890
 4598POPC   C4B58906  31.703  33.452   7.260
 4599POPC   NC358907   8.406   3.096   5.124
 4599POPC   PO458908   8.153   3.673   5.262
 4599POPC   GL158909   8.344   3.634   5.686
 4599POPC   GL258910   8.383   3.309   5.829
 4599POPC   C1A58911   8.266   3.811   6.102
 4599POPC   D2A58912   8.065   3.741   6.520
 4599POPC   C3A58913   8.103   3.882   6.906
 4599POPC   C4A58914   8.126   3.717   7.328
 4599POPC   C1B58915   8.180   3.288   6.238
 4599POPC   C2B58916   8.212   3.257   6.677
 4599POPC   C3B58917   8.267   3.280   7.103
 4599POPC   C4B58918   8.176   2.965   7.389
 4600POPC   NC358919  39.437   7.455   5.055
 4600POPC   PO458920  39.980   7.637   5.375
 4600POPC   GL158921  40.067   7.419   5.761
 4600POPC   GL258922  39.849   7.598   5.951
 4600POPC   C1A58923  40.079   7.173   6.176
 4600POPC   D2A58924  40.210   7.316   6.601
 4600POPC   C3A58925  40.106   7.096   6.989
 4600POPC   C4A58926  39.764   7.290   7.218
 4600POPC   C1B58927  40.266   7.634   6.187
 4600POPC   C2B58928  40.493   7.774   6.543
 4600POPC   C3B58929  40.509   7.858   6.968
 4600POPC   C4B58930  40.210   7.576   7.147
 4601POPC   NC358931   4.603  34.615   5.407
 4601POPC   PO458932   4.168  34.155   5.533
 4601POPC   GL158933   4.323  34.448   5.796
 4601POPC   GL258934   4.661  34.331   5.845
 4601POPC   C1A58935   4.298  34.691   6.151
 4601POPC   D2A58936   4.110  34.471   6.475
 4601POPC   C3A58937   4.261  34.521   6.848
 4601POPC   C4A58938   4.102  34.500   7.240
 4601POPC   C1B58939   4.526  34.238   6.254
 4601POPC   C2B58940   4.723  34.245   6.673
 4601POPC   C3B58941   4.770  34.593   6.897
 4601POPC   C4B58942   4.553  34.708   7.241
 4602POPC   NC358943  11.818   9.372   5.360
 4602POPC   PO458944  12.251   8.875   5.409
 4602POPC   GL158945  12.008   8.938   5.728
 4602POPC   GL258946  12.157   9.224   5.798
 4602POPC   C1A58947  12.142   8.854   6.144
 4602POPC   D2A58948  12.144   9.091   6.507
 4602POPC   C3A58949  12.426   8.962   6.797
 4602POPC   C4A58950  12.221   8.926   7.199
 4602POPC   C1B58951  12.458   9.316   6.115
 4602POPC   C2B58952  12.397   9.531   6.491
 4602POPC   C3B58953  12.389   9.458   6.923
 4602POPC   C4B58954  12.399   9.534   7.359
 4603POPC   NC358955  31.785  28.648   5.646
 4603POPC   PO458956  31.964  29.222   5.444
 4603POPC   GL158957  31.623  29.156   5.822
 4603POPC   GL258958  31.390  28.808   5.913
 4603POPC   C1A58959  31.509  29.150   6.279
 4603POPC   D2A58960  31.658  28.983   6.682
 4603POPC   C3A58961  31.513  29.191   7.034
 4603POPC   C4A58962  31.712  29.471   7.288
 4603POPC   C1B58963  31.121  28.655   6.292
 4603POPC   C2B58964  30.869  28.657   6.683
 4603POPC   C3B58965  31.074  28.846   7.056
 4603POPC   C4B58966  31.402  28.755   7.345
 4604POPC   NC358967  34.034   4.821   5.342
 4604POPC   PO458968  34.294   5.471   5.342
 4604POPC   GL158969  34.012   5.214   5.674
 4604POPC   GL258970  33.951   5.396   6.013
 4604POPC   C1A58971  33.765   4.925   5.981
 4604POPC   D2A58972  33.568   4.983   6.406
 4604POPC   C3A58973  33.765   4.850   6.799
 4604POPC   C4A58974  33.567   4.977   7.195
 4604POPC   C1B58975  33.733   5.511   6.380
 4604POPC   C2B58976  33.683   5.342   6.784
 4604POPC   C3B58977  33.898   5.347   7.180
 4604POPC   C4B58978  33.710   5.271   7.585
 4605POPC   NC358979  30.496   6.382   5.419
 4605POPC   PO458980  30.837   6.936   5.328
 4605POPC   GL158981  30.661   6.772   5.771
 4605POPC   GL258982  30.402   6.479   5.887
 4605POPC   C1A58983  30.846   6.637   6.185
 4605POPC   D2A58984  30.904   6.847   6.596
 4605POPC   C3A58985  30.710   6.765   6.990
 4605POPC   C4A58986  30.840   6.738   7.419
 4605POPC   C1B58987  30.568   6.206   6.170
 4605POPC   C2B58988  30.548   6.413   6.564
 4605POPC   C3B58989  30.391   6.368   6.969
 4605POPC   C4B58990  30.660   6.278   7.297
 4606POPC   NC358991  39.052  31.357   5.474
 4606POPC   PO458992  39.573  31.013   5.559
 4606POPC   GL158993  39.382  31.285   5.893
 4606POPC   GL258994  39.215  31.602   5.898
 4606POPC   C1A58995  39.351  31.381   6.337
 4606POPC   D2A58996  39.596  31.528   6.684
 4606POPC   C3A58997  39.292  31.441   7.009
 4606POPC   C4A58998  39.281  31.404   7.438
 4606POPC   C1B58999  38.978  31.781   6.271
 4606POPC   C2B59000  38.906  31.650   6.725
 4606POPC   C3B59001  39.016  31.878   7.128
 4606POPC   C4B59002  38.949  31.777   7.590
 4607POPC   NC359003  22.936  10.347   5.453
 4607POPC   PO459004  23.374  10.875   5.457
 4607POPC   GL159005  23.064  10.704   5.808
 4607POPC   GL259006  23.103  10.356   5.937
 4607POPC   C1A59007  22.834  10.718   6.203
 4607POPC   D2A59008  23.138  10.772   6.527
 4607POPC   C3A59009  23.168  10.539   6.899
 4607POPC   C4A59010  23.129  10.735   7.285
 4607POPC   C1B59011  22.656  10.236   6.120
 4607POPC   C2B59012  22.484  10.196   6.570
 4607POPC   C3B59013  22.505  10.255   7.017
 4607POPC   C4B59014  22.836  10.303   7.320
 4608POPC   NC359015  22.020   5.278   5.350
 4608POPC   PO459016  22.299   4.723   5.310
 4608POPC   GL159017  22.128   4.856   5.731
 4608POPC   GL259018  21.799   4.956   5.692
 4608POPC   C1A59019  22.249   4.989   6.165
 4608POPC   D2A59020  22.483   5.093   6.525
 4608POPC   C3A59021  22.297   4.901   6.882
 4608POPC   C4A59022  22.321   5.067   7.295
 4608POPC   C1B59023  21.753   4.847   6.124
 4608POPC   C2B59024  21.839   4.983   6.560
 4608POPC   C3B59025  21.841   5.067   7.029
 4608POPC   C4B59026  21.872   4.839   7.427
 4609POPC   NC359027  37.688   5.617   5.529
 4609POPC   PO459028  37.275   6.178   5.472
 4609POPC   GL159029  37.338   5.905   5.841
 4609POPC   GL259030  37.304   5.557   5.855
 4609POPC   C1A59031  37.601   5.803   6.228
 4609POPC   D2A59032  37.594   5.972   6.667
 4609POPC   C3A59033  37.874   5.917   7.029
 4609POPC   C4A59034  37.754   5.949   7.459
 4609POPC   C1B59035  37.174   5.532   6.259
 4609POPC   C2B59036  37.391   5.492   6.657
 4609POPC   C3B59037  37.478   5.619   7.091
 4609POPC   C4B59038  37.252   5.926   7.348
 4610POPC   NC359039  22.423  37.907   5.413
 4610POPC   PO459040  22.058  38.499   5.300
 4610POPC   GL159041  22.233  38.421   5.724
 4610POPC   GL259042  22.487  38.677   5.834
 4610POPC   C1A59043  22.106  38.391   6.175
 4610POPC   D2A59044  21.894  38.612   6.522
 4610POPC   C3A59045  22.028  38.541   6.936
 4610POPC   C4A59046  22.133  38.210   7.192
 4610POPC   C1B59047  22.603  38.298   6.058
 4610POPC   C2B59048  22.582  38.211   6.469
 4610POPC   C3B59049  22.499  38.371   6.854
 4610POPC   C4B59050  22.661  38.323   7.222
 4611POPC   NC359051  42.541  18.224   5.433
 4611POPC   PO459052  41.871  17.972   5.567
 4611POPC   GL159053  42.095  18.270   5.866
 4611POPC   GL259054  42.469  18.452   5.873
 4611POPC   C1A59055  42.291  18.221   6.302
 4611POPC   D2A59056  42.670  18.343   6.560
 4611POPC   C3A59057  42.570  18.207   6.965
 4611POPC   C4A59058  42.099  18.108   6.976
 4611POPC   C1B59059  42.190  18.691   6.130
 4611POPC   C2B59060  42.096  18.634   6.538
 4611POPC   C3B59061  42.365  18.692   6.859
 4611POPC   C4B59062  42.259  18.512   7.247
 4612POPC   NC359063  21.463   1.438   5.326
 4612POPC   PO459064  20.950   1.024   5.418
 4612POPC   GL159065  21.135   1.104   5.811
 4612POPC   GL259066  21.374   1.378   5.821
 4612POPC   C1A59067  21.246   0.937   6.232
 4612POPC   D2A59068  21.489   1.012   6.629
 4612POPC   C3A59069  21.303   0.998   7.067
 4612POPC   C4A59070  21.088   1.211   7.408
 4612POPC   C1B59071  21.524   1.515   6.204
 4612POPC   C2B59072  21.403   1.651   6.594
 4612POPC   C3B59073  21.320   1.506   6.986
 4612POPC   C4B59074  21.659   1.424   7.237
 4613POPC   NC359075  20.306  42.176   5.492
 4613POPC   PO459076  20.791  42.640   5.260
 4613POPC   GL159077  20.711  42.429   5.698
 4613POPC   GL259078  20.396  42.478   5.908
 4613POPC   C1A59079  20.788  42.215   6.117
 4613POPC   D2A59080  20.804  42.107   6.572
 4613POPC   C3A59081  20.610  42.326   6.893
 4613POPC   C4A59082  20.576  42.186   7.286
 4613POPC   C1B59083  20.306  42.126   6.230
 4613POPC   C2B59084  20.298  41.982   6.666
 4613POPC   C3B59085  20.130  42.156   7.026
 4613POPC   C4B59086  20.166  42.464   7.325
 4614POPC   NC359087  34.868  35.069   5.625
 4614POPC   PO459088  34.410  35.473   5.382
 4614POPC   GL159089  34.559  35.513   5.798
 4614POPC   GL259090  34.906  35.582   5.824
 4614POPC   C1A59091  34.420  35.302   6.169
 4614POPC   D2A59092  34.278  35.200   6.579
 4614POPC   C3A59093  34.493  35.350   6.962
 4614POPC   C4A59094  34.642  35.054   7.271
 4614POPC   C1B59095  34.800  35.673   6.267
 4614POPC   C2B59096  34.954  35.523   6.676
 4614POPC   C3B59097  35.004  35.352   7.080
 4614POPC   C4B59098  34.763  35.551   7.447
 4615POPC   NC359099   4.962  22.182   5.423
 4615POPC   PO459100   5.521  21.801   5.589
 4615POPC   GL159101   5.301  22.145   5.877
 4615POPC   GL259102   4.985  22.350   5.921
 4615POPC   C1A59103   5.182  22.131   6.349
 4615POPC   D2A59104   5.245  22.426   6.728
 4615POPC   C3A59105   5.168  22.233   7.123
 4615POPC   C4A59106   5.028  21.842   7.151
 4615POPC   C1B59107   4.961  22.645   6.279
 4615POPC   C2B59108   4.783  22.664   6.697
 4615POPC   C3B59109   4.938  22.704   7.118
 4615POPC   C4B59110   5.263  22.627   7.422
 4616POPC   NC359111   3.946  21.926   5.634
 4616POPC   PO459112   3.750  22.480   5.270
 4616POPC   GL159113   3.561  22.394   5.731
 4616POPC   GL259114   3.606  22.735   5.848
 4616POPC   C1A59115   3.385  22.089   6.123
 4616POPC   D2A59116   3.283  22.052   6.611
 4616POPC   C3A59117   3.461  21.839   6.965
 4616POPC   C4A59118   3.617  21.657   7.353
 4616POPC   C1B59119   3.537  22.553   6.263
 4616POPC   C2B59120   3.756  22.196   6.515
 4616POPC   C3B59121   3.820  22.190   6.968
 4616POPC   C4B59122   4.099  22.422   7.170
 4617POPC   NC359123  12.342  23.807   5.587
 4617POPC   PO459124  11.711  24.058   5.709
 4617POPC   GL159125  11.963  23.762   5.935
 4617POPC   GL259126  12.267  23.972   6.049
 4617POPC   C1A59127  11.965  23.693   6.374
 4617POPC   D2A59128  11.772  23.855   6.735
 4617POPC   C3A59129  11.803  23.560   7.056
 4617POPC   C4A59130  11.718  23.362   7.434
 4617POPC   C1B59131  12.532  23.973   6.412
 4617POPC   C2B59132  12.299  24.039   6.802
 4617POPC   C3B59133  11.993  24.019   7.154
 4617POPC   C4B59134  12.028  23.781   7.511
 4618POPC   NC359135  37.783   4.014   5.141
 4618POPC   PO459136  37.212   4.320   5.274
 4618POPC   GL159137  37.310   4.403   5.801
 4618POPC   GL259138  37.627   4.226   5.927
 4618POPC   C1A59139  37.460   4.536   6.277
 4618POPC   D2A59140  37.635   4.203   6.578
 4618POPC   C3A59141  37.704   4.210   7.033
 4618POPC   C4A59142  37.432   4.489   7.310
 4618POPC   C1B59143  37.983   4.146   6.199
 4618POPC   C2B59144  38.153   4.144   6.608
 4618POPC   C3B59145  38.229   3.913   7.007
 4618POPC   C4B59146  37.956   3.868   7.359
 4619POPC   NC359147  19.561   3.472   5.235
 4619POPC   PO459148  20.034   3.924   5.371
 4619POPC   GL159149  19.784   3.850   5.788
 4619POPC   GL259150  19.552   3.582   5.912
 4619POPC   C1A59151  19.896   3.670   6.240
 4619POPC   D2A59152  20.055   3.565   6.609
 4619POPC   C3A59153  19.884   3.705   6.959
 4619POPC   C4A59154  20.013   3.467   7.284
 4619POPC   C1B59155  19.502   3.288   6.221
 4619POPC   C2B59156  19.386   3.351   6.643
 4619POPC   C3B59157  19.532   3.352   7.087
 4619POPC   C4B59158  19.598   3.368   7.541
 4620POPC   NC359159  39.815  29.112   5.067
 4620POPC   PO459160  39.819  28.990   5.641
 4620POPC   GL159161  39.974  29.054   5.983
 4620POPC   GL259162  40.096  29.387   5.944
 4620POPC   C1A59163  39.848  29.221   6.343
 4620POPC   D2A59164  40.045  29.069   6.650
 4620POPC   C3A59165  39.747  29.094   6.918
 4620POPC   C4A59166  39.725  29.198   7.312
 4620POPC   C1B59167  40.366  29.323   6.309
 4620POPC   C2B59168  40.418  29.432   6.745
 4620POPC   C3B59169  40.268  29.170   7.091
 4620POPC   C4B59170  40.165  29.189   7.530
 4621POPC   NC359171  16.800  44.240   5.456
 4621POPC   PO459172  16.709  43.614   5.416
 4621POPC   GL159173  16.736  43.815   5.800
 4621POPC   GL259174  16.550  43.542   5.936
 4621POPC   C1A59175  16.771  44.037   6.191
 4621POPC   D2A59176  16.991  43.915   6.563
 4621POPC   C3A59177  16.805  43.890   6.946
 4621POPC   C4A59178  16.772  44.137   7.296
 4621POPC   C1B59179  16.580  43.604   6.393
 4621POPC   C2B59180  16.342  43.697   6.769
 4621POPC   C3B59181  16.353  43.848   7.189
 4621POPC   C4B59182  16.646  43.660   7.503
 4622POPC   NC359183  28.566  28.747   5.569
 4622POPC   PO459184  28.297  28.054   5.395
 4622POPC   GL159185  28.574  28.253   5.743
 4622POPC   GL259186  28.287  28.428   5.870
 4622POPC   C1A59187  28.655  28.350   6.214
 4622POPC   D2A59188  28.367  28.385   6.580
 4622POPC   C3A59189  28.416  28.209   6.976
 4622POPC   C4A59190  28.305  28.226   7.403
 4622POPC   C1B59191  28.330  28.747   6.204
 4622POPC   C2B59192  28.539  28.861   6.613
 4622POPC   C3B59193  28.407  28.703   7.039
 4622POPC   C4B59194  28.523  28.753   7.482
 4623POPC   NC359195   0.654   7.459   5.430
 4623POPC   PO459196   0.023   7.805   5.599
 4623POPC   GL159197   0.281   7.556   5.914
 4623POPC   GL259198   0.597   7.338   5.913
 4623POPC   C1A59199   0.497   7.557   6.331
 4623POPC   D2A59200   0.306   7.323   6.648
 4623POPC   C3A59201   0.363   7.444   7.039
 4623POPC   C4A59202   0.434   7.184   7.380
 4623POPC   C1B59203   0.605   7.048   6.318
 4623POPC   C2B59204   0.775   7.066   6.773
 4623POPC   C3B59205   0.848   7.358   7.152
 4623POPC   C4B59206   0.738   7.494   7.625
 4624POPC   NC359207  23.113  36.041   5.379
 4624POPC   PO459208  22.552  36.502   5.361
 4624POPC   GL159209  22.804  36.241   5.748
 4624POPC   GL259210  22.870  35.870   5.798
 4624POPC   C1A59211  23.006  36.159   6.191
 4624POPC   D2A59212  23.215  36.079   6.602
 4624POPC   C3A59213  23.050  36.194   6.975
 4624POPC   C4A59214  22.999  36.488   7.314
 4624POPC   C1B59215  23.235  35.729   6.088
 4624POPC   C2B59216  23.242  35.594   6.533
 4624POPC   C3B59217  23.313  35.754   7.011
 4624POPC   C4B59218  23.299  35.741   7.515
 4625POPC   NC359219   8.635  41.339   5.737
 4625POPC   PO459220   8.984  41.767   5.401
 4625POPC   GL159221   8.965  41.739   5.792
 4625POPC   GL259222   8.652  41.947   5.812
 4625POPC   C1A59223   9.136  41.473   6.131
 4625POPC   D2A59224   9.059  41.429   6.566
 4625POPC   C3A59225   8.842  41.130   6.799
 4625POPC   C4A59226   8.961  41.269   7.190
 4625POPC   C1B59227   8.770  41.833   6.243
 4625POPC   C2B59228   9.016  41.941   6.585
 4625POPC   C3B59229   8.916  41.823   6.993
 4625POPC   C4B59230   8.727  41.798   7.410
 4626POPC   NC359231  12.695   0.161   5.493
 4626POPC   PO459232  13.177   0.767   5.527
 4626POPC   GL159233  12.990   0.440   5.793
 4626POPC   GL259234  13.035   0.635   6.036
 4626POPC   C1A59235  12.684   0.258   6.154
 4626POPC   D2A59236  12.481   0.344   6.549
 4626POPC   C3A59237  12.581   0.086   6.909
 4626POPC   C4A59238  12.474   0.323   7.237
 4626POPC   C1B59239  13.187   0.275   6.241
 4626POPC   C2B59240  12.994   0.243   6.637
 4626POPC   C3B59241  12.969   0.387   7.062
 4626POPC   C4B59242  13.185   0.557   7.397
 4627POPC   NC359243   8.129  36.520   5.406
 4627POPC   PO459244   7.858  35.870   5.464
 4627POPC   GL159245   7.895  36.211   5.784
 4627POPC   GL259246   8.273  36.242   5.826
 4627POPC   C1A59247   7.938  36.108   6.213
 4627POPC   D2A59248   8.246  36.082   6.532
 4627POPC   C3A59249   8.033  36.069   6.918
 4627POPC   C4A59250   8.030  36.185   7.349
 4627POPC   C1B59251   8.564  36.381   6.153
 4627POPC   C2B59252   8.530  36.517   6.580
 4627POPC   C3B59253   8.471  36.349   6.969
 4627POPC   C4B59254   8.708  36.341   7.303
 4628POPC   NC359255  14.430  38.882   5.318
 4628POPC   PO459256  14.723  38.330   5.185
 4628POPC   GL159257  14.689  38.333   5.626
 4628POPC   GL259258  14.695  38.685   5.746
 4628POPC   C1A59259  14.638  38.242   6.074
 4628POPC   D2A59260  14.396  38.139   6.463
 4628POPC   C3A59261  14.409  38.346   6.876
 4628POPC   C4A59262  14.450  38.228   7.353
 4628POPC   C1B59263  14.368  38.698   6.086
 4628POPC   C2B59264  14.239  38.838   6.516
 4628POPC   C3B59265  14.135  38.776   6.968
 4628POPC   C4B59266  14.015  38.416   7.205
 4629POPC   NC359267  22.897  24.411   5.278
 4629POPC   PO459268  22.585  24.956   5.590
 4629POPC   GL159269  22.789  24.644   5.882
 4629POPC   GL259270  22.793  24.327   5.773
 4629POPC   C1A59271  23.023  24.442   6.207
 4629POPC   D2A59272  23.132  24.550   6.570
 4629POPC   C3A59273  22.976  24.352   6.891
 4629POPC   C4A59274  23.113  24.473   7.257
 4629POPC   C1B59275  22.570  24.214   6.117
 4629POPC   C2B59276  22.605  24.299   6.526
 4629POPC   C3B59277  22.477  24.204   6.932
 4629POPC   C4B59278  22.585  24.270   7.349
 4630POPC   NC359279  32.662  25.539   5.217
 4630POPC   PO459280  32.951  26.033   5.568
 4630POPC   GL159281  32.918  26.240   5.920
 4630POPC   GL259282  33.246  26.141   6.029
 4630POPC   C1A59283  32.857  26.313   6.332
 4630POPC   D2A59284  33.026  26.107   6.665
 4630POPC   C3A59285  32.873  26.120   7.082
 4630POPC   C4A59286  33.287  26.161   7.289
 4630POPC   C1B59287  32.957  25.806   6.227
 4630POPC   C2B59288  33.019  25.586   6.623
 4630POPC   C3B59289  33.223  25.746   6.978
 4630POPC   C4B59290  33.208  25.657   7.424
 4631POPC   NC359291   6.422  42.661   5.156
 4631POPC   PO459292   5.853  42.611   5.582
 4631POPC   GL159293   6.056  42.276   5.829
 4631POPC   GL259294   6.121  42.508   6.115
 4631POPC   C1A59295   6.158  41.964   6.131
 4631POPC   D2A59296   6.038  41.798   6.523
 4631POPC   C3A59297   6.084  42.088   6.904
 4631POPC   C4A59298   5.915  42.036   7.305
 4631POPC   C1B59299   5.718  42.620   6.338
 4631POPC   C2B59300   5.559  42.557   6.773
 4631POPC   C3B59301   5.344  42.258   7.032
 4631POPC   C4B59302   5.382  42.207   7.486
 4632POPC   NC359303  12.613  23.596   5.135
 4632POPC   PO459304  13.030  23.961   5.427
 4632POPC   GL159305  12.823  23.763   5.809
 4632POPC   GL259306  12.551  23.531   5.955
 4632POPC   C1A59307  12.956  23.686   6.226
 4632POPC   D2A59308  12.963  23.765   6.653
 4632POPC   C3A59309  13.047  23.423   6.922
 4632POPC   C4A59310  12.812  23.569   7.251
 4632POPC   C1B59311  12.577  23.394   6.391
 4632POPC   C2B59312  12.563  23.398   6.810
 4632POPC   C3B59313  12.318  23.586   7.116
 4632POPC   C4B59314  12.486  23.958   7.277
 4633POPC   NC359315  18.128   0.257   5.690
 4633POPC   PO459316  18.386   0.859   5.472
 4633POPC   GL159317  18.369   0.684   5.875
 4633POPC   GL259318  18.620   0.456   5.924
 4633POPC   C1A59319  18.127   0.596   6.246
 4633POPC   D2A59320  17.983   0.815   6.579
 4633POPC   C3A59321  18.077   0.599   6.923
 4633POPC   C4A59322  18.331   0.716   7.193
 4633POPC   C1B59323  18.528   0.272   6.304
 4633POPC   C2B59324  18.487   0.309   6.767
 4633POPC   C3B59325  18.439   0.216   7.207
 4633POPC   C4B59326  18.446   0.258   7.658
 4634POPC   NC359327  33.882   1.042   5.472
 4634POPC   PO459328  33.442   1.610   5.499
 4634POPC   GL159329  33.661   1.366   5.802
 4634POPC   GL259330  33.952   1.511   5.943
 4634POPC   C1A59331  33.712   1.075   6.154
 4634POPC   D2A59332  33.949   1.173   6.525
 4634POPC   C3A59333  33.856   1.027   6.943
 4634POPC   C4A59334  33.587   1.099   7.275
 4634POPC   C1B59335  33.696   1.596   6.294
 4634POPC   C2B59336  33.632   1.673   6.741
 4634POPC   C3B59337  33.832   1.541   7.144
 4634POPC   C4B59338  34.020   1.440   7.580
 4635POPC   NC359339  32.662   0.503   5.353
 4635POPC   PO459340  31.980   0.672   5.512
 4635POPC   GL159341  32.230   0.354   5.757
 4635POPC   GL259342  32.611   0.357   5.826
 4635POPC   C1A59343  32.291   0.185   6.178
 4635POPC   D2A59344  32.262   0.324   6.595
 4635POPC   C3A59345  32.499   0.228   6.956
 4635POPC   C4A59346  32.322   0.144   7.382
 4635POPC   C1B59347  32.728   0.486   6.223
 4635POPC   C2B59348  32.598   0.714   6.583
 4635POPC   C3B59349  32.277   0.771   6.872
 4635POPC   C4B59350  32.439   0.636   7.250
 4636POPC   NC359351   2.947  31.902   5.457
 4636POPC   PO459352   2.523  31.440   5.449
 4636POPC   GL159353   2.622  31.720   5.823
 4636POPC   GL259354   2.969  31.712   5.966
 4636POPC   C1A59355   2.519  31.783   6.263
 4636POPC   D2A59356   2.393  31.764   6.711
 4636POPC   C3A59357   2.631  31.799   7.146
 4636POPC   C4A59358   2.572  31.538   7.551
 4636POPC   C1B59359   2.968  31.646   6.450
 4636POPC   C2B59360   2.746  31.415   6.790
 4636POPC   C3B59361   2.810  31.216   7.232
 4636POPC   C4B59362   2.925  31.201   7.709
 4637POPC   NC359363  15.889  14.616   5.153
 4637POPC   PO459364  16.059  14.038   5.429
 4637POPC   GL159365  15.837  14.182   5.772
 4637POPC   GL259366  15.847  14.551   5.831
 4637POPC   C1A59367  15.946  14.167   6.196
 4637POPC   D2A59368  15.714  14.204   6.547
 4637POPC   C3A59369  15.875  14.200   6.943
 4637POPC   C4A59370  15.598  14.180   7.253
 4637POPC   C1B59371  15.979  14.716   6.265
 4637POPC   C2B59372  15.880  14.672   6.730
 4637POPC   C3B59373  15.829  14.656   7.202
 4637POPC   C4B59374  16.045  14.749   7.615
 4638POPC   NC359375  41.612   8.756   5.355
 4638POPC   PO459376  41.424   9.366   5.490
 4638POPC   GL159377  41.683   9.087   5.785
 4638POPC   GL259378  41.482   8.769   5.849
 4638POPC   C1A59379  41.780   8.991   6.254
 4638POPC   D2A59380  41.794   9.185   6.678
 4638POPC   C3A59381  41.795   8.887   6.986
 4638POPC   C4A59382  41.992   8.796   7.374
 4638POPC   C1B59383  41.264   9.011   6.162
 4638POPC   C2B59384  41.311   8.887   6.596
 4638POPC   C3B59385  41.311   8.688   6.998
 4638POPC   C4B59386  41.310   8.905   7.395
 4639POPC   NC359387  37.268  16.218   5.682
 4639POPC   PO459388  37.736  15.983   5.219
 4639POPC   GL159389  37.754  16.001   5.708
 4639POPC   GL259390  37.747  16.290   5.896
 4639POPC   C1A59391  37.599  15.863   6.141
 4639POPC   D2A59392  37.809  15.734   6.495
 4639POPC   C3A59393  37.636  15.865   6.837
 4639POPC   C4A59394  37.499  15.749   7.200
 4639POPC   C1B59395  38.069  16.058   6.151
 4639POPC   C2B59396  38.202  16.084   6.574
 4639POPC   C3B59397  38.012  16.201   6.939
 4639POPC   C4B59398  37.919  16.014   7.321
 4640POPC   NC359399  22.996  23.268   5.340
 4640POPC   PO459400  22.884  23.964   5.419
 4640POPC   GL159401  22.809  23.797   5.848
 4640POPC   GL259402  22.851  23.412   5.815
 4640POPC   C1A59403  22.949  23.932   6.301
 4640POPC   D2A59404  22.721  23.831   6.699
 4640POPC   C3A59405  22.886  23.909   7.119
 4640POPC   C4A59406  22.999  24.092   7.586
 4640POPC   C1B59407  22.830  23.451   6.253
 4640POPC   C2B59408  23.084  23.510   6.611
 4640POPC   C3B59409  23.077  23.429   7.046
 4640POPC   C4B59410  22.760  23.282   7.336
 4641POPC   NC359411   6.110  19.328   5.365
 4641POPC   PO459412   5.595  18.836   5.405
 4641POPC   GL159413   5.783  19.146   5.745
 4641POPC   GL259414   6.163  19.082   5.820
 4641POPC   C1A59415   5.786  19.296   6.224
 4641POPC   D2A59416   5.603  19.245   6.690
 4641POPC   C3A59417   5.750  18.883   6.982
 4641POPC   C4A59418   5.675  18.743   7.395
 4641POPC   C1B59419   6.339  19.292   6.200
 4641POPC   C2B59420   6.141  19.450   6.593
 4641POPC   C3B59421   5.994  19.331   7.019
 4641POPC   C4B59422   6.274  18.993   7.121
 4642POPC   NC359423  30.413  17.839   5.599
 4642POPC   PO459424  30.905  17.339   5.467
 4642POPC   GL159425  30.833  17.595   5.800
 4642POPC   GL259426  30.525  17.427   5.880
 4642POPC   C1A59427  30.818  17.720   6.221
 4642POPC   D2A59428  30.971  17.497   6.578
 4642POPC   C3A59429  30.732  17.662   6.893
 4642POPC   C4A59430  30.750  17.657   7.314
 4642POPC   C1B59431  30.668  17.213   6.254
 4642POPC   C2B59432  30.524  17.233   6.698
 4642POPC   C3B59433  30.764  17.191   7.102
 4642POPC   C4B59434  30.684  17.214   7.573
 4643POPC   NC359435  34.080   8.120   5.460
 4643POPC   PO459436  34.693   8.336   5.273
 4643POPC   GL159437  34.711   8.516   5.701
 4643POPC   GL259438  34.339   8.450   5.774
 4643POPC   C1A59439  34.709   8.403   6.141
 4643POPC   D2A59440  34.619   8.165   6.506
 4643POPC   C3A59441  34.699   8.402   6.874
 4643POPC   C4A59442  34.585   8.357   7.290
 4643POPC   C1B59443  34.187   8.300   6.245
 4643POPC   C2B59444  34.197   8.345   6.745
 4643POPC   C3B59445  34.162   8.086   7.152
 4643POPC   C4B59446  34.153   8.188   7.596
 4644POPC   NC359447  42.523  21.515   5.308
 4644POPC   PO459448  41.978  21.131   5.396
 4644POPC   GL159449  42.229  21.101   5.796
 4644POPC   GL259450  42.393  21.422   5.851
 4644POPC   C1A59451  42.149  21.163   6.264
 4644POPC   D2A59452  42.026  21.002   6.676
 4644POPC   C3A59453  42.311  21.135   7.020
 4644POPC   C4A59454  42.423  21.096   7.507
 4644POPC   C1B59455  42.081  21.661   6.149
 4644POPC   C2B59456  41.927  21.531   6.581
 4644POPC   C3B59457  42.150  21.626   6.975
 4644POPC   C4B59458  42.494  21.537   7.251
 4645POPC   NC359459  41.835  11.126   5.308
 4645POPC   PO459460  41.589  11.727   5.436
 4645POPC   GL159461  41.623  11.486   5.785
 4645POPC   GL259462  41.646  11.114   5.779
 4645POPC   C1A59463  41.771  11.516   6.204
 4645POPC   D2A59464  41.836  11.169   6.501
 4645POPC   C3A59465  41.679  11.232   6.884
 4645POPC   C4A59466  41.362  11.086   7.112
 4645POPC   C1B59467  41.381  11.203   6.134
 4645POPC   C2B59468  41.342  11.407   6.534
 4645POPC   C3B59469  41.164  11.550   6.930
 4645POPC   C4B59470  41.490  11.581   7.220
 4646POPC   NC359471  13.078  26.226   5.380
 4646POPC   PO459472  12.576  25.816   5.563
 4646POPC   GL159473  12.712  26.206   5.746
 4646POPC   GL259474  12.443  26.458   5.772
 4646POPC   C1A59475  13.034  26.247   6.094
 4646POPC   D2A59476  13.029  25.923   6.449
 4646POPC   C3A59477  13.002  26.054   6.883
 4646POPC   C4A59478  13.112  25.920   7.291
 4646POPC   C1B59479  12.522  26.320   6.211
 4646POPC   C2B59480  12.756  26.421   6.570
 4646POPC   C3B59481  12.593  26.342   6.957
 4646POPC   C4B59482  12.649  26.112   7.288
 4647POPC   NC359483  34.112  20.438   5.626
 4647POPC   PO459484  33.665  20.945   5.436
 4647POPC   GL159485  33.633  20.630   5.763
 4647POPC   GL259486  33.904  20.844   5.889
 4647POPC   C1A59487  33.661  20.496   6.221
 4647POPC   D2A59488  33.743  20.767   6.603
 4647POPC   C3A59489  33.508  20.616   6.958
 4647POPC   C4A59490  33.366  20.766   7.337
 4647POPC   C1B59491  34.119  20.666   6.238
 4647POPC   C2B59492  34.218  20.523   6.584
 4647POPC   C3B59493  34.179  20.666   6.949
 4647POPC   C4B59494  33.899  20.727   7.266
 4648POPC   NC359495   6.156  40.671   5.272
 4648POPC   PO459496   6.818  40.768   5.435
 4648POPC   GL159497   6.893  40.846   5.845
 4648POPC   GL259498   6.639  40.563   5.898
 4648POPC   C1A59499   6.927  40.726   6.273
 4648POPC   D2A59500   6.749  40.866   6.661
 4648POPC   C3A59501   6.814  40.616   7.008
 4648POPC   C4A59502   6.887  40.878   7.329
 4648POPC   C1B59503   6.422  40.747   6.286
 4648POPC   C2B59504   6.175  40.912   6.598
 4648POPC   C3B59505   6.353  40.884   6.988
 4648POPC   C4B59506   6.401  40.650   7.342
 4649POPC   NC359507  35.208  42.741   5.522
 4649POPC   PO459508  35.426  42.149   5.444
 4649POPC   GL159509  35.507  42.239   5.859
 4649POPC   GL259510  35.617  42.576   5.891
 4649POPC   C1A59511  35.295  42.370   6.235
 4649POPC   D2A59512  35.191  42.133   6.585
 4649POPC   C3A59513  35.170  42.287   6.980
 4649POPC   C4A59514  35.505  42.345   7.254
 4649POPC   C1B59515  35.656  42.754   6.286
 4649POPC   C2B59516  35.490  42.568   6.682
 4649POPC   C3B59517  35.681  42.766   7.036
 4649POPC   C4B59518  35.663  43.115   7.262
 4650POPC   NC359519  42.874  22.352   5.413
 4650POPC   PO459520  43.181  21.722   5.586
 4650POPC   GL159521  43.095  22.156   5.823
 4650POPC   GL259522  42.777  22.301   5.926
 4650POPC   C1A59523  43.238  22.466   6.135
 4650POPC   D2A59524  43.374  22.359   6.564
 4650POPC   C3A59525  43.214  22.485   6.985
 4650POPC   C4A59526  42.968  22.308   7.338
 4650POPC   C1B59527  42.919  22.130   6.334
 4650POPC   C2B59528  42.990  22.071   6.756
 4650POPC   C3B59529  42.812  21.882   7.085
 4650POPC   C4B59530  42.798  21.893   7.561
 4651POPC   NC359531  12.154  31.861   5.386
 4651POPC   PO459532  11.996  31.161   5.316
 4651POPC   GL159533  11.819  31.242   5.762
 4651POPC   GL259534  11.698  31.585   5.823
 4651POPC   C1A59535  11.942  31.219   6.234
 4651POPC   D2A59536  11.851  31.404   6.659
 4651POPC   C3A59537  11.958  31.319   7.092
 4651POPC   C4A59538  12.156  31.624   7.324
 4651POPC   C1B59539  11.818  31.729   6.258
 4651POPC   C2B59540  11.937  31.931   6.652
 4651POPC   C3B59541  11.762  31.796   7.052
 4651POPC   C4B59542  11.563  31.924   7.450
 4652POPC   NC359543  37.139  36.066   5.393
 4652POPC   PO459544  36.506  36.236   5.462
 4652POPC   GL159545  36.828  36.102   5.806
 4652POPC   GL259546  37.234  36.177   5.880
 4652POPC   C1A59547  36.781  35.894   6.211
 4652POPC   D2A59548  36.725  36.039   6.622
 4652POPC   C3A59549  37.042  35.981   6.921
 4652POPC   C4A59550  37.184  36.044   7.358
 4652POPC   C1B59551  37.010  36.353   6.244
 4652POPC   C2B59552  37.014  36.527   6.656
 4652POPC   C3B59553  37.058  36.467   7.091
 4652POPC   C4B59554  36.978  36.462   7.565
 4653POPC   NC359555  30.074  25.836   5.425
 4653POPC   PO459556  30.437  26.401   5.466
 4653POPC   GL159557  30.095  26.191   5.799
 4653POPC   GL259558  30.141  25.826   5.924
 4653POPC   C1A59559  29.796  26.146   6.195
 4653POPC   D2A59560  29.849  25.949   6.620
 4653POPC   C3A59561  29.619  25.968   7.025
 4653POPC   C4A59562  29.748  26.047   7.441
 4653POPC   C1B59563  30.293  26.050   6.284
 4653POPC   C2B59564  30.356  25.922   6.694
 4653POPC   C3B59565  30.161  25.979   7.079
 4653POPC   C4B59566  30.350  26.013   7.463
 4654POPC   NC359567  30.661  29.059   5.482
 4654POPC   PO459568  31.385  29.003   5.394
 4654POPC   GL159569  31.072  29.181   5.801
 4654POPC   GL259570  30.755  29.394   5.892
 4654POPC   C1A59571  30.823  29.062   6.237
 4654POPC   D2A59572  30.384  29.178   6.384
 4654POPC   C3A59573  30.361  29.165   6.841
 4654POPC   C4A59574  30.684  29.156   7.171
 4654POPC   C1B59575  31.110  29.494   6.203
 4654POPC   C2B59576  31.284  29.484   6.645
 4654POPC   C3B59577  31.110  29.595   7.068
 4654POPC   C4B59578  30.829  29.598   7.415
 4655POPC   NC359579  23.125  17.182   5.471
 4655POPC   PO459580  22.962  17.969   5.475
 4655POPC   GL159581  22.829  17.669   5.833
 4655POPC   GL259582  22.880  17.307   5.931
 4655POPC   C1A59583  22.983  17.707   6.278
 4655POPC   D2A59584  22.852  17.625   6.715
 4655POPC   C3A59585  22.991  17.653   7.127
 4655POPC   C4A59586  23.159  17.913   7.486
 4655POPC   C1B59587  22.797  17.234   6.375
 4655POPC   C2B59588  23.004  17.055   6.757
 4655POPC   C3B59589  22.836  17.071   7.176
 4655POPC   C4B59590  22.552  17.389   7.244
 4656POPC   NC359591  44.922  43.333   5.305
 4656POPC   PO459592  44.473  43.841   5.312
 4656POPC   GL159593  44.539  43.873   5.752
 4656POPC   GL259594  44.398  44.172   5.923
 4656POPC   C1A59595  44.503  43.666   6.142
 4656POPC   D2A59596  44.525  43.788   6.558
 4656POPC   C3A59597  44.469  43.583   6.926
 4656POPC   C4A59598  44.484  43.752   7.289
 4656POPC   C1B59599  44.781  44.089   6.208
 4656POPC   C2B59600  44.907  44.106   6.673
 4656POPC   C3B59601  44.918  44.042   7.141
 4656POPC   C4B59602  44.915  44.307   7.538
 4657POPC   NC359603  13.120   3.536   5.500
 4657POPC   PO459604  12.589   3.165   5.275
 4657POPC   GL159605  12.676   3.318   5.710
 4657POPC   GL259606  12.529   3.057   5.890
 4657POPC   C1A59607  12.740   3.646   6.086
 4657POPC   D2A59608  12.962   3.789   6.506
 4657POPC   C3A59609  12.880   3.684   6.978
 4657POPC   C4A59610  13.093   3.910   7.332
 4657POPC   C1B59611  12.452   3.259   6.267
 4657POPC   C2B59612  12.540   3.484   6.649
 4657POPC   C3B59613  12.456   3.303   7.068
 4657POPC   C4B59614  12.567   3.278   7.526
 4658POPC   NC359615  28.555  19.372   5.382
 4658POPC   PO459616  28.212  18.840   5.423
 4658POPC   GL159617  28.186  19.133   5.750
 4658POPC   GL259618  28.509  19.229   5.866
 4658POPC   C1A59619  28.075  19.137   6.170
 4658POPC   D2A59620  28.246  19.142   6.569
 4658POPC   C3A59621  28.075  19.113   6.961
 4658POPC   C4A59622  28.436  19.183   7.253
 4658POPC   C1B59623  28.584  18.957   6.207
 4658POPC   C2B59624  28.433  18.671   6.516
 4658POPC   C3B59625  28.452  18.758   6.942
 4658POPC   C4B59626  28.534  18.686   7.369
 4659POPC   NC359627  40.614   0.870   5.682
 4659POPC   PO459628  40.491   0.223   5.476
 4659POPC   GL159629  40.684   0.218   5.879
 4659POPC   GL259630  41.011   0.354   5.843
 4659POPC   C1A59631  40.699   0.177   6.325
 4659POPC   D2A59632  40.709  44.996   6.763
 4659POPC   C3A59633  40.686   0.301   7.079
 4659POPC   C4A59634  40.674   0.601   7.373
 4659POPC   C1B59635  41.147   0.691   6.149
 4659POPC   C2B59636  40.928   0.946   6.485
 4659POPC   C3B59637  40.834   0.796   6.924
 4659POPC   C4B59638  41.069   0.890   7.328
 4660POPC   NC359639  38.040   2.137   5.234
 4660POPC   PO459640  37.552   1.783   5.519
 4660POPC   GL159641  37.723   1.955   5.866
 4660POPC   GL259642  38.059   2.058   5.751
 4660POPC   C1A59643  37.678   1.982   6.327
 4660POPC   D2A59644  37.808   2.039   6.749
 4660POPC   C3A59645  37.483   2.176   7.024
 4660POPC   C4A59646  37.285   2.118   7.408
 4660POPC   C1B59647  38.128   1.816   6.170
 4660POPC   C2B59648  38.036   1.597   6.604
 4660POPC   C3B59649  38.106   1.727   7.050
 4660POPC   C4B59650  38.034   2.141   7.203
 4661POPC   NC359651  16.415  22.160   5.492
 4661POPC   PO459652  15.722  22.260   5.426
 4661POPC   GL159653  15.968  22.203   5.811
 4661POPC   GL259654  15.914  21.886   6.012
 4661POPC   C1A59655  16.146  22.306   6.225
 4661POPC   D2A59656  16.336  22.229   6.643
 4661POPC   C3A59657  16.026  22.329   6.935
 4661POPC   C4A59658  15.940  22.169   7.334
 4661POPC   C1B59659  16.306  21.837   6.273
 4661POPC   C2B59660  16.218  21.698   6.662
 4661POPC   C3B59661  16.241  21.848   7.079
 4661POPC   C4B59662  16.266  21.797   7.557
 4662POPC   NC359663  44.512   5.575   5.178
 4662POPC   PO459664  44.989   5.372   5.616
 4662POPC   GL159665  44.785   5.077   5.871
 4662POPC   GL259666  44.449   4.999   5.710
 4662POPC   C1A59667  44.791   5.009   6.306
 4662POPC   D2A59668  44.771   4.728   6.640
 4662POPC   C3A59669  44.686   4.950   6.997
 4662POPC   C4A59670  44.807   5.329   7.214
 4662POPC   C1B59671  44.309   5.048   6.184
 4662POPC   C2B59672  44.253   4.871   6.600
 4662POPC   C3B59673  44.200   4.811   7.033
 4662POPC   C4B59674  44.306   5.177   7.287
 4663POPC   NC359675   4.341  19.152   5.365
 4663POPC   PO459676   4.066  18.621   5.699
 4663POPC   GL159677   4.406  18.880   5.874
 4663POPC   GL259678   4.323  19.261   5.850
 4663POPC   C1A59679   4.575  18.873   6.315
 4663POPC   D2A59680   4.224  18.864   6.644
 4663POPC   C3A59681   4.189  19.076   7.037
 4663POPC   C4A59682   4.285  18.986   7.455
 4663POPC   C1B59683   4.262  19.256   6.256
 4663POPC   C2B59684   4.470  19.299   6.633
 4663POPC   C3B59685   4.509  19.529   6.989
 4663POPC   C4B59686   4.365  19.473   7.340
 4664POPC   NC359687  11.734  32.501   5.414
 4664POPC   PO459688  12.317  32.285   5.251
 4664POPC   GL159689  12.082  32.253   5.713
 4664POPC   GL259690  11.876  32.497   5.896
 4664POPC   C1A59691  12.122  32.159   6.184
 4664POPC   D2A59692  12.452  32.075   6.499
 4664POPC   C3A59693  12.346  32.163   6.926
 4664POPC   C4A59694  12.504  32.386   7.299
 4664POPC   C1B59695  11.870  32.677   6.292
 4664POPC   C2B59696  11.909  32.490   6.712
 4664POPC   C3B59697  12.003  32.483   7.140
 4664POPC   C4B59698  12.043  32.116   7.362
 4665POPC   NC359699  32.645  19.576   5.612
 4665POPC   PO459700  32.153  20.008   5.478
 4665POPC   GL159701  32.168  19.767   5.874
 4665POPC   GL259702  32.480  19.821   6.015
 4665POPC   C1A59703  32.008  19.804   6.326
 4665POPC   D2A59704  32.091  20.142   6.644
 4665POPC   C3A59705  32.112  20.021   7.097
 4665POPC   C4A59706  32.088  19.627   7.385
 4665POPC   C1B59707  32.735  19.565   6.293
 4665POPC   C2B59708  32.532  19.598   6.680
 4665POPC   C3B59709  32.512  19.662   7.103
 4665POPC   C4B59710  32.546  19.483   7.525
 4666POPC   NC359711  30.613  41.943   5.174
 4666POPC   PO459712  31.057  42.396   5.448
 4666POPC   GL159713  30.835  42.451   5.827
 4666POPC   GL259714  30.549  42.231   5.688
 4666POPC   C1A59715  30.981  42.578   6.265
 4666POPC   D2A59716  31.080  42.468   6.737
 4666POPC   C3A59717  30.802  42.678   7.063
 4666POPC   C4A59718  30.370  42.555   7.160
 4666POPC   C1B59719  30.650  42.021   6.094
 4666POPC   C2B59720  30.469  41.896   6.511
 4666POPC   C3B59721  30.382  42.055   6.932
 4666POPC   C4B59722  30.763  42.166   7.157
 4667POPC   NC359723   0.594  32.336   5.549
 4667POPC   PO459724   0.154  31.847   5.498
 4667POPC   GL159725   0.311  32.077   5.896
 4667POPC   GL259726   0.349  32.453   5.973
 4667POPC   C1A59727   0.291  32.110   6.349
 4667POPC   D2A59728   0.359  32.331   6.696
 4667POPC   C3A59729   0.512  32.116   7.000
 4667POPC   C4A59730   0.490  32.159   7.441
 4667POPC   C1B59731   0.741  32.330   6.233
 4667POPC   C2B59732   0.867  32.348   6.686
 4667POPC   C3B59733   0.688  32.588   7.060
 4667POPC   C4B59734   0.851  32.891   7.384
 4668POPC   NC359735   9.646  26.729   5.324
 4668POPC   PO459736  10.161  27.010   5.543
 4668POPC   GL159737   9.991  26.820   5.904
 4668POPC   GL259738   9.683  26.675   5.840
 4668POPC   C1A59739   9.933  26.780   6.363
 4668POPC   D2A59740   9.661  26.905   6.724
 4668POPC   C3A59741   9.753  26.888   7.179
 4668POPC   C4A59742   9.614  27.183   7.546
 4668POPC   C1B59743   9.637  26.379   6.166
 4668POPC   C2B59744   9.656  26.377   6.609
 4668POPC   C3B59745   9.375  26.530   6.954
 4668POPC   C4B59746   9.266  26.403   7.394
 4669POPC   NC359747  21.130  33.316   4.985
 4669POPC   PO459748  20.779  32.835   5.383
 4669POPC   GL159749  20.671  32.970   5.810
 4669POPC   GL259750  20.607  33.333   5.772
 4669POPC   C1A59751  20.731  32.980   6.276
 4669POPC   D2A59752  20.655  32.979   6.709
 4669POPC   C3A59753  20.791  32.816   7.093
 4669POPC   C4A59754  20.424  32.680   7.286
 4669POPC   C1B59755  20.419  33.383   6.202
 4669POPC   C2B59756  20.557  33.480   6.635
 4669POPC   C3B59757  20.621  33.318   7.077
 4669POPC   C4B59758  20.289  33.259   7.379
 4670POPC   NC359759   7.301  13.881   5.112
 4670POPC   PO459760   7.441  14.511   5.346
 4670POPC   GL159761   7.427  14.571   5.770
 4670POPC   GL259762   7.662  14.816   5.776
 4670POPC   C1A59763   7.557  14.431   6.178
 4670POPC   D2A59764   7.810  14.322   6.542
 4670POPC   C3A59765   7.557  14.374   6.914
 4670POPC   C4A59766   7.546  14.574   7.321
 4670POPC   C1B59767   7.597  14.956   6.196
 4670POPC   C2B59768   7.454  14.778   6.575
 4670POPC   C3B59769   7.286  14.823   6.982
 4670POPC   C4B59770   7.234  14.970   7.433
 4671POPC   NC359771   4.069  12.956   5.240
 4671POPC   PO459772   4.576  13.186   5.432
 4671POPC   GL159773   4.475  12.822   5.693
 4671POPC   GL259774   4.124  12.858   5.756
 4671POPC   C1A59775   4.512  12.541   6.075
 4671POPC   D2A59776   4.380  12.662   6.510
 4671POPC   C3A59777   4.529  12.560   6.917
 4671POPC   C4A59778   4.518  12.789   7.286
 4671POPC   C1B59779   4.009  12.629   6.123
 4671POPC   C2B59780   3.929  12.454   6.540
 4671POPC   C3B59781   3.876  12.622   6.909
 4671POPC   C4B59782   4.042  12.654   7.273
 4672POPC   NC359783   9.831  31.850   5.039
 4672POPC   PO459784   9.615  32.375   5.439
 4672POPC   GL159785   9.824  32.304   5.857
 4672POPC   GL259786   9.636  32.066   6.063
 4672POPC   C1A59787   9.888  32.424   6.291
 4672POPC   D2A59788   9.947  32.139   6.615
 4672POPC   C3A59789   9.933  32.347   6.967
 4672POPC   C4A59790   9.803  32.646   7.229
 4672POPC   C1B59791   9.352  32.354   6.320
 4672POPC   C2B59792   9.303  32.541   6.745
 4672POPC   C3B59793   9.430  32.309   7.091
 4672POPC   C4B59794   9.706  31.937   7.179
 4673POPC   NC359795  13.393  14.380   5.378
 4673POPC   PO459796  14.079  14.188   5.478
 4673POPC   GL159797  13.924  14.387   5.852
 4673POPC   GL259798  13.577  14.393   5.852
 4673POPC   C1A59799  13.797  14.503   6.296
 4673POPC   D2A59800  13.592  14.404   6.659
 4673POPC   C3A59801  13.831  14.638   6.960
 4673POPC   C4A59802  13.980  14.625   7.357
 4673POPC   C1B59803  13.558  14.060   6.177
 4673POPC   C2B59804  13.302  13.938   6.534
 4673POPC   C3B59805  13.200  14.173   6.902
 4673POPC   C4B59806  13.464  14.367   7.218
 4674POPC   NC359807  24.842  29.986   5.361
 4674POPC   PO459808  24.131  29.819   5.360
 4674POPC   GL159809  24.289  29.936   5.794
 4674POPC   GL259810  24.640  30.005   5.821
 4674POPC   C1A59811  24.369  29.817   6.250
 4674POPC   D2A59812  24.297  29.591   6.675
 4674POPC   C3A59813  24.354  29.709   7.141
 4674POPC   C4A59814  24.451  29.616   7.603
 4674POPC   C1B59815  24.715  30.211   6.218
 4674POPC   C2B59816  24.567  30.086   6.632
 4674POPC   C3B59817  24.756  29.976   7.005
 4674POPC   C4B59818  24.714  30.015   7.437
 4675POPC   NC359819  25.607  12.111   5.606
 4675POPC   PO459820  24.830  11.988   5.512
 4675POPC   GL159821  24.948  11.943   5.922
 4675POPC   GL259822  25.275  12.000   5.944
 4675POPC   C1A59823  25.007  12.162   6.336
 4675POPC   D2A59824  24.830  12.127   6.757
 4675POPC   C3A59825  25.075  12.303   7.034
 4675POPC   C4A59826  25.136  12.187   7.464
 4675POPC   C1B59827  25.542  12.070   6.290
 4675POPC   C2B59828  25.372  12.070   6.702
 4675POPC   C3B59829  25.395  11.923   7.122
 4675POPC   C4B59830  25.687  11.789   7.367
 4676POPC   NC359831  33.420  11.933   5.485
 4676POPC   PO459832  34.086  11.785   5.540
 4676POPC   GL159833  34.012  11.841   5.943
 4676POPC   GL259834  33.669  11.954   5.946
 4676POPC   C1A59835  33.979  11.950   6.375
 4676POPC   D2A59836  34.071  12.240   6.708
 4676POPC   C3A59837  34.074  11.952   7.033
 4676POPC   C4A59838  33.698  11.848   7.205
 4676POPC   C1B59839  33.561  12.272   6.274
 4676POPC   C2B59840  33.494  12.304   6.729
 4676POPC   C3B59841  33.741  12.366   7.107
 4676POPC   C4B59842  33.743  12.546   7.534
 4677POPC   NC359843  41.366  14.741   5.448
 4677POPC   PO459844  41.190  15.484   5.454
 4677POPC   GL159845  41.418  15.281   5.788
 4677POPC   GL259846  41.617  14.972   5.817
 4677POPC   C1A59847  41.529  15.293   6.211
 4677POPC   D2A59848  41.350  15.126   6.558
 4677POPC   C3A59849  41.492  15.353   6.927
 4677POPC   C4A59850  41.419  15.065   7.224
 4677POPC   C1B59851  41.750  14.626   6.071
 4677POPC   C2B59852  41.593  14.596   6.482
 4677POPC   C3B59853  41.644  14.793   6.851
 4677POPC   C4B59854  41.687  14.614   7.228
 4678POPC   NC359855   6.644  35.720   5.540
 4678POPC   PO459856   6.386  36.419   5.501
 4678POPC   GL159857   6.565  36.147   5.817
 4678POPC   GL259858   6.285  35.869   5.843
 4678POPC   C1A59859   6.918  36.038   6.149
 4678POPC   D2A59860   7.127  36.043   6.585
 4678POPC   C3A59861   6.806  36.093   6.921
 4678POPC   C4A59862   6.626  36.430   7.182
 4678POPC   C1B59863   6.390  35.995   6.261
 4678POPC   C2B59864   6.473  35.820   6.645
 4678POPC   C3B59865   6.298  36.004   7.019
 4678POPC   C4B59866   6.275  35.920   7.443
 4679POPC   NC359867  21.795   2.963   5.424
 4679POPC   PO459868  21.134   2.725   5.371
 4679POPC   GL159869  21.266   2.659   5.817
 4679POPC   GL259870  21.115   2.934   6.032
 4679POPC   C1A59871  21.479   2.537   6.221
 4679POPC   D2A59872  21.579   2.691   6.658
 4679POPC   C3A59873  21.506   2.483   7.067
 4679POPC   C4A59874  21.431   2.595   7.511
 4679POPC   C1B59875  21.510   3.043   6.291
 4679POPC   C2B59876  21.596   3.241   6.663
 4679POPC   C3B59877  21.595   3.036   7.061
 4679POPC   C4B59878  21.279   3.081   7.387
 4680POPC   NC359879   0.009  31.412   5.598
 4680POPC   PO459880  44.382  31.630   5.287
 4680POPC   GL159881  44.519  31.549   5.716
 4680POPC   GL259882  44.593  31.185   5.801
 4680POPC   C1A59883  44.720  31.734   6.086
 4680POPC   D2A59884   0.061  31.593   6.432
 4680POPC   C3A59885  44.956  31.471   6.893
 4680POPC   C4A59886  44.730  31.742   7.195
 4680POPC   C1B59887  44.642  31.272   6.260
 4680POPC   C2B59888  44.523  31.560   6.623
 4680POPC   C3B59889  44.477  31.330   7.042
 4680POPC   C4B59890  44.505  31.323   7.521
 4681POPC   NC359891  22.943  11.094   5.517
 4681POPC   PO459892  22.909  11.749   5.597
 4681POPC   GL159893  22.626  11.562   5.920
 4681POPC   GL259894  22.693  11.170   5.938
 4681POPC   C1A59895  22.684  11.464   6.367
 4681POPC   D2A59896  22.732  11.093   6.620
 4681POPC   C3A59897  22.735  11.246   7.040
 4681POPC   C4A59898  22.681  11.668   7.212
 4681POPC   C1B59899  23.073  11.177   6.192
 4681POPC   C2B59900  23.232  11.414   6.540
 4681POPC   C3B59901  23.146  11.547   6.950
 4681POPC   C4B59902  23.175  11.259   7.312
 4682POPC   NC359903  30.878  38.009   5.544
 4682POPC   PO459904  30.788  37.373   5.372
 4682POPC   GL159905  30.520  37.624   5.697
 4682POPC   GL259906  30.412  37.341   5.864
 4682POPC   C1A59907  30.496  37.766   6.182
 4682POPC   D2A59908  30.790  37.845   6.577
 4682POPC   C3A59909  30.706  37.784   7.060
 4682POPC   C4A59910  30.982  37.826   7.453
 4682POPC   C1B59911  30.232  37.291   6.279
 4682POPC   C2B59912  30.412  37.488   6.656
 4682POPC   C3B59913  30.527  37.306   7.091
 4682POPC   C4B59914  30.663  37.444   7.513
 4683POPC   NC359915  25.781  38.833   5.473
 4683POPC   PO459916  26.417  39.085   5.550
 4683POPC   GL159917  26.100  39.026   5.825
 4683POPC   GL259918  25.930  39.358   5.924
 4683POPC   C1A59919  25.990  38.964   6.223
 4683POPC   D2A59920  25.816  39.239   6.501
 4683POPC   C3A59921  26.059  39.193   6.836
 4683POPC   C4A59922  26.034  39.093   7.238
 4683POPC   C1B59923  26.292  39.374   6.271
 4683POPC   C2B59924  26.498  39.407   6.707
 4683POPC   C3B59925  26.413  39.450   7.162
 4683POPC   C4B59926  26.137  39.530   7.520
 4684POPC   NC359927   5.217   3.677   5.335
 4684POPC   PO459928   4.750   3.191   5.587
 4684POPC   GL159929   5.135   3.424   5.783
 4684POPC   GL259930   5.196   3.809   5.828
 4684POPC   C1A59931   5.040   3.503   6.203
 4684POPC   D2A59932   5.136   3.354   6.566
 4684POPC   C3A59933   5.027   3.624   6.875
 4684POPC   C4A59934   5.026   3.602   7.303
 4684POPC   C1B59935   5.499   3.776   6.191
 4684POPC   C2B59936   5.533   3.690   6.650
 4684POPC   C3B59937   5.481   3.870   7.069
 4684POPC   C4B59938   5.419   3.832   7.533
 4685POPC   NC359939  24.242  14.080   5.502
 4685POPC   PO459940  24.754  14.475   5.325
 4685POPC   GL159941  24.578  14.482   5.770
 4685POPC   GL259942  24.376  14.210   5.953
 4685POPC   C1A59943  24.484  14.592   6.226
 4685POPC   D2A59944  24.260  14.412   6.544
 4685POPC   C3A59945  24.487  14.414   6.911
 4685POPC   C4A59946  24.298  14.446   7.268
 4685POPC   C1B59947  24.532  14.020   6.306
 4685POPC   C2B59948  24.639  13.935   6.713
 4685POPC   C3B59949  24.756  14.005   7.116
 4685POPC   C4B59950  24.502  14.037   7.482
 4686POPC   NC359951   7.578   6.041   5.371
 4686POPC   PO459952   6.978   5.961   5.605
 4686POPC   GL159953   7.351   6.051   5.833
 4686POPC   GL259954   7.623   5.777   5.807
 4686POPC   C1A59955   7.328   6.116   6.258
 4686POPC   D2A59956   7.151   6.359   6.614
 4686POPC   C3A59957   7.362   6.268   6.993
 4686POPC   C4A59958   7.448   6.120   7.396
 4686POPC   C1B59959   7.327   5.606   6.108
 4686POPC   C2B59960   7.358   5.453   6.519
 4686POPC   C3B59961   7.275   5.699   6.892
 4686POPC   C4B59962   7.373   5.625   7.317
 4687POPC   NC359963   5.635  13.052   5.420
 4687POPC   PO459964   5.939  12.452   5.402
 4687POPC   GL159965   5.874  12.706   5.715
 4687POPC   GL259966   5.537  12.600   5.764
 4687POPC   C1A59967   5.843  13.003   6.071
 4687POPC   D2A59968   6.133  13.171   6.389
 4687POPC   C3A59969   6.069  13.103   6.848
 4687POPC   C4A59970   5.754  13.177   7.177
 4687POPC   C1B59971   5.770  12.497   6.155
 4687POPC   C2B59972   5.839  12.742   6.529
 4687POPC   C3B59973   5.790  12.705   6.969
 4687POPC   C4B59974   5.695  12.694   7.417
 4688POPC   NC359975  43.620  16.891   5.027
 4688POPC   PO459976  44.193  16.779   5.351
 4688POPC   GL159977  44.134  16.683   5.786
 4688POPC   GL259978  44.482  16.551   5.810
 4688POPC   C1A59979  43.821  16.650   6.159
 4688POPC   D2A59980  43.618  16.739   6.596
 4688POPC   C3A59981  43.733  16.564   7.007
 4688POPC   C4A59982  43.860  16.794   7.378
 4688POPC   C1B59983  44.319  16.465   6.229
 4688POPC   C2B59984  44.144  16.701   6.561
 4688POPC   C3B59985  44.207  16.747   6.978
 4688POPC   C4B59986  44.203  16.414   7.266
 4689POPC   NC359987  19.522  39.028   5.420
 4689POPC   PO459988  19.996  39.290   5.341
 4689POPC   GL159989  20.024  39.343   5.779
 4689POPC   GL259990  19.865  39.027   5.833
 4689POPC   C1A59991  20.137  39.199   6.232
 4689POPC   D2A59992  19.931  38.918   6.564
 4689POPC   C3A59993  19.963  39.090   6.991
 4689POPC   C4A59994  20.028  39.482   7.177
 4689POPC   C1B59995  19.630  39.221   6.192
 4689POPC   C2B59996  19.575  39.277   6.660
 4689POPC   C3B59997  19.527  39.335   7.113
 4689POPC   C4B59998  19.482  39.614   7.464
 4690POPC   NC359999  38.109  40.999   5.461
 4690POPC   PO460000  38.532  40.552   5.361
 4690POPC   GL160001  38.553  40.693   5.760
 4690POPC   GL260002  38.876  40.553   5.855
 4690POPC   C1A60003  38.416  40.967   6.075
 4690POPC   D2A60004  38.512  41.102   6.504
 4690POPC   C3A60005  38.257  40.922   6.797
 4690POPC   C4A60006  38.367  40.781   7.195
 4690POPC   C1B60007  38.669  40.417   6.194
 4690POPC   C2B60008  38.508  40.588   6.498
 4690POPC   C3B60009  38.618  40.500   6.862
 4690POPC   C4B60010  38.536  40.244   7.148
 4691POPC   NC360011  15.120  32.606   5.563
 4691POPC   PO460012  14.787  32.048   5.561
 4691POPC   GL160013  14.965  31.903   5.897
 4691POPC   GL260014  15.240  32.163   5.874
 4691POPC   C1A60015  14.969  32.038   6.315
 4691POPC   D2A60016  14.951  32.392   6.575
 4691POPC   C3A60017  15.032  32.418   6.999
 4691POPC   C4A60018  15.033  32.126   7.308
 4691POPC   C1B60019  15.355  32.398   6.263
 4691POPC   C2B60020  15.541  32.481   6.684
 4691POPC   C3B60021  15.508  32.270   7.085
 4691POPC   C4B60022  15.362  32.475   7.440
 4692POPC   NC360023  25.198  14.588   5.295
 4692POPC   PO460024  25.644  14.083   5.486
 4692POPC   GL160025  25.393  14.331   5.802
 4692POPC   GL260026  25.097  14.513   5.778
 4692POPC   C1A60027  25.384  14.476   6.243
 4692POPC   D2A60028  25.526  14.351   6.660
 4692POPC   C3A60029  25.513  14.602   7.016
 4692POPC   C4A60030  25.344  14.386   7.374
 4692POPC   C1B60031  24.911  14.332   6.133
 4692POPC   C2B60032  24.858  14.450   6.555
 4692POPC   C3B60033  25.019  14.407   6.970
 4692POPC   C4B60034  24.834  14.430   7.397
 4693POPC   NC360035   5.247  38.413   5.531
 4693POPC   PO460036   4.545  38.369   5.464
 4693POPC   GL160037   4.851  38.233   5.812
 4693POPC   GL260038   4.932  38.555   5.933
 4693POPC   C1A60039   5.071  38.192   6.249
 4693POPC   D2A60040   5.258  38.121   6.671
 4693POPC   C3A60041   4.934  38.222   6.973
 4693POPC   C4A60042   4.782  38.615   7.113
 4693POPC   C1B60043   5.355  38.613   6.151
 4693POPC   C2B60044   5.482  38.605   6.588
 4693POPC   C3B60045   5.268  38.630   6.957
 4693POPC   C4B60046   5.162  38.907   7.278
 4694POPC   NC360047   2.362   7.914   5.487
 4694POPC   PO460048   3.092   7.823   5.547
 4694POPC   GL160049   2.978   8.110   5.881
 4694POPC   GL260050   2.859   8.498   5.832
 4694POPC   C1A60051   3.182   8.085   6.241
 4694POPC   D2A60052   3.000   7.952   6.617
 4694POPC   C3A60053   2.903   8.218   6.959
 4694POPC   C4A60054   3.179   8.224   7.305
 4694POPC   C1B60055   2.777   8.419   6.273
 4694POPC   C2B60056   2.525   8.083   6.454
 4694POPC   C3B60057   2.462   7.970   6.869
 4694POPC   C4B60058   2.383   8.185   7.245
 4695POPC   NC360059  36.121   7.808   5.394
 4695POPC   PO460060  36.326   8.490   5.394
 4695POPC   GL160061  36.101   8.227   5.720
 4695POPC   GL260062  36.244   7.919   5.857
 4695POPC   C1A60063  35.972   8.292   6.162
 4695POPC   D2A60064  36.060   8.520   6.572
 4695POPC   C3A60065  35.896   8.237   6.906
 4695POPC   C4A60066  36.011   8.249   7.316
 4695POPC   C1B60067  36.413   7.960   6.217
 4695POPC   C2B60068  36.245   8.040   6.575
 4695POPC   C3B60069  36.399   8.199   6.946
 4695POPC   C4B60070  36.445   7.981   7.289
 4696POPC   NC360071  12.919  13.320   5.345
 4696POPC   PO460072  12.450  13.714   5.466
 4696POPC   GL160073  12.831  13.688   5.745
 4696POPC   GL260074  13.058  13.381   5.833
 4696POPC   C1A60075  12.931  13.730   6.203
 4696POPC   D2A60076  13.015  13.500   6.605
 4696POPC   C3A60077  12.927  13.740   6.988
 4696POPC   C4A60078  13.148  13.869   7.324
 4696POPC   C1B60079  12.833  13.203   6.199
 4696POPC   C2B60080  12.555  13.226   6.557
 4696POPC   C3B60081  12.670  13.295   6.982
 4696POPC   C4B60082  12.989  13.191   7.264
 4697POPC   NC360083  32.530  20.453   5.445
 4697POPC   PO460084  32.088  21.003   5.399
 4697POPC   GL160085  32.147  20.882   5.831
 4697POPC   GL260086  32.415  20.808   5.825
 4697POPC   C1A60087  32.180  20.513   6.174
 4697POPC   D2A60088  32.565  20.378   6.472
 4697POPC   C3A60089  32.447  20.406   6.919
 4697POPC   C4A60090  32.000  20.539   6.974
 4697POPC   C1B60091  32.514  20.871   6.284
 4697POPC   C2B60092  32.594  20.865   6.740
 4697POPC   C3B60093  32.386  20.878   7.178
 4697POPC   C4B60094  32.501  20.787   7.654
 4698POPC   NC360095   9.510  12.221   5.482
 4698POPC   PO460096   9.989  11.806   5.325
 4698POPC   GL160097   9.834  11.853   5.786
 4698POPC   GL260098   9.546  11.982   5.937
 4698POPC   C1A60099   9.981  11.952   6.258
 4698POPC   D2A60100  10.220  11.750   6.612
 4698POPC   C3A60101  10.035  11.710   7.039
 4698POPC   C4A60102   9.731  11.970   7.262
 4698POPC   C1B60103   9.463  12.104   6.371
 4698POPC   C2B60104   9.412  12.149   6.830
 4698POPC   C3B60105   9.185  12.307   7.183
 4698POPC   C4B60106   9.431  12.292   7.563
 4699POPC   NC360107  13.624  30.696   5.248
 4699POPC   PO460108  13.695  30.185   5.639
 4699POPC   GL160109  13.639  30.603   5.769
 4699POPC   GL260110  13.355  30.788   5.692
 4699POPC   C1A60111  13.576  30.747   6.178
 4699POPC   D2A60112  13.724  30.858   6.587
 4699POPC   C3A60113  13.685  30.549   6.910
 4699POPC   C4A60114  13.823  30.497   7.323
 4699POPC   C1B60115  13.160  31.015   6.040
 4699POPC   C2B60116  13.127  30.944   6.467
 4699POPC   C3B60117  13.255  30.854   6.863
 4699POPC   C4B60118  13.360  30.739   7.274
 4700POPC   NC360119   9.296   3.576   5.442
 4700POPC   PO460120   8.715   3.255   5.425
 4700POPC   GL160121   8.927   3.361   5.796
 4700POPC   GL260122   8.830   3.690   5.841
 4700POPC   C1A60123   9.169   3.498   6.197
 4700POPC   D2A60124   9.041   3.776   6.568
 4700POPC   C3A60125   9.101   3.635   7.012
 4700POPC   C4A60126   9.150   3.822   7.428
 4700POPC   C1B60127   8.662   3.533   6.236
 4700POPC   C2B60128   8.548   3.654   6.656
 4700POPC   C3B60129   8.589   3.707   7.088
 4700POPC   C4B60130   8.735   3.333   7.311
 4701POPC   NC360131  34.809  20.857   5.393
 4701POPC   PO460132  35.472  20.758   5.314
 4701POPC   GL160133  35.442  20.735   5.749
 4701POPC   GL260134  35.118  20.609   5.736
 4701POPC   C1A60135  35.453  20.569   6.190
 4701POPC   D2A60136  35.604  20.668   6.602
 4701POPC   C3A60137  35.382  20.458   6.894
 4701POPC   C4A60138  35.311  20.179   7.241
 4701POPC   C1B60139  34.965  20.798   6.108
 4701POPC   C2B60140  35.035  20.627   6.529
 4701POPC   C3B60141  35.023  20.811   6.945
 4701POPC   C4B60142  35.225  20.699   7.311
 4702POPC   NC360143  35.220   3.932   5.537
 4702POPC   PO460144  35.623   3.484   5.428
 4702POPC   GL160145  35.435   3.536   5.794
 4702POPC   GL260146  35.649   3.801   5.861
 4702POPC   C1A60147  35.246   3.634   6.181
 4702POPC   D2A60148  35.321   3.463   6.570
 4702POPC   C3A60149  35.184   3.698   6.917
 4702POPC   C4A60150  35.152   3.490   7.278
 4702POPC   C1B60151  35.769   3.715   6.276
 4702POPC   C2B60152  35.836   3.450   6.629
 4702POPC   C3B60153  35.640   3.446   7.021
 4702POPC   C4B60154  35.605   3.774   7.321
 4703POPC   NC360155   9.598   5.228   5.526
 4703POPC   PO460156  10.171   4.805   5.454
 4703POPC   GL160157   9.909   4.865   5.807
 4703POPC   GL260158   9.582   4.693   5.753
 4703POPC   C1A60159  10.053   4.990   6.212
 4703POPC   D2A60160   9.869   5.188   6.552
 4703POPC   C3A60161   9.967   5.162   6.972
 4703POPC   C4A60162   9.692   5.225   7.335
 4703POPC   C1B60163   9.523   4.908   6.147
 4703POPC   C2B60164   9.547   4.777   6.565
 4703POPC   C3B60165   9.481   4.955   6.961
 4703POPC   C4B60166   9.248   4.877   7.342
 4704POPC   NC360167   3.945   0.718   5.641
 4704POPC   PO460168   4.062   0.019   5.585
 4704POPC   GL160169   4.118   0.290   5.902
 4704POPC   GL260170   4.470   0.421   5.893
 4704POPC   C1A60171   4.157   0.425   6.323
 4704POPC   D2A60172   4.447   0.440   6.661
 4704POPC   C3A60173   4.179   0.389   6.988
 4704POPC   C4A60174   4.003   0.521   7.355
 4704POPC   C1B60175   4.633   0.713   6.238
 4704POPC   C2B60176   4.637   0.921   6.666
 4704POPC   C3B60177   4.785   0.670   7.024
 4704POPC   C4B60178   4.554   0.455   7.320
 4705POPC   NC360179  23.780  12.533   5.621
 4705POPC   PO460180  23.937  13.242   5.641
 4705POPC   GL160181  23.682  12.965   5.889
 4705POPC   GL260182  23.992  12.840   5.991
 4705POPC   C1A60183  23.576  12.682   6.268
 4705POPC   D2A60184  23.371  12.412   6.606
 4705POPC   C3A60185  23.314  12.670   6.943
 4705POPC   C4A60186  23.516  13.021   7.141
 4705POPC   C1B60187  24.077  12.486   6.251
 4705POPC   C2B60188  23.891  12.469   6.650
 4705POPC   C3B60189  24.073  12.670   7.020
 4705POPC   C4B60190  24.023  13.090   7.153
 4706POPC   NC360191   0.915   4.246   5.475
 4706POPC   PO460192   1.440   4.684   5.436
 4706POPC   GL160193   1.317   4.432   5.779
 4706POPC   GL260194   1.004   4.622   5.790
 4706POPC   C1A60195   1.475   4.259   6.183
 4706POPC   D2A60196   1.266   4.206   6.600
 4706POPC   C3A60197   1.250   3.897   6.877
 4706POPC   C4A60198   1.651   3.912   7.069
 4706POPC   C1B60199   0.991   4.418   6.193
 4706POPC   C2B60200   0.883   4.533   6.619
 4706POPC   C3B60201   0.865   4.284   6.982
 4706POPC   C4B60202   1.174   4.201   7.277
 4707POPC   NC360203  32.672  28.366   5.280
 4707POPC   PO460204  32.015  28.227   5.354
 4707POPC   GL160205  32.269  28.275   5.744
 4707POPC   GL260206  32.614  28.123   5.722
 4707POPC   C1A60207  32.160  28.320   6.199
 4707POPC   D2A60208  31.840  28.143   6.509
 4707POPC   C3A60209  32.028  28.117   6.908
 4707POPC   C4A60210  32.175  28.434   7.181
 4707POPC   C1B60211  32.665  28.025   6.147
 4707POPC   C2B60212  32.487  28.062   6.541
 4707POPC   C3B60213  32.588  28.178   6.942
 4707POPC   C4B60214  32.421  28.003   7.305
 4708POPC   NC360215  29.488  13.567   5.517
 4708POPC   PO460216  28.890  13.236   5.469
 4708POPC   GL160217  28.973  13.417   5.874
 4708POPC   GL260218  29.310  13.545   5.977
 4708POPC   C1A60219  28.896  13.731   6.189
 4708POPC   D2A60220  29.209  13.808   6.513
 4708POPC   C3A60221  29.021  13.851   6.947
 4708POPC   C4A60222  29.037  13.834   7.414
 4708POPC   C1B60223  29.636  13.435   6.241
 4708POPC   C2B60224  29.745  13.621   6.585
 4708POPC   C3B60225  29.540  13.785   6.911
 4708POPC   C4B60226  29.419  13.567   7.263
 4709POPC   NC360227  12.521  25.396   5.363
 4709POPC   PO460228  12.986  24.942   5.238
 4709POPC   GL160229  12.785  25.063   5.653
 4709POPC   GL260230  12.853  25.422   5.765
 4709POPC   C1A60231  12.694  25.065   6.114
 4709POPC   D2A60232  12.499  25.002   6.530
 4709POPC   C3A60233  12.613  25.134   6.955
 4709POPC   C4A60234  12.987  25.099   7.193
 4709POPC   C1B60235  12.673  25.587   6.178
 4709POPC   C2B60236  12.822  25.419   6.554
 4709POPC   C3B60237  13.029  25.537   6.919
 4709POPC   C4B60238  12.740  25.584   7.237
 4710POPC   NC360239  14.091  27.459   5.567
 4710POPC   PO460240  14.604  27.825   5.288
 4710POPC   GL160241  14.431  27.797   5.739
 4710POPC   GL260242  14.519  27.463   5.892
 4710POPC   C1A60243  14.315  27.771   6.224
 4710POPC   D2A60244  14.262  27.931   6.677
 4710POPC   C3A60245  14.190  27.666   7.050
 4710POPC   C4A60246  14.314  27.628   7.527
 4710POPC   C1B60247  14.705  27.404   6.319
 4710POPC   C2B60248  14.630  27.562   6.743
 4710POPC   C3B60249  14.648  27.434   7.151
 4710POPC   C4B60250  14.838  27.226   7.493
 4711POPC   NC360251   0.300  36.813   5.517
 4711POPC   PO460252  44.604  36.889   5.424
 4711POPC   GL160253  44.718  37.039   5.841
 4711POPC   GL260254   0.051  37.170   5.832
 4711POPC   C1A60255  44.544  37.179   6.217
 4711POPC   D2A60256  44.254  37.071   6.500
 4711POPC   C3A60257  44.382  37.196   6.881
 4711POPC   C4A60258  44.579  36.900   7.141
 4711POPC   C1B60259   0.018  36.993   6.276
 4711POPC   C2B60260  44.841  37.050   6.697
 4711POPC   C3B60261   0.046  37.129   7.128
 4711POPC   C4B60262   0.417  36.890   7.302
 4712POPC   NC360263   1.523  32.499   5.428
 4712POPC   PO460264   0.974  32.090   5.469
 4712POPC   GL160265   1.168  32.140   5.875
 4712POPC   GL260266   1.496  31.968   5.963
 4712POPC   C1A60267   1.093  31.942   6.293
 4712POPC   D2A60268   1.403  31.947   6.640
 4712POPC   C3A60269   1.279  32.211   6.964
 4712POPC   C4A60270   0.952  32.207   7.228
 4712POPC   C1B60271   1.449  32.312   6.276
 4712POPC   C2B60272   1.327  32.607   6.618
 4712POPC   C3B60273   1.208  32.710   7.050
 4712POPC   C4B60274   1.287  32.545   7.451
 4713POPC   NC360275   3.590  35.118   5.428
 4713POPC   PO460276   3.301  35.733   5.448
 4713POPC   GL160277   3.629  35.514   5.773
 4713POPC   GL260278   3.522  35.211   5.916
 4713POPC   C1A60279   3.882  35.501   6.193
 4713POPC   D2A60280   4.011  35.456   6.659
 4713POPC   C3A60281   3.692  35.299   7.000
 4713POPC   C4A60282   3.308  35.448   7.214
 4713POPC   C1B60283   3.354  35.013   6.281
 4713POPC   C2B60284   3.447  34.994   6.691
 4713POPC   C3B60285   3.359  34.918   7.117
 4713POPC   C4B60286   3.468  34.843   7.558
 4714POPC   NC360287  13.748   4.763   5.385
 4714POPC   PO460288  13.574   5.321   5.422
 4714POPC   GL160289  13.668   5.191   5.838
 4714POPC   GL260290  13.544   4.874   5.842
 4714POPC   C1A60291  13.573   5.093   6.297
 4714POPC   D2A60292  13.440   5.207   6.714
 4714POPC   C3A60293  13.618   5.089   7.106
 4714POPC   C4A60294  13.872   4.937   7.430
 4714POPC   C1B60295  13.238   4.746   6.148
 4714POPC   C2B60296  13.376   4.666   6.580
 4714POPC   C3B60297  13.232   4.774   6.986
 4714POPC   C4B60298  13.352   4.800   7.432
 4715POPC   NC360299  43.365  18.715   5.502
 4715POPC   PO460300  43.054  19.346   5.398
 4715POPC   GL160301  43.193  19.152   5.795
 4715POPC   GL260302  42.968  18.875   5.816
 4715POPC   C1A60303  43.172  19.095   6.254
 4715POPC   D2A60304  43.147  19.340   6.637
 4715POPC   C3A60305  43.150  19.079   6.991
 4715POPC   C4A60306  42.966  19.249   7.339
 4715POPC   C1B60307  42.871  18.666   6.191
 4715POPC   C2B60308  43.082  18.659   6.592
 4715POPC   C3B60309  42.932  18.601   7.014
 4715POPC   C4B60310  43.060  18.721   7.450
 4716POPC   NC360311  32.404   5.697   5.604
 4716POPC   PO460312  31.841   5.990   5.373
 4716POPC   GL160313  32.102   6.116   5.809
 4716POPC   GL260314  32.420   5.936   6.040
 4716POPC   C1A60315  31.986   6.042   6.261
 4716POPC   D2A60316  32.265   6.073   6.610
 4716POPC   C3A60317  32.090   5.958   6.991
 4716POPC   C4A60318  31.928   5.536   7.093
 4716POPC   C1B60319  32.295   5.598   6.364
 4716POPC   C2B60320  32.357   5.561   6.815
 4716POPC   C3B60321  32.603   5.850   7.106
 4716POPC   C4B60322  32.745   5.886   7.564
 4717POPC   NC360323  38.092  14.853   5.384
 4717POPC   PO460324  38.757  14.646   5.411
 4717POPC   GL160325  38.586  14.459   5.805
 4717POPC   GL260326  38.302  14.570   5.764
 4717POPC   C1A60327  38.426  14.277   6.184
 4717POPC   D2A60328  38.209  14.137   6.554
 4717POPC   C3A60329  38.420  14.291   6.933
 4717POPC   C4A60330  38.738  14.382   7.276
 4717POPC   C1B60331  38.270  14.782   6.145
 4717POPC   C2B60332  38.142  14.629   6.552
 4717POPC   C3B60333  38.187  14.757   6.971
 4717POPC   C4B60334  38.228  14.526   7.349
 4718POPC   NC360335  20.435  37.102   5.436
 4718POPC   PO460336  21.023  36.823   5.227
 4718POPC   GL160337  20.763  36.699   5.642
 4718POPC   GL260338  20.707  37.006   5.869
 4718POPC   C1A60339  20.603  36.562   6.090
 4718POPC   D2A60340  20.576  36.787   6.477
 4718POPC   C3A60341  20.666  36.683   6.901
 4718POPC   C4A60342  20.540  36.685   7.309
 4718POPC   C1B60343  20.293  37.001   6.104
 4718POPC   C2B60344  20.207  37.130   6.573
 4718POPC   C3B60345  20.275  37.019   7.011
 4718POPC   C4B60346  20.264  37.100   7.472
 4719POPC   NC360347  30.173  28.538   5.183
 4719POPC   PO460348  30.227  29.165   5.349
 4719POPC   GL160349  29.932  29.185   5.735
 4719POPC   GL260350  29.671  29.439   5.823
 4719POPC   C1A60351  29.908  29.037   6.183
 4719POPC   D2A60352  29.871  29.198   6.608
 4719POPC   C3A60353  29.912  28.938   6.960
 4719POPC   C4A60354  30.219  28.920   7.289
 4719POPC   C1B60355  29.813  29.596   6.252
 4719POPC   C2B60356  29.569  29.621   6.645
 4719POPC   C3B60357  29.580  29.428   7.029
 4719POPC   C4B60358  29.880  29.309   7.305
 4720POPC   NC360359  20.382  25.064   5.421
 4720POPC   PO460360  21.017  25.151   5.178
 4720POPC   GL160361  20.867  25.012   5.684
 4720POPC   GL260362  20.594  25.210   5.887
 4720POPC   C1A60363  20.859  24.916   6.203
 4720POPC   D2A60364  20.885  25.118   6.652
 4720POPC   C3A60365  20.580  25.111   7.012
 4720POPC   C4A60366  20.586  25.356   7.399
 4720POPC   C1B60367  20.495  25.520   6.232
 4720POPC   C2B60368  20.510  25.486   6.666
 4720POPC   C3B60369  20.424  25.674   7.039
 4720POPC   C4B60370  20.729  25.836   7.292
 4721POPC   NC360371   8.578  41.583   5.243
 4721POPC   PO460372   7.925  41.337   5.403
 4721POPC   GL160373   8.135  41.286   5.793
 4721POPC   GL260374   8.198  41.646   5.858
 4721POPC   C1A60375   8.170  41.287   6.252
 4721POPC   D2A60376   7.854  41.484   6.514
 4721POPC   C3A60377   8.009  41.640   6.869
 4721POPC   C4A60378   7.822  41.599   7.274
 4721POPC   C1B60379   8.254  41.794   6.294
 4721POPC   C2B60380   8.512  41.545   6.597
 4721POPC   C3B60381   8.499  41.525   7.025
 4721POPC   C4B60382   8.255  41.815   7.276
 4722POPC   NC360383  11.418   4.631   5.640
 4722POPC   PO460384  11.276   5.193   5.198
 4722POPC   GL160385  11.398   5.190   5.716
 4722POPC   GL260386  11.582   4.970   5.966
 4722POPC   C1A60387  11.142   5.143   6.147
 4722POPC   D2A60388  11.291   5.123   6.582
 4722POPC   C3A60389  11.092   5.192   6.975
 4722POPC   C4A60390  11.140   5.178   7.425
 4722POPC   C1B60391  11.645   5.312   6.247
 4722POPC   C2B60392  11.767   5.278   6.682
 4722POPC   C3B60393  11.784   4.991   7.012
 4722POPC   C4B60394  11.696   4.773   7.379
 4723POPC   NC360395  22.452  17.831   5.485
 4723POPC   PO460396  22.629  17.175   5.505
 4723POPC   GL160397  22.372  17.403   5.854
 4723POPC   GL260398  22.237  17.738   5.942
 4723POPC   C1A60399  22.275  17.401   6.309
 4723POPC   D2A60400  22.418  17.388   6.725
 4723POPC   C3A60401  22.333  17.752   6.984
 4723POPC   C4A60402  22.022  17.500   7.177
 4723POPC   C1B60403  21.889  17.749   6.248
 4723POPC   C2B60404  21.921  17.694   6.691
 4723POPC   C3B60405  21.855  17.962   7.060
 4723POPC   C4B60406  21.812  17.819   7.502
 4724POPC   NC360407  28.615  40.727   5.406
 4724POPC   PO460408  28.106  41.089   5.512
 4724POPC   GL160409  28.222  40.967   5.896
 4724POPC   GL260410  28.557  41.080   5.882
 4724POPC   C1A60411  28.244  40.629   6.205
 4724POPC   D2A60412  28.379  40.452   6.586
 4724POPC   C3A60413  28.223  40.513   7.000
 4724POPC   C4A60414  28.596  40.611   7.170
 4724POPC   C1B60415  28.674  40.954   6.272
 4724POPC   C2B60416  28.478  40.954   6.650
 4724POPC   C3B60417  28.303  41.038   7.031
 4724POPC   C4B60418  28.600  41.113   7.344
 4725POPC   NC360419  22.856   4.689   5.217
 4725POPC   PO460420  22.506   5.151   5.580
 4725POPC   GL160421  22.804   5.309   5.896
 4725POPC   GL260422  23.124   5.118   5.838
 4725POPC   C1A60423  22.904   5.306   6.339
 4725POPC   D2A60424  23.006   5.031   6.649
 4725POPC   C3A60425  22.772   5.065   6.971
 4725POPC   C4A60426  22.792   5.308   7.301
 4725POPC   C1B60427  23.324   5.033   6.232
 4725POPC   C2B60428  23.353   4.673   6.529
 4725POPC   C3B60429  23.170   4.650   6.960
 4725POPC   C4B60430  23.190   4.957   7.273
 4726POPC   NC360431  21.196  34.035   5.437
 4726POPC   PO460432  21.530  33.412   5.468
 4726POPC   GL160433  21.371  33.646   5.771
 4726POPC   GL260434  21.539  33.956   5.821
 4726POPC   C1A60435  21.460  33.587   6.194
 4726POPC   D2A60436  21.548  33.349   6.529
 4726POPC   C3A60437  21.408  33.594   6.844
 4726POPC   C4A60438  21.462  33.517   7.261
 4726POPC   C1B60439  21.508  34.096   6.259
 4726POPC   C2B60440  21.508  34.119   6.730
 4726POPC   C3B60441  21.364  34.015   7.138
 4726POPC   C4B60442  21.417  34.079   7.586
 4727POPC   NC360443  20.189  12.317   5.218
 4727POPC   PO460444  19.729  11.880   5.528
 4727POPC   GL160445  19.675  12.103   5.846
 4727POPC   GL260446  19.411  12.349   5.748
 4727POPC   C1A60447  19.850  12.029   6.303
 4727POPC   D2A60448  19.958  12.145   6.736
 4727POPC   C3A60449  20.046  11.925   7.114
 4727POPC   C4A60450  19.711  11.821   7.460
 4727POPC   C1B60451  19.558  12.427   6.176
 4727POPC   C2B60452  19.684  12.524   6.540
 4727POPC   C3B60453  19.572  12.397   6.933
 4727POPC   C4B60454  19.774  12.309   7.290
 4728POPC   NC360455  34.214  13.913   5.176
 4728POPC   PO460456  34.536  13.443   5.537
 4728POPC   GL160457  34.535  13.540   5.954
 4728POPC   GL260458  34.774  13.757   5.911
 4728POPC   C1A60459  34.454  13.615   6.386
 4728POPC   D2A60460  34.686  13.419   6.724
 4728POPC   C3A60461  34.375  13.235   6.929
 4728POPC   C4A60462  34.231  13.565   7.158
 4728POPC   C1B60463  34.949  13.713   6.328
 4728POPC   C2B60464  34.774  13.914   6.696
 4728POPC   C3B60465  34.767  13.856   7.121
 4728POPC   C4B60466  34.614  14.045   7.514
 4729POPC   NC360467  28.565   2.742   5.196
 4729POPC   PO460468  28.097   2.985   5.611
 4729POPC   GL160469  28.340   2.784   5.926
 4729POPC   GL260470  28.622   2.615   5.743
 4729POPC   C1A60471  28.374   2.813   6.392
 4729POPC   D2A60472  28.319   3.098   6.747
 4729POPC   C3A60473  28.306   2.902   7.133
 4729POPC   C4A60474  28.174   2.881   7.575
 4729POPC   C1B60475  28.545   2.369   6.137
 4729POPC   C2B60476  28.450   2.290   6.560
 4729POPC   C3B60477  28.318   2.212   6.984
 4729POPC   C4B60478  28.323   2.433   7.370
 4730POPC   NC360479  44.335  26.169   5.393
 4730POPC   PO460480   0.019  26.046   5.425
 4730POPC   GL160481  44.699  26.012   5.703
 4730POPC   GL260482  44.708  25.723   5.909
 4730POPC   C1A60483  44.706  26.203   6.056
 4730POPC   D2A60484  44.756  26.260   6.483
 4730POPC   C3A60485  44.495  26.136   6.818
 4730POPC   C4A60486  44.472  26.209   7.248
 4730POPC   C1B60487  44.553  25.796   6.332
 4730POPC   C2B60488  44.335  25.663   6.700
 4730POPC   C3B60489  44.590  25.607   7.053
 4730POPC   C4B60490  44.563  25.683   7.485
 4731POPC   NC360491   8.429   1.521   5.226
 4731POPC   PO460492   7.997   1.064   5.473
 4731POPC   GL160493   7.863   1.192   5.896
 4731POPC   GL260494   8.197   1.201   5.958
 4731POPC   C1A60495   7.938   1.275   6.379
 4731POPC   D2A60496   7.755   1.375   6.811
 4731POPC   C3A60497   7.981   1.238   7.203
 4731POPC   C4A60498   7.948   1.384   7.638
 4731POPC   C1B60499   8.459   1.199   6.299
 4731POPC   C2B60500   8.419   1.266   6.717
 4731POPC   C3B60501   8.485   1.058   7.103
 4731POPC   C4B60502   8.521   0.992   7.546
 4732POPC   NC360503  43.925  34.674   5.399
 4732POPC   PO460504  43.211  34.681   5.291
 4732POPC   GL160505  43.008  34.589   5.670
 4732POPC   GL260506  43.303  34.378   5.765
 4732POPC   C1A60507  42.858  34.837   6.048
 4732POPC   D2A60508  42.910  34.766   6.498
 4732POPC   C3A60509  42.602  34.750   6.838
 4732POPC   C4A60510  42.508  34.482   7.229
 4732POPC   C1B60511  43.289  34.596   6.169
 4732POPC   C2B60512  43.248  34.388   6.578
 4732POPC   C3B60513  43.318  34.498   6.990
 4732POPC   C4B60514  43.207  34.371   7.366
 4733POPC   NC360515   2.888   2.031   5.579
 4733POPC   PO460516   2.360   1.595   5.426
 4733POPC   GL160517   2.628   1.560   5.822
 4733POPC   GL260518   2.514   1.854   5.974
 4733POPC   C1A60519   2.985   1.753   6.146
 4733POPC   D2A60520   3.056   2.126   6.390
 4733POPC   C3A60521   3.036   2.090   6.829
 4733POPC   C4A60522   3.048   2.169   7.248
 4733POPC   C1B60523   2.593   1.523   6.337
 4733POPC   C2B60524   2.742   1.614   6.758
 4733POPC   C3B60525   2.654   1.864   7.116
 4733POPC   C4B60526   2.855   1.716   7.467
 4734POPC   NC360527  24.192   1.648   5.600
 4734POPC   PO460528  24.821   1.938   5.564
 4734POPC   GL160529  24.537   1.838   5.922
 4734POPC   GL260530  24.179   2.037   5.933
 4734POPC   C1A60531  24.483   1.981   6.337
 4734POPC   D2A60532  24.432   2.386   6.534
 4734POPC   C3A60533  24.725   2.415   6.842
 4734POPC   C4A60534  24.611   2.270   7.234
 4734POPC   C1B60535  24.100   1.649   6.223
 4734POPC   C2B60536  24.262   1.573   6.622
 4734POPC   C3B60537  24.285   1.840   6.998
 4734POPC   C4B60538  24.210   1.788   7.456
 4735POPC   NC360539   5.963  28.789   5.320
 4735POPC   PO460540   5.980  28.118   5.375
 4735POPC   GL160541   5.985  28.450   5.740
 4735POPC   GL260542   5.652  28.439   5.791
 4735POPC   C1A60543   5.888  28.681   6.177
 4735POPC   D2A60544   6.018  28.795   6.626
 4735POPC   C3A60545   5.943  28.482   7.001
 4735POPC   C4A60546   5.881  28.579   7.455
 4735POPC   C1B60547   5.545  28.258   6.187
 4735POPC   C2B60548   5.651  28.116   6.591
 4735POPC   C3B60549   5.471  28.090   6.983
 4735POPC   C4B60550   5.616  28.118   7.422
 4736POPC   NC360551  23.040  25.589   5.420
 4736POPC   PO460552  22.659  26.168   5.504
 4736POPC   GL160553  22.857  25.945   5.799
 4736POPC   GL260554  23.226  25.949   5.814
 4736POPC   C1A60555  22.658  25.898   6.186
 4736POPC   D2A60556  22.855  25.820   6.578
 4736POPC   C3A60557  22.880  26.227   6.790
 4736POPC   C4A60558  22.629  26.133   7.120
 4736POPC   C1B60559  23.435  25.939   6.244
 4736POPC   C2B60560  23.331  25.973   6.711
 4736POPC   C3B60561  23.194  26.011   7.150
 4736POPC   C4B60562  23.318  25.958   7.614
 4737POPC   NC360563  14.036  26.493   5.480
 4737POPC   PO460564  13.541  26.111   5.107
 4737POPC   GL160565  13.417  25.989   5.704
 4737POPC   GL260566  13.744  26.185   5.863
 4737POPC   C1A60567  13.514  25.844   6.174
 4737POPC   D2A60568  13.702  26.012   6.592
 4737POPC   C3A60569  13.494  25.877   6.943
 4737POPC   C4A60570  13.661  25.776   7.330
 4737POPC   C1B60571  13.549  26.342   6.232
 4737POPC   C2B60572  13.276  26.361   6.564
 4737POPC   C3B60573  13.443  26.364   6.958
 4737POPC   C4B60574  13.461  26.240   7.415
 4738POPC   NC360575   7.610  32.995   5.431
 4738POPC   PO460576   7.080  33.417   5.598
 4738POPC   GL160577   7.361  33.218   5.875
 4738POPC   GL260578   7.451  32.877   5.886
 4738POPC   C1A60579   7.618  33.277   6.221
 4738POPC   D2A60580   7.623  33.099   6.602
 4738POPC   C3A60581   7.348  33.313   6.871
 4738POPC   C4A60582   7.513  33.277   7.270
 4738POPC   C1B60583   7.488  32.564   6.199
 4738POPC   C2B60584   7.390  32.575   6.640
 4738POPC   C3B60585   7.462  32.827   7.003
 4738POPC   C4B60586   7.515  32.782   7.434
 4739POPC   NC360587  10.482  26.706   5.426
 4739POPC   PO460588  10.829  27.249   5.476
 4739POPC   GL160589  10.802  26.908   5.798
 4739POPC   GL260590  10.756  26.530   5.805
 4739POPC   C1A60591  10.708  26.858   6.224
 4739POPC   D2A60592  10.400  27.000   6.498
 4739POPC   C3A60593  10.515  26.807   6.890
 4739POPC   C4A60594  10.537  26.861   7.312
 4739POPC   C1B60595  10.385  26.525   6.044
 4739POPC   C2B60596  10.338  26.493   6.496
 4739POPC   C3B60597  10.066  26.582   6.846
 4739POPC   C4B60598  10.164  26.540   7.280
 4740POPC   NC360599  41.383  23.199   5.434
 4740POPC   PO460600  41.480  22.491   5.380
 4740POPC   GL160601  41.508  22.807   5.746
 4740POPC   GL260602  41.747  23.127   5.799
 4740POPC   C1A60603  41.385  23.052   6.142
 4740POPC   D2A60604  41.496  23.086   6.598
 4740POPC   C3A60605  41.303  22.817   6.929
 4740POPC   C4A60606  41.218  23.056   7.307
 4740POPC   C1B60607  41.873  22.951   6.230
 4740POPC   C2B60608  42.009  23.012   6.648
 4740POPC   C3B60609  41.788  22.918   7.016
 4740POPC   C4B60610  41.738  23.089   7.442
 4741POPC   NC360611  29.073  35.237   5.213
 4741POPC   PO460612  29.585  35.542   5.469
 4741POPC   GL160613  29.441  35.640   5.883
 4741POPC   GL260614  29.297  35.300   5.858
 4741POPC   C1A60615  29.123  35.629   6.223
 4741POPC   D2A60616  28.949  35.381   6.570
 4741POPC   C3A60617  29.062  35.420   7.016
 4741POPC   C4A60618  29.378  35.731   7.109
 4741POPC   C1B60619  29.338  35.164   6.286
 4741POPC   C2B60620  29.365  34.954   6.680
 4741POPC   C3B60621  29.331  35.011   7.128
 4741POPC   C4B60622  29.003  35.004   7.446
 4742POPC   NC360623  34.722  25.671   5.269
 4742POPC   PO460624  34.488  25.001   5.388
 4742POPC   GL160625  34.412  25.415   5.632
 4742POPC   GL260626  34.717  25.537   5.784
 4742POPC   C1A60627  34.322  25.574   6.089
 4742POPC   D2A60628  34.550  25.393   6.456
 4742POPC   C3A60629  34.432  25.425   6.879
 4742POPC   C4A60630  34.429  25.082   7.157
 4742POPC   C1B60631  34.703  25.169   6.033
 4742POPC   C2B60632  34.954  25.023   6.448
 4742POPC   C3B60633  34.888  25.084   6.917
 4742POPC   C4B60634  34.877  25.128   7.401
 4743POPC   NC360635  39.045  34.844   5.494
 4743POPC   PO460636  39.088  34.180   5.454
 4743POPC   GL160637  39.045  34.428   5.829
 4743POPC   GL260638  39.364  34.610   5.847
 4743POPC   C1A60639  38.996  34.695   6.203
 4743POPC   D2A60640  38.772  34.672   6.587
 4743POPC   C3A60641  39.007  34.480   6.915
 4743POPC   C4A60642  39.278  34.541   7.252
 4743POPC   C1B60643  39.516  34.879   6.195
 4743POPC   C2B60644  39.771  34.899   6.585
 4743POPC   C3B60645  39.639  34.924   7.017
 4743POPC   C4B60646  39.741  34.688   7.367
 4744POPC   NC360647  31.014   3.170   5.502
 4744POPC   PO460648  30.746   3.773   5.554
 4744POPC   GL160649  30.783   3.560   5.926
 4744POPC   GL260650  30.557   3.813   6.084
 4744POPC   C1A60651  30.550   3.237   6.173
 4744POPC   D2A60652  30.357   3.137   6.576
 4744POPC   C3A60653  30.570   3.388   6.870
 4744POPC   C4A60654  30.808   3.357   7.226
 4744POPC   C1B60655  30.938   3.846   6.341
 4744POPC   C2B60656  30.882   3.831   6.796
 4744POPC   C3B60657  31.112   3.747   7.129
 4744POPC   C4B60658  31.128   3.624   7.523
 4745POPC   NC360659  35.651  35.143   5.491
 4745POPC   PO460660  36.221  35.441   5.447
 4745POPC   GL160661  36.192  35.168   5.815
 4745POPC   GL260662  36.251  35.435   6.035
 4745POPC   C1A60663  36.403  34.954   6.179
 4745POPC   D2A60664  36.427  35.154   6.580
 4745POPC   C3A60665  36.014  35.202   6.746
 4745POPC   C4A60666  35.974  35.169   7.180
 4745POPC   C1B60667  35.839  35.464   6.251
 4745POPC   C2B60668  35.783  35.770   6.586
 4745POPC   C3B60669  35.948  35.660   6.979
 4745POPC   C4B60670  35.762  35.587   7.332
 4746POPC   NC360671  19.069  16.031   5.260
 4746POPC   PO460672  19.154  15.324   5.435
 4746POPC   GL160673  19.200  15.692   5.757
 4746POPC   GL260674  18.945  15.995   5.814
 4746POPC   C1A60675  19.171  15.846   6.226
 4746POPC   D2A60676  18.934  15.932   6.642
 4746POPC   C3A60677  19.136  16.169   6.965
 4746POPC   C4A60678  19.260  15.939   7.314
 4746POPC   C1B60679  18.704  16.102   6.215
 4746POPC   C2B60680  18.642  16.382   6.566
 4746POPC   C3B60681  18.598  16.234   6.971
 4746POPC   C4B60682  18.761  15.984   7.271
 4747POPC   NC360683   7.460   2.845   5.327
 4747POPC   PO460684   7.273   2.251   5.477
 4747POPC   GL160685   7.251   2.644   5.747
 4747POPC   GL260686   7.582   2.797   5.802
 4747POPC   C1A60687   7.201   2.896   6.131
 4747POPC   D2A60688   7.217   2.715   6.528
 4747POPC   C3A60689   7.282   2.945   6.906
 4747POPC   C4A60690   7.174   2.743   7.299
 4747POPC   C1B60691   7.712   3.033   6.150
 4747POPC   C2B60692   7.727   2.875   6.564
 4747POPC   C3B60693   7.915   2.912   6.936
 4747POPC   C4B60694   7.655   2.923   7.259
 4748POPC   NC360695  33.944  28.934   5.207
 4748POPC   PO460696  33.939  29.544   5.463
 4748POPC   GL160697  33.834  29.190   5.805
 4748POPC   GL260698  33.598  28.873   5.800
 4748POPC   C1A60699  33.838  29.012   6.284
 4748POPC   D2A60700  34.037  28.824   6.667
 4748POPC   C3A60701  34.024  29.041   7.065
 4748POPC   C4A60702  33.941  29.422   7.300
 4748POPC   C1B60703  33.409  29.163   6.081
 4748POPC   C2B60704  33.328  29.210   6.495
 4748POPC   C3B60705  33.586  29.188   6.841
 4748POPC   C4B60706  33.550  29.066   7.251
 4749POPC   NC360707  30.931  19.389   5.472
 4749POPC   PO460708  30.411  19.649   5.504
 4749POPC   GL160709  30.684  19.724   5.872
 4749POPC   GL260710  30.756  20.078   5.866
 4749POPC   C1A60711  30.660  19.820   6.338
 4749POPC   D2A60712  30.567  19.561   6.679
 4749POPC   C3A60713  30.744  19.658   7.074
 4749POPC   C4A60714  30.847  19.841   7.499
 4749POPC   C1B60715  30.322  20.058   6.062
 4749POPC   C2B60716  30.209  20.086   6.494
 4749POPC   C3B60717  30.541  20.083   6.803
 4749POPC   C4B60718  30.451  20.041   7.237
 4750POPC   NC360719  18.448  23.868   5.196
 4750POPC   PO460720  18.384  23.185   5.275
 4750POPC   GL160721  18.334  23.609   5.630
 4750POPC   GL260722  18.555  23.932   5.684
 4750POPC   C1A60723  18.160  23.654   6.064
 4750POPC   D2A60724  18.044  23.765   6.518
 4750POPC   C3A60725  17.955  23.424   6.776
 4750POPC   C4A60726  17.946  23.493   7.197
 4750POPC   C1B60727  18.578  23.948   6.131
 4750POPC   C2B60728  18.541  23.643   6.449
 4750POPC   C3B60729  18.427  23.625   6.880
 4750POPC   C4B60730  18.374  23.813   7.275
 4751POPC   NC360731  18.182  20.629   5.356
 4751POPC   PO460732  18.798  20.837   5.394
 4751POPC   GL160733  18.498  20.951   5.751
 4751POPC   GL260734  18.145  20.853   5.825
 4751POPC   C1A60735  18.495  20.927   6.212
 4751POPC   D2A60736  18.286  20.719   6.572
 4751POPC   C3A60737  18.295  20.824   7.008
 4751POPC   C4A60738  18.562  20.580   7.282
 4751POPC   C1B60739  18.227  20.477   6.104
 4751POPC   C2B60740  18.262  20.201   6.493
 4751POPC   C3B60741  18.330  20.307   6.925
 4751POPC   C4B60742  18.053  20.469   7.283
 4752POPC   NC360743  22.235   8.591   5.552
 4752POPC   PO460744  21.717   8.956   5.468
 4752POPC   GL160745  21.978   8.976   5.827
 4752POPC   GL260746  22.301   9.097   5.700
 4752POPC   C1A60747  22.065   8.797   6.232
 4752POPC   D2A60748  22.360   8.883   6.563
 4752POPC   C3A60749  22.178   8.891   6.978
 4752POPC   C4A60750  22.175   8.670   7.355
 4752POPC   C1B60751  22.426   9.177   6.118
 4752POPC   C2B60752  22.447   9.369   6.518
 4752POPC   C3B60753  22.605   9.195   6.912
 4752POPC   C4B60754  22.492   9.338   7.326
 4753POPC   NC360755  11.197  14.194   5.428
 4753POPC   PO460756  11.370  14.871   5.318
 4753POPC   GL160757  11.365  14.594   5.719
 4753POPC   GL260758  11.597  14.286   5.750
 4753POPC   C1A60759  11.181  14.356   6.110
 4753POPC   D2A60760  11.306  14.134   6.514
 4753POPC   C3A60761  11.263  14.299   6.944
 4753POPC   C4A60762  11.082  14.560   7.289
 4753POPC   C1B60763  11.689  14.082   6.175
 4753POPC   C2B60764  11.782  14.006   6.654
 4753POPC   C3B60765  11.718  14.064   7.120
 4753POPC   C4B60766  11.397  14.176   7.462
 4754POPC   NC360767  12.690  41.379   5.340
 4754POPC   PO460768  12.478  41.940   5.667
 4754POPC   GL160769  12.829  41.634   5.776
 4754POPC   GL260770  12.782  41.267   5.856
 4754POPC   C1A60771  13.013  41.648   6.194
 4754POPC   D2A60772  13.028  41.925   6.572
 4754POPC   C3A60773  12.927  41.705   6.954
 4754POPC   C4A60774  12.932  41.807   7.398
 4754POPC   C1B60775  12.539  41.474   6.181
 4754POPC   C2B60776  12.512  41.686   6.563
 4754POPC   C3B60777  12.502  41.449   6.927
 4754POPC   C4B60778  12.632  41.417   7.301
 4755POPC   NC360779  21.600   6.780   5.377
 4755POPC   PO460780  22.109   6.383   5.639
 4755POPC   GL160781  21.729   6.644   5.850
 4755POPC   GL260782  21.351   6.780   5.817
 4755POPC   C1A60783  21.547   6.610   6.263
 4755POPC   D2A60784  21.662   6.401   6.656
 4755POPC   C3A60785  21.569   6.657   6.997
 4755POPC   C4A60786  21.524   6.593   7.401
 4755POPC   C1B60787  20.994   6.737   6.102
 4755POPC   C2B60788  20.927   6.666   6.542
 4755POPC   C3B60789  21.016   6.738   6.973
 4755POPC   C4B60790  20.975   6.915   7.381
 4756POPC   NC360791  40.482   2.911   5.410
 4756POPC   PO460792  39.862   2.683   5.467
 4756POPC   GL160793  40.162   2.684   5.781
 4756POPC   GL260794  40.195   3.047   5.804
 4756POPC   C1A60795  40.031   2.718   6.202
 4756POPC   D2A60796  39.771   2.727   6.582
 4756POPC   C3A60797  39.940   2.677   7.012
 4756POPC   C4A60798  39.754   2.611   7.434
 4756POPC   C1B60799  40.273   3.257   6.197
 4756POPC   C2B60800  40.286   3.371   6.617
 4756POPC   C3B60801  40.154   3.221   7.019
 4756POPC   C4B60802  39.992   3.061   7.388
 4757POPC   NC360803  38.915  12.530   5.556
 4757POPC   PO460804  39.254  13.165   5.457
 4757POPC   GL160805  39.227  13.080   5.847
 4757POPC   GL260806  39.348  12.783   5.925
 4757POPC   C1A60807  39.066  13.208   6.244
 4757POPC   D2A60808  38.811  13.014   6.567
 4757POPC   C3A60809  38.969  13.176   6.944
 4757POPC   C4A60810  39.283  13.078   7.237
 4757POPC   C1B60811  39.248  12.738   6.372
 4757POPC   C2B60812  39.092  12.636   6.797
 4757POPC   C3B60813  39.265  12.513   7.213
 4757POPC   C4B60814  39.276  12.749   7.620
 4758POPC   NC360815  11.503  13.252   5.286
 4758POPC   PO460816  11.218  13.870   5.113
 4758POPC   GL160817  10.990  13.831   5.686
 4758POPC   GL260818  10.972  13.443   5.803
 4758POPC   C1A60819  11.142  13.830   6.132
 4758POPC   D2A60820  11.438  13.653   6.458
 4758POPC   C3A60821  11.346  13.770   6.874
 4758POPC   C4A60822  11.404  13.682   7.292
 4758POPC   C1B60823  11.180  13.301   6.204
 4758POPC   C2B60824  11.170  13.276   6.690
 4758POPC   C3B60825  11.198  13.197   7.150
 4758POPC   C4B60826  11.184  13.345   7.583
 4759POPC   NC360827  30.258  15.249   5.434
 4759POPC   PO460828  29.637  14.840   5.390
 4759POPC   GL160829  29.899  15.001   5.728
 4759POPC   GL260830  29.852  15.375   5.770
 4759POPC   C1A60831  29.780  15.040   6.169
 4759POPC   D2A60832  29.665  15.365   6.445
 4759POPC   C3A60833  29.865  15.243   6.785
 4759POPC   C4A60834  29.829  15.219   7.210
 4759POPC   C1B60835  30.108  15.502   6.155
 4759POPC   C2B60836  30.322  15.436   6.587
 4759POPC   C3B60837  30.218  15.521   7.022
 4759POPC   C4B60838  30.029  15.642   7.397
 4760POPC   NC360839  24.743  35.748   5.154
 4760POPC   PO460840  24.360  35.216   5.289
 4760POPC   GL160841  24.525  35.393   5.695
 4760POPC   GL260842  24.221  35.557   5.813
 4760POPC   C1A60843  24.763  35.241   6.094
 4760POPC   D2A60844  24.880  34.959   6.472
 4760POPC   C3A60845  24.918  35.128   6.916
 4760POPC   C4A60846  24.637  35.188   7.267
 4760POPC   C1B60847  24.227  35.208   6.103
 4760POPC   C2B60848  24.424  35.182   6.499
 4760POPC   C3B60849  24.269  35.232   6.909
 4760POPC   C4B60850  24.212  35.557   7.202
 4761POPC   NC360851  26.956  30.761   5.449
 4761POPC   PO460852  26.395  30.390   5.386
 4761POPC   GL160853  26.725  30.422   5.765
 4761POPC   GL260854  26.558  30.568   6.017
 4761POPC   C1A60855  27.001  30.432   6.203
 4761POPC   D2A60856  26.910  30.646   6.638
 4761POPC   C3A60857  26.882  30.709   7.121
 4761POPC   C4A60858  27.180  30.910   7.463
 4761POPC   C1B60859  26.433  30.581   6.449
 4761POPC   C2B60860  26.507  30.380   6.861
 4761POPC   C3B60861  26.520  30.366   7.317
 4761POPC   C4B60862  26.533  30.514   7.742
 4762POPC   NC360863   2.801  36.186   5.370
 4762POPC   PO460864   2.269  36.074   5.532
 4762POPC   GL160865   2.632  36.125   5.838
 4762POPC   GL260866   2.812  36.454   5.851
 4762POPC   C1A60867   2.799  36.117   6.272
 4762POPC   D2A60868   2.550  36.271   6.646
 4762POPC   C3A60869   2.651  36.086   7.055
 4762POPC   C4A60870   3.023  35.899   7.220
 4762POPC   C1B60871   2.769  36.617   6.303
 4762POPC   C2B60872   3.018  36.489   6.667
 4762POPC   C3B60873   2.995  36.460   7.113
 4762POPC   C4B60874   2.651  36.469   7.426
 4763POPC   NC360875  32.026  31.469   5.251
 4763POPC   PO460876  31.304  31.531   5.298
 4763POPC   GL160877  31.320  31.749   5.793
 4763POPC   GL260878  31.629  31.838   6.025
 4763POPC   C1A60879  31.318  31.541   6.261
 4763POPC   D2A60880  31.559  31.613   6.625
 4763POPC   C3A60881  31.313  31.491   6.960
 4763POPC   C4A60882  31.428  31.344   7.373
 4763POPC   C1B60883  31.287  32.048   6.208
 4763POPC   C2B60884  31.121  31.946   6.624
 4763POPC   C3B60885  31.296  32.018   7.011
 4763POPC   C4B60886  31.688  31.820   7.095
 4764POPC   NC360887  33.482  30.726   5.360
 4764POPC   PO460888  34.148  30.546   5.217
 4764POPC   GL160889  33.903  30.714   5.653
 4764POPC   GL260890  33.995  30.521   5.962
 4764POPC   C1A60891  33.754  30.957   6.068
 4764POPC   D2A60892  33.481  30.974   6.458
 4764POPC   C3A60893  33.680  30.917   6.876
 4764POPC   C4A60894  34.082  30.689   6.927
 4764POPC   C1B60895  33.625  30.476   6.163
 4764POPC   C2B60896  33.712  30.518   6.548
 4764POPC   C3B60897  33.540  30.420   6.887
 4764POPC   C4B60898  33.661  30.497   7.263
 4765POPC   NC360899  10.878  20.770   5.443
 4765POPC   PO460900  11.399  20.438   5.171
 4765POPC   GL160901  11.345  20.679   5.631
 4765POPC   GL260902  11.062  20.511   5.833
 4765POPC   C1A60903  11.447  20.694   6.115
 4765POPC   D2A60904  11.289  20.726   6.563
 4765POPC   C3A60905  11.520  20.739   6.968
 4765POPC   C4A60906  11.323  20.649   7.356
 4765POPC   C1B60907  10.919  20.470   6.272
 4765POPC   C2B60908  10.808  20.428   6.739
 4765POPC   C3B60909  10.970  20.303   7.189
 4765POPC   C4B60910  11.042  20.362   7.674
 4766POPC   NC360911  25.347   9.427   5.714
 4766POPC   PO460912  25.008   9.739   5.304
 4766POPC   GL160913  24.989   9.826   5.762
 4766POPC   GL260914  24.911   9.525   5.997
 4766POPC   C1A60915  25.170   9.983   6.159
 4766POPC   D2A60916  25.202   9.835   6.582
 4766POPC   C3A60917  25.092   9.939   7.023
 4766POPC   C4A60918  25.321  10.188   7.311
 4766POPC   C1B60919  25.253   9.386   6.361
 4766POPC   C2B60920  25.298   9.427   6.836
 4766POPC   C3B60921  24.916   9.454   6.986
 4766POPC   C4B60922  24.793   9.655   7.333
 4767POPC   NC360923   6.182  11.576   5.465
 4767POPC   PO460924   5.797  11.017   5.372
 4767POPC   GL160925   5.942  11.219   5.780
 4767POPC   GL260926   6.252  11.000   5.802
 4767POPC   C1A60927   5.779  11.453   6.181
 4767POPC   D2A60928   5.889  11.683   6.596
 4767POPC   C3A60929   5.826  11.481   6.996
 4767POPC   C4A60930   5.873  11.331   7.447
 4767POPC   C1B60931   6.149  11.057   6.239
 4767POPC   C2B60932   5.903  11.161   6.609
 4767POPC   C3B60933   5.881  10.979   7.032
 4767POPC   C4B60934   6.145  10.895   7.404
 4768POPC   NC360935   7.880  29.477   5.675
 4768POPC   PO460936   7.384  29.112   5.308
 4768POPC   GL160937   7.192  29.071   5.702
 4768POPC   GL260938   7.054  29.405   5.740
 4768POPC   C1A60939   7.323  29.158   6.124
 4768POPC   D2A60940   7.648  29.320   6.396
 4768POPC   C3A60941   7.486  29.234   6.786
 4768POPC   C4A60942   7.612  29.012   7.129
 4768POPC   C1B60943   7.169  29.666   6.078
 4768POPC   C2B60944   7.171  29.536   6.482
 4768POPC   C3B60945   7.021  29.490   6.885
 4768POPC   C4B60946   7.167  29.226   7.201
 4769POPC   NC360947  16.932  32.085   5.440
 4769POPC   PO460948  16.280  31.997   5.553
 4769POPC   GL160949  16.573  32.254   5.921
 4769POPC   GL260950  16.925  32.345   5.864
 4769POPC   C1A60951  16.812  32.323   6.351
 4769POPC   D2A60952  16.835  32.120   6.747
 4769POPC   C3A60953  16.517  31.986   7.001
 4769POPC   C4A60954  16.536  32.042   7.427
 4769POPC   C1B60955  17.230  32.610   6.084
 4769POPC   C2B60956  17.323  32.508   6.512
 4769POPC   C3B60957  17.041  32.573   6.834
 4769POPC   C4B60958  16.925  32.395   7.251
 4770POPC   NC360959  28.446  22.873   5.404
 4770POPC   PO460960  28.138  23.547   5.381
 4770POPC   GL160961  28.128  23.178   5.708
 4770POPC   GL260962  28.485  23.178   5.801
 4770POPC   C1A60963  28.156  23.053   6.191
 4770POPC   D2A60964  28.122  22.862   6.637
 4770POPC   C3A60965  28.350  23.008   6.994
 4770POPC   C4A60966  28.254  23.167   7.400
 4770POPC   C1B60967  28.713  22.964   6.104
 4770POPC   C2B60968  28.616  22.814   6.488
 4770POPC   C3B60969  28.769  22.733   6.874
 4770POPC   C4B60970  28.859  23.012   7.165
 4771POPC   NC360971  39.229  14.648   5.439
 4771POPC   PO460972  38.941  14.000   5.458
 4771POPC   GL160973  39.050  14.298   5.753
 4771POPC   GL260974  39.347  14.461   5.897
 4771POPC   C1A60975  38.962  14.265   6.178
 4771POPC   D2A60976  39.204  14.145   6.535
 4771POPC   C3A60977  39.079  14.344   6.892
 4771POPC   C4A60978  39.251  14.265   7.284
 4771POPC   C1B60979  39.298  14.646   6.326
 4771POPC   C2B60980  39.204  14.830   6.735
 4771POPC   C3B60981  39.243  14.750   7.189
 4771POPC   C4B60982  39.515  14.664   7.576
 4772POPC   NC360983  35.453  35.851   5.410
 4772POPC   PO460984  34.925  36.320   5.508
 4772POPC   GL160985  35.183  36.051   5.801
 4772POPC   GL260986  35.502  36.254   5.757
 4772POPC   C1A60987  35.411  36.014   6.220
 4772POPC   D2A60988  35.381  36.358   6.527
 4772POPC   C3A60989  35.272  36.360   6.974
 4772POPC   C4A60990  35.164  36.340   7.404
 4772POPC   C1B60991  35.768  36.390   6.102
 4772POPC   C2B60992  35.896  36.302   6.519
 4772POPC   C3B60993  35.745  36.149   6.950
 4772POPC   C4B60994  35.578  36.034   7.387
 4773POPC   NC360995  28.676  31.220   5.100
 4773POPC   PO460996  29.182  31.095   5.392
 4773POPC   GL160997  29.218  31.188   5.875
 4773POPC   GL260998  29.200  31.542   5.961
 4773POPC   C1A60999  29.076  31.255   6.362
 4773POPC   D2A61000  29.067  31.550   6.768
 4773POPC   C3A61001  28.976  31.410   7.218
 4773POPC   C4A61002  29.074  31.209   7.630
 4773POPC   C1B61003  29.400  31.709   6.368
 4773POPC   C2B61004  29.546  31.886   6.771
 4773POPC   C3B61005  29.530  31.918   7.234
 4773POPC   C4B61006  29.331  31.637   7.537
 4774POPC   NC361007   0.083  27.155   5.145
 4774POPC   PO461008   0.548  27.637   5.368
 4774POPC   GL161009   0.594  27.403   5.774
 4774POPC   GL261010   0.418  27.709   5.915
 4774POPC   C1A61011   0.765  27.288   6.146
 4774POPC   D2A61012   0.838  27.146   6.549
 4774POPC   C3A61013   0.643  27.380   6.884
 4774POPC   C4A61014   0.807  27.419   7.235
 4774POPC   C1B61015   0.262  27.415   6.208
 4774POPC   C2B61016   0.211  27.444   6.627
 4774POPC   C3B61017   0.336  27.826   6.878
 4774POPC   C4B61018   0.085  27.989   7.214
 4775POPC   NC361019  20.071  37.951   5.320
 4775POPC   PO461020  19.434  37.958   5.270
 4775POPC   GL161021  19.717  37.770   5.696
 4775POPC   GL261022  20.011  37.977   5.817
 4775POPC   C1A61023  20.003  37.565   6.120
 4775POPC   D2A61024  20.269  37.648   6.555
 4775POPC   C3A61025  20.075  37.545   6.981
 4775POPC   C4A61026  19.619  37.615   7.087
 4775POPC   C1B61027  20.153  38.055   6.236
 4775POPC   C2B61028  20.050  38.245   6.638
 4775POPC   C3B61029  19.961  38.072   7.042
 4775POPC   C4B61030  20.283  38.024   7.311
 4776POPC   NC361031  13.087   1.928   5.412
 4776POPC   PO461032  12.472   2.143   5.259
 4776POPC   GL161033  12.642   1.955   5.691
 4776POPC   GL261034  12.979   2.098   5.864
 4776POPC   C1A61035  12.654   1.869   6.155
 4776POPC   D2A61036  12.926   1.970   6.514
 4776POPC   C3A61037  12.902   1.686   6.887
 4776POPC   C4A61038  12.715   1.817   7.277
 4776POPC   C1B61039  13.124   2.374   6.209
 4776POPC   C2B61040  12.996   2.477   6.651
 4776POPC   C3B61041  12.975   2.182   6.999
 4776POPC   C4B61042  13.089   2.150   7.427
 4777POPC   NC361043  13.006  10.125   5.397
 4777POPC   PO461044  13.091   9.417   5.404
 4777POPC   GL161045  12.878   9.543   5.809
 4777POPC   GL261046  13.186   9.749   5.847
 4777POPC   C1A61047  12.628   9.844   6.149
 4777POPC   D2A61048  12.503  10.004   6.616
 4777POPC   C3A61049  12.622   9.893   7.071
 4777POPC   C4A61050  12.811   9.853   7.518
 4777POPC   C1B61051  13.065   9.662   6.302
 4777POPC   C2B61052  12.969   9.731   6.735
 4777POPC   C3B61053  12.979   9.543   7.161
 4777POPC   C4B61054  13.273   9.660   7.531
 4778POPC   NC361055   2.512  11.210   5.380
 4778POPC   PO461056   3.152  10.992   5.361
 4778POPC   GL161057   2.905  11.212   5.720
 4778POPC   GL261058   2.750  10.961   5.762
 4778POPC   C1A61059   2.697  11.454   6.140
 4778POPC   D2A61060   2.765  11.696   6.562
 4778POPC   C3A61061   2.597  11.486   6.935
 4778POPC   C4A61062   2.735  11.382   7.371
 4778POPC   C1B61063   2.830  10.969   6.205
 4778POPC   C2B61064   2.607  11.067   6.618
 4778POPC   C3B61065   2.799  11.002   7.034
 4778POPC   C4B61066   3.240  10.881   7.077
 4779POPC   NC361067   7.747  29.368   5.163
 4779POPC   PO461068   7.867  29.015   5.711
 4779POPC   GL161069   8.189  29.195   5.978
 4779POPC   GL261070   8.510  29.221   5.852
 4779POPC   C1A61071   8.215  29.075   6.391
 4779POPC   D2A61072   7.962  29.028   6.724
 4779POPC   C3A61073   7.976  29.379   6.986
 4779POPC   C4A61074   8.098  29.064   7.260
 4779POPC   C1B61075   8.609  29.376   6.279
 4779POPC   C2B61076   8.456  29.406   6.718
 4779POPC   C3B61077   8.520  29.362   7.152
 4779POPC   C4B61078   8.675  29.670   7.478
 4780POPC   NC361079   2.477  40.192   5.144
 4780POPC   PO461080   1.993  39.846   5.523
 4780POPC   GL161081   1.794  40.025   5.905
 4780POPC   GL261082   2.082  40.095   6.050
 4780POPC   C1A61083   1.625  40.281   6.280
 4780POPC   D2A61084   1.828  40.366   6.679
 4780POPC   C3A61085   1.637  40.143   7.052
 4780POPC   C4A61086   1.800  40.117   7.456
 4780POPC   C1B61087   1.946  39.922   6.446
 4780POPC   C2B61088   2.085  39.952   6.867
 4780POPC   C3B61089   2.310  40.037   7.241
 4780POPC   C4B61090   2.491  39.693   7.453
 4781POPC   NC361091  34.340  39.492   5.652
 4781POPC   PO461092  34.648  38.875   5.655
 4781POPC   GL161093  34.678  39.234   5.926
 4781POPC   GL261094  34.933  39.499   5.846
 4781POPC   C1A61095  34.433  39.175   6.277
 4781POPC   D2A61096  34.403  38.829   6.569
 4781POPC   C3A61097  34.574  38.940   6.960
 4781POPC   C4A61098  34.355  39.267   7.149
 4781POPC   C1B61099  34.812  39.571   6.290
 4781POPC   C2B61100  34.671  39.381   6.687
 4781POPC   C3B61101  34.861  39.386   7.082
 4781POPC   C4B61102  34.839  39.742   7.401
 4782POPC   NC361103  27.569  28.822   5.580
 4782POPC   PO461104  27.675  29.424   5.320
 4782POPC   GL161105  27.510  29.469   5.800
 4782POPC   GL261106  27.390  29.158   5.917
 4782POPC   C1A61107  27.605  29.414   6.304
 4782POPC   D2A61108  27.710  29.215   6.748
 4782POPC   C3A61109  27.444  29.287   7.127
 4782POPC   C4A61110  27.451  29.553   7.507
 4782POPC   C1B61111  27.631  28.873   6.220
 4782POPC   C2B61112  27.534  28.620   6.561
 4782POPC   C3B61113  27.557  28.741   6.941
 4782POPC   C4B61114  27.530  28.699   7.344
 4783POPC   NC361115  15.659  33.137   5.481
 4783POPC   PO461116  14.951  33.025   5.425
 4783POPC   GL161117  15.167  33.279   5.694
 4783POPC   GL261118  15.314  33.000   5.844
 4783POPC   C1A61119  15.178  33.407   6.143
 4783POPC   D2A61120  15.022  33.311   6.557
 4783POPC   C3A61121  15.187  33.251   6.979
 4783POPC   C4A61122  14.902  32.898   7.181
 4783POPC   C1B61123  15.141  32.888   6.257
 4783POPC   C2B61124  15.142  32.828   6.709
 4783POPC   C3B61125  15.411  32.812   7.082
 4783POPC   C4B61126  15.273  32.955   7.523
 4784POPC   NC361127  39.320  42.800   5.487
 4784POPC   PO461128  39.064  43.446   5.399
 4784POPC   GL161129  39.156  43.219   5.757
 4784POPC   GL261130  38.815  43.184   5.823
 4784POPC   C1A61131  39.473  43.134   6.079
 4784POPC   D2A61132  39.415  42.991   6.499
 4784POPC   C3A61133  39.448  43.127   6.907
 4784POPC   C4A61134  39.418  42.921   7.289
 4784POPC   C1B61135  38.959  42.933   6.171
 4784POPC   C2B61136  38.904  43.025   6.603
 4784POPC   C3B61137  38.980  43.291   6.959
 4784POPC   C4B61138  38.932  43.077   7.327
 4785POPC   NC361139   7.314  24.931   5.175
 4785POPC   PO461140   7.239  25.562   5.322
 4785POPC   GL161141   7.371  25.253   5.646
 4785POPC   GL261142   7.085  25.049   5.656
 4785POPC   C1A61143   7.437  25.315   6.120
 4785POPC   D2A61144   7.438  25.617   6.488
 4785POPC   C3A61145   7.305  25.582   6.920
 4785POPC   C4A61146   7.508  25.596   7.343
 4785POPC   C1B61147   7.052  24.962   6.111
 4785POPC   C2B61148   7.385  24.896   6.453
 4785POPC   C3B61149   7.541  25.135   6.818
 4785POPC   C4B61150   7.488  25.049   7.266
 4786POPC   NC361151   7.972  42.548   5.462
 4786POPC   PO461152   8.283  41.905   5.419
 4786POPC   GL161153   8.171  42.174   5.784
 4786POPC   GL261154   8.299  42.515   5.875
 4786POPC   C1A61155   7.944  42.240   6.173
 4786POPC   D2A61156   7.807  42.030   6.564
 4786POPC   C3A61157   8.057  42.152   6.921
 4786POPC   C4A61158   7.946  42.254   7.332
 4786POPC   C1B61159   8.491  42.268   6.223
 4786POPC   C2B61160   8.528  42.089   6.666
 4786POPC   C3B61161   8.551  42.219   7.111
 4786POPC   C4B61162   8.403  42.206   7.543
 4787POPC   NC361163  22.858   1.438   5.420
 4787POPC   PO461164  22.782   0.794   5.455
 4787POPC   GL161165  23.020   1.079   5.761
 4787POPC   GL261166  22.735   1.269   5.876
 4787POPC   C1A61167  23.109   1.326   6.197
 4787POPC   D2A61168  22.885   1.385   6.606
 4787POPC   C3A61169  23.033   1.376   7.025
 4787POPC   C4A61170  23.190   1.074   7.319
 4787POPC   C1B61171  22.582   1.159   6.273
 4787POPC   C2B61172  22.681   0.883   6.651
 4787POPC   C3B61173  22.666   0.954   7.139
 4787POPC   C4B61174  22.671   1.310   7.427
 4788POPC   NC361175  40.566  37.426   5.443
 4788POPC   PO461176  40.975  37.906   5.264
 4788POPC   GL161177  40.735  37.886   5.650
 4788POPC   GL261178  40.802  37.607   5.846
 4788POPC   C1A61179  40.654  38.014   6.102
 4788POPC   D2A61180  40.837  37.933   6.508
 4788POPC   C3A61181  40.529  37.892   6.860
 4788POPC   C4A61182  40.569  38.087   7.268
 4788POPC   C1B61183  40.661  37.489   6.246
 4788POPC   C2B61184  40.814  37.459   6.680
 4788POPC   C3B61185  41.001  37.708   7.001
 4788POPC   C4B61186  41.089  37.571   7.419
 4789POPC   NC361187  33.570   7.581   5.512
 4789POPC   PO461188  34.032   7.083   5.308
 4789POPC   GL161189  33.956   7.117   5.742
 4789POPC   GL261190  33.605   7.144   5.798
 4789POPC   C1A61191  33.932   7.345   6.159
 4789POPC   D2A61192  34.135   7.359   6.534
 4789POPC   C3A61193  33.973   7.485   6.902
 4789POPC   C4A61194  34.179   7.542   7.303
 4789POPC   C1B61195  33.438   7.436   6.131
 4789POPC   C2B61196  33.588   7.486   6.546
 4789POPC   C3B61197  33.425   7.509   6.954
 4789POPC   C4B61198  33.301   7.512   7.384
 4790POPC   NC361199  11.129  20.143   5.451
 4790POPC   PO461200  11.381  19.513   5.371
 4790POPC   GL161201  11.343  19.770   5.837
 4790POPC   GL261202  11.286  20.094   6.039
 4790POPC   C1A61203  11.218  19.722   6.341
 4790POPC   D2A61204  11.276  19.550   6.767
 4790POPC   C3A61205  11.279  19.813   7.142
 4790POPC   C4A61206  11.072  19.894   7.505
 4790POPC   C1B61207  11.364  20.242   6.419
 4790POPC   C2B61208  11.344  20.287   6.832
 4790POPC   C3B61209  11.556  20.239   7.179
 4790POPC   C4B61210  11.539  20.213   7.618
 4791POPC   NC361211  37.981  12.705   5.617
 4791POPC   PO461212  37.599  13.240   5.458
 4791POPC   GL161213  37.639  13.021   5.868
 4791POPC   GL261214  37.548  12.648   5.866
 4791POPC   C1A61215  37.647  12.894   6.306
 4791POPC   D2A61216  37.734  12.917   6.728
 4791POPC   C3A61217  37.444  12.808   7.022
 4791POPC   C4A61218  37.577  12.850   7.438
 4791POPC   C1B61219  37.804  12.420   6.218
 4791POPC   C2B61220  37.966  12.451   6.670
 4791POPC   C3B61221  37.908  12.590   7.119
 4791POPC   C4B61222  38.011  12.655   7.580
 4792POPC   NC361223   9.561  11.473   5.345
 4792POPC   PO461224  10.193  11.084   5.348
 4792POPC   GL161225   9.889  11.050   5.726
 4792POPC   GL261226   9.664  11.356   5.822
 4792POPC   C1A61227   9.863  11.095   6.203
 4792POPC   D2A61228   9.985  11.269   6.636
 4792POPC   C3A61229   9.794  11.074   7.000
 4792POPC   C4A61230   9.370  11.128   7.172
 4792POPC   C1B61231   9.667  11.564   6.230
 4792POPC   C2B61232   9.690  11.725   6.650
 4792POPC   C3B61233   9.434  11.641   7.002
 4792POPC   C4B61234   9.256  11.831   7.360
 4793POPC   NC361235  40.473  20.342   5.494
 4793POPC   PO461236  41.137  20.600   5.497
 4793POPC   GL161237  40.875  20.427   5.815
 4793POPC   GL261238  40.857  20.758   5.919
 4793POPC   C1A61239  40.550  20.444   6.159
 4793POPC   D2A61240  40.723  20.462   6.563
 4793POPC   C3A61241  40.722  20.558   7.004
 4793POPC   C4A61242  40.940  20.633   7.440
 4793POPC   C1B61243  41.108  20.883   6.272
 4793POPC   C2B61244  41.037  20.842   6.680
 4793POPC   C3B61245  41.206  20.816   7.044
 4793POPC   C4B61246  41.149  21.094   7.331
 4794POPC   NC361247  21.296   5.713   5.365
 4794POPC   PO461248  21.403   6.383   5.508
 4794POPC   GL161249  21.201   6.271   5.882
 4794POPC   GL261250  21.257   5.912   5.865
 4794POPC   C1A61251  21.276   6.163   6.325
 4794POPC   D2A61252  21.429   5.941   6.694
 4794POPC   C3A61253  21.344   6.161   7.070
 4794POPC   C4A61254  21.705   6.121   7.275
 4794POPC   C1B61255  21.134   5.655   6.220
 4794POPC   C2B61256  21.025   5.649   6.653
 4794POPC   C3B61257  21.181   5.663   7.077
 4794POPC   C4B61258  21.021   5.457   7.441
 4795POPC   NC361259   8.520  18.103   5.489
 4795POPC   PO461260   7.984  18.463   5.478
 4795POPC   GL161261   8.056  18.188   5.791
 4795POPC   GL261262   8.338  18.390   5.890
 4795POPC   C1A61263   8.027  18.213   6.244
 4795POPC   D2A61264   8.256  18.449   6.536
 4795POPC   C3A61265   8.130  18.288   6.912
 4795POPC   C4A61266   8.313  18.264   7.290
 4795POPC   C1B61267   8.670  18.498   6.188
 4795POPC   C2B61268   8.765  18.585   6.621
 4795POPC   C3B61269   8.513  18.620   6.968
 4795POPC   C4B61270   8.505  18.767   7.369
 4796POPC   NC361271  21.231  39.176   5.328
 4796POPC   PO461272  21.405  39.748   5.637
 4796POPC   GL161273  21.205  39.332   5.811
 4796POPC   GL261274  21.415  39.019   5.767
 4796POPC   C1A61275  21.210  39.125   6.223
 4796POPC   D2A61276  21.232  39.407   6.581
 4796POPC   C3A61277  21.365  39.387   7.007
 4796POPC   C4A61278  21.256  39.239   7.435
 4796POPC   C1B61279  21.690  39.103   6.070
 4796POPC   C2B61280  21.655  39.076   6.518
 4796POPC   C3B61281  21.757  38.970   6.930
 4796POPC   C4B61282  21.744  39.217   7.280
 4797POPC   NC361283  43.925  14.544   5.376
 4797POPC   PO461284  43.515  13.974   5.419
 4797POPC   GL161285  43.559  14.162   5.854
 4797POPC   GL261286  43.863  14.409   5.882
 4797POPC   C1A61287  43.583  14.324   6.295
 4797POPC   D2A61288  43.866  14.524   6.623
 4797POPC   C3A61289  43.773  14.380   7.038
 4797POPC   C4A61290  44.104  14.274   7.293
 4797POPC   C1B61291  43.906  14.777   6.162
 4797POPC   C2B61292  43.810  15.025   6.531
 4797POPC   C3B61293  43.942  14.965   6.973
 4797POPC   C4B61294  43.828  14.765   7.396
 4798POPC   NC361295   3.037  15.510   5.414
 4798POPC   PO461296   3.584  15.008   5.368
 4798POPC   GL161297   3.617  15.259   5.727
 4798POPC   GL261298   3.274  15.277   5.806
 4798POPC   C1A61299   3.779  15.198   6.164
 4798POPC   D2A61300   3.694  14.847   6.433
 4798POPC   C3A61301   3.551  14.857   6.854
 4798POPC   C4A61302   3.553  15.186   7.124
 4798POPC   C1B61303   3.268  15.083   6.209
 4798POPC   C2B61304   3.309  15.258   6.611
 4798POPC   C3B61305   3.088  15.083   6.925
 4798POPC   C4B61306   3.209  14.857   7.319
 4799POPC   NC361307  44.954  29.145   5.459
 4799POPC   PO461308  44.351  28.835   5.498
 4799POPC   GL161309  44.632  29.005   5.843
 4799POPC   GL261310  44.838  29.363   5.907
 4799POPC   C1A61311  44.672  29.000   6.282
 4799POPC   D2A61312  44.733  29.292   6.636
 4799POPC   C3A61313  44.580  29.065   6.967
 4799POPC   C4A61314  44.509  29.119   7.395
 4799POPC   C1B61315  44.491  29.491   6.185
 4799POPC   C2B61316  44.374  29.669   6.589
 4799POPC   C3B61317  44.459  29.566   7.014
 4799POPC   C4B61318  44.855  29.459   7.185
 4800POPC   NC361319  33.662  26.020   5.166
 4800POPC   PO461320  34.298  25.847   5.330
 4800POPC   GL161321  34.014  25.984   5.716
 4800POPC   GL261322  33.626  25.915   5.697
 4800POPC   C1A61323  33.766  26.182   6.114
 4800POPC   D2A61324  33.504  25.991   6.465
 4800POPC   C3A61325  33.645  26.140   6.883
 4800POPC   C4A61326  33.940  26.187   7.241
 4800POPC   C1B61327  33.790  25.677   6.076
 4800POPC   C2B61328  34.005  25.817   6.452
 4800POPC   C3B61329  34.050  25.797   6.890
 4800POPC   C4B61330  34.350  25.846   7.205
 4801POPC   NC361331   6.463  21.818   5.347
 4801POPC   PO461332   6.867  21.284   5.441
 4801POPC   GL161333   6.728  21.381   5.830
 4801POPC   GL261334   6.418  21.433   5.703
 4801POPC   C1A61335   6.741  21.471   6.285
 4801POPC   D2A61336   6.812  21.276   6.694
 4801POPC   C3A61337   6.715  21.502   7.086
 4801POPC   C4A61338   6.970  21.738   7.375
 4801POPC   C1B61339   6.295  21.292   6.102
 4801POPC   C2B61340   6.332  21.207   6.519
 4801POPC   C3B61341   6.264  21.226   6.946
 4801POPC   C4B61342   6.238  21.512   7.292
 4802POPC   NC361343  33.408  42.473   5.521
 4802POPC   PO461344  32.865  42.066   5.549
 4802POPC   GL161345  32.841  42.334   5.931
 4802POPC   GL261346  32.926  42.662   5.847
 4802POPC   C1A61347  32.809  42.389   6.401
 4802POPC   D2A61348  33.085  42.222   6.747
 4802POPC   C3A61349  33.040  42.213   7.206
 4802POPC   C4A61350  32.703  42.252   7.516
 4802POPC   C1B61351  33.126  42.768   6.247
 4802POPC   C2B61352  33.049  42.818   6.707
 4802POPC   C3B61353  32.830  42.648   7.090
 4802POPC   C4B61354  33.036  42.624   7.542
 4803POPC   NC361355   0.852  18.964   5.471
 4803POPC   PO461356   1.619  18.944   5.506
 4803POPC   GL161357   1.258  19.086   5.804
 4803POPC   GL261358   0.997  19.368   5.767
 4803POPC   C1A61359   1.055  18.989   6.198
 4803POPC   D2A61360   0.967  19.165   6.605
 4803POPC   C3A61361   1.038  18.936   6.977
 4803POPC   C4A61362   1.453  19.020   7.150
 4803POPC   C1B61363   1.074  19.505   6.186
 4803POPC   C2B61364   1.221  19.644   6.583
 4803POPC   C3B61365   1.285  19.479   6.977
 4803POPC   C4B61366   1.048  19.336   7.284
 4804POPC   NC361367  16.054  33.576   5.164
 4804POPC   PO461368  16.281  34.154   5.451
 4804POPC   GL161369  16.089  33.861   5.777
 4804POPC   GL261370  16.024  33.485   5.720
 4804POPC   C1A61371  16.023  33.989   6.213
 4804POPC   D2A61372  15.769  34.073   6.571
 4804POPC   C3A61373  16.068  34.032   6.908
 4804POPC   C4A61374  15.932  34.008   7.300
 4804POPC   C1B61375  16.037  33.474   6.170
 4804POPC   C2B61376  15.981  33.597   6.619
 4804POPC   C3B61377  16.060  33.550   7.081
 4804POPC   C4B61378  15.939  33.573   7.518
 4805POPC   NC361379  34.671  35.867   5.422
 4805POPC   PO461380  34.053  36.174   5.498
 4805POPC   GL161381  34.445  36.272   5.751
 4805POPC   GL261382  34.665  36.035   5.905
 4805POPC   C1A61383  34.453  36.408   6.187
 4805POPC   D2A61384  34.456  36.087   6.504
 4805POPC   C3A61385  34.506  36.177   6.938
 4805POPC   C4A61386  34.423  35.833   7.216
 4805POPC   C1B61387  34.919  36.187   6.257
 4805POPC   C2B61388  34.980  36.044   6.679
 4805POPC   C3B61389  34.938  35.945   7.120
 4805POPC   C4B61390  34.785  36.048   7.538
 4806POPC   NC361391  32.817  24.594   5.199
 4806POPC   PO461392  32.225  24.234   5.463
 4806POPC   GL161393  31.998  24.275   5.844
 4806POPC   GL261394  32.236  24.440   5.960
 4806POPC   C1A61395  31.889  24.388   6.300
 4806POPC   D2A61396  31.911  24.683   6.607
 4806POPC   C3A61397  31.885  24.486   6.981
 4806POPC   C4A61398  32.140  24.357   7.306
 4806POPC   C1B61399  32.499  24.605   6.272
 4806POPC   C2B61400  32.629  24.705   6.670
 4806POPC   C3B61401  32.600  24.545   7.106
 4806POPC   C4B61402  32.472  24.672   7.501
 4807POPC   NC361403  36.519   0.720   5.476
 4807POPC   PO461404  37.067   0.249   5.314
 4807POPC   GL161405  36.891   0.258   5.725
 4807POPC   GL261406  36.625   0.454   5.893
 4807POPC   C1A61407  36.982   0.195   6.152
 4807POPC   D2A61408  37.052   0.410   6.526
 4807POPC   C3A61409  36.860   0.261   6.866
 4807POPC   C4A61410  37.239   0.360   7.042
 4807POPC   C1B61411  36.753   0.723   6.257
 4807POPC   C2B61412  36.793   0.848   6.724
 4807POPC   C3B61413  36.878   0.704   7.171
 4807POPC   C4B61414  36.882   0.261   7.387
 4808POPC   NC361415  36.721  39.761   5.651
 4808POPC   PO461416  36.903  40.372   5.331
 4808POPC   GL161417  36.951  40.213   5.793
 4808POPC   GL261418  37.293  40.378   5.877
 4808POPC   C1A61419  36.668  40.066   6.224
 4808POPC   D2A61420  36.386  39.797   6.568
 4808POPC   C3A61421  36.549  39.778   6.983
 4808POPC   C4A61422  36.843  40.065   7.191
 4808POPC   C1B61423  37.142  40.304   6.320
 4808POPC   C2B61424  37.110  40.177   6.769
 4808POPC   C3B61425  37.280  40.331   7.181
 4808POPC   C4B61426  37.362  40.327   7.639
 4809POPC   NC361427  27.988  27.697   5.539
 4809POPC   PO461428  27.383  27.324   5.440
 4809POPC   GL161429  27.530  27.474   5.825
 4809POPC   GL261430  27.848  27.286   5.878
 4809POPC   C1A61431  27.505  27.770   6.211
 4809POPC   D2A61432  27.670  27.825   6.658
 4809POPC   C3A61433  27.376  27.784   7.014
 4809POPC   C4A61434  27.266  27.477   7.354
 4809POPC   C1B61435  27.582  27.247   6.268
 4809POPC   C2B61436  27.668  27.242   6.692
 4809POPC   C3B61437  27.780  27.476   7.033
 4809POPC   C4B61438  27.927  27.897   7.183
 4810POPC   NC361439   8.406  33.149   5.677
 4810POPC   PO461440   8.000  32.674   5.380
 4810POPC   GL161441   7.967  32.866   5.840
 4810POPC   GL261442   8.087  33.192   6.054
 4810POPC   C1A61443   7.930  32.797   6.303
 4810POPC   D2A61444   8.159  33.062   6.605
 4810POPC   C3A61445   8.271  32.859   6.995
 4810POPC   C4A61446   7.923  32.989   7.208
 4810POPC   C1B61447   8.459  33.360   6.276
 4810POPC   C2B61448   8.595  33.472   6.645
 4810POPC   C3B61449   8.492  33.315   7.005
 4810POPC   C4B61450   8.609  33.032   7.322
 4811POPC   NC361451  37.471  14.481   5.289
 4811POPC   PO461452  38.071  14.369   5.351
 4811POPC   GL161453  37.808  14.530   5.697
 4811POPC   GL261454  37.487  14.426   5.799
 4811POPC   C1A61455  37.914  14.391   6.133
 4811POPC   D2A61456  37.711  14.348   6.549
 4811POPC   C3A61457  37.881  14.307   6.965
 4811POPC   C4A61458  37.591  14.243   7.342
 4811POPC   C1B61459  37.394  14.568   6.205
 4811POPC   C2B61460  37.182  14.389   6.536
 4811POPC   C3B61461  37.320  14.389   6.941
 4811POPC   C4B61462  37.238  14.767   7.170
 4812POPC   NC361463  43.777  38.068   5.451
 4812POPC   PO461464  43.544  38.727   5.657
 4812POPC   GL161465  43.815  38.495   5.856
 4812POPC   GL261466  44.123  38.454   5.730
 4812POPC   C1A61467  43.706  38.247   6.173
 4812POPC   D2A61468  43.516  38.170   6.566
 4812POPC   C3A61469  43.566  38.607   6.741
 4812POPC   C4A61470  43.731  38.689   7.155
 4812POPC   C1B61471  44.202  38.401   6.184
 4812POPC   C2B61472  43.994  38.393   6.590
 4812POPC   C3B61473  44.110  38.374   7.028
 4812POPC   C4B61474  44.214  38.427   7.456
 4813POPC   NC361475  16.303   9.144   5.521
 4813POPC   PO461476  15.694   8.873   5.566
 4813POPC   GL161477  15.655   9.078   5.918
 4813POPC   GL261478  15.945   9.270   5.883
 4813POPC   C1A61479  15.655   8.907   6.327
 4813POPC   D2A61480  15.491   8.615   6.625
 4813POPC   C3A61481  15.645   8.818   7.002
 4813POPC   C4A61482  15.890   8.838   7.377
 4813POPC   C1B61483  15.958   9.421   6.310
 4813POPC   C2B61484  16.099   9.283   6.725
 4813POPC   C3B61485  15.997   9.282   7.159
 4813POPC   C4B61486  16.252   9.211   7.556
 4814POPC   NC361487  28.872  10.751   5.350
 4814POPC   PO461488  29.468  10.356   5.410
 4814POPC   GL161489  29.206  10.494   5.796
 4814POPC   GL261490  28.904  10.491   5.795
 4814POPC   C1A61491  29.069  10.648   6.231
 4814POPC   D2A61492  28.865  10.697   6.606
 4814POPC   C3A61493  29.109  10.826   6.928
 4814POPC   C4A61494  29.156  10.628   7.303
 4814POPC   C1B61495  28.938  10.164   6.136
 4814POPC   C2B61496  28.727  10.203   6.517
 4814POPC   C3B61497  28.784  10.165   6.941
 4814POPC   C4B61498  28.771  10.164   7.388
 4815POPC   NC361499  41.045  21.858   5.303
 4815POPC   PO461500  40.600  22.390   5.333
 4815POPC   GL161501  40.718  22.145   5.730
 4815POPC   GL261502  40.989  21.878   5.834
 4815POPC   C1A61503  40.646  22.025   6.188
 4815POPC   D2A61504  40.833  21.941   6.634
 4815POPC   C3A61505  40.652  22.055   7.053
 4815POPC   C4A61506  40.359  21.851   7.361
 4815POPC   C1B61507  41.143  22.116   6.249
 4815POPC   C2B61508  41.189  22.354   6.667
 4815POPC   C3B61509  41.111  22.352   7.138
 4815POPC   C4B61510  41.073  22.475   7.597
 4816POPC   NC361511  12.389  22.043   5.268
 4816POPC   PO461512  13.034  22.229   5.409
 4816POPC   GL161513  12.852  22.467   5.813
 4816POPC   GL261514  12.523  22.365   5.883
 4816POPC   C1A61515  12.807  22.552   6.278
 4816POPC   D2A61516  12.876  22.329   6.683
 4816POPC   C3A61517  13.102  22.524   7.070
 4816POPC   C4A61518  13.095  22.501   7.548
 4816POPC   C1B61519  12.809  22.060   6.153
 4816POPC   C2B61520  12.945  21.833   6.534
 4816POPC   C3B61521  12.887  21.887   6.953
 4816POPC   C4B61522  12.727  22.203   7.189
 4817POPC   NC361523  22.574   7.889   5.567
 4817POPC   PO461524  21.915   8.252   5.554
 4817POPC   GL161525  22.222   8.143   5.900
 4817POPC   GL261526  22.381   7.829   6.031
 4817POPC   C1A61527  22.116   8.130   6.345
 4817POPC   D2A61528  22.109   8.457   6.644
 4817POPC   C3A61529  21.906   8.416   7.013
 4817POPC   C4A61530  21.927   8.195   7.389
 4817POPC   C1B61531  22.630   8.017   6.367
 4817POPC   C2B61532  22.445   8.061   6.745
 4817POPC   C3B61533  22.051   7.916   6.949
 4817POPC   C4B61534  22.050   7.689   7.333
 4818POPC   NC361535   4.481  17.682   5.390
 4818POPC   PO461536   3.881  17.416   5.395
 4818POPC   GL161537   4.059  17.230   5.766
 4818POPC   GL261538   4.276  17.498   5.889
 4818POPC   C1A61539   4.078  17.058   6.199
 4818POPC   D2A61540   3.915  17.231   6.599
 4818POPC   C3A61541   4.232  17.422   6.868
 4818POPC   C4A61542   4.183  17.685   7.223
 4818POPC   C1B61543   4.349  17.488   6.354
 4818POPC   C2B61544   4.472  17.824   6.666
 4818POPC   C3B61545   4.661  17.685   7.061
 4818POPC   C4B61546   4.645  17.658   7.520
 4819POPC   NC361547   3.075  22.405   5.527
 4819POPC   PO461548   2.468  22.103   5.714
 4819POPC   GL161549   2.833  22.200   6.005
 4819POPC   GL261550   3.074  22.502   6.021
 4819POPC   C1A61551   2.885  21.893   6.355
 4819POPC   D2A61552   2.920  21.739   6.806
 4819POPC   C3A61553   2.635  21.896   7.112
 4819POPC   C4A61554   2.571  21.711   7.498
 4819POPC   C1B61555   3.036  22.463   6.454
 4819POPC   C2B61556   2.789  22.260   6.753
 4819POPC   C3B61557   3.061  22.184   7.088
 4819POPC   C4B61558   3.369  22.201   7.407
 4820POPC   NC361559  26.058  20.776   5.317
 4820POPC   PO461560  25.733  20.351   5.628
 4820POPC   GL161561  26.041  20.636   5.828
 4820POPC   GL261562  25.979  21.003   5.764
 4820POPC   C1A61563  26.230  20.498   6.236
 4820POPC   D2A61564  26.219  20.705   6.644
 4820POPC   C3A61565  26.156  20.439   6.983
 4820POPC   C4A61566  26.182  20.714   7.282
 4820POPC   C1B61567  26.051  20.988   6.196
 4820POPC   C2B61568  25.819  20.996   6.548
 4820POPC   C3B61569  25.912  21.004   6.967
 4820POPC   C4B61570  25.654  21.078   7.305
 4821POPC   NC361571  21.041  43.999   5.548
 4821POPC   PO461572  21.697  43.737   5.347
 4821POPC   GL161573  21.507  43.687   5.769
 4821POPC   GL261574  21.454  44.037   5.909
 4821POPC   C1A61575  21.331  43.617   6.193
 4821POPC   D2A61576  21.085  43.695   6.547
 4821POPC   C3A61577  21.252  43.746   6.937
 4821POPC   C4A61578  21.610  43.665   7.151
 4821POPC   C1B61579  21.478  44.069   6.382
 4821POPC   C2B61580  21.651  44.126   6.819
 4821POPC   C3B61581  21.449  44.145   7.222
 4821POPC   C4B61582  21.002  44.118   7.171
 4822POPC   NC361583  36.412   2.476   5.456
 4822POPC   PO461584  36.127   1.832   5.428
 4822POPC   GL161585  36.016   2.019   5.810
 4822POPC   GL261586  36.010   2.382   5.784
 4822POPC   C1A61587  36.138   1.960   6.234
 4822POPC   D2A61588  36.193   1.743   6.605
 4822POPC   C3A61589  36.348   2.022   6.896
 4822POPC   C4A61590  36.175   1.917   7.256
 4822POPC   C1B61591  35.788   2.327   6.168
 4822POPC   C2B61592  35.960   2.316   6.620
 4822POPC   C3B61593  35.887   2.323   7.077
 4822POPC   C4B61594  35.674   2.071   7.361
 4823POPC   NC361595  29.322   7.654   5.420
 4823POPC   PO461596  29.938   7.333   5.508
 4823POPC   GL161597  29.853   7.353   5.879
 4823POPC   GL261598  29.666   7.676   5.906
 4823POPC   C1A61599  30.029   7.229   6.267
 4823POPC   D2A61600  30.050   7.309   6.697
 4823POPC   C3A61601  29.727   7.147   6.926
 4823POPC   C4A61602  29.464   7.297   7.259
 4823POPC   C1B61603  30.101   7.720   6.104
 4823POPC   C2B61604  30.285   7.744   6.523
 4823POPC   C3B61605  30.191   7.730   6.955
 4823POPC   C4B61606  30.106   7.367   7.208
 4824POPC   NC361607  27.004  19.905   5.559
 4824POPC   PO461608  26.569  20.406   5.664
 4824POPC   GL161609  26.574  20.069   5.984
 4824POPC   GL261610  26.846  19.788   6.016
 4824POPC   C1A61611  26.674  20.027   6.425
 4824POPC   D2A61612  26.942  19.729   6.621
 4824POPC   C3A61613  26.820  19.785   7.025
 4824POPC   C4A61614  26.525  20.089   7.115
 4824POPC   C1B61615  27.089  19.436   6.213
 4824POPC   C2B61616  27.282  19.284   6.573
 4824POPC   C3B61617  27.153  19.393   6.980
 4824POPC   C4B61618  26.848  19.342   7.293
 4825POPC   NC361619  25.284  18.695   5.684
 4825POPC   PO461620  25.680  18.186   5.379
 4825POPC   GL161621  25.497  18.231   5.781
 4825POPC   GL261622  25.118  18.191   5.733
 4825POPC   C1A61623  25.535  18.412   6.205
 4825POPC   D2A61624  25.365  18.313   6.585
 4825POPC   C3A61625  25.550  18.460   6.944
 4825POPC   C4A61626  25.385  18.634   7.281
 4825POPC   C1B61627  25.014  18.296   6.171
 4825POPC   C2B61628  24.890  18.188   6.600
 4825POPC   C3B61629  25.046  18.247   7.018
 4825POPC   C4B61630  25.026  17.863   7.263
 4826POPC   NC361631  11.763  30.774   5.488
 4826POPC   PO461632  11.207  30.507   5.250
 4826POPC   GL161633  11.274  30.705   5.678
 4826POPC   GL261634  11.505  30.427   5.750
 4826POPC   C1A61635  11.143  30.898   6.114
 4826POPC   D2A61636  10.979  30.737   6.535
 4826POPC   C3A61637  11.252  30.755   6.903
 4826POPC   C4A61638  11.167  30.866   7.326
 4826POPC   C1B61639  11.301  30.399   6.132
 4826POPC   C2B61640  11.352  30.368   6.559
 4826POPC   C3B61641  11.121  30.261   6.925
 4826POPC   C4B61642  11.355  30.391   7.282
 4827POPC   NC361643  25.770  44.195   5.750
 4827POPC   PO461644  26.233  43.834   5.317
 4827POPC   GL161645  26.241  43.726   5.754
 4827POPC   GL261646  25.896  43.704   5.756
 4827POPC   C1A61647  26.144  43.796   6.213
 4827POPC   D2A61648  25.797  44.080   6.414
 4827POPC   C3A61649  25.880  44.288   6.855
 4827POPC   C4A61650  25.990  44.148   7.280
 4827POPC   C1B61651  25.679  43.619   6.131
 4827POPC   C2B61652  25.506  43.632   6.523
 4827POPC   C3B61653  25.673  43.587   6.909
 4827POPC   C4B61654  25.854  43.669   7.274
 4828POPC   NC361655   5.019   8.315   5.117
 4828POPC   PO461656   5.606   8.222   5.210
 4828POPC   GL161657   5.321   8.309   5.626
 4828POPC   GL261658   5.249   8.011   5.909
 4828POPC   C1A61659   5.050   8.463   5.986
 4828POPC   D2A61660   4.827   8.329   6.386
 4828POPC   C3A61661   4.959   8.450   6.841
 4828POPC   C4A61662   5.034   8.282   7.280
 4828POPC   C1B61663   4.846   7.827   6.146
 4828POPC   C2B61664   4.613   7.832   6.557
 4828POPC   C3B61665   4.757   7.924   6.986
 4828POPC   C4B61666   4.945   7.784   7.381
 4829POPC   NC361667  27.947  24.697   5.380
 4829POPC   PO461668  28.574  24.443   5.459
 4829POPC   GL161669  28.240  24.413   5.753
 4829POPC   GL261670  28.175  24.749   5.832
 4829POPC   C1A61671  28.169  24.397   6.202
 4829POPC   D2A61672  28.321  24.300   6.593
 4829POPC   C3A61673  28.229  24.509   6.939
 4829POPC   C4A61674  28.318  24.332   7.312
 4829POPC   C1B61675  28.516  24.812   6.163
 4829POPC   C2B61676  28.632  24.718   6.605
 4829POPC   C3B61677  28.569  24.866   7.049
 4829POPC   C4B61678  28.185  24.818   7.345
 4830POPC   NC361679  44.734   2.424   5.317
 4830POPC   PO461680  44.489   3.094   5.509
 4830POPC   GL161681  44.618   2.955   5.912
 4830POPC   GL261682  44.605   2.612   5.812
 4830POPC   C1A61683  44.864   2.801   6.300
 4830POPC   D2A61684  44.992   2.506   6.651
 4830POPC   C3A61685  44.809   2.657   7.075
 4830POPC   C4A61686  44.587   3.084   7.139
 4830POPC   C1B61687  44.403   2.566   6.244
 4830POPC   C2B61688  44.453   2.737   6.662
 4830POPC   C3B61689  44.287   2.618   7.055
 4830POPC   C4B61690  44.378   2.733   7.447
 4831POPC   NC361691  29.950  33.975   5.609
 4831POPC   PO461692  29.717  33.458   5.450
 4831POPC   GL161693  29.888  33.468   5.854
 4831POPC   GL261694  30.209  33.610   5.889
 4831POPC   C1A61695  29.895  33.684   6.285
 4831POPC   D2A61696  29.866  34.093   6.535
 4831POPC   C3A61697  29.645  34.089   6.941
 4831POPC   C4A61698  29.381  34.092   7.326
 4831POPC   C1B61699  30.275  34.013   6.179
 4831POPC   C2B61700  30.338  33.906   6.598
 4831POPC   C3B61701  30.070  33.802   6.925
 4831POPC   C4B61702  29.979  33.965   7.331
 4832POPC   NC361703  43.631  21.700   5.406
 4832POPC   PO461704  43.705  22.377   5.383
 4832POPC   GL161705  43.877  22.113   5.709
 4832POPC   GL261706  43.580  22.030   5.799
 4832POPC   C1A61707  43.940  21.989   6.156
 4832POPC   D2A61708  43.828  22.130   6.565
 4832POPC   C3A61709  43.985  21.963   6.950
 4832POPC   C4A61710  43.984  22.141   7.336
 4832POPC   C1B61711  43.416  21.973   6.191
 4832POPC   C2B61712  43.412  21.820   6.578
 4832POPC   C3B61713  43.464  22.011   6.951
 4832POPC   C4B61714  43.466  22.191   7.326
 4833POPC   NC361715  10.399  11.542   5.306
 4833POPC   PO461716  10.769  11.819   5.707
 4833POPC   GL161717  10.682  11.399   5.811
 4833POPC   GL261718  10.327  11.329   5.786
 4833POPC   C1A61719  10.814  11.286   6.227
 4833POPC   D2A61720  10.758  11.607   6.584
 4833POPC   C3A61721  10.790  11.468   7.029
 4833POPC   C4A61722  10.696  11.299   7.473
 4833POPC   C1B61723  10.312  11.393   6.245
 4833POPC   C2B61724  10.491  11.122   6.604
 4833POPC   C3B61725  10.482  11.071   7.047
 4833POPC   C4B61726  10.192  11.275   7.281
 4834POPC   NC361727   5.735   1.331   5.419
 4834POPC   PO461728   5.435   0.684   5.558
 4834POPC   GL161729   5.618   1.013   5.823
 4834POPC   GL261730   5.964   1.015   5.863
 4834POPC   C1A61731   5.703   1.171   6.263
 4834POPC   D2A61732   5.604   1.023   6.669
 4834POPC   C3A61733   5.709   1.314   6.959
 4834POPC   C4A61734   5.890   1.438   7.305
 4834POPC   C1B61735   6.231   1.059   6.256
 4834POPC   C2B61736   6.119   1.175   6.683
 4834POPC   C3B61737   6.195   1.068   7.118
 4834POPC   C4B61738   6.353   0.779   7.422
 4835POPC   NC361739  25.356  19.652   5.384
 4835POPC   PO461740  25.554  18.946   5.383
 4835POPC   GL161741  25.416  19.189   5.759
 4835POPC   GL261742  25.063  19.107   5.913
 4835POPC   C1A61743  25.486  19.085   6.214
 4835POPC   D2A61744  25.519  18.810   6.564
 4835POPC   C3A61745  25.597  18.980   6.966
 4835POPC   C4A61746  25.555  19.190   7.342
 4835POPC   C1B61747  25.012  19.210   6.361
 4835POPC   C2B61748  25.228  19.232   6.740
 4835POPC   C3B61749  25.108  19.046   7.119
 4835POPC   C4B61750  24.783  19.152   7.395
 4836POPC   NC361751   5.911  29.344   5.496
 4836POPC   PO461752   5.510  28.751   5.399
 4836POPC   GL161753   5.706  28.950   5.765
 4836POPC   GL261754   6.091  28.962   5.789
 4836POPC   C1A61755   5.753  29.215   6.142
 4836POPC   D2A61756   5.994  29.351   6.500
 4836POPC   C3A61757   5.754  29.294   6.844
 4836POPC   C4A61758   5.791  28.957   7.130
 4836POPC   C1B61759   6.297  29.018   6.169
 4836POPC   C2B61760   6.452  29.062   6.560
 4836POPC   C3B61761   6.249  29.132   6.983
 4836POPC   C4B61762   6.167  29.141   7.445
 4837POPC   NC361763   3.352   5.610   5.546
 4837POPC   PO461764   3.451   4.987   5.485
 4837POPC   GL161765   3.411   5.210   5.871
 4837POPC   GL261766   3.737   5.173   5.907
 4837POPC   C1A61767   3.480   5.297   6.340
 4837POPC   D2A61768   3.442   5.481   6.779
 4837POPC   C3A61769   3.085   5.367   7.058
 4837POPC   C4A61770   3.139   5.120   7.446
 4837POPC   C1B61771   3.617   4.800   6.173
 4837POPC   C2B61772   3.519   4.831   6.625
 4837POPC   C3B61773   3.552   5.032   7.043
 4837POPC   C4B61774   3.515   5.416   7.310
 4838POPC   NC361775  43.326  44.110   5.532
 4838POPC   PO461776  43.084  43.583   5.370
 4838POPC   GL161777  43.000  43.646   5.812
 4838POPC   GL261778  42.880  44.004   5.881
 4838POPC   C1A61779  43.306  43.569   6.157
 4838POPC   D2A61780  43.478  43.747   6.536
 4838POPC   C3A61781  43.154  43.794   6.818
 4838POPC   C4A61782  43.211  43.762   7.229
 4838POPC   C1B61783  43.097  44.048   6.276
 4838POPC   C2B61784  43.269  44.266   6.626
 4838POPC   C3B61785  43.101  44.252   7.038
 4838POPC   C4B61786  42.817  44.053   7.342
 4839POPC   NC361787  44.346  20.025   5.331
 4839POPC   PO461788   0.030  19.934   5.386
 4839POPC   GL161789  44.752  19.785   5.730
 4839POPC   GL261790  44.368  19.693   5.730
 4839POPC   C1A61791  44.780  19.736   6.169
 4839POPC   D2A61792  44.819  20.036   6.539
 4839POPC   C3A61793  44.826  19.842   6.934
 4839POPC   C4A61794  44.637  20.091   7.286
 4839POPC   C1B61795  44.292  19.849   6.130
 4839POPC   C2B61796  44.417  19.709   6.533
 4839POPC   C3B61797  44.332  19.891   6.907
 4839POPC   C4B61798  44.309  19.651   7.276
 4840POPC   NC361799  10.224  12.219   5.392
 4840POPC   PO461800  10.778  12.399   5.489
 4840POPC   GL161801  10.588  12.246   5.870
 4840POPC   GL261802  10.315  11.997   5.842
 4840POPC   C1A61803  10.496  12.103   6.308
 4840POPC   D2A61804  10.441  12.225   6.724
 4840POPC   C3A61805  10.546  11.910   6.971
 4840POPC   C4A61806  10.470  11.718   7.342
 4840POPC   C1B61807  10.136  12.384   6.047
 4840POPC   C2B61808  10.030  12.445   6.483
 4840POPC   C3B61809   9.944  12.175   6.821
 4840POPC   C4B61810  10.198  12.193   7.205
 4841POPC   NC361811  13.532  12.927   5.471
 4841POPC   PO461812  12.848  12.825   5.348
 4841POPC   GL161813  12.777  12.873   5.744
 4841POPC   GL261814  12.522  12.617   5.753
 4841POPC   C1A61815  12.995  12.714   6.097
 4841POPC   D2A61816  13.251  12.895   6.428
 4841POPC   C3A61817  13.055  12.990   6.794
 4841POPC   C4A61818  12.968  12.677   7.087
 4841POPC   C1B61819  12.472  12.817   6.149
 4841POPC   C2B61820  12.690  12.747   6.510
 4841POPC   C3B61821  12.504  12.718   6.884
 4841POPC   C4B61822  12.552  12.902   7.283
 4842POPC   NC361823  13.786  40.052   5.637
 4842POPC   PO461824  13.346  39.556   5.429
 4842POPC   GL161825  13.327  39.750   5.873
 4842POPC   GL261826  13.292  40.109   5.798
 4842POPC   C1A61827  13.502  39.830   6.291
 4842POPC   D2A61828  13.806  39.771   6.642
 4842POPC   C3A61829  13.647  39.838   7.064
 4842POPC   C4A61830  13.697  39.745   7.499
 4842POPC   C1B61831  13.164  40.201   6.216
 4842POPC   C2B61832  13.344  40.160   6.633
 4842POPC   C3B61833  13.502  40.306   6.969
 4842POPC   C4B61834  13.490  40.193   7.404
 4843POPC   NC361835   6.855  19.535   5.515
 4843POPC   PO461836   6.427  18.994   5.258
 4843POPC   GL161837   6.617  18.885   5.679
 4843POPC   GL261838   6.755  19.191   5.888
 4843POPC   C1A61839   6.566  18.761   6.123
 4843POPC   D2A61840   6.799  18.998   6.422
 4843POPC   C3A61841   6.776  18.929   6.859
 4843POPC   C4A61842   6.717  18.823   7.281
 4843POPC   C1B61843   7.001  19.427   6.228
 4843POPC   C2B61844   7.150  19.304   6.682
 4843POPC   C3B61845   6.941  19.357   7.096
 4843POPC   C4B61846   6.901  19.600   7.458
 4844POPC   NC361847   2.368  26.791   5.699
 4844POPC   PO461848   2.962  26.588   5.288
 4844POPC   GL161849   2.992  26.651   5.738
 4844POPC   GL261850   2.989  27.015   5.822
 4844POPC   C1A61851   2.852  26.618   6.162
 4844POPC   D2A61852   2.663  26.492   6.538
 4844POPC   C3A61853   2.734  26.749   6.898
 4844POPC   C4A61854   2.954  26.696   7.283
 4844POPC   C1B61855   2.650  27.149   6.154
 4844POPC   C2B61856   2.445  27.221   6.571
 4844POPC   C3B61857   2.329  27.098   6.988
 4844POPC   C4B61858   2.567  27.048   7.344
 4845POPC   NC361859  33.711   9.312   5.458
 4845POPC   PO461860  34.021   8.651   5.337
 4845POPC   GL161861  33.838   8.877   5.681
 4845POPC   GL261862  33.561   8.837   5.900
 4845POPC   C1A61863  33.955   9.127   6.074
 4845POPC   D2A61864  33.953   8.956   6.500
 4845POPC   C3A61865  33.879   9.176   6.881
 4845POPC   C4A61866  33.931   9.058   7.244
 4845POPC   C1B61867  33.462   9.196   6.183
 4845POPC   C2B61868  33.410   9.110   6.624
 4845POPC   C3B61869  33.588   8.761   6.868
 4845POPC   C4B61870  33.561   8.716   7.294
 4846POPC   NC361871  30.871  14.557   5.538
 4846POPC   PO461872  30.671  14.047   5.251
 4846POPC   GL161873  30.695  14.116   5.697
 4846POPC   GL261874  30.457  14.411   5.817
 4846POPC   C1A61875  30.736  14.141   6.146
 4846POPC   D2A61876  30.401  14.269   6.455
 4846POPC   C3A61877  30.566  14.199   6.845
 4846POPC   C4A61878  30.744  14.173   7.241
 4846POPC   C1B61879  30.645  14.633   6.195
 4846POPC   C2B61880  30.778  14.641   6.641
 4846POPC   C3B61881  30.656  14.650   7.077
 4846POPC   C4B61882  30.557  14.859   7.458
 4847POPC   NC361883  34.403  24.500   5.367
 4847POPC   PO461884  35.076  24.436   5.464
 4847POPC   GL161885  34.759  24.505   5.755
 4847POPC   GL261886  34.463  24.309   5.847
 4847POPC   C1A61887  34.681  24.689   6.163
 4847POPC   D2A61888  34.502  24.840   6.582
 4847POPC   C3A61889  34.619  24.631   6.962
 4847POPC   C4A61890  34.380  24.600   7.300
 4847POPC   C1B61891  34.359  24.322   6.273
 4847POPC   C2B61892  34.371  24.062   6.621
 4847POPC   C3B61893  34.390  24.152   7.054
 4847POPC   C4B61894  34.483  24.144   7.513
 4848POPC   NC361895  26.717  41.805   5.514
 4848POPC   PO461896  26.647  41.142   5.147
 4848POPC   GL161897  26.816  41.286   5.599
 4848POPC   GL261898  26.526  41.405   5.780
 4848POPC   C1A61899  26.968  41.510   6.041
 4848POPC   D2A61900  26.799  41.789   6.391
 4848POPC   C3A61901  26.798  41.588   6.802
 4848POPC   C4A61902  26.736  41.629   7.243
 4848POPC   C1B61903  26.629  41.140   6.086
 4848POPC   C2B61904  26.771  41.115   6.503
 4848POPC   C3B61905  26.584  41.119   6.898
 4848POPC   C4B61906  26.738  41.133   7.304
 4849POPC   NC361907   2.638   4.940   5.346
 4849POPC   PO461908   2.899   5.540   5.435
 4849POPC   GL161909   2.885   5.221   5.764
 4849POPC   GL261910   3.012   4.866   5.733
 4849POPC   C1A61911   2.609   5.039   6.081
 4849POPC   D2A61912   2.339   5.056   6.475
 4849POPC   C3A61913   2.620   5.142   6.860
 4849POPC   C4A61914   2.662   5.194   7.317
 4849POPC   C1B61915   3.115   4.935   6.188
 4849POPC   C2B61916   3.082   5.086   6.624
 4849POPC   C3B61917   3.059   4.846   7.023
 4849POPC   C4B61918   2.831   4.713   7.409
 4850POPC   NC361919  37.002   7.345   5.303
 4850POPC   PO461920  37.503   7.792   5.719
 4850POPC   GL161921  37.518   7.396   5.925
 4850POPC   GL261922  37.890   7.249   5.963
 4850POPC   C1A61923  37.571   7.315   6.358
 4850POPC   D2A61924  37.983   7.287   6.588
 4850POPC   C3A61925  37.898   7.127   6.990
 4850POPC   C4A61926  37.462   7.166   7.100
 4850POPC   C1B61927  37.921   7.649   6.213
 4850POPC   C2B61928  37.747   7.946   6.511
 4850POPC   C3B61929  37.832   7.893   6.949
 4850POPC   C4B61930  37.764   7.547   7.250
 4851POPC   NC361931   6.815  36.596   5.406
 4851POPC   PO461932   6.381  36.934   5.032
 4851POPC   GL161933   6.494  36.961   5.576
 4851POPC   GL261934   6.858  37.011   5.766
 4851POPC   C1A61935   6.502  36.761   6.045
 4851POPC   D2A61936   6.623  36.753   6.510
 4851POPC   C3A61937   6.370  36.851   6.917
 4851POPC   C4A61938   6.263  36.761   7.366
 4851POPC   C1B61939   7.036  37.025   6.238
 4851POPC   C2B61940   6.982  37.071   6.701
 4851POPC   C3B61941   6.898  36.944   7.127
 4851POPC   C4B61942   7.019  37.142   7.513
 4852POPC   NC361943   0.097  42.597   5.396
 4852POPC   PO461944   0.731  42.316   5.207
 4852POPC   GL161945   0.465  42.286   5.640
 4852POPC   GL261946   0.117  42.322   5.825
 4852POPC   C1A61947   0.519  42.340   6.119
 4852POPC   D2A61948   0.258  42.538   6.429
 4852POPC   C3A61949   0.416  42.626   6.834
 4852POPC   C4A61950   0.420  42.438   7.248
 4852POPC   C1B61951   0.129  41.992   6.115
 4852POPC   C2B61952   0.322  42.028   6.524
 4852POPC   C3B61953   0.126  42.172   6.895
 4852POPC   C4B61954   0.144  41.990   7.281
 4853POPC   NC361955  25.389   2.368   5.175
 4853POPC   PO461956  24.910   2.843   5.383
 4853POPC   GL161957  25.218   2.730   5.723
 4853POPC   GL261958  25.507   2.467   5.727
 4853POPC   C1A61959  25.233   2.669   6.174
 4853POPC   D2A61960  25.239   2.893   6.569
 4853POPC   C3A61961  25.196   2.654   6.945
 4853POPC   C4A61962  25.222   2.811   7.355
 4853POPC   C1B61963  25.592   2.266   6.168
 4853POPC   C2B61964  25.564   2.315   6.657
 4853POPC   C3B61965  25.679   2.470   7.105
 4853POPC   C4B61966  25.643   2.554   7.582
 4854POPC   NC361967  36.232   9.553   5.066
 4854POPC   PO461968  35.944  10.034   5.434
 4854POPC   GL161969  36.013   9.890   5.823
 4854POPC   GL261970  35.841  10.122   6.015
 4854POPC   C1A61971  36.262   9.626   6.115
 4854POPC   D2A61972  36.302   9.733   6.540
 4854POPC   C3A61973  36.129   9.618   6.912
 4854POPC   C4A61974  36.264   9.569   7.329
 4854POPC   C1B61975  35.809   9.792   6.305
 4854POPC   C2B61976  35.712   9.865   6.707
 4854POPC   C3B61977  35.779   9.990   7.075
 4854POPC   C4B61978  35.675   9.839   7.420
 4855POPC   NC361979  42.500  44.474   5.286
 4855POPC   PO461980  42.095  44.874   5.617
 4855POPC   GL161981  42.421  44.758   5.903
 4855POPC   GL261982  42.561  44.455   5.813
 4855POPC   C1A61983  42.346  44.642   6.327
 4855POPC   D2A61984  41.979  44.534   6.554
 4855POPC   C3A61985  42.175  44.530   6.925
 4855POPC   C4A61986  42.061  44.582   7.330
 4855POPC   C1B61987  42.813  44.477   6.199
 4855POPC   C2B61988  42.781  44.415   6.658
 4855POPC   C3B61989  42.658  44.506   7.095
 4855POPC   C4B61990  42.600  44.913   7.304
 4856POPC   NC361991  11.341   4.740   5.158
 4856POPC   PO461992  11.027   4.223   5.416
 4856POPC   GL161993  11.135   4.259   5.828
 4856POPC   GL261994  11.037   4.596   5.996
 4856POPC   C1A61995  11.378   4.159   6.187
 4856POPC   D2A61996  11.554   4.203   6.598
 4856POPC   C3A61997  11.320   4.232   6.968
 4856POPC   C4A61998  11.447   4.320   7.336
 4856POPC   C1B61999  11.385   4.659   6.327
 4856POPC   C2B62000  11.430   4.685   6.783
 4856POPC   C3B62001  11.238   4.748   7.179
 4856POPC   C4B62002  11.242   4.678   7.641
 4857POPC   NC362003  25.589  15.226   5.299
 4857POPC   PO462004  26.231  15.426   5.118
 4857POPC   GL162005  26.047  15.202   5.539
 4857POPC   GL262006  26.187  14.883   5.631
 4857POPC   C1A62007  25.826  15.181   5.989
 4857POPC   D2A62008  25.966  15.194   6.444
 4857POPC   C3A62009  25.902  14.916   6.809
 4857POPC   C4A62010  25.892  15.160   7.202
 4857POPC   C1B62011  26.289  14.989   6.078
 4857POPC   C2B62012  26.319  14.778   6.498
 4857POPC   C3B62013  26.408  14.870   6.922
 4857POPC   C4B62014  26.384  15.071   7.314
 4858POPC   NC362015  14.093  14.738   5.489
 4858POPC   PO462016  14.426  15.352   5.336
 4858POPC   GL162017  14.538  15.146   5.740
 4858POPC   GL262018  14.204  15.159   5.787
 4858POPC   C1A62019  14.731  15.060   6.176
 4858POPC   D2A62020  14.831  15.255   6.606
 4858POPC   C3A62021  14.601  15.110   6.993
 4858POPC   C4A62022  14.354  14.956   7.385
 4858POPC   C1B62023  14.215  15.132   6.219
 4858POPC   C2B62024  14.284  15.299   6.621
 4858POPC   C3B62025  14.071  15.109   6.970
 4858POPC   C4B62026  13.887  15.242   7.344
 4859POPC   NC362027  19.496  13.670   5.337
 4859POPC   PO462028  18.954  14.145   5.383
 4859POPC   GL162029  19.042  13.756   5.639
 4859POPC   GL262030  19.382  13.727   5.824
 4859POPC   C1A62031  18.962  13.596   6.050
 4859POPC   D2A62032  19.042  13.508   6.505
 4859POPC   C3A62033  18.913  13.624   6.925
 4859POPC   C4A62034  18.985  13.519   7.337
 4859POPC   C1B62035  19.362  13.823   6.273
 4859POPC   C2B62036  19.344  13.877   6.716
 4859POPC   C3B62037  19.338  13.853   7.171
 4859POPC   C4B62038  19.352  13.886   7.618
 4860POPC   NC362039  27.809  36.604   5.406
 4860POPC   PO462040  27.388  37.099   5.270
 4860POPC   GL162041  27.575  36.998   5.737
 4860POPC   GL262042  27.956  36.980   5.755
 4860POPC   C1A62043  27.655  36.845   6.206
 4860POPC   D2A62044  27.899  36.765   6.614
 4860POPC   C3A62045  27.852  36.945   7.034
 4860POPC   C4A62046  27.684  36.905   7.489
 4860POPC   C1B62047  27.938  37.248   6.144
 4860POPC   C2B62048  27.778  37.250   6.575
 4860POPC   C3B62049  27.632  37.399   6.967
 4860POPC   C4B62050  27.852  37.384   7.391
 4861POPC   NC362051  35.783   2.127   5.369
 4861POPC   PO462052  35.203   2.236   5.508
 4861POPC   GL162053  35.407   1.892   5.719
 4861POPC   GL262054  35.665   1.662   5.611
 4861POPC   C1A62055  35.265   1.854   6.125
 4861POPC   D2A62056  35.113   2.145   6.419
 4861POPC   C3A62057  35.296   2.047   6.801
 4861POPC   C4A62058  35.195   2.119   7.199
 4861POPC   C1B62059  35.735   1.674   6.064
 4861POPC   C2B62060  35.667   1.918   6.459
 4861POPC   C3B62061  35.778   1.851   6.901
 4861POPC   C4B62062  35.693   1.573   7.256
 4862POPC   NC362063  15.520  35.006   5.471
 4862POPC   PO462064  15.285  34.283   5.385
 4862POPC   GL162065  15.157  34.686   5.654
 4862POPC   GL262066  14.804  34.865   5.649
 4862POPC   C1A62067  15.335  34.735   6.071
 4862POPC   D2A62068  15.342  34.449   6.442
 4862POPC   C3A62069  15.007  34.403   6.747
 4862POPC   C4A62070  15.208  34.431   7.125
 4862POPC   C1B62071  14.831  34.710   6.065
 4862POPC   C2B62072  15.007  34.865   6.446
 4862POPC   C3B62073  15.154  34.880   6.843
 4862POPC   C4B62074  14.922  34.870   7.205
 4863POPC   NC362075   4.880  20.634   5.499
 4863POPC   PO462076   5.031  21.285   5.469
 4863POPC   GL162077   5.037  21.035   5.850
 4863POPC   GL262078   4.686  20.883   5.913
 4863POPC   C1A62079   5.207  20.786   6.206
 4863POPC   D2A62080   5.008  20.542   6.552
 4863POPC   C3A62081   5.215  20.423   6.954
 4863POPC   C4A62082   5.382  20.715   7.235
 4863POPC   C1B62083   4.759  21.043   6.348
 4863POPC   C2B62084   4.700  20.910   6.790
 4863POPC   C3B62085   4.857  20.898   7.202
 4863POPC   C4B62086   4.695  21.043   7.580
 4864POPC   NC362087  21.709  11.827   5.367
 4864POPC   PO462088  21.132  11.398   5.277
 4864POPC   GL162089  21.336  11.380   5.694
 4864POPC   GL262090  21.705  11.477   5.744
 4864POPC   C1A62091  21.402  11.276   6.146
 4864POPC   D2A62092  21.253  11.518   6.499
 4864POPC   C3A62093  21.327  11.302   6.896
 4864POPC   C4A62094  21.076  11.277   7.269
 4864POPC   C1B62095  21.884  11.401   6.161
 4864POPC   C2B62096  21.740  11.322   6.571
 4864POPC   C3B62097  21.832  11.471   7.007
 4864POPC   C4B62098  21.581  11.334   7.356
 4865POPC   NC362099  12.949  20.035   5.305
 4865POPC   PO462100  12.263  19.984   5.390
 4865POPC   GL162101  12.629  20.012   5.738
 4865POPC   GL262102  12.911  19.747   5.738
 4865POPC   C1A62103  12.695  19.976   6.195
 4865POPC   D2A62104  12.416  19.940   6.562
 4865POPC   C3A62105  12.555  19.884   6.981
 4865POPC   C4A62106  12.807  19.968   7.317
 4865POPC   C1B62107  13.062  19.602   6.135
 4865POPC   C2B62108  13.029  19.769   6.544
 4865POPC   C3B62109  13.001  19.646   6.963
 4865POPC   C4B62110  13.107  19.563   7.375
 4866POPC   NC362111  17.940  15.041   5.632
 4866POPC   PO462112  17.333  15.290   5.282
 4866POPC   GL162113  17.394  15.473   5.755
 4866POPC   GL262114  17.695  15.352   5.957
 4866POPC   C1A62115  17.310  15.510   6.236
 4866POPC   D2A62116  17.617  15.365   6.591
 4866POPC   C3A62117  17.455  15.327   7.028
 4866POPC   C4A62118  17.597  15.324   7.457
 4866POPC   C1B62119  17.455  15.024   6.219
 4866POPC   C2B62120  17.224  15.031   6.634
 4866POPC   C3B62121  17.107  14.932   7.057
 4866POPC   C4B62122  17.235  14.975   7.471
 4867POPC   NC362123  34.251  11.380   5.419
 4867POPC   PO462124  33.732  10.909   5.352
 4867POPC   GL162125  33.772  11.264   5.757
 4867POPC   GL262126  34.085  11.315   5.888
 4867POPC   C1A62127  33.752  11.472   6.241
 4867POPC   D2A62128  33.728  11.640   6.715
 4867POPC   C3A62129  33.459  11.427   7.020
 4867POPC   C4A62130  33.396  11.185   7.382
 4867POPC   C1B62131  34.278  11.106   6.213
 4867POPC   C2B62132  34.190  10.953   6.602
 4867POPC   C3B62133  33.911  11.157   6.878
 4867POPC   C4B62134  33.897  11.286   7.287
 4868POPC   NC362135  13.692   0.811   5.367
 4868POPC   PO462136  13.965   0.192   5.468
 4868POPC   GL162137  13.961   0.554   5.731
 4868POPC   GL262138  13.590   0.538   5.798
 4868POPC   C1A62139  13.970   0.780   6.125
 4868POPC   D2A62140  13.777   0.680   6.539
 4868POPC   C3A62141  13.931   0.394   6.830
 4868POPC   C4A62142  13.929   0.533   7.245
 4868POPC   C1B62143  13.710   0.309   6.187
 4868POPC   C2B62144  13.523   0.190   6.615
 4868POPC   C3B62145  13.478   0.265   7.065
 4868POPC   C4B62146  13.581   0.291   7.534
 4869POPC   NC362147  12.662  24.620   5.378
 4869POPC   PO462148  13.277  24.637   5.693
 4869POPC   GL162149  12.868  24.603   5.876
 4869POPC   GL262150  12.776  24.273   5.750
 4869POPC   C1A62151  12.725  24.566   6.319
 4869POPC   D2A62152  12.899  24.722   6.725
 4869POPC   C3A62153  12.762  24.646   7.123
 4869POPC   C4A62154  12.721  24.387   7.457
 4869POPC   C1B62155  13.027  24.174   6.109
 4869POPC   C2B62156  13.099  24.269   6.528
 4869POPC   C3B62157  12.792  24.221   6.836
 4869POPC   C4B62158  12.967  24.065   7.176
 4870POPC   NC362159  12.418  44.435   5.457
 4870POPC   PO462160  13.071  44.773   5.514
 4870POPC   GL162161  12.709  44.745   5.780
 4870POPC   GL262162  12.959  44.833   6.040
 4870POPC   C1A62163  12.462  44.732   6.144
 4870POPC   D2A62164  12.698  44.790   6.511
 4870POPC   C3A62165  12.695  44.570   6.912
 4870POPC   C4A62166  12.703  44.761   7.337
 4870POPC   C1B62167  13.142  44.434   6.177
 4870POPC   C2B62168  13.095  44.237   6.560
 4870POPC   C3B62169  13.228  44.379   6.948
 4870POPC   C4B62170  13.085  44.412   7.342
 4871POPC   NC362171  22.287  25.748   5.441
 4871POPC   PO462172  22.005  26.380   5.316
 4871POPC   GL162173  22.087  26.240   5.746
 4871POPC   GL262174  22.057  25.918   5.865
 4871POPC   C1A62175  22.267  26.284   6.186
 4871POPC   D2A62176  22.395  26.109   6.614
 4871POPC   C3A62177  22.166  26.302   6.962
 4871POPC   C4A62178  22.057  26.241   7.362
 4871POPC   C1B62179  22.147  25.792   6.290
 4871POPC   C2B62180  22.234  25.597   6.711
 4871POPC   C3B62181  22.282  25.665   7.175
 4871POPC   C4B62182  22.007  25.744   7.549
 4872POPC   NC362183   5.371  19.164   5.144
 4872POPC   PO462184   4.845  18.848   5.431
 4872POPC   GL162185   5.100  18.969   5.786
 4872POPC   GL262186   4.840  19.163   5.907
 4872POPC   C1A62187   5.110  18.822   6.258
 4872POPC   D2A62188   5.355  18.771   6.676
 4872POPC   C3A62189   5.238  18.952   7.096
 4872POPC   C4A62190   5.085  19.379   7.202
 4872POPC   C1B62191   4.917  19.303   6.315
 4872POPC   C2B62192   4.955  19.175   6.733
 4872POPC   C3B62193   4.700  19.075   7.109
 4872POPC   C4B62194   4.739  19.252   7.581
 4873POPC   NC362195  32.067  36.733   5.227
 4873POPC   PO462196  32.466  37.304   5.219
 4873POPC   GL162197  32.339  37.129   5.665
 4873POPC   GL262198  32.044  36.902   5.752
 4873POPC   C1A62199  32.385  37.084   6.130
 4873POPC   D2A62200  32.332  36.861   6.511
 4873POPC   C3A62201  32.382  36.675   6.905
 4873POPC   C4A62202  32.119  37.004   7.064
 4873POPC   C1B62203  31.961  36.687   6.188
 4873POPC   C2B62204  31.907  36.626   6.673
 4873POPC   C3B62205  31.737  36.690   7.110
 4873POPC   C4B62206  31.798  36.703   7.551
 4874POPC   NC362207   6.457  26.321   5.610
 4874POPC   PO462208   6.923  26.786   5.462
 4874POPC   GL162209   6.629  26.784   5.816
 4874POPC   GL262210   6.512  27.128   5.913
 4874POPC   C1A62211   6.470  26.712   6.240
 4874POPC   D2A62212   6.682  26.622   6.630
 4874POPC   C3A62213   6.459  26.613   7.019
 4874POPC   C4A62214   6.535  26.531   7.480
 4874POPC   C1B62215   6.149  27.115   6.212
 4874POPC   C2B62216   6.190  27.050   6.657
 4874POPC   C3B62217   6.571  27.106   6.873
 4874POPC   C4B62218   6.622  27.290   7.259
 4875POPC   NC362219  30.068  41.735   5.742
 4875POPC   PO462220  30.503  41.496   5.266
 4875POPC   GL162221  30.587  41.636   5.667
 4875POPC   GL262222  30.406  41.341   5.779
 4875POPC   C1A62223  30.840  41.542   6.061
 4875POPC   D2A62224  30.782  41.430   6.504
 4875POPC   C3A62225  30.727  41.653   6.900
 4875POPC   C4A62226  30.443  41.653   7.247
 4875POPC   C1B62227  30.549  41.109   6.131
 4875POPC   C2B62228  30.492  40.986   6.553
 4875POPC   C3B62229  30.427  41.199   6.963
 4875POPC   C4B62230  30.408  41.143   7.427
 4876POPC   NC362231   2.212  32.560   5.625
 4876POPC   PO462232   1.773  32.101   5.481
 4876POPC   GL162233   1.989  32.132   5.867
 4876POPC   GL262234   1.796  32.438   5.905
 4876POPC   C1A62235   2.116  32.092   6.320
 4876POPC   D2A62236   2.288  32.264   6.720
 4876POPC   C3A62237   2.140  32.029   7.059
 4876POPC   C4A62238   1.710  32.016   7.109
 4876POPC   C1B62239   1.900  32.545   6.327
 4876POPC   C2B62240   1.764  32.335   6.700
 4876POPC   C3B62241   1.696  32.521   7.087
 4876POPC   C4B62242   2.087  32.484   7.255
 4877POPC   NC362243  18.669   3.020   5.218
 4877POPC   PO462244  18.161   2.628   5.348
 4877POPC   GL162245  18.348   2.776   5.769
 4877POPC   GL262246  18.610   2.499   5.854
 4877POPC   C1A62247  18.147   2.882   6.203
 4877POPC   D2A62248  18.138   2.650   6.605
 4877POPC   C3A62249  18.185   2.877   6.995
 4877POPC   C4A62250  17.862   3.117   7.190
 4877POPC   C1B62251  18.635   2.748   6.244
 4877POPC   C2B62252  18.627   2.784   6.687
 4877POPC   C3B62253  18.605   2.568   7.054
 4877POPC   C4B62254  18.375   2.560   7.423
 4878POPC   NC362255  25.262  15.490   5.720
 4878POPC   PO462256  25.153  15.042   5.170
 4878POPC   GL162257  25.095  15.005   5.624
 4878POPC   GL262258  24.824  15.203   5.676
 4878POPC   C1A62259  25.324  14.962   6.083
 4878POPC   D2A62260  25.451  15.279   6.386
 4878POPC   C3A62261  25.446  15.152   6.822
 4878POPC   C4A62262  25.365  15.318   7.201
 4878POPC   C1B62263  24.826  14.913   6.036
 4878POPC   C2B62264  24.830  15.035   6.449
 4878POPC   C3B62265  24.975  14.900   6.837
 4878POPC   C4B62266  25.105  14.847   7.248
 4879POPC   NC362267  23.186   3.848   5.402
 4879POPC   PO462268  22.810   3.345   5.505
 4879POPC   GL162269  22.921   3.700   5.832
 4879POPC   GL262270  23.288   3.660   5.886
 4879POPC   C1A62271  23.037   3.800   6.299
 4879POPC   D2A62272  23.193   3.724   6.716
 4879POPC   C3A62273  22.905   3.587   7.023
 4879POPC   C4A62274  22.867   3.770   7.475
 4879POPC   C1B62275  23.084   3.306   6.134
 4879POPC   C2B62276  23.048   3.162   6.557
 4879POPC   C3B62277  23.283   3.225   6.932
 4879POPC   C4B62278  23.214   3.387   7.358
 4880POPC   NC362279  33.117  21.197   5.124
 4880POPC   PO462280  32.991  20.575   5.450
 4880POPC   GL162281  32.913  20.781   5.818
 4880POPC   GL262282  32.762  20.475   5.957
 4880POPC   C1A62283  33.018  20.915   6.237
 4880POPC   D2A62284  33.232  20.675   6.530
 4880POPC   C3A62285  32.987  20.521   6.880
 4880POPC   C4A62286  32.864  20.765   7.245
 4880POPC   C1B62287  33.186  20.423   6.082
 4880POPC   C2B62288  33.316  20.188   6.467
 4880POPC   C3B62289  33.328  20.119   6.906
 4880POPC   C4B62290  33.259  20.279   7.301
 4881POPC   NC362291  14.788  10.590   5.528
 4881POPC   PO462292  15.418  10.401   5.538
 4881POPC   GL162293  15.142  10.366   5.899
 4881POPC   GL262294  15.077  10.697   5.927
 4881POPC   C1A62295  14.963  10.401   6.338
 4881POPC   D2A62296  14.909  10.357   6.779
 4881POPC   C3A62297  15.191  10.419   7.121
 4881POPC   C4A62298  15.035  10.461   7.549
 4881POPC   C1B62299  14.779  10.880   6.202
 4881POPC   C2B62300  14.660  10.787   6.624
 4881POPC   C3B62301  14.823  10.781   7.050
 4881POPC   C4B62302  14.619  10.771   7.462
 4882POPC   NC362303  25.603  36.148   5.473
 4882POPC   PO462304  26.234  35.986   5.419
 4882POPC   GL162305  26.105  36.253   5.750
 4882POPC   GL262306  26.291  36.046   5.941
 4882POPC   C1A62307  26.001  36.353   6.214
 4882POPC   D2A62308  26.014  36.081   6.601
 4882POPC   C3A62309  25.912  36.231   6.974
 4882POPC   C4A62310  26.221  36.304   7.237
 4882POPC   C1B62311  26.352  35.836   6.303
 4882POPC   C2B62312  26.613  35.936   6.634
 4882POPC   C3B62313  26.507  35.947   7.013
 4882POPC   C4B62314  26.135  35.767   7.100
 4883POPC   NC362315  28.080  10.385   5.635
 4883POPC   PO462316  28.523  10.535   5.137
 4883POPC   GL162317  28.475  10.725   5.663
 4883POPC   GL262318  28.216  10.812   5.913
 4883POPC   C1A62319  28.550  10.577   6.174
 4883POPC   D2A62320  28.238  10.360   6.484
 4883POPC   C3A62321  28.339  10.405   6.928
 4883POPC   C4A62322  28.671  10.645   7.131
 4883POPC   C1B62323  27.951  10.774   6.327
 4883POPC   C2B62324  27.918  10.674   6.790
 4883POPC   C3B62325  28.166  10.854   7.136
 4883POPC   C4B62326  28.034  11.037   7.530
 4884POPC   NC362327  30.419   9.270   5.481
 4884POPC   PO462328  29.892   8.892   5.409
 4884POPC   GL162329  29.845   9.025   5.817
 4884POPC   GL262330  30.133   9.070   6.010
 4884POPC   C1A62331  29.662   8.849   6.186
 4884POPC   D2A62332  29.595   8.988   6.602
 4884POPC   C3A62333  29.694   8.755   6.965
 4884POPC   C4A62334  29.511   8.809   7.344
 4884POPC   C1B62335  30.071   9.144   6.451
 4884POPC   C2B62336  30.176   8.996   6.867
 4884POPC   C3B62337  30.148   9.111   7.295
 4884POPC   C4B62338  30.297   8.922   7.696
 4885POPC   NC362339  32.583  13.338   5.394
 4885POPC   PO462340  31.878  13.519   5.409
 4885POPC   GL162341  32.093  13.499   5.811
 4885POPC   GL262342  31.911  13.284   6.030
 4885POPC   C1A62343  32.348  13.695   6.165
 4885POPC   D2A62344  32.559  13.916   6.524
 4885POPC   C3A62345  32.423  13.942   6.955
 4885POPC   C4A62346  32.334  13.601   7.278
 4885POPC   C1B62347  32.336  13.158   6.147
 4885POPC   C2B62348  32.576  13.355   6.479
 4885POPC   C3B62349  32.351  13.460   6.789
 4885POPC   C4B62350  32.354  13.143   7.067
 4886POPC   NC362351  35.733  37.444   5.407
 4886POPC   PO462352  35.108  37.709   5.457
 4886POPC   GL162353  35.408  37.696   5.773
 4886POPC   GL262354  35.434  37.338   5.814
 4886POPC   C1A62355  35.389  37.674   6.216
 4886POPC   D2A62356  35.273  37.650   6.630
 4886POPC   C3A62357  35.459  37.977   6.890
 4886POPC   C4A62358  35.497  37.876   7.311
 4886POPC   C1B62359  35.719  37.271   6.160
 4886POPC   C2B62360  35.667  37.230   6.598
 4886POPC   C3B62361  35.503  37.265   6.998
 4886POPC   C4B62362  35.614  37.380   7.447
 4887POPC   NC362363   1.673  29.340   5.499
 4887POPC   PO462364   2.410  29.154   5.386
 4887POPC   GL162365   2.155  29.192   5.770
 4887POPC   GL262366   2.001  29.502   5.894
 4887POPC   C1A62367   1.991  29.009   6.162
 4887POPC   D2A62368   1.904  29.147   6.589
 4887POPC   C3A62369   2.022  28.867   6.938
 4887POPC   C4A62370   2.035  29.006   7.381
 4887POPC   C1B62371   2.296  29.413   6.224
 4887POPC   C2B62372   2.390  29.267   6.646
 4887POPC   C3B62373   2.198  29.360   7.037
 4887POPC   C4B62374   2.281  29.595   7.421
 4888POPC   NC362375  16.406  23.878   5.428
 4888POPC   PO462376  16.899  23.513   5.420
 4888POPC   GL162377  16.838  23.840   5.784
 4888POPC   GL262378  16.476  23.901   5.927
 4888POPC   C1A62379  16.834  23.800   6.271
 4888POPC   D2A62380  16.776  23.423   6.561
 4888POPC   C3A62381  16.860  23.551   6.990
 4888POPC   C4A62382  16.853  23.832   7.356
 4888POPC   C1B62383  16.317  23.687   6.295
 4888POPC   C2B62384  16.361  23.701   6.742
 4888POPC   C3B62385  16.380  23.696   7.179
 4888POPC   C4B62386  16.413  23.749   7.624
 4889POPC   NC362387   6.821   4.170   5.504
 4889POPC   PO462388   7.156   4.778   5.548
 4889POPC   GL162389   6.881   4.509   5.873
 4889POPC   GL262390   6.565   4.229   5.932
 4889POPC   C1A62391   6.982   4.205   6.192
 4889POPC   D2A62392   7.079   4.194   6.605
 4889POPC   C3A62393   6.918   4.596   6.815
 4889POPC   C4A62394   6.818   4.699   7.271
 4889POPC   C1B62395   6.510   3.981   6.295
 4889POPC   C2B62396   6.577   4.215   6.660
 4889POPC   C3B62397   6.769   4.200   7.068
 4889POPC   C4B62398   6.462   4.248   7.341
 4890POPC   NC362399  24.906   0.667   5.223
 4890POPC   PO462400  25.317   0.125   5.436
 4890POPC   GL162401  25.052   0.291   5.767
 4890POPC   GL262402  25.032   0.649   5.746
 4890POPC   C1A62403  25.048   0.315   6.229
 4890POPC   D2A62404  25.354   0.338   6.588
 4890POPC   C3A62405  25.041   0.366   6.962
 4890POPC   C4A62406  25.122   0.390   7.443
 4890POPC   C1B62407  25.299   0.742   6.133
 4890POPC   C2B62408  25.108   0.763   6.561
 4890POPC   C3B62409  25.350   0.753   6.939
 4890POPC   C4B62410  25.407   0.857   7.371
 4891POPC   NC362411  10.459  31.216   5.448
 4891POPC   PO462412  10.170  31.853   5.374
 4891POPC   GL162413  10.424  31.633   5.735
 4891POPC   GL262414  10.726  31.510   5.815
 4891POPC   C1A62415  10.389  31.546   6.227
 4891POPC   D2A62416  10.586  31.323   6.593
 4891POPC   C3A62417  10.359  31.250   6.979
 4891POPC   C4A62418  10.089  30.975   7.216
 4891POPC   C1B62419  10.916  31.460   6.220
 4891POPC   C2B62420  10.927  31.695   6.619
 4891POPC   C3B62421  10.947  31.480   6.982
 4891POPC   C4B62422  10.860  31.081   6.975
 4892POPC   NC362423   2.369   5.756   5.439
 4892POPC   PO462424   1.744   6.207   5.453
 4892POPC   GL162425   1.996   6.069   5.776
 4892POPC   GL262426   1.699   6.085   6.024
 4892POPC   C1A62427   2.142   5.854   6.161
 4892POPC   D2A62428   1.912   5.680   6.547
 4892POPC   C3A62429   2.083   5.746   6.955
 4892POPC   C4A62430   2.247   5.961   7.278
 4892POPC   C1B62431   1.443   5.752   6.257
 4892POPC   C2B62432   1.403   5.657   6.691
 4892POPC   C3B62433   1.618   5.933   6.910
 4892POPC   C4B62434   1.739   6.017   7.269
 4893POPC   NC362435   7.035  22.603   5.108
 4893POPC   PO462436   6.560  23.054   5.260
 4893POPC   GL162437   6.714  23.167   5.751
 4893POPC   GL262438   6.596  22.910   5.938
 4893POPC   C1A62439   6.553  23.331   6.203
 4893POPC   D2A62440   6.277  23.148   6.498
 4893POPC   C3A62441   6.336  23.233   6.906
 4893POPC   C4A62442   6.578  22.970   7.177
 4893POPC   C1B62443   6.898  22.960   6.230
 4893POPC   C2B62444   6.778  22.984   6.647
 4893POPC   C3B62445   7.055  22.961   6.988
 4893POPC   C4B62446   7.045  23.112   7.418
 4894POPC   NC362447  31.848  29.651   5.565
 4894POPC   PO462448  32.277  30.087   5.137
 4894POPC   GL162449  32.170  30.057   5.611
 4894POPC   GL262450  32.309  29.736   5.788
 4894POPC   C1A62451  31.976  30.028   6.070
 4894POPC   D2A62452  32.125  29.843   6.464
 4894POPC   C3A62453  32.030  29.900   6.906
 4894POPC   C4A62454  32.180  30.141   7.249
 4894POPC   C1B62455  32.468  29.535   6.195
 4894POPC   C2B62456  32.516  29.578   6.665
 4894POPC   C3B62457  32.511  29.843   7.015
 4894POPC   C4B62458  32.598  29.942   7.467
 4895POPC   NC362459  26.877  23.462   5.472
 4895POPC   PO462460  26.909  24.145   5.646
 4895POPC   GL162461  26.860  23.820   5.879
 4895POPC   GL262462  26.544  23.676   5.811
 4895POPC   C1A62463  26.766  23.888   6.294
 4895POPC   D2A62464  26.794  24.186   6.609
 4895POPC   C3A62465  26.697  23.930   6.903
 4895POPC   C4A62466  26.736  23.765   7.277
 4895POPC   C1B62467  26.677  23.402   6.192
 4895POPC   C2B62468  26.704  23.468   6.674
 4895POPC   C3B62469  26.605  23.283   7.114
 4895POPC   C4B62470  26.528  23.181   7.592
 4896POPC   NC362471  31.813  38.412   5.650
 4896POPC   PO462472  31.233  38.269   5.382
 4896POPC   GL162473  31.328  38.531   5.734
 4896POPC   GL262474  31.182  38.300   5.911
 4896POPC   C1A62475  31.521  38.562   6.184
 4896POPC   D2A62476  31.565  38.357   6.589
 4896POPC   C3A62477  31.683  38.654   6.898
 4896POPC   C4A62478  31.525  38.815   7.292
 4896POPC   C1B62479  31.287  38.055   6.286
 4896POPC   C2B62480  31.280  37.951   6.745
 4896POPC   C3B62481  31.272  38.135   7.157
 4896POPC   C4B62482  31.243  38.439   7.548
 4897POPC   NC362483  44.739   1.014   5.358
 4897POPC   PO462484  44.727   1.609   5.675
 4897POPC   GL162485  44.623   1.288   5.914
 4897POPC   GL262486  44.827   1.009   5.879
 4897POPC   C1A62487  44.867   1.286   6.303
 4897POPC   D2A62488   0.060   1.326   6.698
 4897POPC   C3A62489  44.741   1.196   6.965
 4897POPC   C4A62490  44.337   1.339   7.060
 4897POPC   C1B62491  44.506   0.891   6.223
 4897POPC   C2B62492  44.368   0.937   6.687
 4897POPC   C3B62493  44.334   0.852   7.156
 4897POPC   C4B62494  44.629   1.023   7.461
 4898POPC   NC362495   9.013   7.820   5.357
 4898POPC   PO462496   9.291   8.381   5.383
 4898POPC   GL162497   9.359   8.167   5.760
 4898POPC   GL262498   9.366   7.808   5.809
 4898POPC   C1A62499   9.210   8.257   6.175
 4898POPC   D2A62500   9.066   8.454   6.564
 4898POPC   C3A62501   9.104   8.282   6.972
 4898POPC   C4A62502   8.747   8.356   7.242
 4898POPC   C1B62503   8.984   7.809   6.067
 4898POPC   C2B62504   8.900   7.920   6.495
 4898POPC   C3B62505   8.885   7.800   6.916
 4898POPC   C4B62506   8.981   7.911   7.334
 4899POPC   NC362507  12.436   8.448   5.414
 4899POPC   PO462508  11.739   8.126   5.490
 4899POPC   GL162509  12.006   8.122   5.825
 4899POPC   GL262510  12.137   8.446   5.816
 4899POPC   C1A62511  12.097   8.060   6.236
 4899POPC   D2A62512  12.264   8.029   6.635
 4899POPC   C3A62513  11.999   8.005   6.954
 4899POPC   C4A62514  12.082   7.905   7.361
 4899POPC   C1B62515  12.473   8.382   6.106
 4899POPC   C2B62516  12.307   8.523   6.500
 4899POPC   C3B62517  12.157   8.513   6.886
 4899POPC   C4B62518  11.971   8.413   7.249
 4900POPC   NC362519  44.211  36.552   5.360
 4900POPC   PO462520  43.605  36.924   5.463
 4900POPC   GL162521  43.451  37.062   5.816
 4900POPC   GL262522  43.338  36.784   5.952
 4900POPC   C1A62523  43.576  37.260   6.193
 4900POPC   D2A62524  43.706  37.020   6.536
 4900POPC   C3A62525  43.619  37.142   6.935
 4900POPC   C4A62526  43.839  37.087   7.341
 4900POPC   C1B62527  43.305  36.679   6.392
 4900POPC   C2B62528  43.538  36.568   6.746
 4900POPC   C3B62529  43.539  36.669   7.152
 4900POPC   C4B62530  43.331  36.982   7.356
 4901POPC   NC362531  17.634  44.333   5.310
 4901POPC   PO462532  17.336  44.947   5.231
 4901POPC   GL162533  17.371  44.665   5.675
 4901POPC   GL262534  17.611  44.385   5.813
 4901POPC   C1A62535  17.448  44.699   6.170
 4901POPC   D2A62536  17.707  44.694   6.569
 4901POPC   C3A62537  17.535  44.917   6.908
 4901POPC   C4A62538  17.311  44.792   7.253
 4901POPC   C1B62539  17.785  44.275   6.235
 4901POPC   C2B62540  17.769  44.182   6.684
 4901POPC   C3B62541  17.671  44.429   7.054
 4901POPC   C4B62542  17.733  44.458   7.525
 4902POPC   NC362543  10.242   1.069   5.408
 4902POPC   PO462544   9.570   1.152   5.378
 4902POPC   GL162545   9.785   1.049   5.743
 4902POPC   GL262546   9.961   1.340   5.828
 4902POPC   C1A62547   9.699   1.047   6.200
 4902POPC   D2A62548   9.411   1.062   6.561
 4902POPC   C3A62549   9.649   1.040   6.950
 4902POPC   C4A62550   9.808   1.000   7.375
 4902POPC   C1B62551   9.829   1.556   6.196
 4902POPC   C2B62552   9.767   1.432   6.628
 4902POPC   C3B62553   9.830   1.597   7.052
 4902POPC   C4B62554   9.863   1.520   7.487
 4903POPC   NC362555  17.541  31.622   5.326
 4903POPC   PO462556  16.884  31.614   5.394
 4903POPC   GL162557  17.199  31.765   5.753
 4903POPC   GL262558  17.591  31.808   5.787
 4903POPC   C1A62559  17.168  31.629   6.211
 4903POPC   D2A62560  16.930  31.641   6.617
 4903POPC   C3A62561  17.118  31.674   7.013
 4903POPC   C4A62562  17.245  31.432   7.383
 4903POPC   C1B62563  17.672  31.767   6.224
 4903POPC   C2B62564  17.661  31.645   6.681
 4903POPC   C3B62565  17.654  31.733   7.129
 4903POPC   C4B62566  17.715  31.535   7.558
 4904POPC   NC362567  33.615  15.843   5.283
 4904POPC   PO462568  34.082  16.177   5.587
 4904POPC   GL162569  33.865  15.899   5.897
 4904POPC   GL262570  33.484  15.872   5.944
 4904POPC   C1A62571  33.773  16.039   6.338
 4904POPC   D2A62572  34.029  16.111   6.690
 4904POPC   C3A62573  34.030  15.889   7.094
 4904POPC   C4A62574  33.765  16.031   7.437
 4904POPC   C1B62575  33.693  15.526   6.240
 4904POPC   C2B62576  33.789  15.632   6.657
 4904POPC   C3B62577  33.562  15.905   6.914
 4904POPC   C4B62578  33.583  15.621   7.236
 4905POPC   NC362579  28.393   8.085   5.470
 4905POPC   PO462580  28.487   8.731   5.560
 4905POPC   GL162581  28.515   8.416   5.862
 4905POPC   GL262582  28.194   8.318   5.895
 4905POPC   C1A62583  28.697   8.327   6.268
 4905POPC   D2A62584  28.751   8.565   6.651
 4905POPC   C3A62585  28.654   8.450   7.077
 4905POPC   C4A62586  28.417   8.283   7.426
 4905POPC   C1B62587  28.325   7.984   6.144
 4905POPC   C2B62588  28.341   8.102   6.574
 4905POPC   C3B62589  28.229   8.074   7.012
 4905POPC   C4B62590  28.122   7.857   7.406
 4906POPC   NC362591  32.958  27.416   5.407
 4906POPC   PO462592  33.078  28.156   5.391
 4906POPC   GL162593  33.088  27.880   5.768
 4906POPC   GL262594  33.339  27.663   5.649
 4906POPC   C1A62595  33.013  27.669   6.211
 4906POPC   D2A62596  32.976  27.859   6.636
 4906POPC   C3A62597  32.802  27.709   7.012
 4906POPC   C4A62598  32.747  27.653   7.458
 4906POPC   C1B62599  33.493  27.681   6.067
 4906POPC   C2B62600  33.486  27.811   6.528
 4906POPC   C3B62601  33.332  27.567   6.880
 4906POPC   C4B62602  33.217  27.626   7.288
 4907POPC   NC362603  41.799  19.407   5.471
 4907POPC   PO462604  41.493  18.804   5.387
 4907POPC   GL162605  41.591  19.035   5.784
 4907POPC   GL262606  41.308  18.983   6.000
 4907POPC   C1A62607  41.748  18.909   6.228
 4907POPC   D2A62608  41.777  18.999   6.667
 4907POPC   C3A62609  41.820  18.666   6.988
 4907POPC   C4A62610  41.799  18.705   7.442
 4907POPC   C1B62611  41.285  19.019   6.455
 4907POPC   C2B62612  41.343  18.951   6.912
 4907POPC   C3B62613  41.406  19.225   7.312
 4907POPC   C4B62614  41.234  19.416   7.776
 4908POPC   NC362615  16.131  35.796   5.435
 4908POPC   PO462616  15.511  35.979   5.177
 4908POPC   GL162617  15.703  35.999   5.691
 4908POPC   GL262618  16.035  36.196   5.778
 4908POPC   C1A62619  15.807  36.081   6.214
 4908POPC   D2A62620  16.002  36.289   6.630
 4908POPC   C3A62621  15.850  36.262   7.094
 4908POPC   C4A62622  15.917  35.945   7.455
 4908POPC   C1B62623  16.328  36.034   6.134
 4908POPC   C2B62624  16.284  35.844   6.552
 4908POPC   C3B62625  16.087  35.847   6.939
 4908POPC   C4B62626  16.340  36.074   7.200
 4909POPC   NC362627  20.501  16.292   5.637
 4909POPC   PO462628  20.168  15.646   5.558
 4909POPC   GL162629  20.550  15.768   5.803
 4909POPC   GL262630  20.367  15.977   6.008
 4909POPC   C1A62631  20.841  15.807   6.195
 4909POPC   D2A62632  20.853  16.065   6.619
 4909POPC   C3A62633  20.756  15.900   7.040
 4909POPC   C4A62634  20.726  16.053   7.450
 4909POPC   C1B62635  20.409  15.914   6.437
 4909POPC   C2B62636  20.535  15.571   6.707
 4909POPC   C3B62637  20.333  15.573   7.117
 4909POPC   C4B62638  20.256  15.948   7.277
 4910POPC   NC362639  22.293  28.005   5.668
 4910POPC   PO462640  22.152  27.482   5.243
 4910POPC   GL162641  22.240  27.501   5.718
 4910POPC   GL262642  22.607  27.594   5.820
 4910POPC   C1A62643  22.094  27.619   6.155
 4910POPC   D2A62644  22.126  27.419   6.577
 4910POPC   C3A62645  21.921  27.494   6.971
 4910POPC   C4A62646  22.050  27.268   7.353
 4910POPC   C1B62647  22.556  27.848   6.197
 4910POPC   C2B62648  22.275  27.955   6.499
 4910POPC   C3B62649  22.329  27.807   6.881
 4910POPC   C4B62650  22.250  27.731   7.282
 4911POPC   NC362651  34.777  44.352   5.560
 4911POPC   PO462652  34.563  44.854   5.199
 4911POPC   GL162653  34.583  44.822   5.691
 4911POPC   GL262654  34.382  44.538   5.842
 4911POPC   C1A62655  34.598  44.833   6.175
 4911POPC   D2A62656  34.460  44.699   6.590
 4911POPC   C3A62657  34.714  44.674   6.960
 4911POPC   C4A62658  34.650  44.941   7.317
 4911POPC   C1B62659  34.527  44.327   6.224
 4911POPC   C2B62660  34.504  44.190   6.649
 4911POPC   C3B62661  34.325  44.334   7.035
 4911POPC   C4B62662  34.291  44.515   7.458
 4912POPC   NC362663  19.233   3.234   5.563
 4912POPC   PO462664  19.063   2.775   5.073
 4912POPC   GL162665  19.120   2.707   5.568
 4912POPC   GL262666  19.445   2.809   5.734
 4912POPC   C1A62667  19.090   2.570   6.040
 4912POPC   D2A62668  18.960   2.432   6.480
 4912POPC   C3A62669  19.082   2.590   6.885
 4912POPC   C4A62670  18.952   2.972   7.110
 4912POPC   C1B62671  19.543   2.762   6.160
 4912POPC   C2B62672  19.331   2.862   6.513
 4912POPC   C3B62673  19.500   2.878   6.900
 4912POPC   C4B62674  19.393   2.754   7.277
 4913POPC   NC362675  25.188   1.566   5.558
 4913POPC   PO462676  25.353   0.940   5.272
 4913POPC   GL162677  25.270   1.098   5.713
 4913POPC   GL262678  24.894   1.177   5.742
 4913POPC   C1A62679  25.383   1.250   6.147
 4913POPC   D2A62680  25.548   1.043   6.529
 4913POPC   C3A62681  25.513   1.245   6.916
 4913POPC   C4A62682  25.431   1.375   7.303
 4913POPC   C1B62683  24.917   1.079   6.186
 4913POPC   C2B62684  25.085   1.258   6.602
 4913POPC   C3B62685  25.020   1.127   7.047
 4913POPC   C4B62686  24.954   1.354   7.432
 4914POPC   NC362687  15.831  40.155   5.253
 4914POPC   PO462688  15.182  39.991   5.314
 4914POPC   GL162689  14.957  39.899   5.736
 4914POPC   GL262690  15.043  40.233   5.824
 4914POPC   C1A62691  14.938  39.773   6.206
 4914POPC   D2A62692  15.067  39.608   6.648
 4914POPC   C3A62693  15.095  39.871   7.036
 4914POPC   C4A62694  15.445  40.081   7.228
 4914POPC   C1B62695  15.167  40.263   6.304
 4914POPC   C2B62696  15.277  40.432   6.752
 4914POPC   C3B62697  15.482  40.580   7.170
 4914POPC   C4B62698  15.290  40.571   7.610
 4915POPC   NC362699  13.001  22.710   5.394
 4915POPC   PO462700  12.739  23.351   5.496
 4915POPC   GL162701  12.692  23.041   5.816
 4915POPC   GL262702  12.419  22.835   5.690
 4915POPC   C1A62703  12.921  23.048   6.220
 4915POPC   D2A62704  13.031  22.848   6.627
 4915POPC   C3A62705  12.842  22.983   7.002
 4915POPC   C4A62706  13.120  22.986   7.343
 4915POPC   C1B62707  12.344  22.771   6.134
 4915POPC   C2B62708  12.467  22.869   6.563
 4915POPC   C3B62709  12.526  22.603   6.922
 4915POPC   C4B62710  12.643  22.671   7.346
 4916POPC   NC362711  11.923  42.977   5.472
 4916POPC   PO462712  12.476  43.355   5.592
 4916POPC   GL162713  12.408  42.960   5.809
 4916POPC   GL262714  12.049  42.905   5.959
 4916POPC   C1A62715  12.468  42.933   6.247
 4916POPC   D2A62716  12.231  43.122   6.556
 4916POPC   C3A62717  12.358  43.082   6.981
 4916POPC   C4A62718  12.143  42.865   7.332
 4916POPC   C1B62719  11.918  43.330   6.135
 4916POPC   C2B62720  11.697  43.371   6.535
 4916POPC   C3B62721  11.842  43.132   6.889
 4916POPC   C4B62722  12.007  43.351   7.260
 4917POPC   NC362723  10.301   3.000   5.500
 4917POPC   PO462724  10.792   2.541   5.416
 4917POPC   GL162725  10.666   2.736   5.812
 4917POPC   GL262726  10.803   3.055   5.828
 4917POPC   C1A62727  10.518   2.727   6.271
 4917POPC   D2A62728  10.317   2.460   6.647
 4917POPC   C3A62729  10.341   2.443   7.152
 4917POPC   C4A62730  10.397   2.648   7.602
 4917POPC   C1B62731  10.713   3.209   6.244
 4917POPC   C2B62732  10.708   3.123   6.670
 4917POPC   C3B62733  10.536   2.898   7.008
 4917POPC   C4B62734  10.781   2.839   7.349
 4918POPC   NC362735  16.729  16.575   5.449
 4918POPC   PO462736  17.055  17.122   5.540
 4918POPC   GL162737  16.838  16.878   5.861
 4918POPC   GL262738  16.464  16.852   5.846
 4918POPC   C1A62739  16.701  17.023   6.253
 4918POPC   D2A62740  16.779  16.803   6.590
 4918POPC   C3A62741  16.662  17.011   6.931
 4918POPC   C4A62742  16.715  16.843   7.319
 4918POPC   C1B62743  16.376  16.634   6.255
 4918POPC   C2B62744  16.517  16.382   6.609
 4918POPC   C3B62745  16.447  16.509   7.018
 4918POPC   C4B62746  16.512  16.376   7.420
 4919POPC   NC362747  26.495  35.676   5.642
 4919POPC   PO462748  25.972  35.353   5.285
 4919POPC   GL162749  26.014  35.506   5.722
 4919POPC   GL262750  25.863  35.804   5.751
 4919POPC   C1A62751  26.030  35.431   6.197
 4919POPC   D2A62752  25.967  35.554   6.662
 4919POPC   C3A62753  26.093  35.257   7.047
 4919POPC   C4A62754  26.296  34.984   7.386
 4919POPC   C1B62755  25.804  35.878   6.186
 4919POPC   C2B62756  25.521  35.792   6.537
 4919POPC   C3B62757  25.613  35.781   6.984
 4919POPC   C4B62758  25.736  35.514   7.310
 4920POPC   NC362759  28.667  42.350   5.403
 4920POPC   PO462760  29.300  42.540   5.368
 4920POPC   GL162761  29.367  42.226   5.673
 4920POPC   GL262762  29.046  42.228   5.785
 4920POPC   C1A62763  29.432  42.261   6.135
 4920POPC   D2A62764  29.298  42.506   6.517
 4920POPC   C3A62765  29.280  42.304   6.905
 4920POPC   C4A62766  29.472  42.136   7.306
 4920POPC   C1B62767  28.926  42.330   6.216
 4920POPC   C2B62768  28.780  42.478   6.615
 4920POPC   C3B62769  28.717  42.289   7.018
 4920POPC   C4B62770  28.999  42.303   7.345
 4921POPC   NC362771  44.764  15.774   5.570
 4921POPC   PO462772  44.155  15.971   5.489
 4921POPC   GL162773  44.317  15.799   5.860
 4921POPC   GL262774  44.531  16.061   5.931
 4921POPC   C1A62775  44.501  15.675   6.263
 4921POPC   D2A62776  44.823  15.737   6.560
 4921POPC   C3A62777  44.662  15.829   6.941
 4921POPC   C4A62778  44.671  15.587   7.306
 4921POPC   C1B62779  44.774  16.206   6.284
 4921POPC   C2B62780   0.068  16.237   6.613
 4921POPC   C3B62781   0.014  16.194   7.045
 4921POPC   C4B62782  44.685  16.120   7.362
 4922POPC   NC362783   8.260  17.334   4.904
 4922POPC   PO462784   8.165  17.815   5.375
 4922POPC   GL162785   8.166  17.667   5.786
 4922POPC   GL262786   8.411  17.858   5.950
 4922POPC   C1A62787   8.123  17.351   6.142
 4922POPC   D2A62788   8.250  17.242   6.565
 4922POPC   C3A62789   7.978  17.387   6.869
 4922POPC   C4A62790   7.964  17.425   7.308
 4922POPC   C1B62791   8.469  17.998   6.374
 4922POPC   C2B62792   8.216  17.832   6.697
 4922POPC   C3B62793   8.310  17.767   7.118
 4922POPC   C4B62794   8.639  17.902   7.444
 4923POPC   NC362795  33.157  22.686   5.331
 4923POPC   PO462796  32.800  23.330   5.177
 4923POPC   GL162797  33.125  23.152   5.535
 4923POPC   GL262798  33.451  23.272   5.693
 4923POPC   C1A62799  33.134  22.911   5.947
 4923POPC   D2A62800  33.178  22.904   6.409
 4923POPC   C3A62801  32.915  23.053   6.791
 4923POPC   C4A62802  32.876  22.740   7.151
 4923POPC   C1B62803  33.565  23.100   6.135
 4923POPC   C2B62804  33.654  22.906   6.568
 4923POPC   C3B62805  33.392  22.931   6.923
 4923POPC   C4B62806  33.293  22.972   7.368
 4924POPC   NC362807   5.966  30.928   5.422
 4924POPC   PO462808   5.657  30.339   5.314
 4924POPC   GL162809   5.704  30.589   5.707
 4924POPC   GL262810   5.502  30.835   5.900
 4924POPC   C1A62811   5.947  30.541   6.073
 4924POPC   D2A62812   5.855  30.648   6.498
 4924POPC   C3A62813   5.961  30.407   6.846
 4924POPC   C4A62814   6.096  30.640   7.208
 4924POPC   C1B62815   5.833  31.047   6.171
 4924POPC   C2B62816   5.948  31.176   6.614
 4924POPC   C3B62817   5.838  31.079   7.061
 4924POPC   C4B62818   5.867  30.994   7.525
 4925POPC   NC362819  11.933   7.022   5.368
 4925POPC   PO462820  12.243   6.403   5.604
 4925POPC   GL162821  11.982   6.697   5.789
 4925POPC   GL262822  12.087   7.049   5.857
 4925POPC   C1A62823  11.971   6.718   6.229
 4925POPC   D2A62824  12.246   6.823   6.553
 4925POPC   C3A62825  12.101   6.655   6.923
 4925POPC   C4A62826  12.271   6.660   7.305
 4925POPC   C1B62827  12.421   7.143   6.163
 4925POPC   C2B62828  12.528   7.251   6.609
 4925POPC   C3B62829  12.312   7.148   6.999
 4925POPC   C4B62830  12.436   7.123   7.428
 4926POPC   NC362831  36.437  35.009   5.397
 4926POPC   PO462832  36.761  35.676   5.386
 4926POPC   GL162833  36.694  35.360   5.733
 4926POPC   GL262834  37.038  35.205   5.799
 4926POPC   C1A62835  36.741  35.359   6.200
 4926POPC   D2A62836  36.929  35.552   6.586
 4926POPC   C3A62837  36.607  35.601   6.904
 4926POPC   C4A62838  36.478  35.221   7.111
 4926POPC   C1B62839  37.249  35.190   6.218
 4926POPC   C2B62840  37.274  34.986   6.645
 4926POPC   C3B62841  37.304  35.131   7.090
 4926POPC   C4B62842  37.176  35.560   7.199
 4927POPC   NC362843  34.496   8.758   5.312
 4927POPC   PO462844  34.818   9.324   5.358
 4927POPC   GL162845  34.664   9.054   5.693
 4927POPC   GL262846  34.330   8.989   5.734
 4927POPC   C1A62847  34.755   9.038   6.129
 4927POPC   D2A62848  34.972   9.209   6.473
 4927POPC   C3A62849  34.734   9.110   6.868
 4927POPC   C4A62850  34.629   8.882   7.295
 4927POPC   C1B62851  34.326   8.784   6.140
 4927POPC   C2B62852  34.520   8.761   6.532
 4927POPC   C3B62853  34.291   8.835   6.910
 4927POPC   C4B62854  34.132   8.592   7.251
 4928POPC   NC362855   4.653  13.723   4.968
 4928POPC   PO462856   4.136  13.646   5.362
 4928POPC   GL162857   4.209  13.394   5.780
 4928POPC   GL262858   4.549  13.308   5.911
 4928POPC   C1A62859   4.185  13.526   6.239
 4928POPC   D2A62860   4.074  13.847   6.557
 4928POPC   C3A62861   4.206  13.735   7.000
 4928POPC   C4A62862   4.129  13.798   7.438
 4928POPC   C1B62863   4.370  13.050   6.178
 4928POPC   C2B62864   4.438  13.166   6.598
 4928POPC   C3B62865   4.226  13.036   6.951
 4928POPC   C4B62866   4.172  13.292   7.298
 4929POPC   NC362867  29.201  13.014   5.221
 4929POPC   PO462868  28.805  12.573   5.447
 4929POPC   GL162869  28.957  12.829   5.778
 4929POPC   GL262870  29.285  13.014   5.746
 4929POPC   C1A62871  28.869  12.767   6.199
 4929POPC   D2A62872  28.989  12.923   6.608
 4929POPC   C3A62873  28.862  12.759   6.990
 4929POPC   C4A62874  28.913  12.867   7.407
 4929POPC   C1B62875  29.240  13.109   6.208
 4929POPC   C2B62876  29.427  13.176   6.646
 4929POPC   C3B62877  29.191  13.157   7.055
 4929POPC   C4B62878  29.337  13.116   7.503
 4930POPC   NC362879  31.206  42.848   5.551
 4930POPC   PO462880  30.676  43.177   5.389
 4930POPC   GL162881  30.751  43.003   5.845
 4930POPC   GL262882  31.057  43.202   5.943
 4930POPC   C1A62883  30.472  42.927   6.281
 4930POPC   D2A62884  30.178  42.999   6.692
 4930POPC   C3A62885  30.413  43.061   7.099
 4930POPC   C4A62886  30.494  42.947   7.532
 4930POPC   C1B62887  30.723  43.371   6.227
 4930POPC   C2B62888  30.576  43.337   6.657
 4930POPC   C3B62889  30.601  43.527   7.060
 4930POPC   C4B62890  30.813  43.334   7.384
 4931POPC   NC362891  33.196  33.044   5.216
 4931POPC   PO462892  32.682  32.749   5.374
 4931POPC   GL162893  32.760  32.872   5.821
 4931POPC   GL262894  32.925  33.185   5.747
 4931POPC   C1A62895  32.967  32.875   6.269
 4931POPC   D2A62896  33.332  33.078   6.511
 4931POPC   C3A62897  33.238  33.220   6.942
 4931POPC   C4A62898  32.919  32.995   7.170
 4931POPC   C1B62899  32.739  33.301   6.143
 4931POPC   C2B62900  32.871  33.329   6.582
 4931POPC   C3B62901  32.683  33.399   6.972
 4931POPC   C4B62902  32.529  33.276   7.372
 4932POPC   NC362903  20.173  12.970   5.566
 4932POPC   PO462904  19.751  12.501   5.301
 4932POPC   GL162905  19.712  12.748   5.651
 4932POPC   GL262906  19.980  12.531   5.765
 4932POPC   C1A62907  19.747  12.907   6.084
 4932POPC   D2A62908  19.926  12.983   6.490
 4932POPC   C3A62909  19.619  12.938   6.822
 4932POPC   C4A62910  19.695  12.922   7.239
 4932POPC   C1B62911  20.061  12.485   6.181
 4932POPC   C2B62912  20.212  12.555   6.576
 4932POPC   C3B62913  20.031  12.620   6.955
 4932POPC   C4B62914  20.260  12.437   7.276
 4933POPC   NC362915   9.781  28.426   5.407
 4933POPC   PO462916   9.251  27.991   5.342
 4933POPC   GL162917   9.513  28.177   5.750
 4933POPC   GL262918   9.829  28.396   5.899
 4933POPC   C1A62919   9.485  28.183   6.195
 4933POPC   D2A62920   9.754  28.221   6.535
 4933POPC   C3A62921   9.569  28.188   6.904
 4933POPC   C4A62922   9.449  28.465   7.194
 4933POPC   C1B62923  10.140  28.241   6.191
 4933POPC   C2B62924  10.253  28.374   6.596
 4933POPC   C3B62925  10.074  28.295   6.994
 4933POPC   C4B62926   9.938  28.629   7.244
 4934POPC   NC362927  37.119  28.290   5.341
 4934POPC   PO462928  37.075  28.849   5.631
 4934POPC   GL162929  36.979  28.556   5.927
 4934POPC   GL262930  36.823  28.313   5.753
 4934POPC   C1A62931  36.987  28.508   6.373
 4934POPC   D2A62932  36.831  28.745   6.734
 4934POPC   C3A62933  36.949  28.563   7.134
 4934POPC   C4A62934  37.241  28.741   7.445
 4934POPC   C1B62935  36.803  28.079   6.128
 4934POPC   C2B62936  37.033  28.029   6.522
 4934POPC   C3B62937  36.984  28.030   6.967
 4934POPC   C4B62938  37.084  27.951   7.381
 4935POPC   NC362939  33.344   4.284   5.426
 4935POPC   PO462940  33.915   4.378   5.293
 4935POPC   GL162941  33.824   4.420   5.724
 4935POPC   GL262942  33.587   4.162   5.880
 4935POPC   C1A62943  33.930   4.433   6.174
 4935POPC   D2A62944  33.724   4.225   6.526
 4935POPC   C3A62945  33.913   4.358   6.893
 4935POPC   C4A62946  33.930   4.634   7.244
 4935POPC   C1B62947  33.449   3.869   6.226
 4935POPC   C2B62948  33.525   3.697   6.613
 4935POPC   C3B62949  33.657   3.921   6.961
 4935POPC   C4B62950  33.648   4.207   7.309
 4936POPC   NC362951  31.135   1.061   5.529
 4936POPC   PO462952  31.700   1.413   5.298
 4936POPC   GL162953  31.635   1.299   5.767
 4936POPC   GL262954  31.476   0.971   5.901
 4936POPC   C1A62955  31.495   1.395   6.211
 4936POPC   D2A62956  31.207   1.453   6.567
 4936POPC   C3A62957  31.342   1.173   6.872
 4936POPC   C4A62958  31.459   1.096   7.309
 4936POPC   C1B62959  31.123   1.045   6.214
 4936POPC   C2B62960  30.931   0.989   6.623
 4936POPC   C3B62961  31.034   0.807   7.055
 4936POPC   C4B62962  31.073   0.800   7.540
 4937POPC   NC362963   4.711  21.613   5.383
 4937POPC   PO462964   3.996  21.515   5.368
 4937POPC   GL162965   4.105  21.380   5.768
 4937POPC   GL262966   4.372  21.614   5.769
 4937POPC   C1A62967   4.191  21.107   6.148
 4937POPC   D2A62968   4.208  20.932   6.590
 4937POPC   C3A62969   4.261  21.276   6.900
 4937POPC   C4A62970   4.421  21.387   7.310
 4937POPC   C1B62971   4.292  21.655   6.205
 4937POPC   C2B62972   4.511  21.612   6.596
 4937POPC   C3B62973   4.564  21.755   7.007
 4937POPC   C4B62974   4.591  21.846   7.433
 4938POPC   NC362975  31.748  16.483   5.379
 4938POPC   PO462976  31.132  16.718   5.369
 4938POPC   GL162977  31.195  16.892   5.781
 4938POPC   GL262978  31.569  16.808   5.811
 4938POPC   C1A62979  31.308  16.977   6.227
 4938POPC   D2A62980  31.422  16.724   6.623
 4938POPC   C3A62981  31.359  16.921   7.051
 4938POPC   C4A62982  31.373  16.642   7.396
 4938POPC   C1B62983  31.798  16.799   6.220
 4938POPC   C2B62984  31.900  16.950   6.627
 4938POPC   C3B62985  31.860  16.864   7.054
 4938POPC   C4B62986  31.730  16.987   7.501
 4939POPC   NC362987  35.587  21.631   5.103
 4939POPC   PO462988  35.975  21.153   5.378
 4939POPC   GL162989  36.062  21.451   5.725
 4939POPC   GL262990  35.735  21.589   5.797
 4939POPC   C1A62991  36.342  21.463   6.108
 4939POPC   D2A62992  36.164  21.504   6.529
 4939POPC   C3A62993  36.425  21.400   6.882
 4939POPC   C4A62994  36.285  21.476   7.298
 4939POPC   C1B62995  35.837  21.326   6.165
 4939POPC   C2B62996  35.818  21.130   6.567
 4939POPC   C3B62997  35.889  21.368   6.967
 4939POPC   C4B62998  35.762  21.561   7.390
 4940POPC   NC362999  41.399   2.604   5.155
 4940POPC   PO463000  41.922   2.972   5.382
 4940POPC   GL163001  41.756   2.718   5.760
 4940POPC   GL263002  41.443   2.863   5.842
 4940POPC   C1A63003  41.675   2.591   6.218
 4940POPC   D2A63004  41.708   2.850   6.600
 4940POPC   C3A63005  41.917   2.747   6.987
 4940POPC   C4A63006  41.838   2.918   7.389
 4940POPC   C1B63007  41.233   2.871   6.255
 4940POPC   C2B63008  41.210   2.723   6.687
 4940POPC   C3B63009  41.377   2.825   7.100
 4940POPC   C4B63010  41.376   2.768   7.586
 4941POPC   NC363011  25.506   0.539   5.503
 4941POPC   PO463012  26.179   0.399   5.431
 4941POPC   GL163013  25.901   0.329   5.797
 4941POPC   GL263014  26.143   0.542   5.950
 4941POPC   C1A63015  25.894   0.228   6.272
 4941POPC   D2A63016  26.184   0.244   6.639
 4941POPC   C3A63017  26.039   0.352   7.065
 4941POPC   C4A63018  25.604   0.374   7.232
 4941POPC   C1B63019  25.862   0.751   6.222
 4941POPC   C2B63020  25.805   0.615   6.634
 4941POPC   C3B63021  25.840   0.825   6.983
 4941POPC   C4B63022  25.922   0.771   7.378
 4942POPC   NC363023  19.293  11.947   5.460
 4942POPC   PO463024  18.878  12.364   5.325
 4942POPC   GL163025  18.857  12.285   5.745
 4942POPC   GL263026  18.852  11.929   5.813
 4942POPC   C1A63027  19.072  12.272   6.157
 4942POPC   D2A63028  19.310  12.085   6.528
 4942POPC   C3A63029  19.093  12.166   6.950
 4942POPC   C4A63030  19.296  12.173   7.333
 4942POPC   C1B63031  18.783  11.875   6.306
 4942POPC   C2B63032  18.644  11.972   6.769
 4942POPC   C3B63033  18.663  11.775   7.174
 4942POPC   C4B63034  18.797  11.619   7.601
 4943POPC   NC363035   3.257  20.252   5.308
 4943POPC   PO463036   3.476  20.903   5.455
 4943POPC   GL163037   3.624  20.770   5.824
 4943POPC   GL263038   3.620  20.422   5.749
 4943POPC   C1A63039   3.461  20.814   6.238
 4943POPC   D2A63040   3.617  20.681   6.629
 4943POPC   C3A63041   3.446  20.906   6.945
 4943POPC   C4A63042   3.554  20.645   7.267
 4943POPC   C1B63043   3.255  20.382   6.040
 4943POPC   C2B63044   3.236  20.356   6.503
 4943POPC   C3B63045   3.243  20.371   6.970
 4943POPC   C4B63046   3.136  20.409   7.428
 4944POPC   NC363047  18.388  11.946   5.035
 4944POPC   PO463048  18.134  11.777   5.663
 4944POPC   GL163049  18.365  12.065   5.960
 4944POPC   GL263050  18.352  12.398   5.906
 4944POPC   C1A63051  18.427  12.224   6.399
 4944POPC   D2A63052  18.131  12.098   6.763
 4944POPC   C3A63053  18.162  11.966   7.198
 4944POPC   C4A63054  18.386  11.958   7.584
 4944POPC   C1B63055  18.193  12.630   6.244
 4944POPC   C2B63056  18.225  12.594   6.693
 4944POPC   C3B63057  18.063  12.467   7.105
 4944POPC   C4B63058  18.193  12.450   7.544
 4945POPC   NC363059  20.610  23.228   5.549
 4945POPC   PO463060  20.338  23.819   5.442
 4945POPC   GL163061  20.637  23.713   5.788
 4945POPC   GL263062  20.905  23.984   5.885
 4945POPC   C1A63063  20.498  23.527   6.171
 4945POPC   D2A63064  20.413  23.768   6.529
 4945POPC   C3A63065  20.589  23.708   6.887
 4945POPC   C4A63066  20.431  23.825   7.244
 4945POPC   C1B63067  20.903  23.829   6.288
 4945POPC   C2B63068  20.882  23.470   6.525
 4945POPC   C3B63069  20.919  23.321   6.933
 4945POPC   C4B63070  20.897  23.607   7.281
 4946POPC   NC363071  21.660  28.479   5.455
 4946POPC   PO463072  21.046  28.448   5.386
 4946POPC   GL163073  21.148  28.419   5.844
 4946POPC   GL263074  21.486  28.435   5.923
 4946POPC   C1A63075  21.185  28.529   6.319
 4946POPC   D2A63076  21.115  28.763   6.710
 4946POPC   C3A63077  21.360  28.561   7.024
 4946POPC   C4A63078  21.484  28.209   7.205
 4946POPC   C1B63079  21.724  28.644   6.244
 4946POPC   C2B63080  21.670  28.725   6.668
 4946POPC   C3B63081  21.864  28.630   7.082
 4946POPC   C4B63082  21.702  28.546   7.528
 4947POPC   NC363083  35.610  32.617   5.678
 4947POPC   PO463084  35.265  32.153   5.283
 4947POPC   GL163085  35.291  32.055   5.728
 4947POPC   GL263086  35.606  31.935   5.857
 4947POPC   C1A63087  35.287  32.162   6.192
 4947POPC   D2A63088  35.576  32.258   6.534
 4947POPC   C3A63089  35.457  32.338   6.960
 4947POPC   C4A63090  35.775  32.533   7.191
 4947POPC   C1B63091  35.858  31.883   6.228
 4947POPC   C2B63092  35.805  31.779   6.665
 4947POPC   C3B63093  35.878  32.062   7.001
 4947POPC   C4B63094  35.671  32.089   7.417
 4948POPC   NC363095  42.875  31.629   5.479
 4948POPC   PO463096  43.454  31.317   5.487
 4948POPC   GL163097  43.139  31.247   5.819
 4948POPC   GL263098  43.334  30.937   5.903
 4948POPC   C1A63099  42.956  31.510   6.166
 4948POPC   D2A63100  43.028  31.829   6.502
 4948POPC   C3A63101  42.909  31.701   6.918
 4948POPC   C4A63102  43.203  31.716   7.239
 4948POPC   C1B63103  43.302  31.149   6.293
 4948POPC   C2B63104  43.078  31.307   6.642
 4948POPC   C3B63105  43.098  31.230   7.080
 4948POPC   C4B63106  43.218  31.277   7.523
 4949POPC   NC363107  37.625  16.436   5.291
 4949POPC   PO463108  37.240  16.953   5.544
 4949POPC   GL163109  37.422  16.694   5.874
 4949POPC   GL263110  37.813  16.800   5.954
 4949POPC   C1A63111  37.457  16.703   6.321
 4949POPC   D2A63112  37.765  16.954   6.495
 4949POPC   C3A63113  37.826  16.781   6.878
 4949POPC   C4A63114  37.816  16.927   7.279
 4949POPC   C1B63115  37.961  16.527   6.303
 4949POPC   C2B63116  37.701  16.254   6.497
 4949POPC   C3B63117  37.523  16.374   6.868
 4949POPC   C4B63118  37.628  16.441   7.254
 4950POPC   NC363119  26.552  22.273   5.510
 4950POPC   PO463120  25.941  22.213   5.312
 4950POPC   GL163121  26.061  22.182   5.724
 4950POPC   GL263122  25.745  22.133   5.866
 4950POPC   C1A63123  26.244  22.341   6.139
 4950POPC   D2A63124  26.351  22.461   6.575
 4950POPC   C3A63125  26.061  22.383   6.910
 4950POPC   C4A63126  26.164  22.132   7.260
 4950POPC   C1B63127  25.875  22.022   6.301
 4950POPC   C2B63128  25.889  21.923   6.754
 4950POPC   C3B63129  25.695  22.017   7.155
 4950POPC   C4B63130  25.787  21.970   7.596
 4951POPC   NC363131  29.829  10.152   5.599
 4951POPC   PO463132  30.222  10.603   5.388
 4951POPC   GL163133  30.000  10.634   5.812
 4951POPC   GL263134  29.684  10.602   5.818
 4951POPC   C1A63135  29.909  10.535   6.273
 4951POPC   D2A63136  29.963  10.668   6.697
 4951POPC   C3A63137  30.049  10.455   7.082
 4951POPC   C4A63138  30.394  10.673   7.306
 4951POPC   C1B63139  29.524  10.836   6.130
 4951POPC   C2B63140  29.456  10.705   6.557
 4951POPC   C3B63141  29.552  10.534   6.967
 4951POPC   C4B63142  29.598  10.412   7.397
 4952POPC   NC363143  37.092  22.029   5.619
 4952POPC   PO463144  36.660  22.475   5.442
 4952POPC   GL163145  36.732  22.327   5.875
 4952POPC   GL263146  36.552  21.992   5.894
 4952POPC   C1A63147  36.975  22.260   6.286
 4952POPC   D2A63148  36.808  22.202   6.717
 4952POPC   C3A63149  37.031  22.164   7.116
 4952POPC   C4A63150  37.340  22.447   7.211
 4952POPC   C1B63151  36.462  22.202   6.300
 4952POPC   C2B63152  36.295  22.239   6.713
 4952POPC   C3B63153  36.490  22.163   7.148
 4952POPC   C4B63154  36.468  22.062   7.632
 4953POPC   NC363155   8.677  40.528   5.483
 4953POPC   PO463156   8.848  41.208   5.345
 4953POPC   GL163157   9.026  41.046   5.809
 4953POPC   GL263158   9.054  40.663   5.836
 4953POPC   C1A63159   8.897  41.015   6.267
 4953POPC   D2A63160   8.754  40.632   6.468
 4953POPC   C3A63161   8.847  40.581   6.888
 4953POPC   C4A63162   8.664  40.833   7.215
 4953POPC   C1B63163   9.272  40.672   6.240
 4953POPC   C2B63164   9.294  40.940   6.601
 4953POPC   C3B63165   9.249  40.857   7.028
 4953POPC   C4B63166   9.151  40.823   7.443
 4954POPC   NC363167   5.186   1.747   5.246
 4954POPC   PO463168   4.783   2.314   5.234
 4954POPC   GL163169   4.934   2.210   5.686
 4954POPC   GL263170   5.242   1.986   5.726
 4954POPC   C1A63171   4.973   2.060   6.155
 4954POPC   D2A63172   5.116   1.850   6.556
 4954POPC   C3A63173   5.099   2.115   6.912
 4954POPC   C4A63174   5.156   2.058   7.336
 4954POPC   C1B63175   5.408   1.733   6.105
 4954POPC   C2B63176   5.596   1.629   6.537
 4954POPC   C3B63177   5.463   1.763   6.972
 4954POPC   C4B63178   5.429   1.629   7.392
 4955POPC   NC363179  19.173  14.555   5.415
 4955POPC   PO463180  18.587  14.768   5.237
 4955POPC   GL163181  18.768  14.575   5.712
 4955POPC   GL263182  18.792  14.215   5.840
 4955POPC   C1A63183  19.052  14.582   6.080
 4955POPC   D2A63184  19.113  14.376   6.467
 4955POPC   C3A63185  19.057  14.653   6.814
 4955POPC   C4A63186  19.154  14.603   7.215
 4955POPC   C1B63187  18.664  13.988   6.185
 4955POPC   C2B63188  18.847  13.959   6.553
 4955POPC   C3B63189  18.983  14.151   6.952
 4955POPC   C4B63190  18.981  14.169   7.400
 4956POPC   NC363191  41.091  42.572   5.424
 4956POPC   PO463192  40.500  42.197   5.314
 4956POPC   GL163193  40.672  42.421   5.716
 4956POPC   GL263194  41.006  42.436   5.899
 4956POPC   C1A63195  40.646  42.237   6.167
 4956POPC   D2A63196  40.671  42.082   6.594
 4956POPC   C3A63197  40.731  42.408   6.914
 4956POPC   C4A63198  40.862  42.454   7.346
 4956POPC   C1B63199  41.164  42.155   6.231
 4956POPC   C2B63200  41.188  42.004   6.643
 4956POPC   C3B63201  40.983  41.976   7.023
 4956POPC   C4B63202  41.172  42.058   7.399
 4957POPC   NC363203  14.016  34.455   5.528
 4957POPC   PO463204  13.463  34.799   5.439
 4957POPC   GL163205  13.423  34.541   5.820
 4957POPC   GL263206  13.721  34.366   5.926
 4957POPC   C1A63207  13.468  34.612   6.283
 4957POPC   D2A63208  13.522  34.523   6.731
 4957POPC   C3A63209  13.293  34.484   7.148
 4957POPC   C4A63210  13.099  34.836   7.420
 4957POPC   C1B63211  13.983  34.581   6.269
 4957POPC   C2B63212  14.031  34.693   6.728
 4957POPC   C3B63213  13.820  34.576   7.143
 4957POPC   C4B63214  13.810  34.405   7.564
 4958POPC   NC363215  16.723  21.541   5.366
 4958POPC   PO463216  16.216  21.776   5.637
 4958POPC   GL163217  16.510  21.541   5.868
 4958POPC   GL263218  16.623  21.217   5.759
 4958POPC   C1A63219  16.542  21.379   6.269
 4958POPC   D2A63220  16.708  21.508   6.641
 4958POPC   C3A63221  16.467  21.367   6.944
 4958POPC   C4A63222  16.629  21.601   7.274
 4958POPC   C1B63223  16.946  21.150   6.085
 4958POPC   C2B63224  16.918  21.043   6.552
 4958POPC   C3B63225  16.931  21.179   7.028
 4958POPC   C4B63226  17.278  21.130   7.359
 4959POPC   NC363227  18.951  26.232   5.273
 4959POPC   PO463228  19.239  25.672   5.597
 4959POPC   GL163229  18.993  25.813   5.856
 4959POPC   GL263230  18.912  26.118   5.776
 4959POPC   C1A63231  18.974  25.754   6.256
 4959POPC   D2A63232  19.182  25.886   6.610
 4959POPC   C3A63233  19.085  25.751   7.020
 4959POPC   C4A63234  19.103  26.002   7.416
 4959POPC   C1B63235  19.028  26.245   6.172
 4959POPC   C2B63236  18.808  26.239   6.545
 4959POPC   C3B63237  18.930  26.227   6.966
 4959POPC   C4B63238  18.845  26.428   7.330
 4960POPC   NC363239  20.890  18.279   5.393
 4960POPC   PO463240  20.814  17.626   5.537
 4960POPC   GL163241  20.614  17.960   5.872
 4960POPC   GL263242  20.698  18.335   5.849
 4960POPC   C1A63243  20.439  18.293   6.267
 4960POPC   D2A63244  20.165  18.242   6.653
 4960POPC   C3A63245  20.348  18.376   7.076
 4960POPC   C4A63246  20.571  18.120   7.387
 4960POPC   C1B63247  20.911  18.130   6.216
 4960POPC   C2B63248  20.992  18.189   6.640
 4960POPC   C3B63249  20.905  18.315   7.067
 4960POPC   C4B63250  20.947  18.452   7.522
 4961POPC   NC363251   3.532  29.617   5.475
 4961POPC   PO463252   3.782  29.006   5.344
 4961POPC   GL163253   3.737  29.019   5.765
 4961POPC   GL263254   4.045  28.906   5.851
 4961POPC   C1A63255   3.512  29.157   6.136
 4961POPC   D2A63256   3.658  29.286   6.531
 4961POPC   C3A63257   3.567  29.128   6.941
 4961POPC   C4A63258   3.732  29.275   7.343
 4961POPC   C1B63259   3.921  28.885   6.296
 4961POPC   C2B63260   3.529  28.756   6.544
 4961POPC   C3B63261   3.400  28.632   6.957
 4961POPC   C4B63262   3.674  28.741   7.301
 4962POPC   NC363263   9.272  13.792   5.455
 4962POPC   PO463264   8.646  13.693   5.359
 4962POPC   GL163265   8.751  13.553   5.787
 4962POPC   GL263266   9.117  13.474   5.844
 4962POPC   C1A63267   8.799  13.480   6.249
 4962POPC   D2A63268   9.043  13.502   6.623
 4962POPC   C3A63269   8.990  13.812   6.939
 4962POPC   C4A63270   8.655  13.881   7.249
 4962POPC   C1B63271   9.228  13.765   6.202
 4962POPC   C2B63272   9.419  13.873   6.621
 4962POPC   C3B63273   9.489  13.692   7.038
 4962POPC   C4B63274   9.208  13.715   7.412
 4963POPC   NC363275  20.976  11.839   5.518
 4963POPC   PO463276  21.375  12.238   5.255
 4963POPC   GL163277  21.272  12.199   5.728
 4963POPC   GL263278  21.415  11.892   5.836
 4963POPC   C1A63279  21.450  12.311   6.176
 4963POPC   D2A63280  21.568  12.298   6.628
 4963POPC   C3A63281  21.243  12.088   6.887
 4963POPC   C4A63282  21.046  12.177   7.268
 4963POPC   C1B63283  21.679  11.854   6.222
 4963POPC   C2B63284  21.637  11.805   6.670
 4963POPC   C3B63285  21.699  11.974   7.073
 4963POPC   C4B63286  21.768  11.793   7.449
 4964POPC   NC363287  15.662   2.234   5.697
 4964POPC   PO463288  16.259   2.175   5.412
 4964POPC   GL163289  16.194   1.959   5.834
 4964POPC   GL263290  15.913   1.719   5.844
 4964POPC   C1A63291  16.298   2.074   6.278
 4964POPC   D2A63292  15.964   2.265   6.540
 4964POPC   C3A63293  15.998   2.263   6.987
 4964POPC   C4A63294  16.335   2.095   7.228
 4964POPC   C1B63295  15.866   1.800   6.292
 4964POPC   C2B63296  16.074   1.783   6.731
 4964POPC   C3B63297  15.956   1.754   7.204
 4964POPC   C4B63298  15.656   1.761   7.567
 4965POPC   NC363299  21.412   0.753   5.494
 4965POPC   PO463300  21.127   0.144   5.347
 4965POPC   GL163301  21.289   0.295   5.713
 4965POPC   GL263302  21.310  44.993   5.813
 4965POPC   C1A63303  21.383   0.430   6.138
 4965POPC   D2A63304  21.612   0.522   6.506
 4965POPC   C3A63305  21.418   0.533   6.880
 4965POPC   C4A63306  21.586   0.540   7.261
 4965POPC   C1B63307  21.044   0.049   6.168
 4965POPC   C2B63308  21.120   0.259   6.562
 4965POPC   C3B63309  21.194   0.079   6.980
 4965POPC   C4B63310  20.965   0.033   7.321
 4966POPC   NC363311   5.307  16.151   5.442
 4966POPC   PO463312   4.856  15.628   5.484
 4966POPC   GL163313   5.077  15.749   5.852
 4966POPC   GL263314   5.097  16.124   5.921
 4966POPC   C1A63315   4.998  15.753   6.281
 4966POPC   D2A63316   4.966  15.932   6.687
 4966POPC   C3A63317   5.144  15.799   7.062
 4966POPC   C4A63318   5.350  16.069   7.361
 4966POPC   C1B63319   4.808  16.235   6.269
 4966POPC   C2B63320   4.714  16.409   6.692
 4966POPC   C3B63321   4.768  16.208   7.094
 4966POPC   C4B63322   4.575  15.783   7.149
 4967POPC   NC363323  41.240  35.971   5.452
 4967POPC   PO463324  40.630  36.113   5.204
 4967POPC   GL163325  40.738  35.990   5.623
 4967POPC   GL263326  40.439  36.062   5.795
 4967POPC   C1A63327  40.888  36.076   6.071
 4967POPC   D2A63328  41.062  36.197   6.489
 4967POPC   C3A63329  40.869  36.185   6.902
 4967POPC   C4A63330  40.862  35.936   7.263
 4967POPC   C1B63331  40.452  36.316   6.172
 4967POPC   C2B63332  40.496  36.111   6.542
 4967POPC   C3B63333  40.351  36.222   6.928
 4967POPC   C4B63334  40.341  36.021   7.286
 4968POPC   NC363335  32.565   7.393   5.429
 4968POPC   PO463336  33.153   7.232   5.529
 4968POPC   GL163337  32.990   7.229   5.911
 4968POPC   GL263338  32.864   7.565   5.836
 4968POPC   C1A63339  33.038   7.228   6.364
 4968POPC   D2A63340  32.954   7.520   6.681
 4968POPC   C3A63341  32.945   7.321   7.069
 4968POPC   C4A63342  32.907   7.249   7.568
 4968POPC   C1B63343  32.650   7.508   6.207
 4968POPC   C2B63344  32.462   7.653   6.565
 4968POPC   C3B63345  32.584   7.831   6.945
 4968POPC   C4B63346  32.627   7.618   7.307
 4969POPC   NC363347  34.066  15.432   5.608
 4969POPC   PO463348  33.614  15.114   5.267
 4969POPC   GL163349  33.776  15.053   5.770
 4969POPC   GL263350  34.069  14.823   5.781
 4969POPC   C1A63351  33.649  14.975   6.232
 4969POPC   D2A63352  33.800  15.092   6.678
 4969POPC   C3A63353  33.509  15.150   7.066
 4969POPC   C4A63354  33.526  15.220   7.545
 4969POPC   C1B63355  34.141  15.095   6.157
 4969POPC   C2B63356  34.228  15.383   6.497
 4969POPC   C3B63357  34.159  15.387   6.943
 4969POPC   C4B63358  34.028  15.013   7.159
 4970POPC   NC363359  15.745  42.608   5.600
 4970POPC   PO463360  16.126  43.023   5.199
 4970POPC   GL163361  15.923  43.063   5.667
 4970POPC   GL263362  16.043  43.244   5.879
 4970POPC   C1A63363  15.917  42.859   6.167
 4970POPC   D2A63364  15.767  42.820   6.591
 4970POPC   C3A63365  16.057  42.934   6.931
 4970POPC   C4A63366  16.189  42.855   7.366
 4970POPC   C1B63367  15.677  43.312   6.198
 4970POPC   C2B63368  15.511  43.261   6.670
 4970POPC   C3B63369  15.689  43.254   7.125
 4970POPC   C4B63370  15.812  43.350   7.595
 4971POPC   NC363371  37.545  39.508   5.735
 4971POPC   PO463372  37.779  39.911   5.216
 4971POPC   GL163373  37.644  40.032   5.656
 4971POPC   GL263374  37.880  40.225   5.836
 4971POPC   C1A63375  37.540  40.022   6.146
 4971POPC   D2A63376  37.610  40.191   6.579
 4971POPC   C3A63377  37.623  39.959   6.989
 4971POPC   C4A63378  37.724  40.051   7.419
 4971POPC   C1B63379  38.043  40.052   6.266
 4971POPC   C2B63380  38.083  39.983   6.718
 4971POPC   C3B63381  38.144  39.889   7.157
 4971POPC   C4B63382  37.990  39.532   7.376
 4972POPC   NC363383  43.514  43.273   5.478
 4972POPC   PO463384  44.219  42.946   5.475
 4972POPC   GL163385  44.093  43.073   5.864
 4972POPC   GL263386  44.148  43.362   6.006
 4972POPC   C1A63387  44.081  42.868   6.260
 4972POPC   D2A63388  44.312  42.845   6.651
 4972POPC   C3A63389  44.144  43.180   6.881
 4972POPC   C4A63390  43.799  43.075   7.133
 4972POPC   C1B63391  43.762  43.291   6.244
 4972POPC   C2B63392  43.627  43.276   6.670
 4972POPC   C3B63393  43.652  43.564   7.014
 4972POPC   C4B63394  43.560  43.474   7.456
 4973POPC   NC363395  25.437  29.469   5.407
 4973POPC   PO463396  25.322  30.141   5.364
 4973POPC   GL163397  25.152  30.091   5.754
 4973POPC   GL263398  25.137  29.745   5.776
 4973POPC   C1A63399  25.237  30.086   6.195
 4973POPC   D2A63400  25.275  29.791   6.536
 4973POPC   C3A63401  25.274  29.969   6.924
 4973POPC   C4A63402  25.235  29.962   7.321
 4973POPC   C1B63403  24.888  29.728   6.158
 4973POPC   C2B63404  24.803  29.620   6.608
 4973POPC   C3B63405  25.017  29.536   7.017
 4973POPC   C4B63406  24.963  29.577   7.502
 4974POPC   NC363407  26.534  12.162   5.394
 4974POPC   PO463408  25.971  11.833   5.522
 4974POPC   GL163409  26.050  12.076   5.897
 4974POPC   GL263410  26.194  12.351   5.738
 4974POPC   C1A63411  26.068  12.177   6.346
 4974POPC   D2A63412  25.874  11.988   6.693
 4974POPC   C3A63413  25.863  12.168   7.065
 4974POPC   C4A63414  26.103  12.055   7.389
 4974POPC   C1B63415  26.339  12.551   6.112
 4974POPC   C2B63416  26.528  12.387   6.480
 4974POPC   C3B63417  26.301  12.292   6.831
 4974POPC   C4B63418  26.275  12.484   7.214
 4975POPC   NC363419  13.206  34.122   5.546
 4975POPC   PO463420  13.824  34.003   5.533
 4975POPC   GL163421  13.818  33.846   5.918
 4975POPC   GL263422  13.477  33.905   5.980
 4975POPC   C1A63423  13.921  34.053   6.271
 4975POPC   D2A63424  13.629  34.045   6.580
 4975POPC   C3A63425  13.756  33.917   6.976
 4975POPC   C4A63426  13.782  33.552   7.207
 4975POPC   C1B63427  13.294  33.689   6.353
 4975POPC   C2B63428  13.300  33.682   6.810
 4975POPC   C3B63429  13.273  33.636   7.230
 4975POPC   C4B63430  13.227  33.637   7.681
 4976POPC   NC363431  30.483   5.593   5.267
 4976POPC   PO463432  30.886   6.183   5.260
 4976POPC   GL163433  30.828   5.865   5.589
 4976POPC   GL263434  30.485   5.927   5.709
 4976POPC   C1A63435  30.896   5.783   6.041
 4976POPC   D2A63436  30.755   5.819   6.462
 4976POPC   C3A63437  31.009   5.691   6.796
 4976POPC   C4A63438  31.049   5.999   7.122
 4976POPC   C1B63439  30.372   5.698   6.099
 4976POPC   C2B63440  30.375   5.478   6.498
 4976POPC   C3B63441  30.481   5.625   6.929
 4976POPC   C4B63442  30.392   5.855   7.321
 4977POPC   NC363443  36.912  44.821   5.437
 4977POPC   PO463444  37.196  44.289   5.061
 4977POPC   GL163445  37.185  44.442   5.655
 4977POPC   GL263446  36.894  44.290   5.859
 4977POPC   C1A63447  37.108  44.675   6.113
 4977POPC   D2A63448  37.240  44.882   6.541
 4977POPC   C3A63449  37.081  44.787   6.966
 4977POPC   C4A63450  37.105  44.413   7.221
 4977POPC   C1B63451  36.655  44.454   6.236
 4977POPC   C2B63452  36.589  44.660   6.649
 4977POPC   C3B63453  36.611  44.486   7.079
 4977POPC   C4B63454  36.740  44.560   7.546
 4978POPC   NC363455  19.390  32.800   5.509
 4978POPC   PO463456  18.879  33.196   5.480
 4978POPC   GL163457  18.787  33.330   5.893
 4978POPC   GL263458  18.804  32.981   5.964
 4978POPC   C1A63459  18.883  33.289   6.350
 4978POPC   D2A63460  18.939  32.909   6.554
 4978POPC   C3A63461  18.894  32.898   6.966
 4978POPC   C4A63462  18.923  33.273   7.146
 4978POPC   C1B63463  19.242  32.922   6.145
 4978POPC   C2B63464  19.427  32.785   6.529
 4978POPC   C3B63465  19.397  33.036   6.893
 4978POPC   C4B63466  19.284  32.937   7.299
 4979POPC   NC363467  44.822  14.920   5.420
 4979POPC   PO463468  44.471  15.410   5.585
 4979POPC   GL163469  44.788  15.310   5.784
 4979POPC   GL263470  44.674  15.020   5.899
 4979POPC   C1A63471  44.912  15.379   6.165
 4979POPC   D2A63472  44.650  15.226   6.481
 4979POPC   C3A63473  44.762  15.316   6.891
 4979POPC   C4A63474  44.901  15.091   7.257
 4979POPC   C1B63475  44.437  14.815   6.186
 4979POPC   C2B63476  44.295  14.870   6.592
 4979POPC   C3B63477  44.455  14.906   7.010
 4979POPC   C4B63478  44.448  14.679   7.425
 4980POPC   NC363479  28.744  27.835   5.444
 4980POPC   PO463480  28.236  27.350   5.271
 4980POPC   GL163481  28.361  27.417   5.732
 4980POPC   GL263482  28.412  27.773   5.857
 4980POPC   C1A63483  28.524  27.336   6.162
 4980POPC   D2A63484  28.693  27.126   6.541
 4980POPC   C3A63485  28.592  27.363   6.919
 4980POPC   C4A63486  28.222  27.296   7.235
 4980POPC   C1B63487  28.316  27.930   6.300
 4980POPC   C2B63488  28.241  27.785   6.762
 4980POPC   C3B63489  28.447  27.758   7.199
 4980POPC   C4B63490  28.662  27.904   7.592
 4981POPC   NC363491  26.914   9.006   5.365
 4981POPC   PO463492  26.246   8.869   5.237
 4981POPC   GL163493  26.523   8.965   5.680
 4981POPC   GL263494  26.874   8.772   5.826
 4981POPC   C1A63495  26.758   9.180   6.083
 4981POPC   D2A63496  26.635   9.119   6.506
 4981POPC   C3A63497  26.874   9.168   6.861
 4981POPC   C4A63498  26.871   9.235   7.295
 4981POPC   C1B63499  27.164   8.859   6.235
 4981POPC   C2B63500  27.376   8.837   6.665
 4981POPC   C3B63501  27.240   8.891   7.110
 4981POPC   C4B63502  27.036   8.667   7.476
 4982POPC   NC363503   9.773  42.190   5.465
 4982POPC   PO463504   9.230  42.605   5.411
 4982POPC   GL163505   9.464  42.424   5.797
 4982POPC   GL263506   9.851  42.518   5.863
 4982POPC   C1A63507   9.581  42.205   6.194
 4982POPC   D2A63508   9.739  42.382   6.610
 4982POPC   C3A63509   9.598  42.251   7.023
 4982POPC   C4A63510   9.509  42.181   7.465
 4982POPC   C1B63511  10.106  42.297   6.229
 4982POPC   C2B63512  10.122  42.046   6.642
 4982POPC   C3B63513  10.104  42.024   7.094
 4982POPC   C4B63514  10.040  42.192   7.539
 4983POPC   NC363515  25.187  34.309   5.569
 4983POPC   PO463516  25.006  33.804   5.206
 4983POPC   GL163517  25.139  33.815   5.669
 4983POPC   GL263518  25.456  33.967   5.819
 4983POPC   C1A63519  25.102  33.747   6.129
 4983POPC   D2A63520  25.261  33.703   6.567
 4983POPC   C3A63521  25.098  33.839   6.972
 4983POPC   C4A63522  25.301  33.752   7.396
 4983POPC   C1B63523  25.422  34.119   6.282
 4983POPC   C2B63524  25.452  34.160   6.738
 4983POPC   C3B63525  25.574  34.320   7.162
 4983POPC   C4B63526  25.684  34.185   7.606
 4984POPC   NC363527  20.196  30.689   5.277
 4984POPC   PO463528  20.300  31.289   5.324
 4984POPC   GL163529  20.482  30.911   5.668
 4984POPC   GL263530  20.745  31.007   5.910
 4984POPC   C1A63531  20.526  30.588   6.055
 4984POPC   D2A63532  20.601  30.484   6.515
 4984POPC   C3A63533  20.534  30.779   6.881
 4984POPC   C4A63534  20.588  30.605   7.288
 4984POPC   C1B63535  20.657  30.997   6.359
 4984POPC   C2B63536  20.972  30.858   6.649
 4984POPC   C3B63537  20.999  30.879   7.093
 4984POPC   C4B63538  20.947  30.918   7.571
 4985POPC   NC363539  31.476  13.347   5.197
 4985POPC   PO463540  31.609  12.665   5.399
 4985POPC   GL163541  31.354  12.787   5.820
 4985POPC   GL263542  31.435  13.073   6.041
 4985POPC   C1A63543  31.420  12.640   6.280
 4985POPC   D2A63544  31.487  12.892   6.671
 4985POPC   C3A63545  31.211  12.749   7.004
 4985POPC   C4A63546  31.279  12.485   7.349
 4985POPC   C1B63547  31.508  13.375   6.360
 4985POPC   C2B63548  31.873  13.386   6.588
 4985POPC   C3B63549  31.862  13.137   6.954
 4985POPC   C4B63550  31.521  13.080   7.259
 4986POPC   NC363551   1.775   8.181   5.383
 4986POPC   PO463552   2.376   8.515   5.452
 4986POPC   GL163553   2.137   8.280   5.786
 4986POPC   GL263554   2.453   8.177   5.936
 4986POPC   C1A63555   2.056   8.010   6.199
 4986POPC   D2A63556   2.050   7.802   6.624
 4986POPC   C3A63557   1.956   8.117   6.961
 4986POPC   C4A63558   1.618   8.226   7.204
 4986POPC   C1B63559   2.269   8.491   6.251
 4986POPC   C2B63560   2.287   8.475   6.726
 4986POPC   C3B63561   2.236   8.655   7.130
 4986POPC   C4B63562   1.950   8.542   7.398
 4987POPC   NC363563  24.602  11.588   5.592
 4987POPC   PO463564  24.254  12.294   5.621
 4987POPC   GL163565  24.478  12.132   5.934
 4987POPC   GL263566  24.338  11.850   5.915
 4987POPC   C1A63567  24.530  11.986   6.370
 4987POPC   D2A63568  24.356  12.291   6.671
 4987POPC   C3A63569  24.334  12.216   7.093
 4987POPC   C4A63570  24.702  12.069   7.247
 4987POPC   C1B63571  24.287  11.545   6.207
 4987POPC   C2B63572  24.229  11.579   6.603
 4987POPC   C3B63573  24.458  11.766   6.882
 4987POPC   C4B63574  24.385  11.693   7.297
 4988POPC   NC363575   2.707  17.045   5.492
 4988POPC   PO463576   2.398  16.440   5.333
 4988POPC   GL163577   2.596  16.426   5.767
 4988POPC   GL263578   2.627  16.779   5.922
 4988POPC   C1A63579   2.808  16.385   6.186
 4988POPC   D2A63580   2.761  16.675   6.544
 4988POPC   C3A63581   2.655  16.666   6.992
 4988POPC   C4A63582   2.649  17.031   7.255
 4988POPC   C1B63583   3.013  16.922   6.136
 4988POPC   C2B63584   3.223  16.910   6.520
 4988POPC   C3B63585   3.060  16.969   6.907
 4988POPC   C4B63586   3.106  16.780   7.278
 4989POPC   NC363587   6.552  27.076   5.402
 4989POPC   PO463588   6.703  27.748   5.297
 4989POPC   GL163589   6.588  27.686   5.700
 4989POPC   GL263590   6.872  27.492   5.785
 4989POPC   C1A63591   6.508  27.742   6.144
 4989POPC   D2A63592   6.462  27.470   6.509
 4989POPC   C3A63593   6.386  27.620   6.936
 4989POPC   C4A63594   6.549  27.800   7.311
 4989POPC   C1B63595   6.878  27.336   6.212
 4989POPC   C2B63596   6.993  27.520   6.603
 4989POPC   C3B63597   6.926  27.619   7.010
 4989POPC   C4B63598   7.063  27.443   7.431
 4990POPC   NC363599  39.140  19.526   5.373
 4990POPC   PO463600  38.857  18.976   5.323
 4990POPC   GL163601  38.921  19.141   5.713
 4990POPC   GL263602  39.292  19.196   5.730
 4990POPC   C1A63603  39.024  18.990   6.125
 4990POPC   D2A63604  39.244  18.908   6.496
 4990POPC   C3A63605  39.054  19.049   6.850
 4990POPC   C4A63606  39.071  19.104   7.275
 4990POPC   C1B63607  39.515  19.152   6.125
 4990POPC   C2B63608  39.692  19.200   6.562
 4990POPC   C3B63609  39.513  19.195   6.996
 4990POPC   C4B63610  39.305  19.551   7.251
 4991POPC   NC363611  43.757   8.458   5.506
 4991POPC   PO463612  44.099   7.977   5.598
 4991POPC   GL163613  43.811   8.024   5.921
 4991POPC   GL263614  43.732   8.350   5.990
 4991POPC   C1A63615  43.830   7.974   6.376
 4991POPC   D2A63616  43.993   7.793   6.757
 4991POPC   C3A63617  43.854   7.947   7.145
 4991POPC   C4A63618  43.594   7.945   7.506
 4991POPC   C1B63619  43.719   8.487   6.378
 4991POPC   C2B63620  43.874   8.325   6.758
 4991POPC   C3B63621  43.887   8.474   7.155
 4991POPC   C4B63622  44.028   8.737   7.483
 4992POPC   NC363623  19.409  33.983   5.473
 4992POPC   PO463624  18.682  33.957   5.381
 4992POPC   GL163625  18.944  33.888   5.736
 4992POPC   GL263626  19.157  33.597   5.679
 4992POPC   C1A63627  18.930  33.757   6.164
 4992POPC   D2A63628  18.668  33.745   6.555
 4992POPC   C3A63629  18.870  33.743   6.961
 4992POPC   C4A63630  19.167  33.973   7.193
 4992POPC   C1B63631  19.344  33.417   6.051
 4992POPC   C2B63632  19.501  33.358   6.470
 4992POPC   C3B63633  19.622  33.514   6.872
 4992POPC   C4B63634  19.411  33.470   7.243
 4993POPC   NC363635   2.697  24.276   5.128
 4993POPC   PO463636   2.771  23.658   5.460
 4993POPC   GL163637   2.980  23.545   5.843
 4993POPC   GL263638   2.653  23.624   5.975
 4993POPC   C1A63639   2.961  23.427   6.308
 4993POPC   D2A63640   2.883  23.637   6.675
 4993POPC   C3A63641   2.920  23.542   7.099
 4993POPC   C4A63642   2.601  23.697   7.331
 4993POPC   C1B63643   2.991  23.933   6.169
 4993POPC   C2B63644   2.927  24.134   6.555
 4993POPC   C3B63645   2.745  24.048   6.947
 4993POPC   C4B63646   2.924  24.096   7.321
 4994POPC   NC363647  24.726  39.348   5.135
 4994POPC   PO463648  25.357  39.059   5.421
 4994POPC   GL163649  25.360  39.202   5.866
 4994POPC   GL263650  25.581  38.957   5.922
 4994POPC   C1A63651  25.355  39.418   6.284
 4994POPC   D2A63652  25.531  39.641   6.671
 4994POPC   C3A63653  25.350  39.535   7.074
 4994POPC   C4A63654  25.063  39.162   7.136
 4994POPC   C1B63655  25.502  38.869   6.325
 4994POPC   C2B63656  25.327  39.065   6.659
 4994POPC   C3B63657  25.578  39.086   6.977
 4994POPC   C4B63658  25.533  38.917   7.341
 4995POPC   NC363659  36.963   8.333   5.393
 4995POPC   PO463660  36.650   7.706   5.487
 4995POPC   GL163661  36.733   8.039   5.792
 4995POPC   GL263662  36.617   8.355   5.782
 4995POPC   C1A63663  36.880   8.162   6.208
 4995POPC   D2A63664  36.779   7.942   6.607
 4995POPC   C3A63665  36.887   7.966   7.036
 4995POPC   C4A63666  37.155   8.171   7.303
 4995POPC   C1B63667  36.452   8.475   6.153
 4995POPC   C2B63668  36.584   8.414   6.530
 4995POPC   C3B63669  36.890   8.446   6.826
 4995POPC   C4B63670  36.744   8.446   7.232
 4996POPC   NC363671  36.641  36.757   5.449
 4996POPC   PO463672  37.289  36.524   5.432
 4996POPC   GL163673  36.969  36.603   5.785
 4996POPC   GL263674  36.943  36.963   5.813
 4996POPC   C1A63675  36.634  36.701   6.118
 4996POPC   D2A63676  36.593  37.015   6.445
 4996POPC   C3A63677  36.476  36.936   6.877
 4996POPC   C4A63678  36.669  36.745   7.222
 4996POPC   C1B63679  37.101  36.859   6.217
 4996POPC   C2B63680  37.263  36.980   6.578
 4996POPC   C3B63681  37.023  36.980   6.936
 4996POPC   C4B63682  36.792  37.249   7.219
 4997POPC   NC363683  13.983  10.250   5.230
 4997POPC   PO463684  13.560  10.812   5.281
 4997POPC   GL163685  13.318  10.613   5.733
 4997POPC   GL263686  13.397  10.302   5.905
 4997POPC   C1A63687  13.447  10.675   6.214
 4997POPC   D2A63688  13.839  10.602   6.460
 4997POPC   C3A63689  13.894  10.589   6.893
 4997POPC   C4A63690  13.786  10.834   7.245
 4997POPC   C1B63691  13.883  10.207   6.132
 4997POPC   C2B63692  13.939  10.072   6.551
 4997POPC   C3B63693  13.608  10.174   6.848
 4997POPC   C4B63694  13.531  10.394   7.241
 4998POPC   NC363695   8.647  34.681   5.103
 4998POPC   PO463696   9.259  34.726   5.162
 4998POPC   GL163697   9.250  34.701   5.633
 4998POPC   GL263698   9.335  34.351   5.792
 4998POPC   C1A63699   9.065  34.855   6.030
 4998POPC   D2A63700   8.850  34.697   6.397
 4998POPC   C3A63701   9.158  34.661   6.709
 4998POPC   C4A63702   9.098  34.822   7.110
 4998POPC   C1B63703   8.991  34.283   6.098
 4998POPC   C2B63704   8.951  34.177   6.543
 4998POPC   C3B63705   8.877  34.330   6.971
 4998POPC   C4B63706   8.996  34.265   7.403
 4999POPC   NC363707  44.394  42.547   5.263
 4999POPC   PO463708  44.970  42.129   5.385
 4999POPC   GL163709  44.634  42.240   5.654
 4999POPC   GL263710  44.665  42.588   5.711
 4999POPC   C1A63711  44.628  42.274   6.110
 4999POPC   D2A63712  44.809  42.188   6.487
 4999POPC   C3A63713  44.555  42.337   6.814
 4999POPC   C4A63714  44.700  42.230   7.211
 4999POPC   C1B63715  44.909  42.726   6.078
 4999POPC   C2B63716  44.790  42.707   6.522
 4999POPC   C3B63717  44.920  42.665   6.965
 4999POPC   C4B63718  44.554  42.704   7.210
 5000POPC   NC363719  16.541  18.298   5.326
 5000POPC   PO463720  17.175  17.996   5.440
 5000POPC   GL163721  16.844  18.086   5.765
 5000POPC   GL263722  16.655  18.424   5.804
 5000POPC   C1A63723  16.674  18.046   6.188
 5000POPC   D2A63724  16.455  18.072   6.557
 5000POPC   C3A63725  16.714  18.060   6.903
 5000POPC   C4A63726  16.574  18.213   7.274
 5000POPC   C1B63727  16.984  18.463   6.125
 5000POPC   C2B63728  16.847  18.435   6.540
 5000POPC   C3B63729  16.722  18.568   6.936
 5000POPC   C4B63730  17.020  18.497   7.228
 5001POPC   NC363731  12.960  39.793   5.529
 5001POPC   PO463732  12.310  40.074   5.467
 5001POPC   GL163733  12.546  39.957   5.844
 5001POPC   GL263734  12.781  40.224   5.844
 5001POPC   C1A63735  12.720  39.847   6.286
 5001POPC   D2A63736  12.809  39.641   6.722
 5001POPC   C3A63737  12.532  39.712   7.105
 5001POPC   C4A63738  12.340  40.080   7.319
 5001POPC   C1B63739  12.698  40.382   6.269
 5001POPC   C2B63740  12.848  40.213   6.666
 5001POPC   C3B63741  13.027  40.100   7.077
 5001POPC   C4B63742  13.031  40.344   7.489
 5002POPC   NC363743   0.671   6.634   5.403
 5002POPC   PO463744   0.314   7.154   5.542
 5002POPC   GL163745   0.534   6.844   5.844
 5002POPC   GL263746   0.337   6.572   5.816
 5002POPC   C1A63747   0.714   6.518   6.156
 5002POPC   D2A63748   0.687   6.329   6.590
 5002POPC   C3A63749   0.481   6.581   6.927
 5002POPC   C4A63750   0.568   6.697   7.357
 5002POPC   C1B63751   0.205   6.366   6.189
 5002POPC   C2B63752   0.049   6.497   6.578
 5002POPC   C3B63753   0.041   6.314   6.951
 5002POPC   C4B63754   0.097   6.479   7.314
 5003POPC   NC363755  38.169  29.553   5.256
 5003POPC   PO463756  38.574  28.971   5.401
 5003POPC   GL163757  38.430  29.040   5.815
 5003POPC   GL263758  38.245  29.307   5.734
 5003POPC   C1A63759  38.644  29.159   6.213
 5003POPC   D2A63760  38.876  28.980   6.571
 5003POPC   C3A63761  38.688  29.095   6.971
 5003POPC   C4A63762  38.540  28.890   7.345
 5003POPC   C1B63763  38.183  29.422   6.170
 5003POPC   C2B63764  38.272  29.272   6.580
 5003POPC   C3B63765  38.082  29.445   6.934
 5003POPC   C4B63766  38.264  29.311   7.286
 5004POPC   NC363767  31.158   3.982   5.555
 5004POPC   PO463768  31.471   3.291   5.465
 5004POPC   GL163769  31.314   3.520   5.803
 5004POPC   GL263770  31.274   3.210   5.953
 5004POPC   C1A63771  31.465   3.687   6.207
 5004POPC   D2A63772  31.371   3.799   6.646
 5004POPC   C3A63773  31.610   3.719   7.017
 5004POPC   C4A63774  31.595   3.521   7.412
 5004POPC   C1B63775  31.071   3.350   6.309
 5004POPC   C2B63776  31.067   3.369   6.739
 5004POPC   C3B63777  31.320   3.271   7.062
 5004POPC   C4B63778  31.210   3.129   7.474
 5005POPC   NC363779   8.950  24.064   5.491
 5005POPC   PO463780   9.098  24.709   5.336
 5005POPC   GL163781   9.131  24.481   5.728
 5005POPC   GL263782   9.404  24.263   5.797
 5005POPC   C1A63783   8.970  24.290   6.119
 5005POPC   D2A63784   8.966  24.530   6.514
 5005POPC   C3A63785   8.889  24.368   6.936
 5005POPC   C4A63786   8.660  24.615   7.241
 5005POPC   C1B63787   9.420  24.520   6.192
 5005POPC   C2B63788   9.448  24.640   6.650
 5005POPC   C3B63789   9.352  24.520   7.088
 5005POPC   C4B63790   9.337  24.114   7.343
 5006POPC   NC363791  21.234  42.518   5.192
 5006POPC   PO463792  21.750  42.126   5.239
 5006POPC   GL163793  21.677  42.321   5.678
 5006POPC   GL263794  21.355  42.544   5.680
 5006POPC   C1A63795  21.747  42.270   6.173
 5006POPC   D2A63796  21.589  42.084   6.575
 5006POPC   C3A63797  21.672  42.270   7.004
 5006POPC   C4A63798  21.419  42.294   7.430
 5006POPC   C1B63799  21.272  42.284   5.997
 5006POPC   C2B63800  21.200  42.383   6.407
 5006POPC   C3B63801  21.188  42.351   6.828
 5006POPC   C4B63802  21.028  42.488   7.187
 5007POPC   NC363803  32.494   3.023   5.388
 5007POPC   PO463804  33.073   2.666   5.382
 5007POPC   GL163805  33.087   2.796   5.768
 5007POPC   GL263806  32.997   3.152   5.745
 5007POPC   C1A63807  32.993   2.619   6.137
 5007POPC   D2A63808  33.027   2.843   6.474
 5007POPC   C3A63809  33.017   2.638   6.814
 5007POPC   C4A63810  33.192   2.786   7.194
 5007POPC   C1B63811  32.747   3.100   6.121
 5007POPC   C2B63812  32.697   3.207   6.548
 5007POPC   C3B63813  32.867   3.131   6.969
 5007POPC   C4B63814  32.839   3.072   7.421
 5008POPC   NC363815   4.930   0.814   5.498
 5008POPC   PO463816   5.319   1.308   5.206
 5008POPC   GL163817   5.285   1.433   5.663
 5008POPC   GL263818   4.948   1.571   5.769
 5008POPC   C1A63819   5.222   1.227   6.067
 5008POPC   D2A63820   5.090   1.082   6.470
 5008POPC   C3A63821   5.203   1.334   6.822
 5008POPC   C4A63822   5.293   1.179   7.226
 5008POPC   C1B63823   4.833   1.547   6.238
 5008POPC   C2B63824   4.725   1.488   6.700
 5008POPC   C3B63825   4.907   1.664   7.112
 5008POPC   C4B63826   4.791   1.724   7.569
 5009POPC   NC363827   4.634  27.392   4.969
 5009POPC   PO463828   4.487  27.721   5.532
 5009POPC   GL163829   4.285  27.607   5.897
 5009POPC   GL263830   4.413  27.296   5.816
 5009POPC   C1A63831   4.384  27.646   6.336
 5009POPC   D2A63832   4.532  27.543   6.753
 5009POPC   C3A63833   4.150  27.502   7.024
 5009POPC   C4A63834   4.034  27.746   7.403
 5009POPC   C1B63835   4.571  27.167   6.219
 5009POPC   C2B63836   4.397  27.030   6.629
 5009POPC   C3B63837   4.514  27.120   7.060
 5009POPC   C4B63838   4.472  27.422   7.417
 5010POPC   NC363839  40.116  44.870   5.532
 5010POPC   PO463840  39.807  44.271   5.359
 5010POPC   GL163841  39.932  44.463   5.801
 5010POPC   GL263842  39.834  44.838   5.940
 5010POPC   C1A63843  40.096  44.532   6.232
 5010POPC   D2A63844  39.794  44.703   6.513
 5010POPC   C3A63845  39.789  44.456   6.877
 5010POPC   C4A63846  40.058  44.564   7.200
 5010POPC   C1B63847  40.220   0.025   6.150
 5010POPC   C2B63848  40.232   0.012   6.594
 5010POPC   C3B63849  40.258   0.021   7.048
 5010POPC   C4B63850  40.283   0.307   7.421
 5011POPC   NC363851  43.345  35.140   5.278
 5011POPC   PO463852  43.088  35.654   5.489
 5011POPC   GL163853  43.275  35.446   5.835
 5011POPC   GL263854  43.634  35.502   5.779
 5011POPC   C1A63855  43.141  35.403   6.291
 5011POPC   D2A63856  43.030  35.719   6.626
 5011POPC   C3A63857  42.794  35.546   6.978
 5011POPC   C4A63858  42.666  35.201   7.223
 5011POPC   C1B63859  43.651  35.263   6.195
 5011POPC   C2B63860  43.381  35.016   6.516
 5011POPC   C3B63861  43.032  35.118   6.841
 5011POPC   C4B63862  43.173  35.293   7.273
 5012POPC   NC363863   8.500  36.914   5.207
 5012POPC   PO463864   7.843  36.869   5.521
 5012POPC   GL163865   7.949  36.901   5.884
 5012POPC   GL263866   8.294  36.760   5.863
 5012POPC   C1A63867   8.088  37.104   6.242
 5012POPC   D2A63868   8.433  37.002   6.532
 5012POPC   C3A63869   8.416  36.927   7.011
 5012POPC   C4A63870   8.385  37.097   7.461
 5012POPC   C1B63871   8.110  36.592   6.262
 5012POPC   C2B63872   7.985  36.779   6.652
 5012POPC   C3B63873   8.022  36.580   7.031
 5012POPC   C4B63874   8.258  36.617   7.444
 5013POPC   NC363875  18.465  44.495   5.389
 5013POPC   PO463876  18.568   0.140   5.546
 5013POPC   GL163877  18.436  44.805   5.821
 5013POPC   GL263878  18.102  44.620   5.731
 5013POPC   C1A63879  18.518  44.762   6.246
 5013POPC   D2A63880  18.737  44.856   6.617
 5013POPC   C3A63881  18.456  44.774   6.938
 5013POPC   C4A63882  18.455  44.727   7.376
 5013POPC   C1B63883  18.004  44.753   6.152
 5013POPC   C2B63884  18.142  44.997   6.513
 5013POPC   C3B63885  18.028   0.080   6.919
 5013POPC   C4B63886  17.970  44.805   7.231
 5014POPC   NC363887  15.147  17.076   5.441
 5014POPC   PO463888  15.452  16.506   5.367
 5014POPC   GL163889  15.314  16.369   5.759
 5014POPC   GL263890  15.161  16.698   5.793
 5014POPC   C1A63891  15.378  16.432   6.192
 5014POPC   D2A63892  15.229  16.615   6.571
 5014POPC   C3A63893  15.350  16.497   6.971
 5014POPC   C4A63894  15.097  16.361   7.326
 5014POPC   C1B63895  15.277  16.952   6.167
 5014POPC   C2B63896  15.175  17.148   6.562
 5014POPC   C3B63897  15.096  16.972   6.959
 5014POPC   C4B63898  14.796  16.901   7.311
 5015POPC   NC363899  17.202   0.148   5.623
 5015POPC   PO463900  16.750   0.574   5.350
 5015POPC   GL163901  16.850   0.757   5.766
 5015POPC   GL263902  17.112   0.573   5.901
 5015POPC   C1A63903  16.695   0.638   6.202
 5015POPC   D2A63904  16.637   0.354   6.588
 5015POPC   C3A63905  16.338   0.412   6.915
 5015POPC   C4A63906  16.507   0.525   7.310
 5015POPC   C1B63907  17.035   0.244   6.233
 5015POPC   C2B63908  17.200   0.262   6.646
 5015POPC   C3B63909  16.956   0.365   6.994
 5015POPC   C4B63910  16.859   0.074   7.262
 5016POPC   NC363911  19.186  44.861   5.471
 5016POPC   PO463912  18.866  44.281   5.370
 5016POPC   GL163913  18.927  44.537   5.782
 5016POPC   GL263914  19.290  44.577   5.879
 5016POPC   C1A63915  18.953  44.519   6.255
 5016POPC   D2A63916  18.808  44.295   6.620
 5016POPC   C3A63917  18.905  44.505   6.996
 5016POPC   C4A63918  18.950  44.657   7.427
 5016POPC   C1B63919  19.443  44.413   6.254
 5016POPC   C2B63920  19.325  44.450   6.672
 5016POPC   C3B63921  19.402  44.517   7.113
 5016POPC   C4B63922  19.439  44.535   7.553
 5017POPC   NC363923  20.885  27.157   5.432
 5017POPC   PO463924  20.493  26.639   5.412
 5017POPC   GL163925  20.545  26.885   5.790
 5017POPC   GL263926  20.880  26.810   5.812
 5017POPC   C1A63927  20.587  26.781   6.254
 5017POPC   D2A63928  20.725  26.541   6.619
 5017POPC   C3A63929  20.463  26.633   6.966
 5017POPC   C4A63930  20.398  26.979   7.207
 5017POPC   C1B63931  21.027  27.082   6.146
 5017POPC   C2B63932  21.057  26.969   6.570
 5017POPC   C3B63933  20.876  26.928   6.959
 5017POPC   C4B63934  20.963  26.704   7.311
 5018POPC   NC363935  12.030  25.693   5.331
 5018POPC   PO463936  12.304  24.975   5.442
 5018POPC   GL163937  12.076  25.277   5.659
 5018POPC   GL263938  12.352  25.354   5.852
 5018POPC   C1A63939  11.926  25.467   6.072
 5018POPC   D2A63940  12.218  25.422   6.416
 5018POPC   C3A63941  12.001  25.408   6.780
 5018POPC   C4A63942  11.969  25.427   7.183
 5018POPC   C1B63943  12.170  24.986   6.121
 5018POPC   C2B63944  12.002  24.911   6.565
 5018POPC   C3B63945  12.115  24.940   7.032
 5018POPC   C4B63946  11.926  25.015   7.465
 5019POPC   NC363947  22.285   9.589   5.499
 5019POPC   PO463948  21.825   9.948   5.405
 5019POPC   GL163949  21.954   9.853   5.809
 5019POPC   GL263950  22.263   9.992   5.874
 5019POPC   C1A63951  22.028   9.500   6.114
 5019POPC   D2A63952  21.923   9.383   6.545
 5019POPC   C3A63953  22.140   9.406   6.954
 5019POPC   C4A63954  22.113   9.676   7.336
 5019POPC   C1B63955  22.487   9.742   6.158
 5019POPC   C2B63956  22.746   9.774   6.513
 5019POPC   C3B63957  22.586   9.701   6.910
 5019POPC   C4B63958  22.613   9.829   7.298
 5020POPC   NC363959  40.331  44.083   5.507
 5020POPC   PO463960  39.876  43.672   5.720
 5020POPC   GL163961  40.100  43.976   5.973
 5020POPC   GL263962  40.400  43.823   5.934
 5020POPC   C1A63963  40.041  44.065   6.417
 5020POPC   D2A63964  39.694  43.959   6.696
 5020POPC   C3A63965  39.763  43.998   7.129
 5020POPC   C4A63966  39.684  44.282   7.426
 5020POPC   C1B63967  40.451  43.612   6.271
 5020POPC   C2B63968  40.080  43.553   6.478
 5020POPC   C3B63969  39.981  43.592   6.884
 5020POPC   C4B63970  40.168  43.699   7.281
 5021POPC   NC363971   3.374  34.302   5.609
 5021POPC   PO463972   3.514  34.787   5.117
 5021POPC   GL163973   3.828  34.590   5.523
 5021POPC   GL263974   3.943  34.868   5.742
 5021POPC   C1A63975   3.845  34.450   6.032
 5021POPC   D2A63976   3.603  34.581   6.421
 5021POPC   C3A63977   3.365  34.463   6.802
 5021POPC   C4A63978   3.554  34.434   7.215
 5021POPC   C1B63979   3.877  34.973   6.176
 5021POPC   C2B63980   3.957  34.949   6.584
 5021POPC   C3B63981   3.827  34.789   6.947
 5021POPC   C4B63982   3.909  34.950   7.357
 5022POPC   NC363983  31.971  43.085   5.292
 5022POPC   PO463984  31.291  43.313   5.498
 5022POPC   GL163985  31.591  43.117   5.765
 5022POPC   GL263986  31.727  43.448   5.710
 5022POPC   C1A63987  31.429  42.937   6.180
 5022POPC   D2A63988  31.160  43.226   6.468
 5022POPC   C3A63989  31.039  43.188   6.923
 5022POPC   C4A63990  31.314  43.230   7.287
 5022POPC   C1B63991  31.525  43.458   6.130
 5022POPC   C2B63992  31.712  43.232   6.481
 5022POPC   C3B63993  31.674  43.078   6.869
 5022POPC   C4B63994  31.817  43.277   7.219
 5023POPC   NC363995  14.653  26.653   5.448
 5023POPC   PO463996  15.195  27.116   5.383
 5023POPC   GL163997  15.088  26.744   5.729
 5023POPC   GL263998  14.797  26.730   5.916
 5023POPC   C1A63999  15.266  26.574   6.133
 5023POPC   D2A64000  15.349  26.809   6.545
 5023POPC   C3A64001  15.258  26.679   6.987
 5023POPC   C4A64002  15.234  26.917   7.388
 5023POPC   C1B64003  14.896  26.889   6.291
 5023POPC   C2B64004  14.830  26.710   6.674
 5023POPC   C3B64005  14.776  26.911   7.065
 5023POPC   C4B64006  14.676  26.741   7.419
 5024POPC   NC364007   0.656   2.783   5.175
 5024POPC   PO464008  44.976   2.827   5.280
 5024POPC   GL164009   0.310   2.819   5.616
 5024POPC   GL264010   0.692   2.804   5.683
 5024POPC   C1A64011   0.331   2.828   6.071
 5024POPC   D2A64012   0.476   2.770   6.500
 5024POPC   C3A64013   0.288   2.843   6.899
 5024POPC   C4A64014   0.093   3.068   7.197
 5024POPC   C1B64015   0.818   3.016   6.053
 5024POPC   C2B64016   0.942   2.982   6.468
 5024POPC   C3B64017   0.800   2.859   6.886
 5024POPC   C4B64018   0.644   2.946   7.266
 5025POPC   NC364019  24.085  23.672   5.491
 5025POPC   PO464020  24.506  24.180   5.336
 5025POPC   GL164021  24.436  23.959   5.750
 5025POPC   GL264022  24.433  23.582   5.824
 5025POPC   C1A64023  24.391  23.962   6.200
 5025POPC   D2A64024  24.521  24.106   6.585
 5025POPC   C3A64025  24.434  23.929   6.955
 5025POPC   C4A64026  24.226  23.846   7.303
 5025POPC   C1B64027  24.194  23.514   6.193
 5025POPC   C2B64028  24.423  23.549   6.601
 5025POPC   C3B64029  24.283  23.427   7.027
 5025POPC   C4B64030  24.386  23.399   7.496
 5026POPC   NC364031   6.758  15.968   5.647
 5026POPC   PO464032   6.177  16.384   5.650
 5026POPC   GL164033   6.439  16.202   5.974
 5026POPC   GL264034   6.796  16.364   5.954
 5026POPC   C1A64035   6.676  16.010   6.327
 5026POPC   D2A64036   6.827  16.296   6.652
 5026POPC   C3A64037   6.536  16.260   6.992
 5026POPC   C4A64038   6.338  15.915   7.199
 5026POPC   C1B64039   7.141  16.199   6.240
 5026POPC   C2B64040   7.198  15.976   6.648
 5026POPC   C3B64041   6.944  15.844   7.048
 5026POPC   C4B64042   7.048  15.945   7.497
 5027POPC   NC364043  22.789  31.792   5.434
 5027POPC   PO464044  23.099  32.403   5.353
 5027POPC   GL164045  22.978  32.253   5.766
 5027POPC   GL264046  23.101  31.915   5.831
 5027POPC   C1A64047  23.152  32.273   6.210
 5027POPC   D2A64048  23.082  32.096   6.632
 5027POPC   C3A64049  22.801  32.277   6.934
 5027POPC   C4A64050  22.939  32.318   7.312
 5027POPC   C1B64051  22.746  31.959   6.200
 5027POPC   C2B64052  22.589  31.902   6.657
 5027POPC   C3B64053  22.884  31.775   7.010
 5027POPC   C4B64054  23.235  31.901   7.286
 5028POPC   NC364055  13.336  29.943   5.420
 5028POPC   PO464056  13.969  29.638   5.289
 5028POPC   GL164057  13.662  29.661   5.685
 5028POPC   GL264058  13.291  29.562   5.793
 5028POPC   C1A64059  13.719  29.783   6.143
 5028POPC   D2A64060  13.768  29.677   6.601
 5028POPC   C3A64061  13.874  29.985   6.948
 5028POPC   C4A64062  13.772  29.980   7.401
 5028POPC   C1B64063  13.219  29.801   6.205
 5028POPC   C2B64064  13.373  30.025   6.602
 5028POPC   C3B64065  13.403  30.126   7.060
 5028POPC   C4B64066  13.370  30.279   7.495
 5029POPC   NC364067   1.352  16.248   5.216
 5029POPC   PO464068   1.380  16.925   5.380
 5029POPC   GL164069   1.305  16.806   5.806
 5029POPC   GL264070   1.037  16.951   5.930
 5029POPC   C1A64071   1.370  16.724   6.261
 5029POPC   D2A64072   1.547  16.904   6.635
 5029POPC   C3A64073   1.413  16.690   6.978
 5029POPC   C4A64074   1.376  16.741   7.394
 5029POPC   C1B64075   0.909  17.084   6.310
 5029POPC   C2B64076   0.955  16.884   6.691
 5029POPC   C3B64077   1.040  17.038   7.090
 5029POPC   C4B64078   0.888  16.921   7.477
 5030POPC   NC364079  10.541  28.051   5.381
 5030POPC   PO464080  10.207  28.627   5.367
 5030POPC   GL164081  10.375  28.475   5.807
 5030POPC   GL264082  10.574  28.172   5.912
 5030POPC   C1A64083  10.645  28.604   6.197
 5030POPC   D2A64084  10.644  28.811   6.643
 5030POPC   C3A64085  10.423  28.666   7.021
 5030POPC   C4A64086  10.382  28.463   7.451
 5030POPC   C1B64087  10.635  28.124   6.361
 5030POPC   C2B64088  10.602  28.032   6.775
 5030POPC   C3B64089  10.568  28.081   7.182
 5030POPC   C4B64090  10.459  27.927   7.581
 5031POPC   NC364091  27.162  27.749   5.503
 5031POPC   PO464092  26.521  27.894   5.500
 5031POPC   GL164093  26.745  27.555   5.785
 5031POPC   GL264094  26.510  27.258   5.825
 5031POPC   C1A64095  27.056  27.398   6.144
 5031POPC   D2A64096  27.252  27.511   6.571
 5031POPC   C3A64097  26.994  27.435   6.926
 5031POPC   C4A64098  26.755  27.604   7.270
 5031POPC   C1B64099  26.530  27.413   6.240
 5031POPC   C2B64100  26.611  27.265   6.641
 5031POPC   C3B64101  26.410  27.302   7.056
 5031POPC   C4B64102  26.450  27.316   7.562
 5032POPC   NC364103  39.892  37.036   5.455
 5032POPC   PO464104  40.343  36.561   5.556
 5032POPC   GL164105  40.205  36.918   5.824
 5032POPC   GL264106  40.387  37.234   5.885
 5032POPC   C1A64107  39.938  37.095   6.161
 5032POPC   D2A64108  40.026  37.053   6.604
 5032POPC   C3A64109  39.794  37.082   6.973
 5032POPC   C4A64110  39.747  36.873   7.344
 5032POPC   C1B64111  40.446  36.961   6.264
 5032POPC   C2B64112  40.533  37.034   6.692
 5032POPC   C3B64113  40.310  37.043   7.073
 5032POPC   C4B64114  40.248  36.775   7.411
 5033POPC   NC364115   3.541  42.406   5.702
 5033POPC   PO464116   3.521  42.812   5.156
 5033POPC   GL164117   3.606  43.024   5.598
 5033POPC   GL264118   3.609  43.371   5.771
 5033POPC   C1A64119   3.580  42.965   6.082
 5033POPC   D2A64120   3.299  42.992   6.442
 5033POPC   C3A64121   3.444  42.903   6.857
 5033POPC   C4A64122   3.349  42.972   7.280
 5033POPC   C1B64123   3.477  43.456   6.217
 5033POPC   C2B64124   3.450  43.435   6.656
 5033POPC   C3B64125   3.372  43.422   7.051
 5033POPC   C4B64126   3.658  43.565   7.306
 5034POPC   NC364127  31.940  37.384   5.436
 5034POPC   PO464128  32.028  38.128   5.356
 5034POPC   GL164129  32.041  37.819   5.688
 5034POPC   GL264130  32.350  37.648   5.658
 5034POPC   C1A64131  32.076  37.518   6.079
 5034POPC   D2A64132  32.030  37.295   6.485
 5034POPC   C3A64133  32.138  37.521   6.856
 5034POPC   C4A64134  31.964  37.492   7.255
 5034POPC   C1B64135  32.617  37.539   6.032
 5034POPC   C2B64136  32.528  37.480   6.474
 5034POPC   C3B64137  32.633  37.652   6.917
 5034POPC   C4B64138  32.374  37.813   7.272
 5035POPC   NC364139  27.182  26.895   5.383
 5035POPC   PO464140  26.526  26.904   5.428
 5035POPC   GL164141  26.820  26.850   5.775
 5035POPC   GL264142  27.078  26.605   5.789
 5035POPC   C1A64143  26.701  26.917   6.208
 5035POPC   D2A64144  26.410  26.788   6.546
 5035POPC   C3A64145  26.651  26.847   6.943
 5035POPC   C4A64146  26.817  27.101   7.296
 5035POPC   C1B64147  27.233  26.914   6.077
 5035POPC   C2B64148  27.132  27.014   6.511
 5035POPC   C3B64149  27.179  26.939   6.948
 5035POPC   C4B64150  27.084  26.689   7.333
 5036POPC   NC364151  11.025  40.393   5.628
 5036POPC   PO464152  11.338  40.863   5.184
 5036POPC   GL164153  11.256  40.862   5.656
 5036POPC   GL264154  11.395  40.585   5.903
 5036POPC   C1A64155  11.214  40.995   6.089
 5036POPC   D2A64156  11.202  41.101   6.511
 5036POPC   C3A64157  11.278  40.936   6.921
 5036POPC   C4A64158  11.101  40.854   7.315
 5036POPC   C1B64159  11.286  40.569   6.353
 5036POPC   C2B64160  11.490  40.494   6.741
 5036POPC   C3B64161  11.587  40.619   7.177
 5036POPC   C4B64162  11.694  40.541   7.618
 5037POPC   NC364163  35.614  19.213   5.432
 5037POPC   PO464164  35.080  18.854   5.620
 5037POPC   GL164165  35.274  18.976   5.966
 5037POPC   GL264166  35.623  18.991   5.896
 5037POPC   C1A64167  35.362  18.983   6.380
 5037POPC   D2A64168  35.350  19.203   6.737
 5037POPC   C3A64169  35.171  19.027   7.130
 5037POPC   C4A64170  35.551  19.205   7.258
 5037POPC   C1B64171  35.720  18.639   6.188
 5037POPC   C2B64172  35.664  18.549   6.603
 5037POPC   C3B64173  35.582  18.794   6.928
 5037POPC   C4B64174  35.569  18.703   7.338
 5038POPC   NC364175  43.753  26.995   5.372
 5038POPC   PO464176  44.176  26.529   5.663
 5038POPC   GL164177  43.998  26.830   5.859
 5038POPC   GL264178  44.299  26.981   5.931
 5038POPC   C1A64179  43.705  26.789   6.195
 5038POPC   D2A64180  43.698  26.942   6.608
 5038POPC   C3A64181  43.700  26.742   6.962
 5038POPC   C4A64182  43.735  26.865   7.389
 5038POPC   C1B64183  44.170  26.975   6.356
 5038POPC   C2B64184  44.184  27.028   6.797
 5038POPC   C3B64185  44.175  26.819   7.164
 5038POPC   C4B64186  44.268  26.583   7.550
 5039POPC   NC364187  29.674   6.946   5.493
 5039POPC   PO464188  30.046   6.349   5.501
 5039POPC   GL164189  29.895   6.616   5.834
 5039POPC   GL264190  30.116   6.909   5.831
 5039POPC   C1A64191  29.911   6.680   6.285
 5039POPC   D2A64192  30.000   6.400   6.635
 5039POPC   C3A64193  29.863   6.498   7.054
 5039POPC   C4A64194  29.563   6.797   7.253
 5039POPC   C1B64195  30.384   6.858   6.218
 5039POPC   C2B64196  30.292   6.851   6.659
 5039POPC   C3B64197  30.220   6.876   7.088
 5039POPC   C4B64198  30.298   6.592   7.425
 5040POPC   NC364199  29.252  20.474   5.371
 5040POPC   PO464200  28.823  20.915   5.345
 5040POPC   GL164201  28.875  20.611   5.719
 5040POPC   GL264202  29.233  20.552   5.871
 5040POPC   C1A64203  28.840  20.455   6.155
 5040POPC   D2A64204  29.115  20.460   6.575
 5040POPC   C3A64205  29.046  20.815   6.910
 5040POPC   C4A64206  29.061  20.593   7.261
 5040POPC   C1B64207  29.170  20.851   6.225
 5040POPC   C2B64208  29.430  20.872   6.607
 5040POPC   C3B64209  29.475  20.520   6.938
 5040POPC   C4B64210  29.513  20.353   7.342
 5041POPC   NC364211   5.490  15.297   5.241
 5041POPC   PO464212   6.124  15.165   5.268
 5041POPC   GL164213   5.839  15.260   5.655
 5041POPC   GL264214   5.917  15.528   5.927
 5041POPC   C1A64215   5.863  15.057   6.094
 5041POPC   D2A64216   6.145  15.094   6.477
 5041POPC   C3A64217   5.946  15.120   6.888
 5041POPC   C4A64218   5.832  15.147   7.341
 5041POPC   C1B64219   5.487  15.529   6.140
 5041POPC   C2B64220   5.259  15.404   6.541
 5041POPC   C3B64221   5.482  15.401   6.939
 5041POPC   C4B64222   5.538  15.580   7.346
 5042POPC   NC364223  32.333  35.453   5.476
 5042POPC   PO464224  32.624  34.807   5.623
 5042POPC   GL164225  32.418  35.129   5.878
 5042POPC   GL264226  32.162  35.389   5.962
 5042POPC   C1A64227  32.541  35.334   6.273
 5042POPC   D2A64228  32.708  35.299   6.678
 5042POPC   C3A64229  32.395  35.273   7.011
 5042POPC   C4A64230  32.518  35.561   7.324
 5042POPC   C1B64231  32.004  35.292   6.368
 5042POPC   C2B64232  31.824  35.305   6.797
 5042POPC   C3B64233  31.932  35.113   7.206
 5042POPC   C4B64234  32.187  35.285   7.579
 5043POPC   NC364235   6.777  29.214   5.349
 5043POPC   PO464236   6.256  29.613   5.651
 5043POPC   GL164237   6.547  29.323   5.836
 5043POPC   GL264238   6.686  29.013   5.810
 5043POPC   C1A64239   6.823  29.280   6.213
 5043POPC   D2A64240   7.020  29.052   6.568
 5043POPC   C3A64241   6.777  29.036   6.936
 5043POPC   C4A64242   6.652  29.142   7.336
 5043POPC   C1B64243   6.773  28.771   6.199
 5043POPC   C2B64244   6.706  28.583   6.608
 5043POPC   C3B64245   6.429  28.658   6.935
 5043POPC   C4B64246   6.377  28.676   7.366
 5044POPC   NC364247   5.053   6.848   4.918
 5044POPC   PO464248   5.015   6.731   5.608
 5044POPC   GL164249   5.248   6.531   5.936
 5044POPC   GL264250   4.933   6.428   6.065
 5044POPC   C1A64251   5.407   6.538   6.379
 5044POPC   D2A64252   5.576   6.386   6.765
 5044POPC   C3A64253   5.330   6.510   7.088
 5044POPC   C4A64254   5.148   6.927   7.236
 5044POPC   C1B64255   5.018   6.853   6.299
 5044POPC   C2B64256   5.089   6.796   6.742
 5044POPC   C3B64257   4.824   6.560   7.073
 5044POPC   C4B64258   4.445   6.714   7.215
 5045POPC   NC364259  17.083   3.275   5.477
 5045POPC   PO464260  16.729   3.960   5.448
 5045POPC   GL164261  16.610   3.751   5.839
 5045POPC   GL264262  16.690   3.398   5.811
 5045POPC   C1A64263  16.620   3.695   6.299
 5045POPC   D2A64264  16.942   3.810   6.619
 5045POPC   C3A64265  16.724   3.822   7.016
 5045POPC   C4A64266  16.597   3.451   7.240
 5045POPC   C1B64267  17.002   3.397   6.146
 5045POPC   C2B64268  16.878   3.310   6.564
 5045POPC   C3B64269  17.047   3.405   6.960
 5045POPC   C4B64270  17.028   3.162   7.300
 5046POPC   NC364271  38.735  41.989   5.463
 5046POPC   PO464272  38.173  42.330   5.306
 5046POPC   GL164273  38.279  42.133   5.716
 5046POPC   GL264274  38.610  42.214   5.894
 5046POPC   C1A64275  38.193  42.002   6.154
 5046POPC   D2A64276  38.381  42.068   6.565
 5046POPC   C3A64277  38.179  42.174   6.949
 5046POPC   C4A64278  38.302  42.162   7.388
 5046POPC   C1B64279  38.739  42.441   6.258
 5046POPC   C2B64280  38.787  42.360   6.673
 5046POPC   C3B64281  38.678  42.269   7.041
 5046POPC   C4B64282  38.645  42.626   7.281
 5047POPC   NC364283  39.701  15.470   5.467
 5047POPC   PO464284  39.184  15.066   5.219
 5047POPC   GL164285  39.147  14.994   5.770
 5047POPC   GL264286  39.491  15.007   5.806
 5047POPC   C1A64287  39.101  15.133   6.249
 5047POPC   D2A64288  38.868  15.214   6.670
 5047POPC   C3A64289  39.119  15.238   7.084
 5047POPC   C4A64290  39.047  15.075   7.533
 5047POPC   C1B64291  39.615  15.060   6.215
 5047POPC   C2B64292  39.517  15.242   6.584
 5047POPC   C3B64293  39.619  15.068   6.953
 5047POPC   C4B64294  39.543  15.117   7.354
 5048POPC   NC364295  24.841  28.987   5.417
 5048POPC   PO464296  25.476  29.024   5.529
 5048POPC   GL164297  25.334  29.251   5.843
 5048POPC   GL264298  25.026  29.237   5.849
 5048POPC   C1A64299  25.494  29.557   6.120
 5048POPC   D2A64300  25.595  29.386   6.533
 5048POPC   C3A64301  25.535  29.508   6.942
 5048POPC   C4A64302  25.396  29.179   7.172
 5048POPC   C1B64303  25.098  29.294   6.283
 5048POPC   C2B64304  24.974  29.136   6.599
 5048POPC   C3B64305  25.027  28.953   6.931
 5048POPC   C4B64306  24.904  29.131   7.281
 5049POPC   NC364307   5.908  25.495   5.481
 5049POPC   PO464308   5.801  24.887   5.480
 5049POPC   GL164309   5.990  25.100   5.802
 5049POPC   GL264310   5.649  25.214   5.854
 5049POPC   C1A64311   6.040  25.267   6.228
 5049POPC   D2A64312   5.875  25.350   6.659
 5049POPC   C3A64313   6.129  25.281   7.046
 5049POPC   C4A64314   6.211  25.324   7.509
 5049POPC   C1B64315   5.520  25.303   6.262
 5049POPC   C2B64316   5.302  25.406   6.620
 5049POPC   C3B64317   5.481  25.471   7.023
 5049POPC   C4B64318   5.702  25.292   7.377
 5050POPC   NC364319  41.440  37.829   5.359
 5050POPC   PO464320  41.829  37.335   5.681
 5050POPC   GL164321  41.631  37.678   5.863
 5050POPC   GL264322  41.303  37.532   5.765
 5050POPC   C1A64323  41.818  37.802   6.280
 5050POPC   D2A64324  41.737  37.691   6.726
 5050POPC   C3A64325  41.796  37.828   7.152
 5050POPC   C4A64326  41.455  37.927   7.379
 5050POPC   C1B64327  41.188  37.488   6.206
 5050POPC   C2B64328  41.314  37.367   6.630
 5050POPC   C3B64329  41.433  37.433   7.057
 5050POPC   C4B64330  41.568  37.415   7.466
 5051POPC   NC364331  27.444  15.163   5.478
 5051POPC   PO464332  28.048  14.796   5.437
 5051POPC   GL164333  27.862  15.038   5.837
 5051POPC   GL264334  27.548  14.894   5.949
 5051POPC   C1A64335  27.629  15.309   6.210
 5051POPC   D2A64336  27.257  15.225   6.513
 5051POPC   C3A64337  27.383  15.114   6.949
 5051POPC   C4A64338  27.513  15.307   7.334
 5051POPC   C1B64339  27.815  14.818   6.315
 5051POPC   C2B64340  27.848  14.970   6.748
 5051POPC   C3B64341  27.839  14.896   7.198
 5051POPC   C4B64342  27.786  14.929   7.644
 5052POPC   NC364343   2.435   4.216   5.566
 5052POPC   PO464344   2.895   4.537   5.334
 5052POPC   GL164345   2.929   4.336   5.752
 5052POPC   GL264346   2.809   3.974   5.806
 5052POPC   C1A64347   3.003   4.398   6.212
 5052POPC   D2A64348   3.141   4.475   6.654
 5052POPC   C3A64349   2.763   4.434   6.914
 5052POPC   C4A64350   2.473   4.350   7.227
 5052POPC   C1B64351   2.833   3.858   6.219
 5052POPC   C2B64352   2.897   4.018   6.611
 5052POPC   C3B64353   2.819   3.920   7.025
 5052POPC   C4B64354   2.563   3.872   7.370
 5053POPC   NC364355  42.460  15.052   5.326
 5053POPC   PO464356  41.842  14.749   5.378
 5053POPC   GL164357  42.050  15.143   5.625
 5053POPC   GL264358  42.155  14.877   5.817
 5053POPC   C1A64359  42.369  15.297   5.997
 5053POPC   D2A64360  42.458  15.128   6.426
 5053POPC   C3A64361  42.337  15.184   6.854
 5053POPC   C4A64362  42.483  15.077   7.251
 5053POPC   C1B64363  41.978  15.054   6.213
 5053POPC   C2B64364  41.882  15.206   6.644
 5053POPC   C3B64365  41.921  15.139   7.144
 5053POPC   C4B64366  42.081  15.145   7.582
 5054POPC   NC364367   3.276  14.748   5.121
 5054POPC   PO464368   2.798  14.389   5.370
 5054POPC   GL164369   2.757  14.517   5.786
 5054POPC   GL264370   2.670  14.172   5.833
 5054POPC   C1A64371   2.839  14.728   6.193
 5054POPC   D2A64372   2.708  14.876   6.602
 5054POPC   C3A64373   2.879  14.631   6.931
 5054POPC   C4A64374   2.790  14.583   7.337
 5054POPC   C1B64375   2.577  14.281   6.254
 5054POPC   C2B64376   2.501  14.374   6.693
 5054POPC   C3B64377   2.710  14.152   7.043
 5054POPC   C4B64378   2.920  13.795   7.202
 5055POPC   NC364379  27.880  11.990   5.039
 5055POPC   PO464380  27.301  12.104   5.388
 5055POPC   GL164381  27.462  12.056   5.811
 5055POPC   GL264382  27.837  12.075   5.876
 5055POPC   C1A64383  27.520  12.215   6.239
 5055POPC   D2A64384  27.409  11.988   6.606
 5055POPC   C3A64385  27.677  12.091   6.911
 5055POPC   C4A64386  27.583  12.369   7.216
 5055POPC   C1B64387  27.976  11.869   6.247
 5055POPC   C2B64388  28.027  11.723   6.687
 5055POPC   C3B64389  28.092  11.857   7.121
 5055POPC   C4B64390  27.761  11.901   7.398
 5056POPC   NC364391   3.554   2.871   5.350
 5056POPC   PO464392   3.245   2.285   5.429
 5056POPC   GL164393   3.518   2.535   5.732
 5056POPC   GL264394   3.356   2.897   5.808
 5056POPC   C1A64395   3.553   2.599   6.167
 5056POPC   D2A64396   3.311   2.569   6.533
 5056POPC   C3A64397   3.554   2.514   6.872
 5056POPC   C4A64398   3.522   2.582   7.281
 5056POPC   C1B64399   3.473   3.123   6.174
 5056POPC   C2B64400   3.456   3.073   6.598
 5056POPC   C3B64401   3.675   2.993   6.972
 5056POPC   C4B64402   3.631   3.104   7.383
 5057POPC   NC364403   2.697  29.555   5.407
 5057POPC   PO464404   2.458  30.127   5.164
 5057POPC   GL164405   2.542  30.054   5.652
 5057POPC   GL264406   2.489  29.736   5.857
 5057POPC   C1A64407   2.641  30.166   6.130
 5057POPC   D2A64408   2.515  30.030   6.578
 5057POPC   C3A64409   2.782  29.900   6.924
 5057POPC   C4A64410   3.087  29.749   7.208
 5057POPC   C1B64411   2.740  29.659   6.278
 5057POPC   C2B64412   2.868  29.437   6.697
 5057POPC   C3B64413   2.709  29.396   7.145
 5057POPC   C4B64414   2.771  29.571   7.568
 5058POPC   NC364415  42.679  43.822   5.427
 5058POPC   PO464416  42.091  44.257   5.398
 5058POPC   GL164417  42.308  44.017   5.756
 5058POPC   GL264418  42.453  43.686   5.867
 5058POPC   C1A64419  42.467  44.099   6.175
 5058POPC   D2A64420  42.352  44.162   6.576
 5058POPC   C3A64421  42.619  43.982   6.880
 5058POPC   C4A64422  42.319  44.083   7.162
 5058POPC   C1B64423  42.157  43.674   6.210
 5058POPC   C2B64424  42.335  43.641   6.620
 5058POPC   C3B64425  42.287  43.572   7.060
 5058POPC   C4B64426  42.448  43.713   7.506
 5059POPC   NC364427  11.898  24.722   5.529
 5059POPC   PO464428  12.360  24.239   5.420
 5059POPC   GL164429  12.318  24.466   5.854
 5059POPC   GL264430  11.990  24.418   5.924
 5059POPC   C1A64431  12.237  24.429   6.357
 5059POPC   D2A64432  12.390  24.567   6.774
 5059POPC   C3A64433  12.286  24.416   7.200
 5059POPC   C4A64434  12.297  24.213   7.662
 5059POPC   C1B64435  11.723  24.540   6.256
 5059POPC   C2B64436  11.660  24.553   6.708
 5059POPC   C3B64437  11.798  24.538   7.158
 5059POPC   C4B64438  11.796  24.284   7.549
 5060POPC   NC364439   9.132   8.803   5.501
 5060POPC   PO464440   8.539   9.059   5.319
 5060POPC   GL164441   8.573   9.223   5.737
 5060POPC   GL264442   8.849   9.033   5.883
 5060POPC   C1A64443   8.481   9.248   6.189
 5060POPC   D2A64444   8.751   9.004   6.505
 5060POPC   C3A64445   8.678   9.084   6.946
 5060POPC   C4A64446   8.496   8.809   7.251
 5060POPC   C1B64447   9.132   8.800   6.173
 5060POPC   C2B64448   9.299   8.923   6.544
 5060POPC   C3B64449   9.136   8.840   6.947
 5060POPC   C4B64450   9.104   9.199   7.221
 5061POPC   NC364451  23.863  10.704   5.571
 5061POPC   PO464452  23.412  10.204   5.372
 5061POPC   GL164453  23.661  10.285   5.771
 5061POPC   GL264454  24.015  10.189   5.682
 5061POPC   C1A64455  23.851  10.463   6.185
 5061POPC   D2A64456  23.601  10.519   6.583
 5061POPC   C3A64457  23.718  10.630   7.024
 5061POPC   C4A64458  23.594  10.625   7.474
 5061POPC   C1B64459  24.070   9.948   6.071
 5061POPC   C2B64460  24.112  10.079   6.494
 5061POPC   C3B64461  23.915  10.152   6.890
 5061POPC   C4B64462  23.940  10.241   7.331
 5062POPC   NC364463   2.879  37.907   5.361
 5062POPC   PO464464   2.373  37.498   5.329
 5062POPC   GL164465   2.516  37.748   5.687
 5062POPC   GL264466   2.899  37.731   5.829
 5062POPC   C1A64467   2.541  38.023   6.054
 5062POPC   D2A64468   2.430  38.146   6.484
 5062POPC   C3A64469   2.592  37.848   6.799
 5062POPC   C4A64470   2.667  37.718   7.251
 5062POPC   C1B64471   3.041  37.565   6.254
 5062POPC   C2B64472   2.989  37.533   6.712
 5062POPC   C3B64473   3.059  37.379   7.138
 5062POPC   C4B64474   2.903  37.285   7.557
 5063POPC   NC364475  36.611  11.514   5.451
 5063POPC   PO464476  37.111  11.084   5.561
 5063POPC   GL164477  36.960  11.142   5.954
 5063POPC   GL264478  36.837  11.465   5.901
 5063POPC   C1A64479  37.008  11.341   6.342
 5063POPC   D2A64480  36.897  11.483   6.679
 5063POPC   C3A64481  36.858  11.184   7.011
 5063POPC   C4A64482  36.961  11.149   7.421
 5063POPC   C1B64483  36.623  11.713   6.262
 5063POPC   C2B64484  36.397  11.652   6.610
 5063POPC   C3B64485  36.536  11.596   6.991
 5063POPC   C4B64486  36.768  11.638   7.320
 5064POPC   NC364487  23.506  40.958   5.406
 5064POPC   PO464488  23.911  40.483   5.165
 5064POPC   GL164489  23.959  40.836   5.581
 5064POPC   GL264490  23.656  40.666   5.813
 5064POPC   C1A64491  23.945  41.008   6.064
 5064POPC   D2A64492  23.822  41.129   6.545
 5064POPC   C3A64493  23.656  40.867   6.945
 5064POPC   C4A64494  23.677  40.806   7.409
 5064POPC   C1B64495  23.704  40.527   6.277
 5064POPC   C2B64496  23.987  40.569   6.662
 5064POPC   C3B64497  24.054  40.556   7.130
 5064POPC   C4B64498  23.962  40.424   7.571
 5065POPC   NC364499  11.258  29.378   5.325
 5065POPC   PO464500  11.553  28.745   5.453
 5065POPC   GL164501  11.640  29.176   5.685
 5065POPC   GL264502  11.350  29.427   5.823
 5065POPC   C1A64503  11.744  29.273   6.128
 5065POPC   D2A64504  11.733  29.092   6.563
 5065POPC   C3A64505  11.509  29.349   6.880
 5065POPC   C4A64506  11.499  29.345   7.323
 5065POPC   C1B64507  11.008  29.441   6.170
 5065POPC   C2B64508  10.888  29.386   6.629
 5065POPC   C3B64509  11.032  29.295   7.074
 5065POPC   C4B64510  11.245  28.914   7.198
 5066POPC   NC364511  19.385  27.709   5.194
 5066POPC   PO464512  19.770  27.172   5.444
 5066POPC   GL164513  19.599  27.406   5.784
 5066POPC   GL264514  19.542  27.753   5.890
 5066POPC   C1A64515  19.754  27.433   6.214
 5066POPC   D2A64516  20.123  27.532   6.485
 5066POPC   C3A64517  20.099  27.453   6.931
 5066POPC   C4A64518  19.737  27.431   7.184
 5066POPC   C1B64519  19.940  27.910   6.138
 5066POPC   C2B64520  20.065  28.066   6.542
 5066POPC   C3B64521  19.873  27.935   6.918
 5066POPC   C4B64522  20.128  27.920   7.238
 5067POPC   NC364523  39.817  10.900   5.515
 5067POPC   PO464524  40.104  10.298   5.490
 5067POPC   GL164525  40.048  10.543   5.816
 5067POPC   GL264526  39.676  10.526   5.874
 5067POPC   C1A64527  40.124  10.401   6.217
 5067POPC   D2A64528  39.921  10.479   6.599
 5067POPC   C3A64529  40.203  10.424   6.916
 5067POPC   C4A64530  40.298  10.294   7.314
 5067POPC   C1B64531  39.588  10.896   6.147
 5067POPC   C2B64532  39.669  11.037   6.561
 5067POPC   C3B64533  39.710  10.832   6.940
 5067POPC   C4B64534  39.885  10.609   7.271
 5068POPC   NC364535  17.606  27.023   5.390
 5068POPC   PO464536  17.835  26.367   5.449
 5068POPC   GL164537  17.609  26.672   5.778
 5068POPC   GL264538  17.407  26.962   5.861
 5068POPC   C1A64539  17.533  26.591   6.226
 5068POPC   D2A64540  17.467  26.419   6.623
 5068POPC   C3A64541  17.525  26.705   6.944
 5068POPC   C4A64542  17.304  26.973   7.189
 5068POPC   C1B64543  17.439  27.100   6.294
 5068POPC   C2B64544  17.652  27.101   6.677
 5068POPC   C3B64545  17.640  27.353   7.058
 5068POPC   C4B64546  17.466  27.338   7.485
 5069POPC   NC364547  39.224  21.040   5.391
 5069POPC   PO464548  39.149  21.611   5.653
 5069POPC   GL164549  39.187  21.233   5.877
 5069POPC   GL264550  39.511  21.035   5.818
 5069POPC   C1A64551  39.241  21.313   6.296
 5069POPC   D2A64552  39.062  21.320   6.684
 5069POPC   C3A64553  39.296  21.445   7.036
 5069POPC   C4A64554  39.078  21.752   7.247
 5069POPC   C1B64555  39.608  20.960   6.246
 5069POPC   C2B64556  39.406  20.940   6.639
 5069POPC   C3B64557  39.624  21.041   7.013
 5069POPC   C4B64558  39.800  21.219   7.391
 5070POPC   NC364559  21.621  30.159   5.033
 5070POPC   PO464560  21.217  29.778   5.396
 5070POPC   GL164561  21.218  30.017   5.804
 5070POPC   GL264562  21.498  30.299   5.815
 5070POPC   C1A64563  21.044  29.969   6.236
 5070POPC   D2A64564  21.294  29.835   6.628
 5070POPC   C3A64565  21.126  29.947   7.013
 5070POPC   C4A64566  20.800  29.759   7.194
 5070POPC   C1B64567  21.541  30.061   6.228
 5070POPC   C2B64568  21.637  30.225   6.648
 5070POPC   C3B64569  21.511  30.253   7.102
 5070POPC   C4B64570  21.562  29.908   7.423
 5071POPC   NC364571  25.136  23.430   5.404
 5071POPC   PO464572  25.628  23.016   5.388
 5071POPC   GL164573  25.342  23.090   5.732
 5071POPC   GL264574  25.078  22.851   5.604
 5071POPC   C1A64575  25.211  23.294   6.144
 5071POPC   D2A64576  24.965  23.243   6.556
 5071POPC   C3A64577  25.183  23.238   6.935
 5071POPC   C4A64578  25.201  23.085   7.321
 5071POPC   C1B64579  25.103  22.811   6.084
 5071POPC   C2B64580  25.133  22.749   6.538
 5071POPC   C3B64581  24.991  22.735   6.962
 5071POPC   C4B64582  24.966  22.449   7.311
 5072POPC   NC364583   2.961  27.906   5.504
 5072POPC   PO464584   2.896  28.549   5.385
 5072POPC   GL164585   2.744  28.378   5.800
 5072POPC   GL264586   2.741  28.056   5.927
 5072POPC   C1A64587   2.884  28.416   6.241
 5072POPC   D2A64588   3.154  28.366   6.579
 5072POPC   C3A64589   2.888  28.480   6.909
 5072POPC   C4A64590   2.875  28.315   7.270
 5072POPC   C1B64591   2.430  28.107   6.232
 5072POPC   C2B64592   2.211  28.220   6.560
 5072POPC   C3B64593   2.440  28.164   6.929
 5072POPC   C4B64594   2.395  28.461   7.184
 5073POPC   NC364595  18.883  25.383   5.423
 5073POPC   PO464596  18.224  25.441   5.415
 5073POPC   GL164597  18.201  25.494   5.832
 5073POPC   GL264598  18.514  25.652   5.814
 5073POPC   C1A64599  18.069  25.301   6.245
 5073POPC   D2A64600  18.235  25.387   6.686
 5073POPC   C3A64601  18.057  25.123   7.035
 5073POPC   C4A64602  18.081  25.118   7.481
 5073POPC   C1B64603  18.527  25.530   6.243
 5073POPC   C2B64604  18.727  25.586   6.654
 5073POPC   C3B64605  18.541  25.704   6.965
 5073POPC   C4B64606  18.285  25.531   7.257
 5074POPC   NC364607  43.309  36.292   5.014
 5074POPC   PO464608  42.925  36.207   5.619
 5074POPC   GL164609  43.182  36.022   5.883
 5074POPC   GL264610  42.972  35.811   6.055
 5074POPC   C1A64611  43.213  36.161   6.325
 5074POPC   D2A64612  42.973  36.341   6.662
 5074POPC   C3A64613  43.097  36.275   7.075
 5074POPC   C4A64614  43.189  35.830   7.154
 5074POPC   C1B64615  42.690  36.005   6.358
 5074POPC   C2B64616  42.506  35.897   6.756
 5074POPC   C3B64617  42.634  36.018   7.176
 5074POPC   C4B64618  42.874  36.149   7.522
 5075POPC   NC364619  14.832  34.428   5.355
 5075POPC   PO464620  14.271  34.893   5.433
 5075POPC   GL164621  14.301  34.760   5.861
 5075POPC   GL264622  14.491  34.466   5.765
 5075POPC   C1A64623  14.413  34.875   6.302
 5075POPC   D2A64624  14.575  34.704   6.704
 5075POPC   C3A64625  14.416  34.857   7.102
 5075POPC   C4A64626  14.533  34.944   7.549
 5075POPC   C1B64627  14.472  34.365   6.210
 5075POPC   C2B64628  14.294  34.272   6.594
 5075POPC   C3B64629  14.269  34.358   7.029
 5075POPC   C4B64630  14.165  34.034   7.297
 5076POPC   NC364631  29.548  39.559   5.721
 5076POPC   PO464632  29.713  40.166   5.401
 5076POPC   GL164633  29.782  40.289   5.805
 5076POPC   GL264634  29.884  39.929   5.844
 5076POPC   C1A64635  29.993  40.247   6.211
 5076POPC   D2A64636  29.830  40.033   6.566
 5076POPC   C3A64637  29.777  40.338   6.882
 5076POPC   C4A64638  29.872  40.347   7.300
 5076POPC   C1B64639  30.183  39.726   6.136
 5076POPC   C2B64640  30.227  39.626   6.581
 5076POPC   C3B64641  30.088  39.864   6.986
 5076POPC   C4B64642  29.680  39.866   7.186
 5077POPC   NC364643   5.994  14.738   5.422
 5077POPC   PO464644   5.635  14.155   5.503
 5077POPC   GL164645   5.935  14.329   5.796
 5077POPC   GL264646   6.054  13.962   5.793
 5077POPC   C1A64647   5.839  14.535   6.237
 5077POPC   D2A64648   5.634  14.515   6.661
 5077POPC   C3A64649   5.850  14.641   7.058
 5077POPC   C4A64650   6.201  14.434   7.235
 5077POPC   C1B64651   5.759  14.004   6.155
 5077POPC   C2B64652   5.846  14.031   6.574
 5077POPC   C3B64653   5.740  14.126   6.991
 5077POPC   C4B64654   5.421  13.947   7.266
 5078POPC   NC364655  14.439  43.034   5.406
 5078POPC   PO464656  14.063  43.675   5.354
 5078POPC   GL164657  14.065  43.299   5.723
 5078POPC   GL264658  14.214  42.924   5.837
 5078POPC   C1A64659  14.264  43.277   6.183
 5078POPC   D2A64660  14.206  43.114   6.574
 5078POPC   C3A64661  14.241  43.400   6.903
 5078POPC   C4A64662  14.290  43.244   7.284
 5078POPC   C1B64663  14.614  42.832   6.043
 5078POPC   C2B64664  14.689  42.862   6.499
 5078POPC   C3B64665  14.522  42.908   6.924
 5078POPC   C4B64666  14.714  42.910   7.328
 5079POPC   NC364667  10.328  24.618   5.383
 5079POPC   PO464668  10.403  23.973   5.496
 5079POPC   GL164669  10.517  24.347   5.762
 5079POPC   GL264670  10.341  24.174   5.974
 5079POPC   C1A64671  10.330  24.651   6.106
 5079POPC   D2A64672  10.230  24.468   6.506
 5079POPC   C3A64673  10.277  24.677   6.913
 5079POPC   C4A64674  10.491  24.638   7.318
 5079POPC   C1B64675  10.700  24.204   6.215
 5079POPC   C2B64676  10.630  24.115   6.620
 5079POPC   C3B64677  10.540  24.244   6.996
 5079POPC   C4B64678  10.785  24.181   7.343
 5080POPC   NC364679  38.617   8.022   5.138
 5080POPC   PO464680  38.174   8.464   5.407
 5080POPC   GL164681  38.507   8.382   5.759
 5080POPC   GL264682  38.663   8.030   5.793
 5080POPC   C1A64683  38.586   8.316   6.231
 5080POPC   D2A64684  38.395   8.317   6.662
 5080POPC   C3A64685  38.548   8.464   7.121
 5080POPC   C4A64686  38.362   8.461   7.596
 5080POPC   C1B64687  38.902   7.895   6.194
 5080POPC   C2B64688  38.762   7.804   6.650
 5080POPC   C3B64689  38.496   7.964   7.010
 5080POPC   C4B64690  38.572   8.035   7.424
 5081POPC   NC364691  30.264  29.617   5.373
 5081POPC   PO464692  29.931  30.119   5.394
 5081POPC   GL164693  29.865  29.935   5.806
 5081POPC   GL264694  30.146  29.685   5.876
 5081POPC   C1A64695  29.723  30.145   6.182
 5081POPC   D2A64696  29.425  30.329   6.436
 5081POPC   C3A64697  29.523  30.153   6.836
 5081POPC   C4A64698  29.739  29.937   7.150
 5081POPC   C1B64699  30.196  29.969   6.250
 5081POPC   C2B64700  29.968  29.945   6.643
 5081POPC   C3B64701  30.054  29.601   6.909
 5081POPC   C4B64702  30.347  29.532   7.235
 5082POPC   NC364703  35.687   5.361   5.401
 5082POPC   PO464704  35.077   5.167   5.483
 5082POPC   GL164705  35.383   5.065   5.754
 5082POPC   GL264706  35.733   4.933   5.666
 5082POPC   C1A64707  35.278   5.129   6.173
 5082POPC   D2A64708  35.121   4.931   6.549
 5082POPC   C3A64709  35.162   5.188   6.879
 5082POPC   C4A64710  35.236   5.148   7.268
 5082POPC   C1B64711  35.786   5.134   6.072
 5082POPC   C2B64712  35.636   5.025   6.517
 5082POPC   C3B64713  35.609   4.925   6.946
 5082POPC   C4B64714  35.598   4.679   7.363
 5083POPC   NC364715   8.150  33.973   5.410
 5083POPC   PO464716   7.967  33.330   5.567
 5083POPC   GL164717   8.043  33.662   5.841
 5083POPC   GL264718   8.396  33.683   5.883
 5083POPC   C1A64719   8.047  33.705   6.286
 5083POPC   D2A64720   8.027  34.068   6.597
 5083POPC   C3A64721   8.056  33.879   7.009
 5083POPC   C4A64722   7.955  33.433   6.990
 5083POPC   C1B64723   8.490  33.952   6.291
 5083POPC   C2B64724   8.529  33.970   6.767
 5083POPC   C3B64725   8.550  34.041   7.229
 5083POPC   C4B64726   8.564  34.184   7.715
 5084POPC   NC364727  34.274  38.561   5.514
 5084POPC   PO464728  34.900  38.450   5.319
 5084POPC   GL164729  34.752  38.336   5.755
 5084POPC   GL264730  34.446  38.086   5.786
 5084POPC   C1A64731  34.747  38.497   6.192
 5084POPC   D2A64732  34.847  38.602   6.612
 5084POPC   C3A64733  34.605  38.422   6.940
 5084POPC   C4A64734  34.705  38.438   7.368
 5084POPC   C1B64735  34.251  38.332   6.151
 5084POPC   C2B64736  34.141  38.357   6.603
 5084POPC   C3B64737  34.194  38.089   6.986
 5084POPC   C4B64738  34.589  37.968   7.227
 5085POPC   NC364739  12.680  31.142   5.337
 5085POPC   PO464740  12.810  31.772   5.440
 5085POPC   GL164741  12.916  31.427   5.706
 5085POPC   GL264742  13.255  31.338   5.652
 5085POPC   C1A64743  12.726  31.313   6.096
 5085POPC   D2A64744  12.531  31.562   6.460
 5085POPC   C3A64745  12.422  31.396   6.869
 5085POPC   C4A64746  12.583  31.318   7.269
 5085POPC   C1B64747  13.257  31.540   6.072
 5085POPC   C2B64748  13.044  31.461   6.455
 5085POPC   C3B64749  12.939  31.285   6.833
 5085POPC   C4B64750  13.204  31.303   7.165
 5086POPC   NC364751  29.638  34.922   5.685
 5086POPC   PO464752  29.162  34.761   5.218
 5086POPC   GL164753  29.143  34.753   5.727
 5086POPC   GL264754  28.929  34.936   5.963
 5086POPC   C1A64755  29.288  34.660   6.217
 5086POPC   D2A64756  29.174  34.484   6.661
 5086POPC   C3A64757  29.448  34.536   7.049
 5086POPC   C4A64758  29.320  34.607   7.508
 5086POPC   C1B64759  28.850  34.925   6.414
 5086POPC   C2B64760  28.895  34.937   6.876
 5086POPC   C3B64761  28.959  34.583   7.156
 5086POPC   C4B64762  28.762  34.566   7.588
 5087POPC   NC364763   3.913   5.001   5.464
 5087POPC   PO464764   4.683   4.926   5.512
 5087POPC   GL164765   4.511   4.781   5.930
 5087POPC   GL264766   4.186   4.762   5.821
 5087POPC   C1A64767   4.520   4.815   6.392
 5087POPC   D2A64768   4.402   5.232   6.575
 5087POPC   C3A64769   4.454   5.233   7.018
 5087POPC   C4A64770   4.576   4.841   7.237
 5087POPC   C1B64771   4.090   4.976   6.196
 5087POPC   C2B64772   4.020   4.765   6.561
 5087POPC   C3B64773   4.199   4.792   6.905
 5087POPC   C4B64774   4.054   4.958   7.267
 5088POPC   NC364775  38.937  40.333   5.414
 5088POPC   PO464776  39.356  40.866   5.334
 5088POPC   GL164777  39.221  40.953   5.804
 5088POPC   GL264778  38.865  41.107   5.822
 5088POPC   C1A64779  39.362  41.096   6.256
 5088POPC   D2A64780  39.356  41.145   6.723
 5088POPC   C3A64781  39.315  40.759   6.964
 5088POPC   C4A64782  39.473  40.375   7.091
 5088POPC   C1B64783  38.894  40.905   6.208
 5088POPC   C2B64784  38.965  40.822   6.594
 5088POPC   C3B64785  38.804  40.946   6.961
 5088POPC   C4B64786  38.861  40.857   7.371
 5089POPC   NC364787  36.683  42.441   5.316
 5089POPC   PO464788  37.034  41.961   5.462
 5089POPC   GL164789  36.815  42.174   5.782
 5089POPC   GL264790  36.792  42.535   5.814
 5089POPC   C1A64791  36.986  42.251   6.216
 5089POPC   D2A64792  36.835  42.192   6.619
 5089POPC   C3A64793  37.036  42.251   7.019
 5089POPC   C4A64794  36.980  42.180   7.459
 5089POPC   C1B64795  36.710  42.699   6.249
 5089POPC   C2B64796  36.846  42.758   6.665
 5089POPC   C3B64797  36.760  42.725   7.094
 5089POPC   C4B64798  36.901  42.702   7.485
 5090POPC   NC364799  12.345  10.784   5.463
 5090POPC   PO464800  11.772  10.478   5.514
 5090POPC   GL164801  12.086  10.502   5.860
 5090POPC   GL264802  12.376  10.272   5.823
 5090POPC   C1A64803  12.062  10.707   6.287
 5090POPC   D2A64804  11.798  10.647   6.680
 5090POPC   C3A64805  11.999  10.668   7.082
 5090POPC   C4A64806  11.953  10.295   7.334
 5090POPC   C1B64807  12.472  10.363   6.241
 5090POPC   C2B64808  12.381  10.512   6.653
 5090POPC   C3B64809  12.366  10.320   7.029
 5090POPC   C4B64810  12.409  10.502   7.413
 5091POPC   NC364811  25.229  11.791   5.407
 5091POPC   PO464812  24.832  11.241   5.383
 5091POPC   GL164813  25.093  11.211   5.787
 5091POPC   GL264814  25.224  11.503   5.904
 5091POPC   C1A64815  25.304  11.075   6.174
 5091POPC   D2A64816  25.081  11.197   6.543
 5091POPC   C3A64817  25.182  11.156   6.976
 5091POPC   C4A64818  25.203  11.401   7.384
 5091POPC   C1B64819  25.419  11.559   6.323
 5091POPC   C2B64820  25.429  11.561   6.779
 5091POPC   C3B64821  25.641  11.351   7.138
 5091POPC   C4B64822  25.658  11.371   7.627
 5092POPC   NC364823   6.266  16.822   5.478
 5092POPC   PO464824   5.731  17.274   5.558
 5092POPC   GL164825   5.763  17.032   5.958
 5092POPC   GL264826   5.854  16.703   5.875
 5092POPC   C1A64827   5.973  16.885   6.345
 5092POPC   D2A64828   6.133  17.011   6.731
 5092POPC   C3A64829   5.974  16.857   7.116
 5092POPC   C4A64830   6.146  16.465   7.282
 5092POPC   C1B64831   5.569  16.598   6.242
 5092POPC   C2B64832   5.621  16.674   6.725
 5092POPC   C3B64833   5.568  16.512   7.201
 5092POPC   C4B64834   5.366  16.459   7.677
 5093POPC   NC364835  37.408   3.992   5.533
 5093POPC   PO464836  37.871   3.563   5.276
 5093POPC   GL164837  37.612   3.453   5.708
 5093POPC   GL264838  37.462   3.709   5.927
 5093POPC   C1A64839  37.489   3.276   6.153
 5093POPC   D2A64840  37.644   3.276   6.578
 5093POPC   C3A64841  37.485   3.276   6.998
 5093POPC   C4A64842  37.532   3.024   7.360
 5093POPC   C1B64843  37.626   3.752   6.314
 5093POPC   C2B64844  37.443   3.742   6.716
 5093POPC   C3B64845  37.506   3.748   7.146
 5093POPC   C4B64846  37.602   3.522   7.522
 5094POPC   NC364847  31.624  40.507   5.629
 5094POPC   PO464848  31.249  41.052   5.488
 5094POPC   GL164849  31.491  40.941   5.879
 5094POPC   GL264850  31.791  40.941   6.024
 5094POPC   C1A64851  31.400  40.674   6.256
 5094POPC   D2A64852  31.176  40.540   6.634
 5094POPC   C3A64853  31.306  40.816   6.949
 5094POPC   C4A64854  31.264  41.051   7.307
 5094POPC   C1B64855  31.956  40.555   6.218
 5094POPC   C2B64856  31.939  40.385   6.652
 5094POPC   C3B64857  31.846  40.711   6.943
 5094POPC   C4B64858  31.671  40.776   7.316
 5095POPC   NC364859  19.596  15.342   5.553
 5095POPC   PO464860  20.148  15.112   5.249
 5095POPC   GL164861  20.055  15.150   5.731
 5095POPC   GL264862  20.254  15.371   5.966
 5095POPC   C1A64863  19.793  15.174   6.144
 5095POPC   D2A64864  19.660  15.378   6.548
 5095POPC   C3A64865  19.616  15.178   6.981
 5095POPC   C4A64866  19.644  15.184   7.454
 5095POPC   C1B64867  20.127  15.498   6.376
 5095POPC   C2B64868  20.129  15.247   6.771
 5095POPC   C3B64869  20.082  15.098   7.202
 5095POPC   C4B64870  20.044  14.906   7.621
 5096POPC   NC364871  13.322   6.375   5.511
 5096POPC   PO464872  13.627   6.821   5.169
 5096POPC   GL164873  13.701   6.681   5.727
 5096POPC   GL264874  13.455   6.550   5.947
 5096POPC   C1A64875  13.767   6.829   6.213
 5096POPC   D2A64876  13.925   6.740   6.672
 5096POPC   C3A64877  13.721   6.885   7.062
 5096POPC   C4A64878  13.706   6.939   7.545
 5096POPC   C1B64879  13.184   6.693   6.219
 5096POPC   C2B64880  13.193   6.463   6.548
 5096POPC   C3B64881  13.488   6.458   6.855
 5096POPC   C4B64882  13.500   6.496   7.295
 5097POPC   NC364883  43.410  19.673   5.339
 5097POPC   PO464884  43.036  20.220   5.448
 5097POPC   GL164885  43.049  19.861   5.713
 5097POPC   GL264886  43.371  19.856   5.826
 5097POPC   C1A64887  42.939  19.577   6.068
 5097POPC   D2A64888  42.716  19.552   6.495
 5097POPC   C3A64889  42.972  19.810   6.806
 5097POPC   C4A64890  42.997  19.824   7.271
 5097POPC   C1B64891  43.448  19.519   6.159
 5097POPC   C2B64892  43.613  19.547   6.587
 5097POPC   C3B64893  43.418  19.631   7.001
 5097POPC   C4B64894  43.495  19.978   7.329
 5098POPC   NC364895  19.285  23.796   5.311
 5098POPC   PO464896  18.818  23.475   5.674
 5098POPC   GL164897  19.244  23.581   5.801
 5098POPC   GL264898  19.356  23.937   5.868
 5098POPC   C1A64899  19.277  23.401   6.206
 5098POPC   D2A64900  19.311  23.608   6.609
 5098POPC   C3A64901  19.353  23.436   7.024
 5098POPC   C4A64902  19.324  23.763   7.318
 5098POPC   C1B64903  19.075  23.877   6.220
 5098POPC   C2B64904  18.868  23.999   6.612
 5098POPC   C3B64905  18.893  23.814   7.030
 5098POPC   C4B64906  18.831  23.925   7.463
 5099POPC   NC364907  24.051   8.031   5.323
 5099POPC   PO464908  23.537   8.472   5.280
 5099POPC   GL164909  23.776   8.351   5.684
 5099POPC   GL264910  23.505   8.222   5.922
 5099POPC   C1A64911  23.947   8.407   6.136
 5099POPC   D2A64912  23.688   8.333   6.524
 5099POPC   C3A64913  23.881   8.192   6.911
 5099POPC   C4A64914  24.073   8.402   7.245
 5099POPC   C1B64915  23.546   7.912   6.251
 5099POPC   C2B64916  23.439   7.915   6.680
 5099POPC   C3B64917  23.396   8.190   7.030
 5099POPC   C4B64918  23.570   7.859   7.221
 5100POPC   NC364919  28.584  12.148   5.350
 5100POPC   PO464920  27.986  11.818   5.455
 5100POPC   GL164921  28.323  11.949   5.739
 5100POPC   GL264922  28.586  11.708   5.646
 5100POPC   C1A64923  28.409  12.198   6.116
 5100POPC   D2A64924  28.284  12.202   6.565
 5100POPC   C3A64925  28.565  12.329   6.924
 5100POPC   C4A64926  28.400  12.406   7.365
 5100POPC   C1B64927  28.679  11.721   6.073
 5100POPC   C2B64928  28.731  11.947   6.454
 5100POPC   C3B64929  28.528  11.817   6.828
 5100POPC   C4B64930  28.607  11.920   7.255
 5101POPC   NC364931  20.939   7.486   5.470
 5101POPC   PO464932  20.529   6.939   5.491
 5101POPC   GL164933  20.574   7.218   5.875
 5101POPC   GL264934  20.876   7.447   5.972
 5101POPC   C1A64935  20.683   7.117   6.325
 5101POPC   D2A64936  20.924   7.190   6.703
 5101POPC   C3A64937  20.695   7.191   7.081
 5101POPC   C4A64938  20.505   7.162   7.511
 5101POPC   C1B64939  20.865   7.624   6.404
 5101POPC   C2B64940  20.647   7.631   6.802
 5101POPC   C3B64941  20.615   7.658   7.246
 5101POPC   C4B64942  20.660   7.618   7.712
 5102POPC   NC364943  42.416  41.838   5.428
 5102POPC   PO464944  42.130  42.440   5.566
 5102POPC   GL164945  42.178  42.288   5.965
 5102POPC   GL264946  42.376  42.002   5.906
 5102POPC   C1A64947  42.223  42.194   6.403
 5102POPC   D2A64948  42.119  42.009   6.781
 5102POPC   C3A64949  41.932  42.404   6.872
 5102POPC   C4A64950  42.088  42.613   7.234
 5102POPC   C1B64951  42.692  42.206   6.150
 5102POPC   C2B64952  42.736  42.340   6.579
 5102POPC   C3B64953  42.618  42.131   6.958
 5102POPC   C4B64954  42.437  42.166   7.363
 5103POPC   NC364955   9.211  38.777   5.486
 5103POPC   PO464956   8.889  38.245   5.191
 5103POPC   GL164957   9.006  38.273   5.632
 5103POPC   GL264958   8.773  38.061   5.782
 5103POPC   C1A64959   9.128  38.482   6.050
 5103POPC   D2A64960   9.082  38.763   6.412
 5103POPC   C3A64961   9.005  38.509   6.776
 5103POPC   C4A64962   9.018  38.605   7.189
 5103POPC   C1B64963   8.489  37.943   6.099
 5103POPC   C2B64964   8.647  37.893   6.501
 5103POPC   C3B64965   8.540  37.990   6.931
 5103POPC   C4B64966   8.785  38.172   7.254
 5104POPC   NC364967   0.547  23.226   5.343
 5104POPC   PO464968   0.371  22.630   5.370
 5104POPC   GL164969   0.419  22.811   5.725
 5104POPC   GL264970   0.736  22.951   5.839
 5104POPC   C1A64971   0.315  22.813   6.133
 5104POPC   D2A64972   0.592  22.925   6.437
 5104POPC   C3A64973   0.425  22.763   6.789
 5104POPC   C4A64974   0.375  22.762   7.190
 5104POPC   C1B64975   0.487  23.295   6.047
 5104POPC   C2B64976   0.240  23.305   6.448
 5104POPC   C3B64977   0.346  23.264   6.907
 5104POPC   C4B64978   0.622  23.267   7.272
 5105POPC   NC364979  24.938  43.795   5.466
 5105POPC   PO464980  24.196  43.766   5.354
 5105POPC   GL164981  24.389  43.801   5.792
 5105POPC   GL264982  24.693  43.526   5.819
 5105POPC   C1A64983  24.288  44.107   6.186
 5105POPC   D2A64984  24.288  44.272   6.643
 5105POPC   C3A64985  24.171  43.929   6.945
 5105POPC   C4A64986  24.267  43.492   7.105
 5105POPC   C1B64987  24.688  43.751   6.190
 5105POPC   C2B64988  24.510  43.752   6.581
 5105POPC   C3B64989  24.697  43.973   6.902
 5105POPC   C4B64990  24.622  44.080   7.311
 5106POPC   NC364991  31.045  30.228   5.505
 5106POPC   PO464992  30.757  29.526   5.419
 5106POPC   GL164993  30.603  29.887   5.715
 5106POPC   GL264994  30.338  30.164   5.798
 5106POPC   C1A64995  30.691  29.822   6.158
 5106POPC   D2A64996  30.722  29.551   6.527
 5106POPC   C3A64997  30.652  29.793   6.879
 5106POPC   C4A64998  30.762  30.046   7.201
 5106POPC   C1B64999  30.620  30.322   6.152
 5106POPC   C2B65000  30.766  30.351   6.613
 5106POPC   C3B65001  30.537  30.434   7.008
 5106POPC   C4B65002  30.259  30.047   7.103
 5107POPC   NC365003  14.552   3.428   5.539
 5107POPC   PO465004  14.111   3.774   5.315
 5107POPC   GL165005  14.182   3.674   5.761
 5107POPC   GL265006  14.552   3.789   5.865
 5107POPC   C1A65007  14.242   3.480   6.164
 5107POPC   D2A65008  14.208   3.572   6.602
 5107POPC   C3A65009  14.278   3.289   6.952
 5107POPC   C4A65010  14.204   3.460   7.375
 5107POPC   C1B65011  14.756   3.571   6.224
 5107POPC   C2B65012  14.758   3.382   6.657
 5107POPC   C3B65013  14.713   3.489   7.114
 5107POPC   C4B65014  14.779   3.569   7.552
 5108POPC   NC365015  33.503  29.620   5.589
 5108POPC   PO465016  33.858  30.214   5.601
 5108POPC   GL165017  33.727  30.011   5.946
 5108POPC   GL265018  33.880  29.702   5.950
 5108POPC   C1A65019  33.860  30.047   6.363
 5108POPC   D2A65020  34.041  29.884   6.736
 5108POPC   C3A65021  33.780  30.007   7.095
 5108POPC   C4A65022  33.763  29.862   7.515
 5108POPC   C1B65023  33.679  29.561   6.335
 5108POPC   C2B65024  33.537  29.700   6.757
 5108POPC   C3B65025  33.454  29.577   7.199
 5108POPC   C4B65026  33.526  29.404   7.635
 5109POPC   NC365027  14.545  14.067   5.448
 5109POPC   PO465028  14.618  14.743   5.405
 5109POPC   GL165029  14.446  14.494   5.782
 5109POPC   GL265030  14.376  14.129   5.910
 5109POPC   C1A65031  14.312  14.605   6.199
 5109POPC   D2A65032  14.455  14.815   6.587
 5109POPC   C3A65033  14.404  14.628   7.006
 5109POPC   C4A65034  14.468  14.435   7.447
 5109POPC   C1B65035  14.114  14.123   6.252
 5109POPC   C2B65036  14.126  14.342   6.655
 5109POPC   C3B65037  14.138  14.210   7.088
 5109POPC   C4B65038  14.239  13.923   7.433
 5110POPC   NC365039  19.964  24.110   5.478
 5110POPC   PO465040  19.721  23.450   5.294
 5110POPC   GL165041  19.772  23.677   5.701
 5110POPC   GL265042  20.109  23.771   5.883
 5110POPC   C1A65043  19.716  23.659   6.170
 5110POPC   D2A65044  20.035  23.442   6.473
 5110POPC   C3A65045  20.070  23.634   6.911
 5110POPC   C4A65046  19.819  23.561   7.282
 5110POPC   C1B65047  20.381  24.077   6.129
 5110POPC   C2B65048  20.284  24.269   6.554
 5110POPC   C3B65049  20.122  24.154   6.978
 5110POPC   C4B65050  20.008  24.027   7.412
 5111POPC   NC365051   7.026   7.851   5.157
 5111POPC   PO465052   7.491   7.390   5.374
 5111POPC   GL165053   7.440   7.278   5.801
 5111POPC   GL265054   7.135   7.146   5.734
 5111POPC   C1A65055   7.513   7.481   6.217
 5111POPC   D2A65056   7.367   7.562   6.653
 5111POPC   C3A65057   7.705   7.612   6.965
 5111POPC   C4A65058   7.667   7.658   7.396
 5111POPC   C1B65059   7.067   7.194   6.195
 5111POPC   C2B65060   6.785   7.236   6.581
 5111POPC   C3B65061   6.982   7.303   6.981
 5111POPC   C4B65062   7.415   7.211   7.093
 5112POPC   NC365063  25.095  14.033   5.516
 5112POPC   PO465064  25.400  13.486   5.148
 5112POPC   GL165065  25.323  13.508   5.627
 5112POPC   GL265066  25.407  13.781   5.830
 5112POPC   C1A65067  25.152  13.384   6.045
 5112POPC   D2A65068  25.281  13.423   6.496
 5112POPC   C3A65069  25.015  13.553   6.857
 5112POPC   C4A65070  25.114  13.418   7.278
 5112POPC   C1B65071  25.129  13.869   6.202
 5112POPC   C2B65072  25.132  14.015   6.620
 5112POPC   C3B65073  25.331  13.980   7.031
 5112POPC   C4B65074  25.137  13.924   7.441
 5113POPC   NC365075  12.880  12.357   5.426
 5113POPC   PO465076  13.224  11.769   5.507
 5113POPC   GL165077  12.989  12.016   5.802
 5113POPC   GL265078  12.669  11.966   5.857
 5113POPC   C1A65079  12.915  12.214   6.222
 5113POPC   D2A65080  13.052  12.389   6.608
 5113POPC   C3A65081  12.848  12.182   6.961
 5113POPC   C4A65082  12.595  12.375   7.273
 5113POPC   C1B65083  12.484  11.866   6.234
 5113POPC   C2B65084  12.678  11.779   6.632
 5113POPC   C3B65085  12.473  11.653   7.003
 5113POPC   C4B65086  12.452  11.888   7.356
 5114POPC   NC365087  30.359  25.379   5.713
 5114POPC   PO465088  30.935  25.086   5.471
 5114POPC   GL165089  30.897  25.181   5.883
 5114POPC   GL265090  30.882  25.522   5.954
 5114POPC   C1A65091  30.787  25.143   6.312
 5114POPC   D2A65092  30.821  25.354   6.695
 5114POPC   C3A65093  30.820  25.069   6.998
 5114POPC   C4A65094  30.402  25.000   7.010
 5114POPC   C1B65095  30.573  25.618   6.293
 5114POPC   C2B65096  30.311  25.409   6.613
 5114POPC   C3B65097  30.451  25.522   7.014
 5114POPC   C4B65098  30.245  25.540   7.353
 5115POPC   NC365099   8.104  10.796   5.648
 5115POPC   PO465100   7.707  10.219   5.617
 5115POPC   GL165101   8.025  10.357   5.899
 5115POPC   GL265102   8.310  10.167   5.914
 5115POPC   C1A65103   8.249  10.563   6.257
 5115POPC   D2A65104   8.358  10.463   6.678
 5115POPC   C3A65105   8.023  10.588   6.973
 5115POPC   C4A65106   8.061  10.699   7.392
 5115POPC   C1B65107   8.082  10.076   6.335
 5115POPC   C2B65108   7.984  10.104   6.792
 5115POPC   C3B65109   8.161  10.180   7.241
 5115POPC   C4B65110   8.030  10.245   7.668
 5116POPC   NC365111   0.685  14.471   5.425
 5116POPC   PO465112   0.026  14.504   5.469
 5116POPC   GL165113   0.327  14.431   5.801
 5116POPC   GL265114   0.202  14.154   5.907
 5116POPC   C1A65115   0.463  14.390   6.258
 5116POPC   D2A65116   0.824  14.375   6.532
 5116POPC   C3A65117   0.781  14.200   6.941
 5116POPC   C4A65118   0.635  14.263   7.383
 5116POPC   C1B65119   0.003  14.106   6.290
 5116POPC   C2B65120  44.921  14.160   6.741
 5116POPC   C3B65121   0.234  14.265   7.067
 5116POPC   C4B65122   0.302  14.686   7.286
 5117POPC   NC365123  30.164  23.950   5.326
 5117POPC   PO465124  29.748  23.421   5.438
 5117POPC   GL165125  29.734  23.598   5.839
 5117POPC   GL265126  29.432  23.438   5.937
 5117POPC   C1A65127  29.981  23.825   6.192
 5117POPC   D2A65128  30.300  23.822   6.524
 5117POPC   C3A65129  30.109  23.917   6.918
 5117POPC   C4A65130  30.022  23.527   7.107
 5117POPC   C1B65131  29.444  23.801   6.224
 5117POPC   C2B65132  29.609  23.963   6.613
 5117POPC   C3B65133  29.591  23.806   7.030
 5117POPC   C4B65134  29.543  23.540   7.390
 5118POPC   NC365135  44.127   4.671   5.414
 5118POPC   PO465136  43.834   4.072   5.505
 5118POPC   GL165137  43.846   4.322   5.852
 5118POPC   GL265138  44.203   4.304   5.849
 5118POPC   C1A65139  43.604   4.359   6.261
 5118POPC   D2A65140  43.559   4.101   6.678
 5118POPC   C3A65141  43.534   4.262   7.141
 5118POPC   C4A65142  43.619   4.497   7.587
 5118POPC   C1B65143  44.114   4.492   6.272
 5118POPC   C2B65144  43.911   4.490   6.667
 5118POPC   C3B65145  44.019   4.317   7.018
 5118POPC   C4B65146  44.075   4.414   7.374
 5119POPC   NC365147   9.122   1.262   5.307
 5119POPC   PO465148   8.568   1.375   5.651
 5119POPC   GL165149   8.900   1.108   5.783
 5119POPC   GL265150   9.266   1.131   5.797
 5119POPC   C1A65151   8.964   1.029   6.206
 5119POPC   D2A65152   8.904   1.200   6.593
 5119POPC   C3A65153   9.091   1.103   6.972
 5119POPC   C4A65154   8.961   1.122   7.379
 5119POPC   C1B65155   9.323   1.402   6.182
 5119POPC   C2B65156   9.201   1.630   6.547
 5119POPC   C3B65157   9.341   1.540   6.923
 5119POPC   C4B65158   9.428   1.332   7.303
 5120POPC   NC365159  37.654  31.751   5.455
 5120POPC   PO465160  37.566  32.426   5.247
 5120POPC   GL165161  37.689  32.237   5.674
 5120POPC   GL265162  37.425  32.043   5.797
 5120POPC   C1A65163  37.825  32.184   6.131
 5120POPC   D2A65164  37.680  32.253   6.552
 5120POPC   C3A65165  37.804  32.096   6.942
 5120POPC   C4A65166  37.652  32.118   7.382
 5120POPC   C1B65167  37.327  32.234   6.186
 5120POPC   C2B65168  37.209  32.088   6.633
 5120POPC   C3B65169  37.338  32.326   7.030
 5120POPC   C4B65170  37.180  32.257   7.500
 5121POPC   NC365171  37.280  19.689   5.400
 5121POPC   PO465172  36.697  19.969   5.567
 5121POPC   GL165173  37.018  19.829   5.839
 5121POPC   GL265174  36.867  19.498   5.850
 5121POPC   C1A65175  37.193  19.930   6.263
 5121POPC   D2A65176  37.114  19.806   6.700
 5121POPC   C3A65177  36.695  19.843   6.893
 5121POPC   C4A65178  36.660  19.853   7.340
 5121POPC   C1B65179  36.958  19.456   6.309
 5121POPC   C2B65180  36.845  19.355   6.750
 5121POPC   C3B65181  37.009  19.525   7.154
 5121POPC   C4B65182  36.890  19.445   7.604
 5122POPC   NC365183   6.899  18.026   5.525
 5122POPC   PO465184   6.446  17.339   5.525
 5122POPC   GL165185   6.538  17.461   5.911
 5122POPC   GL265186   6.878  17.521   5.886
 5122POPC   C1A65187   6.664  17.614   6.350
 5122POPC   D2A65188   6.781  17.555   6.794
 5122POPC   C3A65189   6.488  17.643   7.146
 5122POPC   C4A65190   6.340  17.583   7.550
 5122POPC   C1B65191   6.926  17.162   6.156
 5122POPC   C2B65192   7.110  16.974   6.519
 5122POPC   C3B65193   7.075  17.156   6.920
 5122POPC   C4B65194   6.937  17.431   7.271
 5123POPC   NC365195  19.854  18.238   5.405
 5123POPC   PO465196  20.294  17.842   5.483
 5123POPC   GL165197  20.189  18.226   5.801
 5123POPC   GL265198  20.113  18.587   5.869
 5123POPC   C1A65199  19.940  18.215   6.186
 5123POPC   D2A65200  19.736  17.936   6.450
 5123POPC   C3A65201  19.736  18.057   6.864
 5123POPC   C4A65202  19.778  17.964   7.268
 5123POPC   C1B65203  19.641  18.591   6.084
 5123POPC   C2B65204  19.458  18.413   6.488
 5123POPC   C3B65205  19.492  18.500   6.939
 5123POPC   C4B65206  19.847  18.517   7.212
 5124POPC   NC365207  42.638   5.046   5.444
 5124POPC   PO465208  42.104   5.303   5.506
 5124POPC   GL165209  42.168   5.038   5.856
 5124POPC   GL265210  42.460   4.847   5.888
 5124POPC   C1A65211  41.945   4.978   6.234
 5124POPC   D2A65212  42.004   4.729   6.642
 5124POPC   C3A65213  42.227   4.944   7.026
 5124POPC   C4A65214  42.453   5.348   7.143
 5124POPC   C1B65215  42.426   4.887   6.333
 5124POPC   C2B65216  42.519   5.176   6.657
 5124POPC   C3B65217  42.751   4.983   6.965
 5124POPC   C4B65218  42.695   4.624   7.183
 5125POPC   NC365219  40.325  33.641   5.571
 5125POPC   PO465220  40.760  33.954   5.198
 5125POPC   GL165221  40.826  33.726   5.686
 5125POPC   GL265222  40.753  33.390   5.740
 5125POPC   C1A65223  40.764  33.746   6.181
 5125POPC   D2A65224  40.929  33.900   6.596
 5125POPC   C3A65225  40.664  33.961   6.967
 5125POPC   C4A65226  40.801  33.910   7.392
 5125POPC   C1B65227  41.103  33.410   6.046
 5125POPC   C2B65228  41.108  33.409   6.504
 5125POPC   C3B65229  40.914  33.497   6.927
 5125POPC   C4B65230  41.072  33.497   7.361
 5126POPC   NC365231   7.240  16.609   5.431
 5126POPC   PO465232   7.846  16.867   5.349
 5126POPC   GL165233   7.579  16.928   5.708
 5126POPC   GL265234   7.793  17.021   5.934
 5126POPC   C1A65235   7.367  16.771   6.115
 5126POPC   D2A65236   7.401  16.522   6.523
 5126POPC   C3A65237   7.306  16.685   6.920
 5126POPC   C4A65238   7.434  16.602   7.339
 5126POPC   C1B65239   7.588  17.248   6.256
 5126POPC   C2B65240   7.536  17.212   6.694
 5126POPC   C3B65241   7.712  16.972   7.044
 5126POPC   C4B65242   7.727  17.011   7.477
 5127POPC   NC365243   9.941  44.196   5.426
 5127POPC   PO465244   9.671  43.497   5.312
 5127POPC   GL165245   9.767  43.664   5.762
 5127POPC   GL265246   9.661  44.025   5.840
 5127POPC   C1A65247   9.819  43.707   6.207
 5127POPC   D2A65248   9.602  43.678   6.603
 5127POPC   C3A65249   9.907  43.697   6.928
 5127POPC   C4A65250  10.113  43.814   7.302
 5127POPC   C1B65251   9.689  44.222   6.271
 5127POPC   C2B65252   9.716  44.151   6.737
 5127POPC   C3B65253   9.490  43.948   7.117
 5127POPC   C4B65254   9.572  43.999   7.583
 5128POPC   NC365255  43.623  40.472   5.498
 5128POPC   PO465256  43.040  40.849   5.293
 5128POPC   GL165257  43.042  40.845   5.750
 5128POPC   GL265258  43.345  40.732   5.846
 5128POPC   C1A65259  42.974  40.574   6.164
 5128POPC   D2A65260  42.834  40.402   6.611
 5128POPC   C3A65261  43.050  40.600   6.970
 5128POPC   C4A65262  43.307  40.511   7.321
 5128POPC   C1B65263  43.474  40.684   6.297
 5128POPC   C2B65264  43.409  40.894   6.710
 5128POPC   C3B65265  43.622  40.862   7.123
 5128POPC   C4B65266  43.543  40.860   7.617
 5129POPC   NC365267  12.374  40.494   5.648
 5129POPC   PO465268  11.716  40.677   5.525
 5129POPC   GL165269  11.761  40.926   5.881
 5129POPC   GL265270  12.105  40.905   5.811
 5129POPC   C1A65271  11.672  40.932   6.325
 5129POPC   D2A65272  11.895  40.783   6.660
 5129POPC   C3A65273  11.933  40.962   7.014
 5129POPC   C4A65274  12.150  40.758   7.298
 5129POPC   C1B65275  12.147  40.684   6.236
 5129POPC   C2B65276  12.360  40.545   6.622
 5129POPC   C3B65277  12.543  40.436   7.018
 5129POPC   C4B65278  12.591  40.564   7.452
 5130POPC   NC365279  38.470  39.506   5.547
 5130POPC   PO465280  38.740  38.883   5.455
 5130POPC   GL165281  38.647  39.097   5.836
 5130POPC   GL265282  38.300  39.053   5.820
 5130POPC   C1A65283  38.482  39.372   6.192
 5130POPC   D2A65284  38.562  39.362   6.620
 5130POPC   C3A65285  38.288  39.398   6.954
 5130POPC   C4A65286  38.619  39.218   7.164
 5130POPC   C1B65287  38.398  38.864   6.239
 5130POPC   C2B65288  38.231  38.938   6.662
 5130POPC   C3B65289  38.206  38.928   7.117
 5130POPC   C4B65290  38.278  39.135   7.528
 5131POPC   NC365291  40.422  21.335   5.387
 5131POPC   PO465292  39.878  21.702   5.413
 5131POPC   GL165293  40.021  21.503   5.795
 5131POPC   GL265294  40.056  21.143   5.725
 5131POPC   C1A65295  39.741  21.492   6.180
 5131POPC   D2A65296  39.623  21.400   6.621
 5131POPC   C3A65297  39.856  21.528   6.974
 5131POPC   C4A65298  39.867  21.737   7.375
 5131POPC   C1B65299  40.104  21.142   6.182
 5131POPC   C2B65300  39.984  21.008   6.618
 5131POPC   C3B65301  40.150  21.115   7.025
 5131POPC   C4B65302  40.320  21.365   7.307
 5132POPC   NC365303  43.147  30.986   5.390
 5132POPC   PO465304  42.924  30.350   5.334
 5132POPC   GL165305  43.120  30.536   5.673
 5132POPC   GL265306  42.863  30.732   5.751
 5132POPC   C1A65307  43.184  30.501   6.140
 5132POPC   D2A65308  43.074  30.327   6.576
 5132POPC   C3A65309  43.248  30.443   6.992
 5132POPC   C4A65310  43.322  30.796   7.274
 5132POPC   C1B65311  42.829  30.920   6.132
 5132POPC   C2B65312  42.979  30.821   6.515
 5132POPC   C3B65313  42.857  30.759   6.903
 5132POPC   C4B65314  42.721  30.941   7.246
 5133POPC   NC365315  28.071  21.947   5.363
 5133POPC   PO465316  28.562  22.400   5.344
 5133POPC   GL165317  28.408  22.352   5.765
 5133POPC   GL265318  28.318  22.680   5.870
 5133POPC   C1A65319  28.212  22.028   6.059
 5133POPC   D2A65320  28.020  22.016   6.480
 5133POPC   C3A65321  28.029  21.907   6.926
 5133POPC   C4A65322  28.282  21.984   7.281
 5133POPC   C1B65323  28.266  22.510   6.271
 5133POPC   C2B65324  28.422  22.378   6.676
 5133POPC   C3B65325  28.419  22.447   7.126
 5133POPC   C4B65326  28.217  22.406   7.557
 5134POPC   NC365327   0.021  20.613   5.411
 5134POPC   PO465328  44.384  20.510   5.265
 5134POPC   GL165329  44.655  20.293   5.641
 5134POPC   GL265330   0.014  20.253   5.769
 5134POPC   C1A65331  44.631  20.264   6.120
 5134POPC   D2A65332  44.408  20.481   6.497
 5134POPC   C3A65333  44.571  20.482   6.932
 5134POPC   C4A65334  44.611  20.723   7.324
 5134POPC   C1B65335   0.100  20.526   6.109
 5134POPC   C2B65336  44.952  20.605   6.515
 5134POPC   C3B65337   0.087  20.705   6.917
 5134POPC   C4B65338   0.039  20.366   7.151
 5135POPC   NC365339  34.968  36.803   5.456
 5135POPC   PO465340  35.611  36.996   5.449
 5135POPC   GL165341  35.711  36.859   5.868
 5135POPC   GL265342  35.343  36.831   5.902
 5135POPC   C1A65343  35.594  36.796   6.332
 5135POPC   D2A65344  35.350  36.838   6.699
 5135POPC   C3A65345  35.651  36.770   6.988
 5135POPC   C4A65346  35.643  36.513   7.307
 5135POPC   C1B65347  35.246  37.165   6.267
 5135POPC   C2B65348  35.002  37.207   6.630
 5135POPC   C3B65349  34.941  37.026   6.990
 5135POPC   C4B65350  35.216  36.827   7.233
 5136POPC   NC365351  34.463  30.907   5.309
 5136POPC   PO465352  34.722  31.566   5.270
 5136POPC   GL165353  34.544  31.416   5.704
 5136POPC   GL265354  34.320  31.685   5.834
 5136POPC   C1A65355  34.698  31.325   6.159
 5136POPC   D2A65356  34.959  31.316   6.570
 5136POPC   C3A65357  34.670  31.413   6.918
 5136POPC   C4A65358  34.661  31.688   7.273
 5136POPC   C1B65359  34.158  31.760   6.273
 5136POPC   C2B65360  34.254  31.790   6.762
 5136POPC   C3B65361  34.270  31.998   7.195
 5136POPC   C4B65362  34.242  31.806   7.634
 5137POPC   NC365363   2.765  41.750   5.164
 5137POPC   PO465364   2.317  41.856   5.613
 5137POPC   GL165365   2.520  41.515   5.881
 5137POPC   GL265366   2.566  41.214   5.675
 5137POPC   C1A65367   2.701  41.588   6.289
 5137POPC   D2A65368   2.526  41.670   6.686
 5137POPC   C3A65369   2.788  41.860   6.983
 5137POPC   C4A65370   2.517  41.932   7.342
 5137POPC   C1B65371   2.801  41.129   6.067
 5137POPC   C2B65372   3.006  41.205   6.463
 5137POPC   C3B65373   2.840  41.296   6.861
 5137POPC   C4B65374   2.693  41.451   7.253
 5138POPC   NC365375  12.414   6.010   5.418
 5138POPC   PO465376  13.115   5.955   5.406
 5138POPC   GL165377  12.959   5.792   5.809
 5138POPC   GL265378  12.600   5.825   5.884
 5138POPC   C1A65379  13.061   5.707   6.239
 5138POPC   D2A65380  13.017   5.975   6.600
 5138POPC   C3A65381  13.138   5.899   7.020
 5138POPC   C4A65382  12.882   5.863   7.393
 5138POPC   C1B65383  12.566   5.837   6.344
 5138POPC   C2B65384  12.578   5.692   6.769
 5138POPC   C3B65385  12.647   6.005   6.968
 5138POPC   C4B65386  12.560   6.263   7.242
 5139POPC   NC365387  35.784  29.128   5.318
 5139POPC   PO465388  35.273  29.471   5.443
 5139POPC   GL165389  35.239  29.462   5.872
 5139POPC   GL265390  35.001  29.705   5.873
 5139POPC   C1A65391  35.368  29.227   6.252
 5139POPC   D2A65392  35.395  28.988   6.651
 5139POPC   C3A65393  35.603  28.917   7.062
 5139POPC   C4A65394  35.285  28.903   7.369
 5139POPC   C1B65395  35.071  29.646   6.341
 5139POPC   C2B65396  35.354  29.526   6.674
 5139POPC   C3B65397  35.336  29.366   7.086
 5139POPC   C4B65398  35.148  29.418   7.489
 5140POPC   NC365399  21.797  41.728   5.495
 5140POPC   PO465400  22.364  41.307   5.608
 5140POPC   GL165401  22.146  41.381   5.973
 5140POPC   GL265402  21.835  41.406   5.907
 5140POPC   C1A65403  22.294  41.439   6.392
 5140POPC   D2A65404  22.491  41.477   6.768
 5140POPC   C3A65405  22.255  41.687   7.085
 5140POPC   C4A65406  21.979  41.531   7.358
 5140POPC   C1B65407  21.844  41.694   6.265
 5140POPC   C2B65408  22.049  41.829   6.619
 5140POPC   C3B65409  21.774  41.738   6.924
 5140POPC   C4B65410  21.611  41.858   7.292
 5141POPC   NC365411  23.264  39.389   5.457
 5141POPC   PO465412  22.604  39.097   5.433
 5141POPC   GL165413  22.795  39.090   5.809
 5141POPC   GL265414  23.119  39.042   5.826
 5141POPC   C1A65415  22.697  39.242   6.204
 5141POPC   D2A65416  22.838  39.099   6.614
 5141POPC   C3A65417  22.695  39.255   6.981
 5141POPC   C4A65418  22.731  39.141   7.389
 5141POPC   C1B65419  23.196  39.194   6.260
 5141POPC   C2B65420  23.325  39.316   6.672
 5141POPC   C3B65421  23.217  39.178   7.067
 5141POPC   C4B65422  23.538  39.306   7.322
 5142POPC   NC365423  19.761   1.052   5.413
 5142POPC   PO465424  20.081   1.592   5.743
 5142POPC   GL165425  19.885   1.238   5.893
 5142POPC   GL265426  19.544   1.299   5.873
 5142POPC   C1A65427  19.856   1.188   6.346
 5142POPC   D2A65428  19.966   1.532   6.662
 5142POPC   C3A65429  19.887   1.524   7.124
 5142POPC   C4A65430  20.167   1.263   7.403
 5142POPC   C1B65431  19.488   0.877   6.041
 5142POPC   C2B65432  19.304   0.822   6.460
 5142POPC   C3B65433  19.371   0.861   6.915
 5142POPC   C4B65434  19.658   1.083   7.213
 5143POPC   NC365435   5.938  36.404   5.359
 5143POPC   PO465436   5.660  35.810   5.180
 5143POPC   GL165437   5.783  35.843   5.643
 5143POPC   GL265438   5.876  36.159   5.804
 5143POPC   C1A65439   5.712  35.804   6.139
 5143POPC   D2A65440   5.957  35.911   6.546
 5143POPC   C3A65441   5.829  35.796   6.976
 5143POPC   C4A65442   5.769  35.888   7.419
 5143POPC   C1B65443   6.097  36.406   6.141
 5143POPC   C2B65444   6.080  36.522   6.578
 5143POPC   C3B65445   5.862  36.315   6.921
 5143POPC   C4B65446   5.992  36.342   7.334
 5144POPC   NC365447  30.262  14.381   5.326
 5144POPC   PO465448  29.678  13.936   5.296
 5144POPC   GL165449  29.801  14.225   5.736
 5144POPC   GL265450  29.605  14.553   5.855
 5144POPC   C1A65451  29.976  14.372   6.141
 5144POPC   D2A65452  29.904  14.609   6.519
 5144POPC   C3A65453  30.119  14.477   6.888
 5144POPC   C4A65454  30.158  14.810   7.172
 5144POPC   C1B65455  29.445  14.577   6.270
 5144POPC   C2B65456  29.438  14.845   6.633
 5144POPC   C3B65457  29.688  14.802   6.968
 5144POPC   C4B65458  29.694  14.737   7.400
 5145POPC   NC365459  37.425  11.443   5.509
 5145POPC   PO465460  38.044  11.250   5.627
 5145POPC   GL165461  37.772  11.515   5.929
 5145POPC   GL265462  37.396  11.474   6.008
 5145POPC   C1A65463  37.796  11.409   6.374
 5145POPC   D2A65464  37.817  10.985   6.595
 5145POPC   C3A65465  37.757  11.102   7.012
 5145POPC   C4A65466  37.970  11.488   7.190
 5145POPC   C1B65467  37.424  11.076   6.246
 5145POPC   C2B65468  37.305  11.115   6.700
 5145POPC   C3B65469  37.330  11.348   7.118
 5145POPC   C4B65470  37.456  11.102   7.501
 5146POPC   NC365471   2.238   2.021   5.547
 5146POPC   PO465472   1.563   2.095   5.355
 5146POPC   GL165473   1.786   2.122   5.755
 5146POPC   GL265474   1.883   1.745   5.816
 5146POPC   C1A65475   1.966   2.116   6.175
 5146POPC   D2A65476   1.814   1.913   6.559
 5146POPC   C3A65477   1.999   2.057   6.973
 5146POPC   C4A65478   1.809   1.922   7.370
 5146POPC   C1B65479   2.118   1.639   6.216
 5146POPC   C2B65480   2.244   1.671   6.684
 5146POPC   C3B65481   2.272   1.509   7.120
 5146POPC   C4B65482   2.287   1.771   7.485
 5147POPC   NC365483  34.490  43.701   5.306
 5147POPC   PO465484  35.046  44.084   5.292
 5147POPC   GL165485  34.769  43.887   5.709
 5147POPC   GL265486  34.904  44.101   5.969
 5147POPC   C1A65487  34.395  43.867   6.041
 5147POPC   D2A65488  34.100  43.824   6.420
 5147POPC   C3A65489  34.187  43.830   6.888
 5147POPC   C4A65490  34.134  43.976   7.333
 5147POPC   C1B65491  34.858  43.727   6.201
 5147POPC   C2B65492  34.569  43.637   6.519
 5147POPC   C3B65493  34.718  43.790   6.864
 5147POPC   C4B65494  34.785  44.138   7.158
 5148POPC   NC365495  44.708  16.756   5.388
 5148POPC   PO465496  44.976  16.199   5.576
 5148POPC   GL165497   0.076  16.558   5.867
 5148POPC   GL265498  44.921  16.911   5.832
 5148POPC   C1A65499  44.997  16.686   6.307
 5148POPC   D2A65500  44.659  16.680   6.570
 5148POPC   C3A65501  44.568  16.365   6.846
 5148POPC   C4A65502  44.693  16.592   7.194
 5148POPC   C1B65503  44.541  16.953   6.133
 5148POPC   C2B65504  44.473  17.152   6.548
 5148POPC   C3B65505  44.598  17.059   6.977
 5148POPC   C4B65506  44.417  16.954   7.411
 5149POPC   NC365507  42.188  12.608   5.363
 5149POPC   PO465508  42.679  13.028   5.439
 5149POPC   GL165509  42.475  12.810   5.766
 5149POPC   GL265510  42.129  12.886   5.815
 5149POPC   C1A65511  42.453  12.990   6.194
 5149POPC   D2A65512  42.699  12.909   6.547
 5149POPC   C3A65513  42.452  12.961   6.887
 5149POPC   C4A65514  42.581  13.103   7.246
 5149POPC   C1B65515  41.930  12.754   6.200
 5149POPC   C2B65516  41.841  12.850   6.604
 5149POPC   C3B65517  41.975  12.738   6.979
 5149POPC   C4B65518  42.230  12.768   7.329
 5150POPC   NC365519  22.590   2.215   5.399
 5150POPC   PO465520  23.185   1.764   5.476
 5150POPC   GL165521  22.922   1.758   5.863
 5150POPC   GL265522  22.730   2.075   5.896
 5150POPC   C1A65523  23.024   1.810   6.321
 5150POPC   D2A65524  23.303   1.714   6.678
 5150POPC   C3A65525  23.185   1.907   7.070
 5150POPC   C4A65526  22.944   2.270   7.269
 5150POPC   C1B65527  22.521   1.788   6.226
 5150POPC   C2B65528  22.595   1.799   6.689
 5150POPC   C3B65529  22.653   1.735   7.130
 5150POPC   C4B65530  22.919   1.776   7.498
 5151POPC   NC365531  42.922  16.607   5.683
 5151POPC   PO465532  43.597  16.749   5.464
 5151POPC   GL165533  43.424  16.958   5.837
 5151POPC   GL265534  43.160  16.777   6.097
 5151POPC   C1A65535  43.512  17.091   6.251
 5151POPC   D2A65536  43.193  17.089   6.585
 5151POPC   C3A65537  43.163  16.729   6.860
 5151POPC   C4A65538  43.316  16.752   7.262
 5151POPC   C1B65539  42.757  16.899   6.338
 5151POPC   C2B65540  42.691  16.950   6.800
 5151POPC   C3B65541  42.824  16.912   7.226
 5151POPC   C4B65542  42.976  17.195   7.569
 5152POPC   NC365543  41.771  24.718   5.619
 5152POPC   PO465544  41.260  24.636   5.360
 5152POPC   GL165545  41.396  24.353   5.708
 5152POPC   GL265546  41.736  24.239   5.822
 5152POPC   C1A65547  41.312  24.398   6.164
 5152POPC   D2A65548  41.430  24.656   6.540
 5152POPC   C3A65549  41.374  24.492   6.957
 5152POPC   C4A65550  41.461  24.514   7.361
 5152POPC   C1B65551  41.802  24.495   6.209
 5152POPC   C2B65552  41.862  24.902   6.436
 5152POPC   C3B65553  41.813  24.760   6.874
 5152POPC   C4B65554  41.907  24.769   7.300
 5153POPC   NC365555  22.943  44.432   5.606
 5153POPC   PO465556  23.028  44.917   5.122
 5153POPC   GL165557  23.169  44.935   5.603
 5153POPC   GL265558  23.350  44.678   5.761
 5153POPC   C1A65559  23.038  44.937   6.076
 5153POPC   D2A65560  22.932  44.656   6.433
 5153POPC   C3A65561  22.906  44.831   6.828
 5153POPC   C4A65562  22.720  44.648   7.198
 5153POPC   C1B65563  23.530  44.827   6.156
 5153POPC   C2B65564  23.403  44.845   6.558
 5153POPC   C3B65565  23.409  44.718   6.970
 5153POPC   C4B65566  23.203  44.591   7.334
 5154POPC   NC365567  29.262  12.444   5.563
 5154POPC   PO465568  28.980  11.884   5.376
 5154POPC   GL165569  29.076  11.916   5.791
 5154POPC   GL265570  28.828  12.174   5.813
 5154POPC   C1A65571  29.183  11.745   6.210
 5154POPC   D2A65572  29.236  11.973   6.587
 5154POPC   C3A65573  29.022  11.844   6.892
 5154POPC   C4A65574  29.119  11.916   7.280
 5154POPC   C1B65575  29.058  12.269   6.183
 5154POPC   C2B65576  28.971  12.413   6.583
 5154POPC   C3B65577  29.131  12.341   6.969
 5154POPC   C4B65578  28.904  12.369   7.340
 5155POPC   NC365579  13.834   4.148   5.399
 5155POPC   PO465580  13.302   4.667   5.432
 5155POPC   GL165581  13.470   4.368   5.736
 5155POPC   GL265582  13.809   4.439   5.817
 5155POPC   C1A65583  13.446   4.291   6.197
 5155POPC   D2A65584  13.376   4.089   6.594
 5155POPC   C3A65585  13.456   4.280   6.996
 5155POPC   C4A65586  13.698   4.453   7.312
 5155POPC   C1B65587  13.940   4.269   6.211
 5155POPC   C2B65588  13.820   4.401   6.622
 5155POPC   C3B65589  14.078   4.481   6.989
 5155POPC   C4B65590  14.187   4.109   7.241
 5156POPC   NC365591  17.879  16.473   4.939
 5156POPC   PO465592  17.794  16.449   5.571
 5156POPC   GL165593  17.650  16.644   5.948
 5156POPC   GL265594  17.387  16.880   5.855
 5156POPC   C1A65595  17.647  16.500   6.384
 5156POPC   D2A65596  17.530  16.328   6.803
 5156POPC   C3A65597  17.593  16.624   7.132
 5156POPC   C4A65598  17.445  16.627   7.577
 5156POPC   C1B65599  17.192  16.843   6.245
 5156POPC   C2B65600  17.313  16.793   6.643
 5156POPC   C3B65601  17.106  16.714   6.983
 5156POPC   C4B65602  17.228  16.986   7.258
 5157POPC   NC365603  43.068  38.736   5.678
 5157POPC   PO465604  43.450  38.379   5.273
 5157POPC   GL165605  43.351  38.273   5.779
 5157POPC   GL265606  42.998  38.223   5.878
 5157POPC   C1A65607  43.266  38.506   6.249
 5157POPC   D2A65608  43.009  38.663   6.638
 5157POPC   C3A65609  43.185  38.520   7.044
 5157POPC   C4A65610  43.507  38.200   7.096
 5157POPC   C1B65611  42.894  38.160   6.319
 5157POPC   C2B65612  43.021  38.118   6.761
 5157POPC   C3B65613  42.776  38.223   7.118
 5157POPC   C4B65614  42.545  38.612   7.198
 5158POPC   NC365615  11.764   3.000   5.438
 5158POPC   PO465616  12.323   2.738   5.555
 5158POPC   GL165617  12.061   2.826   5.843
 5158POPC   GL265618  11.823   2.593   5.790
 5158POPC   C1A65619  12.177   2.762   6.248
 5158POPC   D2A65620  12.156   2.969   6.616
 5158POPC   C3A65621  12.125   2.740   6.979
 5158POPC   C4A65622  12.078   2.988   7.327
 5158POPC   C1B65623  11.655   2.716   6.160
 5158POPC   C2B65624  11.750   2.666   6.572
 5158POPC   C3B65625  11.605   2.763   6.946
 5158POPC   C4B65626  11.708   2.632   7.349
 5159POPC   NC365627  41.249   8.199   5.567
 5159POPC   PO465628  41.851   8.366   5.462
 5159POPC   GL165629  41.852   8.074   5.833
 5159POPC   GL265630  41.556   7.863   5.831
 5159POPC   C1A65631  41.733   8.128   6.287
 5159POPC   D2A65632  41.675   8.509   6.570
 5159POPC   C3A65633  41.813   8.379   6.960
 5159POPC   C4A65634  41.842   7.971   7.137
 5159POPC   C1B65635  41.265   7.916   6.202
 5159POPC   C2B65636  41.218   8.192   6.584
 5159POPC   C3B65637  41.346   8.155   7.030
 5159POPC   C4B65638  41.269   8.088   7.472
 5160POPC   NC365639  37.057  13.952   5.628
 5160POPC   PO465640  36.653  13.510   5.280
 5160POPC   GL165641  36.837  13.435   5.724
 5160POPC   GL265642  37.185  13.471   5.782
 5160POPC   C1A65643  36.721  13.478   6.205
 5160POPC   D2A65644  36.560  13.664   6.631
 5160POPC   C3A65645  36.773  13.569   7.025
 5160POPC   C4A65646  36.650  13.254   7.306
 5160POPC   C1B65647  37.198  13.646   6.204
 5160POPC   C2B65648  37.095  13.510   6.631
 5160POPC   C3B65649  37.269  13.434   7.063
 5160POPC   C4B65650  37.090  13.484   7.505
 5161POPC   NC365651  26.068   1.084   5.427
 5161POPC   PO465652  25.632   1.545   5.441
 5161POPC   GL165653  25.763   1.279   5.808
 5161POPC   GL265654  26.107   1.095   5.920
 5161POPC   C1A65655  25.860   1.356   6.261
 5161POPC   D2A65656  26.061   1.125   6.573
 5161POPC   C3A65657  26.020   1.289   6.958
 5161POPC   C4A65658  25.903   1.555   7.260
 5161POPC   C1B65659  26.391   0.899   6.238
 5161POPC   C2B65660  26.362   0.724   6.662
 5161POPC   C3B65661  26.341   0.910   7.071
 5161POPC   C4B65662  26.228   1.171   7.440
 5162POPC   NC365663  37.354  32.812   5.412
 5162POPC   PO465664  37.755  33.235   5.589
 5162POPC   GL165665  37.597  33.038   5.922
 5162POPC   GL265666  37.490  32.682   5.906
 5162POPC   C1A65667  37.612  33.273   6.319
 5162POPC   D2A65668  37.441  33.412   6.688
 5162POPC   C3A65669  37.756  33.187   6.850
 5162POPC   C4A65670  37.796  33.008   7.187
 5162POPC   C1B65671  37.551  32.742   6.378
 5162POPC   C2B65672  37.884  32.674   6.741
 5162POPC   C3B65673  37.903  32.530   7.176
 5162POPC   C4B65674  37.514  32.638   7.413
 5163POPC   NC365675   8.635   7.207   5.422
 5163POPC   PO465676   9.324   7.467   5.404
 5163POPC   GL165677   8.984   7.444   5.713
 5163POPC   GL265678   9.191   7.331   5.932
 5163POPC   C1A65679   8.705   7.363   6.104
 5163POPC   D2A65680   8.616   7.414   6.564
 5163POPC   C3A65681   8.833   7.302   6.948
 5163POPC   C4A65682   8.696   7.482   7.359
 5163POPC   C1B65683   9.147   7.399   6.358
 5163POPC   C2B65684   9.244   7.126   6.669
 5163POPC   C3B65685   9.337   7.277   7.034
 5163POPC   C4B65686   9.221   7.377   7.406
 5164POPC   NC365687   2.852  29.003   5.392
 5164POPC   PO465688   3.071  29.524   5.674
 5164POPC   GL165689   2.689  29.252   5.848
 5164POPC   GL265690   2.568  28.871   5.795
 5164POPC   C1A65691   2.685  29.066   6.274
 5164POPC   D2A65692   2.975  28.854   6.565
 5164POPC   C3A65693   3.032  28.994   6.987
 5164POPC   C4A65694   3.208  29.262   7.279
 5164POPC   C1B65695   2.414  28.633   6.156
 5164POPC   C2B65696   2.458  28.688   6.621
 5164POPC   C3B65697   2.526  28.923   7.003
 5164POPC   C4B65698   2.710  28.806   7.371
 5165POPC   NC365699  41.613  44.274   5.333
 5165POPC   PO465700  41.403  43.634   5.325
 5165POPC   GL165701  41.401  43.831   5.758
 5165POPC   GL265702  41.567  43.581   5.859
 5165POPC   C1A65703  41.634  43.940   6.206
 5165POPC   D2A65704  41.891  43.927   6.625
 5165POPC   C3A65705  41.816  44.175   7.026
 5165POPC   C4A65706  41.393  44.153   7.215
 5165POPC   C1B65707  41.296  43.540   6.235
 5165POPC   C2B65708  41.390  43.487   6.685
 5165POPC   C3B65709  41.584  43.715   7.023
 5165POPC   C4B65710  41.933  43.778   7.339
 5166POPC   NC365711  28.756  21.975   5.372
 5166POPC   PO465712  29.426  22.144   5.318
 5166POPC   GL165713  29.251  22.187   5.773
 5166POPC   GL265714  28.894  22.169   5.823
 5166POPC   C1A65715  29.188  22.035   6.233
 5166POPC   D2A65716  29.151  21.814   6.660
 5166POPC   C3A65717  29.414  21.965   7.021
 5166POPC   C4A65718  29.173  22.057   7.410
 5166POPC   C1B65719  28.673  22.188   6.212
 5166POPC   C2B65720  28.639  21.931   6.584
 5166POPC   C3B65721  28.762  22.041   7.019
 5166POPC   C4B65722  28.757  21.760   7.368
 5167POPC   NC365723  22.672  43.073   5.417
 5167POPC   PO465724  23.419  43.262   5.342
 5167POPC   GL165725  23.336  43.131   5.763
 5167POPC   GL265726  23.037  43.372   5.816
 5167POPC   C1A65727  23.290  43.124   6.231
 5167POPC   D2A65728  22.975  43.359   6.499
 5167POPC   C3A65729  22.852  43.157   6.895
 5167POPC   C4A65730  22.970  43.225   7.334
 5167POPC   C1B65731  22.774  43.110   6.103
 5167POPC   C2B65732  22.542  42.994   6.491
 5167POPC   C3B65733  22.521  42.765   6.887
 5167POPC   C4B65734  22.791  42.730   7.273
 5168POPC   NC365735  38.969  33.035   5.550
 5168POPC   PO465736  38.775  32.480   5.207
 5168POPC   GL165737  38.973  32.567   5.724
 5168POPC   GL265738  39.328  32.573   5.821
 5168POPC   C1A65739  38.989  32.759   6.175
 5168POPC   D2A65740  39.256  33.016   6.499
 5168POPC   C3A65741  39.125  33.069   6.937
 5168POPC   C4A65742  38.987  32.761   7.230
 5168POPC   C1B65743  39.510  32.675   6.221
 5168POPC   C2B65744  39.672  32.673   6.638
 5168POPC   C3B65745  39.579  32.851   7.055
 5168POPC   C4B65746  39.537  33.262   7.256
 5169POPC   NC365747  22.579  16.130   5.762
 5169POPC   PO465748  23.021  15.968   5.338
 5169POPC   GL165749  23.092  16.046   5.805
 5169POPC   GL265750  23.244  15.770   5.993
 5169POPC   C1A65751  23.026  16.196   6.268
 5169POPC   D2A65752  23.140  15.996   6.670
 5169POPC   C3A65753  23.027  16.184   7.069
 5169POPC   C4A65754  22.785  16.144   7.421
 5169POPC   C1B65755  22.844  15.715   6.278
 5169POPC   C2B65756  22.697  15.727   6.721
 5169POPC   C3B65757  23.003  15.692   7.085
 5169POPC   C4B65758  23.261  15.422   7.303
 5170POPC   NC365759  14.478  16.614   4.867
 5170POPC   PO465760  14.427  16.885   5.396
 5170POPC   GL165761  14.570  16.751   5.782
 5170POPC   GL265762  14.705  16.435   5.721
 5170POPC   C1A65763  14.347  16.612   6.172
 5170POPC   D2A65764  14.253  16.877   6.557
 5170POPC   C3A65765  14.312  16.701   6.956
 5170POPC   C4A65766  14.192  16.716   7.368
 5170POPC   C1B65767  14.857  16.558   6.155
 5170POPC   C2B65768  14.747  16.763   6.540
 5170POPC   C3B65769  14.810  16.567   6.928
 5170POPC   C4B65770  14.602  16.422   7.303
 5171POPC   NC365771  38.725  33.897   5.530
 5171POPC   PO465772  38.128  34.075   5.195
 5171POPC   GL165773  38.202  34.064   5.704
 5171POPC   GL265774  38.495  34.246   5.851
 5171POPC   C1A65775  38.377  33.876   6.155
 5171POPC   D2A65776  38.552  33.651   6.517
 5171POPC   C3A65777  38.419  33.805   6.916
 5171POPC   C4A65778  38.192  33.665   7.290
 5171POPC   C1B65779  38.765  34.223   6.213
 5171POPC   C2B65780  38.764  34.111   6.640
 5171POPC   C3B65781  38.891  34.002   7.069
 5171POPC   C4B65782  38.859  33.730   7.421
 5172POPC   NC365783  30.173   2.645   5.353
 5172POPC   PO465784  30.790   2.793   5.362
 5172POPC   GL165785  30.863   2.723   5.780
 5172POPC   GL265786  30.523   2.657   5.831
 5172POPC   C1A65787  30.896   2.870   6.214
 5172POPC   D2A65788  30.776   2.771   6.634
 5172POPC   C3A65789  30.934   2.913   7.031
 5172POPC   C4A65790  30.775   2.856   7.460
 5172POPC   C1B65791  30.395   2.706   6.259
 5172POPC   C2B65792  30.325   2.516   6.675
 5172POPC   C3B65793  30.506   2.596   7.088
 5172POPC   C4B65794  30.372   2.525   7.526
 5173POPC   NC365795  42.936   8.549   5.304
 5173POPC   PO465796  43.451   8.106   5.379
 5173POPC   GL165797  43.314   8.099   5.811
 5173POPC   GL265798  42.993   8.142   5.924
 5173POPC   C1A65799  43.354   8.137   6.282
 5173POPC   D2A65800  43.197   8.193   6.721
 5173POPC   C3A65801  43.424   8.294   7.090
 5173POPC   C4A65802  43.155   8.167   7.411
 5173POPC   C1B65803  42.817   8.201   6.349
 5173POPC   C2B65804  42.775   7.891   6.711
 5173POPC   C3B65805  42.762   7.950   7.169
 5173POPC   C4B65806  42.720   7.780   7.645
 5174POPC   NC365807  42.572  25.005   5.827
 5174POPC   PO465808  42.310  25.276   5.272
 5174POPC   GL165809  42.350  25.455   5.694
 5174POPC   GL265810  42.715  25.515   5.699
 5174POPC   C1A65811  42.300  25.485   6.180
 5174POPC   D2A65812  42.422  25.147   6.497
 5174POPC   C3A65813  42.215  25.075   6.919
 5174POPC   C4A65814  42.388  24.957   7.299
 5174POPC   C1B65815  42.887  25.526   6.127
 5174POPC   C2B65816  42.696  25.627   6.515
 5174POPC   C3B65817  42.423  25.532   6.843
 5174POPC   C4B65818  42.554  25.546   7.234
 5175POPC   NC365819  30.982  32.902   5.075
 5175POPC   PO465820  30.468  32.915   5.397
 5175POPC   GL165821  30.804  33.054   5.690
 5175POPC   GL265822  30.616  32.858   5.902
 5175POPC   C1A65823  30.854  33.200   6.156
 5175POPC   D2A65824  30.596  33.121   6.516
 5175POPC   C3A65825  30.776  33.082   6.911
 5175POPC   C4A65826  30.738  33.239   7.312
 5175POPC   C1B65827  30.925  32.690   6.126
 5175POPC   C2B65828  30.990  32.768   6.535
 5175POPC   C3B65829  30.999  32.539   6.913
 5175POPC   C4B65830  30.933  32.763   7.289
 5176POPC   NC365831  10.238  39.820   5.401
 5176POPC   PO465832  10.850  40.021   5.414
 5176POPC   GL165833  10.661  40.104   5.864
 5176POPC   GL265834  10.326  39.932   5.934
 5176POPC   C1A65835  10.530  40.223   6.321
 5176POPC   D2A65836  10.411  39.979   6.706
 5176POPC   C3A65837  10.386  40.190   7.120
 5176POPC   C4A65838  10.759  40.249   7.353
 5176POPC   C1B65839  10.663  39.725   6.246
 5176POPC   C2B65840  10.933  39.704   6.643
 5176POPC   C3B65841  10.762  39.799   7.061
 5176POPC   C4B65842  10.308  39.705   7.154
 5177POPC   NC365843  31.761  24.039   5.421
 5177POPC   PO465844  31.250  23.544   5.478
 5177POPC   GL165845  31.364  23.778   5.838
 5177POPC   GL265846  31.729  23.802   5.856
 5177POPC   C1A65847  31.456  23.604   6.243
 5177POPC   D2A65848  31.312  23.398   6.612
 5177POPC   C3A65849  31.522  23.620   6.937
 5177POPC   C4A65850  31.711  23.550   7.326
 5177POPC   C1B65851  31.916  23.883   6.241
 5177POPC   C2B65852  31.852  24.008   6.670
 5177POPC   C3B65853  31.866  23.985   7.107
 5177POPC   C4B65854  31.968  23.921   7.540
 5178POPC   NC365855   1.963  27.843   5.488
 5178POPC   PO465856   2.276  27.200   5.503
 5178POPC   GL165857   2.035  27.448   5.817
 5178POPC   GL265858   1.664  27.386   5.838
 5178POPC   C1A65859   2.172  27.546   6.242
 5178POPC   D2A65860   2.322  27.723   6.647
 5178POPC   C3A65861   2.055  27.534   6.940
 5178POPC   C4A65862   1.722  27.618   7.233
 5178POPC   C1B65863   1.723  27.234   6.276
 5178POPC   C2B65864   1.907  27.079   6.677
 5178POPC   C3B65865   1.793  27.132   7.130
 5178POPC   C4B65866   1.703  27.226   7.586
 5179POPC   NC365867  12.222   4.434   5.479
 5179POPC   PO465868  11.536   4.322   5.304
 5179POPC   GL165869  11.776   4.229   5.744
 5179POPC   GL265870  12.156   4.107   5.838
 5179POPC   C1A65871  11.865   4.337   6.202
 5179POPC   D2A65872  11.900   4.630   6.560
 5179POPC   C3A65873  11.851   4.445   6.986
 5179POPC   C4A65874  11.868   4.052   7.221
 5179POPC   C1B65875  12.447   4.069   6.204
 5179POPC   C2B65876  12.527   4.020   6.642
 5179POPC   C3B65877  12.343   4.227   7.002
 5179POPC   C4B65878  12.610   4.041   7.281
 5180POPC   NC365879  12.370  21.302   5.269
 5180POPC   PO465880  11.994  21.784   5.342
 5180POPC   GL165881  12.023  21.632   5.764
 5180POPC   GL265882  11.737  21.812   5.865
 5180POPC   C1A65883  12.181  21.441   6.168
 5180POPC   D2A65884  12.514  21.284   6.485
 5180POPC   C3A65885  12.337  21.194   6.907
 5180POPC   C4A65886  12.038  21.462   7.164
 5180POPC   C1B65887  11.903  21.880   6.276
 5180POPC   C2B65888  11.954  21.770   6.696
 5180POPC   C3B65889  11.762  21.880   7.083
 5180POPC   C4B65890  11.624  21.642   7.448
 5181POPC   NC365891   7.438  31.002   5.446
 5181POPC   PO465892   7.013  30.472   5.435
 5181POPC   GL165893   7.151  30.710   5.773
 5181POPC   GL265894   7.516  30.706   5.884
 5181POPC   C1A65895   7.108  30.774   6.200
 5181POPC   D2A65896   7.352  30.787   6.555
 5181POPC   C3A65897   7.108  30.550   6.830
 5181POPC   C4A65898   7.181  30.605   7.222
 5181POPC   C1B65899   7.770  30.635   6.285
 5181POPC   C2B65900   7.846  30.778   6.702
 5181POPC   C3B65901   7.726  30.766   7.095
 5181POPC   C4B65902   7.658  30.492   7.389
 5182POPC   NC365903  37.265   9.229   5.448
 5182POPC   PO465904  37.700   8.768   5.550
 5182POPC   GL165905  37.457   8.965   5.858
 5182POPC   GL265906  37.665   9.214   5.803
 5182POPC   C1A65907  37.437   8.831   6.291
 5182POPC   D2A65908  37.349   8.675   6.708
 5182POPC   C3A65909  37.675   8.811   7.006
 5182POPC   C4A65910  37.854   9.166   7.212
 5182POPC   C1B65911  37.815   9.193   6.198
 5182POPC   C2B65912  37.716   9.148   6.615
 5182POPC   C3B65913  37.365   9.194   6.854
 5182POPC   C4B65914  37.398   9.389   7.213
 5183POPC   NC365915  37.222  26.590   5.521
 5183POPC   PO465916  37.441  27.174   5.411
 5183POPC   GL165917  37.686  26.949   5.776
 5183POPC   GL265918  37.603  26.594   5.876
 5183POPC   C1A65919  37.944  26.921   6.193
 5183POPC   D2A65920  37.805  26.823   6.656
 5183POPC   C3A65921  37.963  26.965   7.069
 5183POPC   C4A65922  38.217  26.746   7.391
 5183POPC   C1B65923  37.454  26.812   6.270
 5183POPC   C2B65924  37.280  26.680   6.689
 5183POPC   C3B65925  37.482  26.595   7.066
 5183POPC   C4B65926  37.334  26.428   7.450
 5184POPC   NC365927  26.100   7.375   5.395
 5184POPC   PO465928  25.965   7.903   5.737
 5184POPC   GL165929  26.103   7.521   5.931
 5184POPC   GL265930  25.982   7.163   5.917
 5184POPC   C1A65931  25.960   7.492   6.369
 5184POPC   D2A65932  25.618   7.595   6.683
 5184POPC   C3A65933  25.835   7.871   6.999
 5184POPC   C4A65934  26.145   7.566   7.177
 5184POPC   C1B65935  25.945   6.983   6.363
 5184POPC   C2B65936  25.769   7.043   6.803
 5184POPC   C3B65937  25.914   6.996   7.252
 5184POPC   C4B65938  25.861   6.848   7.707
 5185POPC   NC365939   1.052  25.812   5.701
 5185POPC   PO465940   0.980  25.221   5.459
 5185POPC   GL165941   1.053  25.234   5.910
 5185POPC   GL265942   1.075  24.883   6.000
 5185POPC   C1A65943   1.284  25.433   6.273
 5185POPC   D2A65944   1.218  25.649   6.662
 5185POPC   C3A65945   1.014  25.382   6.998
 5185POPC   C4A65946   1.132  25.519   7.414
 5185POPC   C1B65947   1.386  24.937   6.317
 5185POPC   C2B65948   1.391  25.115   6.744
 5185POPC   C3B65949   1.357  25.060   7.196
 5185POPC   C4B65950   0.966  25.039   7.412
 5186POPC   NC365951   6.224  39.677   5.363
 5186POPC   PO465952   5.857  40.297   5.408
 5186POPC   GL165953   5.735  40.102   5.808
 5186POPC   GL265954   5.882  39.772   5.881
 5186POPC   C1A65955   5.853  40.061   6.272
 5186POPC   D2A65956   5.611  40.009   6.585
 5186POPC   C3A65957   5.863  40.006   6.917
 5186POPC   C4A65958   6.008  40.340   7.183
 5186POPC   C1B65959   5.588  39.594   6.228
 5186POPC   C2B65960   5.469  39.544   6.661
 5186POPC   C3B65961   5.420  39.759   7.045
 5186POPC   C4B65962   5.645  39.970   7.364
 5187POPC   NC365963   3.331  21.332   5.324
 5187POPC   PO465964   3.509  21.954   5.451
 5187POPC   GL165965   3.597  21.562   5.736
 5187POPC   GL265966   3.394  21.253   5.830
 5187POPC   C1A65967   3.769  21.449   6.153
 5187POPC   D2A65968   3.749  21.168   6.509
 5187POPC   C3A65969   3.734  21.351   6.925
 5187POPC   C4A65970   3.888  21.221   7.318
 5187POPC   C1B65971   3.244  21.515   6.168
 5187POPC   C2B65972   3.323  21.473   6.611
 5187POPC   C3B65973   3.231  21.392   7.054
 5187POPC   C4B65974   3.108  21.731   7.339
 5188POPC   NC365975  10.708  11.007   5.473
 5188POPC   PO465976  10.419  10.446   5.249
 5188POPC   GL165977  10.551  10.510   5.673
 5188POPC   GL265978  10.331  10.771   5.731
 5188POPC   C1A65979  10.706  10.539   6.113
 5188POPC   D2A65980  10.576  10.592   6.527
 5188POPC   C3A65981  10.724  10.626   6.961
 5188POPC   C4A65982  10.493  10.388   7.239
 5188POPC   C1B65983  10.333  10.895   6.135
 5188POPC   C2B65984  10.113  10.777   6.493
 5188POPC   C3B65985  10.219  10.681   6.869
 5188POPC   C4B65986  10.104  10.724   7.239
 5189POPC   NC365987  41.240  27.026   5.223
 5189POPC   PO465988  40.860  26.487   5.209
 5189POPC   GL165989  40.806  26.732   5.629
 5189POPC   GL265990  41.036  26.963   5.789
 5189POPC   C1A65991  40.668  26.773   6.092
 5189POPC   D2A65992  40.533  26.937   6.521
 5189POPC   C3A65993  40.784  26.729   6.844
 5189POPC   C4A65994  40.841  26.612   7.274
 5189POPC   C1B65995  41.105  27.161   6.237
 5189POPC   C2B65996  41.098  27.115   6.702
 5189POPC   C3B65997  41.011  27.090   7.156
 5189POPC   C4B65998  41.232  27.056   7.578
 5190POPC   NC365999  16.256  22.998   5.310
 5190POPC   PO466000  15.551  22.901   5.311
 5190POPC   GL166001  15.852  22.862   5.660
 5190POPC   GL266002  15.921  23.180   5.844
 5190POPC   C1A66003  15.873  22.708   6.101
 5190POPC   D2A66004  15.728  22.561   6.546
 5190POPC   C3A66005  15.883  22.843   6.909
 5190POPC   C4A66006  16.026  22.685   7.335
 5190POPC   C1B66007  16.017  23.176   6.315
 5190POPC   C2B66008  16.295  23.192   6.701
 5190POPC   C3B66009  16.246  23.181   7.148
 5190POPC   C4B66010  16.218  23.214   7.615
 5191POPC   NC366011  38.140  40.226   5.372
 5191POPC   PO466012  38.004  39.544   5.601
 5191POPC   GL166013  38.270  39.857   5.854
 5191POPC   GL266014  38.414  40.201   5.805
 5191POPC   C1A66015  38.572  39.896   6.216
 5191POPC   D2A66016  38.591  40.037   6.654
 5191POPC   C3A66017  38.631  39.750   7.020
 5191POPC   C4A66018  38.485  39.611   7.469
 5191POPC   C1B66019  38.180  40.515   6.106
 5191POPC   C2B66020  37.999  40.526   6.541
 5191POPC   C3B66021  38.050  40.425   6.993
 5191POPC   C4B66022  38.137  40.348   7.447
 5192POPC   NC366023  30.753   2.328   5.431
 5192POPC   PO466024  30.348   1.862   5.262
 5192POPC   GL166025  30.549   1.847   5.730
 5192POPC   GL266026  30.712   2.162   5.890
 5192POPC   C1A66027  30.532   1.869   6.231
 5192POPC   D2A66028  30.840   2.077   6.547
 5192POPC   C3A66029  30.849   1.946   6.992
 5192POPC   C4A66030  30.470   2.098   7.197
 5192POPC   C1B66031  31.021   2.374   6.136
 5192POPC   C2B66032  31.242   2.428   6.534
 5192POPC   C3B66033  31.038   2.418   6.943
 5192POPC   C4B66034  30.877   2.320   7.366
 5193POPC   NC366035   0.240  21.489   5.585
 5193POPC   PO466036   0.854  21.333   5.486
 5193POPC   GL166037   0.652  21.453   5.849
 5193POPC   GL266038   0.704  21.787   5.762
 5193POPC   C1A66039   0.537  21.360   6.272
 5193POPC   D2A66040   0.761  21.315   6.672
 5193POPC   C3A66041   0.542  21.294   7.103
 5193POPC   C4A66042   0.683  21.106   7.504
 5193POPC   C1B66043   0.500  21.878   6.138
 5193POPC   C2B66044   0.363  21.782   6.549
 5193POPC   C3B66045   0.524  21.787   6.959
 5193POPC   C4B66046   0.175  21.660   7.216
 5194POPC   NC366047  36.257  17.619   5.309
 5194POPC   PO466048  36.926  17.595   5.382
 5194POPC   GL166049  37.054  17.613   5.815
 5194POPC   GL266050  37.200  17.948   5.788
 5194POPC   C1A66051  37.011  17.422   6.249
 5194POPC   D2A66052  36.804  17.455   6.686
 5194POPC   C3A66053  36.891  17.277   7.147
 5194POPC   C4A66054  36.719  17.200   7.598
 5194POPC   C1B66055  37.329  17.820   6.199
 5194POPC   C2B66056  37.176  17.795   6.604
 5194POPC   C3B66057  37.305  17.639   6.994
 5194POPC   C4B66058  37.375  17.836   7.379
 5195POPC   NC366059  40.661   8.650   5.384
 5195POPC   PO466060  40.941   7.911   5.365
 5195POPC   GL166061  40.798   8.034   5.781
 5195POPC   GL266062  40.593   8.314   5.763
 5195POPC   C1A66063  40.800   8.129   6.221
 5195POPC   D2A66064  40.668   8.250   6.585
 5195POPC   C3A66065  40.881   8.377   6.929
 5195POPC   C4A66066  40.798   8.163   7.279
 5195POPC   C1B66067  40.520   8.544   6.145
 5195POPC   C2B66068  40.284   8.573   6.560
 5195POPC   C3B66069  40.359   8.370   6.974
 5195POPC   C4B66070  40.458   8.536   7.397
 5196POPC   NC366071  42.446  38.864   5.503
 5196POPC   PO466072  41.904  39.137   5.209
 5196POPC   GL166073  42.105  39.238   5.696
 5196POPC   GL266074  42.451  39.368   5.758
 5196POPC   C1A66075  42.186  39.073   6.159
 5196POPC   D2A66076  42.147  39.227   6.597
 5196POPC   C3A66077  42.194  39.085   7.062
 5196POPC   C4A66078  42.050  39.161   7.502
 5196POPC   C1B66079  42.615  39.310   6.185
 5196POPC   C2B66080  42.655  39.316   6.635
 5196POPC   C3B66081  42.437  39.523   6.985
 5196POPC   C4B66082  42.497  39.456   7.423
 5197POPC   NC366083  37.463  30.846   5.517
 5197POPC   PO466084  37.721  30.260   5.394
 5197POPC   GL166085  37.806  30.555   5.791
 5197POPC   GL266086  37.840  30.913   5.869
 5197POPC   C1A66087  37.730  30.538   6.235
 5197POPC   D2A66088  37.942  30.785   6.530
 5197POPC   C3A66089  37.715  30.766   6.868
 5197POPC   C4A66090  37.841  30.614   7.197
 5197POPC   C1B66091  37.703  31.149   6.256
 5197POPC   C2B66092  37.707  31.257   6.700
 5197POPC   C3B66093  37.754  31.210   7.160
 5197POPC   C4B66094  37.584  31.029   7.563
 5198POPC   NC366095   0.616  30.705   5.483
 5198POPC   PO466096   0.076  30.987   5.765
 5198POPC   GL166097   0.293  30.581   5.889
 5198POPC   GL266098   0.643  30.400   5.895
 5198POPC   C1A66099   0.504  30.709   6.269
 5198POPC   D2A66100   0.311  30.907   6.603
 5198POPC   C3A66101   0.270  30.645   6.926
 5198POPC   C4A66102   0.302  30.804   7.273
 5198POPC   C1B66103   0.934  30.449   6.230
 5198POPC   C2B66104   0.862  30.638   6.658
 5198POPC   C3B66105   0.746  30.563   7.116
 5198POPC   C4B66106   0.705  30.723   7.555
 5199POPC   NC366107  34.760  33.187   5.413
 5199POPC   PO466108  34.434  32.636   5.559
 5199POPC   GL166109  34.816  32.879   5.822
 5199POPC   GL266110  34.838  33.292   5.899
 5199POPC   C1A66111  34.908  32.960   6.276
 5199POPC   D2A66112  34.771  32.827   6.682
 5199POPC   C3A66113  34.922  33.048   7.032
 5199POPC   C4A66114  34.647  32.941   7.385
 5199POPC   C1B66115  34.435  33.081   6.074
 5199POPC   C2B66116  34.350  32.761   6.382
 5199POPC   C3B66117  34.261  32.875   6.800
 5199POPC   C4B66118  34.449  33.220   6.996
 5200POPC   NC366119  17.979  13.517   5.454
 5200POPC   PO466120  17.354  13.777   5.279
 5200POPC   GL166121  17.367  13.609   5.739
 5200POPC   GL266122  17.674  13.437   5.872
 5200POPC   C1A66123  17.334  13.623   6.220
 5200POPC   D2A66124  17.547  13.693   6.633
 5200POPC   C3A66125  17.345  13.766   7.002
 5200POPC   C4A66126  17.203  13.438   7.257
 5200POPC   C1B66127  17.866  13.427   6.289
 5200POPC   C2B66128  17.935  13.387   6.710
 5200POPC   C3B66129  17.698  13.369   7.069
 5200POPC   C4B66130  17.658  13.638   7.415
 5201POPC   NC366131  32.728   4.762   5.465
 5201POPC   PO466132  32.926   4.086   5.364
 5201POPC   GL166133  32.821   4.325   5.731
 5201POPC   GL266134  33.087   4.263   5.887
 5201POPC   C1A66135  32.647   4.454   6.145
 5201POPC   D2A66136  32.770   4.694   6.547
 5201POPC   C3A66137  32.981   4.524   6.895
 5201POPC   C4A66138  33.424   4.532   6.994
 5201POPC   C1B66139  32.981   4.072   6.269
 5201POPC   C2B66140  33.223   4.109   6.651
 5201POPC   C3B66141  33.190   4.089   7.077
 5201POPC   C4B66142  32.927   4.074   7.403
 5202POPC   NC366143  30.076   8.453   5.353
 5202POPC   PO466144  29.507   8.073   5.350
 5202POPC   GL166145  29.734   8.169   5.743
 5202POPC   GL266146  29.820   8.510   5.789
 5202POPC   C1A66147  29.854   8.166   6.209
 5202POPC   D2A66148  29.946   8.096   6.642
 5202POPC   C3A66149  29.662   8.224   6.973
 5202POPC   C4A66150  29.854   8.226   7.316
 5202POPC   C1B66151  30.121   8.587   6.115
 5202POPC   C2B66152  29.980   8.622   6.540
 5202POPC   C3B66153  30.119   8.477   6.939
 5202POPC   C4B66154  30.207   8.604   7.327
 5203POPC   NC366155   4.310  43.947   5.383
 5203POPC   PO466156   3.767  43.512   5.289
 5203POPC   GL166157   3.998  43.696   5.707
 5203POPC   GL266158   4.324  43.566   5.785
 5203POPC   C1A66159   4.231  43.931   6.117
 5203POPC   D2A66160   4.226  44.102   6.561
 5203POPC   C3A66161   4.432  44.016   6.973
 5203POPC   C4A66162   4.178  44.188   7.308
 5203POPC   C1B66163   4.004  43.465   6.159
 5203POPC   C2B66164   3.909  43.651   6.577
 5203POPC   C3B66165   4.080  43.666   7.032
 5203POPC   C4B66166   4.510  43.575   7.239
 5204POPC   NC366167  18.887  18.301   4.970
 5204POPC   PO466168  19.436  18.054   5.375
 5204POPC   GL166169  19.075  18.066   5.707
 5204POPC   GL266170  19.163  18.357   5.941
 5204POPC   C1A66171  18.932  17.940   6.138
 5204POPC   D2A66172  19.189  17.936   6.498
 5204POPC   C3A66173  19.085  18.188   6.856
 5204POPC   C4A66174  19.232  18.196   7.289
 5204POPC   C1B66175  18.961  18.421   6.357
 5204POPC   C2B66176  18.787  18.595   6.734
 5204POPC   C3B66177  19.025  18.637   7.142
 5204POPC   C4B66178  19.397  18.658   7.445
 5205POPC   NC366179  30.911  10.316   5.586
 5205POPC   PO466180  30.797  10.966   5.691
 5205POPC   GL166181  30.457  10.835   5.948
 5205POPC   GL266182  30.474  10.465   5.877
 5205POPC   C1A66183  30.417  10.661   6.379
 5205POPC   D2A66184  30.725  10.406   6.653
 5205POPC   C3A66185  30.847  10.596   7.062
 5205POPC   C4A66186  30.883  10.688   7.509
 5205POPC   C1B66187  30.264  10.182   6.203
 5205POPC   C2B66188  30.262  10.180   6.673
 5205POPC   C3B66189  30.481  10.200   7.095
 5205POPC   C4B66190  30.297  10.209   7.504
 5206POPC   NC366191  21.348  24.859   5.263
 5206POPC   PO466192  21.150  24.245   5.492
 5206POPC   GL166193  21.322  24.457   5.832
 5206POPC   GL266194  21.607  24.254   5.891
 5206POPC   C1A66195  21.297  24.617   6.267
 5206POPC   D2A66196  21.100  24.655   6.687
 5206POPC   C3A66197  21.303  24.467   7.067
 5206POPC   C4A66198  21.559  24.447   7.459
 5206POPC   C1B66199  21.337  24.093   6.194
 5206POPC   C2B66200  21.258  24.186   6.603
 5206POPC   C3B66201  21.139  23.978   6.991
 5206POPC   C4B66202  21.119  24.081   7.424
 5207POPC   NC366203   3.196  11.474   5.361
 5207POPC   PO466204   3.808  11.200   5.300
 5207POPC   GL166205   3.741  11.303   5.727
 5207POPC   GL266206   3.412  11.207   5.767
 5207POPC   C1A66207   3.718  11.276   6.201
 5207POPC   D2A66208   3.554  11.454   6.598
 5207POPC   C3A66209   3.777  11.593   6.957
 5207POPC   C4A66210   3.793  11.598   7.428
 5207POPC   C1B66211   3.193  11.348   6.136
 5207POPC   C2B66212   3.076  11.255   6.559
 5207POPC   C3B66213   3.110  11.418   6.954
 5207POPC   C4B66214   3.410  11.337   7.233
 5208POPC   NC366215  39.472  22.715   5.207
 5208POPC   PO466216  39.985  23.067   5.176
 5208POPC   GL166217  39.918  22.804   5.570
 5208POPC   GL266218  40.165  22.977   5.743
 5208POPC   C1A66219  39.881  22.720   6.068
 5208POPC   D2A66220  39.943  23.007   6.465
 5208POPC   C3A66221  39.799  22.943   6.920
 5208POPC   C4A66222  39.905  23.224   7.308
 5208POPC   C1B66223  40.367  22.915   6.132
 5208POPC   C2B66224  40.548  22.947   6.523
 5208POPC   C3B66225  40.311  23.013   6.858
 5208POPC   C4B66226  40.211  22.825   7.209
 5209POPC   NC366227  22.080  44.040   5.391
 5209POPC   PO466228  22.636  43.584   5.496
 5209POPC   GL166229  22.328  43.741   5.849
 5209POPC   GL266230  21.991  43.827   5.829
 5209POPC   C1A66231  22.358  43.935   6.290
 5209POPC   D2A66232  22.638  44.012   6.685
 5209POPC   C3A66233  22.398  43.903   7.079
 5209POPC   C4A66234  21.970  44.044   7.216
 5209POPC   C1B66235  21.837  43.723   6.209
 5209POPC   C2B66236  21.662  43.638   6.606
 5209POPC   C3B66237  22.014  43.664   6.844
 5209POPC   C4B66238  22.093  43.543   7.253
 5210POPC   NC366239  38.258  19.900   5.413
 5210POPC   PO466240  38.992  19.975   5.397
 5210POPC   GL166241  38.680  19.993   5.741
 5210POPC   GL266242  38.588  19.633   5.719
 5210POPC   C1A66243  38.634  20.095   6.210
 5210POPC   D2A66244  38.458  20.022   6.656
 5210POPC   C3A66245  38.703  20.008   7.066
 5210POPC   C4A66246  38.668  20.035   7.523
 5210POPC   C1B66247  38.420  19.641   6.139
 5210POPC   C2B66248  38.501  19.512   6.567
 5210POPC   C3B66249  38.372  19.585   6.989
 5210POPC   C4B66250  38.275  19.382   7.408
 5211POPC   NC366251  32.017  43.772   5.386
 5211POPC   PO466252  32.641  43.520   5.673
 5211POPC   GL166253  32.343  43.695   5.983
 5211POPC   GL266254  32.011  43.836   5.918
 5211POPC   C1A66255  32.165  43.684   6.394
 5211POPC   D2A66256  32.116  43.895   6.742
 5211POPC   C3A66257  32.481  43.793   6.922
 5211POPC   C4A66258  32.620  43.826   7.341
 5211POPC   C1B66259  32.158  44.166   6.255
 5211POPC   C2B66260  32.318  44.358   6.687
 5211POPC   C3B66261  32.341  44.222   7.134
 5211POPC   C4B66262  32.025  43.878   7.236
 5212POPC   NC366263   7.580  38.876   5.390
 5212POPC   PO466264   7.247  38.321   5.344
 5212POPC   GL166265   7.316  38.557   5.734
 5212POPC   GL266266   7.664  38.464   5.775
 5212POPC   C1A66267   7.231  38.436   6.181
 5212POPC   D2A66268   7.302  38.246   6.610
 5212POPC   C3A66269   7.412  38.535   6.970
 5212POPC   C4A66270   7.438  38.243   7.352
 5212POPC   C1B66271   7.712  38.612   6.191
 5212POPC   C2B66272   7.779  38.415   6.585
 5212POPC   C3B66273   7.839  38.272   7.006
 5212POPC   C4B66274   7.787  38.585   7.320
 5213POPC   NC366275  33.011   1.427   5.505
 5213POPC   PO466276  33.417   0.840   5.412
 5213POPC   GL166277  33.261   1.048   5.753
 5213POPC   GL266278  32.910   0.980   5.760
 5213POPC   C1A66279  33.231   1.282   6.143
 5213POPC   D2A66280  33.408   1.253   6.556
 5213POPC   C3A66281  33.232   1.040   6.896
 5213POPC   C4A66282  33.108   1.272   7.274
 5213POPC   C1B66283  32.715   1.059   6.179
 5213POPC   C2B66284  32.807   1.172   6.631
 5213POPC   C3B66285  32.726   1.005   7.073
 5213POPC   C4B66286  32.787   1.003   7.555
 5214POPC   NC366287  28.832  15.955   5.337
 5214POPC   PO466288  29.490  16.207   5.474
 5214POPC   GL166289  29.312  16.088   5.853
 5214POPC   GL266290  28.979  16.129   5.808
 5214POPC   C1A66291  29.197  15.897   6.245
 5214POPC   D2A66292  29.354  15.828   6.677
 5214POPC   C3A66293  29.138  15.804   7.121
 5214POPC   C4A66294  29.214  15.934   7.596
 5214POPC   C1B66295  29.060  16.413   6.148
 5214POPC   C2B66296  29.247  16.346   6.512
 5214POPC   C3B66297  29.185  16.293   6.913
 5214POPC   C4B66298  29.090  16.317   7.319
 5215POPC   NC366299  18.910  21.311   5.426
 5215POPC   PO466300  19.307  21.827   5.422
 5215POPC   GL166301  19.201  21.594   5.779
 5215POPC   GL266302  19.382  21.350   5.782
 5215POPC   C1A66303  19.107  21.544   6.233
 5215POPC   D2A66304  18.992  21.332   6.643
 5215POPC   C3A66305  18.869  21.481   7.004
 5215POPC   C4A66306  19.083  21.719   7.291
 5215POPC   C1B66307  19.551  21.125   6.091
 5215POPC   C2B66308  19.451  21.158   6.496
 5215POPC   C3B66309  19.281  20.951   6.828
 5215POPC   C4B66310  19.206  21.165   7.222
 5216POPC   NC366311  19.394  22.272   5.560
 5216POPC   PO466312  19.948  22.582   5.318
 5216POPC   GL166313  19.916  22.222   5.658
 5216POPC   GL266314  19.742  21.902   5.717
 5216POPC   C1A66315  19.730  22.255   6.105
 5216POPC   D2A66316  19.716  22.176   6.547
 5216POPC   C3A66317  20.048  22.261   6.836
 5216POPC   C4A66318  19.820  22.252   7.208
 5216POPC   C1B66319  20.054  21.885   6.101
 5216POPC   C2B66320  20.105  21.849   6.543
 5216POPC   C3B66321  19.849  21.788   6.932
 5216POPC   C4B66322  19.991  21.779   7.363
 5217POPC   NC366323  11.863  19.751   5.457
 5217POPC   PO466324  11.532  20.225   5.651
 5217POPC   GL166325  11.894  20.109   5.829
 5217POPC   GL266326  11.806  20.273   6.107
 5217POPC   C1A66327  12.181  19.857   6.093
 5217POPC   D2A66328  12.117  19.532   6.433
 5217POPC   C3A66329  12.133  19.622   6.890
 5217POPC   C4A66330  12.258  19.664   7.344
 5217POPC   C1B66331  11.741  19.908   6.358
 5217POPC   C2B66332  11.688  19.888   6.805
 5217POPC   C3B66333  11.774  19.789   7.255
 5217POPC   C4B66334  11.532  19.689   7.632
 5218POPC   NC366335  40.368  22.841   5.289
 5218POPC   PO466336  40.961  23.006   5.387
 5218POPC   GL166337  40.687  23.027   5.696
 5218POPC   GL266338  40.621  22.695   5.741
 5218POPC   C1A66339  40.867  23.014   6.107
 5218POPC   D2A66340  41.060  22.832   6.468
 5218POPC   C3A66341  40.964  23.149   6.795
 5218POPC   C4A66342  40.712  23.097   7.156
 5218POPC   C1B66343  40.838  22.508   6.084
 5218POPC   C2B66344  40.709  22.442   6.498
 5218POPC   C3B66345  40.796  22.660   6.879
 5218POPC   C4B66346  40.689  22.612   7.292
 5219POPC   NC366347  31.899  11.525   5.424
 5219POPC   PO466348  32.366  11.089   5.290
 5219POPC   GL166349  32.209  11.249   5.710
 5219POPC   GL266350  32.312  11.572   5.799
 5219POPC   C1A66351  32.165  11.217   6.161
 5219POPC   D2A66352  32.376  11.237   6.563
 5219POPC   C3A66353  32.191  11.339   6.983
 5219POPC   C4A66354  32.523  11.114   7.125
 5219POPC   C1B66355  32.384  11.678   6.239
 5219POPC   C2B66356  32.309  11.736   6.674
 5219POPC   C3B66357  32.574  11.725   7.021
 5219POPC   C4B66358  32.521  11.603   7.411
 5220POPC   NC366359  31.033  25.553   5.408
 5220POPC   PO466360  31.615  25.237   5.537
 5220POPC   GL166361  31.714  25.196   5.928
 5220POPC   GL266362  31.383  25.336   6.006
 5220POPC   C1A66363  31.698  25.150   6.374
 5220POPC   D2A66364  31.273  25.216   6.517
 5220POPC   C3A66365  31.275  25.293   6.956
 5220POPC   C4A66366  31.632  25.174   7.161
 5220POPC   C1B66367  31.233  25.681   6.275
 5220POPC   C2B66368  31.145  25.732   6.690
 5220POPC   C3B66369  31.268  25.787   7.109
 5220POPC   C4B66370  31.365  25.517   7.449
 5221POPC   NC366371  27.973   7.067   5.292
 5221POPC   PO466372  28.193   7.673   5.400
 5221POPC   GL166373  28.224   7.315   5.691
 5221POPC   GL266374  28.545   7.151   5.814
 5221POPC   C1A66375  28.161   7.312   6.150
 5221POPC   D2A66376  28.252   7.606   6.511
 5221POPC   C3A66377  28.127   7.545   6.965
 5221POPC   C4A66378  28.264   7.188   7.237
 5221POPC   C1B66379  28.613   7.554   6.054
 5221POPC   C2B66380  28.748   7.810   6.417
 5221POPC   C3B66381  28.661   7.817   6.863
 5221POPC   C4B66382  28.553   7.621   7.261
 5222POPC   NC366383  23.536  13.864   5.272
 5222POPC   PO466384  23.628  14.489   5.422
 5222POPC   GL166385  23.874  14.313   5.757
 5222POPC   GL266386  24.079  14.587   5.724
 5222POPC   C1A66387  23.946  14.130   6.177
 5222POPC   D2A66388  23.717  14.239   6.550
 5222POPC   C3A66389  23.879  14.399   6.940
 5222POPC   C4A66390  23.552  14.678   7.104
 5222POPC   C1B66391  23.965  14.666   6.174
 5222POPC   C2B66392  23.916  14.805   6.630
 5222POPC   C3B66393  24.022  14.862   7.086
 5222POPC   C4B66394  23.882  14.628   7.491
 5223POPC   NC366395   7.505  14.963   5.302
 5223POPC   PO466396   7.080  15.443   5.366
 5223POPC   GL166397   7.301  15.206   5.739
 5223POPC   GL266398   7.611  15.379   5.838
 5223POPC   C1A66399   7.149  15.169   6.207
 5223POPC   D2A66400   6.974  15.025   6.630
 5223POPC   C3A66401   7.037  15.273   7.046
 5223POPC   C4A66402   7.104  15.450   7.488
 5223POPC   C1B66403   7.621  15.465   6.284
 5223POPC   C2B66404   7.683  15.237   6.682
 5223POPC   C3B66405   7.578  15.198   7.132
 5223POPC   C4B66406   7.610  15.291   7.574
 5224POPC   NC366407  24.843   8.027   5.472
 5224POPC   PO466408  24.316   8.405   5.494
 5224POPC   GL166409  24.468   8.188   5.808
 5224POPC   GL266410  24.771   8.307   5.901
 5224POPC   C1A66411  24.367   8.067   6.213
 5224POPC   D2A66412  24.263   8.282   6.578
 5224POPC   C3A66413  24.360   8.019   6.943
 5224POPC   C4A66414  24.391   7.983   7.383
 5224POPC   C1B66415  24.510   8.568   6.176
 5224POPC   C2B66416  24.628   8.666   6.574
 5224POPC   C3B66417  24.554   8.497   6.936
 5224POPC   C4B66418  24.585   8.435   7.321
 5225POPC   NC366419  23.898  25.363   5.566
 5225POPC   PO466420  23.460  24.898   5.333
 5225POPC   GL166421  23.459  25.136   5.784
 5225POPC   GL266422  23.554  25.452   6.000
 5225POPC   C1A66423  23.506  25.006   6.246
 5225POPC   D2A66424  23.323  25.000   6.662
 5225POPC   C3A66425  23.516  25.119   7.031
 5225POPC   C4A66426  23.708  24.859   7.331
 5225POPC   C1B66427  23.914  25.341   6.255
 5225POPC   C2B66428  23.896  25.259   6.676
 5225POPC   C3B66429  24.056  25.106   7.038
 5225POPC   C4B66430  23.861  25.408   7.296
 5226POPC   NC366431  28.279   0.404   5.403
 5226POPC   PO466432  27.986   0.835   5.879
 5226POPC   GL166433  28.287   0.570   5.869
 5226POPC   GL266434  28.062   0.272   5.836
 5226POPC   C1A66435  28.623   0.572   6.158
 5226POPC   D2A66436  28.657   0.844   6.531
 5226POPC   C3A66437  28.578   0.681   6.970
 5226POPC   C4A66438  28.190   0.777   7.211
 5226POPC   C1B66439  28.221   0.248   6.249
 5226POPC   C2B66440  28.022   0.356   6.620
 5226POPC   C3B66441  28.051   0.207   7.030
 5226POPC   C4B66442  28.372   0.118   7.268
 5227POPC   NC366443  41.032  43.505   5.068
 5227POPC   PO466444  40.592  43.666   5.495
 5227POPC   GL166445  40.876  43.868   5.762
 5227POPC   GL266446  40.759  44.189   5.810
 5227POPC   C1A66447  40.916  43.882   6.210
 5227POPC   D2A66448  41.215  43.986   6.522
 5227POPC   C3A66449  41.084  43.846   6.908
 5227POPC   C4A66450  40.635  43.779   7.048
 5227POPC   C1B66451  40.533  44.219   6.209
 5227POPC   C2B66452  40.525  44.012   6.590
 5227POPC   C3B66453  40.224  44.071   6.910
 5227POPC   C4B66454  40.382  44.203   7.281
 5228POPC   NC366455   6.416  43.986   5.301
 5228POPC   PO466456   5.764  44.114   5.205
 5228POPC   GL166457   5.835  43.998   5.677
 5228POPC   GL266458   6.163  43.837   5.795
 5228POPC   C1A66459   5.615  43.962   6.103
 5228POPC   D2A66460   5.651  43.759   6.539
 5228POPC   C3A66461   5.623  43.881   6.998
 5228POPC   C4A66462   5.732  43.679   7.415
 5228POPC   C1B66463   6.111  43.925   6.261
 5228POPC   C2B66464   6.076  44.003   6.719
 5228POPC   C3B66465   6.147  43.868   7.150
 5228POPC   C4B66466   6.104  44.030   7.586
 5229POPC   NC366467  29.512  43.949   5.272
 5229POPC   PO466468  28.944  44.224   5.477
 5229POPC   GL166469  29.043  43.894   5.733
 5229POPC   GL266470  29.403  43.953   5.806
 5229POPC   C1A66471  28.907  43.765   6.121
 5229POPC   D2A66472  28.870  43.943   6.525
 5229POPC   C3A66473  28.702  43.763   6.888
 5229POPC   C4A66474  28.917  43.717   7.272
 5229POPC   C1B66475  29.207  44.183   6.164
 5229POPC   C2B66476  29.314  44.211   6.580
 5229POPC   C3B66477  29.180  44.036   6.933
 5229POPC   C4B66478  29.183  44.170   7.329
 5230POPC   NC366479  26.049   3.023   5.494
 5230POPC   PO466480  25.874   2.373   5.361
 5230POPC   GL166481  26.050   2.507   5.757
 5230POPC   GL266482  26.377   2.687   5.829
 5230POPC   C1A66483  26.010   2.560   6.213
 5230POPC   D2A66484  25.990   2.615   6.675
 5230POPC   C3A66485  26.224   2.485   7.046
 5230POPC   C4A66486  26.131   2.678   7.447
 5230POPC   C1B66487  26.501   2.682   6.314
 5230POPC   C2B66488  26.506   2.819   6.771
 5230POPC   C3B66489  26.618   2.817   7.245
 5230POPC   C4B66490  26.471   3.024   7.657
 5231POPC   NC366491   7.544  36.248   5.406
 5231POPC   PO466492   7.107  35.730   5.434
 5231POPC   GL166493   7.291  36.003   5.773
 5231POPC   GL266494   7.086  36.270   5.704
 5231POPC   C1A66495   7.423  36.238   6.186
 5231POPC   D2A66496   7.670  36.379   6.595
 5231POPC   C3A66497   7.562  36.267   7.026
 5231POPC   C4A66498   7.200  36.093   7.227
 5231POPC   C1B66499   7.017  36.548   6.053
 5231POPC   C2B66500   7.141  36.569   6.487
 5231POPC   C3B66501   7.105  36.516   6.923
 5231POPC   C4B66502   7.207  36.584   7.357
 5232POPC   NC366503  20.421  13.888   5.028
 5232POPC   PO466504  20.170  13.413   5.442
 5232POPC   GL166505  19.833  13.451   5.715
 5232POPC   GL266506  19.544  13.238   5.704
 5232POPC   C1A66507  19.808  13.563   6.151
 5232POPC   D2A66508  19.820  13.866   6.500
 5232POPC   C3A66509  19.779  13.713   6.926
 5232POPC   C4A66510  19.982  13.700   7.314
 5232POPC   C1B66511  19.380  13.287   6.139
 5232POPC   C2B66512  19.544  13.388   6.562
 5232POPC   C3B66513  19.392  13.375   6.987
 5232POPC   C4B66514  19.544  13.445   7.418
 5233POPC   NC366515  23.292  35.159   5.325
 5233POPC   PO466516  22.822  35.630   5.343
 5233POPC   GL166517  22.866  35.350   5.727
 5233POPC   GL266518  23.065  35.020   5.755
 5233POPC   C1A66519  22.785  35.500   6.163
 5233POPC   D2A66520  22.599  35.468   6.560
 5233POPC   C3A66521  22.858  35.548   6.909
 5233POPC   C4A66522  22.883  35.501   7.354
 5233POPC   C1B66523  22.879  34.997   6.170
 5233POPC   C2B66524  22.975  35.125   6.605
 5233POPC   C3B66525  22.937  35.070   7.067
 5233POPC   C4B66526  22.836  34.988   7.494
 5234POPC   NC366527   3.788  37.597   5.597
 5234POPC   PO466528   3.312  38.007   5.498
 5234POPC   GL166529   3.408  37.775   5.900
 5234POPC   GL266530   3.346  37.411   5.871
 5234POPC   C1A66531   3.617  37.638   6.316
 5234POPC   D2A66532   3.850  37.615   6.729
 5234POPC   C3A66533   3.552  37.788   7.057
 5234POPC   C4A66534   3.104  37.934   7.068
 5234POPC   C1B66535   3.414  37.174   6.303
 5234POPC   C2B66536   3.440  37.298   6.766
 5234POPC   C3B66537   3.634  37.308   7.195
 5234POPC   C4B66538   3.831  37.376   7.639
 5235POPC   NC366539  44.923   4.204   5.454
 5235POPC   PO466540   0.499   4.523   5.483
 5235POPC   GL166541   0.541   4.345   5.847
 5235POPC   GL266542   0.222   4.166   5.911
 5235POPC   C1A66543   0.500   4.482   6.254
 5235POPC   D2A66544   0.443   4.275   6.618
 5235POPC   C3A66545   0.437   4.559   6.941
 5235POPC   C4A66546   0.327   4.531   7.347
 5235POPC   C1B66547   0.151   3.851   6.265
 5235POPC   C2B66548   0.267   3.772   6.704
 5235POPC   C3B66549   0.362   4.037   7.071
 5235POPC   C4B66550   0.342   4.055   7.522
 5236POPC   NC366551  13.554  33.571   5.598
 5236POPC   PO466552  13.390  33.171   5.189
 5236POPC   GL166553  13.538  33.055   5.683
 5236POPC   GL266554  13.859  32.837   5.703
 5236POPC   C1A66555  13.601  33.236   6.169
 5236POPC   D2A66556  13.705  33.448   6.611
 5236POPC   C3A66557  13.484  33.217   6.980
 5236POPC   C4A66558  13.402  33.180   7.442
 5236POPC   C1B66559  13.845  32.749   6.164
 5236POPC   C2B66560  13.813  32.947   6.605
 5236POPC   C3B66561  13.990  33.121   7.005
 5236POPC   C4B66562  13.954  33.108   7.476
 5237POPC   NC366563  24.439  31.064   5.505
 5237POPC   PO466564  24.731  30.433   5.477
 5237POPC   GL166565  24.374  30.438   5.773
 5237POPC   GL266566  24.113  30.651   5.767
 5237POPC   C1A66567  24.211  30.318   6.197
 5237POPC   D2A66568  24.340  30.551   6.564
 5237POPC   C3A66569  24.554  30.496   6.963
 5237POPC   C4A66570  24.820  30.841   7.141
 5237POPC   C1B66571  24.260  30.856   6.124
 5237POPC   C2B66572  24.145  31.030   6.513
 5237POPC   C3B66573  24.368  30.972   6.897
 5237POPC   C4B66574  24.323  30.905   7.329
 5238POPC   NC366575  12.742   0.901   5.667
 5238POPC   PO466576  12.867   1.508   5.450
 5238POPC   GL166577  12.994   1.527   5.880
 5238POPC   GL266578  13.054   1.156   5.977
 5238POPC   C1A66579  12.968   1.494   6.338
 5238POPC   D2A66580  13.012   1.216   6.661
 5238POPC   C3A66581  12.642   1.230   6.910
 5238POPC   C4A66582  12.704   1.314   7.351
 5238POPC   C1B66583  12.758   0.944   6.322
 5238POPC   C2B66584  12.771   0.752   6.742
 5238POPC   C3B66585  12.961   0.913   7.133
 5238POPC   C4B66586  12.819   0.865   7.593
 5239POPC   NC366587  11.255  24.058   5.672
 5239POPC   PO466588  11.441  24.634   5.446
 5239POPC   GL166589  11.350  24.719   5.898
 5239POPC   GL266590  11.185  24.421   6.014
 5239POPC   C1A66591  11.274  24.772   6.380
 5239POPC   D2A66592  11.078  24.378   6.516
 5239POPC   C3A66593  11.049  24.336   6.929
 5239POPC   C4A66594  11.308  24.634   7.065
 5239POPC   C1B66595  10.838  24.701   6.132
 5239POPC   C2B66596  10.703  24.745   6.577
 5239POPC   C3B66597  10.838  24.822   7.015
 5239POPC   C4B66598  10.973  24.684   7.466
 5240POPC   NC366599  39.834  27.327   5.476
 5240POPC   PO466600  40.175  27.887   5.473
 5240POPC   GL166601  39.920  27.748   5.837
 5240POPC   GL266602  39.961  27.397   5.952
 5240POPC   C1A66603  39.999  27.770   6.288
 5240POPC   D2A66604  40.176  27.740   6.701
 5240POPC   C3A66605  39.878  27.874   6.958
 5240POPC   C4A66606  39.751  27.783   7.363
 5240POPC   C1B66607  40.119  27.260   6.343
 5240POPC   C2B66608  40.145  27.214   6.776
 5240POPC   C3B66609  39.990  27.372   7.166
 5240POPC   C4B66610  39.711  27.186   7.489
 5241POPC   NC366611  36.396   6.925   5.625
 5241POPC   PO466612  35.908   7.382   5.417
 5241POPC   GL166613  36.069   7.430   5.795
 5241POPC   GL266614  36.387   7.404   5.769
 5241POPC   C1A66615  35.927   7.366   6.212
 5241POPC   D2A66616  35.838   7.422   6.630
 5241POPC   C3A66617  36.081   7.683   6.902
 5241POPC   C4A66618  36.195   7.532   7.301
 5241POPC   C1B66619  36.413   7.441   6.179
 5241POPC   C2B66620  36.452   7.553   6.574
 5241POPC   C3B66621  36.583   7.542   6.987
 5241POPC   C4B66622  36.531   7.168   7.269
 5242POPC   NC366623  39.429  39.694   5.403
 5242POPC   PO466624  38.784  39.882   5.487
 5242POPC   GL166625  39.142  39.787   5.811
 5242POPC   GL266626  39.349  40.077   5.796
 5242POPC   C1A66627  39.384  39.723   6.253
 5242POPC   D2A66628  39.400  39.910   6.696
 5242POPC   C3A66629  39.496  39.814   7.136
 5242POPC   C4A66630  39.423  40.088   7.499
 5242POPC   C1B66631  39.083  40.128   6.183
 5242POPC   C2B66632  39.032  40.299   6.594
 5242POPC   C3B66633  39.022  40.131   7.004
 5242POPC   C4B66634  38.991  39.866   7.346
 5243POPC   NC366635  42.305   1.095   5.433
 5243POPC   PO466636  42.856   1.506   5.381
 5243POPC   GL166637  42.639   1.389   5.817
 5243POPC   GL266638  42.519   1.055   5.878
 5243POPC   C1A66639  42.687   1.272   6.299
 5243POPC   D2A66640  42.705   0.863   6.565
 5243POPC   C3A66641  42.578   0.941   6.996
 5243POPC   C4A66642  42.589   1.328   7.224
 5243POPC   C1B66643  42.190   1.193   6.187
 5243POPC   C2B66644  42.230   1.109   6.621
 5243POPC   C3B66645  42.157   1.356   6.989
 5243POPC   C4B66646  41.906   1.370   7.338
 5244POPC   NC366647  24.004   6.921   5.543
 5244POPC   PO466648  23.868   6.281   5.544
 5244POPC   GL166649  23.636   6.329   5.896
 5244POPC   GL266650  23.746   6.681   5.974
 5244POPC   C1A66651  23.442   6.408   6.298
 5244POPC   D2A66652  23.611   6.596   6.673
 5244POPC   C3A66653  23.487   6.413   7.056
 5244POPC   C4A66654  23.353   6.640   7.416
 5244POPC   C1B66655  23.787   6.974   6.357
 5244POPC   C2B66656  23.842   7.057   6.815
 5244POPC   C3B66657  23.800   6.828   7.208
 5244POPC   C4B66658  24.021   6.819   7.601
 5245POPC   NC366659  21.272  10.948   5.174
 5245POPC   PO466660  21.831  10.614   5.387
 5245POPC   GL166661  21.613  10.385   5.746
 5245POPC   GL266662  21.252  10.506   5.699
 5245POPC   C1A66663  21.509  10.556   6.160
 5245POPC   D2A66664  21.469  10.840   6.538
 5245POPC   C3A66665  21.518  10.568   6.881
 5245POPC   C4A66666  21.685  10.516   7.297
 5245POPC   C1B66667  21.008  10.582   6.116
 5245POPC   C2B66668  21.034  10.569   6.584
 5245POPC   C3B66669  21.073  10.840   6.970
 5245POPC   C4B66670  21.296  10.834   7.355
 5246POPC   NC366671  40.682  19.452   5.525
 5246POPC   PO466672  40.898  20.093   5.411
 5246POPC   GL166673  40.944  19.887   5.784
 5246POPC   GL266674  40.601  19.872   5.803
 5246POPC   C1A66675  40.850  20.032   6.202
 5246POPC   D2A66676  40.483  20.009   6.450
 5246POPC   C3A66677  40.661  20.046   6.860
 5246POPC   C4A66678  40.876  20.148   7.262
 5246POPC   C1B66679  40.733  19.540   6.156
 5246POPC   C2B66680  40.572  19.535   6.574
 5246POPC   C3B66681  40.574  19.573   7.016
 5246POPC   C4B66682  40.300  19.677   7.340
 5247POPC   NC366683   7.004   1.875   5.573
 5247POPC   PO466684   6.456   2.173   5.308
 5247POPC   GL166685   6.516   2.161   5.764
 5247POPC   GL266686   6.819   2.350   5.761
 5247POPC   C1A66687   6.551   2.028   6.222
 5247POPC   D2A66688   6.539   2.298   6.613
 5247POPC   C3A66689   6.435   2.056   6.968
 5247POPC   C4A66690   6.799   1.803   7.054
 5247POPC   C1B66691   7.015   2.317   6.195
 5247POPC   C2B66692   7.124   2.200   6.634
 5247POPC   C3B66693   7.073   2.269   7.076
 5247POPC   C4B66694   6.995   2.307   7.537
 5248POPC   NC366695  29.402  22.588   5.473
 5248POPC   PO466696  28.945  23.081   5.455
 5248POPC   GL166697  29.205  22.972   5.777
 5248POPC   GL266698  28.980  22.669   5.774
 5248POPC   C1A66699  29.386  22.964   6.183
 5248POPC   D2A66700  29.103  22.955   6.524
 5248POPC   C3A66701  29.282  22.892   6.874
 5248POPC   C4A66702  29.343  22.952   7.267
 5248POPC   C1B66703  29.057  22.553   6.190
 5248POPC   C2B66704  28.985  22.365   6.584
 5248POPC   C3B66705  29.157  22.392   6.964
 5248POPC   C4B66706  29.003  22.539   7.303
 5249POPC   NC366707   6.832  32.606   5.450
 5249POPC   PO466708   6.529  32.035   5.320
 5249POPC   GL166709   6.634  32.172   5.762
 5249POPC   GL266710   6.529  32.500   5.873
 5249POPC   C1A66711   6.716  32.108   6.194
 5249POPC   D2A66712   6.812  32.007   6.611
 5249POPC   C3A66713   6.731  32.348   6.855
 5249POPC   C4A66714   6.743  32.224   7.267
 5249POPC   C1B66715   6.217  32.601   6.173
 5249POPC   C2B66716   6.115  32.723   6.572
 5249POPC   C3B66717   6.255  32.611   6.956
 5249POPC   C4B66718   6.608  32.710   7.189
 5250POPC   NC366719  39.777  38.017   5.613
 5250POPC   PO466720  40.098  37.456   5.433
 5250POPC   GL166721  40.039  37.620   5.816
 5250POPC   GL266722  40.247  37.895   5.807
 5250POPC   C1A66723  40.119  37.568   6.239
 5250POPC   D2A66724  40.309  37.483   6.608
 5250POPC   C3A66725  40.087  37.501   6.947
 5250POPC   C4A66726  40.219  37.691   7.285
 5250POPC   C1B66727  40.143  38.074   6.221
 5250POPC   C2B66728  40.018  37.941   6.624
 5250POPC   C3B66729  39.861  37.961   7.041
 5250POPC   C4B66730  40.042  38.131   7.435
 5251POPC   NC366731   5.288  11.178   5.426
 5251POPC   PO466732   4.613  11.273   5.508
 5251POPC   GL166733   4.980  11.386   5.821
 5251POPC   GL266734   5.369  11.534   5.783
 5251POPC   C1A66735   5.202  11.192   6.166
 5251POPC   D2A66736   5.409  11.313   6.546
 5251POPC   C3A66737   5.202  11.166   6.920
 5251POPC   C4A66738   5.426  11.186   7.282
 5251POPC   C1B66739   5.293  11.708   6.194
 5251POPC   C2B66740   5.405  11.829   6.588
 5251POPC   C3B66741   5.348  11.650   6.988
 5251POPC   C4B66742   5.010  11.659   7.237
 5252POPC   NC366743  29.555  18.327   5.284
 5252POPC   PO466744  30.165  18.142   5.346
 5252POPC   GL166745  30.159  18.245   5.809
 5252POPC   GL266746  30.049  18.550   5.853
 5252POPC   C1A66747  29.931  18.227   6.233
 5252POPC   D2A66748  29.937  18.031   6.618
 5252POPC   C3A66749  29.620  18.051   6.902
 5252POPC   C4A66750  29.823  18.309   7.197
 5252POPC   C1B66751  29.863  18.729   6.208
 5252POPC   C2B66752  29.958  18.616   6.643
 5252POPC   C3B66753  29.898  18.814   7.054
 5252POPC   C4B66754  29.977  18.722   7.505
 5253POPC   NC366755   3.943  20.973   5.410
 5253POPC   PO466756   4.420  20.571   5.456
 5253POPC   GL166757   4.158  20.685   5.805
 5253POPC   GL266758   4.119  20.336   5.854
 5253POPC   C1A66759   3.956  20.631   6.225
 5253POPC   D2A66760   4.057  20.393   6.601
 5253POPC   C3A66761   4.015  20.636   7.006
 5253POPC   C4A66762   4.296  20.911   7.247
 5253POPC   C1B66763   4.455  20.422   6.159
 5253POPC   C2B66764   4.609  20.180   6.513
 5253POPC   C3B66765   4.697  20.335   6.915
 5253POPC   C4B66766   4.463  20.455   7.229
 5254POPC   NC366767  22.402  26.592   5.437
 5254POPC   PO466768  21.751  26.878   5.446
 5254POPC   GL166769  22.058  27.011   5.712
 5254POPC   GL266770  22.174  26.726   5.873
 5254POPC   C1A66771  22.025  27.118   6.153
 5254POPC   D2A66772  21.971  26.871   6.506
 5254POPC   C3A66773  22.108  26.993   6.907
 5254POPC   C4A66774  22.078  26.753   7.283
 5254POPC   C1B66775  22.438  26.780   6.236
 5254POPC   C2B66776  22.404  26.629   6.649
 5254POPC   C3B66777  22.541  26.707   7.054
 5254POPC   C4B66778  22.499  26.491   7.433
 5255POPC   NC366779   2.194  33.281   5.234
 5255POPC   PO466780   1.837  32.815   5.512
 5255POPC   GL166781   2.114  33.103   5.734
 5255POPC   GL266782   2.403  32.956   5.901
 5255POPC   C1A66783   1.956  33.181   6.143
 5255POPC   D2A66784   1.735  33.249   6.521
 5255POPC   C3A66785   2.008  33.231   6.869
 5255POPC   C4A66786   1.905  32.995   7.201
 5255POPC   C1B66787   2.288  32.870   6.336
 5255POPC   C2B66788   2.150  32.753   6.753
 5255POPC   C3B66789   2.385  32.854   7.108
 5255POPC   C4B66790   2.255  32.867   7.560
 5256POPC   NC366791  16.363   3.565   5.416
 5256POPC   PO466792  15.859   3.215   5.034
 5256POPC   GL166793  15.909   3.309   5.554
 5256POPC   GL266794  15.659   3.469   5.794
 5256POPC   C1A66795  16.176   3.251   5.964
 5256POPC   D2A66796  16.194   3.099   6.417
 5256POPC   C3A66797  16.322   3.373   6.774
 5256POPC   C4A66798  16.192   3.716   7.059
 5256POPC   C1B66799  15.716   3.228   6.200
 5256POPC   C2B66800  15.796   3.351   6.638
 5256POPC   C3B66801  15.681   3.516   7.035
 5256POPC   C4B66802  15.588   3.317   7.416
 5257POPC   NC366803  17.172  13.465   4.998
 5257POPC   PO466804  16.558  13.260   5.275
 5257POPC   GL166805  16.598  13.533   5.664
 5257POPC   GL266806  16.877  13.809   5.650
 5257POPC   C1A66807  16.569  13.400   6.105
 5257POPC   D2A66808  16.320  13.443   6.488
 5257POPC   C3A66809  16.512  13.311   6.856
 5257POPC   C4A66810  16.712  13.270   7.251
 5257POPC   C1B66811  16.866  13.832   6.126
 5257POPC   C2B66812  16.870  13.576   6.520
 5257POPC   C3B66813  16.846  13.672   6.964
 5257POPC   C4B66814  16.492  13.711   7.244
 5258POPC   NC366815   3.085  13.112   5.322
 5258POPC   PO466816   3.665  12.767   5.282
 5258POPC   GL166817   3.611  12.952   5.683
 5258POPC   GL266818   3.552  12.645   5.867
 5258POPC   C1A66819   3.777  13.096   6.097
 5258POPC   D2A66820   3.940  12.990   6.515
 5258POPC   C3A66821   3.683  13.093   6.899
 5258POPC   C4A66822   3.577  12.892   7.300
 5258POPC   C1B66823   3.530  12.697   6.332
 5258POPC   C2B66824   3.378  12.621   6.753
 5258POPC   C3B66825   3.284  12.460   7.174
 5258POPC   C4B66826   3.336  12.540   7.629
 5259POPC   NC366827  32.020  25.392   5.406
 5259POPC   PO466828  32.585  25.092   5.343
 5259POPC   GL166829  32.298  25.095   5.728
 5259POPC   GL266830  32.032  24.848   5.682
 5259POPC   C1A66831  32.160  25.378   6.087
 5259POPC   D2A66832  32.139  25.569   6.510
 5259POPC   C3A66833  32.053  25.328   6.883
 5259POPC   C4A66834  32.242  25.353   7.295
 5259POPC   C1B66835  32.063  24.874   6.140
 5259POPC   C2B66836  32.268  25.040   6.516
 5259POPC   C3B66837  32.258  24.889   6.978
 5259POPC   C4B66838  31.988  24.858   7.337
 5260POPC   NC366839  12.184  16.071   5.436
 5260POPC   PO466840  11.863  16.593   5.542
 5260POPC   GL166841  11.931  16.186   5.876
 5260POPC   GL266842  12.298  16.026   5.919
 5260POPC   C1A66843  11.986  15.873   6.292
 5260POPC   D2A66844  11.896  15.781   6.755
 5260POPC   C3A66845  11.899  16.089   7.106
 5260POPC   C4A66846  12.298  16.269   7.278
 5260POPC   C1B66847  12.519  15.818   6.254
 5260POPC   C2B66848  12.416  15.680   6.664
 5260POPC   C3B66849  12.256  15.640   7.072
 5260POPC   C4B66850  11.879  15.476   7.245
 5261POPC   NC366851   4.164  23.476   5.494
 5261POPC   PO466852   4.609  23.888   5.231
 5261POPC   GL166853   4.407  23.854   5.751
 5261POPC   GL266854   4.043  23.755   5.880
 5261POPC   C1A66855   4.403  23.742   6.241
 5261POPC   D2A66856   4.603  23.646   6.676
 5261POPC   C3A66857   4.370  23.812   7.061
 5261POPC   C4A66858   4.112  24.094   7.304
 5261POPC   C1B66859   3.895  23.594   6.262
 5261POPC   C2B66860   4.076  23.660   6.669
 5261POPC   C3B66861   4.172  23.359   7.015
 5261POPC   C4B66862   3.948  23.430   7.397
 5262POPC   NC366863  25.195  41.162   5.398
 5262POPC   PO466864  24.808  40.557   5.520
 5262POPC   GL166865  25.092  40.621   5.827
 5262POPC   GL266866  25.269  40.334   5.870
 5262POPC   C1A66867  25.244  40.820   6.196
 5262POPC   D2A66868  25.202  41.152   6.478
 5262POPC   C3A66869  25.237  40.958   6.880
 5262POPC   C4A66870  25.399  40.855   7.298
 5262POPC   C1B66871  25.096  40.302   6.261
 5262POPC   C2B66872  25.313  40.452   6.613
 5262POPC   C3B66873  25.166  40.473   7.024
 5262POPC   C4B66874  24.951  40.462   7.403
 5263POPC   NC366875  23.986  30.298   5.430
 5263POPC   PO466876  23.979  31.017   5.430
 5263POPC   GL166877  23.681  30.935   5.762
 5263POPC   GL266878  23.591  30.586   5.754
 5263POPC   C1A66879  23.752  30.835   6.197
 5263POPC   D2A66880  23.583  30.886   6.592
 5263POPC   C3A66881  23.870  30.840   6.914
 5263POPC   C4A66882  23.769  30.753   7.327
 5263POPC   C1B66883  23.706  30.342   6.100
 5263POPC   C2B66884  23.724  30.405   6.552
 5263POPC   C3B66885  23.804  30.345   7.002
 5263POPC   C4B66886  24.193  30.215   7.220
 5264POPC   NC366887   3.732  13.881   5.323
 5264POPC   PO466888   3.145  13.600   5.229
 5264POPC   GL166889   3.259  13.484   5.650
 5264POPC   GL266890   3.071  13.732   5.814
 5264POPC   C1A66891   3.564  13.564   6.012
 5264POPC   D2A66892   3.585  13.789   6.429
 5264POPC   C3A66893   3.713  13.631   6.861
 5264POPC   C4A66894   3.464  13.813   7.202
 5264POPC   C1B66895   3.094  13.433   6.155
 5264POPC   C2B66896   3.361  13.299   6.505
 5264POPC   C3B66897   3.270  13.406   6.930
 5264POPC   C4B66898   3.191  13.387   7.345
 5265POPC   NC366899  38.982  27.849   5.503
 5265POPC   PO466900  39.363  27.359   5.461
 5265POPC   GL166901  39.383  27.659   5.809
 5265POPC   GL266902  39.141  27.928   5.962
 5265POPC   C1A66903  39.521  27.580   6.213
 5265POPC   D2A66904  39.703  27.513   6.637
 5265POPC   C3A66905  39.414  27.669   6.978
 5265POPC   C4A66906  39.082  27.922   7.251
 5265POPC   C1B66907  38.991  27.628   6.197
 5265POPC   C2B66908  39.152  27.490   6.579
 5265POPC   C3B66909  38.904  27.563   6.946
 5265POPC   C4B66910  38.844  27.406   7.365
 5266POPC   NC366911   1.711  23.110   5.332
 5266POPC   PO466912   0.999  23.136   5.426
 5266POPC   GL166913   1.260  23.067   5.788
 5266POPC   GL266914   1.396  22.743   5.765
 5266POPC   C1A66915   1.276  23.142   6.244
 5266POPC   D2A66916   1.482  23.202   6.650
 5266POPC   C3A66917   1.259  23.045   7.032
 5266POPC   C4A66918   0.908  22.745   7.134
 5266POPC   C1B66919   1.173  22.627   6.144
 5266POPC   C2B66920   1.327  22.711   6.572
 5266POPC   C3B66921   1.388  22.543   6.974
 5266POPC   C4B66922   1.545  22.747   7.359
 5267POPC   NC366923  30.020  32.121   5.396
 5267POPC   PO466924  29.649  31.631   5.738
 5267POPC   GL166925  30.020  31.945   5.858
 5267POPC   GL266926  29.917  32.299   5.882
 5267POPC   C1A66927  30.264  32.023   6.239
 5267POPC   D2A66928  30.179  32.234   6.644
 5267POPC   C3A66929  29.957  32.087   7.024
 5267POPC   C4A66930  30.091  32.037   7.467
 5267POPC   C1B66931  29.766  32.162   6.315
 5267POPC   C2B66932  29.707  32.420   6.714
 5267POPC   C3B66933  29.864  32.573   7.126
 5267POPC   C4B66934  29.726  32.384   7.538
 5268POPC   NC366935   0.659  37.552   5.590
 5268POPC   PO466936  44.991  37.718   5.477
 5268POPC   GL166937   0.224  37.666   5.838
 5268POPC   GL266938   0.412  37.963   5.857
 5268POPC   C1A66939   0.382  37.610   6.256
 5268POPC   D2A66940   0.258  37.822   6.676
 5268POPC   C3A66941   0.304  37.610   7.091
 5268POPC   C4A66942   0.382  37.886   7.407
 5268POPC   C1B66943   0.750  37.953   6.173
 5268POPC   C2B66944   0.743  37.769   6.574
 5268POPC   C3B66945   0.721  37.875   6.972
 5268POPC   C4B66946   0.853  37.696   7.335
 5269POPC   NC366947  30.106  20.840   5.463
 5269POPC   PO466948  29.652  20.234   5.394
 5269POPC   GL166949  29.817  20.443   5.759
 5269POPC   GL266950  29.671  20.786   5.732
 5269POPC   C1A66951  30.117  20.510   6.127
 5269POPC   D2A66952  30.313  20.638   6.514
 5269POPC   C3A66953  30.205  20.452   6.920
 5269POPC   C4A66954  30.161  20.709   7.300
 5269POPC   C1B66955  29.675  20.744   6.169
 5269POPC   C2B66956  29.824  20.565   6.556
 5269POPC   C3B66957  29.868  20.843   6.910
 5269POPC   C4B66958  29.673  20.833   7.321
 5270POPC   NC366959   6.486  41.104   5.590
 5270POPC   PO466960   6.975  41.502   5.708
 5270POPC   GL166961   6.661  41.447   5.924
 5270POPC   GL266962   6.592  41.806   5.890
 5270POPC   C1A66963   6.696  41.214   6.287
 5270POPC   D2A66964   6.857  41.413   6.642
 5270POPC   C3A66965   6.701  41.285   7.038
 5270POPC   C4A66966   6.475  41.197   7.380
 5270POPC   C1B66967   6.584  41.749   6.324
 5270POPC   C2B66968   6.506  41.918   6.677
 5270POPC   C3B66969   6.771  41.809   6.955
 5270POPC   C4B66970   6.923  41.711   7.327
 5271POPC   NC366971  11.149  30.054   5.162
 5271POPC   PO466972  11.662  29.626   5.383
 5271POPC   GL166973  11.526  29.911   5.665
 5271POPC   GL266974  11.856  30.063   5.790
 5271POPC   C1A66975  11.166  29.913   5.979
 5271POPC   D2A66976  11.014  29.996   6.424
 5271POPC   C3A66977  11.232  29.784   6.784
 5271POPC   C4A66978  11.350  29.839   7.232
 5271POPC   C1B66979  11.640  29.982   6.155
 5271POPC   C2B66980  11.724  30.003   6.555
 5271POPC   C3B66981  11.639  30.133   6.933
 5271POPC   C4B66982  11.798  30.136   7.315
 5272POPC   NC366983  27.703  23.425   5.496
 5272POPC   PO466984  27.947  22.747   5.522
 5272POPC   GL166985  27.794  22.816   5.914
 5272POPC   GL266986  27.575  23.100   5.878
 5272POPC   C1A66987  27.501  22.733   6.237
 5272POPC   D2A66988  27.477  22.883   6.662
 5272POPC   C3A66989  27.612  22.733   7.060
 5272POPC   C4A66990  28.000  22.758   7.264
 5272POPC   C1B66991  27.654  23.230   6.306
 5272POPC   C2B66992  27.557  23.384   6.742
 5272POPC   C3B66993  27.647  23.244   7.182
 5272POPC   C4B66994  27.474  23.435   7.600
 5273POPC   NC366995  20.146  11.979   5.693
 5273POPC   PO466996  20.627  12.031   5.196
 5273POPC   GL166997  20.743  12.277   5.651
 5273POPC   GL266998  20.464  12.353   5.870
 5273POPC   C1A66999  20.911  12.210   6.108
 5273POPC   D2A67000  20.871  12.008   6.541
 5273POPC   C3A67001  20.676  12.286   6.902
 5273POPC   C4A67002  20.736  12.571   7.290
 5273POPC   C1B67003  20.415  12.143   6.297
 5273POPC   C2B67004  20.395  11.909   6.674
 5273POPC   C3B67005  20.679  11.782   6.998
 5273POPC   C4B67006  20.572  12.011   7.367
 5274POPC   NC367007   6.711   4.825   5.466
 5274POPC   PO467008   6.353   5.337   5.260
 5274POPC   GL167009   6.521   5.254   5.701
 5274POPC   GL267010   6.317   4.948   5.787
 5274POPC   C1A67011   6.726   5.337   6.143
 5274POPC   D2A67012   6.840   5.396   6.614
 5274POPC   C3A67013   6.731   5.095   6.959
 5274POPC   C4A67014   6.570   5.220   7.396
 5274POPC   C1B67015   6.558   4.815   6.143
 5274POPC   C2B67016   6.468   4.769   6.573
 5274POPC   C3B67017   6.400   4.599   6.953
 5274POPC   C4B67018   6.306   4.805   7.283
 5275POPC   NC367019  20.346  31.651   5.044
 5275POPC   PO467020  19.848  31.516   5.508
 5275POPC   GL167021  19.882  31.638   5.893
 5275POPC   GL267022  19.809  31.317   6.040
 5275POPC   C1A67023  19.696  31.719   6.303
 5275POPC   D2A67024  19.971  31.647   6.620
 5275POPC   C3A67025  19.811  31.648   6.991
 5275POPC   C4A67026  19.685  31.313   7.247
 5275POPC   C1B67027  20.146  31.175   6.291
 5275POPC   C2B67028  20.308  31.244   6.663
 5275POPC   C3B67029  20.151  31.229   7.048
 5275POPC   C4B67030  20.137  30.881   7.328
 5276POPC   NC367031  13.186  23.520   5.491
 5276POPC   PO467032  13.772  23.921   5.437
 5276POPC   GL167033  13.624  23.688   5.782
 5276POPC   GL267034  13.338  23.834   5.881
 5276POPC   C1A67035  13.759  23.759   6.227
 5276POPC   D2A67036  14.023  23.782   6.562
 5276POPC   C3A67037  13.841  23.652   6.928
 5276POPC   C4A67038  13.727  23.726   7.338
 5276POPC   C1B67039  13.387  23.434   6.173
 5276POPC   C2B67040  13.441  23.568   6.621
 5276POPC   C3B67041  13.351  23.789   7.030
 5276POPC   C4B67042  13.336  23.976   7.500
 5277POPC   NC367043  35.441  43.295   5.417
 5277POPC   PO467044  34.819  42.975   5.487
 5277POPC   GL167045  35.031  43.058   5.886
 5277POPC   GL267046  35.418  43.070   5.882
 5277POPC   C1A67047  35.169  42.890   6.303
 5277POPC   D2A67048  35.414  43.067   6.664
 5277POPC   C3A67049  35.191  42.961   7.064
 5277POPC   C4A67050  34.861  42.837   7.380
 5277POPC   C1B67051  35.295  43.385   6.211
 5277POPC   C2B67052  35.412  43.599   6.588
 5277POPC   C3B67053  35.404  43.458   7.016
 5277POPC   C4B67054  35.632  43.626   7.379
 5278POPC   NC367055  13.980   1.964   5.407
 5278POPC   PO467056  13.364   2.322   5.454
 5278POPC   GL167057  13.515   1.984   5.781
 5278POPC   GL267058  13.896   1.886   5.902
 5278POPC   C1A67059  13.314   1.855   6.185
 5278POPC   D2A67060  13.353   1.646   6.624
 5278POPC   C3A67061  13.402   1.845   7.026
 5278POPC   C4A67062  13.550   1.959   7.466
 5278POPC   C1B67063  13.790   1.732   6.338
 5278POPC   C2B67064  13.849   1.592   6.768
 5278POPC   C3B67065  13.925   1.855   7.134
 5278POPC   C4B67066  13.998   1.724   7.573
 5279POPC   NC367067  32.681  11.620   5.417
 5279POPC   PO467068  33.076  12.156   5.261
 5279POPC   GL167069  32.961  12.082   5.726
 5279POPC   GL267070  32.820  11.748   5.882
 5279POPC   C1A67071  33.087  12.093   6.178
 5279POPC   D2A67072  33.308  11.845   6.512
 5279POPC   C3A67073  33.239  11.909   6.963
 5279POPC   C4A67074  33.255  12.296   7.214
 5279POPC   C1B67075  32.878  11.637   6.317
 5279POPC   C2B67076  32.794  11.955   6.616
 5279POPC   C3B67077  32.807  12.194   6.983
 5279POPC   C4B67078  32.898  11.968   7.377
 5280POPC   NC367079   5.352  28.293   5.381
 5280POPC   PO467080   4.708  28.650   5.475
 5280POPC   GL167081   4.936  28.455   5.783
 5280POPC   GL267082   5.204  28.687   5.823
 5280POPC   C1A67083   4.925  28.496   6.240
 5280POPC   D2A67084   5.142  28.312   6.589
 5280POPC   C3A67085   5.003  28.460   6.975
 5280POPC   C4A67086   5.108  28.249   7.361
 5280POPC   C1B67087   5.396  28.746   6.228
 5280POPC   C2B67088   5.541  28.617   6.676
 5280POPC   C3B67089   5.464  28.563   7.154
 5280POPC   C4B67090   5.408  28.573   7.623
 5281POPC   NC367091   7.655  37.276   5.598
 5281POPC   PO467092   8.051  37.828   5.453
 5281POPC   GL167093   8.070  37.560   5.801
 5281POPC   GL267094   8.427  37.501   5.796
 5281POPC   C1A67095   8.006  37.659   6.240
 5281POPC   D2A67096   8.207  37.663   6.664
 5281POPC   C3A67097   8.068  37.826   7.064
 5281POPC   C4A67098   8.358  37.908   7.430
 5281POPC   C1B67099   8.475  37.445   6.267
 5281POPC   C2B67100   8.657  37.417   6.695
 5281POPC   C3B67101   8.483  37.469   7.089
 5281POPC   C4B67102   8.771  37.667   7.315
 5282POPC   NC367103  32.633  43.004   5.559
 5282POPC   PO467104  32.307  43.440   5.222
 5282POPC   GL167105  32.197  43.309   5.668
 5282POPC   GL267106  32.109  42.966   5.765
 5282POPC   C1A67107  32.032  43.319   6.089
 5282POPC   D2A67108  32.242  43.167   6.457
 5282POPC   C3A67109  32.113  43.388   6.811
 5282POPC   C4A67110  32.293  43.425   7.199
 5282POPC   C1B67111  31.942  42.826   6.151
 5282POPC   C2B67112  32.005  42.732   6.575
 5282POPC   C3B67113  32.153  42.907   6.973
 5282POPC   C4B67114  31.861  42.758   7.257
 5283POPC   NC367115   8.464   6.390   5.488
 5283POPC   PO467116   8.135   7.044   5.368
 5283POPC   GL167117   8.333   6.856   5.715
 5283POPC   GL267118   8.121   6.566   5.829
 5283POPC   C1A67119   8.428   6.862   6.146
 5283POPC   D2A67120   8.142   6.886   6.502
 5283POPC   C3A67121   8.393   7.016   6.821
 5283POPC   C4A67122   8.539   7.005   7.213
 5283POPC   C1B67123   8.185   6.417   6.275
 5283POPC   C2B67124   8.118   6.412   6.721
 5283POPC   C3B67125   8.348   6.521   7.050
 5283POPC   C4B67126   8.597   6.231   7.213
 5284POPC   NC367127  26.233   2.061   5.292
 5284POPC   PO467128  26.928   1.985   5.360
 5284POPC   GL167129  26.642   2.080   5.715
 5284POPC   GL267130  26.718   2.322   6.011
 5284POPC   C1A67131  26.660   1.827   6.116
 5284POPC   D2A67132  26.768   1.706   6.538
 5284POPC   C3A67133  26.594   1.987   6.849
 5284POPC   C4A67134  26.780   1.912   7.240
 5284POPC   C1B67135  26.940   2.204   6.438
 5284POPC   C2B67136  27.105   2.065   6.870
 5284POPC   C3B67137  27.165   2.277   7.282
 5284POPC   C4B67138  27.078   2.474   7.709
 5285POPC   NC367139  10.841  44.626   5.362
 5285POPC   PO467140  10.156  44.639   5.381
 5285POPC   GL167141  10.333  44.707   5.799
 5285POPC   GL267142  10.697  44.778   5.830
 5285POPC   C1A67143  10.405  44.681   6.270
 5285POPC   D2A67144  10.416  44.525   6.707
 5285POPC   C3A67145  10.446  44.747   7.106
 5285POPC   C4A67146  10.323  44.426   7.372
 5285POPC   C1B67147  10.902  44.596   6.190
 5285POPC   C2B67148  10.875  44.698   6.589
 5285POPC   C3B67149  10.935  44.585   6.992
 5285POPC   C4B67150  10.814  44.496   7.399
 5286POPC   NC367151  22.147  37.609   4.791
 5286POPC   PO467152  21.992  37.703   5.458
 5286POPC   GL167153  21.930  37.633   5.881
 5286POPC   GL267154  22.241  37.499   5.894
 5286POPC   C1A67155  22.003  37.880   6.287
 5286POPC   D2A67156  22.114  38.070   6.683
 5286POPC   C3A67157  22.084  37.749   7.012
 5286POPC   C4A67158  21.808  37.647   7.411
 5286POPC   C1B67159  22.470  37.789   6.145
 5286POPC   C2B67160  22.469  37.723   6.571
 5286POPC   C3B67161  22.616  37.892   6.925
 5286POPC   C4B67162  22.507  37.860   7.316
 5287POPC   NC367163  10.735  37.867   5.384
 5287POPC   PO467164  10.122  37.663   5.412
 5287POPC   GL167165  10.396  37.682   5.722
 5287POPC   GL267166  10.362  38.055   5.683
 5287POPC   C1A67167  10.603  37.502   6.109
 5287POPC   D2A67168  10.549  37.655   6.550
 5287POPC   C3A67169  10.692  37.478   6.933
 5287POPC   C4A67170  10.520  37.289   7.328
 5287POPC   C1B67171  10.390  37.970   6.133
 5287POPC   C2B67172  10.163  38.002   6.515
 5287POPC   C3B67173  10.374  38.002   6.920
 5287POPC   C4B67174  10.217  38.019   7.345
 5288POPC   NC367175   3.164   9.887   5.440
 5288POPC   PO467176   3.803   9.575   5.438
 5288POPC   GL167177   3.634   9.464   5.847
 5288POPC   GL267178   3.278   9.574   5.841
 5288POPC   C1A67179   3.527   9.519   6.279
 5288POPC   D2A67180   3.317   9.360   6.592
 5288POPC   C3A67181   3.472   9.547   6.922
 5288POPC   C4A67182   3.772   9.461   7.252
 5288POPC   C1B67183   3.430   9.963   6.066
 5288POPC   C2B67184   3.445   9.975   6.514
 5288POPC   C3B67185   3.538  10.047   6.942
 5288POPC   C4B67186   3.447   9.863   7.346
 5289POPC   NC367187  31.640  20.908   5.398
 5289POPC   PO467188  31.322  20.380   5.558
 5289POPC   GL167189  31.383  20.737   5.818
 5289POPC   GL267190  31.727  20.606   5.811
 5289POPC   C1A67191  31.281  20.846   6.264
 5289POPC   D2A67192  31.553  20.671   6.618
 5289POPC   C3A67193  31.562  20.837   6.990
 5289POPC   C4A67194  31.375  20.747   7.315
 5289POPC   C1B67195  31.557  20.408   6.184
 5289POPC   C2B67196  31.180  20.343   6.458
 5289POPC   C3B67197  31.219  20.392   6.929
 5289POPC   C4B67198  31.594  20.280   7.174
 5290POPC   NC367199  17.526  34.538   5.334
 5290POPC   PO467200  18.222  34.486   5.397
 5290POPC   GL167201  17.869  34.581   5.727
 5290POPC   GL267202  17.482  34.668   5.809
 5290POPC   C1A67203  17.817  34.634   6.179
 5290POPC   D2A67204  17.682  34.424   6.528
 5290POPC   C3A67205  17.643  34.641   6.932
 5290POPC   C4A67206  17.713  34.516   7.339
 5290POPC   C1B67207  17.269  34.548   6.204
 5290POPC   C2B67208  17.159  34.587   6.646
 5290POPC   C3B67209  17.178  34.858   7.011
 5290POPC   C4B67210  17.312  34.779   7.442
 5291POPC   NC367211  26.836  18.092   5.408
 5291POPC   PO467212  27.141  18.555   5.672
 5291POPC   GL167213  26.725  18.652   5.801
 5291POPC   GL267214  26.489  18.401   5.670
 5291POPC   C1A67215  26.676  18.618   6.235
 5291POPC   D2A67216  26.941  18.400   6.538
 5291POPC   C3A67217  26.793  18.388   6.944
 5291POPC   C4A67218  26.868  18.234   7.365
 5291POPC   C1B67219  26.462  18.173   6.085
 5291POPC   C2B67220  26.617  17.979   6.465
 5291POPC   C3B67221  26.472  17.995   6.862
 5291POPC   C4B67222  26.528  17.867   7.205
 5292POPC   NC367223  13.688  11.775   5.514
 5292POPC   PO467224  13.696  12.488   5.493
 5292POPC   GL167225  13.801  12.230   5.859
 5292POPC   GL267226  13.484  12.032   5.926
 5292POPC   C1A67227  13.792  12.115   6.323
 5292POPC   D2A67228  13.959  12.009   6.701
 5292POPC   C3A67229  13.879  12.149   7.096
 5292POPC   C4A67230  13.779  11.837   7.419
 5292POPC   C1B67231  13.445  12.455   6.163
 5292POPC   C2B67232  13.576  12.515   6.595
 5292POPC   C3B67233  13.453  12.172   6.845
 5292POPC   C4B67234  13.347  12.044   7.252
 5293POPC   NC367235  37.231  21.079   5.443
 5293POPC   PO467236  37.918  21.345   5.463
 5293POPC   GL167237  37.547  21.481   5.739
 5293POPC   GL267238  37.402  21.169   5.902
 5293POPC   C1A67239  37.404  21.577   6.193
 5293POPC   D2A67240  37.633  21.471   6.604
 5293POPC   C3A67241  37.418  21.291   6.980
 5293POPC   C4A67242  37.216  21.597   7.284
 5293POPC   C1B67243  37.813  21.227   6.120
 5293POPC   C2B67244  37.999  21.088   6.506
 5293POPC   C3B67245  37.970  21.226   6.929
 5293POPC   C4B67246  37.780  21.582   7.163
 5294POPC   NC367247  25.165  30.572   5.441
 5294POPC   PO467248  25.739  30.696   5.487
 5294POPC   GL167249  25.548  30.499   5.858
 5294POPC   GL267250  25.198  30.556   5.941
 5294POPC   C1A67251  25.581  30.445   6.320
 5294POPC   D2A67252  25.510  30.398   6.785
 5294POPC   C3A67253  25.325  30.725   7.012
 5294POPC   C4A67254  25.251  30.951   7.413
 5294POPC   C1B67255  25.077  30.555   6.367
 5294POPC   C2B67256  24.998  30.358   6.734
 5294POPC   C3B67257  25.008  30.375   7.180
 5294POPC   C4B67258  25.069  30.505   7.577
 5295POPC   NC367259  21.693   7.765   5.524
 5295POPC   PO467260  21.343   7.169   5.412
 5295POPC   GL167261  21.381   7.432   5.776
 5295POPC   GL267262  21.637   7.205   5.877
 5295POPC   C1A67263  21.339   7.611   6.202
 5295POPC   D2A67264  21.367   7.471   6.667
 5295POPC   C3A67265  21.530   7.607   7.099
 5295POPC   C4A67266  21.121   7.762   7.106
 5295POPC   C1B67267  21.345   7.099   6.218
 5295POPC   C2B67268  21.368   6.954   6.632
 5295POPC   C3B67269  21.334   7.131   7.059
 5295POPC   C4B67270  21.433   7.069   7.491
 5296POPC   NC367271  33.319  37.063   5.414
 5296POPC   PO467272  33.116  36.494   5.356
 5296POPC   GL167273  33.312  36.663   5.733
 5296POPC   GL267274  33.013  36.845   5.762
 5296POPC   C1A67275  33.381  36.879   6.142
 5296POPC   D2A67276  33.339  37.104   6.544
 5296POPC   C3A67277  33.077  36.919   6.899
 5296POPC   C4A67278  32.768  36.886   7.244
 5296POPC   C1B67279  32.929  37.123   6.093
 5296POPC   C2B67280  32.808  37.049   6.487
 5296POPC   C3B67281  32.584  37.153   6.862
 5296POPC   C4B67282  32.454  37.318   7.267
 5297POPC   NC367283  40.032  19.503   5.178
 5297POPC   PO467284  39.989  20.128   5.367
 5297POPC   GL167285  40.104  20.036   5.763
 5297POPC   GL267286  40.135  19.669   5.673
 5297POPC   C1A67287  40.015  20.121   6.219
 5297POPC   D2A67288  39.730  20.061   6.601
 5297POPC   C3A67289  39.873  20.215   7.021
 5297POPC   C4A67290  40.295  20.185   7.169
 5297POPC   C1B67291  40.253  19.675   6.103
 5297POPC   C2B67292  40.069  19.656   6.474
 5297POPC   C3B67293  40.132  19.805   6.860
 5297POPC   C4B67294  39.801  19.731   7.174
 5298POPC   NC367295  20.796  29.857   5.525
 5298POPC   PO467296  20.291  30.305   5.499
 5298POPC   GL167297  20.394  30.003   5.835
 5298POPC   GL267298  20.398  29.648   5.771
 5298POPC   C1A67299  20.539  29.855   6.263
 5298POPC   D2A67300  20.711  29.956   6.688
 5298POPC   C3A67301  20.478  30.144   7.055
 5298POPC   C4A67302  20.573  30.090   7.512
 5298POPC   C1B67303  20.261  29.439   6.138
 5298POPC   C2B67304  20.153  29.628   6.564
 5298POPC   C3B67305  20.351  29.654   6.977
 5298POPC   C4B67306  20.387  29.625   7.454
 5299POPC   NC367307  28.141  29.430   5.379
 5299POPC   PO467308  28.040  28.779   5.548
 5299POPC   GL167309  28.232  29.090   5.781
 5299POPC   GL267310  27.961  29.257   5.922
 5299POPC   C1A67311  28.496  29.233   6.102
 5299POPC   D2A67312  28.502  29.366   6.504
 5299POPC   C3A67313  28.266  29.240   6.834
 5299POPC   C4A67314  28.465  29.180   7.179
 5299POPC   C1B67315  28.051  29.134   6.364
 5299POPC   C2B67316  28.020  28.799   6.701
 5299POPC   C3B67317  27.965  28.967   7.147
 5299POPC   C4B67318  27.941  29.394   7.259
 5300POPC   NC367319  41.980  14.301   5.441
 5300POPC   PO467320  42.616  14.602   5.435
 5300POPC   GL167321  42.384  14.415   5.802
 5300POPC   GL267322  42.058  14.234   5.924
 5300POPC   C1A67323  42.267  14.584   6.223
 5300POPC   D2A67324  42.098  14.727   6.599
 5300POPC   C3A67325  42.426  14.680   6.869
 5300POPC   C4A67326  42.478  14.563   7.253
 5300POPC   C1B67327  42.391  14.052   6.159
 5300POPC   C2B67328  42.385  13.885   6.555
 5300POPC   C3B67329  42.338  14.145   6.917
 5300POPC   C4B67330  42.112  14.206   7.312
 5301POPC   NC367331  18.480  14.310   5.413
 5301POPC   PO467332  18.369  14.869   5.749
 5301POPC   GL167333  18.114  14.518   5.902
 5301POPC   GL267334  18.290  14.222   5.902
 5301POPC   C1A67335  18.072  14.391   6.347
 5301POPC   D2A67336  18.188  14.700   6.681
 5301POPC   C3A67337  17.995  14.528   7.027
 5301POPC   C4A67338  18.176  14.202   7.247
 5301POPC   C1B67339  18.561  14.478   6.234
 5301POPC   C2B67340  18.619  14.400   6.677
 5301POPC   C3B67341  18.631  14.485   7.120
 5301POPC   C4B67342  18.354  14.736   7.327
 5302POPC   NC367343  14.599  13.187   5.414
 5302POPC   PO467344  14.566  12.467   5.500
 5302POPC   GL167345  14.426  12.627   5.895
 5302POPC   GL267346  14.326  12.972   5.818
 5302POPC   C1A67347  14.444  12.787   6.312
 5302POPC   D2A67348  14.361  12.952   6.701
 5302POPC   C3A67349  14.507  12.652   6.961
 5302POPC   C4A67350  14.330  12.432   7.291
 5302POPC   C1B67351  14.167  13.211   6.184
 5302POPC   C2B67352  14.102  13.409   6.594
 5302POPC   C3B67353  14.048  13.253   6.997
 5302POPC   C4B67354  14.317  13.038   7.231
 5303POPC   NC367355  23.233   9.793   5.461
 5303POPC   PO467356  22.581   9.958   5.472
 5303POPC   GL167357  22.825   9.792   5.783
 5303POPC   GL267358  22.717   9.448   5.755
 5303POPC   C1A67359  23.069   9.901   6.141
 5303POPC   D2A67360  23.032  10.240   6.468
 5303POPC   C3A67361  22.956  10.057   6.889
 5303POPC   C4A67362  23.126   9.864   7.263
 5303POPC   C1B67363  22.891   9.417   6.156
 5303POPC   C2B67364  22.967   9.312   6.558
 5303POPC   C3B67365  23.084   9.537   6.867
 5303POPC   C4B67366  22.972   9.390   7.232
 5304POPC   NC367367  44.946  22.438   5.472
 5304POPC   PO467368  44.908  21.756   5.434
 5304POPC   GL167369  44.738  22.091   5.803
 5304POPC   GL267370  44.363  22.193   5.926
 5304POPC   C1A67371  44.743  22.330   6.246
 5304POPC   D2A67372  44.735  22.411   6.720
 5304POPC   C3A67373  44.527  22.066   6.998
 5304POPC   C4A67374  44.457  22.029   7.469
 5304POPC   C1B67375  44.237  22.448   6.323
 5304POPC   C2B67376  44.217  22.426   6.796
 5304POPC   C3B67377  44.336  22.498   7.244
 5304POPC   C4B67378  44.217  22.474   7.692
 5305POPC   NC367379  42.689  35.818   5.640
 5305POPC   PO467380  42.563  35.287   5.254
 5305POPC   GL167381  42.359  35.273   5.637
 5305POPC   GL267382  42.226  35.586   5.643
 5305POPC   C1A67383  42.511  35.225   6.074
 5305POPC   D2A67384  42.670  35.250   6.499
 5305POPC   C3A67385  42.363  35.249   6.816
 5305POPC   C4A67386  42.234  34.954   7.130
 5305POPC   C1B67387  42.202  35.624   6.087
 5305POPC   C2B67388  42.099  35.603   6.528
 5305POPC   C3B67389  42.021  35.670   6.971
 5305POPC   C4B67390  42.333  35.598   7.238
 5306POPC   NC367391   4.591  33.083   5.176
 5306POPC   PO467392   4.040  33.165   5.588
 5306POPC   GL167393   4.264  32.870   5.813
 5306POPC   GL267394   4.577  32.645   5.802
 5306POPC   C1A67395   4.315  32.890   6.249
 5306POPC   D2A67396   4.126  32.765   6.628
 5306POPC   C3A67397   4.347  33.068   6.864
 5306POPC   C4A67398   4.458  33.181   7.257
 5306POPC   C1B67399   4.790  32.690   6.228
 5306POPC   C2B67400   4.636  32.727   6.634
 5306POPC   C3B67401   4.742  32.785   7.091
 5306POPC   C4B67402   4.650  32.779   7.552
 5307POPC   NC367403  18.401  27.557   5.293
 5307POPC   PO467404  18.599  28.132   5.415
 5307POPC   GL167405  18.479  27.789   5.755
 5307POPC   GL267406  18.377  27.398   5.763
 5307POPC   C1A67407  18.406  27.668   6.209
 5307POPC   D2A67408  18.255  27.833   6.616
 5307POPC   C3A67409  18.515  27.742   6.994
 5307POPC   C4A67410  18.384  27.740   7.404
 5307POPC   C1B67411  18.015  27.377   6.029
 5307POPC   C2B67412  18.052  27.340   6.475
 5307POPC   C3B67413  18.117  27.427   6.899
 5307POPC   C4B67414  18.162  27.295   7.297
 5308POPC   NC367415  28.902  17.409   5.281
 5308POPC   PO467416  29.183  17.978   5.434
 5308POPC   GL167417  29.248  17.573   5.712
 5308POPC   GL267418  28.975  17.321   5.774
 5308POPC   C1A67419  29.243  17.496   6.180
 5308POPC   D2A67420  29.255  17.740   6.592
 5308POPC   C3A67421  29.195  17.545   6.989
 5308POPC   C4A67422  29.166  17.158   7.209
 5308POPC   C1B67423  28.860  17.125   6.166
 5308POPC   C2B67424  28.958  17.276   6.579
 5308POPC   C3B67425  28.717  17.339   6.935
 5308POPC   C4B67426  28.783  17.498   7.339
 5309POPC   NC367427   6.557  13.313   5.465
 5309POPC   PO467428   6.850  13.823   5.185
 5309POPC   GL167429   6.697  13.777   5.666
 5309POPC   GL267430   6.850  13.476   5.866
 5309POPC   C1A67431   6.637  13.845   6.147
 5309POPC   D2A67432   6.863  13.681   6.552
 5309POPC   C3A67433   6.722  13.787   6.992
 5309POPC   C4A67434   6.658  13.759   7.440
 5309POPC   C1B67435   6.610  13.329   6.265
 5309POPC   C2B67436   6.475  13.383   6.727
 5309POPC   C3B67437   6.320  13.464   7.168
 5309POPC   C4B67438   6.511  13.308   7.603
 5310POPC   NC367439  21.534  37.449   5.399
 5310POPC   PO467440  21.207  38.033   5.540
 5310POPC   GL167441  21.420  37.742   5.833
 5310POPC   GL267442  21.306  37.387   5.891
 5310POPC   C1A67443  21.552  37.648   6.261
 5310POPC   D2A67444  21.747  37.613   6.657
 5310POPC   C3A67445  21.541  37.783   6.994
 5310POPC   C4A67446  21.389  37.957   7.366
 5310POPC   C1B67447  21.101  37.389   6.311
 5310POPC   C2B67448  21.229  37.424   6.758
 5310POPC   C3B67449  21.131  37.489   7.207
 5310POPC   C4B67450  21.168  37.126   7.514
 5311POPC   NC367451  27.580   0.156   5.472
 5311POPC   PO467452  27.903   0.666   5.332
 5311POPC   GL167453  27.612   0.522   5.789
 5311POPC   GL267454  27.327   0.205   5.883
 5311POPC   C1A67455  27.682   0.349   6.208
 5311POPC   D2A67456  27.541   0.606   6.534
 5311POPC   C3A67457  27.586   0.392   6.890
 5311POPC   C4A67458  27.732   0.531   7.265
 5311POPC   C1B67459  27.164   0.435   6.182
 5311POPC   C2B67460  27.184   0.253   6.557
 5311POPC   C3B67461  27.064   0.371   6.926
 5311POPC   C4B67462  27.274   0.320   7.278
 5312POPC   NC367463  22.792   2.907   5.373
 5312POPC   PO467464  22.226   2.526   5.377
 5312POPC   GL167465  22.144   2.764   5.769
 5312POPC   GL267466  22.339   3.083   5.707
 5312POPC   C1A67467  21.979   2.765   6.209
 5312POPC   D2A67468  22.017   2.975   6.611
 5312POPC   C3A67469  22.007   2.707   6.969
 5312POPC   C4A67470  21.967   2.479   7.352
 5312POPC   C1B67471  22.270   3.216   6.164
 5312POPC   C2B67472  22.483   3.197   6.597
 5312POPC   C3B67473  22.343   3.082   7.034
 5312POPC   C4B67474  22.429   3.021   7.502
 5313POPC   NC367475   7.545   4.546   5.493
 5313POPC   PO467476   7.269   3.952   5.421
 5313POPC   GL167477   7.497   4.025   5.812
 5313POPC   GL267478   7.404   4.339   5.923
 5313POPC   C1A67479   7.427   3.952   6.279
 5313POPC   D2A67480   7.620   4.026   6.699
 5313POPC   C3A67481   7.322   4.143   7.041
 5313POPC   C4A67482   7.079   3.808   7.210
 5313POPC   C1B67483   7.330   4.583   6.265
 5313POPC   C2B67484   7.452   4.541   6.675
 5313POPC   C3B67485   7.348   4.648   7.083
 5313POPC   C4B67486   7.596   4.453   7.413
 5314POPC   NC367487   7.534  15.657   5.390
 5314POPC   PO467488   7.157  16.189   5.605
 5314POPC   GL167489   7.444  15.936   5.857
 5314POPC   GL267490   7.196  15.698   5.806
 5314POPC   C1A67491   7.623  15.987   6.299
 5314POPC   D2A67492   7.698  15.964   6.768
 5314POPC   C3A67493   7.393  16.145   7.089
 5314POPC   C4A67494   7.009  16.342   7.160
 5314POPC   C1B67495   7.125  15.679   6.233
 5314POPC   C2B67496   7.233  15.476   6.623
 5314POPC   C3B67497   7.403  15.634   7.002
 5314POPC   C4B67498   7.504  15.759   7.402
 5315POPC   NC367499  31.772  26.938   5.613
 5315POPC   PO467500  31.131  26.769   5.445
 5315POPC   GL167501  31.338  26.625   5.823
 5315POPC   GL267502  31.709  26.498   5.890
 5315POPC   C1A67503  31.408  26.775   6.225
 5315POPC   D2A67504  31.489  26.531   6.569
 5315POPC   C3A67505  31.304  26.685   6.920
 5315POPC   C4A67506  31.302  26.985   7.240
 5315POPC   C1B67507  31.907  26.667   6.284
 5315POPC   C2B67508  31.782  26.946   6.627
 5315POPC   C3B67509  31.779  27.023   7.064
 5315POPC   C4B67510  31.669  26.627   7.277
 5316POPC   NC367511  13.552  19.166   5.453
 5316POPC   PO467512  14.190  19.001   5.242
 5316POPC   GL167513  13.948  18.965   5.721
 5316POPC   GL267514  13.630  18.834   5.858
 5316POPC   C1A67515  13.769  19.233   6.160
 5316POPC   D2A67516  13.643  19.040   6.599
 5316POPC   C3A67517  13.761  19.201   7.027
 5316POPC   C4A67518  13.532  19.315   7.380
 5316POPC   C1B67519  13.930  18.780   6.232
 5316POPC   C2B67520  14.034  18.676   6.675
 5316POPC   C3B67521  13.765  18.698   7.046
 5316POPC   C4B67522  13.420  18.819   7.293
 5317POPC   NC367523  44.504   3.340   5.124
 5317POPC   PO467524  44.788   3.773   5.528
 5317POPC   GL167525  44.625   3.481   5.855
 5317POPC   GL267526  44.262   3.379   5.880
 5317POPC   C1A67527  44.798   3.335   6.275
 5317POPC   D2A67528   0.042   3.273   6.692
 5317POPC   C3A67529  44.938   3.533   7.074
 5317POPC   C4A67530  44.910   3.401   7.546
 5317POPC   C1B67531  44.346   3.655   6.258
 5317POPC   C2B67532  44.569   3.850   6.633
 5317POPC   C3B67533  44.407   3.942   7.058
 5317POPC   C4B67534  44.527   3.652   7.363
 5318POPC   NC367535  37.815   0.151   5.516
 5318POPC   PO467536  37.680   0.799   5.641
 5318POPC   GL167537  37.695   0.484   5.882
 5318POPC   GL267538  37.408   0.265   5.827
 5318POPC   C1A67539  37.919   0.448   6.243
 5318POPC   D2A67540  37.695   0.555   6.615
 5318POPC   C3A67541  37.748   0.539   7.055
 5318POPC   C4A67542  37.423   0.745   7.329
 5318POPC   C1B67543  37.477   0.221   6.258
 5318POPC   C2B67544  37.775   0.035   6.529
 5318POPC   C3B67545  37.629  44.926   6.919
 5318POPC   C4B67546  37.578   0.107   7.281
 5319POPC   NC367547  27.025  12.472   5.448
 5319POPC   PO467548  26.783  11.766   5.354
 5319POPC   GL167549  26.921  12.014   5.717
 5319POPC   GL267550  26.717  12.307   5.851
 5319POPC   C1A67551  27.054  12.047   6.127
 5319POPC   D2A67552  27.026  12.311   6.450
 5319POPC   C3A67553  26.927  12.071   6.782
 5319POPC   C4A67554  27.194  12.051   7.160
 5319POPC   C1B67555  26.517  11.988   6.143
 5319POPC   C2B67556  26.403  11.835   6.604
 5319POPC   C3B67557  26.524  11.912   7.072
 5319POPC   C4B67558  26.743  12.284   7.200
 5320POPC   NC367559  41.169  16.796   5.580
 5320POPC   PO467560  40.450  16.626   5.571
 5320POPC   GL167561  40.565  16.975   5.874
 5320POPC   GL267562  40.924  16.995   5.981
 5320POPC   C1A67563  40.483  16.953   6.298
 5320POPC   D2A67564  40.593  16.709   6.634
 5320POPC   C3A67565  40.510  16.911   7.006
 5320POPC   C4A67566  40.567  16.659   7.314
 5320POPC   C1B67567  41.041  16.894   6.401
 5320POPC   C2B67568  40.999  16.989   6.841
 5320POPC   C3B67569  41.124  16.960   7.259
 5320POPC   C4B67570  41.105  17.116   7.683
 5321POPC   NC367571  16.910  33.074   5.291
 5321POPC   PO467572  16.600  32.562   5.533
 5321POPC   GL167573  16.784  32.836   5.859
 5321POPC   GL267574  16.841  33.172   5.788
 5321POPC   C1A67575  16.848  32.845   6.319
 5321POPC   D2A67576  16.583  32.804   6.698
 5321POPC   C3A67577  16.721  32.881   7.110
 5321POPC   C4A67578  17.132  32.890   7.218
 5321POPC   C1B67579  16.894  33.370   6.182
 5321POPC   C2B67580  16.823  33.259   6.601
 5321POPC   C3B67581  17.025  33.301   6.949
 5321POPC   C4B67582  16.929  33.507   7.296
 5322POPC   NC367583  10.386   0.325   5.468
 5322POPC   PO467584  10.984   0.058   5.476
 5322POPC   GL167585  10.762   0.305   5.812
 5322POPC   GL267586  10.411   0.188   5.960
 5322POPC   C1A67587  10.637   0.597   6.153
 5322POPC   D2A67588  10.357   0.503   6.497
 5322POPC   C3A67589  10.608   0.602   6.833
 5322POPC   C4A67590  10.649   0.433   7.202
 5322POPC   C1B67591  10.709   0.102   6.304
 5322POPC   C2B67592  10.599   0.097   6.755
 5322POPC   C3B67593  10.229   0.234   7.010
 5322POPC   C4B67594  10.115   0.145   7.453
 5323POPC   NC367595  39.164  16.102   5.341
 5323POPC   PO467596  39.271  15.464   5.669
 5323POPC   GL167597  39.375  15.867   5.890
 5323POPC   GL267598  39.432  16.246   5.772
 5323POPC   C1A67599  39.404  15.831   6.361
 5323POPC   D2A67600  39.183  15.634   6.733
 5323POPC   C3A67601  39.144  15.775   7.179
 5323POPC   C4A67602  39.253  15.534   7.546
 5323POPC   C1B67603  39.122  16.371   6.094
 5323POPC   C2B67604  39.069  16.199   6.512
 5323POPC   C3B67605  39.368  16.122   6.855
 5323POPC   C4B67606  39.287  16.262   7.278
 5324POPC   NC367607   9.978  35.506   5.397
 5324POPC   PO467608   9.350  35.637   5.407
 5324POPC   GL167609   9.664  35.620   5.779
 5324POPC   GL267610   9.874  35.304   5.862
 5324POPC   C1A67611   9.914  35.703   6.171
 5324POPC   D2A67612  10.191  35.614   6.544
 5324POPC   C3A67613  10.016  35.524   6.939
 5324POPC   C4A67614   9.756  35.630   7.286
 5324POPC   C1B67615   9.473  35.231   6.076
 5324POPC   C2B67616   9.436  35.194   6.536
 5324POPC   C3B67617   9.598  35.212   6.970
 5324POPC   C4B67618   9.488  35.077   7.366
 5325POPC   NC367619  17.182  37.172   5.454
 5325POPC   PO467620  16.559  37.064   5.543
 5325POPC   GL167621  16.681  36.848   5.899
 5325POPC   GL267622  16.998  36.954   5.886
 5325POPC   C1A67623  16.759  36.868   6.358
 5325POPC   D2A67624  16.683  36.751   6.745
 5325POPC   C3A67625  16.602  37.075   7.019
 5325POPC   C4A67626  16.629  37.268   7.418
 5325POPC   C1B67627  17.205  36.688   6.161
 5325POPC   C2B67628  17.099  36.488   6.534
 5325POPC   C3B67629  17.151  36.652   6.946
 5325POPC   C4B67630  16.913  36.773   7.265
 5326POPC   NC367631   9.208  19.942   5.418
 5326POPC   PO467632   8.623  19.668   5.549
 5326POPC   GL167633   8.841  19.945   5.886
 5326POPC   GL267634   9.186  20.090   5.927
 5326POPC   C1A67635   8.868  20.069   6.340
 5326POPC   D2A67636   9.000  19.908   6.749
 5326POPC   C3A67637   8.725  19.932   7.105
 5326POPC   C4A67638   8.781  19.977   7.570
 5326POPC   C1B67639   9.244  19.756   6.242
 5326POPC   C2B67640   9.271  19.507   6.627
 5326POPC   C3B67641   9.373  19.648   7.020
 5326POPC   C4B67642   9.195  19.916   7.282
 5327POPC   NC367643  17.957  21.604   5.351
 5327POPC   PO467644  18.675  21.753   5.376
 5327POPC   GL167645  18.473  21.468   5.670
 5327POPC   GL267646  18.700  21.432   5.910
 5327POPC   C1A67647  18.206  21.319   6.039
 5327POPC   D2A67648  17.991  21.128   6.427
 5327POPC   C3A67649  17.984  21.314   6.884
 5327POPC   C4A67650  18.110  21.672   7.189
 5327POPC   C1B67651  18.611  21.413   6.335
 5327POPC   C2B67652  18.466  21.214   6.705
 5327POPC   C3B67653  18.435  21.288   7.167
 5327POPC   C4B67654  18.675  21.516   7.496
 5328POPC   NC367655   3.620  10.769   5.315
 5328POPC   PO467656   3.188  10.319   5.581
 5328POPC   GL167657   3.429  10.537   5.868
 5328POPC   GL267658   3.699  10.794   5.865
 5328POPC   C1A67659   3.615  10.422   6.257
 5328POPC   D2A67660   3.416  10.466   6.646
 5328POPC   C3A67661   3.659  10.551   6.987
 5328POPC   C4A67662   3.619  10.348   7.344
 5328POPC   C1B67663   3.383  10.880   6.243
 5328POPC   C2B67664   3.525  10.963   6.669
 5328POPC   C3B67665   3.760  11.031   7.075
 5328POPC   C4B67666   3.613  10.852   7.460
 5329POPC   NC367667  21.789  32.327   5.443
 5329POPC   PO467668  22.406  32.459   5.515
 5329POPC   GL167669  22.286  32.117   5.852
 5329POPC   GL267670  21.923  31.969   5.825
 5329POPC   C1A67671  22.260  32.133   6.322
 5329POPC   D2A67672  22.371  32.427   6.676
 5329POPC   C3A67673  22.268  32.284   7.091
 5329POPC   C4A67674  22.439  31.915   7.206
 5329POPC   C1B67675  21.809  32.326   6.114
 5329POPC   C2B67676  21.897  32.525   6.504
 5329POPC   C3B67677  21.903  32.626   6.911
 5329POPC   C4B67678  21.798  32.426   7.290
 5330POPC   NC367679   6.653  43.334   5.408
 5330POPC   PO467680   6.818  42.694   5.429
 5330POPC   GL167681   6.793  42.849   5.816
 5330POPC   GL267682   6.536  43.092   5.859
 5330POPC   C1A67683   6.963  43.078   6.182
 5330POPC   D2A67684   6.924  43.308   6.571
 5330POPC   C3A67685   6.837  43.126   6.993
 5330POPC   C4A67686   6.544  43.334   7.312
 5330POPC   C1B67687   6.529  42.823   6.245
 5330POPC   C2B67688   6.481  43.048   6.586
 5330POPC   C3B67689   6.305  43.138   6.925
 5330POPC   C4B67690   6.458  42.828   7.181
 5331POPC   NC367691  41.562  28.235   5.462
 5331POPC   PO467692  41.634  28.802   5.731
 5331POPC   GL167693  41.806  28.462   5.914
 5331POPC   GL267694  41.560  28.178   5.969
 5331POPC   C1A67695  41.868  28.423   6.340
 5331POPC   D2A67696  41.585  28.324   6.611
 5331POPC   C3A67697  41.570  28.658   6.854
 5331POPC   C4A67698  41.697  28.492   7.190
 5331POPC   C1B67699  41.930  27.965   6.129
 5331POPC   C2B67700  42.068  27.990   6.568
 5331POPC   C3B67701  41.889  27.990   6.998
 5331POPC   C4B67702  41.827  28.047   7.427
 5332POPC   NC367703   3.355  19.336   5.168
 5332POPC   PO467704   3.890  19.052   5.389
 5332POPC   GL167705   3.851  19.056   5.849
 5332POPC   GL267706   3.481  19.055   5.865
 5332POPC   C1A67707   3.848  18.922   6.263
 5332POPC   D2A67708   3.528  18.812   6.531
 5332POPC   C3A67709   3.713  18.963   6.890
 5332POPC   C4A67710   3.693  18.970   7.314
 5332POPC   C1B67711   3.459  19.282   6.245
 5332POPC   C2B67712   3.399  19.313   6.658
 5332POPC   C3B67713   3.209  19.029   6.923
 5332POPC   C4B67714   3.181  19.109   7.308
 5333POPC   NC367715  37.684  38.318   5.136
 5333POPC   PO467716  37.864  38.960   5.320
 5333POPC   GL167717  37.760  38.613   5.627
 5333POPC   GL267718  37.462  38.545   5.829
 5333POPC   C1A67719  37.908  38.683   6.096
 5333POPC   D2A67720  37.939  38.473   6.541
 5333POPC   C3A67721  37.916  38.555   6.976
 5333POPC   C4A67722  37.661  38.545   7.354
 5333POPC   C1B67723  37.507  38.413   6.245
 5333POPC   C2B67724  37.442  38.545   6.662
 5333POPC   C3B67725  37.509  38.261   6.945
 5333POPC   C4B67726  37.857  38.066   7.165
 5334POPC   NC367727   1.714  13.728   5.464
 5334POPC   PO467728   2.326  13.897   5.457
 5334POPC   GL167729   2.084  13.728   5.821
 5334POPC   GL267730   1.765  13.551   5.935
 5334POPC   C1A67731   2.200  13.608   6.220
 5334POPC   D2A67732   1.866  13.546   6.503
 5334POPC   C3A67733   1.979  13.431   6.919
 5334POPC   C4A67734   2.134  13.391   7.338
 5334POPC   C1B67735   1.690  13.935   6.143
 5334POPC   C2B67736   1.717  14.060   6.567
 5334POPC   C3B67737   1.601  13.799   6.906
 5334POPC   C4B67738   1.661  13.603   7.279
 5335POPC   NC367739  28.544  21.118   5.659
 5335POPC   PO467740  28.139  21.500   5.234
 5335POPC   GL167741  28.227  21.510   5.731
 5335POPC   GL267742  28.162  21.201   5.968
 5335POPC   C1A67743  28.424  21.577   6.183
 5335POPC   D2A67744  28.235  21.557   6.595
 5335POPC   C3A67745  28.443  21.618   6.957
 5335POPC   C4A67746  28.338  21.470   7.338
 5335POPC   C1B67747  27.908  21.060   6.308
 5335POPC   C2B67748  27.962  21.133   6.695
 5335POPC   C3B67749  28.165  21.091   7.045
 5335POPC   C4B67750  28.019  20.780   7.299
 5336POPC   NC367751  26.087  18.449   5.312
 5336POPC   PO467752  26.402  17.908   5.483
 5336POPC   GL167753  26.066  18.109   5.754
 5336POPC   GL267754  25.967  18.463   5.807
 5336POPC   C1A67755  25.924  18.093   6.175
 5336POPC   D2A67756  25.876  18.286   6.593
 5336POPC   C3A67757  25.923  18.089   7.012
 5336POPC   C4A67758  25.866  18.392   7.364
 5336POPC   C1B67759  26.145  18.575   6.213
 5336POPC   C2B67760  26.358  18.404   6.572
 5336POPC   C3B67761  26.276  18.449   7.003
 5336POPC   C4B67762  26.484  18.573   7.324
 5337POPC   NC367763  27.376  24.022   5.725
 5337POPC   PO467764  27.610  24.434   5.192
 5337POPC   GL167765  27.705  24.428   5.724
 5337POPC   GL267766  27.739  24.199   6.009
 5337POPC   C1A67767  27.760  24.705   6.134
 5337POPC   D2A67768  27.596  24.882   6.538
 5337POPC   C3A67769  27.456  24.637   6.895
 5337POPC   C4A67770  27.768  24.599   7.194
 5337POPC   C1B67771  27.523  24.335   6.388
 5337POPC   C2B67772  27.820  24.325   6.716
 5337POPC   C3B67773  27.896  24.112   7.119
 5337POPC   C4B67774  27.521  24.201   7.387
 5338POPC   NC367775   4.186  31.137   5.452
 5338POPC   PO467776   4.165  31.763   5.112
 5338POPC   GL167777   4.348  31.633   5.564
 5338POPC   GL267778   4.067  31.715   5.760
 5338POPC   C1A67779   4.405  31.372   6.029
 5338POPC   D2A67780   4.342  31.238   6.517
 5338POPC   C3A67781   4.535  31.414   6.928
 5338POPC   C4A67782   4.610  31.494   7.377
 5338POPC   C1B67783   3.912  31.531   6.153
 5338POPC   C2B67784   3.840  31.422   6.582
 5338POPC   C3B67785   4.029  31.403   6.979
 5338POPC   C4B67786   4.173  31.722   7.217
 5339POPC   NC367787   9.280  19.229   5.478
 5339POPC   PO467788   8.821  18.765   5.440
 5339POPC   GL167789   8.863  19.075   5.783
 5339POPC   GL267790   8.952  19.436   5.854
 5339POPC   C1A67791   8.752  19.018   6.213
 5339POPC   D2A67792   8.973  19.063   6.598
 5339POPC   C3A67793   8.833  18.998   6.995
 5339POPC   C4A67794   9.013  18.837   7.368
 5339POPC   C1B67795   8.798  19.524   6.315
 5339POPC   C2B67796   8.721  19.463   6.777
 5339POPC   C3B67797   8.927  19.464   7.183
 5339POPC   C4B67798   8.827  19.263   7.569
 5340POPC   NC367799  20.024  31.107   5.637
 5340POPC   PO467800  19.675  30.536   5.404
 5340POPC   GL167801  19.942  30.611   5.747
 5340POPC   GL267802  19.680  30.810   5.882
 5340POPC   C1A67803  20.040  30.521   6.184
 5340POPC   D2A67804  20.131  30.743   6.581
 5340POPC   C3A67805  20.115  30.504   6.967
 5340POPC   C4A67806  19.746  30.396   7.187
 5340POPC   C1B67807  19.705  30.898   6.311
 5340POPC   C2B67808  19.785  31.161   6.669
 5340POPC   C3B67809  19.749  30.881   7.000
 5340POPC   C4B67810  19.647  30.839   7.448
 5341POPC   NC367811   8.786  27.716   5.429
 5341POPC   PO467812   9.196  27.244   5.683
 5341POPC   GL167813   9.006  27.583   5.871
 5341POPC   GL267814   9.300  27.735   5.824
 5341POPC   C1A67815   8.861  27.567   6.291
 5341POPC   D2A67816   9.086  27.449   6.636
 5341POPC   C3A67817   8.747  27.312   6.836
 5341POPC   C4A67818   8.680  27.694   7.054
 5341POPC   C1B67819   9.393  27.668   6.251
 5341POPC   C2B67820   9.578  27.719   6.665
 5341POPC   C3B67821   9.335  27.732   7.028
 5341POPC   C4B67822   9.113  27.408   7.186
 5342POPC   NC367823  11.462  39.498   5.540
 5342POPC   PO467824  10.990  39.031   5.404
 5342POPC   GL167825  11.209  38.963   5.801
 5342POPC   GL267826  11.556  39.009   5.862
 5342POPC   C1A67827  11.219  39.205   6.185
 5342POPC   D2A67828  11.345  39.327   6.598
 5342POPC   C3A67829  11.350  39.120   6.993
 5342POPC   C4A67830  11.147  39.419   7.251
 5342POPC   C1B67831  11.751  39.194   6.237
 5342POPC   C2B67832  11.785  39.572   6.536
 5342POPC   C3B67833  11.638  39.555   6.976
 5342POPC   C4B67834  11.783  39.225   7.286
 5343POPC   NC367835  27.849   2.689   5.351
 5343POPC   PO467836  27.276   2.958   5.414
 5343POPC   GL167837  27.589   2.821   5.780
 5343POPC   GL267838  27.864   2.576   5.852
 5343POPC   C1A67839  27.588   2.773   6.255
 5343POPC   D2A67840  27.454   2.492   6.598
 5343POPC   C3A67841  27.383   2.666   7.016
 5343POPC   C4A67842  27.147   2.841   7.363
 5343POPC   C1B67843  28.020   2.487   6.268
 5343POPC   C2B67844  28.053   2.566   6.740
 5343POPC   C3B67845  27.870   2.655   7.172
 5343POPC   C4B67846  27.555   2.545   7.492
 5344POPC   NC367847  10.033  30.312   5.437
 5344POPC   PO467848   9.898  29.576   5.418
 5344POPC   GL167849   9.947  29.788   5.768
 5344POPC   GL267850   9.661  30.002   5.644
 5344POPC   C1A67851  10.003  29.580   6.189
 5344POPC   D2A67852   9.879  29.475   6.632
 5344POPC   C3A67853  10.148  29.755   6.881
 5344POPC   C4A67854  10.031  30.068   7.208
 5344POPC   C1B67855   9.552  29.858   6.073
 5344POPC   C2B67856   9.802  29.971   6.466
 5344POPC   C3B67857   9.659  29.927   6.872
 5344POPC   C4B67858   9.519  30.033   7.275
 5345POPC   NC367859  18.903  24.385   5.385
 5345POPC   PO467860  19.106  25.006   5.230
 5345POPC   GL167861  19.236  24.799   5.674
 5345POPC   GL267862  18.998  24.554   5.858
 5345POPC   C1A67863  19.260  24.870   6.143
 5345POPC   D2A67864  19.152  24.839   6.612
 5345POPC   C3A67865  19.291  24.737   7.029
 5345POPC   C4A67866  18.973  24.785   7.334
 5345POPC   C1B67867  19.128  24.383   6.290
 5345POPC   C2B67868  19.253  24.307   6.752
 5345POPC   C3B67869  19.089  24.283   7.200
 5345POPC   C4B67870  19.247  24.149   7.636
 5346POPC   NC367871  35.041  44.490   5.033
 5346POPC   PO467872  35.529  44.811   5.441
 5346POPC   GL167873  35.197  44.647   5.741
 5346POPC   GL267874  35.493  44.628   5.960
 5346POPC   C1A67875  35.058  44.552   6.188
 5346POPC   D2A67876  35.399  44.505   6.490
 5346POPC   C3A67877  35.249  44.670   6.862
 5346POPC   C4A67878  35.129  44.776   7.267
 5346POPC   C1B67879  35.475  44.968   6.271
 5346POPC   C2B67880  35.635  44.998   6.691
 5346POPC   C3B67881  35.497   0.071   7.109
 5346POPC   C4B67882  35.459   0.004   7.577
 5347POPC   NC367883  18.860   3.855   5.090
 5347POPC   PO467884  19.271   3.691   5.539
 5347POPC   GL167885  19.018   3.488   5.915
 5347POPC   GL267886  19.092   3.597   6.182
 5347POPC   C1A67887  19.011   3.111   6.198
 5347POPC   D2A67888  18.870   3.217   6.621
 5347POPC   C3A67889  19.031   3.463   6.980
 5347POPC   C4A67890  19.100   3.401   7.412
 5347POPC   C1B67891  19.398   3.813   6.372
 5347POPC   C2B67892  19.406   3.831   6.816
 5347POPC   C3B67893  19.321   3.844   7.230
 5347POPC   C4B67894  19.064   4.140   7.463
 5348POPC   NC367895  40.544   1.421   5.169
 5348POPC   PO467896  41.000   1.080   5.557
 5348POPC   GL167897  40.753   1.370   5.828
 5348POPC   GL267898  40.385   1.340   5.805
 5348POPC   C1A67899  40.634   1.371   6.265
 5348POPC   D2A67900  40.748   1.530   6.647
 5348POPC   C3A67901  40.999   1.276   6.919
 5348POPC   C4A67902  41.108   1.396   7.315
 5348POPC   C1B67903  40.249   1.064   6.191
 5348POPC   C2B67904  40.426   1.010   6.620
 5348POPC   C3B67905  40.497   1.236   6.990
 5348POPC   C4B67906  40.628   1.136   7.404
 5349POPC   NC367907  26.154  30.796   5.342
 5349POPC   PO467908  26.652  31.104   5.516
 5349POPC   GL167909  26.240  30.907   5.823
 5349POPC   GL267910  26.106  30.524   5.794
 5349POPC   C1A67911  25.952  30.798   6.223
 5349POPC   D2A67912  25.683  30.875   6.641
 5349POPC   C3A67913  25.833  30.739   7.082
 5349POPC   C4A67914  26.156  30.710   7.421
 5349POPC   C1B67915  26.083  30.294   6.180
 5349POPC   C2B67916  25.990  30.412   6.630
 5349POPC   C3B67917  26.050  30.268   7.061
 5349POPC   C4B67918  26.017  30.233   7.507
 5350POPC   NC367919  35.471  43.899   5.394
 5350POPC   PO467920  35.033  43.489   5.563
 5350POPC   GL167921  35.290  43.772   5.878
 5350POPC   GL267922  35.434  44.131   5.847
 5350POPC   C1A67923  35.261  44.016   6.308
 5350POPC   D2A67924  35.036  44.178   6.660
 5350POPC   C3A67925  35.196  43.906   6.949
 5350POPC   C4A67926  35.146  43.751   7.355
 5350POPC   C1B67927  35.727  44.177   6.230
 5350POPC   C2B67928  35.791  44.036   6.678
 5350POPC   C3B67929  35.642  44.094   7.105
 5350POPC   C4B67930  35.271  44.296   7.259
 5351POPC   NC367931   7.776  25.533   5.418
 5351POPC   PO467932   8.411  25.250   5.392
 5351POPC   GL167933   8.213  25.227   5.736
 5351POPC   GL267934   7.878  25.128   5.711
 5351POPC   C1A67935   8.402  25.210   6.131
 5351POPC   D2A67936   8.463  25.413   6.501
 5351POPC   C3A67937   8.256  25.229   6.872
 5351POPC   C4A67938   8.382  25.045   7.272
 5351POPC   C1B67939   7.923  25.412   6.091
 5351POPC   C2B67940   7.936  25.475   6.519
 5351POPC   C3B67941   7.830  25.567   6.916
 5351POPC   C4B67942   7.926  25.323   7.256
 5352POPC   NC367943   5.676  10.570   5.377
 5352POPC   PO467944   6.357  10.431   5.440
 5352POPC   GL167945   6.094  10.493   5.783
 5352POPC   GL267946   5.801  10.719   5.841
 5352POPC   C1A67947   5.980  10.405   6.201
 5352POPC   D2A67948   5.961  10.667   6.561
 5352POPC   C3A67949   5.836  10.479   6.934
 5352POPC   C4A67950   6.062  10.384   7.291
 5352POPC   C1B67951   5.639  10.912   6.226
 5352POPC   C2B67952   5.475  10.811   6.660
 5352POPC   C3B67953   5.387  10.706   7.086
 5352POPC   C4B67954   5.662  10.766   7.449
 5353POPC   NC367955  33.024  41.363   5.278
 5353POPC   PO467956  32.982  40.641   5.254
 5353POPC   GL167957  33.101  40.510   5.706
 5353POPC   GL267958  33.097  40.822   5.852
 5353POPC   C1A67959  32.963  40.410   6.117
 5353POPC   D2A67960  33.091  40.663   6.443
 5353POPC   C3A67961  33.004  40.642   6.869
 5353POPC   C4A67962  33.151  40.883   7.211
 5353POPC   C1B67963  32.807  41.006   6.176
 5353POPC   C2B67964  32.658  40.919   6.559
 5353POPC   C3B67965  32.729  41.099   6.924
 5353POPC   C4B67966  32.663  41.056   7.288
 5354POPC   NC367967  44.334  43.415   5.504
 5354POPC   PO467968  44.737  42.876   5.295
 5354POPC   GL167969  44.673  43.094   5.719
 5354POPC   GL267970  44.837  43.382   5.885
 5354POPC   C1A67971  44.544  43.066   6.157
 5354POPC   D2A67972  44.571  43.287   6.520
 5354POPC   C3A67973  44.687  43.121   6.920
 5354POPC   C4A67974  44.454  43.194   7.302
 5354POPC   C1B67975  44.977  43.590   6.299
 5354POPC   C2B67976  44.962  43.586   6.765
 5354POPC   C3B67977  44.931  43.497   7.212
 5354POPC   C4B67978  44.732  43.438   7.642
 5355POPC   NC367979   2.807  41.849   5.687
 5355POPC   PO467980   2.537  42.296   5.213
 5355POPC   GL167981   2.603  42.358   5.720
 5355POPC   GL267982   2.945  42.536   5.816
 5355POPC   C1A67983   2.682  42.406   6.223
 5355POPC   D2A67984   2.856  42.746   6.539
 5355POPC   C3A67985   2.959  42.688   6.966
 5355POPC   C4A67986   2.754  42.344   7.140
 5355POPC   C1B67987   3.195  42.506   6.252
 5355POPC   C2B67988   3.310  42.406   6.721
 5355POPC   C3B67989   3.242  42.116   7.098
 5355POPC   C4B67990   3.009  42.022   7.485
 5356POPC   NC367991  23.835  27.052   5.416
 5356POPC   PO467992  23.534  26.383   5.386
 5356POPC   GL167993  23.621  26.681   5.687
 5356POPC   GL267994  23.313  26.880   5.625
 5356POPC   C1A67995  23.915  26.834   6.043
 5356POPC   D2A67996  24.095  26.719   6.467
 5356POPC   C3A67997  23.843  26.720   6.864
 5356POPC   C4A67998  23.847  26.962   7.235
 5356POPC   C1B67999  23.419  26.976   6.057
 5356POPC   C2B68000  23.548  26.904   6.473
 5356POPC   C3B68001  23.488  27.086   6.888
 5356POPC   C4B68002  23.378  26.827   7.252
 5357POPC   NC368003  10.055  23.664   5.508
 5357POPC   PO468004   9.410  23.873   5.426
 5357POPC   GL168005   9.646  23.809   5.814
 5357POPC   GL268006   9.972  23.827   5.984
 5357POPC   C1A68007   9.541  23.860   6.243
 5357POPC   D2A68008   9.710  23.642   6.600
 5357POPC   C3A68009   9.649  23.870   6.963
 5357POPC   C4A68010   9.856  23.843   7.334
 5357POPC   C1B68011  10.040  23.439   6.234
 5357POPC   C2B68012  10.177  23.370   6.666
 5357POPC   C3B68013   9.943  23.405   7.081
 5357POPC   C4B68014   9.879  23.358   7.556
 5358POPC   NC368015  11.504  28.278   5.521
 5358POPC   PO468016  10.845  28.376   5.553
 5358POPC   GL168017  11.132  28.406   5.866
 5358POPC   GL268018  11.235  28.056   5.883
 5358POPC   C1A68019  11.493  28.546   6.146
 5358POPC   D2A68020  11.688  28.466   6.550
 5358POPC   C3A68021  11.655  28.699   6.940
 5358POPC   C4A68022  11.439  28.443   7.230
 5358POPC   C1B68023  11.153  28.190   6.314
 5358POPC   C2B68024  11.180  28.338   6.713
 5358POPC   C3B68025  11.131  28.066   7.034
 5358POPC   C4B68026  11.026  28.189   7.434
 5359POPC   NC368027   4.593  16.848   5.511
 5359POPC   PO468028   3.958  16.656   5.517
 5359POPC   GL168029   4.164  16.417   5.816
 5359POPC   GL268030   4.511  16.419   5.861
 5359POPC   C1A68031   4.071  16.510   6.217
 5359POPC   D2A68032   4.237  16.579   6.622
 5359POPC   C3A68033   4.000  16.583   7.017
 5359POPC   C4A68034   4.116  16.799   7.420
 5359POPC   C1B68035   4.560  16.714   6.179
 5359POPC   C2B68036   4.663  16.903   6.550
 5359POPC   C3B68037   4.461  16.959   6.932
 5359POPC   C4B68038   4.647  16.733   7.229
 5360POPC   NC368039  21.340  34.799   5.258
 5360POPC   PO468040  21.693  34.210   5.390
 5360POPC   GL168041  21.446  34.457   5.688
 5360POPC   GL268042  21.094  34.610   5.669
 5360POPC   C1A68043  21.555  34.606   6.108
 5360POPC   D2A68044  21.718  34.818   6.461
 5360POPC   C3A68045  21.537  34.658   6.804
 5360POPC   C4A68046  21.378  34.821   7.181
 5360POPC   C1B68047  21.102  34.354   6.066
 5360POPC   C2B68048  21.160  34.427   6.494
 5360POPC   C3B68049  21.105  34.437   6.934
 5360POPC   C4B68050  21.091  34.391   7.346
 5361POPC   NC368051  35.045  39.846   5.477
 5361POPC   PO468052  35.604  40.280   5.466
 5361POPC   GL168053  35.377  40.167   5.826
 5361POPC   GL268054  35.385  39.801   5.854
 5361POPC   C1A68055  35.223  40.082   6.243
 5361POPC   D2A68056  35.362  39.941   6.645
 5361POPC   C3A68057  35.513  40.157   7.032
 5361POPC   C4A68058  35.401  40.172   7.471
 5361POPC   C1B68059  35.331  39.533   6.235
 5361POPC   C2B68060  35.202  39.462   6.673
 5361POPC   C3B68061  35.268  39.688   7.074
 5361POPC   C4B68062  35.325  39.639   7.506
 5362POPC   NC368063   4.670   8.830   5.193
 5362POPC   PO468064   4.095   8.759   5.516
 5362POPC   GL168065   4.034   8.971   5.927
 5362POPC   GL268066   4.157   9.258   5.786
 5362POPC   C1A68067   4.047   9.032   6.386
 5362POPC   D2A68068   4.029   8.983   6.833
 5362POPC   C3A68069   4.370   8.765   6.969
 5362POPC   C4A68070   4.567   8.778   7.358
 5362POPC   C1B68071   4.468   9.247   6.119
 5362POPC   C2B68072   4.545   9.120   6.543
 5362POPC   C3B68073   4.462   9.284   6.921
 5362POPC   C4B68074   4.282   9.191   7.258
 5363POPC   NC368075  15.795  16.912   5.337
 5363POPC   PO468076  16.263  16.512   5.517
 5363POPC   GL168077  16.014  16.579   5.904
 5363POPC   GL268078  15.687  16.723   5.809
 5363POPC   C1A68079  15.875  16.490   6.328
 5363POPC   D2A68080  16.072  16.650   6.701
 5363POPC   C3A68081  15.933  16.438   7.102
 5363POPC   C4A68082  15.594  16.413   7.407
 5363POPC   C1B68083  15.785  16.966   6.163
 5363POPC   C2B68084  15.653  16.917   6.572
 5363POPC   C3B68085  15.717  16.895   6.994
 5363POPC   C4B68086  15.519  17.208   7.119
 5364POPC   NC368087  26.842  29.032   5.341
 5364POPC   PO468088  27.028  29.645   5.596
 5364POPC   GL168089  26.884  29.294   5.854
 5364POPC   GL268090  26.872  28.940   5.836
 5364POPC   C1A68091  26.679  29.161   6.256
 5364POPC   D2A68092  26.716  29.002   6.666
 5364POPC   C3A68093  26.862  29.312   6.942
 5364POPC   C4A68094  26.875  29.285   7.388
 5364POPC   C1B68095  27.114  28.869   6.234
 5364POPC   C2B68096  27.229  29.043   6.665
 5364POPC   C3B68097  27.104  28.900   7.115
 5364POPC   C4B68098  27.173  28.949   7.588
 5365POPC   NC368099   1.778  12.030   5.438
 5365POPC   PO468100   2.328  12.297   5.653
 5365POPC   GL168101   2.062  12.075   5.919
 5365POPC   GL268102   1.998  11.720   5.775
 5365POPC   C1A68103   1.983  12.069   6.376
 5365POPC   D2A68104   1.830  12.034   6.843
 5365POPC   C3A68105   2.025  12.098   7.279
 5365POPC   C4A68106   2.229  12.124   7.726
 5365POPC   C1B68107   2.183  11.632   6.182
 5365POPC   C2B68108   2.253  11.710   6.612
 5365POPC   C3B68109   2.112  11.640   7.027
 5365POPC   C4B68110   2.324  11.686   7.405
 5366POPC   NC368111  26.276  29.300   5.372
 5366POPC   PO468112  25.946  28.779   5.139
 5366POPC   GL168113  25.977  28.975   5.615
 5366POPC   GL268114  25.840  29.297   5.752
 5366POPC   C1A68115  26.216  29.108   6.031
 5366POPC   D2A68116  26.095  29.322   6.436
 5366POPC   C3A68117  26.282  29.230   6.834
 5366POPC   C4A68118  26.413  29.373   7.216
 5366POPC   C1B68119  25.723  29.090   6.129
 5366POPC   C2B68120  25.778  28.885   6.503
 5366POPC   C3B68121  25.820  29.034   6.919
 5366POPC   C4B68122  26.135  28.918   7.229
 5367POPC   NC368123  13.476  39.110   5.513
 5367POPC   PO468124  13.809  39.616   5.779
 5367POPC   GL168125  13.618  39.322   6.001
 5367POPC   GL268126  13.374  39.074   6.009
 5367POPC   C1A68127  13.559  39.350   6.421
 5367POPC   D2A68128  13.327  39.573   6.724
 5367POPC   C3A68129  13.569  39.358   6.981
 5367POPC   C4A68130  13.978  39.254   7.088
 5367POPC   C1B68131  13.699  38.883   6.264
 5367POPC   C2B68132  13.750  38.949   6.679
 5367POPC   C3B68133  13.602  38.866   7.061
 5367POPC   C4B68134  13.866  38.855   7.414
 5368POPC   NC368135   3.031  33.509   5.413
 5368POPC   PO468136   2.846  34.186   5.315
 5368POPC   GL168137   2.782  33.889   5.706
 5368POPC   GL268138   2.507  33.623   5.653
 5368POPC   C1A68139   2.812  34.022   6.167
 5368POPC   D2A68140   3.035  34.073   6.574
 5368POPC   C3A68141   2.888  33.771   6.855
 5368POPC   C4A68142   2.665  33.757   7.250
 5368POPC   C1B68143   2.422  33.452   6.061
 5368POPC   C2B68144   2.614  33.567   6.459
 5368POPC   C3B68145   2.386  33.572   6.880
 5368POPC   C4B68146   2.351  33.318   7.297
 5369POPC   NC368147  38.008  28.037   5.626
 5369POPC   PO468148  37.702  28.483   5.299
 5369POPC   GL168149  37.438  28.438   5.703
 5369POPC   GL268150  37.708  28.357   5.853
 5369POPC   C1A68151  37.301  28.184   6.081
 5369POPC   D2A68152  37.520  28.171   6.463
 5369POPC   C3A68153  37.323  28.389   6.781
 5369POPC   C4A68154  37.376  28.309   7.209
 5369POPC   C1B68155  37.620  28.593   6.178
 5369POPC   C2B68156  37.786  28.595   6.586
 5369POPC   C3B68157  37.831  28.428   6.976
 5369POPC   C4B68158  37.727  28.624   7.358
 5370POPC   NC368159   4.682   7.454   5.497
 5370POPC   PO468160   4.101   7.760   5.548
 5370POPC   GL168161   4.237   7.448   5.814
 5370POPC   GL268162   3.963   7.232   5.747
 5370POPC   C1A68163   4.284   7.561   6.243
 5370POPC   D2A68164   4.121   7.500   6.640
 5370POPC   C3A68165   4.463   7.508   6.944
 5370POPC   C4A68166   4.458   7.665   7.347
 5370POPC   C1B68167   4.089   7.072   6.178
 5370POPC   C2B68168   4.104   6.840   6.564
 5370POPC   C3B68169   4.176   7.077   6.921
 5370POPC   C4B68170   4.001   7.469   7.155
 5371POPC   NC368171  23.270   2.201   5.577
 5371POPC   PO468172  23.833   1.894   5.434
 5371POPC   GL168173  23.729   1.802   5.845
 5371POPC   GL268174  23.400   1.885   5.952
 5371POPC   C1A68175  23.769   2.015   6.259
 5371POPC   D2A68176  24.032   2.021   6.577
 5371POPC   C3A68177  23.758   1.963   6.873
 5371POPC   C4A68178  23.756   1.838   7.237
 5371POPC   C1B68179  23.309   2.232   6.282
 5371POPC   C2B68180  23.355   2.275   6.744
 5371POPC   C3B68181  23.522   2.305   7.185
 5371POPC   C4B68182  23.376   2.035   7.539
 5372POPC   NC368183  25.589  22.539   5.354
 5372POPC   PO468184  24.958  22.393   5.352
 5372POPC   GL168185  25.197  22.365   5.753
 5372POPC   GL268186  24.877  22.421   5.883
 5372POPC   C1A68187  25.474  22.466   6.161
 5372POPC   D2A68188  25.613  22.530   6.621
 5372POPC   C3A68189  25.382  22.389   6.999
 5372POPC   C4A68190  25.172  21.980   7.166
 5372POPC   C1B68191  25.013  22.308   6.310
 5372POPC   C2B68192  24.944  22.239   6.765
 5372POPC   C3B68193  24.668  22.084   7.111
 5372POPC   C4B68194  24.809  22.001   7.546
 5373POPC   NC368195  29.453  42.967   5.457
 5373POPC   PO468196  28.955  43.477   5.412
 5373POPC   GL168197  29.107  43.178   5.772
 5373POPC   GL268198  29.100  42.769   5.788
 5373POPC   C1A68199  29.287  43.303   6.181
 5373POPC   D2A68200  29.315  43.681   6.451
 5373POPC   C3A68201  29.233  43.527   6.875
 5373POPC   C4A68202  29.184  43.218   7.208
 5373POPC   C1B68203  28.999  42.854   6.223
 5373POPC   C2B68204  29.149  42.995   6.627
 5373POPC   C3B68205  29.058  42.765   7.001
 5373POPC   C4B68206  29.396  42.663   7.250
 5374POPC   NC368207  37.904  21.817   5.481
 5374POPC   PO468208  37.463  22.290   5.542
 5374POPC   GL168209  37.592  22.050   5.863
 5374POPC   GL268210  37.915  22.197   5.825
 5374POPC   C1A68211  37.488  22.076   6.300
 5374POPC   D2A68212  37.327  22.181   6.691
 5374POPC   C3A68213  37.520  21.993   7.027
 5374POPC   C4A68214  37.518  22.005   7.456
 5374POPC   C1B68215  37.949  22.295   6.257
 5374POPC   C2B68216  37.889  22.151   6.698
 5374POPC   C3B68217  37.836  22.433   7.068
 5374POPC   C4B68218  37.770  22.432   7.514
 5375POPC   NC368219  30.553  36.166   5.380
 5375POPC   PO468220  31.063  36.568   5.471
 5375POPC   GL168221  30.880  36.219   5.766
 5375POPC   GL268222  30.596  36.422   5.836
 5375POPC   C1A68223  30.657  36.103   6.205
 5375POPC   D2A68224  30.272  36.118   6.467
 5375POPC   C3A68225  30.372  35.966   6.885
 5375POPC   C4A68226  30.391  35.863   7.319
 5375POPC   C1B68227  30.974  36.520   6.142
 5375POPC   C2B68228  31.036  36.291   6.520
 5375POPC   C3B68229  30.962  36.352   6.958
 5375POPC   C4B68230  30.634  36.298   7.232
 5376POPC   NC368231  12.519  11.574   5.583
 5376POPC   PO468232  11.844  11.476   5.511
 5376POPC   GL168233  12.091  11.517   5.888
 5376POPC   GL268234  12.289  11.213   5.890
 5376POPC   C1A68235  12.083  11.417   6.329
 5376POPC   D2A68236  11.933  11.162   6.658
 5376POPC   C3A68237  11.807  11.472   6.950
 5376POPC   C4A68238  11.975  11.787   7.194
 5376POPC   C1B68239  12.581  11.359   6.212
 5376POPC   C2B68240  12.544  11.271   6.649
 5376POPC   C3B68241  12.314  11.146   7.024
 5376POPC   C4B68242  12.324  10.978   7.457
 5377POPC   NC368243  28.171  35.796   5.411
 5377POPC   PO468244  27.617  36.158   5.415
 5377POPC   GL168245  27.732  36.054   5.799
 5377POPC   GL268246  27.758  36.414   5.904
 5377POPC   C1A68247  27.655  35.884   6.191
 5377POPC   D2A68248  27.402  36.007   6.506
 5377POPC   C3A68249  27.529  35.946   6.923
 5377POPC   C4A68250  27.399  36.071   7.329
 5377POPC   C1B68251  27.763  36.359   6.344
 5377POPC   C2B68252  27.496  36.457   6.721
 5377POPC   C3B68253  27.593  36.508   7.141
 5377POPC   C4B68254  28.001  36.518   7.318
 5378POPC   NC368255  11.506   8.519   5.622
 5378POPC   PO468256  11.318   9.103   5.381
 5378POPC   GL168257  11.412   9.012   5.791
 5378POPC   GL268258  11.627   9.270   5.848
 5378POPC   C1A68259  11.188   8.859   6.165
 5378POPC   D2A68260  11.029   8.946   6.576
 5378POPC   C3A68261  11.250   8.872   6.956
 5378POPC   C4A68262  11.101   8.806   7.385
 5378POPC   C1B68263  11.677   9.004   6.240
 5378POPC   C2B68264  11.746   8.765   6.629
 5378POPC   C3B68265  11.739   8.823   7.066
 5378POPC   C4B68266  11.507   9.112   7.316
 5379POPC   NC368267  33.759  39.828   5.329
 5379POPC   PO468268  33.704  40.415   5.480
 5379POPC   GL168269  33.682  40.072   5.787
 5379POPC   GL268270  34.009  39.854   5.823
 5379POPC   C1A68271  33.713  39.967   6.227
 5379POPC   D2A68272  33.731  39.768   6.610
 5379POPC   C3A68273  33.540  39.910   7.011
 5379POPC   C4A68274  33.608  40.029   7.456
 5379POPC   C1B68275  33.957  39.512   6.178
 5379POPC   C2B68276  34.129  39.434   6.592
 5379POPC   C3B68277  34.031  39.620   6.989
 5379POPC   C4B68278  34.022  40.041   7.140
 5380POPC   NC368279  29.927   1.878   5.052
 5380POPC   PO468280  30.290   2.264   5.601
 5380POPC   GL168281  30.066   2.093   5.992
 5380POPC   GL268282  29.777   1.811   5.980
 5380POPC   C1A68283  30.040   1.983   6.388
 5380POPC   D2A68284  30.311   1.967   6.706
 5380POPC   C3A68285  30.021   1.963   7.025
 5380POPC   C4A68286  30.017   2.355   7.199
 5380POPC   C1B68287  29.656   1.623   6.337
 5380POPC   C2B68288  29.608   1.863   6.684
 5380POPC   C3B68289  29.576   1.709   7.040
 5380POPC   C4B68290  29.702   1.806   7.427
 5381POPC   NC368291   1.655  24.108   5.346
 5381POPC   PO468292   2.361  23.987   5.276
 5381POPC   GL168293   2.251  23.896   5.733
 5381POPC   GL268294   1.907  23.925   5.754
 5381POPC   C1A68295   2.141  23.739   6.167
 5381POPC   D2A68296   2.399  23.582   6.502
 5381POPC   C3A68297   2.305  23.734   6.926
 5381POPC   C4A68298   2.168  23.452   7.266
 5381POPC   C1B68299   1.612  24.003   6.071
 5381POPC   C2B68300   1.762  23.983   6.490
 5381POPC   C3B68301   1.835  23.638   6.744
 5381POPC   C4B68302   1.805  23.779   7.138
 5382POPC   NC368303  38.596   2.511   5.476
 5382POPC   PO468304  38.227   3.027   5.515
 5382POPC   GL168305  38.391   2.824   5.867
 5382POPC   GL268306  38.709   2.931   5.784
 5382POPC   C1A68307  38.304   2.848   6.309
 5382POPC   D2A68308  38.127   3.125   6.640
 5382POPC   C3A68309  38.111   2.962   7.067
 5382POPC   C4A68310  38.293   2.579   7.203
 5382POPC   C1B68311  38.833   2.886   6.220
 5382POPC   C2B68312  38.677   2.771   6.655
 5382POPC   C3B68313  38.784   2.758   7.101
 5382POPC   C4B68314  38.735   2.501   7.464
 5383POPC   NC368315  35.566  15.049   5.508
 5383POPC   PO468316  35.158  15.559   5.325
 5383POPC   GL168317  35.200  15.300   5.742
 5383POPC   GL268318  35.501  15.387   5.906
 5383POPC   C1A68319  35.196  15.114   6.195
 5383POPC   D2A68320  35.065  15.001   6.616
 5383POPC   C3A68321  35.223  15.228   6.964
 5383POPC   C4A68322  35.454  14.992   7.240
 5383POPC   C1B68323  35.703  15.385   6.285
 5383POPC   C2B68324  35.643  15.107   6.634
 5383POPC   C3B68325  35.861  15.186   7.002
 5383POPC   C4B68326  35.641  15.537   7.121
 5384POPC   NC368327  14.428  43.905   5.179
 5384POPC   PO468328  14.827  43.320   5.341
 5384POPC   GL168329  14.527  43.600   5.586
 5384POPC   GL268330  14.559  43.398   5.806
 5384POPC   C1A68331  14.223  43.748   5.986
 5384POPC   D2A68332  14.151  44.045   6.349
 5384POPC   C3A68333  14.195  43.932   6.817
 5384POPC   C4A68334  14.040  44.052   7.239
 5384POPC   C1B68335  14.717  43.752   6.096
 5384POPC   C2B68336  14.699  43.939   6.503
 5384POPC   C3B68337  14.754  43.875   6.939
 5384POPC   C4B68338  14.472  43.743   7.241
 5385POPC   NC368339   6.791  37.594   5.350
 5385POPC   PO468340   6.539  38.227   5.508
 5385POPC   GL168341   6.565  37.885   5.848
 5385POPC   GL268342   6.702  37.519   5.845
 5385POPC   C1A68343   6.595  37.743   6.296
 5385POPC   D2A68344   6.842  37.602   6.654
 5385POPC   C3A68345   6.713  37.843   6.982
 5385POPC   C4A68346   6.597  38.023   7.358
 5385POPC   C1B68347   6.570  37.248   6.185
 5385POPC   C2B68348   6.481  37.254   6.614
 5385POPC   C3B68349   6.576  37.322   7.047
 5385POPC   C4B68350   6.731  37.541   7.404
 5386POPC   NC368351  39.787   2.210   5.569
 5386POPC   PO468352  40.265   1.785   5.291
 5386POPC   GL168353  40.151   1.842   5.738
 5386POPC   GL268354  40.303   2.170   5.760
 5386POPC   C1A68355  40.034   2.046   6.170
 5386POPC   D2A68356  39.900   1.898   6.557
 5386POPC   C3A68357  39.785   2.190   6.871
 5386POPC   C4A68358  39.921   1.956   7.209
 5386POPC   C1B68359  40.413   2.365   6.182
 5386POPC   C2B68360  40.177   2.386   6.581
 5386POPC   C3B68361  40.282   2.282   7.003
 5386POPC   C4B68362  40.163   2.310   7.455
 5387POPC   NC368363  32.749  37.666   5.347
 5387POPC   PO468364  33.413  37.520   5.456
 5387POPC   GL168365  33.117  37.622   5.792
 5387POPC   GL268366  32.870  37.912   5.763
 5387POPC   C1A68367  33.224  37.537   6.220
 5387POPC   D2A68368  33.018  37.509   6.594
 5387POPC   C3A68369  33.191  37.572   6.982
 5387POPC   C4A68370  32.953  37.368   7.284
 5387POPC   C1B68371  32.932  37.979   6.176
 5387POPC   C2B68372  32.812  37.981   6.566
 5387POPC   C3B68373  32.973  38.044   6.969
 5387POPC   C4B68374  32.869  37.880   7.339
 5388POPC   NC368375  21.101  22.989   5.407
 5388POPC   PO468376  21.684  22.729   5.397
 5388POPC   GL168377  21.524  22.928   5.765
 5388POPC   GL268378  21.286  22.663   5.765
 5388POPC   C1A68379  21.571  23.124   6.207
 5388POPC   D2A68380  21.268  23.137   6.570
 5388POPC   C3A68381  21.367  23.014   6.977
 5388POPC   C4A68382  21.684  23.173   7.291
 5388POPC   C1B68383  21.153  22.834   6.155
 5388POPC   C2B68384  21.038  22.658   6.556
 5388POPC   C3B68385  20.991  22.480   6.931
 5388POPC   C4B68386  21.110  22.680   7.272
 5389POPC   NC368387   3.816  16.218   5.483
 5389POPC   PO468388   3.256  15.931   5.397
 5389POPC   GL168389   3.417  16.066   5.800
 5389POPC   GL268390   3.490  15.744   5.831
 5389POPC   C1A68391   3.616  16.088   6.237
 5389POPC   D2A68392   3.933  16.139   6.539
 5389POPC   C3A68393   3.764  16.086   6.922
 5389POPC   C4A68394   3.576  16.036   7.298
 5389POPC   C1B68395   3.452  15.586   6.225
 5389POPC   C2B68396   3.531  15.741   6.623
 5389POPC   C3B68397   3.403  15.651   7.030
 5389POPC   C4B68398   3.597  15.552   7.475
 5390POPC   NC368399   5.993  15.955   5.653
 5390POPC   PO468400   5.641  16.465   5.412
 5390POPC   GL168401   5.603  16.253   5.851
 5390POPC   GL268402   5.913  16.226   6.080
 5390POPC   C1A68403   5.468  16.034   6.251
 5390POPC   D2A68404   5.663  15.748   6.568
 5390POPC   C3A68405   5.623  15.948   6.947
 5390POPC   C4A68406   5.860  16.051   7.302
 5390POPC   C1B68407   6.138  15.895   6.334
 5390POPC   C2B68408   6.185  15.590   6.684
 5390POPC   C3B68409   5.961  15.588   7.067
 5390POPC   C4B68410   6.027  15.600   7.517
 5391POPC   NC368411   9.709   7.776   5.431
 5391POPC   PO468412  10.018   7.254   5.304
 5391POPC   GL168413   9.956   7.160   5.720
 5391POPC   GL268414   9.690   7.373   5.787
 5391POPC   C1A68415  10.151   7.142   6.121
 5391POPC   D2A68416  10.321   7.260   6.538
 5391POPC   C3A68417  10.038   7.432   6.839
 5391POPC   C4A68418   9.768   7.527   7.181
 5391POPC   C1B68419   9.637   7.569   6.209
 5391POPC   C2B68420   9.543   7.542   6.665
 5391POPC   C3B68421   9.373   7.798   7.039
 5391POPC   C4B68422   9.433   7.815   7.510
 5392POPC   NC368423  15.063  38.614   5.358
 5392POPC   PO468424  15.182  38.025   5.559
 5392POPC   GL168425  15.143  38.391   5.841
 5392POPC   GL268426  15.432  38.580   5.735
 5392POPC   C1A68427  15.048  38.456   6.300
 5392POPC   D2A68428  15.246  38.215   6.644
 5392POPC   C3A68429  15.001  38.084   6.988
 5392POPC   C4A68430  14.827  38.457   7.145
 5392POPC   C1B68431  15.536  38.409   6.177
 5392POPC   C2B68432  15.671  38.522   6.595
 5392POPC   C3B68433  15.608  38.490   7.038
 5392POPC   C4B68434  15.290  38.398   7.335
 5393POPC   NC368435   3.734  19.452   5.576
 5393POPC   PO468436   3.212  19.797   5.233
 5393POPC   GL168437   3.426  19.940   5.698
 5393POPC   GL268438   3.459  19.706   5.964
 5393POPC   C1A68439   3.663  20.116   6.164
 5393POPC   D2A68440   3.774  19.941   6.582
 5393POPC   C3A68441   3.716  20.182   6.963
 5393POPC   C4A68442   3.424  19.983   7.274
 5393POPC   C1B68443   3.225  19.863   6.298
 5393POPC   C2B68444   3.203  19.873   6.743
 5393POPC   C3B68445   3.160  19.556   7.032
 5393POPC   C4B68446   3.542  19.449   7.211
 5394POPC   NC368447   8.190  10.325   5.419
 5394POPC   PO468448   8.118   9.655   5.292
 5394POPC   GL168449   8.021   9.653   5.731
 5394POPC   GL268450   8.341   9.668   5.774
 5394POPC   C1A68451   7.960   9.565   6.185
 5394POPC   D2A68452   8.181   9.606   6.598
 5394POPC   C3A68453   8.018   9.638   7.037
 5394POPC   C4A68454   8.033   9.726   7.491
 5394POPC   C1B68455   8.457   9.754   6.171
 5394POPC   C2B68456   8.569   9.978   6.517
 5394POPC   C3B68457   8.453   9.937   6.905
 5394POPC   C4B68458   8.531   9.813   7.289
 5395POPC   NC368459  19.655  20.679   5.363
 5395POPC   PO468460  20.156  20.279   5.333
 5395POPC   GL168461  19.924  20.421   5.781
 5395POPC   GL268462  19.661  20.633   5.855
 5395POPC   C1A68463  19.958  20.732   6.229
 5395POPC   D2A68464  19.751  20.776   6.654
 5395POPC   C3A68465  20.021  20.773   7.057
 5395POPC   C4A68466  20.323  20.843   7.367
 5395POPC   C1B68467  19.405  20.656   6.222
 5395POPC   C2B68468  19.300  20.442   6.584
 5395POPC   C3B68469  19.452  20.411   6.984
 5395POPC   C4B68470  19.547  20.787   7.213
 5396POPC   NC368471  33.662  16.341   5.712
 5396POPC   PO468472  33.539  17.001   5.485
 5396POPC   GL168473  33.790  16.858   5.863
 5396POPC   GL268474  34.123  16.672   5.826
 5396POPC   C1A68475  33.808  16.999   6.317
 5396POPC   D2A68476  33.470  16.991   6.633
 5396POPC   C3A68477  33.628  16.905   7.044
 5396POPC   C4A68478  34.033  16.812   7.061
 5396POPC   C1B68479  33.992  16.523   6.260
 5396POPC   C2B68480  33.749  16.548   6.650
 5396POPC   C3B68481  33.764  16.376   7.065
 5396POPC   C4B68482  33.876  16.518   7.518
 5397POPC   NC368483  27.929  19.187   5.303
 5397POPC   PO468484  27.429  18.784   5.230
 5397POPC   GL168485  27.609  18.888   5.653
 5397POPC   GL268486  27.675  19.234   5.774
 5397POPC   C1A68487  27.647  18.861   6.115
 5397POPC   D2A68488  27.733  19.018   6.530
 5397POPC   C3A68489  27.589  18.920   6.915
 5397POPC   C4A68490  27.368  19.007   7.231
 5397POPC   C1B68491  27.660  19.454   6.182
 5397POPC   C2B68492  27.872  19.507   6.575
 5397POPC   C3B68493  27.664  19.427   6.974
 5397POPC   C4B68494  27.729  19.287   7.437
 5398POPC   NC368495  17.119  35.197   5.251
 5398POPC   PO468496  16.615  34.992   5.617
 5398POPC   GL168497  16.611  35.306   5.882
 5398POPC   GL268498  16.439  35.632   5.813
 5398POPC   C1A68499  16.819  35.344   6.250
 5398POPC   D2A68500  17.007  35.101   6.571
 5398POPC   C3A68501  16.924  35.311   6.929
 5398POPC   C4A68502  16.785  35.250   7.316
 5398POPC   C1B68503  16.278  35.475   6.211
 5398POPC   C2B68504  16.444  35.324   6.615
 5398POPC   C3B68505  16.472  35.528   7.003
 5398POPC   C4B68506  16.235  35.575   7.369
 5399POPC   NC368507  16.223  13.609   5.275
 5399POPC   PO468508  15.575  13.455   5.289
 5399POPC   GL168509  15.893  13.399   5.641
 5399POPC   GL268510  16.074  13.683   5.765
 5399POPC   C1A68511  15.947  13.389   6.126
 5399POPC   D2A68512  15.861  13.685   6.482
 5399POPC   C3A68513  15.846  13.494   6.906
 5399POPC   C4A68514  16.132  13.267   7.172
 5399POPC   C1B68515  16.345  13.854   6.072
 5399POPC   C2B68516  16.473  13.937   6.496
 5399POPC   C3B68517  16.225  13.832   6.848
 5399POPC   C4B68518  16.002  13.826   7.275
 5400POPC   NC368519   5.856   9.620   5.532
 5400POPC   PO468520   5.424  10.091   5.325
 5400POPC   GL168521   5.654  10.153   5.756
 5400POPC   GL268522   6.012   9.988   5.883
 5400POPC   C1A68523   5.607   9.986   6.193
 5400POPC   D2A68524   5.741   9.646   6.483
 5400POPC   C3A68525   5.734   9.757   6.937
 5400POPC   C4A68526   5.845   9.905   7.377
 5400POPC   C1B68527   6.218   9.745   6.280
 5400POPC   C2B68528   6.181   9.475   6.713
 5400POPC   C3B68529   6.081   9.478   7.195
 5400POPC   C4B68530   6.209   9.523   7.648
 5401POPC   NC368531  15.414  41.700   5.370
 5401POPC   PO468532  14.754  41.690   5.497
 5401POPC   GL168533  15.068  41.570   5.776
 5401POPC   GL268534  15.276  41.844   5.824
 5401POPC   C1A68535  15.070  41.453   6.205
 5401POPC   D2A68536  14.867  41.576   6.593
 5401POPC   C3A68537  14.965  41.365   6.989
 5401POPC   C4A68538  15.259  41.408   7.317
 5401POPC   C1B68539  15.138  41.972   6.190
 5401POPC   C2B68540  15.156  42.010   6.586
 5401POPC   C3B68541  15.106  41.863   6.963
 5401POPC   C4B68542  15.189  42.016   7.358
 5402POPC   NC368543  34.266  26.326   5.404
 5402POPC   PO468544  34.919  26.125   5.260
 5402POPC   GL168545  34.669  26.023   5.660
 5402POPC   GL268546  34.559  26.251   5.818
 5402POPC   C1A68547  34.743  25.901   6.147
 5402POPC   D2A68548  34.513  25.892   6.571
 5402POPC   C3A68549  34.736  26.052   6.937
 5402POPC   C4A68550  34.699  26.340   7.287
 5402POPC   C1B68551  34.276  26.125   6.132
 5402POPC   C2B68552  34.111  26.328   6.503
 5402POPC   C3B68553  34.293  26.322   6.905
 5402POPC   C4B68554  34.263  26.584   7.261
 5403POPC   NC368555  44.576  24.013   4.992
 5403POPC   PO468556  44.803  23.449   5.291
 5403POPC   GL168557  44.663  23.562   5.752
 5403POPC   GL268558  44.405  23.820   5.782
 5403POPC   C1A68559  44.812  23.785   6.143
 5403POPC   D2A68560  44.813  23.600   6.553
 5403POPC   C3A68561  44.834  23.793   6.960
 5403POPC   C4A68562   0.002  23.515   7.242
 5403POPC   C1B68563  44.303  23.851   6.227
 5403POPC   C2B68564  44.462  23.972   6.630
 5403POPC   C3B68565  44.356  23.931   7.077
 5403POPC   C4B68566  44.570  23.848   7.484
 5404POPC   NC368567  21.516  22.307   5.425
 5404POPC   PO468568  20.906  22.112   5.516
 5404POPC   GL168569  21.218  22.168   5.854
 5404POPC   GL268570  21.601  22.138   5.892
 5404POPC   C1A68571  21.307  22.357   6.242
 5404POPC   D2A68572  21.233  22.189   6.621
 5404POPC   C3A68573  21.453  22.287   7.020
 5404POPC   C4A68574  21.533  22.271   7.471
 5404POPC   C1B68575  21.502  21.883   6.284
 5404POPC   C2B68576  21.418  21.748   6.738
 5404POPC   C3B68577  21.380  21.794   7.202
 5404POPC   C4B68578  21.710  21.771   7.535
 5405POPC   NC368579   4.666  29.829   5.417
 5405POPC   PO468580   3.989  29.852   5.450
 5405POPC   GL168581   4.214  29.823   5.826
 5405POPC   GL268582   4.538  29.626   5.868
 5405POPC   C1A68583   4.044  29.973   6.207
 5405POPC   D2A68584   4.012  30.176   6.590
 5405POPC   C3A68585   4.049  29.914   6.932
 5405POPC   C4A68586   4.341  29.912   7.243
 5405POPC   C1B68587   4.580  29.965   6.155
 5405POPC   C2B68588   4.460  29.937   6.566
 5405POPC   C3B68589   4.473  29.599   6.850
 5405POPC   C4B68590   4.730  29.579   7.188
 5406POPC   NC368591  26.478  24.203   5.486
 5406POPC   PO468592  25.899  24.504   5.241
 5406POPC   GL168593  25.924  24.562   5.693
 5406POPC   GL268594  26.059  24.227   5.811
 5406POPC   C1A68595  25.793  24.536   6.149
 5406POPC   D2A68596  25.912  24.401   6.577
 5406POPC   C3A68597  25.792  24.730   6.858
 5406POPC   C4A68598  25.732  24.775   7.282
 5406POPC   C1B68599  25.808  24.018   6.150
 5406POPC   C2B68600  25.657  23.953   6.540
 5406POPC   C3B68601  25.813  23.937   6.933
 5406POPC   C4B68602  25.918  24.329   7.115
 5407POPC   NC368603   9.312   4.463   5.373
 5407POPC   PO468604   8.628   4.435   5.395
 5407POPC   GL168605   8.766   4.209   5.760
 5407POPC   GL268606   9.114   4.107   5.711
 5407POPC   C1A68607   8.844   4.080   6.197
 5407POPC   D2A68608   8.853   4.349   6.573
 5407POPC   C3A68609   8.920   4.123   6.942
 5407POPC   C4A68610   8.741   4.177   7.319
 5407POPC   C1B68611   9.240   4.385   6.053
 5407POPC   C2B68612   9.347   4.289   6.493
 5407POPC   C3B68613   9.308   4.461   6.908
 5407POPC   C4B68614   9.216   4.351   7.351
 5408POPC   NC368615  38.583  35.864   5.183
 5408POPC   PO468616  38.223  36.226   5.627
 5408POPC   GL168617  38.628  36.265   5.842
 5408POPC   GL268618  38.727  35.921   5.911
 5408POPC   C1A68619  38.752  36.409   6.284
 5408POPC   D2A68620  38.689  36.485   6.754
 5408POPC   C3A68621  38.545  36.168   7.070
 5408POPC   C4A68622  38.203  36.131   7.348
 5408POPC   C1B68623  38.409  36.019   6.248
 5408POPC   C2B68624  38.315  35.877   6.653
 5408POPC   C3B68625  38.084  35.798   6.998
 5408POPC   C4B68626  38.372  35.663   7.292
 5409POPC   NC368627   4.575  33.926   5.490
 5409POPC   PO468628   4.255  33.426   5.168
 5409POPC   GL168629   4.353  33.530   5.697
 5409POPC   GL268630   4.044  33.642   5.898
 5409POPC   C1A68631   4.508  33.671   6.138
 5409POPC   D2A68632   4.331  33.462   6.515
 5409POPC   C3A68633   4.419  33.579   6.939
 5409POPC   C4A68634   4.190  33.618   7.323
 5409POPC   C1B68635   4.077  33.983   6.220
 5409POPC   C2B68636   4.288  33.984   6.624
 5409POPC   C3B68637   4.299  34.056   7.055
 5409POPC   C4B68638   3.913  34.047   7.315
 5410POPC   NC368639  38.022   1.602   5.502
 5410POPC   PO468640  38.487   2.079   5.342
 5410POPC   GL168641  38.669   2.067   5.744
 5410POPC   GL268642  38.480   1.781   5.780
 5410POPC   C1A68643  38.496   2.189   6.141
 5410POPC   D2A68644  38.222   2.267   6.495
 5410POPC   C3A68645  38.430   2.191   6.893
 5410POPC   C4A68646  38.538   2.052   7.310
 5410POPC   C1B68647  38.614   1.659   6.138
 5410POPC   C2B68648  38.505   1.820   6.529
 5410POPC   C3B68649  38.604   1.703   6.919
 5410POPC   C4B68650  38.939   1.737   7.194
 5411POPC   NC368651   2.311  24.361   5.539
 5411POPC   PO468652   1.692  24.611   5.500
 5411POPC   GL168653   1.903  24.436   5.826
 5411POPC   GL268654   2.181  24.664   5.931
 5411POPC   C1A68655   2.051  24.258   6.173
 5411POPC   D2A68656   2.135  24.552   6.467
 5411POPC   C3A68657   1.876  24.436   6.754
 5411POPC   C4A68658   1.888  24.289   7.129
 5411POPC   C1B68659   1.883  24.881   6.157
 5411POPC   C2B68660   1.868  25.007   6.586
 5411POPC   C3B68661   1.797  24.875   6.991
 5411POPC   C4B68662   2.144  24.750   7.186
 5412POPC   NC368663   9.992  15.498   5.174
 5412POPC   PO468664   9.521  16.021   5.310
 5412POPC   GL168665   9.489  15.841   5.771
 5412POPC   GL268666   9.384  15.482   5.686
 5412POPC   C1A68667   9.565  15.968   6.253
 5412POPC   D2A68668   9.666  16.032   6.735
 5412POPC   C3A68669   9.836  16.267   7.129
 5412POPC   C4A68670   9.643  16.395   7.568
 5412POPC   C1B68671   9.341  15.495   6.154
 5412POPC   C2B68672   9.313  15.492   6.608
 5412POPC   C3B68673   9.505  15.638   6.997
 5412POPC   C4B68674   9.957  15.695   7.162
 5413POPC   NC368675  27.197  24.278   5.296
 5413POPC   PO468676  26.653  24.666   5.366
 5413POPC   GL168677  26.746  24.601   5.828
 5413POPC   GL268678  26.977  24.360   6.081
 5413POPC   C1A68679  26.740  24.777   6.235
 5413POPC   D2A68680  27.036  24.634   6.543
 5413POPC   C3A68681  26.925  24.575   6.979
 5413POPC   C4A68682  27.063  24.178   7.150
 5413POPC   C1B68683  26.512  24.317   6.180
 5413POPC   C2B68684  26.411  24.509   6.554
 5413POPC   C3B68685  26.409  24.414   6.943
 5413POPC   C4B68686  26.351  24.105   7.216
 5414POPC   NC368687   2.178  16.020   5.370
 5414POPC   PO468688   1.579  15.628   5.360
 5414POPC   GL168689   1.876  15.782   5.778
 5414POPC   GL268690   2.089  16.116   5.862
 5414POPC   C1A68691   2.105  15.805   6.241
 5414POPC   D2A68692   1.955  16.008   6.612
 5414POPC   C3A68693   2.077  15.939   7.040
 5414POPC   C4A68694   1.896  16.041   7.432
 5414POPC   C1B68695   2.320  16.272   6.276
 5414POPC   C2B68696   2.342  16.317   6.751
 5414POPC   C3B68697   2.305  16.365   7.232
 5414POPC   C4B68698   2.246  16.368   7.677
 5415POPC   NC368699  20.406  36.298   5.195
 5415POPC   PO468700  21.006  36.187   5.581
 5415POPC   GL168701  21.001  35.906   5.965
 5415POPC   GL268702  20.665  36.018   5.967
 5415POPC   C1A68703  20.832  35.945   6.423
 5415POPC   D2A68704  20.509  36.234   6.608
 5415POPC   C3A68705  20.680  36.155   6.953
 5415POPC   C4A68706  20.842  36.199   7.311
 5415POPC   C1B68707  20.329  35.914   6.268
 5415POPC   C2B68708  20.402  35.733   6.674
 5415POPC   C3B68709  20.217  35.777   7.075
 5415POPC   C4B68710  20.344  36.018   7.444
 5416POPC   NC368711  44.285   1.598   5.505
 5416POPC   PO468712  44.462   2.143   5.079
 5416POPC   GL168713  44.526   2.080   5.610
 5416POPC   GL268714  44.329   1.927   5.892
 5416POPC   C1A68715  44.723   2.179   6.057
 5416POPC   D2A68716  44.500   2.061   6.432
 5416POPC   C3A68717  44.573   2.261   6.816
 5416POPC   C4A68718  44.563   2.209   7.267
 5416POPC   C1B68719  44.334   1.594   6.213
 5416POPC   C2B68720  44.528   1.536   6.606
 5416POPC   C3B68721  44.508   1.788   6.961
 5416POPC   C4B68722  44.766   1.609   7.255
 5417POPC   NC368723  40.200  42.654   5.407
 5417POPC   PO468724  39.826  42.123   5.403
 5417POPC   GL168725  39.832  42.357   5.783
 5417POPC   GL268726  40.176  42.354   5.845
 5417POPC   C1A68727  39.710  42.238   6.214
 5417POPC   D2A68728  39.707  42.479   6.613
 5417POPC   C3A68729  40.024  42.343   6.944
 5417POPC   C4A68730  39.925  42.298   7.404
 5417POPC   C1B68731  40.180  42.445   6.281
 5417POPC   C2B68732  40.264  42.721   6.609
 5417POPC   C3B68733  40.365  42.760   7.004
 5417POPC   C4B68734  40.369  42.497   7.304
 5418POPC   NC368735  19.820  24.739   5.205
 5418POPC   PO468736  19.488  24.199   5.447
 5418POPC   GL168737  19.716  24.519   5.691
 5418POPC   GL268738  19.511  24.448   5.961
 5418POPC   C1A68739  19.936  24.695   6.080
 5418POPC   D2A68740  20.082  24.736   6.542
 5418POPC   C3A68741  19.809  24.588   6.888
 5418POPC   C4A68742  19.943  24.520   7.317
 5418POPC   C1B68743  19.852  24.178   6.143
 5418POPC   C2B68744  19.894  23.946   6.542
 5418POPC   C3B68745  19.635  23.900   6.909
 5418POPC   C4B68746  19.578  24.190   7.218
 5419POPC   NC368747  24.233  29.329   5.407
 5419POPC   PO468748  24.934  29.457   5.390
 5419POPC   GL168749  24.603  29.483   5.753
 5419POPC   GL268750  24.504  29.116   5.805
 5419POPC   C1A68751  24.560  29.354   6.226
 5419POPC   D2A68752  24.449  29.076   6.540
 5419POPC   C3A68753  24.566  29.247   6.926
 5419POPC   C4A68754  24.395  29.198   7.324
 5419POPC   C1B68755  24.780  28.897   6.135
 5419POPC   C2B68756  24.792  28.670   6.538
 5419POPC   C3B68757  24.591  28.727   6.971
 5419POPC   C4B68758  24.687  28.721   7.437
 5420POPC   NC368759   4.594   6.493   5.579
 5420POPC   PO468760   4.770   7.091   5.213
 5420POPC   GL168761   4.553   6.997   5.708
 5420POPC   GL268762   4.217   6.788   5.776
 5420POPC   C1A68763   4.527   6.800   6.172
 5420POPC   D2A68764   4.603   6.661   6.615
 5420POPC   C3A68765   4.326   6.391   6.856
 5420POPC   C4A68766   4.141   6.320   7.293
 5420POPC   C1B68767   4.079   6.508   6.158
 5420POPC   C2B68768   3.932   6.311   6.568
 5420POPC   C3B68769   3.824   6.566   6.922
 5420POPC   C4B68770   3.938   6.819   7.266
 5421POPC   NC368771  43.060  15.707   5.360
 5421POPC   PO468772  42.716  16.281   5.411
 5421POPC   GL168773  42.863  16.097   5.812
 5421POPC   GL268774  43.206  15.925   5.830
 5421POPC   C1A68775  42.942  16.079   6.258
 5421POPC   D2A68776  42.764  15.948   6.636
 5421POPC   C3A68777  42.946  15.999   7.047
 5421POPC   C4A68778  43.326  16.253   7.082
 5421POPC   C1B68779  43.297  15.709   6.240
 5421POPC   C2B68780  43.234  15.694   6.716
 5421POPC   C3B68781  43.320  15.643   7.181
 5421POPC   C4B68782  43.507  15.617   7.629
 5422POPC   NC368783  15.508  35.530   5.023
 5422POPC   PO468784  15.056  35.184   5.338
 5422POPC   GL168785  15.090  35.336   5.751
 5422POPC   GL268786  14.866  35.640   5.817
 5422POPC   C1A68787  15.291  35.240   6.167
 5422POPC   D2A68788  15.392  35.440   6.565
 5422POPC   C3A68789  15.189  35.372   6.959
 5422POPC   C4A68790  15.370  35.103   7.272
 5422POPC   C1B68791  15.117  35.728   6.208
 5422POPC   C2B68792  15.052  35.831   6.668
 5422POPC   C3B68793  14.975  35.808   7.129
 5422POPC   C4B68794  15.173  35.560   7.460
 5423POPC   NC368795  42.624  19.969   5.414
 5423POPC   PO468796  42.296  19.397   5.433
 5423POPC   GL168797  42.378  19.678   5.764
 5423POPC   GL268798  42.143  19.952   5.663
 5423POPC   C1A68799  42.519  19.879   6.158
 5423POPC   D2A68800  42.497  20.001   6.637
 5423POPC   C3A68801  42.527  19.668   6.989
 5423POPC   C4A68802  42.503  19.794   7.407
 5423POPC   C1B68803  41.989  19.773   6.072
 5423POPC   C2B68804  42.177  19.648   6.451
 5423POPC   C3B68805  42.060  19.780   6.865
 5423POPC   C4B68806  42.046  19.549   7.223
 5424POPC   NC368807  17.292  15.756   5.337
 5424POPC   PO468808  17.850  16.047   5.089
 5424POPC   GL168809  17.680  15.916   5.606
 5424POPC   GL268810  17.373  16.082   5.739
 5424POPC   C1A68811  17.702  15.862   6.094
 5424POPC   D2A68812  17.541  15.872   6.541
 5424POPC   C3A68813  17.744  15.861   6.978
 5424POPC   C4A68814  17.595  16.150   7.320
 5424POPC   C1B68815  17.189  16.019   6.163
 5424POPC   C2B68816  17.031  15.817   6.564
 5424POPC   C3B68817  17.222  15.881   6.962
 5424POPC   C4B68818  17.310  15.731   7.352
 5425POPC   NC368819  22.623  44.718   5.256
 5425POPC   PO468820  21.956  44.787   5.327
 5425POPC   GL168821  22.230  44.701   5.710
 5425POPC   GL268822  22.054  44.883   5.947
 5425POPC   C1A68823  22.477  44.721   6.152
 5425POPC   D2A68824  22.426  44.747   6.637
 5425POPC   C3A68825  22.363  44.386   6.936
 5425POPC   C4A68826  22.377  44.304   7.407
 5425POPC   C1B68827  21.968  44.584   6.305
 5425POPC   C2B68828  21.924  44.629   6.771
 5425POPC   C3B68829  21.813  44.535   7.203
 5425POPC   C4B68830  21.756  44.319   7.613
 5426POPC   NC368831   2.038   3.336   5.388
 5426POPC   PO468832   2.081   3.951   5.472
 5426POPC   GL168833   2.231   3.694   5.836
 5426POPC   GL268834   2.151   3.320   5.913
 5426POPC   C1A68835   2.053   3.661   6.271
 5426POPC   D2A68836   2.073   3.360   6.582
 5426POPC   C3A68837   1.987   3.533   6.959
 5426POPC   C4A68838   2.102   3.487   7.371
 5426POPC   C1B68839   1.781   3.209   6.140
 5426POPC   C2B68840   1.594   3.185   6.533
 5426POPC   C3B68841   1.790   3.054   6.972
 5426POPC   C4B68842   1.750   3.107   7.460
 5427POPC   NC368843  38.255  21.049   5.356
 5427POPC   PO468844  38.252  20.380   5.466
 5427POPC   GL168845  38.398  20.648   5.787
 5427POPC   GL268846  38.197  20.422   5.981
 5427POPC   C1A68847  38.467  20.791   6.246
 5427POPC   D2A68848  38.323  20.750   6.704
 5427POPC   C3A68849  38.592  20.791   7.055
 5427POPC   C4A68850  38.674  20.513   7.403
 5427POPC   C1B68851  37.996  20.569   6.343
 5427POPC   C2B68852  38.008  20.318   6.708
 5427POPC   C3B68853  38.279  20.311   7.057
 5427POPC   C4B68854  38.202  20.369   7.480
 5428POPC   NC368855  28.953  39.160   5.409
 5428POPC   PO468856  29.611  39.313   5.345
 5428POPC   GL168857  29.306  39.125   5.757
 5428POPC   GL268858  28.931  39.102   5.905
 5428POPC   C1A68859  29.325  39.134   6.228
 5428POPC   D2A68860  29.065  39.192   6.624
 5428POPC   C3A68861  29.248  39.134   7.046
 5428POPC   C4A68862  29.125  39.099   7.480
 5428POPC   C1B68863  28.770  39.423   6.230
 5428POPC   C2B68864  28.678  39.535   6.680
 5428POPC   C3B68865  28.789  39.360   7.119
 5428POPC   C4B68866  28.805  39.461   7.573
 5429POPC   NC368867  22.581  39.662   5.580
 5429POPC   PO468868  23.178  39.898   5.494
 5429POPC   GL168869  22.918  39.930   5.856
 5429POPC   GL268870  22.991  39.565   5.881
 5429POPC   C1A68871  22.805  40.137   6.260
 5429POPC   D2A68872  22.841  40.066   6.708
 5429POPC   C3A68873  23.004  40.212   7.097
 5429POPC   C4A68874  22.762  39.982   7.414
 5429POPC   C1B68875  23.181  39.719   6.243
 5429POPC   C2B68876  22.924  39.597   6.569
 5429POPC   C3B68877  22.980  39.675   7.005
 5429POPC   C4B68878  23.047  39.550   7.395
 5430POPC   NC368879  36.677  25.021   5.566
 5430POPC   PO468880  36.085  25.298   5.401
 5430POPC   GL168881  36.087  25.037   5.793
 5430POPC   GL268882  36.359  25.152   5.998
 5430POPC   C1A68883  35.895  24.957   6.216
 5430POPC   D2A68884  35.905  25.238   6.588
 5430POPC   C3A68885  35.836  25.312   7.013
 5430POPC   C4A68886  36.088  25.596   7.285
 5430POPC   C1B68887  36.324  25.453   6.378
 5430POPC   C2B68888  36.348  25.469   6.848
 5430POPC   C3B68889  36.299  25.162   7.174
 5430POPC   C4B68890  36.448  24.883   7.488
 5431POPC   NC368891  34.987  18.435   5.488
 5431POPC   PO468892  35.661  18.680   5.465
 5431POPC   GL168893  35.395  18.503   5.829
 5431POPC   GL268894  35.302  18.172   5.884
 5431POPC   C1A68895  35.206  18.516   6.268
 5431POPC   D2A68896  35.140  18.667   6.714
 5431POPC   C3A68897  35.200  18.434   7.101
 5431POPC   C4A68898  35.222  18.383   7.563
 5431POPC   C1B68899  35.551  18.139   6.312
 5431POPC   C2B68900  35.462  18.053   6.808
 5431POPC   C3B68901  35.149  17.930   7.188
 5431POPC   C4B68902  35.077  17.878   7.673
 5432POPC   NC368903   3.276  27.015   5.346
 5432POPC   PO468904   3.822  26.980   5.617
 5432POPC   GL168905   3.486  26.793   5.804
 5432POPC   GL268906   3.585  26.486   5.666
 5432POPC   C1A68907   3.318  26.874   6.212
 5432POPC   D2A68908   3.153  26.687   6.585
 5432POPC   C3A68909   3.278  26.910   6.943
 5432POPC   C4A68910   3.603  26.871   7.226
 5432POPC   C1B68911   3.782  26.502   6.107
 5432POPC   C2B68912   3.643  26.541   6.520
 5432POPC   C3B68913   3.820  26.406   6.882
 5432POPC   C4B68914   3.916  26.447   7.288
 5433POPC   NC368915  16.543   4.328   5.688
 5433POPC   PO468916  17.179   4.644   5.493
 5433POPC   GL168917  17.023   4.407   5.829
 5433POPC   GL268918  16.820   4.557   6.084
 5433POPC   C1A68919  16.953   4.090   6.178
 5433POPC   D2A68920  16.660   4.228   6.526
 5433POPC   C3A68921  16.799   4.412   6.906
 5433POPC   C4A68922  16.781   4.249   7.297
 5433POPC   C1B68923  16.428   4.645   6.318
 5433POPC   C2B68924  16.360   4.619   6.760
 5433POPC   C3B68925  16.304   4.266   7.070
 5433POPC   C4B68926  16.149   4.426   7.475
 5434POPC   NC368927   8.029  13.298   5.474
 5434POPC   PO468928   8.452  12.800   5.450
 5434POPC   GL168929   8.346  13.048   5.805
 5434POPC   GL268930   8.022  12.880   5.836
 5434POPC   C1A68931   8.320  12.989   6.253
 5434POPC   D2A68932   8.209  12.644   6.528
 5434POPC   C3A68933   8.132  12.768   6.912
 5434POPC   C4A68934   8.445  13.072   7.002
 5434POPC   C1B68935   7.803  13.075   6.146
 5434POPC   C2B68936   7.900  13.093   6.566
 5434POPC   C3B68937   7.692  13.113   6.951
 5434POPC   C4B68938   7.929  13.191   7.297
 5435POPC   NC368939   2.185   7.173   5.275
 5435POPC   PO468940   1.954   7.752   5.321
 5435POPC   GL168941   2.027   7.588   5.745
 5435POPC   GL268942   2.231   7.317   5.755
 5435POPC   C1A68943   1.818   7.293   6.084
 5435POPC   D2A68944   1.730   7.064   6.498
 5435POPC   C3A68945   1.758   7.346   6.864
 5435POPC   C4A68946   1.914   7.296   7.274
 5435POPC   C1B68947   2.297   7.480   6.167
 5435POPC   C2B68948   2.206   7.274   6.556
 5435POPC   C3B68949   2.322   7.397   6.959
 5435POPC   C4B68950   2.164   7.730   7.216
 5436POPC   NC368951  35.051  27.510   5.393
 5436POPC   PO468952  35.651  27.849   5.274
 5436POPC   GL168953  35.521  27.520   5.614
 5436POPC   GL268954  35.316  27.695   5.815
 5436POPC   C1A68955  35.607  27.357   6.076
 5436POPC   D2A68956  35.438  27.331   6.521
 5436POPC   C3A68957  35.529  27.483   6.931
 5436POPC   C4A68958  35.137  27.688   6.992
 5436POPC   C1B68959  35.222  27.704   6.255
 5436POPC   C2B68960  35.457  27.916   6.598
 5436POPC   C3B68961  35.560  28.000   7.035
 5436POPC   C4B68962  35.186  28.108   7.298
 5437POPC   NC368963  16.727   2.344   5.394
 5437POPC   PO468964  16.591   3.116   5.394
 5437POPC   GL168965  16.544   2.894   5.745
 5437POPC   GL268966  16.889   2.800   5.712
 5437POPC   C1A68967  16.619   3.016   6.161
 5437POPC   D2A68968  16.667   2.851   6.562
 5437POPC   C3A68969  16.650   3.016   6.951
 5437POPC   C4A68970  16.657   2.711   7.232
 5437POPC   C1B68971  17.106   2.897   6.107
 5437POPC   C2B68972  17.184   2.885   6.531
 5437POPC   C3B68973  17.024   2.640   6.869
 5437POPC   C4B68974  17.141   2.617   7.281
 5438POPC   NC368975  28.513  37.977   5.313
 5438POPC   PO468976  28.116  37.482   5.560
 5438POPC   GL168977  28.364  37.773   5.779
 5438POPC   GL268978  28.063  37.927   5.824
 5438POPC   C1A68979  28.544  37.642   6.170
 5438POPC   D2A68980  28.447  37.800   6.592
 5438POPC   C3A68981  28.631  37.539   6.894
 5438POPC   C4A68982  28.648  37.379   7.300
 5438POPC   C1B68983  28.065  37.740   6.238
 5438POPC   C2B68984  27.923  37.720   6.644
 5438POPC   C3B68985  28.116  37.525   6.955
 5438POPC   C4B68986  28.258  37.671   7.286
 5439POPC   NC368987  21.270  17.360   5.508
 5439POPC   PO468988  21.968  17.709   5.519
 5439POPC   GL168989  21.850  17.413   5.837
 5439POPC   GL268990  21.538  17.562   5.886
 5439POPC   C1A68991  21.717  17.258   6.242
 5439POPC   D2A68992  21.483  17.486   6.577
 5439POPC   C3A68993  21.609  17.270   6.945
 5439POPC   C4A68994  21.509  17.292   7.368
 5439POPC   C1B68995  21.308  17.788   6.184
 5439POPC   C2B68996  20.992  17.681   6.500
 5439POPC   C3B68997  21.028  17.782   6.935
 5439POPC   C4B68998  21.415  17.725   7.152
 5440POPC   NC368999  27.840  16.059   5.273
 5440POPC   PO469000  27.786  15.508   5.559
 5440POPC   GL169001  27.812  15.912   5.800
 5440POPC   GL269002  27.568  16.175   5.741
 5440POPC   C1A69003  27.799  16.130   6.213
 5440POPC   D2A69004  27.723  16.250   6.673
 5440POPC   C3A69005  27.737  15.860   6.939
 5440POPC   C4A69006  27.681  15.775   7.391
 5440POPC   C1B69007  27.362  15.905   6.078
 5440POPC   C2B69008  27.390  15.858   6.537
 5440POPC   C3B69009  27.247  16.025   6.958
 5440POPC   C4B69010  27.319  16.138   7.402
 5441POPC   NC369011   6.182   3.985   5.586
 5441POPC   PO469012   5.628   3.638   5.542
 5441POPC   GL169013   5.926   3.662   5.898
 5441POPC   GL269014   6.238   3.464   5.778
 5441POPC   C1A69015   5.987   3.918   6.295
 5441POPC   D2A69016   6.162   3.922   6.735
 5441POPC   C3A69017   5.982   3.780   7.153
 5441POPC   C4A69018   5.899   3.986   7.581
 5441POPC   C1B69019   6.314   3.493   6.217
 5441POPC   C2B69020   5.976   3.444   6.512
 5441POPC   C3B69021   5.832   3.315   6.912
 5441POPC   C4B69022   6.099   3.281   7.250
 5442POPC   NC369023   7.243  34.580   5.718
 5442POPC   PO469024   7.749  34.084   5.622
 5442POPC   GL169025   7.652  34.382   5.949
 5442POPC   GL269026   7.687  34.748   5.911
 5442POPC   C1A69027   7.355  34.327   6.322
 5442POPC   D2A69028   7.556  34.268   6.723
 5442POPC   C3A69029   7.297  34.442   7.048
 5442POPC   C4A69030   7.239  34.318   7.465
 5442POPC   C1B69031   7.665  34.708   6.362
 5442POPC   C2B69032   7.585  34.808   6.766
 5442POPC   C3B69033   7.799  34.576   7.062
 5442POPC   C4B69034   7.721  34.574   7.503
 5443POPC   NC369035  33.186  38.533   5.213
 5443POPC   PO469036  33.792  38.445   5.454
 5443POPC   GL169037  33.559  38.474   5.806
 5443POPC   GL269038  33.360  38.780   5.769
 5443POPC   C1A69039  33.732  38.441   6.218
 5443POPC   D2A69040  33.597  38.385   6.622
 5443POPC   C3A69041  33.810  38.439   7.004
 5443POPC   C4A69042  33.791  38.163   7.368
 5443POPC   C1B69043  33.403  38.912   6.213
 5443POPC   C2B69044  33.406  38.834   6.646
 5443POPC   C3B69045  33.540  38.889   7.056
 5443POPC   C4B69046  33.566  38.644   7.427
 5444POPC   NC369047  38.448  28.602   5.118
 5444POPC   PO469048  38.546  27.953   5.381
 5444POPC   GL169049  38.488  28.206   5.802
 5444POPC   GL269050  38.215  28.477   5.834
 5444POPC   C1A69051  38.593  28.326   6.261
 5444POPC   D2A69052  38.764  28.471   6.691
 5444POPC   C3A69053  38.729  28.312   7.157
 5444POPC   C4A69054  38.774  28.182   7.629
 5444POPC   C1B69055  38.054  28.282   6.232
 5444POPC   C2B69056  38.227  28.321   6.629
 5444POPC   C3B69057  38.334  28.603   6.939
 5444POPC   C4B69058  38.231  28.490   7.324
 5445POPC   NC369059  34.955  11.446   5.492
 5445POPC   PO469060  34.486  10.950   5.434
 5445POPC   GL169061  34.625  11.133   5.824
 5445POPC   GL269062  34.570  11.470   5.825
 5445POPC   C1A69063  34.775  11.231   6.269
 5445POPC   D2A69064  34.601  11.207   6.699
 5445POPC   C3A69065  34.804  11.219   7.088
 5445POPC   C4A69066  34.712  11.212   7.550
 5445POPC   C1B69067  34.387  11.608   6.202
 5445POPC   C2B69068  34.194  11.493   6.578
 5445POPC   C3B69069  34.309  11.492   7.019
 5445POPC   C4B69070  34.256  11.652   7.445
 5446POPC   NC369071   5.475  29.842   5.314
 5446POPC   PO469072   4.905  30.251   5.481
 5446POPC   GL169073   4.999  29.985   5.859
 5446POPC   GL269074   5.061  29.669   5.734
 5446POPC   C1A69075   5.065  29.961   6.340
 5446POPC   D2A69076   4.929  29.834   6.757
 5446POPC   C3A69077   5.051  30.012   7.155
 5446POPC   C4A69078   5.198  30.235   7.539
 5446POPC   C1B69079   5.387  29.667   6.096
 5446POPC   C2B69080   5.552  29.665   6.510
 5446POPC   C3B69081   5.415  29.730   6.909
 5446POPC   C4B69082   5.223  29.472   7.182
 5447POPC   NC369083   9.594  34.456   5.332
 5447POPC   PO469084  10.333  34.229   5.397
 5447POPC   GL169085   9.937  34.352   5.703
 5447POPC   GL269086   9.732  34.666   5.809
 5447POPC   C1A69087   9.821  34.335   6.186
 5447POPC   D2A69088  10.037  34.390   6.636
 5447POPC   C3A69089   9.774  34.233   6.985
 5447POPC   C4A69090   9.416  34.438   7.118
 5447POPC   C1B69091   9.773  34.856   6.257
 5447POPC   C2B69092   9.684  34.766   6.717
 5447POPC   C3B69093   9.842  34.723   7.139
 5447POPC   C4B69094  10.112  34.421   7.361
 5448POPC   NC369095  20.655  43.090   5.288
 5448POPC   PO469096  21.050  43.542   5.606
 5448POPC   GL169097  20.785  43.211   5.799
 5448POPC   GL269098  20.918  42.901   5.686
 5448POPC   C1A69099  20.671  43.100   6.242
 5448POPC   D2A69100  20.808  43.269   6.639
 5448POPC   C3A69101  20.565  43.257   7.002
 5448POPC   C4A69102  20.537  43.187   7.443
 5448POPC   C1B69103  20.949  42.692   6.074
 5448POPC   C2B69104  20.711  42.619   6.462
 5448POPC   C3B69105  20.773  42.803   6.873
 5448POPC   C4B69106  20.967  43.014   7.217
 5449POPC   NC369107  34.814  17.447   5.567
 5449POPC   PO469108  34.231  17.708   5.335
 5449POPC   GL169109  34.386  17.710   5.768
 5449POPC   GL269110  34.371  17.369   5.854
 5449POPC   C1A69111  34.585  17.690   6.205
 5449POPC   D2A69112  34.577  17.905   6.607
 5449POPC   C3A69113  34.712  17.733   6.957
 5449POPC   C4A69114  34.664  17.697   7.374
 5449POPC   C1B69115  34.534  17.155   6.215
 5449POPC   C2B69116  34.589  17.253   6.646
 5449POPC   C3B69117  34.400  17.330   7.060
 5449POPC   C4B69118  34.602  17.140   7.422
 5450POPC   NC369119   0.734  15.397   5.575
 5450POPC   PO469120   0.115  15.273   5.382
 5450POPC   GL169121   0.290  15.255   5.792
 5450POPC   GL269122   0.168  14.925   5.800
 5450POPC   C1A69123   0.418  15.373   6.223
 5450POPC   D2A69124   0.171  15.298   6.589
 5450POPC   C3A69125   0.321  15.122   6.946
 5450POPC   C4A69126   0.393  15.335   7.298
 5450POPC   C1B69127   0.469  14.873   6.096
 5450POPC   C2B69128   0.428  14.819   6.534
 5450POPC   C3B69129   0.636  14.694   6.902
 5450POPC   C4B69130   0.738  14.955   7.234
 5451POPC   NC369131  12.003  13.720   5.359
 5451POPC   PO469132  11.397  13.600   5.563
 5451POPC   GL169133  11.781  13.611   5.839
 5451POPC   GL269134  12.135  13.784   5.859
 5451POPC   C1A69135  11.905  13.638   6.274
 5451POPC   D2A69136  12.082  13.480   6.597
 5451POPC   C3A69137  11.822  13.559   6.915
 5451POPC   C4A69138  11.870  13.478   7.311
 5451POPC   C1B69139  12.423  13.639   6.228
 5451POPC   C2B69140  12.520  13.707   6.698
 5451POPC   C3B69141  12.335  13.667   7.130
 5451POPC   C4B69142  12.270  13.941   7.513
 5452POPC   NC369143  20.885  28.012   5.386
 5452POPC   PO469144  20.417  28.562   5.465
 5452POPC   GL169145  20.398  28.457   5.864
 5452POPC   GL269146  20.653  28.208   5.818
 5452POPC   C1A69147  20.449  28.347   6.284
 5452POPC   D2A69148  20.701  28.374   6.621
 5452POPC   C3A69149  20.425  28.281   6.926
 5452POPC   C4A69150  20.404  28.359   7.324
 5452POPC   C1B69151  20.892  28.137   6.188
 5452POPC   C2B69152  20.944  27.909   6.578
 5452POPC   C3B69153  21.033  28.102   6.964
 5452POPC   C4B69154  20.872  28.488   7.096
 5453POPC   NC369155   0.646  43.979   5.483
 5453POPC   PO469156  44.980  43.723   5.549
 5453POPC   GL169157   0.352  43.609   5.764
 5453POPC   GL269158   0.289  43.965   5.890
 5453POPC   C1A69159   0.554  43.642   6.186
 5453POPC   D2A69160   0.342  43.901   6.503
 5453POPC   C3A69161   0.369  43.841   6.943
 5453POPC   C4A69162   0.515  43.677   7.328
 5453POPC   C1B69163   0.575  44.183   6.144
 5453POPC   C2B69164   0.614  44.333   6.583
 5453POPC   C3B69165   0.302  44.364   6.919
 5453POPC   C4B69166   0.371  44.188   7.330
 5454POPC   NC369167   6.109  34.879   5.460
 5454POPC   PO469168   5.648  34.327   5.460
 5454POPC   GL169169   5.645  34.590   5.834
 5454POPC   GL269170   5.818  34.908   5.874
 5454POPC   C1A69171   5.773  34.609   6.266
 5454POPC   D2A69172   5.687  34.886   6.573
 5454POPC   C3A69173   5.768  34.719   6.966
 5454POPC   C4A69174   5.634  34.511   7.302
 5454POPC   C1B69175   6.121  35.016   6.219
 5454POPC   C2B69176   6.177  34.906   6.678
 5454POPC   C3B69177   6.194  34.978   7.123
 5454POPC   C4B69178   6.211  35.034   7.545
 5455POPC   NC369179  28.645  44.590   5.500
 5455POPC   PO469180  28.024  44.933   5.431
 5455POPC   GL169181  28.278  44.801   5.796
 5455POPC   GL269182  28.242  44.463   5.843
 5455POPC   C1A69183  28.397  44.735   6.250
 5455POPC   D2A69184  28.326  44.915   6.666
 5455POPC   C3A69185  28.561  44.697   7.006
 5455POPC   C4A69186  28.407  44.633   7.430
 5455POPC   C1B69187  28.068  44.316   6.230
 5455POPC   C2B69188  28.018  44.495   6.629
 5455POPC   C3B69189  28.047  44.664   7.031
 5455POPC   C4B69190  27.851  44.420   7.320
 5456POPC   NC369191  10.634  28.769   5.483
 5456POPC   PO469192  10.798  29.380   5.493
 5456POPC   GL169193  10.580  29.213   5.825
 5456POPC   GL269194  10.287  28.998   5.781
 5456POPC   C1A69195  10.554  29.124   6.251
 5456POPC   D2A69196  10.361  29.315   6.592
 5456POPC   C3A69197  10.517  29.269   6.994
 5456POPC   C4A69198  10.356  29.546   7.312
 5456POPC   C1B69199  10.171  28.771   6.193
 5456POPC   C2B69200  10.100  28.873   6.631
 5456POPC   C3B69201  10.038  29.094   7.024
 5456POPC   C4B69202  10.308  29.012   7.391
 5457POPC   NC369203   3.929  33.109   5.138
 5457POPC   PO469204   3.349  32.863   5.346
 5457POPC   GL169205   3.457  33.003   5.778
 5457POPC   GL269206   3.320  33.347   5.852
 5457POPC   C1A69207   3.582  32.766   6.170
 5457POPC   D2A69208   3.468  32.837   6.622
 5457POPC   C3A69209   3.743  32.775   6.981
 5457POPC   C4A69210   3.956  33.156   7.167
 5457POPC   C1B69211   3.248  33.145   6.253
 5457POPC   C2B69212   3.148  33.233   6.695
 5457POPC   C3B69213   3.323  33.175   7.145
 5457POPC   C4B69214   3.228  33.122   7.608
 5458POPC   NC369215  14.516  22.354   5.505
 5458POPC   PO469216  14.378  21.706   5.416
 5458POPC   GL169217  14.311  21.945   5.787
 5458POPC   GL269218  14.640  22.036   5.902
 5458POPC   C1A69219  14.279  22.105   6.253
 5458POPC   D2A69220  14.511  22.124   6.657
 5458POPC   C3A69221  14.241  22.144   7.038
 5458POPC   C4A69222  14.049  22.108   7.464
 5458POPC   C1B69223  14.713  22.399   6.217
 5458POPC   C2B69224  14.673  22.615   6.624
 5458POPC   C3B69225  14.673  22.430   7.049
 5458POPC   C4B69226  14.550  22.255   7.438
 5459POPC   NC369227   2.421  34.072   5.415
 5459POPC   PO469228   2.028  33.679   5.044
 5459POPC   GL169229   2.017  33.730   5.526
 5459POPC   GL269230   2.036  34.044   5.732
 5459POPC   C1A69231   1.908  33.650   6.000
 5459POPC   D2A69232   2.095  33.608   6.446
 5459POPC   C3A69233   1.882  33.724   6.847
 5459POPC   C4A69234   1.668  33.498   7.207
 5459POPC   C1B69235   2.313  33.950   6.113
 5459POPC   C2B69236   2.450  34.021   6.576
 5459POPC   C3B69237   2.308  34.047   7.021
 5459POPC   C4B69238   2.112  33.749   7.324
 5460POPC   NC369239   8.919  42.236   5.398
 5460POPC   PO469240   8.455  42.752   5.435
 5460POPC   GL169241   8.788  42.559   5.752
 5460POPC   GL269242   9.058  42.742   5.879
 5460POPC   C1A69243   9.020  42.264   6.074
 5460POPC   D2A69244   9.197  42.412   6.487
 5460POPC   C3A69245   9.094  42.351   6.931
 5460POPC   C4A69246   9.014  42.209   7.340
 5460POPC   C1B69247   8.807  42.683   6.262
 5460POPC   C2B69248   8.712  42.622   6.710
 5460POPC   C3B69249   8.760  42.699   7.170
 5460POPC   C4B69250   8.726  42.611   7.636
 5461POPC   NC369251   3.868  27.540   5.595
 5461POPC   PO469252   3.136  27.471   5.397
 5461POPC   GL169253   3.356  27.654   5.797
 5461POPC   GL269254   3.446  27.307   5.820
 5461POPC   C1A69255   3.633  27.841   6.187
 5461POPC   D2A69256   3.903  27.739   6.564
 5461POPC   C3A69257   3.729  27.830   6.977
 5461POPC   C4A69258   3.509  27.775   7.399
 5461POPC   C1B69259   3.606  27.333   6.246
 5461POPC   C2B69260   3.495  27.337   6.690
 5461POPC   C3B69261   3.598  27.355   7.136
 5461POPC   C4B69262   3.469  27.221   7.583
 5462POPC   NC369263  42.035   1.901   5.473
 5462POPC   PO469264  42.608   2.249   5.380
 5462POPC   GL169265  42.373   2.129   5.792
 5462POPC   GL269266  42.062   2.303   5.868
 5462POPC   C1A69267  42.254   1.772   6.117
 5462POPC   D2A69268  42.363   1.594   6.542
 5462POPC   C3A69269  42.431   1.794   6.954
 5462POPC   C4A69270  42.277   1.721   7.379
 5462POPC   C1B69271  41.908   2.128   6.254
 5462POPC   C2B69272  42.059   2.021   6.662
 5462POPC   C3B69273  42.079   2.174   7.096
 5462POPC   C4B69274  41.888   2.021   7.456
 5463POPC   NC369275  42.831  43.198   5.375
 5463POPC   PO469276  43.410  42.833   5.511
 5463POPC   GL169277  43.192  43.007   5.866
 5463POPC   GL269278  42.825  43.100   5.881
 5463POPC   C1A69279  43.278  43.056   6.313
 5463POPC   D2A69280  43.067  43.328   6.607
 5463POPC   C3A69281  43.227  43.304   7.000
 5463POPC   C4A69282  43.325  43.023   7.285
 5463POPC   C1B69283  42.769  42.986   6.332
 5463POPC   C2B69284  42.943  42.816   6.742
 5463POPC   C3B69285  42.833  43.033   7.151
 5463POPC   C4B69286  42.772  43.499   7.157
 5464POPC   NC369287  34.822  15.604   5.632
 5464POPC   PO469288  34.979  16.224   5.456
 5464POPC   GL169289  34.836  16.158   5.890
 5464POPC   GL269290  34.511  15.995   5.840
 5464POPC   C1A69291  34.801  15.974   6.341
 5464POPC   D2A69292  34.449  15.820   6.625
 5464POPC   C3A69293  34.526  15.765   7.046
 5464POPC   C4A69294  34.815  16.025   7.267
 5464POPC   C1B69295  34.329  16.145   6.234
 5464POPC   C2B69296  34.487  16.345   6.637
 5464POPC   C3B69297  34.289  16.360   7.053
 5464POPC   C4B69298  34.257  16.181   7.463
 5465POPC   NC369299   5.623  41.067   5.447
 5465POPC   PO469300   6.187  40.767   5.718
 5465POPC   GL169301   5.810  40.777   5.891
 5465POPC   GL269302   5.533  40.600   5.740
 5465POPC   C1A69303   5.777  40.562   6.281
 5465POPC   D2A69304   5.798  40.482   6.717
 5465POPC   C3A69305   5.825  40.830   6.988
 5465POPC   C4A69306   6.007  41.202   7.167
 5465POPC   C1B69307   5.338  40.760   6.114
 5465POPC   C2B69308   5.489  40.892   6.546
 5465POPC   C3B69309   5.319  40.773   6.943
 5465POPC   C4B69310   5.255  40.950   7.368
 5466POPC   NC369311  41.015   5.534   5.480
 5466POPC   PO469312  40.648   6.210   5.367
 5466POPC   GL169313  40.851   6.057   5.760
 5466POPC   GL269314  41.183   6.138   5.907
 5466POPC   C1A69315  40.600   5.985   6.131
 5466POPC   D2A69316  40.452   5.842   6.516
 5466POPC   C3A69317  40.597   5.894   6.950
 5466POPC   C4A69318  40.550   5.547   7.240
 5466POPC   C1B69319  41.077   5.805   6.219
 5466POPC   C2B69320  41.070   5.576   6.595
 5466POPC   C3B69321  41.000   5.587   7.009
 5466POPC   C4B69322  41.028   5.957   7.248
 5467POPC   NC369323  31.045  26.499   5.083
 5467POPC   PO469324  30.662  27.055   5.192
 5467POPC   GL169325  30.687  26.836   5.652
 5467POPC   GL269326  30.399  26.842   5.831
 5467POPC   C1A69327  30.884  26.838   6.079
 5467POPC   D2A69328  30.978  26.737   6.517
 5467POPC   C3A69329  30.917  27.004   6.908
 5467POPC   C4A69330  30.835  26.809   7.356
 5467POPC   C1B69331  30.385  26.986   6.241
 5467POPC   C2B69332  30.479  26.846   6.636
 5467POPC   C3B69333  30.308  26.741   6.995
 5467POPC   C4B69334  30.334  26.955   7.378
 5468POPC   NC369335  38.642  37.842   5.446
 5468POPC   PO469336  39.351  37.734   5.276
 5468POPC   GL169337  39.114  37.703   5.685
 5468POPC   GL269338  39.359  37.895   5.848
 5468POPC   C1A69339  39.103  37.570   6.150
 5468POPC   D2A69340  39.092  37.386   6.581
 5468POPC   C3A69341  39.336  37.370   6.972
 5468POPC   C4A69342  39.239  37.500   7.390
 5468POPC   C1B69343  39.607  37.846   6.241
 5468POPC   C2B69344  39.525  37.775   6.687
 5468POPC   C3B69345  39.333  37.896   7.092
 5468POPC   C4B69346  39.588  37.870   7.477
 5469POPC   NC369347  19.810  19.451   5.218
 5469POPC   PO469348  19.846  18.749   5.453
 5469POPC   GL169349  19.813  19.012   5.844
 5469POPC   GL269350  19.877  19.361   5.803
 5469POPC   C1A69351  20.005  18.911   6.262
 5469POPC   D2A69352  19.891  18.681   6.639
 5469POPC   C3A69353  19.750  18.968   6.953
 5469POPC   C4A69354  19.774  19.032   7.402
 5469POPC   C1B69355  19.755  19.350   6.239
 5469POPC   C2B69356  19.810  19.443   6.687
 5469POPC   C3B69357  19.667  19.449   7.119
 5469POPC   C4B69358  19.881  19.533   7.514
 5470POPC   NC369359  27.004  37.184   5.004
 5470POPC   PO469360  26.470  36.907   5.363
 5470POPC   GL169361  26.628  37.120   5.739
 5470POPC   GL269362  27.007  37.108   5.794
 5470POPC   C1A69363  26.643  36.939   6.138
 5470POPC   D2A69364  26.786  36.751   6.528
 5470POPC   C3A69365  26.862  36.898   6.929
 5470POPC   C4A69366  26.685  36.942   7.349
 5470POPC   C1B69367  27.150  36.921   6.209
 5470POPC   C2B69368  27.352  36.967   6.642
 5470POPC   C3B69369  27.332  36.989   7.107
 5470POPC   C4B69370  27.124  36.649   7.341
 5471POPC   NC369371  38.425  31.116   5.497
 5471POPC   PO469372  38.181  31.679   5.294
 5471POPC   GL169373  38.389  31.599   5.732
 5471POPC   GL269374  38.160  31.324   5.858
 5471POPC   C1A69375  38.501  31.537   6.215
 5471POPC   D2A69376  38.369  31.789   6.609
 5471POPC   C3A69377  38.517  31.812   7.053
 5471POPC   C4A69378  38.789  31.449   7.229
 5471POPC   C1B69379  38.231  31.049   6.185
 5471POPC   C2B69380  38.197  31.248   6.553
 5471POPC   C3B69381  38.456  31.358   6.858
 5471POPC   C4B69382  38.283  31.380   7.253
 5472POPC   NC369383  12.397  26.162   5.303
 5472POPC   PO469384  11.739  26.138   5.293
 5472POPC   GL169385  12.019  26.162   5.655
 5472POPC   GL269386  12.134  25.863   5.819
 5472POPC   C1A69387  12.019  26.356   6.067
 5472POPC   D2A69388  11.856  26.376   6.497
 5472POPC   C3A69389  12.125  26.224   6.820
 5472POPC   C4A69390  12.134  26.230   7.276
 5472POPC   C1B69391  12.217  25.914   6.272
 5472POPC   C2B69392  12.503  25.896   6.637
 5472POPC   C3B69393  12.315  25.788   7.039
 5472POPC   C4B69394  12.300  25.797   7.492
 5473POPC   NC369395  43.448  23.120   5.296
 5473POPC   PO469396  42.841  22.817   5.495
 5473POPC   GL169397  43.081  22.935   5.840
 5473POPC   GL269398  43.372  23.150   5.795
 5473POPC   C1A69399  42.933  22.854   6.243
 5473POPC   D2A69400  42.884  22.589   6.581
 5473POPC   C3A69401  42.940  22.893   6.888
 5473POPC   C4A69402  42.866  22.800   7.277
 5473POPC   C1B69403  43.474  22.941   6.199
 5473POPC   C2B69404  43.335  22.868   6.564
 5473POPC   C3B69405  43.504  22.937   6.921
 5473POPC   C4B69406  43.361  22.944   7.281
 5474POPC   NC369407   4.486  20.128   5.530
 5474POPC   PO469408   4.166  19.582   5.443
 5474POPC   GL169409   4.214  19.791   5.824
 5474POPC   GL269410   3.916  19.870   5.818
 5474POPC   C1A69411   4.184  19.992   6.234
 5474POPC   D2A69412   4.253  19.758   6.575
 5474POPC   C3A69413   4.238  20.013   6.896
 5474POPC   C4A69414   4.399  19.967   7.247
 5474POPC   C1B69415   3.882  19.583   6.203
 5474POPC   C2B69416   3.910  19.353   6.601
 5474POPC   C3B69417   3.992  19.540   6.982
 5474POPC   C4B69418   3.911  19.836   7.283
 5475POPC   NC369419  24.913  41.963   5.421
 5475POPC   PO469420  25.495  41.560   5.460
 5475POPC   GL169421  25.312  41.555   5.843
 5475POPC   GL269422  25.645  41.648   5.947
 5475POPC   C1A69423  25.205  41.649   6.274
 5475POPC   D2A69424  25.056  41.823   6.672
 5475POPC   C3A69425  25.045  41.430   6.911
 5475POPC   C4A69426  25.266  41.346   7.292
 5475POPC   C1B69427  25.630  41.307   6.231
 5475POPC   C2B69428  25.616  41.367   6.665
 5475POPC   C3B69429  25.693  41.169   7.010
 5475POPC   C4B69430  25.773  41.414   7.320
 5476POPC   NC369431   9.226  15.005   5.304
 5476POPC   PO469432   8.812  15.489   5.431
 5476POPC   GL169433   8.964  15.181   5.720
 5476POPC   GL269434   8.835  14.859   5.614
 5476POPC   C1A69435   9.265  15.008   6.031
 5476POPC   D2A69436   9.146  14.974   6.473
 5476POPC   C3A69437   9.367  15.052   6.864
 5476POPC   C4A69438   9.212  15.266   7.245
 5476POPC   C1B69439   8.760  14.869   6.085
 5476POPC   C2B69440   8.744  14.659   6.509
 5476POPC   C3B69441   8.940  14.698   6.884
 5476POPC   C4B69442   9.207  14.736   7.232
 5477POPC   NC369443  32.977   3.568   5.435
 5477POPC   PO469444  32.347   3.705   5.214
 5477POPC   GL169445  32.746   3.795   5.823
 5477POPC   GL269446  33.123   3.717   5.885
 5477POPC   C1A69447  32.762   3.608   6.231
 5477POPC   D2A69448  33.018   3.610   6.630
 5477POPC   C3A69449  32.886   3.667   7.075
 5477POPC   C4A69450  32.916   3.600   7.560
 5477POPC   C1B69451  33.226   3.363   6.199
 5477POPC   C2B69452  33.363   3.208   6.626
 5477POPC   C3B69453  33.319   3.389   7.034
 5477POPC   C4B69454  33.306   3.266   7.475
 5478POPC   NC369455  18.305  24.978   5.528
 5478POPC   PO469456  18.392  24.313   5.333
 5478POPC   GL169457  18.269  24.369   5.751
 5478POPC   GL269458  18.056  24.065   5.771
 5478POPC   C1A69459  18.544  24.462   6.148
 5478POPC   D2A69460  18.747  24.529   6.582
 5478POPC   C3A69461  18.608  24.442   7.011
 5478POPC   C4A69462  18.254  24.652   7.230
 5478POPC   C1B69463  18.122  24.167   6.204
 5478POPC   C2B69464  18.363  24.166   6.583
 5478POPC   C3B69465  18.157  24.170   6.976
 5478POPC   C4B69466  18.087  24.206   7.426
 5479POPC   NC369467  29.625  36.421   5.105
 5479POPC   PO469468  30.125  36.086   5.242
 5479POPC   GL169469  30.103  36.058   5.715
 5479POPC   GL269470  30.387  35.918   5.833
 5479POPC   C1A69471  29.839  36.011   6.123
 5479POPC   D2A69472  29.746  36.262   6.516
 5479POPC   C3A69473  29.983  36.296   6.897
 5479POPC   C4A69474  30.057  36.249   7.351
 5479POPC   C1B69475  30.219  35.693   6.190
 5479POPC   C2B69476  29.943  35.721   6.586
 5479POPC   C3B69477  29.896  35.818   7.060
 5479POPC   C4B69478  29.725  35.766   7.502
 5480POPC   NC369479   4.554  10.819   5.479
 5480POPC   PO469480   4.661  10.085   5.483
 5480POPC   GL169481   4.453  10.192   5.844
 5480POPC   GL269482   4.367  10.525   5.873
 5480POPC   C1A69483   4.195  10.173   6.233
 5480POPC   D2A69484   4.004  10.404   6.608
 5480POPC   C3A69485   4.062  10.221   7.017
 5480POPC   C4A69486   4.118  10.436   7.405
 5480POPC   C1B69487   4.240  10.709   6.242
 5480POPC   C2B69488   4.405  10.763   6.640
 5480POPC   C3B69489   4.207  10.766   7.022
 5480POPC   C4B69490   4.450  10.825   7.390
 5481POPC   NC369491   6.754  18.566   5.288
 5481POPC   PO469492   6.509  17.867   5.349
 5481POPC   GL169493   6.604  17.949   5.913
 5481POPC   GL269494   6.882  18.258   5.978
 5481POPC   C1A69495   6.544  18.144   6.331
 5481POPC   D2A69496   6.797  18.479   6.560
 5481POPC   C3A69497   6.723  18.393   7.008
 5481POPC   C4A69498   6.380  18.130   7.164
 5481POPC   C1B69499   7.027  17.988   6.280
 5481POPC   C2B69500   6.937  18.015   6.717
 5481POPC   C3B69501   6.896  17.928   7.156
 5481POPC   C4B69502   6.693  17.924   7.563
 5482POPC   NC369503  39.986  14.011   5.368
 5482POPC   PO469504  39.667  14.620   5.158
 5482POPC   GL169505  39.772  14.627   5.625
 5482POPC   GL269506  40.058  14.447   5.724
 5482POPC   C1A69507  39.781  14.594   6.121
 5482POPC   D2A69508  39.693  14.317   6.483
 5482POPC   C3A69509  39.586  14.496   6.885
 5482POPC   C4A69510  39.836  14.671   7.210
 5482POPC   C1B69511  40.164  14.231   6.149
 5482POPC   C2B69512  40.063  13.958   6.531
 5482POPC   C3B69513  39.992  14.164   6.936
 5482POPC   C4B69514  40.308  14.438   7.119
 5483POPC   NC369515  25.701   1.984   5.558
 5483POPC   PO469516  26.240   1.530   5.365
 5483POPC   GL169517  26.262   1.732   5.766
 5483POPC   GL269518  25.959   1.730   5.913
 5483POPC   C1A69519  26.240   2.122   6.046
 5483POPC   D2A69520  26.295   2.223   6.492
 5483POPC   C3A69521  26.015   2.063   6.830
 5483POPC   C4A69522  26.178   2.005   7.251
 5483POPC   C1B69523  25.896   1.866   6.338
 5483POPC   C2B69524  25.734   1.644   6.683
 5483POPC   C3B69525  25.542   1.818   7.030
 5483POPC   C4B69526  25.682   2.041   7.401
 5484POPC   NC369527   9.491  39.677   5.819
 5484POPC   PO469528   9.209  40.159   5.365
 5484POPC   GL169529   9.025  40.143   5.741
 5484POPC   GL269530   9.016  39.812   5.888
 5484POPC   C1A69531   8.957  40.261   6.166
 5484POPC   D2A69532   9.185  40.287   6.574
 5484POPC   C3A69533   8.984  40.031   6.904
 5484POPC   C4A69534   9.057  40.047   7.341
 5484POPC   C1B69535   9.145  39.811   6.344
 5484POPC   C2B69536   9.418  39.785   6.700
 5484POPC   C3B69537   9.291  39.633   7.092
 5484POPC   C4B69538   9.123  39.572   7.514
 5485POPC   NC369539  27.715  14.356   5.382
 5485POPC   PO469540  27.207  14.697   5.641
 5485POPC   GL169541  27.423  14.385   5.866
 5485POPC   GL269542  27.775  14.436   5.882
 5485POPC   C1A69543  27.483  14.390   6.313
 5485POPC   D2A69544  27.390  14.715   6.621
 5485POPC   C3A69545  27.432  14.610   7.059
 5485POPC   C4A69546  27.431  14.232   7.265
 5485POPC   C1B69547  28.012  14.333   6.261
 5485POPC   C2B69548  28.028  14.488   6.674
 5485POPC   C3B69549  27.937  14.370   7.105
 5485POPC   C4B69550  27.954  14.452   7.556
 5486POPC   NC369551  43.414  38.932   5.262
 5486POPC   PO469552  42.846  39.127   5.546
 5486POPC   GL169553  43.026  39.239   5.878
 5486POPC   GL269554  43.295  39.360   5.686
 5486POPC   C1A69555  43.086  39.086   6.296
 5486POPC   D2A69556  43.269  39.283   6.653
 5486POPC   C3A69557  43.131  39.053   7.003
 5486POPC   C4A69558  42.706  39.085   7.095
 5486POPC   C1B69559  43.433  39.441   6.113
 5486POPC   C2B69560  43.459  39.767   6.420
 5486POPC   C3B69561  43.397  39.735   6.875
 5486POPC   C4B69562  43.391  39.447   7.197
 5487POPC   NC369563   6.922   5.617   5.312
 5487POPC   PO469564   6.436   6.134   5.430
 5487POPC   GL169565   6.542   6.132   5.849
 5487POPC   GL269566   6.612   5.784   5.918
 5487POPC   C1A69567   6.823   6.257   6.183
 5487POPC   D2A69568   6.898   5.899   6.460
 5487POPC   C3A69569   6.849   6.016   6.875
 5487POPC   C4A69570   6.964   5.935   7.283
 5487POPC   C1B69571   6.375   5.730   6.295
 5487POPC   C2B69572   6.400   5.753   6.734
 5487POPC   C3B69573   6.589   5.619   7.095
 5487POPC   C4B69574   6.543   5.761   7.533
 5488POPC   NC369575  39.108   3.994   5.460
 5488POPC   PO469576  39.474   3.419   5.406
 5488POPC   GL169577  39.256   3.595   5.737
 5488POPC   GL269578  38.881   3.517   5.678
 5488POPC   C1A69579  39.436   3.782   6.096
 5488POPC   D2A69580  39.460   3.805   6.534
 5488POPC   C3A69581  39.348   3.537   6.854
 5488POPC   C4A69582  39.295   3.673   7.259
 5488POPC   C1B69583  38.909   3.728   6.090
 5488POPC   C2B69584  38.962   3.732   6.521
 5488POPC   C3B69585  38.854   3.631   6.946
 5488POPC   C4B69586  39.017   3.247   7.167
 5489POPC   NC369587  31.288  17.975   5.531
 5489POPC   PO469588  31.638  18.633   5.435
 5489POPC   GL169589  31.478  18.358   5.783
 5489POPC   GL269590  31.697  18.070   5.923
 5489POPC   C1A69591  31.244  18.221   6.148
 5489POPC   D2A69592  31.533  18.193   6.453
 5489POPC   C3A69593  31.424  18.211   6.864
 5489POPC   C4A69594  31.427  18.304   7.274
 5489POPC   C1B69595  31.867  17.837   6.311
 5489POPC   C2B69596  31.873  17.948   6.767
 5489POPC   C3B69597  31.667  17.861   7.134
 5489POPC   C4B69598  31.699  17.950   7.541
 5490POPC   NC369599  23.477  24.064   5.643
 5490POPC   PO469600  23.694  23.430   5.491
 5490POPC   GL169601  23.678  23.645   5.892
 5490POPC   GL269602  23.313  23.670   5.998
 5490POPC   C1A69603  23.856  23.949   6.208
 5490POPC   D2A69604  24.045  23.893   6.596
 5490POPC   C3A69605  23.874  24.026   6.970
 5490POPC   C4A69606  23.736  23.763   7.316
 5490POPC   C1B69607  23.526  23.623   6.411
 5490POPC   C2B69608  23.456  23.748   6.861
 5490POPC   C3B69609  23.352  24.034   7.214
 5490POPC   C4B69610  23.520  24.045   7.687
 5491POPC   NC369611   6.410  30.050   5.601
 5491POPC   PO469612   6.906  29.667   5.312
 5491POPC   GL169613   6.877  29.901   5.742
 5491POPC   GL269614   6.641  29.793   5.991
 5491POPC   C1A69615   6.912  30.218   6.098
 5491POPC   D2A69616   6.773  30.282   6.533
 5491POPC   C3A69617   6.795  29.963   6.834
 5491POPC   C4A69618   6.890  30.172   7.166
 5491POPC   C1B69619   6.420  29.568   6.324
 5491POPC   C2B69620   6.490  29.534   6.775
 5491POPC   C3B69621   6.356  29.597   7.202
 5491POPC   C4B69622   6.398  29.549   7.640
 5492POPC   NC369623   4.786  41.021   4.909
 5492POPC   PO469624   5.286  40.772   5.287
 5492POPC   GL169625   4.979  40.736   5.657
 5492POPC   GL269626   5.016  40.430   5.850
 5492POPC   C1A69627   4.846  40.942   6.061
 5492POPC   D2A69628   4.985  40.813   6.489
 5492POPC   C3A69629   4.847  40.957   6.870
 5492POPC   C4A69630   4.734  41.064   7.269
 5492POPC   C1B69631   4.697  40.475   6.199
 5492POPC   C2B69632   4.658  40.337   6.629
 5492POPC   C3B69633   4.936  40.430   6.961
 5492POPC   C4B69634   4.955  40.519   7.421
 5493POPC   NC369635  34.759  22.660   5.373
 5493POPC   PO469636  34.279  23.106   5.410
 5493POPC   GL169637  34.445  23.064   5.863
 5493POPC   GL269638  34.495  22.715   5.847
 5493POPC   C1A69639  34.466  22.976   6.358
 5493POPC   D2A69640  34.239  23.059   6.750
 5493POPC   C3A69641  34.337  22.743   7.069
 5493POPC   C4A69642  34.559  22.905   7.434
 5493POPC   C1B69643  34.459  22.494   6.228
 5493POPC   C2B69644  34.660  22.560   6.633
 5493POPC   C3B69645  34.761  22.377   7.027
 5493POPC   C4B69646  34.539  22.371   7.437
 5494POPC   NC369647  23.595  32.370   5.333
 5494POPC   PO469648  24.223  32.523   5.480
 5494POPC   GL169649  23.894  32.343   5.775
 5494POPC   GL269650  23.506  32.299   5.821
 5494POPC   C1A69651  23.828  32.012   6.100
 5494POPC   D2A69652  23.507  31.924   6.401
 5494POPC   C3A69653  23.658  32.097   6.790
 5494POPC   C4A69654  23.705  32.065   7.233
 5494POPC   C1B69655  23.632  32.454   6.245
 5494POPC   C2B69656  23.415  32.541   6.644
 5494POPC   C3B69657  23.381  32.430   7.080
 5494POPC   C4B69658  23.401  32.382   7.537
 5495POPC   NC369659  22.123  25.022   5.663
 5495POPC   PO469660  22.443  24.512   5.299
 5495POPC   GL169661  22.310  24.549   5.773
 5495POPC   GL269662  22.108  24.306   5.945
 5495POPC   C1A69663  22.339  24.661   6.254
 5495POPC   D2A69664  22.145  24.517   6.689
 5495POPC   C3A69665  22.212  24.576   7.166
 5495POPC   C4A69666  22.068  24.345   7.568
 5495POPC   C1B69667  21.825  24.529   6.267
 5495POPC   C2B69668  21.628  24.694   6.656
 5495POPC   C3B69669  21.744  24.741   7.077
 5495POPC   C4B69670  21.889  24.836   7.483
 5496POPC   NC369671  11.002  39.566   5.290
 5496POPC   PO469672  10.304  39.340   5.308
 5496POPC   GL169673  10.354  39.166   5.748
 5496POPC   GL269674  10.166  38.851   5.725
 5496POPC   C1A69675  10.621  39.205   6.134
 5496POPC   D2A69676  10.833  39.204   6.537
 5496POPC   C3A69677  10.605  39.342   6.875
 5496POPC   C4A69678  10.620  39.339   7.309
 5496POPC   C1B69679  10.198  38.917   6.179
 5496POPC   C2B69680  10.379  38.933   6.596
 5496POPC   C3B69681  10.383  38.894   7.043
 5496POPC   C4B69682  10.257  39.032   7.479
 5497POPC   NC369683  36.034  44.846   5.516
 5497POPC   PO469684  36.611  44.368   5.437
 5497POPC   GL169685  36.365  44.536   5.811
 5497POPC   GL269686  35.992  44.474   5.862
 5497POPC   C1A69687  36.357  44.875   6.164
 5497POPC   D2A69688  36.149  45.000   6.583
 5497POPC   C3A69689  36.209  44.801   6.981
 5497POPC   C4A69690  36.510  44.939   7.270
 5497POPC   C1B69691  35.904  44.663   6.263
 5497POPC   C2B69692  35.888  44.538   6.678
 5497POPC   C3B69693  35.724  44.613   7.080
 5497POPC   C4B69694  35.716  44.541   7.506
 5498POPC   NC369695  34.534  28.364   5.388
 5498POPC   PO469696  34.577  28.858   5.817
 5498POPC   GL169697  34.402  28.411   5.880
 5498POPC   GL269698  34.513  28.082   5.852
 5498POPC   C1A69699  34.254  28.317   6.263
 5498POPC   D2A69700  34.465  28.596   6.504
 5498POPC   C3A69701  34.610  28.417   6.832
 5498POPC   C4A69702  34.406  28.359   7.219
 5498POPC   C1B69703  34.772  28.262   6.235
 5498POPC   C2B69704  34.972  28.111   6.648
 5498POPC   C3B69705  34.743  27.992   7.074
 5498POPC   C4B69706  34.734  28.152   7.536
 5499POPC   NC369707  17.545  43.355   5.563
 5499POPC   PO469708  17.279  43.966   5.358
 5499POPC   GL169709  17.262  43.915   5.791
 5499POPC   GL269710  17.109  44.233   5.852
 5499POPC   C1A69711  17.523  43.774   6.150
 5499POPC   D2A69712  17.451  43.712   6.588
 5499POPC   C3A69713  17.727  43.748   6.948
 5499POPC   C4A69714  17.690  43.975   7.317
 5499POPC   C1B69715  17.271  44.211   6.239
 5499POPC   C2B69716  17.292  44.358   6.627
 5499POPC   C3B69717  17.289  44.093   6.963
 5499POPC   C4B69718  17.260  44.302   7.333
 5500POPC   NC369719  28.044   8.842   5.464
 5500POPC   PO469720  27.321   8.984   5.573
 5500POPC   GL169721  27.677   8.965   5.843
 5500POPC   GL269722  27.767   8.634   5.840
 5500POPC   C1A69723  27.856   9.066   6.246
 5500POPC   D2A69724  27.916   8.934   6.654
 5500POPC   C3A69725  27.670   9.182   6.929
 5500POPC   C4A69726  27.600   9.336   7.322
 5500POPC   C1B69727  27.629   8.591   6.255
 5500POPC   C2B69728  27.734   8.444   6.657
 5500POPC   C3B69729  27.710   8.659   7.039
 5500POPC   C4B69730  27.595   8.721   7.452
 5501POPC   NC369731  20.335  31.716   5.546
 5501POPC   PO469732  20.811  31.250   5.467
 5501POPC   GL169733  20.692  31.499   5.801
 5501POPC   GL269734  20.367  31.370   5.895
 5501POPC   C1A69735  20.762  31.493   6.203
 5501POPC   D2A69736  20.958  31.550   6.550
 5501POPC   C3A69737  20.756  31.294   6.883
 5501POPC   C4A69738  20.587  31.115   7.277
 5501POPC   C1B69739  20.284  31.679   6.213
 5501POPC   C2B69740  20.490  31.722   6.616
 5501POPC   C3B69741  20.309  31.750   6.999
 5501POPC   C4B69742  20.128  31.617   7.392
 5502POPC   NC369743  32.382   8.768   5.410
 5502POPC   PO469744  32.442   9.361   5.459
 5502POPC   GL169745  32.175   9.105   5.781
 5502POPC   GL269746  32.310   8.770   5.909
 5502POPC   C1A69747  32.007   9.026   6.230
 5502POPC   D2A69748  32.199   9.012   6.656
 5502POPC   C3A69749  32.190   8.819   7.090
 5502POPC   C4A69750  32.079   8.921   7.515
 5502POPC   C1B69751  32.523   8.711   6.313
 5502POPC   C2B69752  32.480   8.572   6.744
 5502POPC   C3B69753  32.393   8.333   7.107
 5502POPC   C4B69754  32.321   8.445   7.571
 5503POPC   NC369755  10.278  36.516   5.337
 5503POPC   PO469756  10.844  36.234   5.488
 5503POPC   GL169757  10.669  36.135   5.854
 5503POPC   GL269758  10.345  36.242   5.767
 5503POPC   C1A69759  10.798  36.171   6.270
 5503POPC   D2A69760  10.729  36.460   6.581
 5503POPC   C3A69761  10.658  36.262   6.979
 5503POPC   C4A69762  10.337  36.324   7.271
 5503POPC   C1B69763  10.188  36.157   6.156
 5503POPC   C2B69764  10.364  36.086   6.553
 5503POPC   C3B69765  10.148  36.028   6.917
 5503POPC   C4B69766  10.232  35.829   7.303
 5504POPC   NC369767  12.043   7.773   5.452
 5504POPC   PO469768  12.367   7.268   5.481
 5504POPC   GL169769  12.262   7.542   5.865
 5504POPC   GL269770  11.934   7.587   5.992
 5504POPC   C1A69771  12.275   7.603   6.347
 5504POPC   D2A69772  11.876   7.657   6.600
 5504POPC   C3A69773  11.946   7.510   7.040
 5504POPC   C4A69774  12.041   7.414   7.469
 5504POPC   C1B69775  11.934   7.217   6.338
 5504POPC   C2B69776  11.826   7.078   6.792
 5504POPC   C3B69777  11.890   6.984   7.265
 5504POPC   C4B69778  11.755   7.084   7.734
 5505POPC   NC369779  17.409  20.317   5.332
 5505POPC   PO469780  17.822  20.893   5.426
 5505POPC   GL169781  17.698  20.560   5.709
 5505POPC   GL269782  17.317  20.522   5.799
 5505POPC   C1A69783  17.708  20.521   6.161
 5505POPC   D2A69784  17.516  20.524   6.576
 5505POPC   C3A69785  17.772  20.667   6.912
 5505POPC   C4A69786  17.571  20.678   7.331
 5505POPC   C1B69787  17.233  20.741   6.169
 5505POPC   C2B69788  17.443  21.027   6.447
 5505POPC   C3B69789  17.372  20.975   6.872
 5505POPC   C4B69790  17.093  20.696   7.101
 5506POPC   NC369791  17.393  21.953   5.485
 5506POPC   PO469792  17.438  22.437   5.031
 5506POPC   GL169793  17.400  22.470   5.552
 5506POPC   GL269794  17.168  22.281   5.790
 5506POPC   C1A69795  17.616  22.413   6.019
 5506POPC   D2A69796  17.579  22.377   6.522
 5506POPC   C3A69797  17.743  22.388   6.983
 5506POPC   C4A69798  17.711  22.028   7.299
 5506POPC   C1B69799  17.310  21.993   6.140
 5506POPC   C2B69800  17.323  21.937   6.574
 5506POPC   C3B69801  17.307  22.099   6.974
 5506POPC   C4B69802  17.165  22.153   7.381
 5507POPC   NC369803  21.039  32.412   5.404
 5507POPC   PO469804  21.566  31.922   5.430
 5507POPC   GL169805  21.264  32.052   5.739
 5507POPC   GL269806  21.374  32.394   5.826
 5507POPC   C1A69807  21.218  32.075   6.205
 5507POPC   D2A69808  21.431  32.314   6.540
 5507POPC   C3A69809  21.651  32.133   6.887
 5507POPC   C4A69810  21.368  31.909   7.161
 5507POPC   C1B69811  21.176  32.610   6.203
 5507POPC   C2B69812  20.985  32.581   6.646
 5507POPC   C3B69813  20.986  32.340   7.086
 5507POPC   C4B69814  20.815  32.450   7.522
 5508POPC   NC369815  43.440  15.044   5.391
 5508POPC   PO469816  42.862  15.305   5.245
 5508POPC   GL169817  42.979  15.320   5.684
 5508POPC   GL269818  42.801  15.587   5.876
 5508POPC   C1A69819  43.138  15.245   6.090
 5508POPC   D2A69820  43.334  15.233   6.499
 5508POPC   C3A69821  43.135  15.194   6.919
 5508POPC   C4A69822  42.911  14.815   7.090
 5508POPC   C1B69823  42.795  15.532   6.347
 5508POPC   C2B69824  42.730  15.488   6.814
 5508POPC   C3B69825  42.825  15.495   7.253
 5508POPC   C4B69826  42.977  15.603   7.681
 5509POPC   NC369827  34.193  18.782   5.416
 5509POPC   PO469828  33.647  19.115   5.356
 5509POPC   GL169829  33.737  19.123   5.812
 5509POPC   GL269830  33.396  19.150   5.893
 5509POPC   C1A69831  33.951  18.972   6.217
 5509POPC   D2A69832  33.999  18.779   6.647
 5509POPC   C3A69833  34.017  19.051   7.016
 5509POPC   C4A69834  34.013  18.891   7.436
 5509POPC   C1B69835  33.551  19.274   6.296
 5509POPC   C2B69836  33.541  19.066   6.672
 5509POPC   C3B69837  33.552  19.286   7.022
 5509POPC   C4B69838  33.703  19.274   7.388
 5510POPC   NC369839   5.998  38.885   5.412
 5510POPC   PO469840   5.792  39.523   5.454
 5510POPC   GL169841   6.055  39.299   5.790
 5510POPC   GL269842   6.018  38.953   5.899
 5510POPC   C1A69843   6.022  39.307   6.258
 5510POPC   D2A69844   5.978  39.630   6.579
 5510POPC   C3A69845   5.850  39.472   6.990
 5510POPC   C4A69846   5.879  39.477   7.447
 5510POPC   C1B69847   5.831  38.806   6.256
 5510POPC   C2B69848   5.876  38.991   6.651
 5510POPC   C3B69849   6.009  38.978   7.041
 5510POPC   C4B69850   5.693  38.864   7.293
 5511POPC   NC369851  35.471  22.307   5.223
 5511POPC   PO469852  35.154  21.700   5.216
 5511POPC   GL169853  35.406  21.949   5.625
 5511POPC   GL269854  35.541  22.328   5.724
 5511POPC   C1A69855  35.593  22.004   6.093
 5511POPC   D2A69856  35.348  22.040   6.488
 5511POPC   C3A69857  35.452  22.048   6.920
 5511POPC   C4A69858  35.202  22.143   7.281
 5511POPC   C1B69859  35.394  22.470   6.171
 5511POPC   C2B69860  35.240  22.581   6.615
 5511POPC   C3B69861  35.375  22.572   7.079
 5511POPC   C4B69862  35.416  22.641   7.603
 5512POPC   NC369863   4.862  27.424   5.535
 5512POPC   PO469864   4.989  28.008   5.303
 5512POPC   GL169865   4.908  27.930   5.762
 5512POPC   GL269866   4.781  27.643   5.983
 5512POPC   C1A69867   5.068  28.008   6.177
 5512POPC   D2A69868   5.127  27.771   6.551
 5512POPC   C3A69869   4.994  27.916   6.957
 5512POPC   C4A69870   5.240  27.769   7.316
 5512POPC   C1B69871   5.084  27.357   6.175
 5512POPC   C2B69872   5.216  27.190   6.554
 5512POPC   C3B69873   5.256  27.419   6.912
 5512POPC   C4B69874   4.892  27.447   7.142
 5513POPC   NC369875  31.851  10.635   5.465
 5513POPC   PO469876  31.350  10.194   5.377
 5513POPC   GL169877  31.361  10.137   5.820
 5513POPC   GL269878  31.689  10.288   5.869
 5513POPC   C1A69879  31.233  10.223   6.278
 5513POPC   D2A69880  31.442  10.409   6.654
 5513POPC   C3A69881  31.347  10.496   7.108
 5513POPC   C4A69882  31.265  10.925   7.283
 5513POPC   C1B69883  31.932  10.043   6.169
 5513POPC   C2B69884  32.065  10.119   6.613
 5513POPC   C3B69885  31.818  10.284   6.971
 5513POPC   C4B69886  31.664  10.143   7.367
 5514POPC   NC369887  14.749   9.941   5.287
 5514POPC   PO469888  14.015   9.799   5.372
 5514POPC   GL169889  14.227   9.812   5.775
 5514POPC   GL269890  14.561   9.737   5.694
 5514POPC   C1A69891  14.419   9.520   6.107
 5514POPC   D2A69892  14.446   9.684   6.495
 5514POPC   C3A69893  14.198   9.727   6.837
 5514POPC   C4A69894  14.060  10.076   7.079
 5514POPC   C1B69895  14.752   9.916   6.087
 5514POPC   C2B69896  14.869   9.931   6.529
 5514POPC   C3B69897  14.653   9.922   6.907
 5514POPC   C4B69898  14.457   9.838   7.315
 5515POPC   NC369899  25.967   8.661   5.545
 5515POPC   PO469900  26.128   8.155   5.258
 5515POPC   GL169901  26.193   8.335   5.803
 5515POPC   GL269902  26.489   8.433   5.853
 5515POPC   C1A69903  26.014   8.468   6.209
 5515POPC   D2A69904  26.021   8.208   6.589
 5515POPC   C3A69905  25.871   8.412   6.954
 5515POPC   C4A69906  25.796   8.286   7.359
 5515POPC   C1B69907  26.418   8.160   6.237
 5515POPC   C2B69908  26.543   8.247   6.644
 5515POPC   C3B69909  26.357   8.242   6.999
 5515POPC   C4B69910  26.285   8.037   7.349
 5516POPC   NC369911  41.072  43.418   5.604
 5516POPC   PO469912  40.550  43.000   5.414
 5516POPC   GL169913  40.539  42.944   5.814
 5516POPC   GL269914  40.912  42.932   5.810
 5516POPC   C1A69915  40.613  42.728   6.175
 5516POPC   D2A69916  40.924  42.600   6.461
 5516POPC   C3A69917  40.816  42.901   6.775
 5516POPC   C4A69918  40.786  42.947   7.223
 5516POPC   C1B69919  40.809  43.224   6.176
 5516POPC   C2B69920  40.876  43.448   6.573
 5516POPC   C3B69921  40.963  43.371   7.014
 5516POPC   C4B69922  41.020  43.664   7.378
 5517POPC   NC369923  43.902  17.098   5.556
 5517POPC   PO469924  44.162  17.775   5.427
 5517POPC   GL169925  44.125  17.536   5.857
 5517POPC   GL269926  43.811  17.384   5.958
 5517POPC   C1A69927  44.016  17.643   6.328
 5517POPC   D2A69928  43.813  17.907   6.617
 5517POPC   C3A69929  43.899  17.646   6.922
 5517POPC   C4A69930  43.762  17.482   7.277
 5517POPC   C1B69931  44.033  17.129   6.271
 5517POPC   C2B69932  43.952  17.156   6.728
 5517POPC   C3B69933  43.595  17.092   7.019
 5517POPC   C4B69934  43.502  17.145   7.525
 5518POPC   NC369935  40.159   6.310   5.516
 5518POPC   PO469936  39.823   5.736   5.221
 5518POPC   GL169937  39.935   5.719   5.683
 5518POPC   GL269938  39.826   6.042   5.843
 5518POPC   C1A69939  40.166   5.624   6.094
 5518POPC   D2A69940  40.093   5.447   6.521
 5518POPC   C3A69941  40.108   5.715   6.871
 5518POPC   C4A69942  40.071   5.695   7.288
 5518POPC   C1B69943  39.657   6.204   6.238
 5518POPC   C2B69944  39.680   6.289   6.702
 5518POPC   C3B69945  39.831   6.113   7.109
 5518POPC   C4B69946  39.782   6.280   7.521
 5519POPC   NC369947  41.688   6.952   5.461
 5519POPC   PO469948  41.828   6.251   5.348
 5519POPC   GL169949  41.805   6.513   5.730
 5519POPC   GL269950  41.478   6.630   5.904
 5519POPC   C1A69951  41.854   6.458   6.177
 5519POPC   D2A69952  41.525   6.466   6.501
 5519POPC   C3A69953  41.645   6.428   6.927
 5519POPC   C4A69954  41.387   6.325   7.299
 5519POPC   C1B69955  41.613   6.931   6.259
 5519POPC   C2B69956  41.571   6.917   6.728
 5519POPC   C3B69957  41.309   6.790   7.077
 5519POPC   C4B69958  41.090   6.759   7.457
 5520POPC   NC369959   3.150   8.314   5.457
 5520POPC   PO469960   3.662   7.978   5.184
 5520POPC   GL169961   3.592   8.102   5.654
 5520POPC   GL269962   3.485   7.842   5.880
 5520POPC   C1A69963   3.637   8.313   6.090
 5520POPC   D2A69964   3.913   8.502   6.427
 5520POPC   C3A69965   3.862   8.482   6.890
 5520POPC   C4A69966   4.036   8.532   7.308
 5520POPC   C1B69967   3.710   7.853   6.260
 5520POPC   C2B69968   3.593   8.101   6.633
 5520POPC   C3B69969   3.653   8.050   7.095
 5520POPC   C4B69970   3.650   8.192   7.527
 5521POPC   NC369971  26.162  20.190   5.633
 5521POPC   PO469972  25.830  19.632   5.414
 5521POPC   GL169973  26.075  19.712   5.813
 5521POPC   GL269974  26.394  19.545   5.886
 5521POPC   C1A69975  26.163  19.858   6.251
 5521POPC   D2A69976  26.190  19.675   6.685
 5521POPC   C3A69977  26.044  19.900   7.065
 5521POPC   C4A69978  26.203  19.971   7.503
 5521POPC   C1B69979  26.547  19.525   6.326
 5521POPC   C2B69980  26.599  19.392   6.793
 5521POPC   C3B69981  26.400  19.551   7.218
 5521POPC   C4B69982  26.360  19.510   7.707
 5522POPC   NC369983   9.536   2.736   5.494
 5522POPC   PO469984   8.878   2.517   5.523
 5522POPC   GL169985   9.113   2.710   5.806
 5522POPC   GL269986   9.304   2.385   5.839
 5522POPC   C1A69987   8.973   2.996   6.147
 5522POPC   D2A69988   8.637   3.072   6.449
 5522POPC   C3A69989   8.803   3.234   6.809
 5522POPC   C4A69990   9.047   2.990   7.083
 5522POPC   C1B69991   9.261   2.581   6.269
 5522POPC   C2B69992   9.355   2.686   6.704
 5522POPC   C3B69993   9.181   2.494   7.066
 5522POPC   C4B69994   8.772   2.401   7.204
 5523POPC   NC369995   9.671  25.166   5.452
 5523POPC   PO469996  10.099  25.724   5.473
 5523POPC   GL169997   9.997  25.448   5.840
 5523POPC   GL269998   9.637  25.406   5.899
 5523POPC   C1A69999   9.916  25.359   6.318
 5523POPC   D2A70000   9.982  25.511   6.758
 5523POPC   C3A70001   9.742  25.298   7.103
 5523POPC   C4A70002   9.820  25.119   7.520
 5523POPC   C1B70003   9.385  25.530   6.253
 5523POPC   C2B70004   9.442  25.412   6.687
 5523POPC   C3B70005   9.246  25.446   7.107
 5523POPC   C4B70006   9.508  25.520   7.514
 5524POPC   NC370007  26.979  18.892   5.407
 5524POPC   PO470008  26.808  19.492   5.567
 5524POPC   GL170009  26.812  19.168   5.898
 5524POPC   GL270010  27.160  19.040   5.884
 5524POPC   C1A70011  26.760  19.086   6.398
 5524POPC   D2A70012  26.571  18.829   6.743
 5524POPC   C3A70013  26.454  19.038   7.121
 5524POPC   C4A70014  26.544  19.040   7.568
 5524POPC   C1B70015  27.176  18.840   6.308
 5524POPC   C2B70016  27.069  18.873   6.779
 5524POPC   C3B70017  26.921  18.797   7.213
 5524POPC   C4B70018  27.214  18.574   7.506
 5525POPC   NC370019   9.365  23.419   5.603
 5525POPC   PO470020   8.815  23.667   5.287
 5525POPC   GL170021   8.886  23.603   5.726
 5525POPC   GL270022   9.136  23.818   5.884
 5525POPC   C1A70023   8.613  23.587   6.086
 5525POPC   D2A70024   8.659  23.470   6.517
 5525POPC   C3A70025   8.723  23.822   6.808
 5525POPC   C4A70026   8.995  23.750   7.165
 5525POPC   C1B70027   9.103  23.581   6.245
 5525POPC   C2B70028   9.190  23.659   6.665
 5525POPC   C3B70029   9.393  23.425   6.955
 5525POPC   C4B70030   9.447  23.541   7.346
 5526POPC   NC370031  32.048   1.164   5.460
 5526POPC   PO470032  32.649   1.034   5.300
 5526POPC   GL170033  32.418   0.850   5.710
 5526POPC   GL270034  32.276   1.154   5.910
 5526POPC   C1A70035  32.289   0.730   6.169
 5526POPC   D2A70036  32.276   1.125   6.468
 5526POPC   C3A70037  32.334   1.298   6.889
 5526POPC   C4A70038  32.716   1.498   7.026
 5526POPC   C1B70039  31.886   1.039   6.165
 5526POPC   C2B70040  31.780   1.064   6.608
 5526POPC   C3B70041  31.813   1.323   7.000
 5526POPC   C4B70042  32.074   1.483   7.311
 5527POPC   NC370043   8.441   0.921   5.600
 5527POPC   PO470044   8.491   0.210   5.633
 5527POPC   GL170045   8.262   0.432   5.906
 5527POPC   GL270046   8.023   0.695   5.835
 5527POPC   C1A70047   8.236   0.288   6.300
 5527POPC   D2A70048   8.099   0.393   6.672
 5527POPC   C3A70049   8.428   0.357   6.904
 5527POPC   C4A70050   8.499   0.061   7.200
 5527POPC   C1B70051   8.088   0.787   6.276
 5527POPC   C2B70052   8.101   0.896   6.722
 5527POPC   C3B70053   8.019   0.743   7.101
 5527POPC   C4B70054   8.321   0.595   7.330
 5528POPC   NC370055  44.895  24.780   5.418
 5528POPC   PO470056  44.504  24.174   5.418
 5528POPC   GL170057  44.719  24.263   5.779
 5528POPC   GL270058  44.639  24.620   5.829
 5528POPC   C1A70059  44.599  24.282   6.219
 5528POPC   D2A70060  44.684  24.528   6.576
 5528POPC   C3A70061  44.690  24.305   6.958
 5528POPC   C4A70062  44.886  24.494   7.302
 5528POPC   C1B70063  44.427  24.826   6.193
 5528POPC   C2B70064  44.246  24.788   6.633
 5528POPC   C3B70065  44.477  24.750   7.035
 5528POPC   C4B70066  44.212  24.852   7.371
 5529POPC   NC370067  39.259  13.649   5.447
 5529POPC   PO470068  39.691  14.116   5.698
 5529POPC   GL170069  39.343  13.903   5.885
 5529POPC   GL270070  39.411  13.549   5.960
 5529POPC   C1A70071  39.053  13.758   6.226
 5529POPC   D2A70072  39.160  13.581   6.627
 5529POPC   C3A70073  39.080  13.812   7.010
 5529POPC   C4A70074  38.980  13.533   7.336
 5529POPC   C1B70075  39.578  13.814   6.331
 5529POPC   C2B70076  39.577  13.869   6.789
 5529POPC   C3B70077  39.511  13.510   7.064
 5529POPC   C4B70078  39.762  13.269   7.353
 5530POPC   NC370079  27.443   0.941   5.512
 5530POPC   PO470080  27.824   1.540   5.351
 5530POPC   GL170081  27.902   1.341   5.780
 5530POPC   GL270082  27.565   1.254   5.897
 5530POPC   C1A70083  27.842   1.441   6.267
 5530POPC   D2A70084  27.721   1.090   6.553
 5530POPC   C3A70085  27.728   1.093   7.015
 5530POPC   C4A70086  27.788   1.009   7.427
 5530POPC   C1B70087  27.320   0.994   6.198
 5530POPC   C2B70088  27.221   1.002   6.643
 5530POPC   C3B70089  27.321   0.800   7.011
 5530POPC   C4B70090  27.221   1.091   7.249
 5531POPC   NC370091  35.037  15.157   5.150
 5531POPC   PO470092  34.512  15.274   5.578
 5531POPC   GL170093  34.568  14.968   5.872
 5531POPC   GL270094  34.894  14.879   5.852
 5531POPC   C1A70095  34.674  15.093   6.281
 5531POPC   D2A70096  34.785  15.425   6.564
 5531POPC   C3A70097  34.673  15.224   6.946
 5531POPC   C4A70098  34.472  15.287   7.350
 5531POPC   C1B70099  34.891  14.604   6.194
 5531POPC   C2B70100  34.764  14.582   6.651
 5531POPC   C3B70101  35.006  14.702   7.053
 5531POPC   C4B70102  34.960  15.016   7.374
 5532POPC   NC370103  18.095  17.392   5.067
 5532POPC   PO470104  18.436  17.211   5.658
 5532POPC   GL170105  18.379  17.401   6.031
 5532POPC   GL270106  18.434  17.768   6.054
 5532POPC   C1A70107  18.039  17.453   6.290
 5532POPC   D2A70108  17.917  17.535   6.683
 5532POPC   C3A70109  18.156  17.764   6.970
 5532POPC   C4A70110  18.036  17.465   7.260
 5532POPC   C1B70111  18.468  17.665   6.489
 5532POPC   C2B70112  18.390  17.317   6.773
 5532POPC   C3B70113  18.548  17.396   7.164
 5532POPC   C4B70114  18.563  17.706   7.450
 5533POPC   NC370115  24.776  12.445   5.620
 5533POPC   PO470116  24.752  13.075   5.431
 5533POPC   GL170117  24.552  13.044   5.852
 5533POPC   GL270118  24.467  12.696   5.925
 5533POPC   C1A70119  24.396  13.088   6.274
 5533POPC   D2A70120  24.395  12.826   6.648
 5533POPC   C3A70121  24.512  13.062   7.026
 5533POPC   C4A70122  24.761  13.043   7.421
 5533POPC   C1B70123  24.629  12.512   6.290
 5533POPC   C2B70124  24.855  12.614   6.672
 5533POPC   C3B70125  24.672  12.596   7.105
 5533POPC   C4B70126  24.687  12.479   7.558
 5534POPC   NC370127  19.713  21.451   5.409
 5534POPC   PO470128  20.045  20.844   5.518
 5534POPC   GL170129  20.017  21.081   5.857
 5534POPC   GL270130  19.893  21.434   5.874
 5534POPC   C1A70131  20.125  21.216   6.258
 5534POPC   D2A70132  19.883  21.404   6.566
 5534POPC   C3A70133  19.779  21.210   6.944
 5534POPC   C4A70134  19.975  21.223   7.340
 5534POPC   C1B70135  19.601  21.657   6.145
 5534POPC   C2B70136  19.477  21.712   6.553
 5534POPC   C3B70137  19.384  21.522   6.905
 5534POPC   C4B70138  19.555  21.513   7.309
 5535POPC   NC370139  25.183  16.136   5.385
 5535POPC   PO470140  25.655  15.654   5.524
 5535POPC   GL170141  25.444  15.952   5.849
 5535POPC   GL270142  25.110  16.134   5.891
 5535POPC   C1A70143  25.315  15.880   6.289
 5535POPC   D2A70144  25.241  16.044   6.681
 5535POPC   C3A70145  25.164  15.763   7.015
 5535POPC   C4A70146  25.463  15.932   7.276
 5535POPC   C1B70147  24.824  16.082   6.262
 5535POPC   C2B70148  24.744  15.985   6.703
 5535POPC   C3B70149  24.925  16.219   7.078
 5535POPC   C4B70150  25.019  16.125   7.501
 5536POPC   NC370151   9.630  14.568   5.226
 5536POPC   PO470152   9.706  13.936   5.392
 5536POPC   GL170153   9.590  14.186   5.729
 5536POPC   GL270154   9.902  14.325   5.785
 5536POPC   C1A70155   9.570  14.332   6.177
 5536POPC   D2A70156   9.502  14.591   6.529
 5536POPC   C3A70157   9.726  14.355   6.820
 5536POPC   C4A70158   9.603  14.398   7.244
 5536POPC   C1B70159  10.151  14.318   6.165
 5536POPC   C2B70160  10.334  14.215   6.546
 5536POPC   C3B70161  10.298  14.395   6.923
 5536POPC   C4B70162  10.113  14.506   7.284
 5537POPC   NC370163  40.303  34.109   5.252
 5537POPC   PO470164  40.276  34.752   5.279
 5537POPC   GL170165  40.063  34.701   5.695
 5537POPC   GL270166  40.005  34.321   5.757
 5537POPC   C1A70167  40.039  34.705   6.164
 5537POPC   D2A70168  40.145  34.460   6.551
 5537POPC   C3A70169  40.065  34.649   6.957
 5537POPC   C4A70170  40.326  34.672   7.330
 5537POPC   C1B70171  39.803  34.226   6.169
 5537POPC   C2B70172  39.654  34.361   6.587
 5537POPC   C3B70173  39.847  34.175   6.942
 5537POPC   C4B70174  40.137  34.215   7.257
 5538POPC   NC370175   2.435  15.170   5.459
 5538POPC   PO470176   3.036  15.014   5.418
 5538POPC   GL170177   2.803  15.056   5.803
 5538POPC   GL270178   2.739  15.397   5.811
 5538POPC   C1A70179   2.531  15.147   6.187
 5538POPC   D2A70180   2.226  15.300   6.478
 5538POPC   C3A70181   2.413  15.210   6.871
 5538POPC   C4A70182   2.664  15.095   7.222
 5538POPC   C1B70183   2.947  15.475   6.175
 5538POPC   C2B70184   2.805  15.412   6.590
 5538POPC   C3B70185   2.859  15.540   7.020
 5538POPC   C4B70186   3.114  15.361   7.334
 5539POPC   NC370187  28.735  18.388   5.396
 5539POPC   PO470188  28.140  18.089   5.335
 5539POPC   GL170189  28.268  18.356   5.676
 5539POPC   GL270190  28.255  18.068   5.888
 5539POPC   C1A70191  28.204  18.625   6.055
 5539POPC   D2A70192  27.924  18.521   6.401
 5539POPC   C3A70193  27.976  18.592   6.835
 5539POPC   C4A70194  28.167  18.380   7.189
 5539POPC   C1B70195  28.424  18.198   6.272
 5539POPC   C2B70196  28.359  18.210   6.717
 5539POPC   C3B70197  28.647  18.298   7.039
 5539POPC   C4B70198  28.634  18.208   7.492
 5540POPC   NC370199  35.925  20.700   5.240
 5540POPC   PO470200  36.368  20.247   5.171
 5540POPC   GL170201  36.396  20.448   5.590
 5540POPC   GL270202  36.341  20.809   5.577
 5540POPC   C1A70203  36.387  20.451   6.040
 5540POPC   D2A70204  36.067  20.590   6.356
 5540POPC   C3A70205  36.078  20.476   6.802
 5540POPC   C4A70206  35.809  20.650   7.123
 5540POPC   C1B70207  36.267  20.963   6.008
 5540POPC   C2B70208  36.325  21.029   6.456
 5540POPC   C3B70209  36.186  20.958   6.885
 5540POPC   C4B70210  36.458  20.990   7.219
 5541POPC   NC370211   2.839  39.239   5.443
 5541POPC   PO470212   2.744  39.912   5.421
 5541POPC   GL170213   2.634  39.673   5.838
 5541POPC   GL270214   2.564  39.295   5.860
 5541POPC   C1A70215   2.767  39.507   6.272
 5541POPC   D2A70216   3.123  39.331   6.487
 5541POPC   C3A70217   3.014  39.285   6.905
 5541POPC   C4A70218   3.207  39.180   7.274
 5541POPC   C1B70219   2.403  39.103   6.233
 5541POPC   C2B70220   2.515  39.145   6.658
 5541POPC   C3B70221   2.401  38.984   7.030
 5541POPC   C4B70222   2.640  39.233   7.282
 5542POPC   NC370223  31.737   0.262   5.552
 5542POPC   PO470224  31.174   0.618   5.689
 5542POPC   GL170225  31.427   0.352   5.953
 5542POPC   GL270226  31.769   0.533   5.977
 5542POPC   C1A70227  31.388   0.299   6.378
 5542POPC   D2A70228  31.377   0.719   6.559
 5542POPC   C3A70229  31.574   0.723   6.925
 5542POPC   C4A70230  31.485   0.588   7.295
 5542POPC   C1B70231  31.842   0.538   6.398
 5542POPC   C2B70232  31.768   0.266   6.755
 5542POPC   C3B70233  31.961   0.412   7.119
 5542POPC   C4B70234  31.927   0.839   7.279
 5543POPC   NC370235  37.145  13.224   5.327
 5543POPC   PO470236  36.922  12.550   5.204
 5543POPC   GL170237  37.028  12.666   5.656
 5543POPC   GL270238  37.148  12.962   5.749
 5543POPC   C1A70239  36.804  12.778   6.071
 5543POPC   D2A70240  36.589  12.658   6.471
 5543POPC   C3A70241  36.934  12.509   6.740
 5543POPC   C4A70242  37.042  12.493   7.167
 5543POPC   C1B70243  37.204  13.122   6.161
 5543POPC   C2B70244  37.195  12.969   6.574
 5543POPC   C3B70245  36.941  13.006   6.932
 5543POPC   C4B70246  37.095  13.013   7.328
 5544POPC   NC370247  13.185  44.290   5.454
 5544POPC   PO470248  12.592  43.949   5.448
 5544POPC   GL170249  12.831  43.920   5.806
 5544POPC   GL270250  12.829  44.257   5.830
 5544POPC   C1A70251  13.042  43.861   6.185
 5544POPC   D2A70252  12.945  43.716   6.582
 5544POPC   C3A70253  13.165  43.875   6.915
 5544POPC   C4A70254  13.117  43.749   7.282
 5544POPC   C1B70255  12.669  44.248   6.255
 5544POPC   C2B70256  12.608  44.079   6.703
 5544POPC   C3B70257  12.746  44.102   7.142
 5544POPC   C4B70258  12.678  44.279   7.613
 5545POPC   NC370259  31.156  37.135   5.144
 5545POPC   PO470260  30.621  36.838   5.511
 5545POPC   GL170261  30.694  36.910   5.951
 5545POPC   GL270262  30.379  36.862   6.028
 5545POPC   C1A70263  30.703  37.120   6.346
 5545POPC   D2A70264  30.464  36.977   6.702
 5545POPC   C3A70265  30.748  36.826   7.038
 5545POPC   C4A70266  30.823  36.975   7.445
 5545POPC   C1B70267  30.537  36.595   6.357
 5545POPC   C2B70268  30.486  36.466   6.765
 5545POPC   C3B70269  30.283  36.657   7.112
 5545POPC   C4B70270  30.409  36.631   7.533
 5546POPC   NC370271  41.338  41.605   5.468
 5546POPC   PO470272  42.016  41.643   5.332
 5546POPC   GL170273  41.783  41.544   5.743
 5546POPC   GL270274  41.554  41.799   5.900
 5546POPC   C1A70275  41.763  41.418   6.193
 5546POPC   D2A70276  41.841  41.261   6.621
 5546POPC   C3A70277  41.816  41.521   6.989
 5546POPC   C4A70278  41.855  41.407   7.430
 5546POPC   C1B70279  41.299  41.647   6.257
 5546POPC   C2B70280  41.376  41.505   6.698
 5546POPC   C3B70281  41.307  41.589   7.145
 5546POPC   C4B70282  40.901  41.601   7.379
 5547POPC   NC370283  14.547  19.257   5.412
 5547POPC   PO470284  13.897  19.469   5.566
 5547POPC   GL170285  14.205  19.364   5.898
 5547POPC   GL270286  14.418  19.054   5.903
 5547POPC   C1A70287  14.333  19.361   6.325
 5547POPC   D2A70288  14.124  19.212   6.673
 5547POPC   C3A70289  14.260  19.362   7.089
 5547POPC   C4A70290  14.330  19.213   7.503
 5547POPC   C1B70291  14.422  18.843   6.323
 5547POPC   C2B70292  14.512  18.903   6.772
 5547POPC   C3B70293  14.231  18.851   7.131
 5547POPC   C4B70294  14.081  18.524   7.423
 5548POPC   NC370295  10.876  33.140   5.385
 5548POPC   PO470296  11.477  32.863   5.192
 5548POPC   GL170297  11.316  33.223   5.596
 5548POPC   GL270298  11.129  32.948   5.802
 5548POPC   C1A70299  11.382  33.274   6.091
 5548POPC   D2A70300  11.590  33.151   6.457
 5548POPC   C3A70301  11.454  33.356   6.827
 5548POPC   C4A70302  11.340  33.158   7.235
 5548POPC   C1B70303  11.343  32.738   6.181
 5548POPC   C2B70304  11.433  32.669   6.596
 5548POPC   C3B70305  11.200  32.883   6.849
 5548POPC   C4B70306  10.957  32.777   7.219
 5549POPC   NC370307  33.306  26.361   5.553
 5549POPC   PO470308  33.327  27.111   5.415
 5549POPC   GL170309  33.243  27.057   5.843
 5549POPC   GL270310  33.101  26.717   5.892
 5549POPC   C1A70311  33.208  27.052   6.287
 5549POPC   D2A70312  33.117  26.719   6.558
 5549POPC   C3A70313  33.136  26.923   6.942
 5549POPC   C4A70314  33.359  26.695   7.220
 5549POPC   C1B70315  32.746  26.810   6.200
 5549POPC   C2B70316  32.677  26.974   6.637
 5549POPC   C3B70317  32.662  26.729   7.055
 5549POPC   C4B70318  32.746  26.830   7.519
 5550POPC   NC370319  28.762  24.860   5.513
 5550POPC   PO470320  28.946  25.567   5.518
 5550POPC   GL170321  28.921  25.284   5.855
 5550POPC   GL270322  29.137  25.031   5.816
 5550POPC   C1A70323  28.947  25.080   6.285
 5550POPC   D2A70324  28.990  25.065   6.712
 5550POPC   C3A70325  29.249  25.357   6.887
 5550POPC   C4A70326  29.008  25.254   7.242
 5550POPC   C1B70327  29.392  24.831   6.112
 5550POPC   C2B70328  29.534  24.961   6.486
 5550POPC   C3B70329  29.437  24.876   6.901
 5550POPC   C4B70330  29.507  25.111   7.247
 5551POPC   NC370331   9.900  13.608   5.151
 5551POPC   PO470332   9.283  13.333   5.383
 5551POPC   GL170333   9.652  13.366   5.639
 5551POPC   GL270334   9.609  13.667   5.813
 5551POPC   C1A70335   9.841  13.322   6.082
 5551POPC   D2A70336   9.690  13.471   6.475
 5551POPC   C3A70337   9.917  13.456   6.864
 5551POPC   C4A70338  10.006  13.545   7.291
 5551POPC   C1B70339   9.729  13.868   6.172
 5551POPC   C2B70340   9.929  13.922   6.588
 5551POPC   C3B70341   9.984  13.983   7.041
 5551POPC   C4B70342   9.712  13.950   7.426
 5552POPC   NC370343  37.710  42.515   5.418
 5552POPC   PO470344  37.798  41.863   5.587
 5552POPC   GL170345  37.488  42.165   5.777
 5552POPC   GL270346  37.249  42.408   5.606
 5552POPC   C1A70347  37.684  42.385   6.146
 5552POPC   D2A70348  37.887  42.253   6.521
 5552POPC   C3A70349  37.706  42.411   6.900
 5552POPC   C4A70350  37.829  42.355   7.321
 5552POPC   C1B70351  37.257  42.627   6.031
 5552POPC   C2B70352  37.331  42.620   6.501
 5552POPC   C3B70353  37.276  42.700   6.964
 5552POPC   C4B70354  37.352  42.489   7.361
 5553POPC   NC370355  27.661  21.411   5.290
 5553POPC   PO470356  28.108  20.915   5.518
 5553POPC   GL170357  27.729  21.229   5.741
 5553POPC   GL270358  27.728  21.582   5.783
 5553POPC   C1A70359  27.468  21.295   6.150
 5553POPC   D2A70360  27.421  21.137   6.608
 5553POPC   C3A70361  27.335  21.375   7.034
 5553POPC   C4A70362  27.187  21.286   7.493
 5553POPC   C1B70363  27.887  21.575   6.228
 5553POPC   C2B70364  27.713  21.575   6.697
 5553POPC   C3B70365  27.844  21.481   7.184
 5553POPC   C4B70366  27.992  21.483   7.695
 5554POPC   NC370367  24.580  22.604   5.480
 5554POPC   PO470368  24.686  23.355   5.387
 5554POPC   GL170369  24.792  23.212   5.836
 5554POPC   GL270370  24.634  22.890   5.882
 5554POPC   C1A70371  24.562  23.175   6.273
 5554POPC   D2A70372  24.427  23.035   6.708
 5554POPC   C3A70373  24.671  23.104   7.114
 5554POPC   C4A70374  24.769  22.873   7.494
 5554POPC   C1B70375  24.647  22.667   6.289
 5554POPC   C2B70376  24.537  22.522   6.701
 5554POPC   C3B70377  24.500  22.586   7.138
 5554POPC   C4B70378  24.493  22.452   7.584
 5555POPC   NC370379   7.256  27.037   5.280
 5555POPC   PO470380   7.730  26.671   5.424
 5555POPC   GL170381   7.501  26.937   5.744
 5555POPC   GL270382   7.134  27.034   5.832
 5555POPC   C1A70383   7.476  26.942   6.209
 5555POPC   D2A70384   7.606  27.142   6.604
 5555POPC   C3A70385   7.540  26.913   6.980
 5555POPC   C4A70386   7.804  26.792   7.331
 5555POPC   C1B70387   6.975  26.825   6.206
 5555POPC   C2B70388   7.081  27.002   6.618
 5555POPC   C3B70389   7.057  27.083   7.063
 5555POPC   C4B70390   6.922  26.922   7.473
 5556POPC   NC370391  19.648   4.370   5.427
 5556POPC   PO470392  20.418   4.311   5.394
 5556POPC   GL170393  20.061   4.316   5.716
 5556POPC   GL270394  20.071   4.598   5.949
 5556POPC   C1A70395  19.961   4.163   6.153
 5556POPC   D2A70396  19.772   4.109   6.580
 5556POPC   C3A70397  19.982   4.211   6.998
 5556POPC   C4A70398  19.784   4.377   7.395
 5556POPC   C1B70399  19.648   4.603   6.166
 5556POPC   C2B70400  19.456   4.790   6.557
 5556POPC   C3B70401  19.518   4.668   7.003
 5556POPC   C4B70402  19.314   4.608   7.404
 5557POPC   NC370403   5.866   0.735   5.387
 5557POPC   PO470404   5.892   0.066   5.484
 5557POPC   GL170405   5.900   0.206   5.894
 5557POPC   GL270406   5.792   0.524   5.886
 5557POPC   C1A70407   5.701   0.208   6.303
 5557POPC   D2A70408   5.947   0.191   6.686
 5557POPC   C3A70409   5.762   0.125   7.067
 5557POPC   C4A70410   5.565   0.374   7.383
 5557POPC   C1B70411   5.912   0.674   6.284
 5557POPC   C2B70412   6.162   0.664   6.646
 5557POPC   C3B70413   5.922   0.629   7.021
 5557POPC   C4B70414   5.741   0.900   7.272
 5558POPC   NC370415  32.505  26.260   5.602
 5558POPC   PO470416  32.231  25.782   5.290
 5558POPC   GL170417  32.195  25.792   5.750
 5558POPC   GL270418  32.064  26.109   5.849
 5558POPC   C1A70419  32.404  25.887   6.172
 5558POPC   D2A70420  32.566  25.875   6.608
 5558POPC   C3A70421  32.296  25.767   6.962
 5558POPC   C4A70422  32.392  25.907   7.369
 5558POPC   C1B70423  31.924  26.156   6.249
 5558POPC   C2B70424  31.963  26.302   6.670
 5558POPC   C3B70425  32.332  26.265   6.941
 5558POPC   C4B70426  31.971  26.150   7.181
 5559POPC   NC370427  31.055  43.694   5.644
 5559POPC   PO470428  31.547  43.778   5.206
 5559POPC   GL170429  31.547  43.917   5.660
 5559POPC   GL270430  31.339  44.183   5.675
 5559POPC   C1A70431  31.574  43.976   6.139
 5559POPC   D2A70432  31.662  43.746   6.534
 5559POPC   C3A70433  31.593  43.858   6.970
 5559POPC   C4A70434  31.545  43.682   7.406
 5559POPC   C1B70435  31.158  44.271   6.084
 5559POPC   C2B70436  31.263  44.189   6.512
 5559POPC   C3B70437  31.254  44.239   6.953
 5559POPC   C4B70438  31.478  44.233   7.366
 5560POPC   NC370439   4.323   2.249   5.203
 5560POPC   PO470440   3.989   1.730   5.267
 5560POPC   GL170441   4.183   2.000   5.640
 5560POPC   GL270442   4.365   2.363   5.687
 5560POPC   C1A70443   4.440   1.959   6.031
 5560POPC   D2A70444   4.332   1.891   6.479
 5560POPC   C3A70445   4.617   1.982   6.794
 5560POPC   C4A70446   4.648   2.141   7.205
 5560POPC   C1B70447   4.007   2.372   5.989
 5560POPC   C2B70448   3.935   2.260   6.430
 5560POPC   C3B70449   3.984   2.114   6.868
 5560POPC   C4B70450   3.962   2.290   7.295
 5561POPC   NC370451  13.148  18.421   5.464
 5561POPC   PO470452  13.746  18.482   5.499
 5561POPC   GL170453  13.987  18.436   5.866
 5561POPC   GL270454  13.696  18.351   6.076
 5561POPC   C1A70455  14.164  18.346   6.297
 5561POPC   D2A70456  14.094  18.114   6.667
 5561POPC   C3A70457  13.680  18.254   6.819
 5561POPC   C4A70458  13.527  18.297   7.254
 5561POPC   C1B70459  13.405  18.012   6.233
 5561POPC   C2B70460  13.186  17.907   6.626
 5561POPC   C3B70461  13.149  18.003   7.061
 5561POPC   C4B70462  13.114  18.069   7.489
 5562POPC   NC370463  17.289   1.999   5.395
 5562POPC   PO470464  17.843   1.696   5.407
 5562POPC   GL170465  17.583   1.801   5.782
 5562POPC   GL270466  17.228   1.657   5.786
 5562POPC   C1A70467  17.699   1.951   6.207
 5562POPC   D2A70468  17.877   2.195   6.558
 5562POPC   C3A70469  17.754   2.026   6.974
 5562POPC   C4A70470  17.524   1.745   7.255
 5562POPC   C1B70471  17.179   2.049   6.047
 5562POPC   C2B70472  17.212   2.076   6.501
 5562POPC   C3B70473  17.253   2.114   6.948
 5562POPC   C4B70474  17.195   2.122   7.383
 5563POPC   NC370475  41.381  27.305   5.662
 5563POPC   PO470476  41.435  26.644   5.455
 5563POPC   GL170477  41.535  26.822   5.813
 5563POPC   GL270478  41.813  27.025   5.728
 5563POPC   C1A70479  41.377  26.736   6.229
 5563POPC   D2A70480  41.240  26.560   6.622
 5563POPC   C3A70481  41.333  26.713   7.019
 5563POPC   C4A70482  41.536  27.096   7.133
 5563POPC   C1B70483  41.886  26.893   6.181
 5563POPC   C2B70484  41.700  26.853   6.609
 5563POPC   C3B70485  41.866  26.733   6.976
 5563POPC   C4B70486  42.089  26.987   7.232
 5564POPC   NC370487  10.091  33.758   5.425
 5564POPC   PO470488   9.470  34.001   5.432
 5564POPC   GL170489   9.684  33.932   5.829
 5564POPC   GL270490   9.623  33.603   5.859
 5564POPC   C1A70491   9.841  33.793   6.267
 5564POPC   D2A70492   9.942  33.461   6.563
 5564POPC   C3A70493   9.881  33.568   6.987
 5564POPC   C4A70494   9.791  33.803   7.354
 5564POPC   C1B70495   9.388  33.448   6.211
 5564POPC   C2B70496   9.453  33.369   6.657
 5564POPC   C3B70497   9.379  33.484   7.107
 5564POPC   C4B70498   9.186  33.437   7.560
 5565POPC   NC370499   5.495  12.147   5.484
 5565POPC   PO470500   5.026  11.653   5.380
 5565POPC   GL170501   5.061  11.940   5.795
 5565POPC   GL270502   5.349  12.143   5.952
 5565POPC   C1A70503   4.888  12.104   6.182
 5565POPC   D2A70504   4.894  11.884   6.568
 5565POPC   C3A70505   5.075  12.108   6.908
 5565POPC   C4A70506   4.897  12.240   7.328
 5565POPC   C1B70507   5.340  12.291   6.369
 5565POPC   C2B70508   5.356  12.555   6.723
 5565POPC   C3B70509   5.418  12.404   7.127
 5565POPC   C4B70510   5.368  12.039   7.327
 5566POPC   NC370511   4.243  41.542   5.036
 5566POPC   PO470512   4.624  41.911   5.487
 5566POPC   GL170513   4.225  41.873   5.707
 5566POPC   GL270514   4.167  41.523   5.779
 5566POPC   C1A70515   4.198  41.884   6.163
 5566POPC   D2A70516   4.329  41.638   6.524
 5566POPC   C3A70517   4.280  41.778   6.943
 5566POPC   C4A70518   4.636  41.841   7.227
 5566POPC   C1B70519   4.529  41.481   6.055
 5566POPC   C2B70520   4.720  41.297   6.449
 5566POPC   C3B70521   4.656  41.425   6.892
 5566POPC   C4B70522   4.340  41.376   7.225
 5567POPC   NC370523  10.818  35.780   5.487
 5567POPC   PO470524  10.720  35.148   5.472
 5567POPC   GL170525  10.407  35.344   5.791
 5567POPC   GL270526  10.252  35.696   5.794
 5567POPC   C1A70527  10.253  35.222   6.222
 5567POPC   D2A70528  10.161  35.069   6.674
 5567POPC   C3A70529  10.432  35.243   7.033
 5567POPC   C4A70530  10.426  35.378   7.471
 5567POPC   C1B70531  10.509  35.739   6.146
 5567POPC   C2B70532  10.713  35.715   6.538
 5567POPC   C3B70533  10.576  35.730   6.940
 5567POPC   C4B70534  10.792  35.687   7.328
 5568POPC   NC370535   7.316   7.751   5.635
 5568POPC   PO470536   7.078   8.295   5.271
 5568POPC   GL170537   7.180   8.237   5.750
 5568POPC   GL270538   7.570   8.219   5.854
 5568POPC   C1A70539   7.266   8.051   6.211
 5568POPC   D2A70540   7.486   8.299   6.535
 5568POPC   C3A70541   7.472   8.096   6.909
 5568POPC   C4A70542   7.294   7.947   7.234
 5568POPC   C1B70543   7.757   7.969   6.253
 5568POPC   C2B70544   7.929   8.012   6.686
 5568POPC   C3B70545   7.943   8.039   7.155
 5568POPC   C4B70546   7.879   8.061   7.608
 5569POPC   NC370547  30.102  40.428   5.449
 5569POPC   PO470548  29.751  41.081   5.343
 5569POPC   GL170549  29.841  40.804   5.723
 5569POPC   GL270550  30.203  40.847   5.764
 5569POPC   C1A70551  29.790  40.751   6.216
 5569POPC   D2A70552  29.931  41.041   6.603
 5569POPC   C3A70553  30.018  40.861   7.017
 5569POPC   C4A70554  29.955  40.877   7.463
 5569POPC   C1B70555  30.299  40.665   6.173
 5569POPC   C2B70556  30.148  40.570   6.590
 5569POPC   C3B70557  30.274  40.407   6.988
 5569POPC   C4B70558  30.373  40.623   7.351
 5570POPC   NC370559  25.897  38.053   5.705
 5570POPC   PO470560  26.131  38.470   5.184
 5570POPC   GL170561  26.206  38.510   5.707
 5570POPC   GL270562  26.475  38.276   5.792
 5570POPC   C1A70563  26.089  38.466   6.234
 5570POPC   D2A70564  25.945  38.701   6.651
 5570POPC   C3A70565  25.898  38.574   7.110
 5570POPC   C4A70566  26.008  38.325   7.499
 5570POPC   C1B70567  26.561  38.277   6.253
 5570POPC   C2B70568  26.303  38.256   6.655
 5570POPC   C3B70569  26.323  38.239   7.096
 5570POPC   C4B70570  26.467  38.128   7.540
 5571POPC   NC370571  31.465   7.802   5.552
 5571POPC   PO470572  31.583   8.446   5.279
 5571POPC   GL170573  31.588   8.271   5.715
 5571POPC   GL270574  31.872   8.003   5.771
 5571POPC   C1A70575  31.461   8.139   6.143
 5571POPC   D2A70576  31.273   8.045   6.548
 5571POPC   C3A70577  31.412   8.412   6.811
 5571POPC   C4A70578  31.412   8.393   7.260
 5571POPC   C1B70579  31.954   7.941   6.205
 5571POPC   C2B70580  31.770   8.044   6.592
 5571POPC   C3B70581  31.576   7.962   7.009
 5571POPC   C4B70582  31.741   7.793   7.396
 5572POPC   NC370583  40.162   0.565   5.422
 5572POPC   PO470584  39.714   0.183   5.573
 5572POPC   GL170585  39.941   0.401   5.908
 5572POPC   GL270586  40.273   0.540   5.912
 5572POPC   C1A70587  39.992   0.428   6.368
 5572POPC   D2A70588  39.758   0.219   6.698
 5572POPC   C3A70589  39.904   0.390   7.069
 5572POPC   C4A70590  39.862   0.761   7.249
 5572POPC   C1B70591  40.467   0.613   6.301
 5572POPC   C2B70592  40.371   0.501   6.732
 5572POPC   C3B70593  40.321   0.768   7.088
 5572POPC   C4B70594  40.268   0.810   7.581
 5573POPC   NC370595  18.762  36.960   5.537
 5573POPC   PO470596  19.134  36.422   5.451
 5573POPC   GL170597  19.022  36.627   5.858
 5573POPC   GL270598  18.937  36.957   6.015
 5573POPC   C1A70599  18.919  36.544   6.292
 5573POPC   D2A70600  19.038  36.777   6.654
 5573POPC   C3A70601  18.951  36.560   7.015
 5573POPC   C4A70602  19.064  36.657   7.470
 5573POPC   C1B70603  18.653  37.005   6.393
 5573POPC   C2B70604  18.587  36.938   6.841
 5573POPC   C3B70605  18.896  37.033   7.156
 5573POPC   C4B70606  18.856  37.218   7.548
 5574POPC   NC370607  37.185  10.612   5.528
 5574POPC   PO470608  37.857  10.420   5.611
 5574POPC   GL170609  37.666  10.164   5.936
 5574POPC   GL270610  37.367  10.327   5.910
 5574POPC   C1A70611  37.751  10.134   6.405
 5574POPC   D2A70612  37.984  10.425   6.670
 5574POPC   C3A70613  37.990  10.423   7.093
 5574POPC   C4A70614  37.752  10.657   7.308
 5574POPC   C1B70615  37.444  10.541   6.309
 5574POPC   C2B70616  37.495  10.617   6.757
 5574POPC   C3B70617  37.328  10.811   7.113
 5574POPC   C4B70618  37.291  10.619   7.511
 5575POPC   NC370619  43.424  24.526   5.347
 5575POPC   PO470620  42.836  24.362   5.435
 5575POPC   GL170621  43.120  24.426   5.796
 5575POPC   GL270622  43.295  24.756   5.791
 5575POPC   C1A70623  42.973  24.295   6.220
 5575POPC   D2A70624  42.659  24.269   6.557
 5575POPC   C3A70625  42.854  24.215   6.943
 5575POPC   C4A70626  43.149  24.255   7.289
 5575POPC   C1B70627  43.224  24.733   6.239
 5575POPC   C2B70628  43.131  24.586   6.652
 5575POPC   C3B70629  43.218  24.811   7.009
 5575POPC   C4B70630  43.267  24.730   7.437
 5576POPC   NC370631  16.427  31.563   5.447
 5576POPC   PO470632  15.745  31.502   5.492
 5576POPC   GL170633  16.076  31.594   5.833
 5576POPC   GL270634  16.263  31.312   5.898
 5576POPC   C1A70635  16.054  31.656   6.285
 5576POPC   D2A70636  15.688  31.633   6.574
 5576POPC   C3A70637  15.780  31.603   7.007
 5576POPC   C4A70638  16.185  31.618   7.172
 5576POPC   C1B70639  16.256  31.175   6.348
 5576POPC   C2B70640  15.995  31.234   6.695
 5576POPC   C3B70641  15.897  31.122   7.137
 5576POPC   C4B70642  16.209  31.067   7.485
 5577POPC   NC370643  36.699  12.184   5.021
 5577POPC   PO470644  37.108  11.761   5.367
 5577POPC   GL170645  36.871  11.930   5.723
 5577POPC   GL270646  36.738  12.264   5.749
 5577POPC   C1A70647  37.073  11.851   6.136
 5577POPC   D2A70648  37.143  12.069   6.535
 5577POPC   C3A70649  37.153  11.839   6.933
 5577POPC   C4A70650  37.118  11.997   7.334
 5577POPC   C1B70651  36.773  12.261   6.194
 5577POPC   C2B70652  36.611  12.126   6.597
 5577POPC   C3B70653  36.719  12.096   7.022
 5577POPC   C4B70654  36.619  12.178   7.444
 5578POPC   NC370655  39.368   5.772   5.283
 5578POPC   PO470656  38.912   6.173   5.492
 5578POPC   GL170657  39.301   6.014   5.732
 5578POPC   GL270658  39.419   5.661   5.778
 5578POPC   C1A70659  39.232   5.940   6.170
 5578POPC   D2A70660  39.173   6.161   6.551
 5578POPC   C3A70661  39.180   5.832   6.841
 5578POPC   C4A70662  39.098   5.793   7.274
 5578POPC   C1B70663  39.656   5.637   6.169
 5578POPC   C2B70664  39.659   5.780   6.598
 5578POPC   C3B70665  39.616   5.633   7.028
 5578POPC   C4B70666  39.609   5.758   7.480
 5579POPC   NC370667  40.632  27.933   5.473
 5579POPC   PO470668  41.073  27.454   5.345
 5579POPC   GL170669  40.818  27.460   5.743
 5579POPC   GL270670  40.441  27.597   5.809
 5579POPC   C1A70671  40.634  27.287   6.135
 5579POPC   D2A70672  40.548  27.463   6.503
 5579POPC   C3A70673  40.651  27.337   6.880
 5579POPC   C4A70674  40.498  27.418   7.273
 5579POPC   C1B70675  40.495  27.878   6.190
 5579POPC   C2B70676  40.646  27.942   6.625
 5579POPC   C3B70677  40.603  27.883   7.076
 5579POPC   C4B70678  40.277  27.860   7.402
 5580POPC   NC370679  40.454  10.606   5.449
 5580POPC   PO470680  40.852  10.073   5.421
 5580POPC   GL170681  40.803  10.376   5.742
 5580POPC   GL270682  41.104  10.597   5.834
 5580POPC   C1A70683  40.611  10.574   6.095
 5580POPC   D2A70684  40.839  10.710   6.436
 5580POPC   C3A70685  40.642  10.687   6.826
 5580POPC   C4A70686  40.744  10.567   7.242
 5580POPC   C1B70687  41.065  10.308   6.175
 5580POPC   C2B70688  41.064  10.260   6.594
 5580POPC   C3B70689  41.139  10.592   6.872
 5580POPC   C4B70690  41.343  10.584   7.229
 5581POPC   NC370691   0.748  43.234   5.607
 5581POPC   PO470692   1.312  42.934   5.252
 5581POPC   GL170693   1.203  43.101   5.733
 5581POPC   GL270694   1.386  43.318   5.898
 5581POPC   C1A70695   0.975  43.302   6.189
 5581POPC   D2A70696   1.131  43.324   6.613
 5581POPC   C3A70697   1.040  42.936   6.794
 5581POPC   C4A70698   1.097  42.749   7.153
 5581POPC   C1B70699   1.352  42.982   6.248
 5581POPC   C2B70700   1.542  42.973   6.661
 5581POPC   C3B70701   1.496  43.124   7.077
 5581POPC   C4B70702   1.774  43.423   7.263
 5582POPC   NC370703  43.075  33.455   5.351
 5582POPC   PO470704  42.905  32.785   5.381
 5582POPC   GL170705  43.017  32.866   5.776
 5582POPC   GL270706  43.066  33.221   5.813
 5582POPC   C1A70707  43.124  32.803   6.183
 5582POPC   D2A70708  42.988  32.838   6.576
 5582POPC   C3A70709  43.230  32.652   6.883
 5582POPC   C4A70710  43.063  32.752   7.265
 5582POPC   C1B70711  43.278  33.285   6.198
 5582POPC   C2B70712  43.138  33.336   6.609
 5582POPC   C3B70713  43.215  33.162   7.045
 5582POPC   C4B70714  43.118  33.177   7.536
 5583POPC   NC370715   6.241  32.353   5.474
 5583POPC   PO470716   5.629  32.051   5.356
 5583POPC   GL170717   5.865  31.994   5.724
 5583POPC   GL270718   5.896  32.333   5.860
 5583POPC   C1A70719   5.693  31.978   6.152
 5583POPC   D2A70720   5.821  32.279   6.454
 5583POPC   C3A70721   5.775  32.137   6.885
 5583POPC   C4A70722   5.865  32.373   7.261
 5583POPC   C1B70723   6.200  32.085   6.127
 5583POPC   C2B70724   6.319  32.196   6.565
 5583POPC   C3B70725   6.281  32.125   7.024
 5583POPC   C4B70726   6.308  32.363   7.470
 5584POPC   NC370727   3.623  17.043   5.494
 5584POPC   PO470728   3.016  16.669   5.495
 5584POPC   GL170729   3.357  16.744   5.796
 5584POPC   GL270730   3.644  16.513   5.897
 5584POPC   C1A70731   3.571  16.957   6.148
 5584POPC   D2A70732   3.722  16.731   6.518
 5584POPC   C3A70733   3.588  16.928   6.882
 5584POPC   C4A70734   3.636  16.839   7.273
 5584POPC   C1B70735   3.319  16.490   6.228
 5584POPC   C2B70736   3.354  16.317   6.641
 5584POPC   C3B70737   3.414  16.446   7.063
 5584POPC   C4B70738   3.250  16.358   7.519
 5585POPC   NC370739  31.861  26.114   5.385
 5585POPC   PO470740  31.210  26.113   5.274
 5585POPC   GL170741  31.420  26.109   5.697
 5585POPC   GL270742  31.642  25.798   5.779
 5585POPC   C1A70743  31.396  26.190   6.166
 5585POPC   D2A70744  31.547  26.021   6.569
 5585POPC   C3A70745  31.501  26.216   6.984
 5585POPC   C4A70746  31.129  26.318   7.246
 5585POPC   C1B70747  31.734  25.663   6.221
 5585POPC   C2B70748  31.641  25.551   6.697
 5585POPC   C3B70749  31.777  25.672   7.145
 5585POPC   C4B70750  31.766  25.838   7.580
 5586POPC   NC370751  29.450   3.285   5.199
 5586POPC   PO470752  29.043   2.735   5.381
 5586POPC   GL170753  29.131   2.552   5.814
 5586POPC   GL270754  29.138   2.900   5.894
 5586POPC   C1A70755  29.351   2.620   6.248
 5586POPC   D2A70756  29.283   2.942   6.578
 5586POPC   C3A70757  29.161   2.874   7.013
 5586POPC   C4A70758  29.147   2.466   7.188
 5586POPC   C1B70759  28.858   2.788   6.224
 5586POPC   C2B70760  28.796   2.709   6.661
 5586POPC   C3B70761  28.687   2.588   7.062
 5586POPC   C4B70762  28.683   2.804   7.477
 5587POPC   NC370763   0.418  16.341   5.473
 5587POPC   PO470764   0.894  15.818   5.684
 5587POPC   GL170765   0.540  16.034   5.866
 5587POPC   GL270766   0.267  15.791   5.740
 5587POPC   C1A70767   0.424  16.316   6.224
 5587POPC   D2A70768   0.584  16.431   6.649
 5587POPC   C3A70769   0.516  16.159   6.981
 5587POPC   C4A70770   0.622  15.793   7.209
 5587POPC   C1B70771   0.172  15.851   6.192
 5587POPC   C2B70772   0.333  15.792   6.628
 5587POPC   C3B70773   0.144  15.686   7.029
 5587POPC   C4B70774   0.138  15.890   7.457
 5588POPC   NC370775  10.211  14.032   5.461
 5588POPC   PO470776  10.780  14.381   5.466
 5588POPC   GL170777  10.564  14.216   5.767
 5588POPC   GL270778  10.388  14.530   5.772
 5588POPC   C1A70779  10.660  14.065   6.164
 5588POPC   D2A70780  10.836  14.248   6.520
 5588POPC   C3A70781  10.765  14.090   6.916
 5588POPC   C4A70782  10.639  14.233   7.297
 5588POPC   C1B70783  10.677  14.568   6.122
 5588POPC   C2B70784  10.580  14.680   6.514
 5588POPC   C3B70785  10.760  14.617   6.899
 5588POPC   C4B70786  10.565  14.726   7.277
 5589POPC   NC370787   3.635  24.809   5.320
 5589POPC   PO470788   3.206  24.297   5.133
 5589POPC   GL170789   3.315  24.425   5.614
 5589POPC   GL270790   3.666  24.539   5.753
 5589POPC   C1A70791   3.337  24.361   6.096
 5589POPC   D2A70792   3.211  24.562   6.492
 5589POPC   C3A70793   3.375  24.416   6.859
 5589POPC   C4A70794   3.323  24.401   7.268
 5589POPC   C1B70795   3.866  24.619   6.164
 5589POPC   C2B70796   3.760  24.665   6.617
 5589POPC   C3B70797   3.851  24.568   7.075
 5589POPC   C4B70798   3.733  24.814   7.431
 5590POPC   NC370799  16.153   4.429   5.235
 5590POPC   PO470800  15.978   3.820   5.535
 5590POPC   GL170801  15.765   4.213   5.720
 5590POPC   GL270802  15.563   4.012   5.940
 5590POPC   C1A70803  15.812   4.447   6.164
 5590POPC   D2A70804  15.942   4.359   6.640
 5590POPC   C3A70805  15.921   4.614   7.057
 5590POPC   C4A70806  15.779   4.765   7.515
 5590POPC   C1B70807  15.632   3.746   6.299
 5590POPC   C2B70808  15.834   3.862   6.683
 5590POPC   C3B70809  15.818   4.074   7.066
 5590POPC   C4B70810  15.591   3.896   7.370
 5591POPC   NC370811  23.088  42.169   5.182
 5591POPC   PO470812  22.613  42.631   5.214
 5591POPC   GL170813  22.750  42.285   5.611
 5591POPC   GL270814  23.104  42.201   5.722
 5591POPC   C1A70815  22.795  42.184   6.129
 5591POPC   D2A70816  23.027  42.239   6.558
 5591POPC   C3A70817  22.764  42.332   6.948
 5591POPC   C4A70818  22.603  42.181   7.368
 5591POPC   C1B70819  23.198  42.513   6.100
 5591POPC   C2B70820  23.019  42.762   6.472
 5591POPC   C3B70821  23.121  42.707   6.898
 5591POPC   C4B70822  23.255  42.291   7.091
 5592POPC   NC370823   8.298  14.818   5.319
 5592POPC   PO470824   7.838  15.275   5.370
 5592POPC   GL170825   8.056  15.129   5.745
 5592POPC   GL270826   8.385  15.040   5.779
 5592POPC   C1A70827   8.058  15.190   6.191
 5592POPC   D2A70828   8.180  15.419   6.556
 5592POPC   C3A70829   8.109  15.245   6.975
 5592POPC   C4A70830   7.933  15.531   7.282
 5592POPC   C1B70831   8.543  15.343   6.088
 5592POPC   C2B70832   8.670  15.216   6.507
 5592POPC   C3B70833   8.780  15.216   6.946
 5592POPC   C4B70834   8.707  14.911   7.279
 5593POPC   NC370835   8.903  21.715   5.599
 5593POPC   PO470836   9.113  21.083   5.494
 5593POPC   GL170837   9.065  21.325   5.851
 5593POPC   GL270838   9.321  21.629   5.883
 5593POPC   C1A70839   8.948  21.540   6.230
 5593POPC   D2A70840   9.020  21.407   6.624
 5593POPC   C3A70841   8.729  21.251   6.903
 5593POPC   C4A70842   8.794  21.287   7.327
 5593POPC   C1B70843   9.438  21.758   6.328
 5593POPC   C2B70844   9.388  21.712   6.797
 5593POPC   C3B70845   9.025  21.694   7.083
 5593POPC   C4B70846   9.020  21.722   7.545
 5594POPC   NC370847  37.709  39.416   5.225
 5594POPC   PO470848  37.083  39.214   5.392
 5594POPC   GL170849  37.422  39.027   5.692
 5594POPC   GL270850  37.786  39.083   5.803
 5594POPC   C1A70851  37.459  38.941   6.171
 5594POPC   D2A70852  37.723  38.960   6.565
 5594POPC   C3A70853  37.585  38.925   7.005
 5594POPC   C4A70854  37.782  39.070   7.335
 5594POPC   C1B70855  37.989  39.191   6.190
 5594POPC   C2B70856  38.008  39.464   6.529
 5594POPC   C3B70857  37.781  39.404   6.910
 5594POPC   C4B70858  37.490  39.490   7.217
 5595POPC   NC370859  40.940  29.879   5.565
 5595POPC   PO470860  40.264  29.767   5.383
 5595POPC   GL170861  40.470  29.753   5.873
 5595POPC   GL270862  40.610  30.107   5.986
 5595POPC   C1A70863  40.629  29.764   6.356
 5595POPC   D2A70864  40.756  30.044   6.736
 5595POPC   C3A70865  40.793  29.793   7.117
 5595POPC   C4A70866  40.458  29.561   7.332
 5595POPC   C1B70867  41.013  30.121   6.274
 5595POPC   C2B70868  41.251  30.220   6.690
 5595POPC   C3B70869  41.171  30.191   7.150
 5595POPC   C4B70870  41.002  30.152   7.618
 5596POPC   NC370871  34.182   6.018   5.283
 5596POPC   PO470872  33.654   5.568   5.623
 5596POPC   GL170873  33.680   5.866   5.987
 5596POPC   GL270874  34.009   6.085   6.028
 5596POPC   C1A70875  33.491   5.998   6.361
 5596POPC   D2A70876  33.715   6.068   6.742
 5596POPC   C3A70877  33.610   5.750   7.059
 5596POPC   C4A70878  33.327   5.436   7.230
 5596POPC   C1B70879  34.092   5.935   6.396
 5596POPC   C2B70880  34.265   6.033   6.803
 5596POPC   C3B70881  34.046   6.000   7.155
 5596POPC   C4B70882  33.656   6.218   7.222
 5597POPC   NC370883   7.805  41.788   5.442
 5597POPC   PO470884   7.168  41.591   5.227
 5597POPC   GL170885   7.472  41.463   5.663
 5597POPC   GL270886   7.296  41.202   5.903
 5597POPC   C1A70887   7.517  41.589   6.138
 5597POPC   D2A70888   7.313  41.799   6.508
 5597POPC   C3A70889   7.480  41.734   6.908
 5597POPC   C4A70890   7.521  41.990   7.273
 5597POPC   C1B70891   7.210  41.144   6.300
 5597POPC   C2B70892   7.347  41.295   6.638
 5597POPC   C3B70893   7.203  41.269   7.030
 5597POPC   C4B70894   7.348  41.450   7.344
 5598POPC   NC370895  20.391  22.479   5.407
 5598POPC   PO470896  20.214  21.825   5.490
 5598POPC   GL170897  20.425  22.130   5.813
 5598POPC   GL270898  20.274  22.481   5.906
 5598POPC   C1A70899  20.659  22.125   6.232
 5598POPC   D2A70900  20.592  21.933   6.666
 5598POPC   C3A70901  20.929  21.939   6.956
 5598POPC   C4A70902  21.027  22.155   7.308
 5598POPC   C1B70903  20.212  22.357   6.330
 5598POPC   C2B70904  20.506  22.460   6.653
 5598POPC   C3B70905  20.530  22.307   7.058
 5598POPC   C4B70906  20.268  22.262   7.434
 5599POPC   NC370907  30.941  21.615   5.370
 5599POPC   PO470908  30.512  21.104   5.488
 5599POPC   GL170909  30.551  21.123   5.890
 5599POPC   GL270910  30.909  21.072   5.878
 5599POPC   C1A70911  30.472  21.392   6.245
 5599POPC   D2A70912  30.335  21.607   6.603
 5599POPC   C3A70913  30.476  21.394   6.961
 5599POPC   C4A70914  30.757  21.508   7.266
 5599POPC   C1B70915  30.982  21.386   6.175
 5599POPC   C2B70916  30.849  21.683   6.505
 5599POPC   C3B70917  31.063  21.650   6.891
 5599POPC   C4B70918  31.215  21.311   7.190
 5600POPC   NC370919   7.704  34.589   5.418
 5600POPC   PO470920   8.324  34.373   5.215
 5600POPC   GL170921   8.130  34.443   5.679
 5600POPC   GL270922   8.166  34.801   5.758
 5600POPC   C1A70923   8.109  34.420   6.170
 5600POPC   D2A70924   8.118  34.615   6.611
 5600POPC   C3A70925   8.278  34.392   6.964
 5600POPC   C4A70926   8.121  34.273   7.359
 5600POPC   C1B70927   8.069  34.940   6.186
 5600POPC   C2B70928   7.969  35.101   6.565
 5600POPC   C3B70929   8.154  35.102   6.972
 5600POPC   C4B70930   8.179  34.803   7.300
 5601POPC   NC370931  30.956  33.536   5.536
 5601POPC   PO470932  30.394  33.905   5.515
 5601POPC   GL170933  30.654  33.864   5.864
 5601POPC   GL270934  30.987  33.840   5.984
 5601POPC   C1A70935  30.595  33.623   6.236
 5601POPC   D2A70936  30.787  33.659   6.596
 5601POPC   C3A70937  30.539  33.572   6.955
 5601POPC   C4A70938  30.380  33.641   7.364
 5601POPC   C1B70939  31.211  33.553   6.247
 5601POPC   C2B70940  31.142  33.309   6.616
 5601POPC   C3B70941  31.046  33.556   7.020
 5601POPC   C4B70942  30.882  33.902   7.281
 5602POPC   NC370943  38.418  11.512   5.612
 5602POPC   PO470944  38.741  10.875   5.504
 5602POPC   GL170945  38.633  11.122   5.904
 5602POPC   GL270946  38.785  11.486   5.950
 5602POPC   C1A70947  38.340  11.224   6.283
 5602POPC   D2A70948  38.191  11.320   6.728
 5602POPC   C3A70949  38.464  11.329   7.107
 5602POPC   C4A70950  38.347  11.372   7.536
 5602POPC   C1B70951  38.837  11.325   6.342
 5602POPC   C2B70952  38.693  11.149   6.673
 5602POPC   C3B70953  38.748  10.893   6.958
 5602POPC   C4B70954  38.904  11.083   7.315
 5603POPC   NC370955  43.858   6.124   5.361
 5603POPC   PO470956  44.178   5.427   5.462
 5603POPC   GL170957  44.054   5.732   5.777
 5603POPC   GL270958  44.036   6.100   5.830
 5603POPC   C1A70959  43.816   5.765   6.156
 5603POPC   D2A70960  43.647   5.875   6.535
 5603POPC   C3A70961  43.853   5.739   6.910
 5603POPC   C4A70962  44.021   5.617   7.277
 5603POPC   C1B70963  43.734   6.258   6.160
 5603POPC   C2B70964  43.757   6.367   6.599
 5603POPC   C3B70965  43.593   6.173   6.962
 5603POPC   C4B70966  43.928   6.125   7.227
 5604POPC   NC370967  32.669  43.981   5.724
 5604POPC   PO470968  33.226  43.947   5.363
 5604POPC   GL170969  33.353  43.951   5.807
 5604POPC   GL270970  33.504  44.301   5.791
 5604POPC   C1A70971  33.166  43.775   6.191
 5604POPC   D2A70972  32.821  43.750   6.523
 5604POPC   C3A70973  32.983  43.692   6.957
 5604POPC   C4A70974  32.894  43.413   7.284
 5604POPC   C1B70975  33.231  44.311   6.164
 5604POPC   C2B70976  33.129  44.177   6.576
 5604POPC   C3B70977  32.841  44.174   6.917
 5604POPC   C4B70978  33.050  44.094   7.305
 5605POPC   NC370979  23.741  27.779   5.459
 5605POPC   PO470980  24.185  27.398   5.400
 5605POPC   GL170981  23.894  27.398   5.807
 5605POPC   GL270982  23.580  27.439   5.954
 5605POPC   C1A70983  23.897  27.730   6.212
 5605POPC   D2A70984  23.806  27.855   6.667
 5605POPC   C3A70985  23.765  27.581   7.042
 5605POPC   C4A70986  23.679  27.779   7.465
 5605POPC   C1B70987  23.513  27.428   6.407
 5605POPC   C2B70988  23.285  27.687   6.724
 5605POPC   C3B70989  23.270  27.694   7.175
 5605POPC   C4B70990  23.435  27.320   7.368
 5606POPC   NC370991  39.634  10.179   5.438
 5606POPC   PO470992  39.025   9.918   5.449
 5606POPC   GL170993  39.193   9.763   5.836
 5606POPC   GL270994  38.986   9.491   5.852
 5606POPC   C1A70995  39.311   9.798   6.258
 5606POPC   D2A70996  39.266   9.951   6.667
 5606POPC   C3A70997  39.444   9.720   6.976
 5606POPC   C4A70998  39.530   9.535   7.363
 5606POPC   C1B70999  38.791   9.634   6.217
 5606POPC   C2B71000  38.741   9.798   6.623
 5606POPC   C3B71001  38.806   9.600   7.037
 5606POPC   C4B71002  39.071   9.784   7.318
 5607POPC   NC371003   2.176  44.705   4.936
 5607POPC   PO471004   1.619  44.505   5.380
 5607POPC   GL171005   1.734  44.441   5.810
 5607POPC   GL271006   1.986  44.726   5.792
 5607POPC   C1A71007   1.667  44.586   6.240
 5607POPC   D2A71008   1.984  44.892   6.423
 5607POPC   C3A71009   2.102  44.844   6.870
 5607POPC   C4A71010   1.879  44.676   7.223
 5607POPC   C1B71011   2.159  44.454   6.102
 5607POPC   C2B71012   2.048  44.391   6.518
 5607POPC   C3B71013   2.228  44.317   6.903
 5607POPC   C4B71014   2.324  44.443   7.299
 5608POPC   NC371015  18.406  17.652   5.559
 5608POPC   PO471016  18.456  18.198   5.244
 5608POPC   GL171017  18.549  18.272   5.744
 5608POPC   GL271018  18.281  18.518   5.882
 5608POPC   C1A71019  18.512  18.237   6.228
 5608POPC   D2A71020  18.278  18.160   6.615
 5608POPC   C3A71021  18.483  18.221   7.009
 5608POPC   C4A71022  18.269  18.101   7.372
 5608POPC   C1B71023  18.009  18.354   6.201
 5608POPC   C2B71024  17.857  18.461   6.635
 5608POPC   C3B71025  17.952  18.326   7.042
 5608POPC   C4B71026  18.072  18.572   7.394
 5609POPC   NC371027  14.975  21.089   5.605
 5609POPC   PO471028  15.189  20.426   5.366
 5609POPC   GL171029  15.120  20.601   5.790
 5609POPC   GL271030  15.338  20.887   5.894
 5609POPC   C1A71031  15.049  20.628   6.243
 5609POPC   D2A71032  14.938  20.341   6.607
 5609POPC   C3A71033  15.100  20.424   6.992
 5609POPC   C4A71034  14.930  20.510   7.365
 5609POPC   C1B71035  15.480  20.944   6.343
 5609POPC   C2B71036  15.206  20.916   6.746
 5609POPC   C3B71037  15.165  20.926   7.213
 5609POPC   C4B71038  15.337  20.958   7.669
 5610POPC   NC371039  31.610  39.391   5.673
 5610POPC   PO471040  31.428  40.069   5.527
 5610POPC   GL171041  31.595  39.870   5.868
 5610POPC   GL271042  31.869  40.109   5.886
 5610POPC   C1A71043  31.453  39.687   6.298
 5610POPC   D2A71044  31.310  39.640   6.744
 5610POPC   C3A71045  31.580  39.830   7.051
 5610POPC   C4A71046  31.589  40.058   7.442
 5610POPC   C1B71047  31.620  40.179   6.258
 5610POPC   C2B71048  31.461  40.123   6.637
 5610POPC   C3B71049  31.497  40.337   7.003
 5610POPC   C4B71050  31.234  40.466   7.313
 5611POPC   NC371051  31.667  41.223   5.474
 5611POPC   PO471052  31.890  41.846   5.507
 5611POPC   GL171053  31.687  41.605   5.829
 5611POPC   GL271054  31.345  41.445   5.841
 5611POPC   C1A71055  31.594  41.804   6.214
 5611POPC   D2A71056  31.619  41.722   6.642
 5611POPC   C3A71057  31.318  41.461   6.752
 5611POPC   C4A71058  31.295  41.531   7.166
 5611POPC   C1B71059  31.465  41.302   6.261
 5611POPC   C2B71060  31.621  41.043   6.591
 5611POPC   C3B71061  31.682  41.192   7.021
 5611POPC   C4B71062  31.667  41.293   7.483
 5612POPC   NC371063  28.561  37.393   5.500
 5612POPC   PO471064  28.275  36.727   5.379
 5612POPC   GL171065  28.484  36.927   5.702
 5612POPC   GL271066  28.491  36.651   5.828
 5612POPC   C1A71067  28.451  37.114   6.124
 5612POPC   D2A71068  28.297  37.307   6.517
 5612POPC   C3A71069  28.382  37.090   6.911
 5612POPC   C4A71070  28.241  37.092   7.333
 5612POPC   C1B71071  28.177  36.664   6.124
 5612POPC   C2B71072  28.384  36.739   6.502
 5612POPC   C3B71073  28.302  36.595   6.919
 5612POPC   C4B71074  28.578  36.711   7.261
 5613POPC   NC371075   1.755  20.105   5.504
 5613POPC   PO471076   2.267  19.640   5.518
 5613POPC   GL171077   1.974  19.673   5.856
 5613POPC   GL271078   1.921  20.023   5.991
 5613POPC   C1A71079   2.002  19.511   6.252
 5613POPC   D2A71080   1.954  19.821   6.514
 5613POPC   C3A71081   2.087  19.708   6.901
 5613POPC   C4A71082   2.084  19.776   7.348
 5613POPC   C1B71083   2.330  19.914   6.154
 5613POPC   C2B71084   2.473  19.863   6.581
 5613POPC   C3B71085   2.457  19.987   7.055
 5613POPC   C4B71086   2.529  20.016   7.515
 5614POPC   NC371087  10.545   8.325   5.426
 5614POPC   PO471088  10.857   7.730   5.337
 5614POPC   GL171089  10.644   7.848   5.765
 5614POPC   GL271090  10.374   8.086   5.825
 5614POPC   C1A71091  10.622   8.053   6.243
 5614POPC   D2A71092  10.819   8.211   6.611
 5614POPC   C3A71093  10.615   8.143   6.987
 5614POPC   C4A71094  10.696   7.891   7.318
 5614POPC   C1B71095  10.202   8.366   6.130
 5614POPC   C2B71096  10.020   8.276   6.509
 5614POPC   C3B71097  10.135   8.294   6.927
 5614POPC   C4B71098  10.270   8.243   7.379
 5615POPC   NC371099  39.279   9.507   5.411
 5615POPC   PO471100  39.546   8.870   5.408
 5615POPC   GL171101  39.435   8.906   5.805
 5615POPC   GL271102  39.427   9.248   5.824
 5615POPC   C1A71103  39.463   8.856   6.231
 5615POPC   D2A71104  39.401   8.986   6.679
 5615POPC   C3A71105  39.182   8.732   6.997
 5615POPC   C4A71106  39.157   8.872   7.428
 5615POPC   C1B71107  39.248   9.305   6.241
 5615POPC   C2B71108  39.122   9.426   6.658
 5615POPC   C3B71109  39.195   9.269   7.093
 5615POPC   C4B71110  39.000   9.340   7.534
 5616POPC   NC371111  17.478  33.472   5.284
 5616POPC   PO471112  17.709  34.112   5.283
 5616POPC   GL171113  17.495  34.131   5.669
 5616POPC   GL271114  17.362  33.784   5.755
 5616POPC   C1A71115  17.558  34.133   6.109
 5616POPC   D2A71116  17.296  34.092   6.475
 5616POPC   C3A71117  17.463  34.149   6.885
 5616POPC   C4A71118  17.207  34.362   7.134
 5616POPC   C1B71119  17.362  33.631   6.206
 5616POPC   C2B71120  17.409  33.513   6.638
 5616POPC   C3B71121  17.334  33.689   7.030
 5616POPC   C4B71122  17.558  33.504   7.304
 5617POPC   NC371123  37.189  12.226   5.392
 5617POPC   PO471124  37.839  12.270   5.493
 5617POPC   GL171125  37.505  12.043   5.770
 5617POPC   GL271126  37.234  12.256   5.901
 5617POPC   C1A71127  37.557  11.956   6.211
 5617POPC   D2A71128  37.910  11.959   6.475
 5617POPC   C3A71129  37.891  11.964   6.934
 5617POPC   C4A71130  37.579  11.813   7.234
 5617POPC   C1B71131  37.228  12.535   6.248
 5617POPC   C2B71132  37.450  12.497   6.604
 5617POPC   C3B71133  37.468  12.266   6.961
 5617POPC   C4B71134  37.484  12.362   7.373
 5618POPC   NC371135  13.553  32.606   5.335
 5618POPC   PO471136  13.796  31.924   5.513
 5618POPC   GL171137  13.648  32.145   5.855
 5618POPC   GL271138  13.936  32.343   5.814
 5618POPC   C1A71139  13.575  32.227   6.314
 5618POPC   D2A71140  13.802  32.115   6.715
 5618POPC   C3A71141  13.522  32.263   7.039
 5618POPC   C4A71142  13.424  32.711   7.125
 5618POPC   C1B71143  14.067  32.251   6.230
 5618POPC   C2B71144  14.097  32.527   6.576
 5618POPC   C3B71145  13.944  32.592   7.002
 5618POPC   C4B71146  14.023  32.473   7.433
 5619POPC   NC371147  21.139  40.141   5.574
 5619POPC   PO471148  20.469  40.079   5.326
 5619POPC   GL171149  20.678  39.915   5.705
 5619POPC   GL271150  20.717  40.235   5.888
 5619POPC   C1A71151  20.926  39.797   6.103
 5619POPC   D2A71152  21.145  39.903   6.488
 5619POPC   C3A71153  20.971  40.167   6.817
 5619POPC   C4A71154  20.717  40.069   7.176
 5619POPC   C1B71155  20.526  40.066   6.283
 5619POPC   C2B71156  20.479  39.957   6.739
 5619POPC   C3B71157  20.215  39.966   7.132
 5619POPC   C4B71158  19.924  39.877   7.485
 5620POPC   NC371159  41.361   6.250   5.416
 5620POPC   PO471160  41.401   5.691   5.676
 5620POPC   GL171161  41.667   6.011   5.824
 5620POPC   GL271162  42.005   6.025   5.753
 5620POPC   C1A71163  41.572   6.033   6.240
 5620POPC   D2A71164  41.555   5.770   6.577
 5620POPC   C3A71165  41.469   5.908   6.969
 5620POPC   C4A71166  41.480   5.509   7.134
 5620POPC   C1B71167  42.089   5.977   6.178
 5620POPC   C2B71168  41.952   6.120   6.573
 5620POPC   C3B71169  42.110   6.192   6.937
 5620POPC   C4B71170  41.874   6.096   7.249
 5621POPC   NC371171  32.467  29.353   5.438
 5621POPC   PO471172  32.808  28.826   5.249
 5621POPC   GL171173  32.530  28.925   5.715
 5621POPC   GL271174  32.233  29.205   5.859
 5621POPC   C1A71175  32.462  28.956   6.203
 5621POPC   D2A71176  32.089  28.809   6.435
 5621POPC   C3A71177  32.129  28.846   6.878
 5621POPC   C4A71178  31.897  28.903   7.254
 5621POPC   C1B71179  31.964  29.397   6.201
 5621POPC   C2B71180  31.826  29.470   6.657
 5621POPC   C3B71181  32.122  29.366   7.000
 5621POPC   C4B71182  32.565  29.351   7.157
 5622POPC   NC371183  34.016  25.122   5.387
 5622POPC   PO471184  33.470  25.556   5.354
 5622POPC   GL171185  33.580  25.317   5.768
 5622POPC   GL271186  33.300  25.095   5.921
 5622POPC   C1A71187  33.732  25.122   6.199
 5622POPC   D2A71188  33.702  24.850   6.599
 5622POPC   C3A71189  33.940  25.024   6.972
 5622POPC   C4A71190  34.049  25.391   7.262
 5622POPC   C1B71191  33.342  25.451   6.234
 5622POPC   C2B71192  33.626  25.495   6.573
 5622POPC   C3B71193  33.620  25.437   7.001
 5622POPC   C4B71194  33.669  25.775   7.252
 5623POPC   NC371195   7.224   0.212   5.545
 5623POPC   PO471196   7.105   0.882   5.396
 5623POPC   GL171197   7.135   0.644   5.777
 5623POPC   GL271198   7.511   0.584   5.762
 5623POPC   C1A71199   7.206   0.491   6.200
 5623POPC   D2A71200   7.161   0.720   6.568
 5623POPC   C3A71201   7.186   0.470   6.904
 5623POPC   C4A71202   7.446   0.496   7.245
 5623POPC   C1B71203   7.728   0.368   6.113
 5623POPC   C2B71204   7.614   0.418   6.528
 5623POPC   C3B71205   7.672   0.191   6.886
 5623POPC   C4B71206   7.975   0.250   7.166
 5624POPC   NC371207  40.694   6.736   5.334
 5624POPC   PO471208  41.307   6.703   5.438
 5624POPC   GL171209  40.992   6.567   5.716
 5624POPC   GL271210  40.840   6.854   5.801
 5624POPC   C1A71211  40.842   6.440   6.147
 5624POPC   D2A71212  40.904   6.167   6.542
 5624POPC   C3A71213  40.995   6.377   6.946
 5624POPC   C4A71214  40.725   6.403   7.316
 5624POPC   C1B71215  41.100   6.889   6.170
 5624POPC   C2B71216  41.084   6.792   6.615
 5624POPC   C3B71217  40.813   6.881   6.997
 5624POPC   C4B71218  40.609   6.931   7.394
 5625POPC   NC371219  33.966  31.596   5.452
 5625POPC   PO471220  33.398  31.189   5.377
 5625POPC   GL171221  33.541  31.483   5.736
 5625POPC   GL271222  33.881  31.414   5.897
 5625POPC   C1A71223  33.550  31.630   6.194
 5625POPC   D2A71224  33.642  31.441   6.568
 5625POPC   C3A71225  33.804  31.559   6.929
 5625POPC   C4A71226  33.766  31.246   7.239
 5625POPC   C1B71227  34.162  31.268   6.188
 5625POPC   C2B71228  34.021  31.106   6.560
 5625POPC   C3B71229  34.181  31.189   6.941
 5625POPC   C4B71230  34.219  31.479   7.235
 5626POPC   NC371231  21.803  40.078   5.110
 5626POPC   PO471232  22.353  40.057   5.560
 5626POPC   GL171233  22.257  40.077   5.955
 5626POPC   GL271234  22.204  39.764   5.948
 5626POPC   C1A71235  22.099  40.065   6.378
 5626POPC   D2A71236  22.343  40.302   6.669
 5626POPC   C3A71237  22.479  40.224   7.064
 5626POPC   C4A71238  22.361  40.319   7.496
 5626POPC   C1B71239  22.504  39.717   6.259
 5626POPC   C2B71240  22.441  39.750   6.682
 5626POPC   C3B71241  22.474  39.691   7.086
 5626POPC   C4B71242  22.231  39.862   7.334
 5627POPC   NC371243  16.996  36.187   5.191
 5627POPC   PO471244  16.437  36.200   5.462
 5627POPC   GL171245  16.756  36.091   5.767
 5627POPC   GL271246  17.003  36.384   5.787
 5627POPC   C1A71247  16.857  35.910   6.193
 5627POPC   D2A71248  16.791  35.710   6.605
 5627POPC   C3A71249  16.915  35.831   7.015
 5627POPC   C4A71250  16.704  35.793   7.397
 5627POPC   C1B71251  16.724  36.404   6.164
 5627POPC   C2B71252  16.655  36.220   6.577
 5627POPC   C3B71253  16.762  36.314   7.001
 5627POPC   C4B71254  16.448  36.583   7.163
 5628POPC   NC371255   0.160  40.884   5.425
 5628POPC   PO471256   0.795  40.831   5.609
 5628POPC   GL171257   0.638  40.588   5.937
 5628POPC   GL271258   0.286  40.707   5.932
 5628POPC   C1A71259   0.614  40.523   6.379
 5628POPC   D2A71260   0.546  40.794   6.730
 5628POPC   C3A71261   0.658  40.602   7.104
 5628POPC   C4A71262   0.541  40.540   7.525
 5628POPC   C1B71263  44.966  40.958   6.168
 5628POPC   C2B71264  44.884  41.107   6.591
 5628POPC   C3B71265   0.101  40.924   6.942
 5628POPC   C4B71266   0.133  40.560   7.184
 5629POPC   NC371267   1.422  20.671   5.290
 5629POPC   PO471268   0.888  20.405   5.587
 5629POPC   GL171269   0.984  20.627   5.942
 5629POPC   GL271270   1.297  20.742   5.775
 5629POPC   C1A71271   0.929  20.816   6.371
 5629POPC   D2A71272   0.956  20.519   6.695
 5629POPC   C3A71273   1.055  20.483   7.112
 5629POPC   C4A71274   1.512  20.333   7.094
 5629POPC   C1B71275   1.430  20.788   6.197
 5629POPC   C2B71276   1.526  20.759   6.660
 5629POPC   C3B71277   1.421  20.826   7.095
 5629POPC   C4B71278   1.346  21.045   7.469
 5630POPC   NC371279   8.409   4.033   5.370
 5630POPC   PO471280   7.979   4.653   5.355
 5630POPC   GL171281   7.944   4.290   5.674
 5630POPC   GL271282   8.257   4.356   5.756
 5630POPC   C1A71283   7.884   4.175   6.141
 5630POPC   D2A71284   7.980   4.396   6.544
 5630POPC   C3A71285   7.862   4.405   6.981
 5630POPC   C4A71286   8.046   4.653   7.350
 5630POPC   C1B71287   8.392   4.310   6.148
 5630POPC   C2B71288   8.411   4.117   6.514
 5630POPC   C3B71289   8.419   4.292   6.895
 5630POPC   C4B71290   8.236   4.199   7.273
 5631POPC   NC371291  36.431  30.718   5.541
 5631POPC   PO471292  37.036  30.693   5.491
 5631POPC   GL171293  37.005  30.432   5.865
 5631POPC   GL271294  37.333  30.444   5.905
 5631POPC   C1A71295  36.926  30.432   6.333
 5631POPC   D2A71296  36.862  30.728   6.710
 5631POPC   C3A71297  36.682  30.591   7.115
 5631POPC   C4A71298  36.581  30.761   7.545
 5631POPC   C1B71299  37.286  30.796   6.202
 5631POPC   C2B71300  37.312  30.962   6.616
 5631POPC   C3B71301  37.238  30.844   7.060
 5631POPC   C4B71302  37.382  30.574   7.389
 5632POPC   NC371303  11.831  14.753   5.332
 5632POPC   PO471304  12.066  14.187   5.537
 5632POPC   GL171305  12.110  14.464   5.861
 5632POPC   GL271306  11.882  14.718   5.837
 5632POPC   C1A71307  12.112  14.427   6.299
 5632POPC   D2A71308  12.258  14.081   6.497
 5632POPC   C3A71309  12.234  14.133   6.940
 5632POPC   C4A71310  12.141  14.383   7.293
 5632POPC   C1B71311  11.648  14.587   6.166
 5632POPC   C2B71312  11.642  14.495   6.570
 5632POPC   C3B71313  11.821  14.522   6.922
 5632POPC   C4B71314  11.654  14.600   7.310
 5633POPC   NC371315  35.641  23.241   5.183
 5633POPC   PO471316  35.205  22.698   5.255
 5633POPC   GL171317  35.238  22.771   5.723
 5633POPC   GL271318  34.950  22.960   5.779
 5633POPC   C1A71319  35.351  22.975   6.149
 5633POPC   D2A71320  35.563  23.158   6.499
 5633POPC   C3A71321  35.359  23.077   6.887
 5633POPC   C4A71322  35.312  23.032   7.297
 5633POPC   C1B71323  34.901  22.770   6.184
 5633POPC   C2B71324  34.957  23.009   6.562
 5633POPC   C3B71325  34.876  22.918   7.013
 5633POPC   C4B71326  34.973  22.645   7.391
 5634POPC   NC371327  40.287  30.183   5.167
 5634POPC   PO471328  39.727  30.120   5.580
 5634POPC   GL171329  39.877  29.842   5.903
 5634POPC   GL271330  39.935  30.160   6.066
 5634POPC   C1A71331  40.057  29.733   6.317
 5634POPC   D2A71332  39.951  29.575   6.723
 5634POPC   C3A71333  40.160  29.863   7.025
 5634POPC   C4A71334  40.310  30.283   6.879
 5634POPC   C1B71335  39.699  30.115   6.359
 5634POPC   C2B71336  39.798  30.067   6.729
 5634POPC   C3B71337  39.638  30.198   7.061
 5634POPC   C4B71338  39.767  30.097   7.426
 5635POPC   NC371339  25.468  25.908   5.482
 5635POPC   PO471340  25.023  26.316   5.335
 5635POPC   GL171341  25.070  26.086   5.738
 5635POPC   GL271342  24.880  26.260   5.966
 5635POPC   C1A71343  25.312  26.041   6.167
 5635POPC   D2A71344  25.168  25.994   6.626
 5635POPC   C3A71345  25.395  25.978   7.062
 5635POPC   C4A71346  25.590  26.157   7.493
 5635POPC   C1B71347  24.877  25.767   6.094
 5635POPC   C2B71348  24.871  25.478   6.473
 5635POPC   C3B71349  24.919  25.621   6.898
 5635POPC   C4B71350  25.033  25.731   7.325
 5636POPC   NC371351   4.145  26.639   5.551
 5636POPC   PO471352   4.611  27.084   5.351
 5636POPC   GL171353   4.558  26.810   5.805
 5636POPC   GL271354   4.209  26.861   5.997
 5636POPC   C1A71355   4.501  26.506   6.194
 5636POPC   D2A71356   4.187  26.542   6.525
 5636POPC   C3A71357   4.340  26.582   6.926
 5636POPC   C4A71358   4.566  26.646   7.279
 5636POPC   C1B71359   3.930  26.949   6.341
 5636POPC   C2B71360   3.896  26.919   6.793
 5636POPC   C3B71361   4.086  26.931   7.198
 5636POPC   C4B71362   3.986  27.241   7.472
 5637POPC   NC371363  34.820  29.314   5.508
 5637POPC   PO471364  34.400  28.840   5.269
 5637POPC   GL171365  34.345  29.261   5.666
 5637POPC   GL271366  34.355  29.586   5.763
 5637POPC   C1A71367  34.669  29.410   6.107
 5637POPC   D2A71368  34.893  29.190   6.469
 5637POPC   C3A71369  34.568  29.053   6.720
 5637POPC   C4A71370  34.476  28.828   7.084
 5637POPC   C1B71371  34.175  29.369   6.177
 5637POPC   C2B71372  34.092  29.366   6.654
 5637POPC   C3B71373  34.387  29.401   7.038
 5637POPC   C4B71374  34.799  29.194   7.180
 5638POPC   NC371375  40.216  13.386   5.510
 5638POPC   PO471376  39.696  13.627   5.275
 5638POPC   GL171377  39.839  13.634   5.725
 5638POPC   GL271378  40.130  13.829   5.819
 5638POPC   C1A71379  39.969  13.494   6.163
 5638POPC   D2A71380  40.253  13.443   6.532
 5638POPC   C3A71381  40.028  13.537   6.894
 5638POPC   C4A71382  40.199  13.516   7.276
 5638POPC   C1B71383  40.418  13.773   6.183
 5638POPC   C2B71384  40.576  13.862   6.591
 5638POPC   C3B71385  40.413  13.891   6.994
 5638POPC   C4B71386  40.291  14.014   7.447
 5639POPC   NC371387   4.073  38.291   5.548
 5639POPC   PO471388   3.539  38.813   5.602
 5639POPC   GL171389   3.693  38.546   5.866
 5639POPC   GL271390   3.381  38.330   5.898
 5639POPC   C1A71391   3.592  38.585   6.301
 5639POPC   D2A71392   3.306  38.516   6.629
 5639POPC   C3A71393   3.389  38.806   6.943
 5639POPC   C4A71394   3.505  38.687   7.344
 5639POPC   C1B71395   3.715  38.117   6.144
 5639POPC   C2B71396   3.784  38.139   6.608
 5639POPC   C3B71397   3.587  38.303   7.002
 5639POPC   C4B71398   3.436  38.170   7.417
 5640POPC   NC371399  13.055  33.138   5.499
 5640POPC   PO471400  12.338  33.253   5.501
 5640POPC   GL171401  12.678  33.318   5.815
 5640POPC   GL271402  12.695  32.953   5.816
 5640POPC   C1A71403  12.951  33.293   6.212
 5640POPC   D2A71404  13.108  33.148   6.648
 5640POPC   C3A71405  12.906  32.933   7.043
 5640POPC   C4A71406  13.064  32.765   7.478
 5640POPC   C1B71407  12.551  32.987   6.229
 5640POPC   C2B71408  12.579  33.133   6.633
 5640POPC   C3B71409  12.334  33.356   6.901
 5640POPC   C4B71410  12.424  33.352   7.316
 5641POPC   NC371411  33.321   8.476   5.590
 5641POPC   PO471412  32.778   8.584   5.302
 5641POPC   GL171413  32.807   8.460   5.770
 5641POPC   GL271414  32.978   8.110   5.808
 5641POPC   C1A71415  32.927   8.386   6.228
 5641POPC   D2A71416  32.816   8.136   6.588
 5641POPC   C3A71417  32.905   8.357   6.959
 5641POPC   C4A71418  33.120   8.487   7.323
 5641POPC   C1B71419  33.145   7.886   6.203
 5641POPC   C2B71420  33.290   7.904   6.645
 5641POPC   C3B71421  33.080   7.879   7.070
 5641POPC   C4B71422  32.775   8.098   7.370
 5642POPC   NC371423  32.528  30.929   5.140
 5642POPC   PO471424  33.009  30.523   5.268
 5642POPC   GL171425  33.050  30.751   5.680
 5642POPC   GL271426  32.724  30.820   5.844
 5642POPC   C1A71427  33.160  30.711   6.132
 5642POPC   D2A71428  32.981  30.858   6.526
 5642POPC   C3A71429  33.173  30.853   6.893
 5642POPC   C4A71430  33.132  30.538   7.184
 5642POPC   C1B71431  32.664  30.585   6.247
 5642POPC   C2B71432  32.716  30.260   6.611
 5642POPC   C3B71433  32.686  30.316   7.070
 5642POPC   C4B71434  32.649  30.745   7.032
 5643POPC   NC371435  13.313  15.362   5.552
 5643POPC   PO471436  13.620  14.774   5.461
 5643POPC   GL171437  13.655  15.055   5.786
 5643POPC   GL271438  13.835  14.872   5.970
 5643POPC   C1A71439  13.547  15.274   6.203
 5643POPC   D2A71440  13.748  15.366   6.626
 5643POPC   C3A71441  13.497  15.281   7.004
 5643POPC   C4A71442  13.396  15.382   7.441
 5643POPC   C1B71443  13.407  14.778   6.143
 5643POPC   C2B71444  13.378  14.942   6.562
 5643POPC   C3B71445  13.337  14.781   6.937
 5643POPC   C4B71446  13.536  14.880   7.325
 5644POPC   NC371447   5.336  34.710   5.430
 5644POPC   PO471448   4.894  34.249   5.392
 5644POPC   GL171449   5.175  34.352   5.742
 5644POPC   GL271450   5.073  34.681   5.863
 5644POPC   C1A71451   5.314  34.372   6.191
 5644POPC   D2A71452   5.247  34.621   6.600
 5644POPC   C3A71453   5.223  34.399   7.009
 5644POPC   C4A71454   4.856  34.217   7.238
 5644POPC   C1B71455   5.337  34.939   6.164
 5644POPC   C2B71456   5.249  35.147   6.593
 5644POPC   C3B71457   5.334  34.995   7.025
 5644POPC   C4B71458   5.226  34.754   7.404
 5645POPC   NC371459  35.933  29.938   5.360
 5645POPC   PO471460  36.424  29.427   5.473
 5645POPC   GL171461  36.217  29.678   5.782
 5645POPC   GL271462  36.073  29.982   5.841
 5645POPC   C1A71463  36.206  29.598   6.201
 5645POPC   D2A71464  36.297  29.477   6.625
 5645POPC   C3A71465  36.251  29.793   6.905
 5645POPC   C4A71466  36.123  29.840   7.295
 5645POPC   C1B71467  35.810  30.167   6.160
 5645POPC   C2B71468  35.870  30.269   6.589
 5645POPC   C3B71469  36.036  30.283   6.996
 5645POPC   C4B71470  35.825  30.239   7.385
 5646POPC   NC371471  33.383  10.950   5.663
 5646POPC   PO471472  32.976  10.660   5.231
 5646POPC   GL171473  32.851  10.601   5.709
 5646POPC   GL271474  33.125  10.652   5.976
 5646POPC   C1A71475  32.729  10.360   6.067
 5646POPC   D2A71476  32.905  10.494   6.449
 5646POPC   C3A71477  32.823  10.548   6.884
 5646POPC   C4A71478  32.729  10.310   7.235
 5646POPC   C1B71479  33.308  10.781   6.395
 5646POPC   C2B71480  33.319  10.504   6.768
 5646POPC   C3B71481  33.240  10.427   7.205
 5646POPC   C4B71482  33.399  10.708   7.549
 5647POPC   NC371483   1.024   2.120   5.405
 5647POPC   PO471484   1.110   2.847   5.286
 5647POPC   GL171485   1.213   2.725   5.705
 5647POPC   GL271486   1.307   2.369   5.741
 5647POPC   C1A71487   1.330   2.902   6.113
 5647POPC   D2A71488   1.371   2.713   6.511
 5647POPC   C3A71489   1.287   2.965   6.843
 5647POPC   C4A71490   1.334   2.934   7.218
 5647POPC   C1B71491   1.117   2.416   6.160
 5647POPC   C2B71492   0.923   2.465   6.566
 5647POPC   C3B71493   1.131   2.488   6.951
 5647POPC   C4B71494   0.997   2.581   7.362
 5648POPC   NC371495   8.234  35.526   5.442
 5648POPC   PO471496   7.769  35.077   5.508
 5648POPC   GL171497   7.874  35.325   5.857
 5648POPC   GL271498   8.207  35.306   5.888
 5648POPC   C1A71499   7.948  35.519   6.289
 5648POPC   D2A71500   8.154  35.584   6.705
 5648POPC   C3A71501   8.005  35.613   7.137
 5648POPC   C4A71502   7.792  35.438   7.500
 5648POPC   C1B71503   8.547  35.084   6.082
 5648POPC   C2B71504   8.477  35.041   6.519
 5648POPC   C3B71505   8.592  34.794   6.867
 5648POPC   C4B71506   8.645  35.025   7.209
 5649POPC   NC371507  22.074  34.510   5.379
 5649POPC   PO471508  22.686  34.864   5.450
 5649POPC   GL171509  22.430  34.819   5.804
 5649POPC   GL271510  22.372  34.467   5.816
 5649POPC   C1A71511  22.116  34.763   6.150
 5649POPC   D2A71512  22.203  34.716   6.594
 5649POPC   C3A71513  21.971  34.892   6.928
 5649POPC   C4A71514  22.138  34.807   7.315
 5649POPC   C1B71515  21.965  34.294   6.011
 5649POPC   C2B71516  21.923  34.305   6.464
 5649POPC   C3B71517  21.959  34.355   6.916
 5649POPC   C4B71518  21.663  34.410   7.251
 5650POPC   NC371519   9.377  31.066   5.462
 5650POPC   PO471520   8.787  30.614   5.377
 5650POPC   GL171521   8.898  30.577   5.785
 5650POPC   GL271522   8.965  30.918   5.767
 5650POPC   C1A71523   9.115  30.644   6.196
 5650POPC   D2A71524   9.058  30.482   6.582
 5650POPC   C3A71525   9.095  30.632   6.983
 5650POPC   C4A71526   8.707  30.639   7.212
 5650POPC   C1B71527   8.688  30.891   6.136
 5650POPC   C2B71528   8.767  30.934   6.582
 5650POPC   C3B71529   8.657  31.123   6.992
 5650POPC   C4B71530   8.630  31.109   7.441
 5651POPC   NC371531  40.196   5.459   5.259
 5651POPC   PO471532  39.880   4.855   5.456
 5651POPC   GL171533  39.861   5.191   5.724
 5651POPC   GL271534  40.218   5.205   5.762
 5651POPC   C1A71535  39.893   5.159   6.160
 5651POPC   D2A71536  39.833   4.822   6.445
 5651POPC   C3A71537  39.828   4.915   6.919
 5651POPC   C4A71538  39.840   5.234   7.299
 5651POPC   C1B71539  40.387   5.016   6.173
 5651POPC   C2B71540  40.287   4.962   6.615
 5651POPC   C3B71541  40.229   5.221   6.983
 5651POPC   C4B71542  40.388   5.073   7.378
 5652POPC   NC371543  14.687  27.295   5.169
 5652POPC   PO471544  14.249  26.824   5.241
 5652POPC   GL171545  14.269  26.841   5.759
 5652POPC   GL271546  14.108  27.091   5.912
 5652POPC   C1A71547  14.412  26.811   6.236
 5652POPC   D2A71548  14.363  26.484   6.589
 5652POPC   C3A71549  14.351  26.605   7.046
 5652POPC   C4A71550  14.188  26.426   7.478
 5652POPC   C1B71551  14.212  27.265   6.313
 5652POPC   C2B71552  14.465  27.090   6.661
 5652POPC   C3B71553  14.241  27.107   7.019
 5652POPC   C4B71554  14.352  27.129   7.419
 5653POPC   NC371555   2.054  18.796   5.397
 5653POPC   PO471556   1.790  18.308   5.020
 5653POPC   GL171557   1.952  18.330   5.581
 5653POPC   GL271558   1.904  18.658   5.847
 5653POPC   C1A71559   1.975  18.226   6.066
 5653POPC   D2A71560   1.866  18.488   6.453
 5653POPC   C3A71561   1.985  18.393   6.895
 5653POPC   C4A71562   1.760  18.126   7.200
 5653POPC   C1B71563   2.282  18.632   6.134
 5653POPC   C2B71564   2.309  18.724   6.597
 5653POPC   C3B71565   2.436  18.659   7.029
 5653POPC   C4B71566   2.261  18.634   7.426
 5654POPC   NC371567  41.814  32.155   5.302
 5654POPC   PO471568  41.236  32.532   5.171
 5654POPC   GL171569  41.344  32.484   5.659
 5654POPC   GL271570  41.710  32.405   5.737
 5654POPC   C1A71571  41.370  32.219   6.083
 5654POPC   D2A71572  41.583  32.133   6.489
 5654POPC   C3A71573  41.570  32.354   6.882
 5654POPC   C4A71574  41.333  32.262   7.253
 5654POPC   C1B71575  41.954  32.212   6.107
 5654POPC   C2B71576  42.082  32.117   6.559
 5654POPC   C3B71577  42.013  32.033   7.007
 5654POPC   C4B71578  41.810  32.193   7.375
 5655POPC   NC371579  44.116  30.742   5.422
 5655POPC   PO471580  43.633  30.371   5.215
 5655POPC   GL171581  43.630  30.500   5.723
 5655POPC   GL271582  43.913  30.723   5.871
 5655POPC   C1A71583  43.686  30.463   6.215
 5655POPC   D2A71584  43.471  30.665   6.561
 5655POPC   C3A71585  43.713  30.633   6.925
 5655POPC   C4A71586  43.979  30.310   7.021
 5655POPC   C1B71587  44.234  30.974   6.114
 5655POPC   C2B71588  44.243  31.131   6.551
 5655POPC   C3B71589  44.038  31.078   6.922
 5655POPC   C4B71590  43.871  30.944   7.285
 5656POPC   NC371591  12.877  43.546   5.460
 5656POPC   PO471592  13.345  43.059   5.405
 5656POPC   GL171593  12.999  43.033   5.750
 5656POPC   GL271594  12.973  43.354   5.909
 5656POPC   C1A71595  13.000  42.919   6.241
 5656POPC   D2A71596  13.238  42.909   6.676
 5656POPC   C3A71597  13.047  42.978   7.134
 5656POPC   C4A71598  13.296  42.983   7.591
 5656POPC   C1B71599  12.741  43.368   6.268
 5656POPC   C2B71600  12.799  43.212   6.677
 5656POPC   C3B71601  12.774  43.409   7.082
 5656POPC   C4B71602  12.487  43.297   7.431
 5657POPC   NC371603  11.869  17.021   5.436
 5657POPC   PO471604  12.134  17.503   5.229
 5657POPC   GL171605  12.180  17.405   5.691
 5657POPC   GL271606  11.832  17.409   5.799
 5657POPC   C1A71607  12.173  17.273   6.177
 5657POPC   D2A71608  12.244  17.415   6.649
 5657POPC   C3A71609  12.253  17.170   7.082
 5657POPC   C4A71610  12.183  17.170   7.544
 5657POPC   C1B71611  12.030  17.756   6.066
 5657POPC   C2B71612  12.141  17.916   6.506
 5657POPC   C3B71613  12.284  17.849   6.957
 5657POPC   C4B71614  12.237  17.637   7.366
 5658POPC   NC371615  24.365  13.347   5.487
 5658POPC   PO471616  24.663  13.955   5.635
 5658POPC   GL171617  24.550  13.648   5.909
 5658POPC   GL271618  24.200  13.678   5.846
 5658POPC   C1A71619  24.717  13.528   6.318
 5658POPC   D2A71620  24.480  13.447   6.678
 5658POPC   C3A71621  24.526  13.567   7.112
 5658POPC   C4A71622  24.722  13.606   7.537
 5658POPC   C1B71623  24.161  13.621   6.290
 5658POPC   C2B71624  24.126  13.922   6.617
 5658POPC   C3B71625  24.205  13.994   7.033
 5658POPC   C4B71626  24.077  13.743   7.361
 5659POPC   NC371627   8.584   4.776   5.711
 5659POPC   PO471628   9.199   4.966   5.482
 5659POPC   GL171629   9.066   4.866   5.890
 5659POPC   GL271630   8.815   5.109   6.018
 5659POPC   C1A71631   9.051   4.764   6.342
 5659POPC   D2A71632   8.989   4.835   6.782
 5659POPC   C3A71633   9.059   5.276   6.923
 5659POPC   C4A71634   9.229   5.458   7.289
 5659POPC   C1B71635   8.410   5.182   6.277
 5659POPC   C2B71636   8.427   5.334   6.734
 5659POPC   C3B71637   8.610   5.044   7.047
 5659POPC   C4B71638   8.570   4.647   7.238
 5660POPC   NC371639  38.513  42.674   5.374
 5660POPC   PO471640  38.281  43.286   5.471
 5660POPC   GL171641  38.335  43.029   5.868
 5660POPC   GL271642  38.561  42.731   5.878
 5660POPC   C1A71643  38.410  43.028   6.319
 5660POPC   D2A71644  38.194  43.096   6.709
 5660POPC   C3A71645  38.493  43.093   7.044
 5660POPC   C4A71646  38.496  43.346   7.409
 5660POPC   C1B71647  38.246  42.544   6.187
 5660POPC   C2B71648  38.306  42.582   6.643
 5660POPC   C3B71649  38.148  42.687   7.055
 5660POPC   C4B71650  38.199  42.684   7.494
 5661POPC   NC371651  39.495  21.981   5.498
 5661POPC   PO471652  39.057  22.555   5.337
 5661POPC   GL171653  39.119  22.344   5.772
 5661POPC   GL271654  38.879  22.528   5.961
 5661POPC   C1A71655  39.237  22.028   6.171
 5661POPC   D2A71656  39.256  21.799   6.628
 5661POPC   C3A71657  39.492  21.938   7.043
 5661POPC   C4A71658  39.422  22.026   7.540
 5661POPC   C1B71659  39.070  22.457   6.382
 5661POPC   C2B71660  39.010  22.231   6.804
 5661POPC   C3B71661  39.164  22.328   7.245
 5661POPC   C4B71662  39.164  22.745   7.470
 5662POPC   NC371663  34.867  34.166   5.241
 5662POPC   PO471664  34.295  34.491   5.535
 5662POPC   GL171665  34.581  34.656   5.839
 5662POPC   GL271666  34.639  34.329   5.912
 5662POPC   C1A71667  34.644  34.811   6.279
 5662POPC   D2A71668  34.871  34.849   6.693
 5662POPC   C3A71669  34.650  34.594   6.985
 5662POPC   C4A71670  34.433  34.608   7.353
 5662POPC   C1B71671  34.285  34.389   6.230
 5662POPC   C2B71672  34.239  34.322   6.695
 5662POPC   C3B71673  34.005  34.445   7.062
 5662POPC   C4B71674  33.961  34.518   7.519
 5663POPC   NC371675  19.007   1.495   5.159
 5663POPC   PO471676  18.392   1.547   5.412
 5663POPC   GL171677  18.284   1.270   5.795
 5663POPC   GL271678  18.593   1.146   5.871
 5663POPC   C1A71679  18.221   1.113   6.232
 5663POPC   D2A71680  18.320   1.312   6.645
 5663POPC   C3A71681  18.324   1.216   7.082
 5663POPC   C4A71682  18.334   1.189   7.557
 5663POPC   C1B71683  18.636   1.412   6.239
 5663POPC   C2B71684  18.651   1.742   6.547
 5663POPC   C3B71685  18.587   1.684   6.979
 5663POPC   C4B71686  18.712   1.443   7.347
 5664POPC   NC371687   5.746  44.571   5.342
 5664POPC   PO471688   6.372  44.430   5.471
 5664POPC   GL171689   6.058  44.615   5.766
 5664POPC   GL271690   5.728  44.468   5.865
 5664POPC   C1A71691   5.982  44.791   6.179
 5664POPC   D2A71692   5.996  44.667   6.607
 5664POPC   C3A71693   6.333  44.865   6.818
 5664POPC   C4A71694   6.256  44.914   7.233
 5664POPC   C1B71695   5.449  44.765   6.127
 5664POPC   C2B71696   5.384  44.894   6.570
 5664POPC   C3B71697   5.535  44.658   6.887
 5664POPC   C4B71698   5.830  44.606   7.207
 5665POPC   NC371699  11.345  31.681   5.433
 5665POPC   PO471700  10.914  31.145   5.508
 5665POPC   GL171701  11.230  31.355   5.812
 5665POPC   GL271702  11.190  31.748   5.898
 5665POPC   C1A71703  11.429  31.337   6.214
 5665POPC   D2A71704  11.198  31.210   6.585
 5665POPC   C3A71705  11.439  31.229   6.955
 5665POPC   C4A71706  11.395  31.449   7.292
 5665POPC   C1B71707  11.306  31.827   6.299
 5665POPC   C2B71708  11.426  31.672   6.678
 5665POPC   C3B71709  11.247  31.876   7.031
 5665POPC   C4B71710  11.027  31.801   7.392
 5666POPC   NC371711  18.016  25.880   5.392
 5666POPC   PO471712  18.510  26.201   5.163
 5666POPC   GL171713  18.423  26.139   5.655
 5666POPC   GL271714  18.132  26.030   5.848
 5666POPC   C1A71715  18.539  26.067   6.125
 5666POPC   D2A71716  18.338  25.936   6.517
 5666POPC   C3A71717  18.418  26.192   6.876
 5666POPC   C4A71718  18.486  26.076   7.302
 5666POPC   C1B71719  17.946  25.784   6.186
 5666POPC   C2B71720  17.851  25.727   6.659
 5666POPC   C3B71721  18.024  25.903   7.081
 5666POPC   C4B71722  18.031  26.052   7.534
 5667POPC   NC371723  41.175  27.778   5.034
 5667POPC   PO471724  41.696  27.372   5.318
 5667POPC   GL171725  41.648  27.722   5.698
 5667POPC   GL271726  41.281  27.822   5.681
 5667POPC   C1A71727  41.501  27.699   6.199
 5667POPC   D2A71728  41.545  27.777   6.691
 5667POPC   C3A71729  41.552  27.619   7.171
 5667POPC   C4A71730  41.666  27.321   7.564
 5667POPC   C1B71731  41.011  27.804   6.078
 5667POPC   C2B71732  41.041  27.608   6.506
 5667POPC   C3B71733  41.066  27.644   6.975
 5667POPC   C4B71734  41.077  27.512   7.428
 5668POPC   NC371735  18.334  26.564   5.394
 5668POPC   PO471736  18.059  27.227   5.351
 5668POPC   GL171737  18.050  26.936   5.735
 5668POPC   GL271738  18.111  26.557   5.848
 5668POPC   C1A71739  17.928  26.902   6.182
 5668POPC   D2A71740  17.961  26.704   6.574
 5668POPC   C3A71741  18.040  26.917   6.955
 5668POPC   C4A71742  17.791  26.938   7.310
 5668POPC   C1B71743  18.386  26.583   6.223
 5668POPC   C2B71744  18.485  26.780   6.638
 5668POPC   C3B71745  18.481  26.671   7.059
 5668POPC   C4B71746  18.132  26.457   7.213
 5669POPC   NC371747  16.662  11.909   5.397
 5669POPC   PO471748  17.273  11.617   5.604
 5669POPC   GL171749  17.008  11.965   5.844
 5669POPC   GL271750  16.700  12.194   5.822
 5669POPC   C1A71751  16.821  12.039   6.280
 5669POPC   D2A71752  16.418  11.918   6.507
 5669POPC   C3A71753  16.578  11.897   6.941
 5669POPC   C4A71754  16.924  12.015   7.248
 5669POPC   C1B71755  16.436  12.347   6.170
 5669POPC   C2B71756  16.582  12.404   6.605
 5669POPC   C3B71757  16.586  12.376   7.084
 5669POPC   C4B71758  16.802  12.507   7.460
 5670POPC   NC371759  12.836  29.385   5.441
 5670POPC   PO471760  13.130  28.767   5.497
 5670POPC   GL171761  12.989  29.073   5.797
 5670POPC   GL271762  12.647  28.995   5.734
 5670POPC   C1A71763  13.051  29.305   6.184
 5670POPC   D2A71764  13.097  29.002   6.500
 5670POPC   C3A71765  13.163  29.075   6.918
 5670POPC   C4A71766  13.103  28.845   7.318
 5670POPC   C1B71767  12.639  29.013   6.187
 5670POPC   C2B71768  12.622  28.855   6.618
 5670POPC   C3B71769  12.684  29.010   7.043
 5670POPC   C4B71770  12.435  29.233   7.301
 5671POPC   NC371771  23.729  14.935   5.428
 5671POPC   PO471772  23.445  15.492   5.570
 5671POPC   GL171773  23.597  15.346   5.940
 5671POPC   GL271774  23.879  15.119   5.877
 5671POPC   C1A71775  23.609  15.076   6.309
 5671POPC   D2A71776  23.388  14.985   6.687
 5671POPC   C3A71777  23.613  15.204   6.994
 5671POPC   C4A71778  23.655  15.086   7.404
 5671POPC   C1B71779  24.022  15.424   6.191
 5671POPC   C2B71780  23.968  15.316   6.625
 5671POPC   C3B71781  24.199  15.324   6.991
 5671POPC   C4B71782  24.089  15.324   7.419
 5672POPC   NC371783   5.678  26.891   5.313
 5672POPC   PO471784   6.041  26.318   5.415
 5672POPC   GL171785   5.785  26.557   5.738
 5672POPC   GL271786   5.830  26.943   5.789
 5672POPC   C1A71787   5.898  26.659   6.196
 5672POPC   D2A71788   6.115  26.547   6.567
 5672POPC   C3A71789   5.933  26.672   6.925
 5672POPC   C4A71790   6.063  26.620   7.338
 5672POPC   C1B71791   5.561  27.070   6.125
 5672POPC   C2B71792   5.691  27.007   6.537
 5672POPC   C3B71793   5.564  27.005   6.958
 5672POPC   C4B71794   5.962  27.093   7.197
 5673POPC   NC371795  25.778  13.626   5.367
 5673POPC   PO471796  26.481  13.536   5.416
 5673POPC   GL171797  26.170  13.506   5.745
 5673POPC   GL271798  25.922  13.776   5.840
 5673POPC   C1A71799  26.194  13.483   6.202
 5673POPC   D2A71800  26.257  13.712   6.574
 5673POPC   C3A71801  26.186  13.530   6.958
 5673POPC   C4A71802  25.991  13.706   7.331
 5673POPC   C1B71803  25.689  13.502   6.168
 5673POPC   C2B71804  25.814  13.397   6.616
 5673POPC   C3B71805  25.594  13.511   7.036
 5673POPC   C4B71806  25.589  13.438   7.529
 5674POPC   NC371807  39.402  42.044   5.245
 5674POPC   PO471808  38.923  42.496   5.484
 5674POPC   GL171809  39.088  42.503   5.843
 5674POPC   GL271810  39.319  42.231   5.757
 5674POPC   C1A71811  39.390  42.620   6.129
 5674POPC   D2A71812  39.193  42.548   6.475
 5674POPC   C3A71813  39.231  42.660   6.880
 5674POPC   C4A71814  39.557  42.472   7.111
 5674POPC   C1B71815  39.112  42.101   6.158
 5674POPC   C2B71816  39.313  42.067   6.556
 5674POPC   C3B71817  39.176  42.147   6.965
 5674POPC   C4B71818  38.985  41.833   7.219
 5675POPC   NC371819  44.845  25.588   5.442
 5675POPC   PO471820  44.463  24.969   5.430
 5675POPC   GL171821  44.625  25.190   5.781
 5675POPC   GL271822  44.375  25.422   5.678
 5675POPC   C1A71823  44.874  25.339   6.178
 5675POPC   D2A71824  44.929  25.534   6.608
 5675POPC   C3A71825  44.922  25.220   6.961
 5675POPC   C4A71826  44.648  25.162   7.315
 5675POPC   C1B71827  44.328  25.366   6.151
 5675POPC   C2B71828  44.519  25.215   6.555
 5675POPC   C3B71829  44.296  25.204   6.957
 5675POPC   C4B71830  44.164  25.351   7.352
 5676POPC   NC371831  37.902  13.570   5.279
 5676POPC   PO471832  37.275  13.771   5.256
 5676POPC   GL171833  37.561  13.750   5.622
 5676POPC   GL271834  37.737  14.008   5.696
 5676POPC   C1A71835  37.671  13.540   6.044
 5676POPC   D2A71836  37.562  13.375   6.470
 5676POPC   C3A71837  37.781  13.409   6.860
 5676POPC   C4A71838  37.736  13.300   7.276
 5676POPC   C1B71839  37.541  14.036   6.140
 5676POPC   C2B71840  37.432  13.915   6.581
 5676POPC   C3B71841  37.604  13.866   6.994
 5676POPC   C4B71842  37.521  13.739   7.421
 5677POPC   NC371843   1.641   1.637   5.256
 5677POPC   PO471844   0.948   1.655   5.563
 5677POPC   GL171845   1.051   1.890   5.899
 5677POPC   GL271846   1.373   1.835   5.778
 5677POPC   C1A71847   0.879   1.978   6.329
 5677POPC   D2A71848   0.904   1.833   6.764
 5677POPC   C3A71849   0.988   2.048   7.131
 5677POPC   C4A71850   1.101   1.896   7.508
 5677POPC   C1B71851   1.453   1.993   6.191
 5677POPC   C2B71852   1.324   2.152   6.577
 5677POPC   C3B71853   1.485   2.076   6.967
 5677POPC   C4B71854   1.396   2.263   7.351
 5678POPC   NC371855  33.774  27.012   5.241
 5678POPC   PO471856  33.778  26.376   5.478
 5678POPC   GL171857  33.629  26.735   5.687
 5678POPC   GL271858  33.918  26.801   5.830
 5678POPC   C1A71859  33.540  26.668   6.141
 5678POPC   D2A71860  33.633  26.816   6.546
 5678POPC   C3A71861  33.863  26.659   6.916
 5678POPC   C4A71862  33.841  26.877   7.321
 5678POPC   C1B71863  34.078  26.874   6.252
 5678POPC   C2B71864  34.096  27.121   6.640
 5678POPC   C3B71865  34.269  27.032   7.029
 5678POPC   C4B71866  34.293  27.026   7.495
 5679POPC   NC371867  13.516  44.989   5.535
 5679POPC   PO471868  13.976  44.562   5.338
 5679POPC   GL171869  13.835  44.618   5.739
 5679POPC   GL271870  13.481  44.545   5.804
 5679POPC   C1A71871  13.854  44.467   6.158
 5679POPC   D2A71872  13.567  44.418   6.486
 5679POPC   C3A71873  13.628  44.686   6.846
 5679POPC   C4A71874  13.818  44.511   7.213
 5679POPC   C1B71875  13.477  44.831   6.186
 5679POPC   C2B71876  13.205  44.783   6.557
 5679POPC   C3B71877  13.114  44.879   6.990
 5679POPC   C4B71878  13.423  44.823   7.303
 5680POPC   NC371879   8.597   1.840   5.648
 5680POPC   PO471880   8.109   1.872   5.240
 5680POPC   GL171881   8.063   1.931   5.738
 5680POPC   GL271882   8.325   2.149   5.949
 5680POPC   C1A71883   7.898   2.059   6.183
 5680POPC   D2A71884   8.116   2.195   6.539
 5680POPC   C3A71885   7.896   2.108   6.893
 5680POPC   C4A71886   8.055   2.041   7.239
 5680POPC   C1B71887   8.291   1.733   6.218
 5680POPC   C2B71888   8.118   1.682   6.619
 5680POPC   C3B71889   8.253   1.639   7.017
 5680POPC   C4B71890   8.543   1.945   7.146
 5681POPC   NC371891  34.919   1.849   5.513
 5681POPC   PO471892  34.299   2.089   5.435
 5681POPC   GL171893  34.528   2.044   5.797
 5681POPC   GL271894  34.419   1.738   5.847
 5681POPC   C1A71895  34.619   2.176   6.212
 5681POPC   D2A71896  34.659   1.978   6.606
 5681POPC   C3A71897  34.666   2.216   6.987
 5681POPC   C4A71898  34.233   2.320   7.048
 5681POPC   C1B71899  34.784   1.689   6.152
 5681POPC   C2B71900  35.046   1.639   6.552
 5681POPC   C3B71901  34.909   1.742   6.980
 5681POPC   C4B71902  35.176   1.621   7.287
 5682POPC   NC371903  26.189  15.683   5.514
 5682POPC   PO471904  26.315  16.324   5.249
 5682POPC   GL171905  26.180  16.216   5.736
 5682POPC   GL271906  25.957  15.926   5.867
 5682POPC   C1A71907  26.010  16.252   6.225
 5682POPC   D2A71908  25.742  16.230   6.618
 5682POPC   C3A71909  25.907  16.165   7.052
 5682POPC   C4A71910  25.923  15.975   7.490
 5682POPC   C1B71911  25.779  15.676   6.227
 5682POPC   C2B71912  25.623  15.682   6.685
 5682POPC   C3B71913  25.843  15.646   7.083
 5682POPC   C4B71914  26.304  15.571   7.167
 5683POPC   NC371915  44.804   6.421   5.429
 5683POPC   PO471916  44.540   6.981   5.635
 5683POPC   GL171917  44.504   6.640   5.880
 5683POPC   GL271918  44.835   6.600   5.922
 5683POPC   C1A71919  44.543   6.779   6.335
 5683POPC   D2A71920  44.388   6.877   6.750
 5683POPC   C3A71921  44.700   6.714   7.037
 5683POPC   C4A71922   0.108   6.934   7.078
 5683POPC   C1B71923  44.693   6.314   6.245
 5683POPC   C2B71924  44.691   6.105   6.642
 5683POPC   C3B71925  44.550   6.189   7.076
 5683POPC   C4B71926  44.761   6.155   7.497
 5684POPC   NC371927  10.354   6.975   5.432
 5684POPC   PO471928  10.629   6.422   5.321
 5684POPC   GL171929  10.552   6.691   5.786
 5684POPC   GL271930  10.873   6.698   5.910
 5684POPC   C1A71931  10.343   6.673   6.222
 5684POPC   D2A71932  10.163   6.723   6.664
 5684POPC   C3A71933  10.362   6.404   6.964
 5684POPC   C4A71934  10.763   6.318   7.193
 5684POPC   C1B71935  10.738   7.039   6.215
 5684POPC   C2B71936  10.795   7.102   6.671
 5684POPC   C3B71937  10.526   6.899   6.974
 5684POPC   C4B71938  10.156   7.012   7.138
 5685POPC   NC371939  21.721   6.149   5.739
 5685POPC   PO471940  22.133   5.741   5.338
 5685POPC   GL171941  22.058   5.718   5.750
 5685POPC   GL271942  22.119   5.379   5.845
 5685POPC   C1A71943  22.264   5.883   6.115
 5685POPC   D2A71944  22.348   5.825   6.541
 5685POPC   C3A71945  22.028   5.947   6.844
 5685POPC   C4A71946  22.212   6.058   7.232
 5685POPC   C1B71947  21.947   5.407   6.268
 5685POPC   C2B71948  22.120   5.393   6.705
 5685POPC   C3B71949  22.137   5.523   7.114
 5685POPC   C4B71950  21.705   5.615   7.121
 5686POPC   NC371951  26.063  28.352   5.137
 5686POPC   PO471952  26.452  28.806   5.496
 5686POPC   GL171953  26.178  28.571   5.856
 5686POPC   GL271954  25.796  28.617   5.937
 5686POPC   C1A71955  26.021  28.164   6.094
 5686POPC   D2A71956  25.950  27.963   6.533
 5686POPC   C3A71957  26.263  28.098   6.880
 5686POPC   C4A71958  26.291  28.434   7.218
 5686POPC   C1B71959  25.547  28.368   6.260
 5686POPC   C2B71960  25.533  28.229   6.716
 5686POPC   C3B71961  25.789  28.170   7.078
 5686POPC   C4B71962  25.810  28.475   7.376
 5687POPC   NC371963  33.658  14.687   5.459
 5687POPC   PO471964  34.212  14.330   5.439
 5687POPC   GL171965  33.933  14.301   5.766
 5687POPC   GL271966  33.596  14.242   5.700
 5687POPC   C1A71967  33.927  14.489   6.147
 5687POPC   D2A71968  33.881  14.597   6.542
 5687POPC   C3A71969  33.821  14.258   6.794
 5687POPC   C4A71970  33.977  14.387   7.163
 5687POPC   C1B71971  33.430  14.489   6.060
 5687POPC   C2B71972  33.393  14.426   6.502
 5687POPC   C3B71973  33.463  14.660   6.893
 5687POPC   C4B71974  33.643  14.718   7.316
 5688POPC   NC371975  23.373  38.217   5.439
 5688POPC   PO471976  24.028  38.226   5.684
 5688POPC   GL171977  23.821  38.527   5.938
 5688POPC   GL271978  23.505  38.589   5.775
 5688POPC   C1A71979  23.742  38.544   6.396
 5688POPC   D2A71980  23.811  38.243   6.712
 5688POPC   C3A71981  23.602  38.233   7.118
 5688POPC   C4A71982  23.790  38.363   7.529
 5688POPC   C1B71983  23.342  38.716   6.150
 5688POPC   C2B71984  23.349  38.819   6.582
 5688POPC   C3B71985  23.374  38.677   6.997
 5688POPC   C4B71986  23.452  38.814   7.438
 5689POPC   NC371987   5.617  43.014   5.536
 5689POPC   PO471988   6.293  43.051   5.384
 5689POPC   GL171989   6.055  43.275   5.722
 5689POPC   GL271990   5.977  42.991   5.908
 5689POPC   C1A71991   5.860  43.464   6.132
 5689POPC   D2A71992   6.073  43.474   6.567
 5689POPC   C3A71993   5.849  43.407   6.968
 5689POPC   C4A71994   6.035  43.262   7.370
 5689POPC   C1B71995   6.045  43.017   6.315
 5689POPC   C2B71996   5.889  42.958   6.707
 5689POPC   C3B71997   5.932  42.824   7.107
 5689POPC   C4B71998   5.713  42.516   7.276
 5690POPC   NC371999  13.421  24.962   5.400
 5690POPC   PO472000  13.802  25.447   5.610
 5690POPC   GL172001  13.612  25.081   5.872
 5690POPC   GL272002  13.240  25.095   5.900
 5690POPC   C1A72003  13.587  25.128   6.316
 5690POPC   D2A72004  13.612  25.492   6.582
 5690POPC   C3A72005  13.525  25.392   6.984
 5690POPC   C4A72006  13.757  25.245   7.268
 5690POPC   C1B72007  13.137  24.899   6.300
 5690POPC   C2B72008  13.235  25.090   6.696
 5690POPC   C3B72009  13.431  24.902   7.043
 5690POPC   C4B72010  13.392  24.981   7.509
 5691POPC   NC372011  18.239   7.265   5.430
 5691POPC   PO472012  18.821   6.997   5.534
 5691POPC   GL172013  18.479   7.251   5.869
 5691POPC   GL272014  18.054   7.295   5.903
 5691POPC   C1A72015  18.367   7.385   6.303
 5691POPC   D2A72016  18.370   7.160   6.693
 5691POPC   C3A72017  18.400   7.282   7.152
 5691POPC   C4A72018  18.598   7.326   7.576
 5691POPC   C1B72019  17.900   7.119   6.328
 5691POPC   C2B72020  17.885   7.062   6.796
 5691POPC   C3B72021  17.884   7.312   7.178
 5691POPC   C4B72022  18.071   7.222   7.595
 5692POPC   NC372023  32.155  17.679   5.378
 5692POPC   PO472024  31.878  17.190   5.640
 5692POPC   GL172025  32.134  17.489   5.867
 5692POPC   GL272026  32.213  17.862   5.940
 5692POPC   C1A72027  32.294  17.478   6.253
 5692POPC   D2A72028  32.262  17.633   6.647
 5692POPC   C3A72029  32.434  17.423   7.016
 5692POPC   C4A72030  32.141  17.216   7.289
 5692POPC   C1B72031  32.590  17.896   6.270
 5692POPC   C2B72032  32.658  17.930   6.759
 5692POPC   C3B72033  32.312  17.943   7.052
 5692POPC   C4B72034  32.106  17.712   7.341
 5693POPC   NC372035  33.679  10.051   5.385
 5693POPC   PO472036  34.124   9.546   5.404
 5693POPC   GL172037  33.853   9.703   5.746
 5693POPC   GL272038  33.732  10.031   5.889
 5693POPC   C1A72039  33.953   9.638   6.169
 5693POPC   D2A72040  33.770   9.492   6.518
 5693POPC   C3A72041  33.961   9.680   6.893
 5693POPC   C4A72042  34.027   9.948   7.241
 5693POPC   C1B72043  33.449   9.725   6.096
 5693POPC   C2B72044  33.270   9.594   6.482
 5693POPC   C3B72045  33.433   9.650   6.916
 5693POPC   C4B72046  33.472   9.951   7.257
 5694POPC   NC372047  19.788   0.189   5.333
 5694POPC   PO472048  20.102   0.756   5.542
 5694POPC   GL172049  19.959   0.386   5.836
 5694POPC   GL272050  19.597   0.380   5.802
 5694POPC   C1A72051  20.083   0.171   6.268
 5694POPC   D2A72052  19.935   0.191   6.715
 5694POPC   C3A72053  19.859   0.631   6.880
 5694POPC   C4A72054  20.096   0.780   7.237
 5694POPC   C1B72055  19.624   0.391   6.250
 5694POPC   C2B72056  19.461   0.384   6.642
 5694POPC   C3B72057  19.474   0.327   7.050
 5694POPC   C4B72058  19.609   0.602   7.345
 5695POPC   NC372059  10.499  32.214   5.403
 5695POPC   PO472060  11.123  32.093   5.434
 5695POPC   GL172061  10.774  32.041   5.792
 5695POPC   GL272062  10.359  32.108   5.878
 5695POPC   C1A72063  10.715  31.937   6.211
 5695POPC   D2A72064  10.475  31.995   6.611
 5695POPC   C3A72065  10.725  31.991   7.002
 5695POPC   C4A72066  10.626  32.089   7.439
 5695POPC   C1B72067  10.409  32.386   6.237
 5695POPC   C2B72068  10.288  32.537   6.644
 5695POPC   C3B72069  10.437  32.439   7.068
 5695POPC   C4B72070  10.169  32.303   7.413
 5696POPC   NC372071  23.149   0.518   5.153
 5696POPC   PO472072  23.867   0.288   5.310
 5696POPC   GL172073  23.683   0.480   5.680
 5696POPC   GL272074  23.500   0.237   5.862
 5696POPC   C1A72075  23.807   0.615   6.110
 5696POPC   D2A72076  23.707   0.652   6.555
 5696POPC   C3A72077  23.968   0.593   6.910
 5696POPC   C4A72078  23.867   0.470   7.307
 5696POPC   C1B72079  23.377   0.307   6.300
 5696POPC   C2B72080  23.197   0.261   6.737
 5696POPC   C3B72081  23.421   0.341   7.109
 5696POPC   C4B72082  23.370   0.232   7.565
 5697POPC   NC372083  36.034  38.390   5.499
 5697POPC   PO472084  36.545  38.792   5.509
 5697POPC   GL172085  36.302  38.608   5.882
 5697POPC   GL272086  36.318  38.221   5.887
 5697POPC   C1A72087  35.888  38.514   6.124
 5697POPC   D2A72088  35.731  38.266   6.476
 5697POPC   C3A72089  35.933  38.429   6.854
 5697POPC   C4A72090  36.057  38.591   7.283
 5697POPC   C1B72091  36.513  38.285   6.267
 5697POPC   C2B72092  36.473  38.394   6.706
 5697POPC   C3B72093  36.428  38.295   7.104
 5697POPC   C4B72094  36.040  38.088   7.209
 5698POPC   NC372095  35.520  34.387   5.293
 5698POPC   PO472096  35.247  34.927   5.427
 5698POPC   GL172097  35.373  34.650   5.729
 5698POPC   GL272098  35.122  34.388   5.695
 5698POPC   C1A72099  35.550  34.387   6.058
 5698POPC   D2A72100  35.531  34.269   6.512
 5698POPC   C3A72101  35.755  34.486   6.859
 5698POPC   C4A72102  35.545  34.552   7.266
 5698POPC   C1B72103  35.058  34.518   6.145
 5698POPC   C2B72104  34.981  34.337   6.562
 5698POPC   C3B72105  35.141  34.432   6.958
 5698POPC   C4B72106  35.088  34.801   7.222
 5699POPC   NC372107  12.798  27.690   5.341
 5699POPC   PO472108  13.314  27.305   5.380
 5699POPC   GL172109  13.090  27.534   5.742
 5699POPC   GL272110  12.706  27.471   5.781
 5699POPC   C1A72111  12.973  27.711   6.150
 5699POPC   D2A72112  12.797  27.507   6.528
 5699POPC   C3A72113  12.834  27.765   6.879
 5699POPC   C4A72114  13.030  27.768   7.260
 5699POPC   C1B72115  12.467  27.391   6.147
 5699POPC   C2B72116  12.295  27.272   6.558
 5699POPC   C3B72117  12.452  27.378   6.967
 5699POPC   C4B72118  12.705  27.384   7.316
 5700POPC   NC372119  10.018  37.230   5.102
 5700POPC   PO472120   9.576  36.840   5.456
 5700POPC   GL172121   9.583  36.943   5.861
 5700POPC   GL272122   9.345  36.683   5.873
 5700POPC   C1A72123   9.716  37.126   6.271
 5700POPC   D2A72124   9.954  36.972   6.606
 5700POPC   C3A72125  10.055  37.088   7.001
 5700POPC   C4A72126   9.846  37.093   7.358
 5700POPC   C1B72127   9.410  36.685   6.283
 5700POPC   C2B72128   9.576  36.638   6.639
 5700POPC   C3B72129   9.535  36.893   6.965
 5700POPC   C4B72130   9.532  36.645   7.300
 5701POPC   NC372131  44.811  32.966   5.276
 5701POPC   PO472132  44.178  33.194   5.319
 5701POPC   GL172133  44.358  32.924   5.737
 5701POPC   GL272134  44.725  32.837   5.764
 5701POPC   C1A72135  44.477  32.844   6.219
 5701POPC   D2A72136  44.678  32.980   6.614
 5701POPC   C3A72137  44.468  33.044   7.021
 5701POPC   C4A72138  44.488  33.142   7.498
 5701POPC   C1B72139  44.981  32.766   6.139
 5701POPC   C2B72140  44.920  32.532   6.520
 5701POPC   C3B72141  44.715  32.566   6.932
 5701POPC   C4B72142  44.883  32.822   7.277
 5702POPC   NC372143   8.119  30.273   5.372
 5702POPC   PO472144   8.186  29.531   5.302
 5702POPC   GL172145   8.323  29.695   5.723
 5702POPC   GL272146   8.323  30.032   5.772
 5702POPC   C1A72147   8.217  29.686   6.191
 5702POPC   D2A72148   8.270  29.870   6.612
 5702POPC   C3A72149   7.876  29.903   6.885
 5702POPC   C4A72150   7.842  29.949   7.352
 5702POPC   C1B72151   8.487  30.118   6.168
 5702POPC   C2B72152   8.570  30.350   6.531
 5702POPC   C3B72153   8.543  30.193   6.952
 5702POPC   C4B72154   8.308  29.833   7.156
 5703POPC   NC372155  23.473  15.900   5.377
 5703POPC   PO472156  24.035  16.136   5.372
 5703POPC   GL172157  23.789  16.129   5.720
 5703POPC   GL272158  23.506  16.336   5.656
 5703POPC   C1A72159  23.784  15.886   6.103
 5703POPC   D2A72160  23.572  15.615   6.401
 5703POPC   C3A72161  23.596  15.737   6.840
 5703POPC   C4A72162  23.908  15.733   7.183
 5703POPC   C1B72163  23.490  16.318   6.092
 5703POPC   C2B72164  23.585  16.178   6.496
 5703POPC   C3B72165  23.496  16.311   6.914
 5703POPC   C4B72166  23.549  16.081   7.232
 5704POPC   NC372167   9.273  32.649   5.679
 5704POPC   PO472168   8.664  32.446   5.418
 5704POPC   GL172169   8.907  32.225   5.748
 5704POPC   GL272170   9.213  31.990   5.791
 5704POPC   C1A72171   8.854  32.191   6.168
 5704POPC   D2A72172   8.833  32.463   6.506
 5704POPC   C3A72173   8.932  32.192   6.827
 5704POPC   C4A72174   8.792  32.173   7.204
 5704POPC   C1B72175   9.230  31.799   6.238
 5704POPC   C2B72176   9.358  31.901   6.694
 5704POPC   C3B72177   9.200  31.853   7.145
 5704POPC   C4B72178   9.217  31.774   7.611
 5705POPC   NC372179  32.650  14.305   5.432
 5705POPC   PO472180  33.215  14.610   5.378
 5705POPC   GL172181  33.093  14.349   5.705
 5705POPC   GL272182  33.032  13.989   5.722
 5705POPC   C1A72183  32.876  14.468   6.040
 5705POPC   D2A72184  32.713  14.406   6.413
 5705POPC   C3A72185  32.955  14.601   6.724
 5705POPC   C4A72186  33.004  14.501   7.150
 5705POPC   C1B72187  33.151  14.069   6.187
 5705POPC   C2B72188  33.027  14.075   6.649
 5705POPC   C3B72189  33.130  14.002   7.080
 5705POPC   C4B72190  33.483  14.232   7.182
 5706POPC   NC372191  31.023  37.020   5.601
 5706POPC   PO472192  31.631  36.836   5.335
 5706POPC   GL172193  31.539  37.010   5.722
 5706POPC   GL272194  31.372  36.763   5.885
 5706POPC   C1A72195  31.693  37.127   6.121
 5706POPC   D2A72196  31.586  36.994   6.550
 5706POPC   C3A72197  31.671  37.242   6.910
 5706POPC   C4A72198  31.599  37.138   7.352
 5706POPC   C1B72199  31.193  36.972   6.215
 5706POPC   C2B72200  31.044  36.829   6.594
 5706POPC   C3B72201  31.232  36.974   6.956
 5706POPC   C4B72202  31.229  36.714   7.260
 5707POPC   NC372203  15.688   8.412   5.412
 5707POPC   PO472204  16.220   8.115   5.181
 5707POPC   GL172205  16.043   8.149   5.650
 5707POPC   GL272206  15.864   7.863   5.833
 5707POPC   C1A72207  15.860   8.303   6.074
 5707POPC   D2A72208  15.738   8.136   6.483
 5707POPC   C3A72209  15.786   8.283   6.902
 5707POPC   C4A72210  16.025   8.352   7.290
 5707POPC   C1B72211  15.994   7.726   6.278
 5707POPC   C2B72212  16.015   7.797   6.754
 5707POPC   C3B72213  15.875   7.840   7.204
 5707POPC   C4B72214  15.784   7.950   7.666
 5708POPC   NC372215  41.524  31.238   5.372
 5708POPC   PO472216  41.954  31.754   5.480
 5708POPC   GL172217  41.633  31.627   5.822
 5708POPC   GL272218  41.449  31.304   5.869
 5708POPC   C1A72219  41.558  31.650   6.285
 5708POPC   D2A72220  41.795  31.683   6.673
 5708POPC   C3A72221  41.539  31.835   7.004
 5708POPC   C4A72222  41.336  31.544   7.241
 5708POPC   C1B72223  41.676  31.142   6.221
 5708POPC   C2B72224  41.659  31.153   6.673
 5708POPC   C3B72225  41.780  31.331   7.074
 5708POPC   C4B72226  41.786  31.188   7.533
 5709POPC   NC372227   4.505  44.912   5.578
 5709POPC   PO472228   4.178  44.421   5.363
 5709POPC   GL172229   4.235  44.591   5.853
 5709POPC   GL272230   4.461  44.898   6.052
 5709POPC   C1A72231   4.451  44.419   6.216
 5709POPC   D2A72232   4.658  44.489   6.591
 5709POPC   C3A72233   4.486  44.510   6.972
 5709POPC   C4A72234   4.647  44.370   7.331
 5709POPC   C1B72235   4.243  44.905   6.362
 5709POPC   C2B72236   4.361  44.938   6.734
 5709POPC   C3B72237   4.212  44.900   7.113
 5709POPC   C4B72238   4.243   0.104   7.466
 5710POPC   NC372239  22.763  22.558   5.403
 5710POPC   PO472240  23.258  22.879   5.308
 5710POPC   GL172241  23.090  22.932   5.722
 5710POPC   GL272242  23.323  23.202   5.777
 5710POPC   C1A72243  22.804  22.969   6.099
 5710POPC   D2A72244  22.876  23.059   6.580
 5710POPC   C3A72245  22.812  22.849   7.000
 5710POPC   C4A72246  22.867  22.802   7.478
 5710POPC   C1B72247  23.270  23.130   6.209
 5710POPC   C2B72248  23.420  23.135   6.617
 5710POPC   C3B72249  23.321  22.986   7.020
 5710POPC   C4B72250  23.310  23.102   7.448
 5711POPC   NC372251  37.004  38.778   5.537
 5711POPC   PO472252  37.361  38.215   5.463
 5711POPC   GL172253  37.032  38.246   5.818
 5711POPC   GL272254  36.817  38.554   5.939
 5711POPC   C1A72255  37.034  38.250   6.280
 5711POPC   D2A72256  36.949  38.495   6.616
 5711POPC   C3A72257  36.933  38.218   6.981
 5711POPC   C4A72258  36.911  38.241   7.432
 5711POPC   C1B72259  36.595  38.772   6.278
 5711POPC   C2B72260  36.593  38.890   6.709
 5711POPC   C3B72261  36.779  38.704   7.059
 5711POPC   C4B72262  37.202  38.609   7.170
 5712POPC   NC372263  36.726  18.008   5.290
 5712POPC   PO472264  36.514  18.522   5.603
 5712POPC   GL172265  36.812  18.290   5.742
 5712POPC   GL272266  36.668  17.956   5.790
 5712POPC   C1A72267  37.056  18.414   6.088
 5712POPC   D2A72268  37.126  18.298   6.522
 5712POPC   C3A72269  37.095  18.582   6.879
 5712POPC   C4A72270  36.859  18.536   7.268
 5712POPC   C1B72271  36.840  17.967   6.192
 5712POPC   C2B72272  36.710  18.004   6.607
 5712POPC   C3B72273  36.924  18.057   7.000
 5712POPC   C4B72274  36.665  18.064   7.354
 5713POPC   NC372275  31.114  11.294   5.620
 5713POPC   PO472276  31.749  11.086   5.515
 5713POPC   GL172277  31.716  11.326   5.866
 5713POPC   GL272278  31.454  11.559   5.886
 5713POPC   C1A72279  31.665  11.245   6.280
 5713POPC   D2A72280  31.870  11.145   6.635
 5713POPC   C3A72281  31.670  11.164   7.039
 5713POPC   C4A72282  31.681  11.530   7.221
 5713POPC   C1B72283  31.228  11.496   6.272
 5713POPC   C2B72284  31.348  11.366   6.684
 5713POPC   C3B72285  31.177  11.389   7.080
 5713POPC   C4B72286  31.240  11.573   7.474
 5714POPC   NC372287  14.371   1.459   5.332
 5714POPC   PO472288  14.127   0.877   5.250
 5714POPC   GL172289  14.200   1.023   5.705
 5714POPC   GL272290  14.142   1.367   5.779
 5714POPC   C1A72291  14.435   1.095   6.123
 5714POPC   D2A72292  14.695   1.139   6.513
 5714POPC   C3A72293  14.593   1.355   6.905
 5714POPC   C4A72294  14.754   1.201   7.299
 5714POPC   C1B72295  13.967   1.296   6.166
 5714POPC   C2B72296  14.037   1.111   6.553
 5714POPC   C3B72297  13.908   1.072   6.969
 5714POPC   C4B72298  14.137   1.387   7.169
 5715POPC   NC372299  41.867  43.457   5.428
 5715POPC   PO472300  41.336  43.044   5.487
 5715POPC   GL172301  41.375  43.107   5.942
 5715POPC   GL272302  41.722  43.105   5.870
 5715POPC   C1A72303  41.242  43.059   6.409
 5715POPC   D2A72304  41.300  42.986   6.861
 5715POPC   C3A72305  41.647  42.805   7.055
 5715POPC   C4A72306  41.755  42.896   7.485
 5715POPC   C1B72307  41.763  43.323   6.278
 5715POPC   C2B72308  41.912  43.385   6.710
 5715POPC   C3B72309  41.821  43.284   7.130
 5715POPC   C4B72310  41.399  43.283   7.279
 5716POPC   NC372311  36.249  34.210   5.476
 5716POPC   PO472312  35.996  34.825   5.455
 5716POPC   GL172313  35.892  34.738   5.870
 5716POPC   GL272314  36.229  34.583   5.882
 5716POPC   C1A72315  35.909  34.651   6.328
 5716POPC   D2A72316  36.244  34.555   6.587
 5716POPC   C3A72317  36.254  34.772   6.956
 5716POPC   C4A72318  36.020  34.691   7.296
 5716POPC   C1B72319  36.190  34.223   6.168
 5716POPC   C2B72320  36.035  34.086   6.578
 5716POPC   C3B72321  36.181  34.218   7.001
 5716POPC   C4B72322  36.081  34.207   7.421
 5717POPC   NC372323  36.217  12.432   5.508
 5717POPC   PO472324  36.072  13.048   5.494
 5717POPC   GL172325  36.134  12.880   5.917
 5717POPC   GL272326  36.359  12.564   5.972
 5717POPC   C1A72327  36.126  13.057   6.368
 5717POPC   D2A72328  36.159  13.286   6.784
 5717POPC   C3A72329  36.272  12.962   7.099
 5717POPC   C4A72330  36.401  12.516   7.104
 5717POPC   C1B72331  36.046  12.543   6.277
 5717POPC   C2B72332  36.062  12.621   6.694
 5717POPC   C3B72333  35.842  12.458   7.031
 5717POPC   C4B72334  35.959  12.667   7.414
 5718POPC   NC372335  44.530  21.484   5.434
 5718POPC   PO472336   0.071  21.055   5.596
 5718POPC   GL172337   0.077  21.284   6.011
 5718POPC   GL272338  44.825  21.533   5.889
 5718POPC   C1A72339  44.841  21.398   6.398
 5718POPC   D2A72340  44.439  21.292   6.643
 5718POPC   C3A72341  44.598  21.139   7.022
 5718POPC   C4A72342   0.037  21.181   7.114
 5718POPC   C1B72343  44.997  21.838   6.153
 5718POPC   C2B72344  44.855  21.921   6.545
 5718POPC   C3B72345  44.804  21.631   6.869
 5718POPC   C4B72346  44.667  21.600   7.274
 5719POPC   NC372347  43.479   9.299   5.657
 5719POPC   PO472348  42.897   9.023   5.334
 5719POPC   GL172349  43.062   8.966   5.745
 5719POPC   GL272350  43.326   8.736   5.626
 5719POPC   C1A72351  42.937   8.959   6.203
 5719POPC   D2A72352  42.711   8.987   6.640
 5719POPC   C3A72353  42.860   9.024   7.098
 5719POPC   C4A72354  43.000   8.650   7.380
 5719POPC   C1B72355  43.285   8.591   6.043
 5719POPC   C2B72356  43.195   8.623   6.476
 5719POPC   C3B72357  43.179   8.693   6.906
 5719POPC   C4B72358  43.482   8.819   7.251
 5720POPC   NC372359  33.206  28.679   5.426
 5720POPC   PO472360  33.814  28.552   5.467
 5720POPC   GL172361  33.443  28.318   5.746
 5720POPC   GL272362  33.058  28.412   5.832
 5720POPC   C1A72363  33.286  28.143   6.173
 5720POPC   D2A72364  32.992  28.321   6.461
 5720POPC   C3A72365  33.119  28.292   6.908
 5720POPC   C4A72366  33.010  28.103   7.307
 5720POPC   C1B72367  32.686  28.522   6.087
 5720POPC   C2B72368  32.548  28.581   6.555
 5720POPC   C3B72369  32.625  28.700   7.009
 5720POPC   C4B72370  32.642  28.465   7.388
 5721POPC   NC372371  32.931  43.574   5.321
 5721POPC   PO472372  33.233  42.962   5.535
 5721POPC   GL172373  32.945  43.168   5.918
 5721POPC   GL272374  32.548  43.182   6.024
 5721POPC   C1A72375  32.923  43.236   6.364
 5721POPC   D2A72376  33.236  43.442   6.571
 5721POPC   C3A72377  33.257  43.269   6.932
 5721POPC   C4A72378  33.169  42.993   7.235
 5721POPC   C1B72379  32.589  42.818   6.216
 5721POPC   C2B72380  32.535  42.760   6.641
 5721POPC   C3B72381  32.642  43.110   6.907
 5721POPC   C4B72382  32.562  43.015   7.319
 5722POPC   NC372383  22.263   0.145   5.432
 5722POPC   PO472384  21.887   0.761   5.543
 5722POPC   GL172385  22.150   0.497   5.768
 5722POPC   GL272386  21.820   0.250   5.685
 5722POPC   C1A72387  22.341   0.433   6.187
 5722POPC   D2A72388  22.129   0.546   6.544
 5722POPC   C3A72389  22.321   0.628   6.917
 5722POPC   C4A72390  22.082   0.628   7.254
 5722POPC   C1B72391  21.867   0.312   6.126
 5722POPC   C2B72392  22.057   0.065   6.445
 5722POPC   C3B72393  22.106   0.133   6.880
 5722POPC   C4B72394  22.248  44.833   7.141
 5723POPC   NC372395  37.477  29.858   5.360
 5723POPC   PO472396  38.146  29.786   5.638
 5723POPC   GL172397  37.773  29.764   5.756
 5723POPC   GL272398  37.705  30.068   5.861
 5723POPC   C1A72399  37.584  29.632   6.112
 5723POPC   D2A72400  37.807  29.582   6.502
 5723POPC   C3A72401  37.574  29.607   6.885
 5723POPC   C4A72402  37.748  29.684   7.271
 5723POPC   C1B72403  37.892  30.031   6.248
 5723POPC   C2B72404  37.719  30.079   6.672
 5723POPC   C3B72405  37.623  30.160   7.110
 5723POPC   C4B72406  37.982  30.176   7.407
 5724POPC   NC372407  36.370  10.465   4.967
 5724POPC   PO472408  36.902  10.305   5.333
 5724POPC   GL172409  36.797  10.357   5.755
 5724POPC   GL272410  36.728  10.711   5.752
 5724POPC   C1A72411  36.944  10.404   6.163
 5724POPC   D2A72412  36.999  10.803   6.376
 5724POPC   C3A72413  36.960  10.717   6.798
 5724POPC   C4A72414  36.855  10.697   7.252
 5724POPC   C1B72415  36.523  10.717   6.136
 5724POPC   C2B72416  36.594  10.503   6.509
 5724POPC   C3B72417  36.501  10.532   6.923
 5724POPC   C4B72418  36.354  10.722   7.307
 5725POPC   NC372419  29.289  23.409   5.426
 5725POPC   PO472420  28.916  23.968   5.345
 5725POPC   GL172421  29.061  23.790   5.738
 5725POPC   GL272422  28.908  23.471   5.804
 5725POPC   C1A72423  28.936  23.881   6.155
 5725POPC   D2A72424  28.851  23.735   6.559
 5725POPC   C3A72425  29.084  23.926   6.886
 5725POPC   C4A72426  29.158  23.861   7.311
 5725POPC   C1B72427  29.027  23.368   6.223
 5725POPC   C2B72428  29.277  23.449   6.591
 5725POPC   C3B72429  29.135  23.423   7.016
 5725POPC   C4B72430  29.094  23.360   7.460
 5726POPC   NC372431  34.151  28.791   5.667
 5726POPC   PO472432  34.118  28.092   5.367
 5726POPC   GL172433  33.946  28.123   5.792
 5726POPC   GL272434  33.896  28.460   5.946
 5726POPC   C1A72435  33.802  28.070   6.227
 5726POPC   D2A72436  33.827  28.294   6.601
 5726POPC   C3A72437  33.650  28.114   6.966
 5726POPC   C4A72438  33.917  28.228   7.301
 5726POPC   C1B72439  33.574  28.567   6.209
 5726POPC   C2B72440  33.521  28.727   6.609
 5726POPC   C3B72441  33.684  28.638   7.006
 5726POPC   C4B72442  33.465  28.469   7.334
 5727POPC   NC372443  33.521  33.978   5.062
 5727POPC   PO472444  33.977  33.650   5.519
 5727POPC   GL172445  33.729  33.844   5.845
 5727POPC   GL272446  34.003  33.960   6.014
 5727POPC   C1A72447  33.631  33.761   6.294
 5727POPC   D2A72448  33.604  33.487   6.670
 5727POPC   C3A72449  33.566  33.663   7.097
 5727POPC   C4A72450  33.510  33.625   7.552
 5727POPC   C1B72451  34.124  33.912   6.376
 5727POPC   C2B72452  33.895  33.905   6.720
 5727POPC   C3B72453  34.044  33.838   7.050
 5727POPC   C4B72454  34.011  33.690   7.470
 5728POPC   NC372455  34.861  26.838   5.500
 5728POPC   PO472456  34.208  26.841   5.387
 5728POPC   GL172457  34.431  26.736   5.760
 5728POPC   GL272458  34.522  27.016   5.958
 5728POPC   C1A72459  34.517  26.582   6.196
 5728POPC   D2A72460  34.530  26.857   6.528
 5728POPC   C3A72461  34.685  26.685   6.891
 5728POPC   C4A72462  34.731  26.865   7.281
 5728POPC   C1B72463  34.858  27.250   6.175
 5728POPC   C2B72464  35.025  27.024   6.515
 5728POPC   C3B72465  34.975  27.125   6.915
 5728POPC   C4B72466  35.050  27.282   7.298
 5729POPC   NC372467  14.898   4.672   5.629
 5729POPC   PO472468  15.045   4.126   5.364
 5729POPC   GL172469  15.161   4.265   5.760
 5729POPC   GL272470  14.827   4.235   5.896
 5729POPC   C1A72471  15.272   4.433   6.174
 5729POPC   D2A72472  15.469   4.201   6.491
 5729POPC   C3A72473  15.475   4.403   6.876
 5729POPC   C4A72474  15.500   4.416   7.307
 5729POPC   C1B72475  14.799   4.280   6.335
 5729POPC   C2B72476  15.005   4.232   6.711
 5729POPC   C3B72477  15.049   4.288   7.130
 5729POPC   C4B72478  15.020   4.563   7.459
 5730POPC   NC372479  20.154   7.247   5.527
 5730POPC   PO472480  19.547   7.493   5.299
 5730POPC   GL172481  19.721   7.501   5.757
 5730POPC   GL272482  20.070   7.620   5.872
 5730POPC   C1A72483  19.778   7.302   6.192
 5730POPC   D2A72484  19.607   7.113   6.583
 5730POPC   C3A72485  19.727   7.190   6.980
 5730POPC   C4A72486  19.554   7.446   7.278
 5730POPC   C1B72487  20.281   7.467   6.271
 5730POPC   C2B72488  20.149   7.381   6.717
 5730POPC   C3B72489  20.079   7.553   7.164
 5730POPC   C4B72490  20.224   7.811   7.525
 5731POPC   NC372491   9.104  15.872   5.440
 5731POPC   PO472492   8.533  16.142   5.407
 5731POPC   GL172493   8.706  15.987   5.809
 5731POPC   GL272494   8.952  15.716   5.902
 5731POPC   C1A72495   8.559  15.853   6.222
 5731POPC   D2A72496   8.601  15.723   6.670
 5731POPC   C3A72497   8.721  15.983   7.053
 5731POPC   C4A72498   9.062  15.748   7.276
 5731POPC   C1B72499   9.057  15.880   6.345
 5731POPC   C2B72500   9.151  15.943   6.804
 5731POPC   C3B72501   9.358  16.130   7.200
 5731POPC   C4B72502   9.267  16.038   7.669
 5732POPC   NC372503  11.755   6.204   5.554
 5732POPC   PO472504  12.121   5.671   5.242
 5732POPC   GL172505  12.016   5.787   5.696
 5732POPC   GL272506  11.629   5.700   5.657
 5732POPC   C1A72507  12.118   5.982   6.138
 5732POPC   D2A72508  12.175   6.291   6.516
 5732POPC   C3A72509  12.144   6.145   6.963
 5732POPC   C4A72510  12.273   5.784   7.238
 5732POPC   C1B72511  11.632   5.809   6.093
 5732POPC   C2B72512  11.774   5.764   6.502
 5732POPC   C3B72513  11.849   5.729   6.931
 5732POPC   C4B72514  11.635   6.073   7.104
 5733POPC   NC372515   6.147  37.994   5.550
 5733POPC   PO472516   5.713  38.525   5.456
 5733POPC   GL172517   5.662  38.274   5.841
 5733POPC   GL272518   6.001  38.331   5.905
 5733POPC   C1A72519   5.699  38.238   6.306
 5733POPC   D2A72520   6.001  38.446   6.586
 5733POPC   C3A72521   5.808  38.491   6.974
 5733POPC   C4A72522   5.494  38.216   7.122
 5733POPC   C1B72523   6.200  38.080   6.239
 5733POPC   C2B72524   6.259  37.977   6.693
 5733POPC   C3B72525   6.199  38.186   7.079
 5733POPC   C4B72526   6.070  38.082   7.513
 5734POPC   NC372527   8.113  26.391   5.403
 5734POPC   PO472528   8.725  26.226   5.445
 5734POPC   GL172529   8.431  26.122   5.737
 5734POPC   GL272530   8.194  25.832   5.639
 5734POPC   C1A72531   8.227  26.253   6.104
 5734POPC   D2A72532   8.288  26.398   6.514
 5734POPC   C3A72533   8.075  26.163   6.824
 5734POPC   C4A72534   7.979  25.964   7.192
 5734POPC   C1B72535   8.337  25.722   6.050
 5734POPC   C2B72536   8.254  25.869   6.453
 5734POPC   C3B72537   8.344  25.736   6.884
 5734POPC   C4B72538   8.351  25.590   7.302
 5735POPC   NC372539   2.544   2.913   5.386
 5735POPC   PO472540   2.533   2.329   5.701
 5735POPC   GL172541   2.780   2.722   5.842
 5735POPC   GL272542   2.530   2.969   5.911
 5735POPC   C1A72543   3.010   2.879   6.226
 5735POPC   D2A72544   2.967   2.982   6.688
 5735POPC   C3A72545   2.934   2.598   6.942
 5735POPC   C4A72546   2.544   2.426   7.164
 5735POPC   C1B72547   2.494   2.912   6.362
 5735POPC   C2B72548   2.446   3.051   6.786
 5735POPC   C3B72549   2.662   2.976   7.183
 5735POPC   C4B72550   2.770   3.057   7.618
 5736POPC   NC372551  40.691  15.337   5.458
 5736POPC   PO472552  40.919  14.593   5.514
 5736POPC   GL172553  40.909  14.989   5.782
 5736POPC   GL272554  40.521  15.073   5.841
 5736POPC   C1A72555  40.993  15.274   6.160
 5736POPC   D2A72556  40.828  15.469   6.571
 5736POPC   C3A72557  40.998  15.265   6.907
 5736POPC   C4A72558  40.925  15.051   7.241
 5736POPC   C1B72559  40.478  15.340   6.198
 5736POPC   C2B72560  40.382  15.231   6.632
 5736POPC   C3B72561  40.514  15.320   7.084
 5736POPC   C4B72562  40.724  15.389   7.534
 5737POPC   NC372563  44.232  24.551   5.473
 5737POPC   PO472564  43.654  24.926   5.319
 5737POPC   GL172565  43.796  24.652   5.747
 5737POPC   GL272566  44.048  24.332   5.872
 5737POPC   C1A72567  43.584  24.402   6.085
 5737POPC   D2A72568  43.631  24.496   6.544
 5737POPC   C3A72569  43.561  24.403   7.005
 5737POPC   C4A72570  43.724  24.467   7.448
 5737POPC   C1B72571  44.089  24.425   6.287
 5737POPC   C2B72572  44.077  24.297   6.708
 5737POPC   C3B72573  44.106  24.410   7.114
 5737POPC   C4B72574  44.417  24.346   7.408
 5738POPC   NC372575   0.098   8.279   5.611
 5738POPC   PO472576   0.676   8.561   5.547
 5738POPC   GL172577   0.537   8.370   5.939
 5738POPC   GL272578   0.523   8.008   5.829
 5738POPC   C1A72579   0.465   8.448   6.406
 5738POPC   D2A72580   0.330   8.358   6.828
 5738POPC   C3A72581   0.570   8.552   7.125
 5738POPC   C4A72582   0.494   8.746   7.468
 5738POPC   C1B72583   0.278   8.005   6.230
 5738POPC   C2B72584   0.380   7.881   6.684
 5738POPC   C3B72585   0.214   7.922   7.107
 5738POPC   C4B72586   0.302   7.727   7.505
 5739POPC   NC372587  27.290   9.491   5.563
 5739POPC   PO472588  27.720  10.071   5.500
 5739POPC   GL172589  27.570   9.806   5.839
 5739POPC   GL272590  27.740   9.485   5.830
 5739POPC   C1A72591  27.600   9.824   6.279
 5739POPC   D2A72592  27.638   9.689   6.703
 5739POPC   C3A72593  27.452   9.950   6.997
 5739POPC   C4A72594  27.646   9.868   7.377
 5739POPC   C1B72595  27.435   9.344   6.175
 5739POPC   C2B72596  27.285   9.331   6.593
 5739POPC   C3B72597  27.230   9.500   7.014
 5739POPC   C4B72598  27.193   9.601   7.468
 5740POPC   NC372599  44.659  17.748   5.496
 5740POPC   PO472600  44.563  18.392   5.387
 5740POPC   GL172601  44.577  18.310   5.801
 5740POPC   GL272602  44.899  18.187   5.779
 5740POPC   C1A72603  44.506  18.407   6.247
 5740POPC   D2A72604  44.527  18.621   6.633
 5740POPC   C3A72605  44.557  18.418   7.020
 5740POPC   C4A72606  44.274  18.374   7.368
 5740POPC   C1B72607  44.807  17.993   6.174
 5740POPC   C2B72608  44.892  18.145   6.595
 5740POPC   C3B72609  44.763  17.960   6.960
 5740POPC   C4B72610  44.555  17.848   7.327
 5741POPC   NC372611  29.959   1.942   5.544
 5741POPC   PO472612  30.010   1.377   5.234
 5741POPC   GL172613  29.837   1.414   5.632
 5741POPC   GL272614  30.149   1.525   5.790
 5741POPC   C1A72615  29.825   1.192   6.041
 5741POPC   D2A72616  29.864   1.108   6.496
 5741POPC   C3A72617  30.074   0.976   6.906
 5741POPC   C4A72618  29.906   0.955   7.336
 5741POPC   C1B72619  30.168   1.506   6.262
 5741POPC   C2B72620  30.017   1.543   6.711
 5741POPC   C3B72621  29.995   1.444   7.144
 5741POPC   C4B72622  30.302   1.275   7.387
 5742POPC   NC372623  14.811  36.874   5.412
 5742POPC   PO472624  14.115  36.901   5.356
 5742POPC   GL172625  14.390  36.985   5.720
 5742POPC   GL272626  14.560  36.651   5.810
 5742POPC   C1A72627  14.235  37.181   6.119
 5742POPC   D2A72628  14.128  37.052   6.516
 5742POPC   C3A72629  14.153  37.023   6.936
 5742POPC   C4A72630  14.500  37.103   7.155
 5742POPC   C1B72631  14.423  36.721   6.250
 5742POPC   C2B72632  14.221  36.575   6.657
 5742POPC   C3B72633  14.440  36.604   7.061
 5742POPC   C4B72634  14.510  36.732   7.498
 5743POPC   NC372635  18.677  32.169   5.112
 5743POPC   PO472636  19.269  32.328   5.439
 5743POPC   GL172637  19.305  32.181   5.844
 5743POPC   GL272638  19.123  32.495   5.914
 5743POPC   C1A72639  19.091  32.100   6.244
 5743POPC   D2A72640  19.075  32.197   6.633
 5743POPC   C3A72641  19.015  31.897   6.948
 5743POPC   C4A72642  19.016  32.041   7.311
 5743POPC   C1B72643  18.770  32.540   6.199
 5743POPC   C2B72644  18.651  32.510   6.602
 5743POPC   C3B72645  18.809  32.407   6.998
 5743POPC   C4B72646  18.919  32.541   7.364
 5744POPC   NC372647   0.644  38.710   5.427
 5744POPC   PO472648   0.016  38.588   5.453
 5744POPC   GL172649   0.294  38.564   5.833
 5744POPC   GL272650   0.650  38.417   5.851
 5744POPC   C1A72651   0.249  38.445   6.275
 5744POPC   D2A72652  44.992  38.561   6.654
 5744POPC   C3A72653   0.115  38.597   7.088
 5744POPC   C4A72654   0.243  38.872   7.455
 5744POPC   C1B72655   0.778  38.449   6.282
 5744POPC   C2B72656   0.569  38.281   6.657
 5744POPC   C3B72657   0.566  38.332   7.098
 5744POPC   C4B72658   0.799  38.170   7.450
 5745POPC   NC372659   8.837   0.197   5.338
 5745POPC   PO472660   8.955   0.832   5.307
 5745POPC   GL172661   8.836   0.606   5.687
 5745POPC   GL272662   9.080   0.430   5.756
 5745POPC   C1A72663   8.708   0.586   6.137
 5745POPC   D2A72664   8.548   0.735   6.519
 5745POPC   C3A72665   8.791   0.714   6.865
 5745POPC   C4A72666   8.841   0.630   7.290
 5745POPC   C1B72667   9.087   0.243   6.159
 5745POPC   C2B72668   8.814   0.237   6.551
 5745POPC   C3B72669   8.956   0.228   6.990
 5745POPC   C4B72670   9.316   0.310   7.276
 5746POPC   NC372671  42.076   7.871   5.399
 5746POPC   PO472672  42.684   8.263   5.553
 5746POPC   GL172673  42.393   8.051   5.786
 5746POPC   GL272674  42.563   7.871   6.032
 5746POPC   C1A72675  42.222   8.260   6.153
 5746POPC   D2A72676  42.166   8.283   6.580
 5746POPC   C3A72677  42.507   8.347   6.848
 5746POPC   C4A72678  42.264   8.341   7.203
 5746POPC   C1B72679  42.140   7.763   6.161
 5746POPC   C2B72680  42.019   7.786   6.597
 5746POPC   C3B72681  42.303   7.866   6.927
 5746POPC   C4B72682  42.294   7.867   7.371
 5747POPC   NC372683  35.920  33.480   5.418
 5747POPC   PO472684  36.541  33.787   5.438
 5747POPC   GL172685  36.133  33.840   5.777
 5747POPC   GL272686  35.962  33.585   5.898
 5747POPC   C1A72687  35.767  33.941   6.159
 5747POPC   D2A72688  35.561  33.758   6.541
 5747POPC   C3A72689  35.695  33.966   6.942
 5747POPC   C4A72690  35.725  33.832   7.357
 5747POPC   C1B72691  36.214  33.705   6.241
 5747POPC   C2B72692  36.342  33.637   6.605
 5747POPC   C3B72693  36.136  33.706   6.939
 5747POPC   C4B72694  36.234  33.746   7.329
 5748POPC   NC372695  41.699  39.468   5.457
 5748POPC   PO472696  41.952  38.782   5.587
 5748POPC   GL172697  41.795  38.892   5.940
 5748POPC   GL272698  41.581  39.143   5.844
 5748POPC   C1A72699  41.572  38.857   6.315
 5748POPC   D2A72700  41.305  39.160   6.537
 5748POPC   C3A72701  41.379  39.159   6.942
 5748POPC   C4A72702  41.675  38.982   7.183
 5748POPC   C1B72703  41.638  39.416   6.188
 5748POPC   C2B72704  41.799  39.618   6.539
 5748POPC   C3B72705  41.825  39.437   6.940
 5748POPC   C4B72706  41.590  39.474   7.281
 5749POPC   NC372707  35.802  36.562   5.447
 5749POPC   PO472708  36.252  36.971   5.558
 5749POPC   GL172709  36.257  36.988   5.925
 5749POPC   GL272710  36.498  37.231   5.957
 5749POPC   C1A72711  36.122  36.761   6.248
 5749POPC   D2A72712  36.020  36.853   6.631
 5749POPC   C3A72713  36.100  36.542   6.910
 5749POPC   C4A72714  36.161  36.600   7.263
 5749POPC   C1B72715  36.197  37.312   6.309
 5749POPC   C2B72716  36.152  37.358   6.733
 5749POPC   C3B72717  36.017  37.135   7.079
 5749POPC   C4B72718  36.325  37.069   7.366
 5750POPC   NC372719  16.995  17.575   5.535
 5750POPC   PO472720  16.415  17.894   5.535
 5750POPC   GL172721  16.508  17.672   5.887
 5750POPC   GL272722  16.660  17.359   5.859
 5750POPC   C1A72723  16.454  17.570   6.306
 5750POPC   D2A72724  16.648  17.594   6.671
 5750POPC   C3A72725  16.402  17.675   7.014
 5750POPC   C4A72726  16.599  17.736   7.432
 5750POPC   C1B72727  16.975  17.454   6.197
 5750POPC   C2B72728  17.014  17.255   6.599
 5750POPC   C3B72729  16.993  17.410   7.035
 5750POPC   C4B72730  16.907  17.302   7.471
 5751POPC   NC372731   8.547  22.857   5.472
 5751POPC   PO472732   7.964  23.192   5.514
 5751POPC   GL172733   7.955  22.960   5.922
 5751POPC   GL272734   8.203  22.707   5.848
 5751POPC   C1A72735   8.001  22.971   6.371
 5751POPC   D2A72736   8.303  23.094   6.700
 5751POPC   C3A72737   8.118  23.050   7.136
 5751POPC   C4A72738   7.916  23.077   7.549
 5751POPC   C1B72739   8.428  22.724   6.242
 5751POPC   C2B72740   8.248  22.596   6.635
 5751POPC   C3B72741   8.437  22.667   6.989
 5751POPC   C4B72742   8.613  22.970   7.272
 5752POPC   NC372743  30.877  39.421   5.488
 5752POPC   PO472744  30.509  38.901   5.499
 5752POPC   GL172745  30.734  39.099   5.841
 5752POPC   GL272746  30.603  39.459   5.913
 5752POPC   C1A72747  30.794  39.182   6.269
 5752POPC   D2A72748  30.622  38.980   6.618
 5752POPC   C3A72749  30.723  39.100   7.034
 5752POPC   C4A72750  30.805  39.159   7.511
 5752POPC   C1B72751  30.682  39.695   6.299
 5752POPC   C2B72752  30.730  39.549   6.723
 5752POPC   C3B72753  30.809  39.577   7.167
 5752POPC   C4B72754  30.526  39.601   7.508
 5753POPC   NC372755  17.363  26.338   5.470
 5753POPC   PO472756  17.584  25.751   5.481
 5753POPC   GL172757  17.468  25.935   5.876
 5753POPC   GL272758  17.660  26.197   5.912
 5753POPC   C1A72759  17.514  25.988   6.356
 5753POPC   D2A72760  17.287  25.948   6.746
 5753POPC   C3A72761  17.522  25.760   7.079
 5753POPC   C4A72762  17.524  25.989   7.476
 5753POPC   C1B72763  17.948  26.288   6.264
 5753POPC   C2B72764  17.930  26.225   6.707
 5753POPC   C3B72765  17.674  26.260   7.088
 5753POPC   C4B72766  17.740  26.465   7.524
 5754POPC   NC372767  15.424  10.872   5.518
 5754POPC   PO472768  16.047  10.659   5.381
 5754POPC   GL172769  15.912  10.718   5.821
 5754POPC   GL272770  15.588  10.725   5.960
 5754POPC   C1A72771  15.972  10.590   6.273
 5754POPC   D2A72772  15.856  10.318   6.655
 5754POPC   C3A72773  16.099  10.260   7.090
 5754POPC   C4A72774  16.212  10.510   7.476
 5754POPC   C1B72775  15.464  10.475   6.304
 5754POPC   C2B72776  15.362  10.161   6.622
 5754POPC   C3B72777  15.595  10.098   7.032
 5754POPC   C4B72778  15.693  10.371   7.394
 5755POPC   NC372779  28.199   0.998   5.507
 5755POPC   PO472780  28.642   1.559   5.495
 5755POPC   GL172781  28.429   1.357   5.805
 5755POPC   GL272782  28.547   1.019   5.881
 5755POPC   C1A72783  28.344   1.353   6.222
 5755POPC   D2A72784  28.237   1.152   6.599
 5755POPC   C3A72785  28.146   1.374   6.967
 5755POPC   C4A72786  28.229   1.277   7.391
 5755POPC   C1B72787  28.848   1.228   6.156
 5755POPC   C2B72788  28.745   1.397   6.564
 5755POPC   C3B72789  28.617   1.206   6.963
 5755POPC   C4B72790  28.663   1.007   7.368
 5756POPC   NC372791  32.816  21.967   5.315
 5756POPC   PO472792  33.417  22.284   5.396
 5756POPC   GL172793  33.113  22.408   5.754
 5756POPC   GL272794  32.889  22.177   5.785
 5756POPC   C1A72795  32.884  22.513   6.188
 5756POPC   D2A72796  32.861  22.581   6.635
 5756POPC   C3A72797  32.682  22.319   6.944
 5756POPC   C4A72798  32.792  22.239   7.342
 5756POPC   C1B72799  33.044  22.044   6.178
 5756POPC   C2B72800  32.962  22.081   6.596
 5756POPC   C3B72801  33.074  21.968   7.009
 5756POPC   C4B72802  32.877  21.669   7.297
 5757POPC   NC372803  37.250  15.257   5.405
 5757POPC   PO472804  36.651  15.304   5.332
 5757POPC   GL172805  36.867  15.249   5.773
 5757POPC   GL272806  37.203  15.380   5.900
 5757POPC   C1A72807  37.027  14.966   6.143
 5757POPC   D2A72808  37.233  14.928   6.557
 5757POPC   C3A72809  36.936  15.040   6.870
 5757POPC   C4A72810  36.738  14.906   7.255
 5757POPC   C1B72811  36.911  15.484   6.222
 5757POPC   C2B72812  36.910  15.670   6.620
 5757POPC   C3B72813  37.139  15.522   6.927
 5757POPC   C4B72814  36.940  15.377   7.259
 5758POPC   NC372815   5.929  21.989   5.510
 5758POPC   PO472816   6.343  22.501   5.556
 5758POPC   GL172817   6.211  22.229   5.894
 5758POPC   GL272818   6.197  21.855   5.939
 5758POPC   C1A72819   6.190  22.206   6.327
 5758POPC   D2A72820   5.926  22.083   6.674
 5758POPC   C3A72821   6.054  22.272   7.029
 5758POPC   C4A72822   5.694  22.477   7.195
 5758POPC   C1B72823   5.771  21.970   6.168
 5758POPC   C2B72824   5.533  21.732   6.493
 5758POPC   C3B72825   5.452  21.867   6.879
 5758POPC   C4B72826   5.719  21.942   7.208
 5759POPC   NC372827  38.670  30.262   5.363
 5759POPC   PO472828  38.221  30.702   5.539
 5759POPC   GL172829  38.526  30.749   5.835
 5759POPC   GL272830  38.633  30.432   5.851
 5759POPC   C1A72831  38.653  30.725   6.268
 5759POPC   D2A72832  38.590  30.914   6.649
 5759POPC   C3A72833  38.235  30.927   6.962
 5759POPC   C4A72834  38.567  30.980   7.307
 5759POPC   C1B72835  38.226  30.495   6.157
 5759POPC   C2B72836  38.181  30.325   6.544
 5759POPC   C3B72837  38.423  30.470   6.835
 5759POPC   C4B72838  38.345  30.539   7.263
 5760POPC   NC372839  32.846  40.228   5.396
 5760POPC   PO472840  33.102  39.598   5.301
 5760POPC   GL172841  33.176  39.884   5.717
 5760POPC   GL272842  32.840  39.971   5.845
 5760POPC   C1A72843  33.201  39.963   6.219
 5760POPC   D2A72844  33.226  39.706   6.632
 5760POPC   C3A72845  33.033  39.799   7.055
 5760POPC   C4A72846  32.877  39.725   7.522
 5760POPC   C1B72847  32.690  40.003   6.272
 5760POPC   C2B72848  32.900  40.117   6.647
 5760POPC   C3B72849  32.766  40.228   7.057
 5760POPC   C4B72850  32.792  40.559   7.382
 5761POPC   NC372851  35.313  15.971   5.217
 5761POPC   PO472852  35.642  16.416   5.534
 5761POPC   GL172853  35.357  16.177   5.834
 5761POPC   GL272854  35.264  15.841   5.752
 5761POPC   C1A72855  35.516  16.041   6.242
 5761POPC   D2A72856  35.619  16.263   6.614
 5761POPC   C3A72857  35.479  16.004   6.935
 5761POPC   C4A72858  35.312  15.881   7.319
 5761POPC   C1B72859  35.182  15.650   6.177
 5761POPC   C2B72860  35.324  15.609   6.594
 5761POPC   C3B72861  35.043  15.721   6.908
 5761POPC   C4B72862  34.914  15.531   7.276
 5762POPC   NC372863  11.685  22.130   5.398
 5762POPC   PO472864  12.274  22.485   5.316
 5762POPC   GL172865  12.027  22.474   5.689
 5762POPC   GL272866  12.093  22.141   5.696
 5762POPC   C1A72867  12.033  22.351   6.135
 5762POPC   D2A72868  12.375  22.326   6.449
 5762POPC   C3A72869  12.264  22.160   6.857
 5762POPC   C4A72870  12.230  22.310   7.287
 5762POPC   C1B72871  12.334  21.927   6.018
 5762POPC   C2B72872  12.428  21.812   6.441
 5762POPC   C3B72873  12.444  21.678   6.850
 5762POPC   C4B72874  12.404  21.828   7.250
 5763POPC   NC372875  36.630   4.903   5.502
 5763POPC   PO472876  36.053   5.098   5.276
 5763POPC   GL172877  36.224   5.218   5.679
 5763POPC   GL272878  36.224   4.893   5.835
 5763POPC   C1A72879  36.277   5.312   6.136
 5763POPC   D2A72880  36.052   5.293   6.521
 5763POPC   C3A72881  36.102   5.279   6.984
 5763POPC   C4A72882  36.247   5.208   7.413
 5763POPC   C1B72883  36.087   4.782   6.267
 5763POPC   C2B72884  36.073   4.797   6.708
 5763POPC   C3B72885  36.056   4.783   7.159
 5763POPC   C4B72886  36.070   4.755   7.595
 5764POPC   NC372887  44.061   7.079   5.578
 5764POPC   PO472888  43.720   6.573   5.289
 5764POPC   GL172889  43.967   6.585   5.685
 5764POPC   GL272890  43.665   6.688   5.860
 5764POPC   C1A72891  44.088   6.608   6.170
 5764POPC   D2A72892  44.267   6.400   6.572
 5764POPC   C3A72893  44.129   6.543   7.017
 5764POPC   C4A72894  44.286   6.890   7.308
 5764POPC   C1B72895  43.592   6.762   6.314
 5764POPC   C2B72896  43.816   6.876   6.719
 5764POPC   C3B72897  43.775   6.953   7.174
 5764POPC   C4B72898  43.555   6.917   7.580
 5765POPC   NC372899  31.508   1.829   5.414
 5765POPC   PO472900  30.934   1.498   5.597
 5765POPC   GL172901  31.181   1.925   5.795
 5765POPC   GL272902  31.541   1.796   5.917
 5765POPC   C1A72903  31.506   2.271   6.042
 5765POPC   D2A72904  31.746   2.164   6.441
 5765POPC   C3A72905  31.689   2.319   6.883
 5765POPC   C4A72906  31.408   2.225   7.253
 5765POPC   C1B72907  31.279   1.903   6.304
 5765POPC   C2B72908  31.332   1.967   6.747
 5765POPC   C3B72909  31.361   1.664   7.055
 5765POPC   C4B72910  31.017   1.382   7.195
 5766POPC   NC372911  44.312  29.987   5.361
 5766POPC   PO472912  44.834  29.597   5.422
 5766POPC   GL172913  44.814  29.967   5.645
 5766POPC   GL272914  44.514  30.131   5.797
 5766POPC   C1A72915  44.890  29.893   6.068
 5766POPC   D2A72916  44.837  30.079   6.462
 5766POPC   C3A72917  44.838  29.814   6.792
 5766POPC   C4A72918  44.874  29.975   7.188
 5766POPC   C1B72919  44.402  30.008   6.189
 5766POPC   C2B72920  44.120  30.104   6.533
 5766POPC   C3B72921  44.413  30.099   6.883
 5766POPC   C4B72922  44.444  30.248   7.286
 5767POPC   NC372923  17.979  23.328   5.430
 5767POPC   PO472924  18.267  22.650   5.548
 5767POPC   GL172925  17.983  22.890   5.764
 5767POPC   GL272926  18.237  23.135   5.820
 5767POPC   C1A72927  17.969  22.756   6.179
 5767POPC   D2A72928  18.298  22.715   6.494
 5767POPC   C3A72929  18.246  22.621   6.922
 5767POPC   C4A72930  18.242  22.794   7.331
 5767POPC   C1B72931  18.313  23.188   6.245
 5767POPC   C2B72932  18.550  23.153   6.607
 5767POPC   C3B72933  18.342  23.123   6.958
 5767POPC   C4B72934  18.390  23.309   7.322
 5768POPC   NC372935  43.086  10.194   5.270
 5768POPC   PO472936  43.256   9.568   5.354
 5768POPC   GL172937  43.087   9.639   5.770
 5768POPC   GL272938  43.341   9.656   6.010
 5768POPC   C1A72939  42.837   9.666   6.161
 5768POPC   D2A72940  42.984   9.805   6.550
 5768POPC   C3A72941  42.947   9.534   6.895
 5768POPC   C4A72942  42.872   9.500   7.336
 5768POPC   C1B72943  43.205   9.363   6.298
 5768POPC   C2B72944  43.210   9.148   6.669
 5768POPC   C3B72945  43.376   9.273   7.043
 5768POPC   C4B72946  43.314   9.269   7.493
 5769POPC   NC372947  16.267  12.505   5.493
 5769POPC   PO472948  15.562  12.543   5.445
 5769POPC   GL172949  15.728  12.801   5.781
 5769POPC   GL272950  16.000  12.599   5.924
 5769POPC   C1A72951  15.686  12.955   6.202
 5769POPC   D2A72952  15.887  13.119   6.566
 5769POPC   C3A72953  15.735  12.947   6.947
 5769POPC   C4A72954  15.697  13.034   7.368
 5769POPC   C1B72955  16.120  12.707   6.350
 5769POPC   C2B72956  16.187  12.736   6.785
 5769POPC   C3B72957  16.025  12.575   7.180
 5769POPC   C4B72958  16.293  12.464   7.525
 5770POPC   NC372959  27.008  11.583   4.992
 5770POPC   PO472960  26.848  11.169   5.511
 5770POPC   GL172961  26.669  11.228   5.886
 5770POPC   GL272962  26.622  11.586   5.815
 5770POPC   C1A72963  26.804  11.066   6.308
 5770POPC   D2A72964  27.053  11.016   6.693
 5770POPC   C3A72965  26.919  11.114   7.124
 5770POPC   C4A72966  27.092  11.225   7.546
 5770POPC   C1B72967  26.899  11.571   6.188
 5770POPC   C2B72968  26.849  11.511   6.631
 5770POPC   C3B72969  26.978  11.608   7.028
 5770POPC   C4B72970  26.808  11.624   7.425
 5771POPC   NC372971   7.177  12.529   5.478
 5771POPC   PO472972   7.721  12.957   5.425
 5771POPC   GL172973   7.464  12.923   5.767
 5771POPC   GL272974   7.561  12.590   5.812
 5771POPC   C1A72975   7.328  12.836   6.202
 5771POPC   D2A72976   7.512  12.747   6.610
 5771POPC   C3A72977   7.282  12.771   7.050
 5771POPC   C4A72978   7.130  12.621   7.492
 5771POPC   C1B72979   7.781  12.552   6.193
 5771POPC   C2B72980   7.836  12.321   6.576
 5771POPC   C3B72981   7.701  12.454   6.955
 5771POPC   C4B72982   7.765  12.706   7.267
 5772POPC   NC372983  29.321  40.970   5.459
 5772POPC   PO472984  28.934  40.403   5.342
 5772POPC   GL172985  28.995  40.676   5.752
 5772POPC   GL272986  29.348  40.616   5.881
 5772POPC   C1A72987  28.894  40.501   6.173
 5772POPC   D2A72988  28.891  40.551   6.623
 5772POPC   C3A72989  28.968  40.902   6.883
 5772POPC   C4A72990  29.033  40.816   7.308
 5772POPC   C1B72991  29.281  40.813   6.309
 5772POPC   C2B72992  29.494  40.773   6.724
 5772POPC   C3B72993  29.524  40.709   7.174
 5772POPC   C4B72994  29.454  41.016   7.499
 5773POPC   NC372995  40.854  20.978   5.459
 5773POPC   PO472996  40.602  21.726   5.252
 5773POPC   GL172997  40.536  21.637   5.763
 5773POPC   GL272998  40.570  21.222   5.847
 5773POPC   C1A72999  40.470  21.539   6.218
 5773POPC   D2A73000  40.296  21.409   6.600
 5773POPC   C3A73001  40.541  21.571   6.907
 5773POPC   C4A73002  40.809  21.558   7.254
 5773POPC   C1B73003  40.575  20.983   6.260
 5773POPC   C2B73004  40.513  20.930   6.697
 5773POPC   C3B73005  40.682  21.056   7.105
 5773POPC   C4B73006  40.698  21.084   7.574
 5774POPC   NC373007   5.682   8.647   5.381
 5774POPC   PO473008   6.010   9.205   5.393
 5774POPC   GL173009   5.885   8.923   5.781
 5774POPC   GL273010   5.641   8.644   5.871
 5774POPC   C1A73011   5.919   8.863   6.251
 5774POPC   D2A73012   5.800   9.071   6.651
 5774POPC   C3A73013   6.023   8.996   7.040
 5774POPC   C4A73014   6.039   9.065   7.501
 5774POPC   C1B73015   5.406   8.766   6.202
 5774POPC   C2B73016   5.480   8.653   6.601
 5774POPC   C3B73017   5.404   8.841   6.955
 5774POPC   C4B73018   5.587   8.825   7.328
 5775POPC   NC373019  16.387  20.854   5.451
 5775POPC   PO473020  17.032  20.641   5.388
 5775POPC   GL173021  16.838  20.752   5.769
 5775POPC   GL273022  16.595  20.515   5.789
 5775POPC   C1A73023  16.539  20.856   6.140
 5775POPC   D2A73024  16.451  20.603   6.489
 5775POPC   C3A73025  16.578  20.821   6.869
 5775POPC   C4A73026  16.588  20.655   7.284
 5775POPC   C1B73027  16.810  20.408   6.160
 5775POPC   C2B73028  16.956  20.519   6.579
 5775POPC   C3B73029  16.771  20.336   6.946
 5775POPC   C4B73030  16.922  20.282   7.373
 5776POPC   NC373031  16.207  11.084   5.207
 5776POPC   PO473032  15.578  11.375   5.350
 5776POPC   GL173033  15.760  11.214   5.742
 5776POPC   GL273034  16.156  11.194   5.768
 5776POPC   C1A73035  15.773  11.151   6.186
 5776POPC   D2A73036  15.689  10.904   6.570
 5776POPC   C3A73037  15.835  11.104   6.956
 5776POPC   C4A73038  15.628  11.228   7.337
 5776POPC   C1B73039  16.207  11.430   6.196
 5776POPC   C2B73040  16.005  11.529   6.606
 5776POPC   C3B73041  16.087  11.582   7.041
 5776POPC   C4B73042  16.103  11.399   7.447
 5777POPC   NC373043  12.550  17.707   5.298
 5777POPC   PO473044  12.918  17.175   5.436
 5777POPC   GL173045  12.787  17.515   5.783
 5777POPC   GL273046  12.518  17.796   5.796
 5777POPC   C1A73047  13.027  17.613   6.208
 5777POPC   D2A73048  13.335  17.415   6.521
 5777POPC   C3A73049  13.323  17.526   6.958
 5777POPC   C4A73050  13.090  17.543   7.321
 5777POPC   C1B73051  12.515  17.665   6.241
 5777POPC   C2B73052  12.710  17.668   6.663
 5777POPC   C3B73053  12.651  17.496   7.080
 5777POPC   C4B73054  12.673  17.268   7.492
 5778POPC   NC373055   6.980  35.322   5.250
 5778POPC   PO473056   6.296  35.428   5.478
 5778POPC   GL173057   6.491  35.358   5.873
 5778POPC   GL273058   6.837  35.292   5.776
 5778POPC   C1A73059   6.687  35.580   6.228
 5778POPC   D2A73060   6.959  35.535   6.625
 5778POPC   C3A73061   6.833  35.583   7.069
 5778POPC   C4A73062   6.524  35.388   7.341
 5778POPC   C1B73063   7.038  35.208   6.204
 5778POPC   C2B73064   7.090  35.002   6.600
 5778POPC   C3B73065   7.134  35.108   7.033
 5778POPC   C4B73066   6.999  35.279   7.479
 5779POPC   NC373067  34.856  41.011   5.060
 5779POPC   PO473068  34.273  41.056   5.460
 5779POPC   GL173069  34.522  40.941   5.870
 5779POPC   GL273070  34.790  41.205   5.990
 5779POPC   C1A73071  34.382  40.698   6.228
 5779POPC   D2A73072  34.570  40.605   6.628
 5779POPC   C3A73073  34.415  40.783   6.983
 5779POPC   C4A73074  34.192  40.534   7.270
 5779POPC   C1B73075  34.850  40.886   6.278
 5779POPC   C2B73076  35.027  40.822   6.678
 5779POPC   C3B73077  34.898  40.623   7.052
 5779POPC   C4B73078  34.722  40.703   7.404
 5780POPC   NC373079  31.319  24.907   5.654
 5780POPC   PO473080  31.217  24.317   5.480
 5780POPC   GL173081  31.491  24.293   5.856
 5780POPC   GL273082  31.635  24.632   5.943
 5780POPC   C1A73083  31.444  24.135   6.300
 5780POPC   D2A73084  31.440  24.313   6.750
 5780POPC   C3A73085  31.358  24.098   7.168
 5780POPC   C4A73086  31.168  24.224   7.584
 5780POPC   C1B73087  31.437  24.691   6.355
 5780POPC   C2B73088  31.453  24.827   6.797
 5780POPC   C3B73089  31.470  24.685   7.220
 5780POPC   C4B73090  31.572  24.814   7.648
 5781POPC   NC373091  28.021   3.373   5.343
 5781POPC   PO473092  28.480   3.829   5.587
 5781POPC   GL173093  28.374   3.448   5.865
 5781POPC   GL273094  28.006   3.403   5.897
 5781POPC   C1A73095  28.535   3.286   6.301
 5781POPC   D2A73096  28.821   3.233   6.703
 5781POPC   C3A73097  28.720   3.219   7.152
 5781POPC   C4A73098  28.483   3.273   7.543
 5781POPC   C1B73099  28.145   3.630   6.295
 5781POPC   C2B73100  28.399   3.641   6.679
 5781POPC   C3B73101  28.353   3.590   7.120
 5781POPC   C4B73102  28.058   3.317   7.257
 5782POPC   NC373103  11.427  35.132   5.487
 5782POPC   PO473104  11.286  35.855   5.369
 5782POPC   GL173105  11.408  35.618   5.723
 5782POPC   GL273106  11.090  35.434   5.772
 5782POPC   C1A73107  11.442  35.407   6.148
 5782POPC   D2A73108  11.227  35.163   6.503
 5782POPC   C3A73109  11.163  35.316   6.928
 5782POPC   C4A73110  11.356  35.167   7.317
 5782POPC   C1B73111  10.884  35.385   6.184
 5782POPC   C2B73112  10.703  35.179   6.579
 5782POPC   C3B73113  10.845  34.922   6.953
 5782POPC   C4B73114  10.844  35.133   7.351
 5783POPC   NC373115  38.972  12.069   5.152
 5783POPC   PO473116  39.395  12.439   5.543
 5783POPC   GL173117  39.208  12.303   5.936
 5783POPC   GL273118  39.128  11.997   5.854
 5783POPC   C1A73119  39.176  12.202   6.376
 5783POPC   D2A73120  38.855  12.151   6.678
 5783POPC   C3A73121  38.812  12.298   7.073
 5783POPC   C4A73122  38.977  12.038   7.361
 5783POPC   C1B73123  39.571  11.970   6.133
 5783POPC   C2B73124  39.563  11.899   6.571
 5783POPC   C3B73125  39.298  12.002   6.932
 5783POPC   C4B73126  39.486  11.914   7.324
 5784POPC   NC373127   4.473  32.090   5.193
 5784POPC   PO473128   4.269  32.744   5.275
 5784POPC   GL173129   4.163  32.400   5.608
 5784POPC   GL273130   4.426  32.157   5.699
 5784POPC   C1A73131   4.168  32.427   6.087
 5784POPC   D2A73132   4.390  32.276   6.468
 5784POPC   C3A73133   4.400  32.395   6.924
 5784POPC   C4A73134   4.226  32.693   7.198
 5784POPC   C1B73135   4.520  31.866   6.008
 5784POPC   C2B73136   4.348  31.742   6.382
 5784POPC   C3B73137   4.367  31.860   6.774
 5784POPC   C4B73138   4.634  31.953   7.107
 5785POPC   NC373139  18.197   5.504   5.550
 5785POPC   PO473140  18.434   6.109   5.287
 5785POPC   GL173141  18.439   6.002   5.710
 5785POPC   GL273142  18.069   5.998   5.682
 5785POPC   C1A73143  18.449   5.803   6.111
 5785POPC   D2A73144  18.697   5.655   6.454
 5785POPC   C3A73145  18.559   5.817   6.876
 5785POPC   C4A73146  18.575   5.648   7.298
 5785POPC   C1B73147  17.965   6.021   6.102
 5785POPC   C2B73148  18.143   5.985   6.492
 5785POPC   C3B73149  18.049   5.991   6.918
 5785POPC   C4B73150  18.123   5.905   7.361
 5786POPC   NC373151  28.091   9.798   5.381
 5786POPC   PO473152  28.537  10.208   5.612
 5786POPC   GL173153  28.397   9.903   5.899
 5786POPC   GL273154  28.047   9.941   5.920
 5786POPC   C1A73155  28.509   9.768   6.333
 5786POPC   D2A73156  28.345   9.899   6.740
 5786POPC   C3A73157  28.491   9.777   7.165
 5786POPC   C4A73158  28.509   9.644   7.618
 5786POPC   C1B73159  28.042   9.580   6.222
 5786POPC   C2B73160  28.080   9.431   6.654
 5786POPC   C3B73161  28.012   9.566   7.088
 5786POPC   C4B73162  28.033   9.483   7.526
 5787POPC   NC373163  38.148  41.771   5.319
 5787POPC   PO473164  38.734  41.523   5.491
 5787POPC   GL173165  38.504  41.672   5.822
 5787POPC   GL273166  38.243  41.430   5.741
 5787POPC   C1A73167  38.670  41.780   6.247
 5787POPC   D2A73168  38.840  41.858   6.681
 5787POPC   C3A73169  38.525  41.763   7.006
 5787POPC   C4A73170  38.445  41.312   7.089
 5787POPC   C1B73171  38.257  41.434   6.199
 5787POPC   C2B73172  38.286  41.550   6.608
 5787POPC   C3B73173  38.019  41.558   6.950
 5787POPC   C4B73174  37.929  41.850   7.247
 5788POPC   NC373175  16.321  36.664   5.477
 5788POPC   PO473176  15.717  36.799   5.113
 5788POPC   GL173177  15.815  36.867   5.585
 5788POPC   GL273178  15.561  36.695   5.736
 5788POPC   C1A73179  15.974  36.714   6.047
 5788POPC   D2A73180  16.243  36.733   6.450
 5788POPC   C3A73181  16.071  36.751   6.888
 5788POPC   C4A73182  16.173  37.002   7.278
 5788POPC   C1B73183  15.541  36.979   6.144
 5788POPC   C2B73184  15.730  36.953   6.562
 5788POPC   C3B73185  15.719  37.101   7.017
 5788POPC   C4B73186  15.737  37.196   7.493
 5789POPC   NC373187  42.480  30.484   5.243
 5789POPC   PO473188  42.696  31.113   5.409
 5789POPC   GL173189  42.372  30.822   5.673
 5789POPC   GL273190  42.400  30.417   5.741
 5789POPC   C1A73191  42.284  30.726   6.127
 5789POPC   D2A73192  42.469  30.722   6.530
 5789POPC   C3A73193  42.211  30.639   6.889
 5789POPC   C4A73194  42.322  30.643   7.321
 5789POPC   C1B73195  42.205  30.199   6.129
 5789POPC   C2B73196  42.066  30.239   6.574
 5789POPC   C3B73197  42.111  30.145   7.005
 5789POPC   C4B73198  41.909  30.359   7.319
 5790POPC   NC373199  12.329  26.880   5.276
 5790POPC   PO473200  11.735  26.811   5.566
 5790POPC   GL173201  12.096  27.067   5.747
 5790POPC   GL273202  12.456  26.987   5.790
 5790POPC   C1A73203  11.982  27.222   6.143
 5790POPC   D2A73204  11.733  27.102   6.496
 5790POPC   C3A73205  11.916  27.025   6.902
 5790POPC   C4A73206  11.799  26.703   7.218
 5790POPC   C1B73207  12.322  26.830   6.209
 5790POPC   C2B73208  12.304  26.683   6.643
 5790POPC   C3B73209  12.282  26.707   7.094
 5790POPC   C4B73210  12.315  27.040   7.368
 5791POPC   NC373211  43.727  28.412   5.484
 5791POPC   PO473212  43.159  28.042   5.367
 5791POPC   GL173213  43.180  28.115   5.835
 5791POPC   GL273214  43.283  28.446   5.954
 5791POPC   C1A73215  43.246  28.076   6.313
 5791POPC   D2A73216  43.124  28.310   6.702
 5791POPC   C3A73217  43.073  28.127   7.089
 5791POPC   C4A73218  43.348  28.167   7.397
 5791POPC   C1B73219  42.926  28.516   6.271
 5791POPC   C2B73220  42.853  28.741   6.682
 5791POPC   C3B73221  42.896  28.596   7.114
 5791POPC   C4B73222  42.817  28.751   7.538
 5792POPC   NC373223  35.702   6.253   5.208
 5792POPC   PO473224  36.241   6.486   5.636
 5792POPC   GL173225  36.063   6.620   5.979
 5792POPC   GL273226  35.885   6.941   5.922
 5792POPC   C1A73227  36.127   6.406   6.365
 5792POPC   D2A73228  36.363   6.510   6.722
 5792POPC   C3A73229  36.203   6.558   7.140
 5792POPC   C4A73230  36.496   6.375   7.436
 5792POPC   C1B73231  35.967   6.900   6.410
 5792POPC   C2B73232  35.969   6.966   6.878
 5792POPC   C3B73233  35.956   7.051   7.346
 5792POPC   C4B73234  35.800   6.956   7.809
 5793POPC   NC373235  25.222  18.709   5.140
 5793POPC   PO473236  24.694  18.265   5.387
 5793POPC   GL173237  24.582  18.270   5.840
 5793POPC   GL273238  24.248  18.406   5.893
 5793POPC   C1A73239  24.517  18.340   6.298
 5793POPC   D2A73240  24.481  18.501   6.688
 5793POPC   C3A73241  24.540  18.177   6.969
 5793POPC   C4A73242  24.615  18.266   7.361
 5793POPC   C1B73243  24.178  18.015   6.147
 5793POPC   C2B73244  24.211  18.042   6.601
 5793POPC   C3B73245  24.101  17.910   7.055
 5793POPC   C4B73246  24.149  18.069   7.486
 5794POPC   NC373247  31.616   2.818   5.307
 5794POPC   PO473248  31.239   2.295   5.398
 5794POPC   GL173249  31.373   2.674   5.730
 5794POPC   GL273250  31.701   2.928   5.790
 5794POPC   C1A73251  31.384   2.773   6.172
 5794POPC   D2A73252  31.287   2.937   6.608
 5794POPC   C3A73253  31.425   2.753   7.029
 5794POPC   C4A73254  31.667   2.997   7.336
 5794POPC   C1B73255  31.879   2.646   6.115
 5794POPC   C2B73256  31.731   2.689   6.518
 5794POPC   C3B73257  31.874   2.880   6.842
 5794POPC   C4B73258  31.985   2.659   7.161
 5795POPC   NC373259   3.756  30.239   5.351
 5795POPC   PO473260   3.166  29.788   5.230
 5795POPC   GL173261   3.276  30.025   5.632
 5795POPC   GL273262   3.634  30.000   5.799
 5795POPC   C1A73263   3.203  30.158   6.066
 5795POPC   D2A73264   3.025  30.088   6.500
 5795POPC   C3A73265   3.301  30.077   6.889
 5795POPC   C4A73266   3.473  30.093   7.330
 5795POPC   C1B73267   3.569  29.771   6.189
 5795POPC   C2B73268   3.653  29.781   6.633
 5795POPC   C3B73269   3.594  29.674   7.063
 5795POPC   C4B73270   3.876  29.780   7.421
 5796POPC   NC373271  38.593  22.540   5.440
 5796POPC   PO473272  38.366  21.860   5.531
 5796POPC   GL173273  38.649  22.104   5.747
 5796POPC   GL273274  38.403  22.332   5.854
 5796POPC   C1A73275  38.721  22.105   6.191
 5796POPC   D2A73276  38.448  22.064   6.531
 5796POPC   C3A73277  38.663  21.852   6.864
 5796POPC   C4A73278  38.701  22.085   7.225
 5796POPC   C1B73279  38.412  22.540   6.225
 5796POPC   C2B73280  38.218  22.531   6.623
 5796POPC   C3B73281  38.324  22.314   6.971
 5796POPC   C4B73282  38.285  22.467   7.366
 5797POPC   NC373283  28.503  14.592   5.424
 5797POPC   PO473284  28.113  14.094   5.532
 5797POPC   GL173285  28.275  14.444   5.832
 5797POPC   GL273286  28.651  14.462   5.899
 5797POPC   C1A73287  28.337  14.701   6.206
 5797POPC   D2A73288  28.542  14.489   6.574
 5797POPC   C3A73289  28.413  14.581   6.999
 5797POPC   C4A73290  28.414  14.364   7.361
 5797POPC   C1B73291  28.518  14.129   6.176
 5797POPC   C2B73292  28.662  13.988   6.572
 5797POPC   C3B73293  28.429  14.055   6.927
 5797POPC   C4B73294  28.574  13.891   7.278
 5798POPC   NC373295  13.303  20.946   5.231
 5798POPC   PO473296  13.660  21.566   5.254
 5798POPC   GL173297  13.507  21.307   5.626
 5798POPC   GL273298  13.744  21.144   5.849
 5798POPC   C1A73299  13.379  21.376   6.085
 5798POPC   D2A73300  13.468  21.744   6.370
 5798POPC   C3A73301  13.566  21.606   6.775
 5798POPC   C4A73302  13.277  21.579   7.094
 5798POPC   C1B73303  13.869  21.320   6.287
 5798POPC   C2B73304  13.827  21.139   6.718
 5798POPC   C3B73305  13.633  21.152   7.111
 5798POPC   C4B73306  13.649  21.440   7.432
 5799POPC   NC373307  14.691   7.151   5.560
 5799POPC   PO473308  14.027   7.330   5.402
 5799POPC   GL173309  14.269   7.336   5.841
 5799POPC   GL273310  14.605   7.514   5.922
 5799POPC   C1A73311  14.302   7.453   6.305
 5799POPC   D2A73312  14.549   7.542   6.672
 5799POPC   C3A73313  14.192   7.617   6.948
 5799POPC   C4A73314  14.011   7.281   7.163
 5799POPC   C1B73315  14.733   7.189   6.265
 5799POPC   C2B73316  14.893   6.988   6.662
 5799POPC   C3B73317  14.716   7.036   7.070
 5799POPC   C4B73318  14.607   7.448   7.191
 5800POPC   NC373319  13.632   2.712   5.495
 5800POPC   PO473320  14.201   3.126   5.486
 5800POPC   GL173321  13.944   2.847   5.856
 5800POPC   GL273322  13.818   2.424   5.845
 5800POPC   C1A73323  13.630   2.744   6.202
 5800POPC   D2A73324  13.722   2.585   6.627
 5800POPC   C3A73325  13.712   2.811   7.028
 5800POPC   C4A73326  13.384   3.031   7.206
 5800POPC   C1B73327  13.679   2.228   6.229
 5800POPC   C2B73328  13.415   2.161   6.603
 5800POPC   C3B73329  13.459   2.347   7.017
 5800POPC   C4B73330  13.517   2.482   7.433
 5801POPC   NC373331   3.345  38.464   5.396
 5801POPC   PO473332   2.746  38.327   5.236
 5801POPC   GL173333   2.820  38.374   5.692
 5801POPC   GL273334   3.010  38.695   5.728
 5801POPC   C1A73335   2.559  38.558   6.069
 5801POPC   D2A73336   2.449  38.657   6.512
 5801POPC   C3A73337   2.712  38.428   6.803
 5801POPC   C4A73338   2.632  38.213   7.165
 5801POPC   C1B73339   3.062  38.697   6.192
 5801POPC   C2B73340   2.933  38.865   6.614
 5801POPC   C3B73341   2.889  38.815   7.076
 5801POPC   C4B73342   3.071  38.451   7.222
 5802POPC   NC373343  36.514  28.192   5.350
 5802POPC   PO473344  35.909  28.665   5.322
 5802POPC   GL173345  36.055  28.684   5.739
 5802POPC   GL273346  36.341  28.488   5.741
 5802POPC   C1A73347  35.985  28.556   6.186
 5802POPC   D2A73348  35.888  28.255   6.522
 5802POPC   C3A73349  35.885  28.458   6.914
 5802POPC   C4A73350  36.085  28.147   7.108
 5802POPC   C1B73351  36.504  28.566   6.176
 5802POPC   C2B73352  36.340  28.524   6.626
 5802POPC   C3B73353  36.421  28.560   7.078
 5802POPC   C4B73354  36.609  28.201   7.322
 5803POPC   NC373355   6.814  44.315   5.518
 5803POPC   PO473356   6.798  43.726   5.236
 5803POPC   GL173357   6.686  43.767   5.696
 5803POPC   GL273358   6.911  43.518   5.865
 5803POPC   C1A73359   6.621  43.980   6.112
 5803POPC   D2A73360   6.545  43.854   6.564
 5803POPC   C3A73361   6.636  44.063   6.984
 5803POPC   C4A73362   6.594  43.920   7.424
 5803POPC   C1B73363   7.057  43.742   6.261
 5803POPC   C2B73364   7.023  43.781   6.719
 5803POPC   C3B73365   6.866  43.623   7.064
 5803POPC   C4B73366   7.013  43.491   7.468
 5804POPC   NC373367  30.511   1.441   5.374
 5804POPC   PO473368  30.868   0.866   5.212
 5804POPC   GL173369  30.709   0.908   5.735
 5804POPC   GL273370  30.570   1.233   5.838
 5804POPC   C1A73371  30.562   0.910   6.212
 5804POPC   D2A73372  30.403   1.174   6.571
 5804POPC   C3A73373  30.599   1.125   6.985
 5804POPC   C4A73374  30.583   0.845   7.321
 5804POPC   C1B73375  30.750   1.398   6.243
 5804POPC   C2B73376  30.692   1.583   6.651
 5804POPC   C3B73377  30.464   1.610   7.032
 5804POPC   C4B73378  30.664   1.672   7.422
 5805POPC   NC373379  18.406  12.434   5.406
 5805POPC   PO473380  18.267  13.156   5.363
 5805POPC   GL173381  18.270  12.876   5.686
 5805POPC   GL273382  18.627  12.805   5.662
 5805POPC   C1A73383  18.408  13.040   6.072
 5805POPC   D2A73384  18.277  13.099   6.478
 5805POPC   C3A73385  18.485  13.023   6.847
 5805POPC   C4A73386  18.455  12.786   7.224
 5805POPC   C1B73387  18.743  12.659   6.061
 5805POPC   C2B73388  18.686  12.725   6.475
 5805POPC   C3B73389  18.720  12.528   6.859
 5805POPC   C4B73390  18.547  12.286   7.177
 5806POPC   NC373391  33.730  21.954   5.343
 5806POPC   PO473392  34.220  21.716   5.573
 5806POPC   GL173393  34.028  22.070   5.842
 5806POPC   GL273394  33.667  22.177   5.823
 5806POPC   C1A73395  33.882  22.183   6.296
 5806POPC   D2A73396  33.657  22.019   6.665
 5806POPC   C3A73397  33.899  21.961   7.020
 5806POPC   C4A73398  34.026  22.279   7.310
 5806POPC   C1B73399  33.436  22.442   6.130
 5806POPC   C2B73400  33.354  22.446   6.555
 5806POPC   C3B73401  33.257  22.441   6.975
 5806POPC   C4B73402  33.519  22.225   7.224
 5807POPC   NC373403  15.174   5.532   5.474
 5807POPC   PO473404  15.398   6.181   5.483
 5807POPC   GL173405  15.112   5.930   5.825
 5807POPC   GL273406  14.947   5.553   5.910
 5807POPC   C1A73407  14.998   5.885   6.277
 5807POPC   D2A73408  15.220   5.777   6.656
 5807POPC   C3A73409  15.112   6.063   6.975
 5807POPC   C4A73410  15.317   5.987   7.319
 5807POPC   C1B73411  15.225   5.418   6.261
 5807POPC   C2B73412  15.129   5.244   6.692
 5807POPC   C3B73413  15.035   5.401   7.105
 5807POPC   C4B73414  15.274   5.511   7.473
 5808POPC   NC373415  20.736  13.234   5.357
 5808POPC   PO473416  20.464  12.637   5.431
 5808POPC   GL173417  20.631  12.882   5.806
 5808POPC   GL273418  20.355  12.854   6.021
 5808POPC   C1A73419  20.823  13.110   6.201
 5808POPC   D2A73420  21.128  12.983   6.548
 5808POPC   C3A73421  20.996  13.066   6.975
 5808POPC   C4A73422  20.792  13.063   7.343
 5808POPC   C1B73423  20.626  12.625   6.287
 5808POPC   C2B73424  20.674  12.763   6.716
 5808POPC   C3B73425  20.405  12.944   7.039
 5808POPC   C4B73426  20.033  13.241   7.017
 5809POPC   NC373427  35.604  10.287   5.586
 5809POPC   PO473428  35.243   9.808   5.182
 5809POPC   GL173429  35.408   9.802   5.667
 5809POPC   GL273430  35.334  10.074   5.953
 5809POPC   C1A73431  35.360   9.586   6.102
 5809POPC   D2A73432  35.444   9.450   6.559
 5809POPC   C3A73433  35.335   9.576   7.001
 5809POPC   C4A73434  34.981   9.718   7.303
 5809POPC   C1B73435  35.403  10.116   6.361
 5809POPC   C2B73436  35.210  10.021   6.700
 5809POPC   C3B73437  35.260  10.068   7.084
 5809POPC   C4B73438  35.436  10.277   7.332
 5810POPC   NC373439  35.039  35.075   4.933
 5810POPC   PO473440  35.221  35.456   5.435
 5810POPC   GL173441  35.411  35.494   5.824
 5810POPC   GL273442  35.298  35.165   5.892
 5810POPC   C1A73443  35.308  35.505   6.274
 5810POPC   D2A73444  35.468  35.379   6.679
 5810POPC   C3A73445  35.402  35.711   6.978
 5810POPC   C4A73446  35.248  35.649   7.392
 5810POPC   C1B73447  35.452  34.882   6.190
 5810POPC   C2B73448  35.387  34.759   6.613
 5810POPC   C3B73449  35.540  34.968   6.983
 5810POPC   C4B73450  35.492  35.160   7.388
 5811POPC   NC373451  17.714  19.819   5.531
 5811POPC   PO473452  17.078  19.978   5.441
 5811POPC   GL173453  17.291  19.862   5.844
 5811POPC   GL273454  17.558  20.100   5.911
 5811POPC   C1A73455  17.517  19.769   6.288
 5811POPC   D2A73456  17.760  19.975   6.655
 5811POPC   C3A73457  17.736  19.715   7.067
 5811POPC   C4A73458  17.506  19.699   7.491
 5811POPC   C1B73459  17.264  20.207   6.256
 5811POPC   C2B73460  17.242  20.106   6.719
 5811POPC   C3B73461  17.379  20.226   7.144
 5811POPC   C4B73462  17.388  20.199   7.620
 5812POPC   NC373463  36.037  25.690   5.183
 5812POPC   PO473464  35.814  26.261   5.409
 5812POPC   GL173465  36.072  26.247   5.842
 5812POPC   GL273466  36.464  26.288   5.807
 5812POPC   C1A73467  36.043  26.085   6.287
 5812POPC   D2A73468  35.993  25.788   6.660
 5812POPC   C3A73469  36.168  26.024   7.030
 5812POPC   C4A73470  36.164  26.046   7.506
 5812POPC   C1B73471  36.391  26.556   6.142
 5812POPC   C2B73472  36.515  26.514   6.549
 5812POPC   C3B73473  36.550  26.356   6.911
 5812POPC   C4B73474  36.525  26.328   7.312
 5813POPC   NC373475  17.758   2.872   5.268
 5813POPC   PO473476  17.195   2.457   5.384
 5813POPC   GL173477  17.330   2.543   5.797
 5813POPC   GL273478  17.450   2.895   5.739
 5813POPC   C1A73479  17.440   2.488   6.239
 5813POPC   D2A73480  17.476   2.495   6.683
 5813POPC   C3A73481  17.783   2.552   6.978
 5813POPC   C4A73482  17.602   2.410   7.325
 5813POPC   C1B73483  17.611   2.999   6.188
 5813POPC   C2B73484  17.704   2.971   6.651
 5813POPC   C3B73485  17.419   2.952   7.015
 5813POPC   C4B73486  17.466   2.951   7.496
 5814POPC   NC373487  20.118   3.514   5.589
 5814POPC   PO473488  20.863   3.684   5.460
 5814POPC   GL173489  20.761   3.579   5.844
 5814POPC   GL273490  20.563   3.307   5.811
 5814POPC   C1A73491  20.758   3.484   6.267
 5814POPC   D2A73492  20.558   3.594   6.641
 5814POPC   C3A73493  20.799   3.608   7.011
 5814POPC   C4A73494  20.825   3.922   7.294
 5814POPC   C1B73495  20.296   3.320   6.189
 5814POPC   C2B73496  20.346   3.136   6.603
 5814POPC   C3B73497  20.421   3.274   7.039
 5814POPC   C4B73498  20.766   3.174   7.313
 5815POPC   NC373499   4.762  12.027   5.400
 5815POPC   PO473500   4.154  12.138   5.303
 5815POPC   GL173501   4.172  12.246   5.758
 5815POPC   GL273502   4.507  12.063   5.843
 5815POPC   C1A73503   4.192  12.151   6.215
 5815POPC   D2A73504   4.416  12.148   6.583
 5815POPC   C3A73505   4.171  12.181   6.957
 5815POPC   C4A73506   4.388  12.283   7.341
 5815POPC   C1B73507   4.509  11.732   6.207
 5815POPC   C2B73508   4.449  11.640   6.679
 5815POPC   C3B73509   4.622  11.914   7.028
 5815POPC   C4B73510   4.611  11.847   7.510
 5816POPC   NC373511  42.180   2.580   5.426
 5816POPC   PO473512  42.731   2.986   5.325
 5816POPC   GL173513  42.571   2.773   5.712
 5816POPC   GL273514  42.241   2.906   5.806
 5816POPC   C1A73515  42.699   2.772   6.135
 5816POPC   D2A73516  42.599   2.907   6.548
 5816POPC   C3A73517  42.321   3.019   6.854
 5816POPC   C4A73518  42.563   2.963   7.206
 5816POPC   C1B73519  42.178   2.708   6.210
 5816POPC   C2B73520  42.229   2.518   6.617
 5816POPC   C3B73521  42.440   2.510   7.004
 5816POPC   C4B73522  42.239   2.600   7.388
 5817POPC   NC373523   2.026   8.847   5.353
 5817POPC   PO473524   1.831   9.489   5.350
 5817POPC   GL173525   1.899   9.187   5.721
 5817POPC   GL273526   1.839   8.805   5.810
 5817POPC   C1A73527   2.139   9.071   6.106
 5817POPC   D2A73528   1.943   8.856   6.459
 5817POPC   C3A73529   2.071   9.053   6.847
 5817POPC   C4A73530   1.876   9.015   7.235
 5817POPC   C1B73531   1.772   8.468   6.104
 5817POPC   C2B73532   1.809   8.369   6.538
 5817POPC   C3B73533   1.758   8.622   6.919
 5817POPC   C4B73534   1.476   8.694   7.306
 5818POPC   NC373535   2.021   0.709   5.315
 5818POPC   PO473536   1.671   1.200   5.368
 5818POPC   GL173537   2.014   1.226   5.698
 5818POPC   GL273538   1.717   1.232   5.870
 5818POPC   C1A73539   2.105   1.133   6.186
 5818POPC   D2A73540   1.984   0.873   6.548
 5818POPC   C3A73541   1.989   1.058   6.973
 5818POPC   C4A73542   2.059   0.994   7.433
 5818POPC   C1B73543   1.640   1.470   6.207
 5818POPC   C2B73544   1.838   1.390   6.581
 5818POPC   C3B73545   1.795   1.582   6.952
 5818POPC   C4B73546   1.726   1.367   7.276
 5819POPC   NC373547  15.436  13.002   5.383
 5819POPC   PO473548  14.793  12.845   5.165
 5819POPC   GL173549  14.856  12.856   5.711
 5819POPC   GL273550  15.206  12.803   5.780
 5819POPC   C1A73551  15.005  12.996   6.181
 5819POPC   D2A73552  14.893  12.864   6.630
 5819POPC   C3A73553  15.188  12.860   6.996
 5819POPC   C4A73554  15.183  13.044   7.416
 5819POPC   C1B73555  15.355  12.578   6.143
 5819POPC   C2B73556  15.454  12.686   6.585
 5819POPC   C3B73557  15.509  12.459   7.000
 5819POPC   C4B73558  15.371  12.583   7.396
 5820POPC   NC373559   3.736  41.684   5.511
 5820POPC   PO473560   3.042  41.500   5.446
 5820POPC   GL173561   3.315  41.600   5.807
 5820POPC   GL273562   3.657  41.471   5.949
 5820POPC   C1A73563   3.245  41.621   6.250
 5820POPC   D2A73564   3.317  41.897   6.616
 5820POPC   C3A73565   3.438  41.623   6.942
 5820POPC   C4A73566   3.270  41.228   7.104
 5820POPC   C1B73567   3.989  41.383   6.247
 5820POPC   C2B73568   3.906  41.431   6.710
 5820POPC   C3B73569   3.803  41.269   7.111
 5820POPC   C4B73570   3.989  41.342   7.568
 5821POPC   NC373571  41.188  40.689   5.648
 5821POPC   PO473572  41.537  41.155   5.444
 5821POPC   GL173573  41.718  41.019   5.841
 5821POPC   GL273574  41.631  40.664   5.873
 5821POPC   C1A73575  41.625  40.921   6.291
 5821POPC   D2A73576  41.318  40.940   6.621
 5821POPC   C3A73577  41.495  41.098   6.994
 5821POPC   C4A73578  41.824  40.949   7.153
 5821POPC   C1B73579  41.345  40.443   6.205
 5821POPC   C2B73580  41.301  40.352   6.623
 5821POPC   C3B73581  41.532  40.547   6.928
 5821POPC   C4B73582  41.347  40.702   7.285
 5822POPC   NC373583  40.251  35.861   5.365
 5822POPC   PO473584  39.640  35.997   5.122
 5822POPC   GL173585  39.897  36.219   5.577
 5822POPC   GL273586  39.786  36.560   5.745
 5822POPC   C1A73587  40.001  36.089   6.061
 5822POPC   D2A73588  39.980  36.141   6.534
 5822POPC   C3A73589  39.936  35.907   6.946
 5822POPC   C4A73590  39.697  35.959   7.312
 5822POPC   C1B73591  40.010  36.593   6.171
 5822POPC   C2B73592  40.223  36.589   6.570
 5822POPC   C3B73593  40.033  36.621   6.964
 5822POPC   C4B73594  39.943  36.385   7.331
 5823POPC   NC373595  31.919  27.790   5.151
 5823POPC   PO473596  32.468  27.422   5.329
 5823POPC   GL173597  32.314  27.667   5.680
 5823POPC   GL273598  32.056  27.426   5.756
 5823POPC   C1A73599  32.333  27.623   6.158
 5823POPC   D2A73600  32.576  27.546   6.543
 5823POPC   C3A73601  32.319  27.681   6.899
 5823POPC   C4A73602  32.284  27.497   7.311
 5823POPC   C1B73603  31.855  27.359   6.167
 5823POPC   C2B73604  31.706  27.520   6.566
 5823POPC   C3B73605  31.839  27.542   6.996
 5823POPC   C4B73606  31.926  27.836   7.319
 5824POPC   NC373607  44.376  13.156   5.517
 5824POPC   PO473608  44.931  13.509   5.449
 5824POPC   GL173609  44.661  13.682   5.796
 5824POPC   GL273610  44.276  13.639   5.769
 5824POPC   C1A73611  44.533  13.831   6.219
 5824POPC   D2A73612  44.377  13.939   6.637
 5824POPC   C3A73613  44.596  13.710   6.927
 5824POPC   C4A73614  44.744  13.457   7.288
 5824POPC   C1B73615  44.142  13.435   6.172
 5824POPC   C2B73616  44.345  13.425   6.595
 5824POPC   C3B73617  44.317  13.310   7.054
 5824POPC   C4B73618  44.416  13.078   7.447
 5825POPC   NC373619  25.707  17.041   5.543
 5825POPC   PO473620  25.342  16.556   5.221
 5825POPC   GL173621  25.288  16.745   5.660
 5825POPC   GL273622  25.518  16.479   5.757
 5825POPC   C1A73623  25.430  16.872   6.115
 5825POPC   D2A73624  25.397  17.053   6.546
 5825POPC   C3A73625  25.286  16.899   6.935
 5825POPC   C4A73626  25.424  17.030   7.281
 5825POPC   C1B73627  25.486  16.367   6.187
 5825POPC   C2B73628  25.314  16.531   6.569
 5825POPC   C3B73629  25.428  16.412   7.016
 5825POPC   C4B73630  25.207  16.574   7.360
 5826POPC   NC373631  12.362   1.680   5.299
 5826POPC   PO473632  11.968   1.088   5.320
 5826POPC   GL173633  12.055   1.364   5.685
 5826POPC   GL273634  12.423   1.461   5.754
 5826POPC   C1A73635  12.030   1.209   6.120
 5826POPC   D2A73636  12.257   1.084   6.517
 5826POPC   C3A73637  11.980   1.191   6.840
 5826POPC   C4A73638  12.006   1.211   7.266
 5826POPC   C1B73639  12.514   1.374   6.167
 5826POPC   C2B73640  12.481   1.582   6.574
 5826POPC   C3B73641  12.307   1.603   7.024
 5826POPC   C4B73642  12.288   1.589   7.487
 5827POPC   NC373643  40.272  17.051   5.465
 5827POPC   PO473644  39.605  16.974   5.166
 5827POPC   GL173645  39.837  16.807   5.601
 5827POPC   GL273646  39.924  16.462   5.745
 5827POPC   C1A73647  39.993  16.869   6.060
 5827POPC   D2A73648  39.942  16.667   6.477
 5827POPC   C3A73649  40.001  16.902   6.841
 5827POPC   C4A73650  40.000  16.766   7.243
 5827POPC   C1B73651  40.209  16.392   6.136
 5827POPC   C2B73652  40.290  16.242   6.538
 5827POPC   C3B73653  40.255  16.436   6.921
 5827POPC   C4B73654  40.308  16.235   7.271
 5828POPC   NC373655  41.445  17.771   5.565
 5828POPC   PO473656  41.805  17.248   5.437
 5828POPC   GL173657  41.671  17.389   5.815
 5828POPC   GL273658  41.333  17.296   5.804
 5828POPC   C1A73659  41.779  17.544   6.203
 5828POPC   D2A73660  41.805  17.357   6.582
 5828POPC   C3A73661  41.873  17.609   6.908
 5828POPC   C4A73662  41.699  17.635   7.316
 5828POPC   C1B73663  41.253  17.532   6.163
 5828POPC   C2B73664  41.181  17.374   6.549
 5828POPC   C3B73665  41.351  17.426   6.948
 5828POPC   C4B73666  41.210  17.481   7.348
 5829POPC   NC373667  30.988  22.437   5.513
 5829POPC   PO473668  31.543  22.054   5.344
 5829POPC   GL173669  31.561  22.245   5.772
 5829POPC   GL273670  31.238  22.315   5.926
 5829POPC   C1A73671  31.597  22.131   6.230
 5829POPC   D2A73672  31.438  21.906   6.598
 5829POPC   C3A73673  31.732  22.042   6.903
 5829POPC   C4A73674  31.755  22.195   7.314
 5829POPC   C1B73675  31.325  22.579   6.270
 5829POPC   C2B73676  31.463  22.421   6.651
 5829POPC   C3B73677  31.348  22.377   7.065
 5829POPC   C4B73678  31.121  22.726   7.265
 5830POPC   NC373679  14.857  23.276   5.681
 5830POPC   PO473680  15.269  23.762   5.334
 5830POPC   GL173681  15.221  23.675   5.745
 5830POPC   GL273682  15.510  23.509   5.837
 5830POPC   C1A73683  15.028  23.897   6.114
 5830POPC   D2A73684  15.061  24.122   6.507
 5830POPC   C3A73685  15.257  23.897   6.838
 5830POPC   C4A73686  15.163  23.936   7.217
 5830POPC   C1B73687  15.279  23.447   6.223
 5830POPC   C2B73688  14.983  23.590   6.556
 5830POPC   C3B73689  15.024  23.454   7.011
 5830POPC   C4B73690  15.443  23.512   7.219
 5831POPC   NC373691  44.710  31.953   5.364
 5831POPC   PO473692  44.535  32.612   5.303
 5831POPC   GL173693  44.558  32.361   5.669
 5831POPC   GL273694  44.940  32.364   5.642
 5831POPC   C1A73695  44.371  32.215   6.078
 5831POPC   D2A73696  44.422  32.391   6.500
 5831POPC   C3A73697  44.508  32.103   6.842
 5831POPC   C4A73698  44.447  32.173   7.223
 5831POPC   C1B73699  44.872  32.264   6.076
 5831POPC   C2B73700  44.805  32.042   6.457
 5831POPC   C3B73701   0.013  31.988   6.832
 5831POPC   C4B73702   0.064  32.278   7.179
 5832POPC   NC373703   8.938  25.841   5.531
 5832POPC   PO473704   9.352  26.340   5.285
 5832POPC   GL173705   9.321  26.230   5.755
 5832POPC   GL273706   8.979  26.283   5.869
 5832POPC   C1A73707   9.264  26.037   6.199
 5832POPC   D2A73708   9.131  26.310   6.546
 5832POPC   C3A73709   9.062  26.130   6.979
 5832POPC   C4A73710   8.809  25.794   7.111
 5832POPC   C1B73711   8.735  26.036   6.205
 5832POPC   C2B73712   8.668  26.073   6.653
 5832POPC   C3B73713   8.541  26.211   7.058
 5832POPC   C4B73714   8.782  26.232   7.444
 5833POPC   NC373715  43.245  42.318   5.142
 5833POPC   PO473716  42.895  42.758   5.473
 5833POPC   GL173717  43.013  42.513   5.790
 5833POPC   GL273718  43.056  42.179   5.642
 5833POPC   C1A73719  43.057  42.576   6.226
 5833POPC   D2A73720  43.313  42.392   6.531
 5833POPC   C3A73721  43.145  42.273   6.905
 5833POPC   C4A73722  43.017  42.544   7.206
 5833POPC   C1B73723  43.203  42.098   6.080
 5833POPC   C2B73724  43.068  41.939   6.494
 5833POPC   C3B73725  43.001  41.779   6.896
 5833POPC   C4B73726  42.967  42.008   7.329
 5834POPC   NC373727   9.412  12.886   5.457
 5834POPC   PO473728   9.927  12.570   5.434
 5834POPC   GL173729   9.818  12.742   5.812
 5834POPC   GL273730   9.516  12.541   5.869
 5834POPC   C1A73731  10.068  12.870   6.180
 5834POPC   D2A73732   9.861  12.990   6.549
 5834POPC   C3A73733   9.878  12.951   6.986
 5834POPC   C4A73734   9.630  13.192   7.248
 5834POPC   C1B73735   9.586  12.621   6.290
 5834POPC   C2B73736   9.343  12.646   6.677
 5834POPC   C3B73737   9.421  12.749   7.061
 5834POPC   C4B73738   9.722  12.469   7.177
 5835POPC   NC373739  40.397   4.748   5.446
 5835POPC   PO473740  40.076   4.066   5.524
 5835POPC   GL173741  40.256   4.389   5.877
 5835POPC   GL273742  40.046   4.705   5.958
 5835POPC   C1A73743  40.295   4.505   6.356
 5835POPC   D2A73744  40.058   4.473   6.737
 5835POPC   C3A73745  40.267   4.686   7.064
 5835POPC   C4A73746  40.446   4.458   7.393
 5835POPC   C1B73747  39.832   4.346   6.239
 5835POPC   C2B73748  39.579   4.279   6.596
 5835POPC   C3B73749  39.678   4.057   6.977
 5835POPC   C4B73750  39.938   4.313   7.220
 5836POPC   NC373751  12.519  42.348   5.470
 5836POPC   PO473752  13.182  42.245   5.357
 5836POPC   GL173753  13.134  42.491   5.766
 5836POPC   GL273754  12.788  42.575   5.868
 5836POPC   C1A73755  13.222  42.436   6.220
 5836POPC   D2A73756  13.048  42.441   6.648
 5836POPC   C3A73757  12.637  42.216   6.787
 5836POPC   C4A73758  12.550  42.139   7.248
 5836POPC   C1B73759  12.681  42.478   6.301
 5836POPC   C2B73760  12.612  42.723   6.705
 5836POPC   C3B73761  12.608  42.649   7.164
 5836POPC   C4B73762  12.452  42.534   7.594
 5837POPC   NC373763  15.082  24.181   5.320
 5837POPC   PO473764  15.440  24.737   5.541
 5837POPC   GL173765  15.316  24.420   5.743
 5837POPC   GL273766  14.967  24.479   5.741
 5837POPC   C1A73767  15.281  24.441   6.178
 5837POPC   D2A73768  15.198  24.631   6.562
 5837POPC   C3A73769  15.374  24.387   6.889
 5837POPC   C4A73770  15.284  24.421   7.306
 5837POPC   C1B73771  14.755  24.349   6.125
 5837POPC   C2B73772  14.698  24.497   6.557
 5837POPC   C3B73773  14.876  24.492   6.954
 5837POPC   C4B73774  14.792  24.269   7.321
 5838POPC   NC373775  28.776   9.090   5.471
 5838POPC   PO473776  28.114   9.322   5.401
 5838POPC   GL173777  28.171   9.186   5.853
 5838POPC   GL273778  28.208   8.837   5.964
 5838POPC   C1A73779  28.371   9.184   6.291
 5838POPC   D2A73780  28.716   9.072   6.584
 5838POPC   C3A73781  28.598   8.960   6.997
 5838POPC   C4A73782  28.458   9.253   7.296
 5838POPC   C1B73783  28.154   8.570   6.334
 5838POPC   C2B73784  28.234   8.546   6.776
 5838POPC   C3B73785  28.193   8.667   7.168
 5838POPC   C4B73786  28.007   9.015   7.310
 5839POPC   NC373787   5.250  18.519   5.501
 5839POPC   PO473788   4.820  18.003   5.476
 5839POPC   GL173789   4.920  18.174   5.848
 5839POPC   GL273790   4.858  18.530   5.874
 5839POPC   C1A73791   5.253  18.244   6.159
 5839POPC   D2A73792   5.253  18.276   6.605
 5839POPC   C3A73793   4.894  18.128   6.795
 5839POPC   C4A73794   4.962  18.072   7.202
 5839POPC   C1B73795   4.796  18.401   6.324
 5839POPC   C2B73796   4.861  18.651   6.710
 5839POPC   C3B73797   4.906  18.572   7.140
 5839POPC   C4B73798   4.762  18.772   7.498
 5840POPC   NC373799   4.221  37.194   5.181
 5840POPC   PO473800   4.162  37.849   5.367
 5840POPC   GL173801   4.194  37.853   5.817
 5840POPC   GL273802   4.398  37.557   5.917
 5840POPC   C1A73803   4.113  37.812   6.263
 5840POPC   D2A73804   4.365  37.569   6.526
 5840POPC   C3A73805   4.323  37.719   6.936
 5840POPC   C4A73806   4.028  37.627   7.233
 5840POPC   C1B73807   4.618  37.889   6.158
 5840POPC   C2B73808   4.803  37.872   6.566
 5840POPC   C3B73809   4.829  37.712   6.965
 5840POPC   C4B73810   4.647  37.778   7.321
 5841POPC   NC373811   6.017   2.267   5.372
 5841POPC   PO473812   5.610   1.783   5.419
 5841POPC   GL173813   5.768   2.025   5.764
 5841POPC   GL273814   5.614   2.348   5.702
 5841POPC   C1A73815   5.903   2.012   6.193
 5841POPC   D2A73816   6.101   2.024   6.581
 5841POPC   C3A73817   5.979   1.764   6.908
 5841POPC   C4A73818   6.071   1.896   7.325
 5841POPC   C1B73819   5.469   2.267   6.148
 5841POPC   C2B73820   5.571   2.146   6.606
 5841POPC   C3B73821   5.741   2.201   7.045
 5841POPC   C4B73822   5.644   2.078   7.494
 5842POPC   NC373823   9.022   5.399   5.572
 5842POPC   PO473824   8.808   6.040   5.444
 5842POPC   GL173825   8.864   5.842   5.852
 5842POPC   GL273826   8.634   5.578   5.948
 5842POPC   C1A73827   9.159   5.842   6.209
 5842POPC   D2A73828   9.269   5.764   6.650
 5842POPC   C3A73829   9.070   6.054   6.923
 5842POPC   C4A73830   8.989   5.898   7.329
 5842POPC   C1B73831   8.778   5.538   6.340
 5842POPC   C2B73832   8.718   5.889   6.564
 5842POPC   C3B73833   8.626   5.805   6.953
 5842POPC   C4B73834   8.685   5.502   7.221
 5843POPC   NC373835  41.921   9.494   5.450
 5843POPC   PO473836  41.487   9.902   5.306
 5843POPC   GL173837  41.448   9.811   5.766
 5843POPC   GL273838  41.799   9.778   5.918
 5843POPC   C1A73839  41.308   9.851   6.239
 5843POPC   D2A73840  41.662   9.845   6.509
 5843POPC   C3A73841  41.593   9.701   6.932
 5843POPC   C4A73842  41.262   9.659   7.233
 5843POPC   C1B73843  41.571   9.444   6.139
 5843POPC   C2B73844  41.348   9.398   6.534
 5843POPC   C3B73845  41.351   9.232   6.960
 5843POPC   C4B73846  41.628   9.272   7.280
 5844POPC   NC373847   0.881  40.369   5.531
 5844POPC   PO473848   0.182  40.407   5.497
 5844POPC   GL173849   0.312  40.182   5.872
 5844POPC   GL273850   0.079  39.882   5.839
 5844POPC   C1A73851   0.705  40.058   6.136
 5844POPC   D2A73852   0.860  39.836   6.528
 5844POPC   C3A73853   0.716  40.075   6.880
 5844POPC   C4A73854   0.432  40.144   7.188
 5844POPC   C1B73855   0.217  39.884   6.281
 5844POPC   C2B73856   0.203  40.021   6.713
 5844POPC   C3B73857   0.028  39.854   7.088
 5844POPC   C4B73858   0.254  39.734   7.431
 5845POPC   NC373859  38.004   0.964   5.356
 5845POPC   PO473860  38.470   1.390   5.479
 5845POPC   GL173861  38.211   1.222   5.799
 5845POPC   GL273862  38.454   0.967   5.889
 5845POPC   C1A73863  38.228   1.285   6.247
 5845POPC   D2A73864  38.438   1.253   6.650
 5845POPC   C3A73865  38.338   1.260   7.081
 5845POPC   C4A73866  38.518   1.533   7.398
 5845POPC   C1B73867  38.731   1.008   6.283
 5845POPC   C2B73868  38.730   0.835   6.739
 5845POPC   C3B73869  38.711   0.893   7.220
 5845POPC   C4B73870  38.929   0.889   7.642
 5846POPC   NC373871  22.534  29.788   5.558
 5846POPC   PO473872  22.107  30.176   5.173
 5846POPC   GL173873  22.135  30.097   5.714
 5846POPC   GL273874  22.444  30.074   5.978
 5846POPC   C1A73875  22.035  29.948   6.207
 5846POPC   D2A73876  21.856  29.735   6.589
 5846POPC   C3A73877  21.911  29.928   7.009
 5846POPC   C4A73878  22.068  29.816   7.425
 5846POPC   C1B73879  22.569  29.785   6.290
 5846POPC   C2B73880  22.373  29.888   6.676
 5846POPC   C3B73881  22.421  29.966   7.087
 5846POPC   C4B73882  22.344  30.254   7.400
 5847POPC   NC373883   6.873   1.275   5.256
 5847POPC   PO473884   6.243   1.010   5.443
 5847POPC   GL173885   6.379   1.319   5.827
 5847POPC   GL273886   6.269   1.680   5.895
 5847POPC   C1A73887   6.599   1.414   6.252
 5847POPC   D2A73888   6.782   1.098   6.480
 5847POPC   C3A73889   6.624   1.114   6.853
 5847POPC   C4A73890   6.751   1.173   7.225
 5847POPC   C1B73891   6.135   1.574   6.344
 5847POPC   C2B73892   6.420   1.585   6.736
 5847POPC   C3B73893   6.395   1.534   7.216
 5847POPC   C4B73894   6.328   1.620   7.693
 5848POPC   NC373895  27.939  28.365   5.373
 5848POPC   PO473896  27.581  27.908   5.567
 5848POPC   GL173897  27.507  28.309   5.741
 5848POPC   GL273898  27.781  28.479   5.887
 5848POPC   C1A73899  27.379  28.328   6.178
 5848POPC   D2A73900  27.238  28.104   6.560
 5848POPC   C3A73901  27.292  28.298   6.969
 5848POPC   C4A73902  27.534  28.205   7.293
 5848POPC   C1B73903  27.926  28.386   6.305
 5848POPC   C2B73904  27.889  28.280   6.757
 5848POPC   C3B73905  27.950  28.458   7.142
 5848POPC   C4B73906  28.003  28.648   7.558
 5849POPC   NC373907  44.359  27.642   5.574
 5849POPC   PO473908  44.154  28.241   5.402
 5849POPC   GL173909  44.162  28.435   5.820
 5849POPC   GL273910  43.944  28.752   5.804
 5849POPC   C1A73911  44.006  28.337   6.277
 5849POPC   D2A73912  43.608  28.369   6.539
 5849POPC   C3A73913  43.640  28.250   6.977
 5849POPC   C4A73914  44.078  28.154   7.126
 5849POPC   C1B73915  44.179  28.811   6.172
 5849POPC   C2B73916  43.885  28.818   6.523
 5849POPC   C3B73917  44.021  28.553   6.812
 5849POPC   C4B73918  44.263  28.634   7.161
 5850POPC   NC373919  31.054  15.354   5.168
 5850POPC   PO473920  30.560  14.860   5.356
 5850POPC   GL173921  30.565  14.941   5.793
 5850POPC   GL273922  30.925  14.948   5.884
 5850POPC   C1A73923  30.398  15.075   6.214
 5850POPC   D2A73924  30.315  14.917   6.660
 5850POPC   C3A73925  30.543  15.141   6.999
 5850POPC   C4A73926  30.629  15.354   7.425
 5850POPC   C1B73927  30.931  15.042   6.332
 5850POPC   C2B73928  31.004  15.258   6.729
 5850POPC   C3B73929  31.236  15.485   7.071
 5850POPC   C4B73930  31.193  15.403   7.529
 5851POPC   NC373931  43.867  30.059   4.955
 5851POPC   PO473932  44.071  30.311   5.574
 5851POPC   GL173933  43.945  30.099   5.926
 5851POPC   GL273934  43.604  29.969   5.867
 5851POPC   C1A73935  43.996  29.727   6.183
 5851POPC   D2A73936  43.864  29.568   6.588
 5851POPC   C3A73937  44.000  29.780   6.965
 5851POPC   C4A73938  44.021  29.965   7.391
 5851POPC   C1B73939  43.588  29.975   6.315
 5851POPC   C2B73940  43.596  30.168   6.677
 5851POPC   C3B73941  43.565  30.031   7.067
 5851POPC   C4B73942  43.622  30.317   7.401
 5852POPC   NC373943  42.980  39.708   5.465
 5852POPC   PO473944  43.499  40.056   5.694
 5852POPC   GL173945  43.180  39.855   5.946
 5852POPC   GL273946  42.833  39.715   5.948
 5852POPC   C1A73947  43.082  40.085   6.317
 5852POPC   D2A73948  43.309  40.227   6.702
 5852POPC   C3A73949  43.122  40.085   7.116
 5852POPC   C4A73950  43.391  39.894   7.461
 5852POPC   C1B73951  42.985  39.596   6.350
 5852POPC   C2B73952  42.889  39.785   6.732
 5852POPC   C3B73953  42.917  39.604   7.124
 5852POPC   C4B73954  42.912  39.732   7.552
 5853POPC   NC373955  35.146   8.294   5.244
 5853POPC   PO473956  35.736   8.073   5.315
 5853POPC   GL173957  35.576   8.191   5.721
 5853POPC   GL273958  35.272   8.412   5.727
 5853POPC   C1A73959  35.375   8.143   6.153
 5853POPC   D2A73960  35.113   8.277   6.512
 5853POPC   C3A73961  35.159   8.141   6.918
 5853POPC   C4A73962  35.473   8.185   7.220
 5853POPC   C1B73963  35.577   8.602   6.004
 5853POPC   C2B73964  35.570   8.523   6.432
 5853POPC   C3B73965  35.497   8.543   6.857
 5853POPC   C4B73966  35.777   8.706   7.151
 5854POPC   NC373967  39.782  17.385   5.030
 5854POPC   PO473968  40.368  17.593   5.331
 5854POPC   GL173969  40.151  17.528   5.698
 5854POPC   GL273970  39.894  17.787   5.645
 5854POPC   C1A73971  40.223  17.360   6.122
 5854POPC   D2A73972  40.026  17.361   6.527
 5854POPC   C3A73973  40.237  17.345   6.929
 5854POPC   C4A73974  39.952  17.313   7.238
 5854POPC   C1B73975  39.872  17.793   6.098
 5854POPC   C2B73976  39.757  17.845   6.529
 5854POPC   C3B73977  39.910  17.748   6.914
 5854POPC   C4B73978  39.783  17.783   7.334
 5855POPC   NC373979  22.757  16.355   5.235
 5855POPC   PO473980  23.246  16.702   5.427
 5855POPC   GL173981  23.041  16.802   5.834
 5855POPC   GL273982  22.742  16.603   5.868
 5855POPC   C1A73983  22.968  16.758   6.297
 5855POPC   D2A73984  23.187  16.562   6.624
 5855POPC   C3A73985  23.139  16.667   7.082
 5855POPC   C4A73986  23.250  16.899   7.462
 5855POPC   C1B73987  22.561  16.456   6.297
 5855POPC   C2B73988  22.725  16.366   6.698
 5855POPC   C3B73989  22.638  16.555   7.107
 5855POPC   C4B73990  22.825  16.645   7.522
 5856POPC   NC373991  29.372  29.095   5.403
 5856POPC   PO473992  28.651  29.264   5.463
 5856POPC   GL173993  28.922  29.058   5.815
 5856POPC   GL273994  29.311  29.015   5.892
 5856POPC   C1A73995  28.953  29.043   6.266
 5856POPC   D2A73996  29.023  29.426   6.497
 5856POPC   C3A73997  28.901  29.299   6.879
 5856POPC   C4A73998  29.112  29.330   7.268
 5856POPC   C1B73999  29.441  29.238   6.270
 5856POPC   C2B74000  29.365  29.095   6.694
 5856POPC   C3B74001  29.411  28.951   7.110
 5856POPC   C4B74002  29.474  29.108   7.546
 5857POPC   NC374003  30.709  16.918   5.418
 5857POPC   PO474004  30.477  16.297   5.608
 5857POPC   GL174005  30.586  16.628   5.881
 5857POPC   GL274006  30.409  16.925   5.826
 5857POPC   C1A74007  30.859  16.732   6.215
 5857POPC   D2A74008  30.956  16.943   6.621
 5857POPC   C3A74009  30.972  16.629   6.945
 5857POPC   C4A74010  30.828  16.754   7.354
 5857POPC   C1B74011  30.259  16.901   6.231
 5857POPC   C2B74012  30.477  16.745   6.553
 5857POPC   C3B74013  30.490  16.777   6.974
 5857POPC   C4B74014  30.333  16.951   7.355
 5858POPC   NC374015  19.180   2.289   5.241
 5858POPC   PO474016  19.260   1.631   5.543
 5858POPC   GL174017  19.166   2.036   5.739
 5858POPC   GL274018  19.442   2.293   5.698
 5858POPC   C1A74019  18.961   2.057   6.134
 5858POPC   D2A74020  19.146   1.951   6.543
 5858POPC   C3A74021  18.930   2.092   6.908
 5858POPC   C4A74022  18.969   1.879   7.288
 5858POPC   C1B74023  19.466   2.220   6.151
 5858POPC   C2B74024  19.456   2.376   6.542
 5858POPC   C3B74025  19.541   2.352   6.963
 5858POPC   C4B74026  19.346   2.232   7.312
 5859POPC   NC374027  38.778  20.457   5.422
 5859POPC   PO474028  39.439  20.618   5.349
 5859POPC   GL174029  39.230  20.449   5.704
 5859POPC   GL274030  39.045  20.730   5.781
 5859POPC   C1A74031  39.114  20.313   6.135
 5859POPC   D2A74032  39.234  20.441   6.583
 5859POPC   C3A74033  38.995  20.452   6.996
 5859POPC   C4A74034  39.156  20.610   7.443
 5859POPC   C1B74035  39.069  20.833   6.217
 5859POPC   C2B74036  38.887  20.843   6.635
 5859POPC   C3B74037  39.090  20.953   7.046
 5859POPC   C4B74038  39.305  21.081   7.421
 5860POPC   NC374039  31.645  20.015   5.600
 5860POPC   PO474040  31.841  19.439   5.685
 5860POPC   GL174041  31.564  19.625   5.961
 5860POPC   GL274042  31.240  19.700   5.779
 5860POPC   C1A74043  31.465  19.919   6.276
 5860POPC   D2A74044  31.575  20.078   6.661
 5860POPC   C3A74045  31.774  19.745   6.839
 5860POPC   C4A74046  31.650  19.764   7.227
 5860POPC   C1B74047  31.087  19.594   6.196
 5860POPC   C2B74048  31.084  19.797   6.635
 5860POPC   C3B74049  31.192  19.889   7.077
 5860POPC   C4B74050  31.235  19.547   7.415
 5861POPC   NC374051  42.174   0.337   5.672
 5861POPC   PO474052  42.589   0.722   5.426
 5861POPC   GL174053  42.666   0.568   5.857
 5861POPC   GL274054  42.592   0.235   5.995
 5861POPC   C1A74055  42.375   0.684   6.209
 5861POPC   D2A74056  42.022   0.645   6.499
 5861POPC   C3A74057  42.218   0.569   6.893
 5861POPC   C4A74058  42.459   0.466   7.256
 5861POPC   C1B74059  42.210   0.163   6.280
 5861POPC   C2B74060  41.979   0.144   6.655
 5861POPC   C3B74061  42.161   0.068   7.052
 5861POPC   C4B74062  42.114   0.120   7.463
 5862POPC   NC374063  19.081  20.476   5.394
 5862POPC   PO474064  19.416  21.082   5.357
 5862POPC   GL174065  19.218  20.845   5.734
 5862POPC   GL274066  18.991  21.033   5.839
 5862POPC   C1A74067  18.923  20.569   6.061
 5862POPC   D2A74068  18.763  20.343   6.468
 5862POPC   C3A74069  18.890  20.454   6.899
 5862POPC   C4A74070  19.066  20.522   7.302
 5862POPC   C1B74071  19.024  21.031   6.240
 5862POPC   C2B74072  18.833  20.847   6.585
 5862POPC   C3B74073  18.797  20.951   7.014
 5862POPC   C4B74074  18.783  21.029   7.461
 5863POPC   NC374075  26.261  42.615   5.442
 5863POPC   PO474076  25.680  42.305   5.214
 5863POPC   GL174077  25.807  42.352   5.700
 5863POPC   GL274078  26.153  42.340   5.845
 5863POPC   C1A74079  25.797  42.455   6.174
 5863POPC   D2A74080  25.701  42.635   6.573
 5863POPC   C3A74081  25.721  42.364   6.936
 5863POPC   C4A74082  26.122  42.332   7.164
 5863POPC   C1B74083  26.425  42.204   6.190
 5863POPC   C2B74084  26.524  42.189   6.610
 5863POPC   C3B74085  26.503  41.993   6.982
 5863POPC   C4B74086  26.384  41.946   7.411
 5864POPC   NC374087  21.811  14.338   5.442
 5864POPC   PO474088  22.445  14.077   5.533
 5864POPC   GL174089  22.151  14.228   5.914
 5864POPC   GL274090  21.786  14.259   5.931
 5864POPC   C1A74091  22.014  14.223   6.389
 5864POPC   D2A74092  21.906  14.346   6.800
 5864POPC   C3A74093  22.240  14.209   7.029
 5864POPC   C4A74094  22.338  13.991   7.433
 5864POPC   C1B74095  21.848  14.630   6.142
 5864POPC   C2B74096  21.780  14.765   6.538
 5864POPC   C3B74097  21.704  14.807   6.966
 5864POPC   C4B74098  21.795  14.662   7.402
 5865POPC   NC374099  23.148   0.550   5.662
 5865POPC   PO474100  22.709   0.103   5.512
 5865POPC   GL174101  22.728   0.381   5.873
 5865POPC   GL274102  22.619   0.752   5.925
 5865POPC   C1A74103  22.840   0.361   6.315
 5865POPC   D2A74104  22.559   0.251   6.631
 5865POPC   C3A74105  22.732   0.293   7.010
 5865POPC   C4A74106  23.008   0.070   7.262
 5865POPC   C1B74107  22.975   0.841   6.203
 5865POPC   C2B74108  23.183   0.723   6.537
 5865POPC   C3B74109  23.073   0.718   6.944
 5865POPC   C4B74110  23.038   0.576   7.335
 5866POPC   NC374111  13.480  42.616   5.401
 5866POPC   PO474112  13.825  41.967   5.403
 5866POPC   GL174113  13.647  42.023   5.841
 5866POPC   GL274114  13.639  42.359   5.815
 5866POPC   C1A74115  13.599  42.067   6.327
 5866POPC   D2A74116  13.739  42.145   6.758
 5866POPC   C3A74117  13.435  42.335   6.992
 5866POPC   C4A74118  13.036  42.184   7.081
 5866POPC   C1B74119  13.865  42.476   6.169
 5866POPC   C2B74120  13.706  42.637   6.572
 5866POPC   C3B74121  13.909  42.602   6.947
 5866POPC   C4B74122  13.878  42.320   7.264
 5867POPC   NC374123  14.275  40.645   5.392
 5867POPC   PO474124  13.624  40.498   5.617
 5867POPC   GL174125  13.665  40.711   5.961
 5867POPC   GL274126  13.675  41.050   5.862
 5867POPC   C1A74127  13.503  40.581   6.344
 5867POPC   D2A74128  13.398  40.754   6.713
 5867POPC   C3A74129  13.806  40.727   6.907
 5867POPC   C4A74130  13.895  40.478   7.250
 5867POPC   C1B74131  13.473  41.097   6.264
 5867POPC   C2B74132  13.683  41.165   6.656
 5867POPC   C3B74133  13.532  41.145   7.076
 5867POPC   C4B74134  13.415  41.126   7.564
 5868POPC   NC374135  18.247  43.567   5.116
 5868POPC   PO474136  18.094  44.243   5.282
 5868POPC   GL174137  18.346  43.996   5.606
 5868POPC   GL274138  18.595  44.160   5.805
 5868POPC   C1A74139  18.306  43.802   6.053
 5868POPC   D2A74140  18.464  43.929   6.474
 5868POPC   C3A74141  18.236  43.830   6.865
 5868POPC   C4A74142  18.201  43.877   7.319
 5868POPC   C1B74143  18.302  44.317   6.127
 5868POPC   C2B74144  18.192  44.466   6.566
 5868POPC   C3B74145  18.183  44.340   7.020
 5868POPC   C4B74146  18.558  44.236   7.250
 5869POPC   NC374147  40.774  36.517   5.396
 5869POPC   PO474148  41.020  37.215   5.458
 5869POPC   GL174149  40.921  37.113   5.892
 5869POPC   GL274150  40.725  36.834   5.816
 5869POPC   C1A74151  40.937  37.066   6.356
 5869POPC   D2A74152  41.059  36.921   6.747
 5869POPC   C3A74153  40.973  37.167   7.087
 5869POPC   C4A74154  40.626  37.422   7.192
 5869POPC   C1B74155  40.895  36.604   6.153
 5869POPC   C2B74156  40.734  36.576   6.561
 5869POPC   C3B74157  40.658  36.655   6.993
 5869POPC   C4B74158  40.639  36.414   7.328
 5870POPC   NC374159   8.773  22.276   5.269
 5870POPC   PO474160   9.297  21.910   5.436
 5870POPC   GL174161   9.045  22.193   5.716
 5870POPC   GL274162   8.651  22.111   5.737
 5870POPC   C1A74163   9.033  22.082   6.156
 5870POPC   D2A74164   9.013  21.947   6.583
 5870POPC   C3A74165   9.235  22.188   6.931
 5870POPC   C4A74166   9.119  22.198   7.345
 5870POPC   C1B74167   8.538  22.226   6.139
 5870POPC   C2B74168   8.641  22.292   6.561
 5870POPC   C3B74169   8.728  22.164   6.970
 5870POPC   C4B74170   8.640  22.373   7.340
 5871POPC   NC374171  24.035  33.004   5.548
 5871POPC   PO474172  24.592  33.134   5.238
 5871POPC   GL174173  24.507  32.962   5.726
 5871POPC   GL274174  24.241  32.732   5.922
 5871POPC   C1A74175  24.463  33.064   6.219
 5871POPC   D2A74176  24.499  32.813   6.630
 5871POPC   C3A74177  24.786  33.002   6.968
 5871POPC   C4A74178  24.937  32.861   7.392
 5871POPC   C1B74179  23.961  32.899   6.241
 5871POPC   C2B74180  24.045  33.081   6.634
 5871POPC   C3B74181  24.212  32.957   7.032
 5871POPC   C4B74182  24.492  33.108   7.381
 5872POPC   NC374183  44.883  23.886   5.437
 5872POPC   PO474184   0.602  23.677   5.448
 5872POPC   GL174185   0.543  23.842   5.855
 5872POPC   GL274186   0.245  24.011   5.785
 5872POPC   C1A74187   0.385  23.793   6.288
 5872POPC   D2A74188   0.282  23.736   6.725
 5872POPC   C3A74189   0.458  23.760   7.119
 5872POPC   C4A74190   0.398  23.645   7.548
 5872POPC   C1B74191   0.107  24.217   6.147
 5872POPC   C2B74192  44.994  24.118   6.566
 5872POPC   C3B74193   0.180  24.181   6.989
 5872POPC   C4B74194   0.057  24.011   7.397
 5873POPC   NC374195   4.874   2.731   5.393
 5873POPC   PO474196   5.197   3.222   5.287
 5873POPC   GL174197   5.191   2.925   5.734
 5873POPC   GL274198   4.870   2.745   5.890
 5873POPC   C1A74199   5.302   2.772   6.173
 5873POPC   D2A74200   5.176   2.487   6.516
 5873POPC   C3A74201   5.369   2.538   6.922
 5873POPC   C4A74202   5.122   2.567   7.300
 5873POPC   C1B74203   4.844   3.008   6.250
 5873POPC   C2B74204   4.852   2.908   6.670
 5873POPC   C3B74205   4.966   3.128   7.003
 5873POPC   C4B74206   4.972   3.087   7.397
 5874POPC   NC374207  15.139  20.006   5.114
 5874POPC   PO474208  14.884  19.630   5.591
 5874POPC   GL174209  15.217  19.781   5.791
 5874POPC   GL274210  15.351  20.119   5.747
 5874POPC   C1A74211  15.299  19.624   6.187
 5874POPC   D2A74212  15.446  19.473   6.572
 5874POPC   C3A74213  15.215  19.509   6.954
 5874POPC   C4A74214  15.185  19.510   7.386
 5874POPC   C1B74215  15.163  20.119   6.184
 5874POPC   C2B74216  15.296  19.969   6.588
 5874POPC   C3B74217  15.374  19.994   7.010
 5874POPC   C4B74218  15.120  20.022   7.375
 5875POPC   NC374219  14.844  37.864   5.277
 5875POPC   PO474220  14.334  37.495   5.574
 5875POPC   GL174221  14.423  37.747   5.899
 5875POPC   GL274222  14.755  37.830   5.786
 5875POPC   C1A74223  14.297  37.648   6.320
 5875POPC   D2A74224  14.271  37.497   6.743
 5875POPC   C3A74225  14.318  37.859   7.009
 5875POPC   C4A74226  14.053  37.930   7.385
 5875POPC   C1B74227  14.806  37.776   6.233
 5875POPC   C2B74228  14.702  37.752   6.646
 5875POPC   C3B74229  14.804  37.392   6.861
 5875POPC   C4B74230  14.870  37.419   7.272
 5876POPC   NC374231  39.468  36.365   5.333
 5876POPC   PO474232  38.917  36.030   5.443
 5876POPC   GL174233  39.211  36.067   5.782
 5876POPC   GL274234  39.268  36.420   5.842
 5876POPC   C1A74235  39.139  36.050   6.236
 5876POPC   D2A74236  39.177  36.371   6.593
 5876POPC   C3A74237  39.086  36.151   6.985
 5876POPC   C4A74238  39.285  35.746   7.097
 5876POPC   C1B74239  39.563  36.339   6.190
 5876POPC   C2B74240  39.672  36.550   6.592
 5876POPC   C3B74241  39.564  36.366   7.000
 5876POPC   C4B74242  39.402  36.476   7.432
 5877POPC   NC374243  29.606  31.226   5.517
 5877POPC   PO474244  30.058  31.665   5.248
 5877POPC   GL174245  30.095  31.413   5.777
 5877POPC   GL274246  29.928  31.557   6.146
 5877POPC   C1A74247  30.110  31.112   6.183
 5877POPC   D2A74248  29.953  31.142   6.609
 5877POPC   C3A74249  29.950  31.566   6.837
 5877POPC   C4A74250  30.324  31.760   7.060
 5877POPC   C1B74251  29.595  31.253   6.265
 5877POPC   C2B74252  29.480  31.279   6.688
 5877POPC   C3B74253  29.506  31.419   7.092
 5877POPC   C4B74254  29.849  31.573   7.392
 5878POPC   NC374255  22.337  15.169   5.626
 5878POPC   PO474256  21.714  15.582   5.479
 5878POPC   GL174257  21.864  15.393   5.877
 5878POPC   GL274258  21.999  15.069   5.976
 5878POPC   C1A74259  21.975  15.433   6.318
 5878POPC   D2A74260  21.931  15.234   6.738
 5878POPC   C3A74261  22.373  15.197   6.854
 5878POPC   C4A74262  22.568  15.462   7.149
 5878POPC   C1B74263  22.210  14.981   6.389
 5878POPC   C2B74264  22.276  14.694   6.718
 5878POPC   C3B74265  22.187  14.711   7.091
 5878POPC   C4B74266  22.082  15.076   7.242
 5879POPC   NC374267   2.450  28.439   5.380
 5879POPC   PO474268   1.885  28.275   5.345
 5879POPC   GL174269   2.022  28.463   5.730
 5879POPC   GL274270   2.206  28.200   5.815
 5879POPC   C1A74271   1.918  28.492   6.192
 5879POPC   D2A74272   1.638  28.330   6.519
 5879POPC   C3A74273   1.681  28.451   6.954
 5879POPC   C4A74274   1.923  28.511   7.339
 5879POPC   C1B74275   1.917  27.983   6.141
 5879POPC   C2B74276   1.812  27.853   6.573
 5879POPC   C3B74277   1.948  28.027   6.969
 5879POPC   C4B74278   2.179  27.936   7.323
 5880POPC   NC374279  44.885  18.710   5.479
 5880POPC   PO474280  44.603  19.368   5.418
 5880POPC   GL174281  44.702  19.273   5.826
 5880POPC   GL274282  44.656  18.900   5.912
 5880POPC   C1A74283  44.479  19.318   6.190
 5880POPC   D2A74284  44.552  19.125   6.570
 5880POPC   C3A74285  44.553  19.385   6.915
 5880POPC   C4A74286  44.570  19.199   7.293
 5880POPC   C1B74287  44.941  18.683   6.209
 5880POPC   C2B74288   0.043  18.727   6.643
 5880POPC   C3B74289  44.819  18.866   7.005
 5880POPC   C4B74290  44.669  18.712   7.426
 5881POPC   NC374291  33.326  10.948   5.117
 5881POPC   PO474292  33.138  11.505   5.510
 5881POPC   GL174293  32.960  11.231   5.789
 5881POPC   GL274294  32.677  11.071   5.706
 5881POPC   C1A74295  33.095  11.188   6.183
 5881POPC   D2A74296  33.307  11.319   6.536
 5881POPC   C3A74297  32.987  11.478   6.814
 5881POPC   C4A74298  32.942  11.382   7.252
 5881POPC   C1B74299  32.663  10.888   6.147
 5881POPC   C2B74300  32.845  10.998   6.578
 5881POPC   C3B74301  33.138  10.983   6.911
 5881POPC   C4B74302  32.957  10.856   7.275
 5882POPC   NC374303  40.835  24.599   5.188
 5882POPC   PO474304  40.276  24.491   5.464
 5882POPC   GL174305  40.700  24.423   5.709
 5882POPC   GL274306  40.981  24.667   5.835
 5882POPC   C1A74307  40.792  24.329   6.179
 5882POPC   D2A74308  41.029  24.344   6.599
 5882POPC   C3A74309  40.891  24.316   7.047
 5882POPC   C4A74310  41.034  24.266   7.488
 5882POPC   C1B74311  40.986  24.794   6.321
 5882POPC   C2B74312  41.040  24.858   6.813
 5882POPC   C3B74313  41.009  24.761   7.287
 5882POPC   C4B74314  41.165  24.687   7.743
 5883POPC   NC374315  43.239  27.862   4.934
 5883POPC   PO474316  43.765  27.410   5.128
 5883POPC   GL174317  43.403  27.547   5.529
 5883POPC   GL274318  43.016  27.649   5.676
 5883POPC   C1A74319  43.382  27.611   6.024
 5883POPC   D2A74320  43.209  27.581   6.446
 5883POPC   C3A74321  43.360  27.834   6.782
 5883POPC   C4A74322  43.308  27.684   7.208
 5883POPC   C1B74323  42.825  27.454   6.105
 5883POPC   C2B74324  42.828  27.265   6.554
 5883POPC   C3B74325  42.891  27.436   6.965
 5883POPC   C4B74326  42.755  27.755   7.216
 5884POPC   NC374327   7.274  31.808   5.542
 5884POPC   PO474328   7.185  31.292   5.181
 5884POPC   GL174329   7.492  31.398   5.708
 5884POPC   GL274330   7.444  31.657   5.980
 5884POPC   C1A74331   7.430  31.182   6.150
 5884POPC   D2A74332   7.271  31.300   6.552
 5884POPC   C3A74333   7.408  31.141   6.939
 5884POPC   C4A74334   7.244  31.323   7.301
 5884POPC   C1B74335   7.561  31.682   6.393
 5884POPC   C2B74336   7.657  31.601   6.846
 5884POPC   C3B74337   7.447  31.769   7.214
 5884POPC   C4B74338   7.046  31.852   7.467
 5885POPC   NC374339   9.203  23.381   5.068
 5885POPC   PO474340   8.981  22.715   5.320
 5885POPC   GL174341   8.964  22.852   5.767
 5885POPC   GL274342   8.747  22.596   5.853
 5885POPC   C1A74343   8.881  23.092   6.170
 5885POPC   D2A74344   9.125  23.163   6.556
 5885POPC   C3A74345   8.889  23.251   6.917
 5885POPC   C4A74346   9.040  23.252   7.308
 5885POPC   C1B74347   8.939  22.584   6.246
 5885POPC   C2B74348   8.801  22.777   6.627
 5885POPC   C3B74349   8.950  22.629   7.003
 5885POPC   C4B74350   9.026  22.706   7.407
 5886POPC   NC374351  19.050  28.236   5.328
 5886POPC   PO474352  18.996  27.501   5.354
 5886POPC   GL174353  19.095  27.398   5.849
 5886POPC   GL274354  19.308  27.088   6.017
 5886POPC   C1A74355  19.256  27.534   6.279
 5886POPC   D2A74356  19.523  27.499   6.682
 5886POPC   C3A74357  19.348  27.740   7.024
 5886POPC   C4A74358  19.142  28.052   7.294
 5886POPC   C1B74359  19.290  27.055   6.450
 5886POPC   C2B74360  18.881  27.123   6.665
 5886POPC   C3B74361  18.584  27.183   7.000
 5886POPC   C4B74362  18.852  27.380   7.276
 5887POPC   NC374363  39.154  17.168   5.347
 5887POPC   PO474364  39.519  17.739   5.140
 5887POPC   GL174365  39.429  17.540   5.577
 5887POPC   GL274366  39.686  17.298   5.593
 5887POPC   C1A74367  39.219  17.371   6.009
 5887POPC   D2A74368  38.995  17.296   6.430
 5887POPC   C3A74369  39.034  17.489   6.839
 5887POPC   C4A74370  38.895  17.777   7.161
 5887POPC   C1B74371  39.716  17.305   6.062
 5887POPC   C2B74372  39.508  17.384   6.483
 5887POPC   C3B74373  39.524  17.379   6.951
 5887POPC   C4B74374  39.537  17.044   7.252
 5888POPC   NC374375  21.592  26.451   5.513
 5888POPC   PO474376  21.090  26.137   5.331
 5888POPC   GL174377  21.195  25.935   5.711
 5888POPC   GL274378  21.561  25.965   5.771
 5888POPC   C1A74379  21.206  26.004   6.149
 5888POPC   D2A74380  21.137  26.231   6.523
 5888POPC   C3A74381  21.294  26.025   6.880
 5888POPC   C4A74382  21.217  25.950   7.313
 5888POPC   C1B74383  21.725  26.124   6.205
 5888POPC   C2B74384  21.831  26.003   6.665
 5888POPC   C3B74385  21.736  25.899   7.132
 5888POPC   C4B74386  21.632  26.086   7.567
 5889POPC   NC374387  40.732  39.212   5.445
 5889POPC   PO474388  41.273  39.542   5.617
 5889POPC   GL174389  40.958  39.391   5.875
 5889POPC   GL274390  41.076  39.079   5.788
 5889POPC   C1A74391  40.708  39.279   6.243
 5889POPC   D2A74392  40.840  39.399   6.645
 5889POPC   C3A74393  40.622  39.478   7.013
 5889POPC   C4A74394  40.762  39.578   7.396
 5889POPC   C1B74395  41.067  38.907   6.172
 5889POPC   C2B74396  40.869  38.863   6.574
 5889POPC   C3B74397  40.892  39.027   6.992
 5889POPC   C4B74398  40.700  39.046   7.348
 5890POPC   NC374399  35.510  21.206   5.456
 5890POPC   PO474400  34.838  21.342   5.432
 5890POPC   GL174401  35.121  21.134   5.735
 5890POPC   GL274402  35.210  21.469   5.798
 5890POPC   C1A74403  35.385  21.076   6.136
 5890POPC   D2A74404  35.265  21.105   6.579
 5890POPC   C3A74405  35.492  21.025   6.957
 5890POPC   C4A74406  35.455  21.147   7.362
 5890POPC   C1B74407  35.369  21.575   6.202
 5890POPC   C2B74408  35.555  21.559   6.592
 5890POPC   C3B74409  35.417  21.543   6.999
 5890POPC   C4B74410  35.198  21.613   7.360
 5891POPC   NC374411  25.918  38.040   5.201
 5891POPC   PO474412  25.678  37.376   5.536
 5891POPC   GL174413  25.872  37.277   5.949
 5891POPC   GL274414  25.909  37.635   5.984
 5891POPC   C1A74415  26.131  37.401   6.354
 5891POPC   D2A74416  26.185  37.668   6.741
 5891POPC   C3A74417  26.054  37.427   7.082
 5891POPC   C4A74418  26.253  37.235   7.435
 5891POPC   C1B74419  26.058  37.940   6.319
 5891POPC   C2B74420  25.808  38.137   6.671
 5891POPC   C3B74421  25.777  37.888   7.036
 5891POPC   C4B74422  26.057  37.868   7.324
 5892POPC   NC374423  31.146  43.553   5.126
 5892POPC   PO474424  30.887  44.113   5.472
 5892POPC   GL174425  30.677  44.173   5.871
 5892POPC   GL274426  30.676  43.816   5.970
 5892POPC   C1A74427  30.693  44.142   6.347
 5892POPC   D2A74428  30.626  43.848   6.645
 5892POPC   C3A74429  30.747  44.012   7.038
 5892POPC   C4A74430  30.566  44.088   7.428
 5892POPC   C1B74431  31.051  43.768   6.280
 5892POPC   C2B74432  31.151  43.702   6.706
 5892POPC   C3B74433  31.113  43.675   7.133
 5892POPC   C4B74434  31.083  43.919   7.490
 5893POPC   NC374435  10.310  41.803   5.417
 5893POPC   PO474436  10.982  41.677   5.302
 5893POPC   GL174437  10.738  41.610   5.661
 5893POPC   GL274438  10.651  41.282   5.610
 5893POPC   C1A74439  10.512  41.651   6.060
 5893POPC   D2A74440  10.542  41.836   6.458
 5893POPC   C3A74441  10.643  41.654   6.841
 5893POPC   C4A74442  10.402  41.519   7.162
 5893POPC   C1B74443  10.783  41.230   6.039
 5893POPC   C2B74444  10.744  41.319   6.476
 5893POPC   C3B74445  10.788  41.133   6.920
 5893POPC   C4B74446  10.739  41.191   7.374
 5894POPC   NC374447  15.490  26.762   5.437
 5894POPC   PO474448  16.215  26.782   5.485
 5894POPC   GL174449  15.894  26.811   5.827
 5894POPC   GL274450  15.760  26.503   5.864
 5894POPC   C1A74451  15.805  26.766   6.304
 5894POPC   D2A74452  16.125  26.663   6.644
 5894POPC   C3A74453  16.066  26.802   7.083
 5894POPC   C4A74454  16.211  27.203   7.289
 5894POPC   C1B74455  16.148  26.416   6.178
 5894POPC   C2B74456  16.375  26.229   6.546
 5894POPC   C3B74457  16.181  26.227   6.951
 5894POPC   C4B74458  16.220  26.403   7.366
 5895POPC   NC374459   4.170   9.901   5.377
 5895POPC   PO474460   4.752   9.560   5.123
 5895POPC   GL174461   4.558   9.619   5.649
 5895POPC   GL274462   4.202   9.745   5.847
 5895POPC   C1A74463   4.611   9.777   6.121
 5895POPC   D2A74464   4.473   9.668   6.558
 5895POPC   C3A74465   4.647   9.863   6.959
 5895POPC   C4A74466   4.417  10.019   7.348
 5895POPC   C1B74467   4.046   9.529   6.229
 5895POPC   C2B74468   3.991   9.486   6.700
 5895POPC   C3B74469   4.178   9.672   7.091
 5895POPC   C4B74470   4.159   9.548   7.592
 5896POPC   NC374471  33.996  21.296   5.591
 5896POPC   PO474472  33.424  21.472   5.365
 5896POPC   GL174473  33.697  21.638   5.757
 5896POPC   GL274474  33.638  21.331   5.963
 5896POPC   C1A74475  33.964  21.688   6.170
 5896POPC   D2A74476  34.095  21.670   6.611
 5896POPC   C3A74477  33.762  21.480   6.826
 5896POPC   C4A74478  33.603  21.145   7.085
 5896POPC   C1B74479  33.979  21.182   6.258
 5896POPC   C2B74480  34.143  21.098   6.649
 5896POPC   C3B74481  34.098  21.160   7.077
 5896POPC   C4B74482  34.125  21.120   7.520
 5897POPC   NC374483  27.696  37.409   5.414
 5897POPC   PO474484  27.264  37.895   5.317
 5897POPC   GL174485  27.520  37.800   5.690
 5897POPC   GL274486  27.365  37.484   5.806
 5897POPC   C1A74487  27.589  37.817   6.135
 5897POPC   D2A74488  27.431  37.903   6.552
 5897POPC   C3A74489  27.665  38.116   6.863
 5897POPC   C4A74490  27.786  37.884   7.226
 5897POPC   C1B74491  27.399  37.358   6.253
 5897POPC   C2B74492  27.187  37.464   6.666
 5897POPC   C3B74493  27.266  37.743   7.035
 5897POPC   C4B74494  27.378  37.480   7.399
 5898POPC   NC374495  44.077  32.727   5.365
 5898POPC   PO474496  43.667  32.141   5.457
 5898POPC   GL174497  43.902  32.282   5.798
 5898POPC   GL274498  43.903  32.629   5.818
 5898POPC   C1A74499  43.871  32.120   6.219
 5898POPC   D2A74500  44.145  31.947   6.515
 5898POPC   C3A74501  44.013  32.098   6.914
 5898POPC   C4A74502  43.999  31.943   7.341
 5898POPC   C1B74503  44.039  32.599   6.200
 5898POPC   C2B74504  43.926  32.502   6.590
 5898POPC   C3B74505  44.166  32.601   6.918
 5898POPC   C4B74506  43.971  32.456   7.270
 5899POPC   NC374507  17.377  25.339   5.440
 5899POPC   PO474508  17.842  24.785   5.459
 5899POPC   GL174509  17.607  25.025   5.796
 5899POPC   GL274510  17.688  25.398   5.853
 5899POPC   C1A74511  17.580  25.071   6.262
 5899POPC   D2A74512  17.360  24.898   6.632
 5899POPC   C3A74513  17.475  25.142   7.005
 5899POPC   C4A74514  17.566  25.150   7.430
 5899POPC   C1B74515  17.388  25.530   6.169
 5899POPC   C2B74516  17.297  25.453   6.610
 5899POPC   C3B74517  17.070  25.508   7.007
 5899POPC   C4B74518  17.214  25.550   7.436
 5900POPC   NC374519  11.018   8.794   5.195
 5900POPC   PO474520  10.372   8.777   5.397
 5900POPC   GL174521  10.381   8.809   5.842
 5900POPC   GL274522  10.617   8.563   5.873
 5900POPC   C1A74523  10.313   8.923   6.288
 5900POPC   D2A74524  10.553   9.139   6.624
 5900POPC   C3A74525  10.754   8.980   7.014
 5900POPC   C4A74526  10.644   9.033   7.457
 5900POPC   C1B74527  10.715   8.595   6.299
 5900POPC   C2B74528  10.471   8.611   6.686
 5900POPC   C3B74529  10.403   8.661   7.123
 5900POPC   C4B74530  10.686   8.525   7.386
 5901POPC   NC374531   4.521   4.482   5.505
 5901POPC   PO474532   3.885   4.514   5.467
 5901POPC   GL174533   4.070   4.253   5.783
 5901POPC   GL274534   4.415   4.201   5.893
 5901POPC   C1A74535   4.072   4.429   6.188
 5901POPC   D2A74536   4.269   4.261   6.519
 5901POPC   C3A74537   4.084   4.290   6.909
 5901POPC   C4A74538   4.038   4.445   7.308
 5901POPC   C1B74539   4.714   4.181   6.181
 5901POPC   C2B74540   4.782   4.395   6.532
 5901POPC   C3B74541   4.575   4.424   6.900
 5901POPC   C4B74542   4.566   4.345   7.306
 5902POPC   NC374543  14.929   9.061   5.452
 5902POPC   PO474544  15.273   8.572   5.285
 5902POPC   GL174545  15.197   8.671   5.727
 5902POPC   GL274546  14.821   8.650   5.794
 5902POPC   C1A74547  15.169   8.948   6.108
 5902POPC   D2A74548  15.186   9.056   6.551
 5902POPC   C3A74549  15.118   8.824   6.922
 5902POPC   C4A74550  15.232   9.178   7.134
 5902POPC   C1B74551  14.647   8.956   6.106
 5902POPC   C2B74552  14.738   8.852   6.521
 5902POPC   C3B74553  14.610   8.900   6.928
 5902POPC   C4B74554  14.778   9.006   7.309
 5903POPC   NC374555  10.025   3.763   5.362
 5903POPC   PO474556   9.589   3.199   5.295
 5903POPC   GL174557   9.709   3.270   5.726
 5903POPC   GL274558   9.399   3.150   5.857
 5903POPC   C1A74559   9.701   3.511   6.139
 5903POPC   D2A74560   9.549   3.736   6.531
 5903POPC   C3A74561   9.621   3.563   6.952
 5903POPC   C4A74562   9.930   3.727   7.239
 5903POPC   C1B74563   9.481   3.060   6.308
 5903POPC   C2B74564   9.716   3.104   6.695
 5903POPC   C3B74565  10.026   3.262   7.027
 5903POPC   C4B74566   9.801   3.271   7.401
 5904POPC   NC374567  14.228  24.015   5.441
 5904POPC   PO474568  14.416  23.309   5.477
 5904POPC   GL174569  14.121  23.454   5.796
 5904POPC   GL274570  14.104  23.814   5.870
 5904POPC   C1A74571  14.200  23.466   6.216
 5904POPC   D2A74572  14.488  23.478   6.537
 5904POPC   C3A74573  14.360  23.644   6.905
 5904POPC   C4A74574  14.207  23.624   7.302
 5904POPC   C1B74575  14.487  23.879   6.085
 5904POPC   C2B74576  14.549  24.001   6.494
 5904POPC   C3B74577  14.739  23.995   6.880
 5904POPC   C4B74578  14.691  23.788   7.247
 5905POPC   NC374579  30.217  43.242   5.337
 5905POPC   PO474580  29.940  43.854   5.375
 5905POPC   GL174581  30.054  43.870   5.797
 5905POPC   GL274582  29.898  44.181   5.864
 5905POPC   C1A74583  30.232  43.901   6.214
 5905POPC   D2A74584  30.161  44.098   6.594
 5905POPC   C3A74585  30.208  43.882   7.005
 5905POPC   C4A74586  30.006  43.777   7.423
 5905POPC   C1B74587  29.729  44.114   6.293
 5905POPC   C2B74588  29.703  43.890   6.725
 5905POPC   C3B74589  29.653  44.031   7.159
 5905POPC   C4B74590  29.565  43.977   7.613
 5906POPC   NC374591   5.716  23.770   5.427
 5906POPC   PO474592   6.293  23.394   5.616
 5906POPC   GL174593   5.976  23.574   5.825
 5906POPC   GL274594   6.021  23.928   5.804
 5906POPC   C1A74595   5.722  23.476   6.182
 5906POPC   D2A74596   5.891  23.466   6.578
 5906POPC   C3A74597   5.619  23.667   6.855
 5906POPC   C4A74598   5.704  23.647   7.279
 5906POPC   C1B74599   6.075  23.845   6.240
 5906POPC   C2B74600   5.959  23.984   6.637
 5906POPC   C3B74601   6.096  23.907   7.054
 5906POPC   C4B74602   5.949  24.086   7.437
 5907POPC   NC374603  27.854  20.044   5.158
 5907POPC   PO474604  27.334  20.283   5.485
 5907POPC   GL174605  27.567  19.949   5.736
 5907POPC   GL274606  27.342  19.628   5.798
 5907POPC   C1A74607  27.822  19.986   6.156
 5907POPC   D2A74608  27.764  20.157   6.585
 5907POPC   C3A74609  27.868  19.927   6.949
 5907POPC   C4A74610  27.639  19.797   7.319
 5907POPC   C1B74611  27.331  19.868   6.175
 5907POPC   C2B74612  27.447  19.759   6.586
 5907POPC   C3B74613  27.326  19.917   6.960
 5907POPC   C4B74614  27.137  19.967   7.371
 5908POPC   NC374615  17.906  24.322   5.347
 5908POPC   PO474616  17.211  24.190   5.387
 5908POPC   GL174617  17.394  24.543   5.639
 5908POPC   GL274618  17.689  24.433   5.800
 5908POPC   C1A74619  17.313  24.676   6.086
 5908POPC   D2A74620  17.206  24.391   6.439
 5908POPC   C3A74621  17.309  24.421   6.859
 5908POPC   C4A74622  17.255  24.136   7.212
 5908POPC   C1B74623  17.622  24.240   6.185
 5908POPC   C2B74624  17.776  24.375   6.589
 5908POPC   C3B74625  17.773  24.676   6.931
 5908POPC   C4B74626  17.710  24.348   7.159
 5909POPC   NC374627  14.582   2.933   5.275
 5909POPC   PO474628  14.222   2.357   5.546
 5909POPC   GL174629  14.394   2.616   5.908
 5909POPC   GL274630  14.201   2.483   6.149
 5909POPC   C1A74631  14.677   2.577   6.297
 5909POPC   D2A74632  14.662   2.587   6.789
 5909POPC   C3A74633  14.686   2.974   7.040
 5909POPC   C4A74634  14.555   3.104   7.466
 5909POPC   C1B74635  14.124   2.820   6.362
 5909POPC   C2B74636  14.189   2.784   6.785
 5909POPC   C3B74637  14.201   2.832   7.202
 5909POPC   C4B74638  13.939   2.728   7.536
 5910POPC   NC374639  15.781  34.129   5.451
 5910POPC   PO474640  15.974  34.794   5.421
 5910POPC   GL174641  16.010  34.693   5.878
 5910POPC   GL274642  16.344  34.821   6.030
 5910POPC   C1A74643  15.794  34.629   6.263
 5910POPC   D2A74644  15.553  34.936   6.517
 5910POPC   C3A74645  15.670  34.838   6.938
 5910POPC   C4A74646  15.744  34.415   7.068
 5910POPC   C1B74647  16.284  34.453   6.272
 5910POPC   C2B74648  16.080  34.470   6.649
 5910POPC   C3B74649  16.181  34.666   6.986
 5910POPC   C4B74650  16.234  34.724   7.379
 5911POPC   NC374651  14.170  36.115   5.298
 5911POPC   PO474652  14.734  36.106   5.552
 5911POPC   GL174653  14.383  36.147   5.799
 5911POPC   GL274654  14.374  35.810   5.906
 5911POPC   C1A74655  14.295  36.223   6.227
 5911POPC   D2A74656  14.555  36.197   6.585
 5911POPC   C3A74657  14.317  36.133   6.922
 5911POPC   C4A74658  14.263  36.221   7.342
 5911POPC   C1B74659  14.614  35.777   6.309
 5911POPC   C2B74660  14.584  35.693   6.786
 5911POPC   C3B74661  14.474  35.772   7.229
 5911POPC   C4B74662  14.021  35.784   7.213
 5912POPC   NC374663   9.778   1.570   5.406
 5912POPC   PO474664   9.668   2.280   5.345
 5912POPC   GL174665   9.628   2.001   5.699
 5912POPC   GL274666   9.962   1.873   5.785
 5912POPC   C1A74667   9.451   1.907   6.113
 5912POPC   D2A74668   9.633   1.907   6.528
 5912POPC   C3A74669   9.512   2.020   6.937
 5912POPC   C4A74670   9.677   2.027   7.349
 5912POPC   C1B74671  10.165   1.971   6.173
 5912POPC   C2B74672  10.124   1.813   6.587
 5912POPC   C3B74673  10.059   2.046   6.944
 5912POPC   C4B74674  10.178   1.981   7.345
 5913POPC   NC374675   5.635  26.048   5.462
 5913POPC   PO474676   6.261  25.766   5.349
 5913POPC   GL174677   6.038  25.921   5.773
 5913POPC   GL274678   5.765  25.702   5.939
 5913POPC   C1A74679   5.769  26.172   6.105
 5913POPC   D2A74680   5.645  26.314   6.526
 5913POPC   C3A74681   5.902  26.185   6.886
 5913POPC   C4A74682   5.781  26.212   7.354
 5913POPC   C1B74683   6.059  25.783   6.306
 5913POPC   C2B74684   6.183  25.758   6.750
 5913POPC   C3B74685   5.932  25.741   7.134
 5913POPC   C4B74686   6.065  25.829   7.552
 5914POPC   NC374687  20.696   1.447   5.410
 5914POPC   PO474688  20.063   1.418   5.233
 5914POPC   GL174689  20.341   1.181   5.638
 5914POPC   GL274690  20.647   1.327   5.881
 5914POPC   C1A74691  20.321   1.034   6.110
 5914POPC   D2A74692  20.393   1.234   6.522
 5914POPC   C3A74693  20.410   0.999   6.891
 5914POPC   C4A74694  20.629   1.003   7.270
 5914POPC   C1B74695  20.982   1.408   6.197
 5914POPC   C2B74696  21.047   1.258   6.589
 5914POPC   C3B74697  20.845   1.300   6.931
 5914POPC   C4B74698  20.832   1.613   7.216
 5915POPC   NC374699  29.083  11.462   5.517
 5915POPC   PO474700  29.306  10.864   5.452
 5915POPC   GL174701  29.071  10.986   5.827
 5915POPC   GL274702  29.187  11.276   5.975
 5915POPC   C1A74703  28.798  11.074   6.204
 5915POPC   D2A74704  28.823  11.432   6.506
 5915POPC   C3A74705  29.069  11.336   6.869
 5915POPC   C4A74706  28.885  11.467   7.224
 5915POPC   C1B74707  29.259  11.181   6.408
 5915POPC   C2B74708  29.477  11.517   6.613
 5915POPC   C3B74709  29.503  11.683   7.008
 5915POPC   C4B74710  29.379  11.373   7.294
 5916POPC   NC374711   6.694   0.928   5.659
 5916POPC   PO474712   6.790   0.229   5.743
 5916POPC   GL174713   6.402   0.299   5.978
 5916POPC   GL274714   6.309   0.641   5.927
 5916POPC   C1A74715   6.388   0.210   6.412
 5916POPC   D2A74716   6.800   0.142   6.605
 5916POPC   C3A74717   6.729   0.149   7.014
 5916POPC   C4A74718   6.355   0.371   7.036
 5916POPC   C1B74719   6.610   0.658   6.296
 5916POPC   C2B74720   6.689   0.622   6.748
 5916POPC   C3B74721   6.793   0.646   7.197
 5916POPC   C4B74722   7.070   0.688   7.594
 5917POPC   NC374723  22.000  23.199   5.490
 5917POPC   PO474724  22.639  22.995   5.432
 5917POPC   GL174725  22.383  23.027   5.805
 5917POPC   GL274726  22.044  22.832   5.852
 5917POPC   C1A74727  22.321  23.050   6.264
 5917POPC   D2A74728  22.032  22.927   6.596
 5917POPC   C3A74729  22.128  23.121   7.017
 5917POPC   C4A74730  22.332  23.000   7.419
 5917POPC   C1B74731  21.729  22.632   6.153
 5917POPC   C2B74732  21.556  22.687   6.592
 5917POPC   C3B74733  21.767  22.710   7.022
 5917POPC   C4B74734  21.955  22.632   7.437
 5918POPC   NC374735   8.455  20.115   5.569
 5918POPC   PO474736   8.243  20.799   5.421
 5918POPC   GL174737   8.000  20.770   5.803
 5918POPC   GL274738   7.911  20.390   5.782
 5918POPC   C1A74739   8.153  20.916   6.246
 5918POPC   D2A74740   8.471  20.859   6.600
 5918POPC   C3A74741   8.355  20.774   7.033
 5918POPC   C4A74742   8.117  20.528   7.379
 5918POPC   C1B74743   8.222  20.417   6.099
 5918POPC   C2B74744   8.269  20.303   6.485
 5918POPC   C3B74745   8.260  20.278   6.935
 5918POPC   C4B74746   8.600  20.386   7.273
 5919POPC   NC374747  42.960   7.861   5.420
 5919POPC   PO474748  42.983   7.242   5.192
 5919POPC   GL174749  43.055   7.311   5.669
 5919POPC   GL274750  42.990   7.622   5.855
 5919POPC   C1A74751  43.130   7.235   6.139
 5919POPC   D2A74752  42.869   7.291   6.513
 5919POPC   C3A74753  43.083   7.422   6.879
 5919POPC   C4A74754  43.283   7.179   7.226
 5919POPC   C1B74755  43.034   7.730   6.288
 5919POPC   C2B74756  43.378   7.742   6.617
 5919POPC   C3B74757  43.369   7.801   7.048
 5919POPC   C4B74758  43.130   7.648   7.366
 5920POPC   NC374759  20.631  26.190   5.419
 5920POPC   PO474760  20.844  25.525   5.596
 5920POPC   GL174761  20.672  25.842   5.870
 5920POPC   GL274762  20.316  25.756   5.800
 5920POPC   C1A74763  20.716  25.989   6.330
 5920POPC   D2A74764  20.768  25.954   6.780
 5920POPC   C3A74765  20.866  26.280   7.059
 5920POPC   C4A74766  20.690  26.328   7.495
 5920POPC   C1B74767  20.239  26.050   6.168
 5920POPC   C2B74768  20.336  26.191   6.648
 5920POPC   C3B74769  20.357  26.174   7.127
 5920POPC   C4B74770  20.191  26.511   7.416
 5921POPC   NC374771  32.533  40.735   5.371
 5921POPC   PO474772  31.915  40.848   5.526
 5921POPC   GL174773  32.235  40.729   5.816
 5921POPC   GL274774  32.601  40.670   5.850
 5921POPC   C1A74775  32.278  40.972   6.198
 5921POPC   D2A74776  32.156  40.858   6.585
 5921POPC   C3A74777  32.226  41.081   6.952
 5921POPC   C4A74778  32.126  41.176   7.325
 5921POPC   C1B74779  32.489  40.521   6.238
 5921POPC   C2B74780  32.500  40.438   6.631
 5921POPC   C3B74781  32.486  40.651   6.976
 5921POPC   C4B74782  32.281  40.702   7.329
 5922POPC   NC374783  34.866  10.591   5.432
 5922POPC   PO474784  34.332  10.198   5.318
 5922POPC   GL174785  34.439  10.466   5.713
 5922POPC   GL274786  34.719  10.309   5.830
 5922POPC   C1A74787  34.567  10.701   6.110
 5922POPC   D2A74788  34.716  10.749   6.539
 5922POPC   C3A74789  34.520  10.694   6.924
 5922POPC   C4A74790  34.354  11.011   7.199
 5922POPC   C1B74791  34.914  10.296   6.236
 5922POPC   C2B74792  34.758  10.250   6.667
 5922POPC   C3B74793  34.763  10.188   7.095
 5922POPC   C4B74794  34.935  10.268   7.474
 5923POPC   NC374795   9.873  39.159   5.310
 5923POPC   PO474796   9.297  39.303   5.612
 5923POPC   GL174797   9.724  39.211   5.810
 5923POPC   GL274798   9.964  39.476   5.721
 5923POPC   C1A74799   9.776  39.194   6.269
 5923POPC   D2A74800   9.840  38.987   6.664
 5923POPC   C3A74801   9.603  39.233   6.955
 5923POPC   C4A74802   9.448  39.218   7.335
 5923POPC   C1B74803  10.175  39.487   6.128
 5923POPC   C2B74804  10.185  39.446   6.581
 5923POPC   C3B74805  10.096  39.290   6.995
 5923POPC   C4B74806   9.917  39.406   7.380
 5924POPC   NC374807  12.434  15.584   5.627
 5924POPC   PO474808  12.068  15.139   5.233
 5924POPC   GL174809  11.959  15.200   5.705
 5924POPC   GL274810  12.125  15.398   5.998
 5924POPC   C1A74811  11.748  15.101   6.141
 5924POPC   D2A74812  11.944  14.887   6.489
 5924POPC   C3A74813  11.856  15.034   6.893
 5924POPC   C4A74814  12.086  14.997   7.269
 5924POPC   C1B74815  12.060  15.380   6.451
 5924POPC   C2B74816  12.332  15.183   6.767
 5924POPC   C3B74817  12.544  15.233   7.141
 5924POPC   C4B74818  12.355  15.394   7.515
 5925POPC   NC374819   0.655  31.637   5.385
 5925POPC   PO474820   0.235  31.139   5.284
 5925POPC   GL174821   0.510  31.257   5.713
 5925POPC   GL274822   0.516  31.607   5.890
 5925POPC   C1A74823   0.505  31.220   6.206
 5925POPC   D2A74824   0.768  31.150   6.570
 5925POPC   C3A74825   0.645  31.070   6.986
 5925POPC   C4A74826   0.360  31.295   7.235
 5925POPC   C1B74827   0.601  31.705   6.378
 5925POPC   C2B74828   0.432  31.641   6.817
 5925POPC   C3B74829   0.239  31.772   7.242
 5925POPC   C4B74830   0.407  31.707   7.683
 5926POPC   NC374831  10.085  43.364   5.499
 5926POPC   PO474832  10.735  43.212   5.469
 5926POPC   GL174833  10.614  43.058   5.893
 5926POPC   GL274834  10.309  43.215   5.946
 5926POPC   C1A74835  10.444  42.750   6.202
 5926POPC   D2A74836  10.132  42.723   6.559
 5926POPC   C3A74837  10.307  42.850   6.969
 5926POPC   C4A74838  10.480  42.885   7.407
 5926POPC   C1B74839  10.284  43.486   6.308
 5926POPC   C2B74840  10.392  43.545   6.743
 5926POPC   C3B74841  10.235  43.338   7.110
 5926POPC   C4B74842  10.295  43.352   7.545
 5927POPC   NC374843  21.471  23.908   5.544
 5927POPC   PO474844  21.031  23.397   5.610
 5927POPC   GL174845  21.278  23.623   5.938
 5927POPC   GL274846  21.659  23.721   5.970
 5927POPC   C1A74847  21.378  23.600   6.362
 5927POPC   D2A74848  21.522  23.779   6.693
 5927POPC   C3A74849  21.380  23.524   6.985
 5927POPC   C4A74850  21.441  23.648   7.359
 5927POPC   C1B74851  21.840  23.978   6.303
 5927POPC   C2B74852  21.971  24.021   6.756
 5927POPC   C3B74853  21.677  24.059   7.135
 5927POPC   C4B74854  21.707  23.991   7.610
 5928POPC   NC374855  33.209  18.944   5.345
 5928POPC   PO474856  33.092  19.501   5.678
 5928POPC   GL174857  32.853  19.186   5.890
 5928POPC   GL274858  32.680  18.856   5.767
 5928POPC   C1A74859  33.044  19.166   6.269
 5928POPC   D2A74860  33.059  19.340   6.655
 5928POPC   C3A74861  33.101  19.045   6.979
 5928POPC   C4A74862  33.294  18.974   7.352
 5928POPC   C1B74863  32.628  18.870   6.232
 5928POPC   C2B74864  32.603  19.105   6.580
 5928POPC   C3B74865  32.612  19.180   7.000
 5928POPC   C4B74866  32.594  18.865   7.269
 5929POPC   NC374867  42.981  17.327   5.461
 5929POPC   PO474868  43.629  17.315   5.215
 5929POPC   GL174869  43.427  17.468   5.648
 5929POPC   GL274870  43.359  17.828   5.737
 5929POPC   C1A74871  43.167  17.433   6.078
 5929POPC   D2A74872  42.805  17.406   6.398
 5929POPC   C3A74873  42.883  17.429   6.848
 5929POPC   C4A74874  42.883  17.778   7.131
 5929POPC   C1B74875  43.540  17.778   6.161
 5929POPC   C2B74876  43.520  17.502   6.540
 5929POPC   C3B74877  43.382  17.627   6.943
 5929POPC   C4B74878  43.569  17.955   7.221
 5930POPC   NC374879  40.746  31.842   5.543
 5930POPC   PO474880  41.067  31.253   5.390
 5930POPC   GL174881  40.941  31.335   5.827
 5930POPC   GL274882  40.623  31.472   5.884
 5930POPC   C1A74883  41.083  31.443   6.267
 5930POPC   D2A74884  41.245  31.482   6.713
 5930POPC   C3A74885  40.881  31.512   7.003
 5930POPC   C4A74886  40.462  31.403   7.185
 5930POPC   C1B74887  40.613  31.707   6.278
 5930POPC   C2B74888  40.584  31.970   6.664
 5930POPC   C3B74889  40.567  31.888   7.135
 5930POPC   C4B74890  40.953  31.840   7.396
 5931POPC   NC374891  30.049  33.133   5.411
 5931POPC   PO474892  29.832  32.546   5.403
 5931POPC   GL174893  29.835  32.865   5.796
 5931POPC   GL274894  30.126  32.784   5.843
 5931POPC   C1A74895  30.076  33.144   6.197
 5931POPC   D2A74896  30.188  33.406   6.602
 5931POPC   C3A74897  30.089  33.309   7.065
 5931POPC   C4A74898  29.832  33.053   7.357
 5931POPC   C1B74899  29.967  32.651   6.289
 5931POPC   C2B74900  30.115  32.856   6.709
 5931POPC   C3B74901  30.329  32.870   7.148
 5931POPC   C4B74902  30.150  32.688   7.535
 5932POPC   NC374903  14.116   9.369   5.540
 5932POPC   PO474904  14.502   8.861   5.447
 5932POPC   GL174905  14.196   8.889   5.793
 5932POPC   GL274906  14.290   8.595   6.003
 5932POPC   C1A74907  14.128   9.103   6.162
 5932POPC   D2A74908  14.376   9.189   6.503
 5932POPC   C3A74909  14.237   9.219   6.906
 5932POPC   C4A74910  14.369   9.327   7.278
 5932POPC   C1B74911  14.402   8.464   6.457
 5932POPC   C2B74912  14.737   8.414   6.809
 5932POPC   C3B74913  14.599   8.497   7.240
 5932POPC   C4B74914  14.287   8.833   7.365
 5933POPC   NC374915   2.498   1.162   5.454
 5933POPC   PO474916   2.941   0.745   5.256
 5933POPC   GL174917   2.821   0.922   5.762
 5933POPC   GL274918   2.527   1.003   5.939
 5933POPC   C1A74919   2.972   1.232   6.088
 5933POPC   D2A74920   3.157   1.149   6.477
 5933POPC   C3A74921   2.922   1.138   6.850
 5933POPC   C4A74922   2.945   1.243   7.282
 5933POPC   C1B74923   2.617   1.018   6.379
 5933POPC   C2B74924   2.419   1.179   6.730
 5933POPC   C3B74925   2.492   1.031   7.159
 5933POPC   C4B74926   2.712   0.865   7.561
 5934POPC   NC374927  19.823   6.305   5.465
 5934POPC   PO474928  19.749   7.004   5.582
 5934POPC   GL174929  19.772   6.709   5.901
 5934POPC   GL274930  19.561   6.461   5.860
 5934POPC   C1A74931  19.746   6.642   6.337
 5934POPC   D2A74932  20.001   6.789   6.657
 5934POPC   C3A74933  20.092   6.531   6.989
 5934POPC   C4A74934  19.827   6.732   7.247
 5934POPC   C1B74935  19.278   6.392   6.180
 5934POPC   C2B74936  19.376   6.365   6.573
 5934POPC   C3B74937  19.451   6.560   6.954
 5934POPC   C4B74938  19.306   6.447   7.381
 5935POPC   NC374939  15.968  41.118   5.024
 5935POPC   PO474940  15.765  40.594   5.405
 5935POPC   GL174941  15.904  40.609   5.860
 5935POPC   GL274942  15.598  40.738   5.969
 5935POPC   C1A74943  16.010  40.789   6.317
 5935POPC   D2A74944  16.073  41.049   6.717
 5935POPC   C3A74945  16.003  40.819   7.153
 5935POPC   C4A74946  16.193  40.962   7.587
 5935POPC   C1B74947  15.677  41.147   6.197
 5935POPC   C2B74948  15.581  41.089   6.594
 5935POPC   C3B74949  15.669  41.204   7.008
 5935POPC   C4B74950  15.598  41.022   7.381
 5936POPC   NC374951  14.649   4.358   5.186
 5936POPC   PO474952  14.134   4.535   5.394
 5936POPC   GL174953  14.396   4.414   5.687
 5936POPC   GL274954  14.233   4.169   5.819
 5936POPC   C1A74955  14.417   4.534   6.124
 5936POPC   D2A74956  14.330   4.400   6.544
 5936POPC   C3A74957  14.585   4.505   6.874
 5936POPC   C4A74958  14.576   4.456   7.271
 5936POPC   C1B74959  14.358   3.986   6.259
 5936POPC   C2B74960  14.627   3.889   6.615
 5936POPC   C3B74961  14.654   3.990   7.042
 5936POPC   C4B74962  14.760   4.057   7.482
 5937POPC   NC374963  41.440   0.908   5.558
 5937POPC   PO474964  41.904   1.450   5.476
 5937POPC   GL174965  41.694   1.264   5.828
 5937POPC   GL274966  41.931   0.986   5.807
 5937POPC   C1A74967  41.353   1.258   6.174
 5937POPC   D2A74968  41.326   1.485   6.587
 5937POPC   C3A74969  41.512   1.341   6.975
 5937POPC   C4A74970  41.534   1.048   7.280
 5937POPC   C1B74971  41.682   0.861   6.176
 5937POPC   C2B74972  41.603   0.999   6.590
 5937POPC   C3B74973  41.869   0.941   6.935
 5937POPC   C4B74974  42.158   0.927   7.281
 5938POPC   NC374975  33.527   0.356   5.443
 5938POPC   PO474976  34.208   0.632   5.376
 5938POPC   GL174977  34.004   0.505   5.746
 5938POPC   GL274978  33.695   0.686   5.807
 5938POPC   C1A74979  34.080   0.618   6.169
 5938POPC   D2A74980  33.951   0.457   6.548
 5938POPC   C3A74981  34.146   0.598   6.884
 5938POPC   C4A74982  33.977   0.293   7.125
 5938POPC   C1B74983  33.569   0.553   6.195
 5938POPC   C2B74984  33.566   0.773   6.570
 5938POPC   C3B74985  33.523   0.575   6.950
 5938POPC   C4B74986  33.671   0.611   7.357
 5939POPC   NC374987  35.468  10.196   5.128
 5939POPC   PO474988  35.378  10.851   5.351
 5939POPC   GL174989  35.409  10.727   5.776
 5939POPC   GL274990  35.130  10.605   5.859
 5939POPC   C1A74991  35.538  10.561   6.164
 5939POPC   D2A74992  35.678  10.684   6.543
 5939POPC   C3A74993  35.575  10.436   6.878
 5939POPC   C4A74994  35.515  10.755   7.231
 5939POPC   C1B74995  35.084  10.785   6.206
 5939POPC   C2B74996  35.184  10.561   6.584
 5939POPC   C3B74997  35.086  10.568   7.011
 5939POPC   C4B74998  34.828  10.743   7.323
 5940POPC   NC374999  27.659  43.645   5.584
 5940POPC   PO475000  28.192  44.121   5.468
 5940POPC   GL175001  27.871  44.096   5.801
 5940POPC   GL275002  27.991  43.827   5.969
 5940POPC   C1A75003  27.602  44.074   6.191
 5940POPC   D2A75004  27.549  43.846   6.589
 5940POPC   C3A75005  27.751  44.027   6.955
 5940POPC   C4A75006  27.419  44.069   7.230
 5940POPC   C1B75007  27.787  43.552   6.240
 5940POPC   C2B75008  27.885  43.347   6.610
 5940POPC   C3B75009  27.711  43.528   6.983
 5940POPC   C4B75010  27.762  43.603   7.392
 5941POPC   NC375011  11.090   6.485   5.350
 5941POPC   PO475012  11.752   6.598   5.314
 5941POPC   GL175013  11.474   6.622   5.702
 5941POPC   GL275014  11.267   6.910   5.633
 5941POPC   C1A75015  11.494   6.503   6.175
 5941POPC   D2A75016  11.693   6.508   6.621
 5941POPC   C3A75017  11.403   6.548   6.979
 5941POPC   C4A75018  11.251   6.368   7.377
 5941POPC   C1B75019  11.271   6.974   6.089
 5941POPC   C2B75020  11.404   6.952   6.530
 5941POPC   C3B75021  11.243   7.046   6.955
 5941POPC   C4B75022  10.969   6.803   7.201
 5942POPC   NC375023  13.409  24.245   5.487
 5942POPC   PO475024  13.881  24.751   5.292
 5942POPC   GL175025  13.813  24.580   5.727
 5942POPC   GL275026  13.757  24.222   5.851
 5942POPC   C1A75027  13.805  24.659   6.174
 5942POPC   D2A75028  13.554  24.652   6.559
 5942POPC   C3A75029  13.828  24.592   6.896
 5942POPC   C4A75030  13.787  24.647   7.298
 5942POPC   C1B75031  13.539  24.215   6.245
 5942POPC   C2B75032  13.619  24.097   6.685
 5942POPC   C3B75033  13.516  24.252   7.102
 5942POPC   C4B75034  13.229  24.519   7.310
 5943POPC   NC375035  24.689  25.542   5.397
 5943POPC   PO475036  24.252  24.980   5.517
 5943POPC   GL175037  24.458  25.259   5.784
 5943POPC   GL275038  24.311  25.608   5.785
 5943POPC   C1A75039  24.628  25.097   6.167
 5943POPC   D2A75040  24.349  25.106   6.500
 5943POPC   C3A75041  24.564  25.189   6.854
 5943POPC   C4A75042  24.515  24.966   7.235
 5943POPC   C1B75043  24.405  25.552   6.218
 5943POPC   C2B75044  24.262  25.639   6.603
 5943POPC   C3B75045  24.235  25.605   7.021
 5943POPC   C4B75046  24.581  25.508   7.256
 5944POPC   NC375047  11.065   7.446   5.626
 5944POPC   PO475048  11.676   7.485   5.366
 5944POPC   GL175049  11.560   7.328   5.773
 5944POPC   GL275050  11.462   7.679   5.821
 5944POPC   C1A75051  11.481   7.416   6.241
 5944POPC   D2A75052  11.197   7.427   6.568
 5944POPC   C3A75053  11.442   7.522   6.897
 5944POPC   C4A75054  11.533   7.320   7.280
 5944POPC   C1B75055  11.136   7.798   6.178
 5944POPC   C2B75056  11.269   7.948   6.583
 5944POPC   C3B75057  11.089   7.902   6.972
 5944POPC   C4B75058  11.120   7.621   7.304
 5945POPC   NC375059   7.973  17.286   5.489
 5945POPC   PO475060   7.326  17.709   5.487
 5945POPC   GL175061   7.360  17.659   5.954
 5945POPC   GL275062   7.669  17.511   5.828
 5945POPC   C1A75063   7.201  17.533   6.420
 5945POPC   D2A75064   7.282  17.655   6.866
 5945POPC   C3A75065   7.453  17.389   7.181
 5945POPC   C4A75066   7.314  17.332   7.601
 5945POPC   C1B75067   7.820  17.756   6.151
 5945POPC   C2B75068   7.700  17.754   6.572
 5945POPC   C3B75069   7.777  17.827   7.010
 5945POPC   C4B75070   7.630  17.782   7.440
 5946POPC   NC375071  40.017  31.093   5.482
 5946POPC   PO475072  40.333  31.657   5.468
 5946POPC   GL175073  40.098  31.542   5.847
 5946POPC   GL275074  40.191  31.213   5.951
 5946POPC   C1A75075  40.087  31.587   6.308
 5946POPC   D2A75076  40.320  31.535   6.694
 5946POPC   C3A75077  40.063  31.743   6.992
 5946POPC   C4A75078  39.746  31.521   7.235
 5946POPC   C1B75079  39.801  31.158   6.166
 5946POPC   C2B75080  39.627  30.989   6.541
 5946POPC   C3B75081  39.672  31.078   6.975
 5946POPC   C4B75082  40.053  31.108   7.217
 5947POPC   NC375083  16.286   6.864   5.319
 5947POPC   PO475084  16.893   6.706   5.448
 5947POPC   GL175085  16.840   6.623   5.874
 5947POPC   GL275086  17.175   6.494   5.893
 5947POPC   C1A75087  16.574   6.795   6.237
 5947POPC   D2A75088  16.307   6.950   6.597
 5947POPC   C3A75089  16.355   6.745   7.001
 5947POPC   C4A75090  16.720   6.661   7.260
 5947POPC   C1B75091  17.108   6.666   6.320
 5947POPC   C2B75092  16.893   6.539   6.715
 5947POPC   C3B75093  17.009   6.248   7.029
 5947POPC   C4B75094  16.889   6.211   7.445
 5948POPC   NC375095  14.983  42.525   5.388
 5948POPC   PO475096  15.626  42.158   5.447
 5948POPC   GL175097  15.321  42.350   5.779
 5948POPC   GL275098  14.943  42.327   5.883
 5948POPC   C1A75099  15.365  42.512   6.193
 5948POPC   D2A75100  15.536  42.345   6.573
 5948POPC   C3A75101  15.297  42.342   6.956
 5948POPC   C4A75102  15.335  42.509   7.365
 5948POPC   C1B75103  14.881  42.400   6.361
 5948POPC   C2B75104  14.839  42.489   6.833
 5948POPC   C3B75105  14.847  42.407   7.293
 5948POPC   C4B75106  14.717  42.086   7.621
 5949POPC   NC375107  21.641  15.044   5.464
 5949POPC   PO475108  20.992  15.287   5.451
 5949POPC   GL175109  21.298  15.260   5.786
 5949POPC   GL275110  21.147  14.949   5.861
 5949POPC   C1A75111  21.512  15.081   6.178
 5949POPC   D2A75112  21.313  14.930   6.573
 5949POPC   C3A75113  21.330  15.186   6.907
 5949POPC   C4A75114  21.637  15.297   7.179
 5949POPC   C1B75115  20.939  14.862   6.245
 5949POPC   C2B75116  20.922  14.599   6.621
 5949POPC   C3B75117  21.025  14.721   7.044
 5949POPC   C4B75118  21.350  14.870   7.313
 5950POPC   NC375119  14.175  18.392   5.340
 5950POPC   PO475120  14.721  18.821   5.553
 5950POPC   GL175121  14.513  18.526   5.855
 5950POPC   GL275122  14.417  18.150   5.937
 5950POPC   C1A75123  14.710  18.411   6.246
 5950POPC   D2A75124  14.529  18.425   6.635
 5950POPC   C3A75125  14.560  18.242   7.003
 5950POPC   C4A75126  14.188  18.074   7.173
 5950POPC   C1B75127  14.503  17.947   6.348
 5950POPC   C2B75128  14.570  17.793   6.763
 5950POPC   C3B75129  14.558  17.720   7.207
 5950POPC   C4B75130  14.406  17.909   7.623
 5951POPC   NC375131  22.437  35.337   5.389
 5951POPC   PO475132  21.794  35.004   5.321
 5951POPC   GL175133  22.088  35.237   5.743
 5951POPC   GL275134  22.366  35.571   5.816
 5951POPC   C1A75135  22.344  35.210   6.157
 5951POPC   D2A75136  22.160  35.220   6.562
 5951POPC   C3A75137  22.436  35.122   6.913
 5951POPC   C4A75138  22.421  35.277   7.333
 5951POPC   C1B75139  22.088  35.660   6.143
 5951POPC   C2B75140  22.183  35.768   6.553
 5951POPC   C3B75141  22.214  35.593   6.962
 5951POPC   C4B75142  22.044  35.744   7.348
 5952POPC   NC375143   1.402   6.563   5.375
 5952POPC   PO475144   0.919   7.054   5.347
 5952POPC   GL175145   1.048   6.818   5.718
 5952POPC   GL275146   1.402   6.897   5.772
 5952POPC   C1A75147   1.069   6.888   6.172
 5952POPC   D2A75148   1.190   6.670   6.533
 5952POPC   C3A75149   0.997   6.586   6.914
 5952POPC   C4A75150   1.090   6.648   7.318
 5952POPC   C1B75151   1.377   6.513   6.037
 5952POPC   C2B75152   1.663   6.559   6.356
 5952POPC   C3B75153   1.652   6.622   6.793
 5952POPC   C4B75154   1.468   6.403   7.093
 5953POPC   NC375155  42.241  16.271   5.460
 5953POPC   PO475156  42.107  15.642   5.422
 5953POPC   GL175157  42.208  15.731   5.826
 5953POPC   GL275158  41.888  15.559   5.907
 5953POPC   C1A75159  42.452  15.896   6.184
 5953POPC   D2A75160  42.306  16.149   6.554
 5953POPC   C3A75161  42.394  16.000   6.966
 5953POPC   C4A75162  42.143  16.066   7.278
 5953POPC   C1B75163  42.020  15.560   6.290
 5953POPC   C2B75164  42.265  15.631   6.596
 5953POPC   C3B75165  42.055  15.613   6.955
 5953POPC   C4B75166  42.298  15.546   7.266
 5954POPC   NC375167  43.983  35.691   5.435
 5954POPC   PO475168  43.814  35.123   5.339
 5954POPC   GL175169  43.955  35.085   5.736
 5954POPC   GL275170  44.154  35.368   5.826
 5954POPC   C1A75171  44.084  34.963   6.136
 5954POPC   D2A75172  44.154  35.226   6.476
 5954POPC   C3A75173  43.845  35.236   6.780
 5954POPC   C4A75174  43.755  35.303   7.242
 5954POPC   C1B75175  44.025  35.638   6.169
 5954POPC   C2B75176  43.735  35.682   6.527
 5954POPC   C3B75177  43.826  35.756   6.994
 5954POPC   C4B75178  44.095  36.024   7.302
 5955POPC   NC375179  15.841   6.109   5.351
 5955POPC   PO475180  15.736   5.468   5.369
 5955POPC   GL175181  15.600   5.749   5.708
 5955POPC   GL275182  15.921   5.830   5.835
 5955POPC   C1A75183  15.505   5.877   6.146
 5955POPC   D2A75184  15.732   5.822   6.523
 5955POPC   C3A75185  15.668   5.948   6.944
 5955POPC   C4A75186  15.755   5.748   7.354
 5955POPC   C1B75187  16.066   6.065   6.216
 5955POPC   C2B75188  16.215   5.969   6.663
 5955POPC   C3B75189  16.184   5.860   7.115
 5955POPC   C4B75190  16.222   5.497   7.443
 5956POPC   NC375191  32.325   2.154   5.547
 5956POPC   PO475192  32.086   2.792   5.318
 5956POPC   GL175193  32.214   2.769   5.746
 5956POPC   GL275194  32.567   2.731   5.825
 5956POPC   C1A75195  32.195   3.075   6.071
 5956POPC   D2A75196  32.183   3.130   6.519
 5956POPC   C3A75197  32.402   2.879   6.830
 5956POPC   C4A75198  32.351   2.986   7.263
 5956POPC   C1B75199  32.446   2.688   6.284
 5956POPC   C2B75200  32.176   2.467   6.601
 5956POPC   C3B75201  32.359   2.366   6.996
 5956POPC   C4B75202  32.692   2.624   7.190
 5957POPC   NC375203  30.138  38.674   5.645
 5957POPC   PO475204  29.682  38.171   5.499
 5957POPC   GL175205  29.770  38.398   5.900
 5957POPC   GL275206  30.111  38.266   5.939
 5957POPC   C1A75207  29.979  38.630   6.289
 5957POPC   D2A75208  30.248  38.631   6.694
 5957POPC   C3A75209  29.983  38.682   7.077
 5957POPC   C4A75210  29.925  38.466   7.473
 5957POPC   C1B75211  30.319  38.245   6.330
 5957POPC   C2B75212  30.346  38.068   6.733
 5957POPC   C3B75213  30.371  38.184   7.155
 5957POPC   C4B75214  30.422  38.241   7.599
 5958POPC   NC375215  23.050  24.891   5.545
 5958POPC   PO475216  22.611  25.427   5.325
 5958POPC   GL175217  22.744  25.442   5.801
 5958POPC   GL275218  22.940  25.168   5.936
 5958POPC   C1A75219  23.065  25.588   6.151
 5958POPC   D2A75220  23.329  25.489   6.521
 5958POPC   C3A75221  23.119  25.497   6.955
 5958POPC   C4A75222  22.782  25.289   7.227
 5958POPC   C1B75223  22.838  24.932   6.290
 5958POPC   C2B75224  22.666  24.799   6.637
 5958POPC   C3B75225  22.909  24.869   6.957
 5958POPC   C4B75226  22.675  24.768   7.266
 5959POPC   NC375227  36.811  31.431   5.395
 5959POPC   PO475228  37.392  31.576   5.116
 5959POPC   GL175229  37.223  31.578   5.646
 5959POPC   GL275230  37.010  31.724   5.925
 5959POPC   C1A75231  37.221  31.306   6.083
 5959POPC   D2A75232  36.900  31.180   6.403
 5959POPC   C3A75233  36.956  31.260   6.844
 5959POPC   C4A75234  36.792  31.090   7.194
 5959POPC   C1B75235  36.778  31.686   6.347
 5959POPC   C2B75236  36.759  31.734   6.811
 5959POPC   C3B75237  36.614  31.627   7.250
 5959POPC   C4B75238  36.348  31.609   7.652
 5960POPC   NC375239  13.255  35.937   5.595
 5960POPC   PO475240  13.688  36.422   5.541
 5960POPC   GL175241  13.848  36.138   5.893
 5960POPC   GL275242  13.553  35.938   6.002
 5960POPC   C1A75243  13.976  35.806   6.232
 5960POPC   D2A75244  14.054  35.749   6.681
 5960POPC   C3A75245  13.801  36.109   6.893
 5960POPC   C4A75246  13.470  36.304   7.131
 5960POPC   C1B75247  13.424  35.653   6.338
 5960POPC   C2B75248  13.552  35.643   6.788
 5960POPC   C3B75249  13.492  35.808   7.237
 5960POPC   C4B75250  13.578  35.717   7.688
 5961POPC   NC375251   4.750  44.597   5.257
 5961POPC   PO475252   5.347  44.434   5.520
 5961POPC   GL175253   5.035  44.306   5.773
 5961POPC   GL275254   4.814  44.579   5.810
 5961POPC   C1A75255   4.971  44.225   6.201
 5961POPC   D2A75256   5.171  44.412   6.582
 5961POPC   C3A75257   5.016  44.577   6.988
 5961POPC   C4A75258   5.161  44.397   7.388
 5961POPC   C1B75259   4.928  44.742   6.232
 5961POPC   C2B75260   4.863  44.963   6.643
 5961POPC   C3B75261   4.725   0.012   7.088
 5961POPC   C4B75262   4.908  44.843   7.454
 5962POPC   NC375263  13.877   7.781   5.400
 5962POPC   PO475264  13.602   8.426   5.483
 5962POPC   GL175265  13.560   8.240   5.878
 5962POPC   GL275266  13.777   8.569   5.958
 5962POPC   C1A75267  13.542   7.956   6.262
 5962POPC   D2A75268  13.791   7.803   6.650
 5962POPC   C3A75269  13.845   8.058   7.057
 5962POPC   C4A75270  13.757   7.980   7.540
 5962POPC   C1B75271  13.509   8.464   6.336
 5962POPC   C2B75272  13.503   8.667   6.716
 5962POPC   C3B75273  13.554   8.483   7.093
 5962POPC   C4B75274  13.350   8.082   7.228
 5963POPC   NC375275  38.669  13.020   5.098
 5963POPC   PO475276  38.432  12.610   5.586
 5963POPC   GL175277  38.468  12.731   5.989
 5963POPC   GL275278  38.838  12.777   6.004
 5963POPC   C1A75279  38.182  12.798   6.335
 5963POPC   D2A75280  38.172  13.156   6.618
 5963POPC   C3A75281  38.157  13.084   7.059
 5963POPC   C4A75282  38.551  13.191   7.277
 5963POPC   C1B75283  38.780  12.531   6.348
 5963POPC   C2B75284  38.509  12.573   6.667
 5963POPC   C3B75285  38.518  12.729   7.046
 5963POPC   C4B75286  38.860  12.785   7.269
 5964POPC   NC375287   7.808  27.796   5.624
 5964POPC   PO475288   8.342  27.579   5.285
 5964POPC   GL175289   8.323  27.705   5.740
 5964POPC   GL275290   8.572  27.882   5.930
 5964POPC   C1A75291   8.357  27.475   6.168
 5964POPC   D2A75292   8.410  27.627   6.607
 5964POPC   C3A75293   8.258  27.397   6.980
 5964POPC   C4A75294   7.877  27.276   7.173
 5964POPC   C1B75295   8.193  27.958   6.219
 5964POPC   C2B75296   8.155  28.092   6.658
 5964POPC   C3B75297   8.200  27.909   7.065
 5964POPC   C4B75298   8.464  27.940   7.435
 5965POPC   NC375299  22.300  25.036   5.203
 5965POPC   PO475300  21.879  25.528   5.517
 5965POPC   GL175301  22.225  25.446   5.894
 5965POPC   GL275302  22.430  25.118   6.036
 5965POPC   C1A75303  22.065  25.303   6.300
 5965POPC   D2A75304  22.047  24.996   6.563
 5965POPC   C3A75305  21.830  25.195   6.869
 5965POPC   C4A75306  21.856  25.348   7.266
 5965POPC   C1B75307  22.590  25.410   6.307
 5965POPC   C2B75308  22.688  25.321   6.709
 5965POPC   C3B75309  22.377  25.113   6.952
 5965POPC   C4B75310  22.300  25.101   7.360
 5966POPC   NC375311  24.523  34.847   5.523
 5966POPC   PO475312  24.765  34.233   5.394
 5966POPC   GL175313  24.563  34.399   5.807
 5966POPC   GL275314  24.212  34.303   5.891
 5966POPC   C1A75315  24.658  34.519   6.265
 5966POPC   D2A75316  24.456  34.692   6.629
 5966POPC   C3A75317  24.615  34.657   6.999
 5966POPC   C4A75318  24.600  34.314   7.274
 5966POPC   C1B75319  24.176  34.668   6.199
 5966POPC   C2B75320  23.996  34.899   6.508
 5966POPC   C3B75321  24.023  34.796   6.903
 5966POPC   C4B75322  24.241  34.855   7.278
 5967POPC   NC375323  34.016  41.478   5.335
 5967POPC   PO475324  33.651  42.055   5.590
 5967POPC   GL175325  33.868  41.725   5.819
 5967POPC   GL275326  33.606  41.550   5.889
 5967POPC   C1A75327  33.975  41.547   6.244
 5967POPC   D2A75328  33.868  41.730   6.633
 5967POPC   C3A75329  34.066  41.557   6.980
 5967POPC   C4A75330  33.976  41.680   7.393
 5967POPC   C1B75331  33.476  41.596   6.281
 5967POPC   C2B75332  33.613  41.299   6.577
 5967POPC   C3B75333  33.540  41.096   6.939
 5967POPC   C4B75334  33.623  41.379   7.220
 5968POPC   NC375335   7.470  10.874   5.252
 5968POPC   PO475336   7.324  11.499   5.220
 5968POPC   GL175337   7.352  11.310   5.640
 5968POPC   GL275338   7.710  11.305   5.745
 5968POPC   C1A75339   7.261  11.270   6.113
 5968POPC   D2A75340   7.142  11.095   6.542
 5968POPC   C3A75341   7.246  11.235   6.939
 5968POPC   C4A75342   7.281  11.338   7.347
 5968POPC   C1B75343   7.734  11.464   6.185
 5968POPC   C2B75344   7.711  11.305   6.628
 5968POPC   C3B75345   7.698  11.454   7.050
 5968POPC   C4B75346   7.577  11.732   7.406
 5969POPC   NC375347  21.280  25.505   5.427
 5969POPC   PO475348  21.780  25.008   5.349
 5969POPC   GL175349  21.636  25.157   5.784
 5969POPC   GL275350  21.709  25.494   5.983
 5969POPC   C1A75351  21.627  25.030   6.232
 5969POPC   D2A75352  21.395  25.196   6.583
 5969POPC   C3A75353  21.320  25.013   6.982
 5969POPC   C4A75354  21.030  25.102   7.296
 5969POPC   C1B75355  21.537  25.658   6.364
 5969POPC   C2B75356  21.100  25.649   6.543
 5969POPC   C3B75357  20.993  25.524   6.967
 5969POPC   C4B75358  21.368  25.478   7.205
 5970POPC   NC375359  33.589  18.185   5.510
 5970POPC   PO475360  34.212  18.360   5.590
 5970POPC   GL175361  34.007  18.111   5.889
 5970POPC   GL275362  33.882  17.815   5.718
 5970POPC   C1A75363  33.848  18.334   6.283
 5970POPC   D2A75364  33.640  18.389   6.709
 5970POPC   C3A75365  33.642  18.685   7.068
 5970POPC   C4A75366  33.458  18.505   7.449
 5970POPC   C1B75367  33.641  17.829   6.127
 5970POPC   C2B75368  33.800  17.897   6.547
 5970POPC   C3B75369  33.612  17.921   6.931
 5970POPC   C4B75370  33.777  18.188   7.234
 5971POPC   NC375371   5.374  43.962   5.436
 5971POPC   PO475372   4.712  44.164   5.394
 5971POPC   GL175373   4.791  43.833   5.732
 5971POPC   GL275374   5.142  43.802   5.863
 5971POPC   C1A75375   4.743  43.714   6.186
 5971POPC   D2A75376   4.738  43.970   6.574
 5971POPC   C3A75377   4.979  44.039   6.970
 5971POPC   C4A75378   4.945  43.915   7.412
 5971POPC   C1B75379   5.253  43.597   6.250
 5971POPC   C2B75380   5.183  43.602   6.716
 5971POPC   C3B75381   5.251  43.558   7.180
 5971POPC   C4B75382   5.290  43.564   7.637
 5972POPC   NC375383  13.803  25.886   5.429
 5972POPC   PO475384  14.434  26.213   5.494
 5972POPC   GL175385  14.257  26.118   5.839
 5972POPC   GL275386  14.377  26.392   5.991
 5972POPC   C1A75387  14.084  26.060   6.242
 5972POPC   D2A75388  14.318  25.930   6.579
 5972POPC   C3A75389  14.282  26.109   6.951
 5972POPC   C4A75390  13.894  26.194   7.139
 5972POPC   C1B75391  14.749  26.385   6.277
 5972POPC   C2B75392  14.765  26.154   6.636
 5972POPC   C3B75393  14.848  26.320   7.001
 5972POPC   C4B75394  14.632  26.265   7.317
 5973POPC   NC375395  30.070  39.431   5.378
 5973POPC   PO475396  29.741  38.897   5.712
 5973POPC   GL175397  29.882  39.224   5.920
 5973POPC   GL275398  30.203  39.174   5.809
 5973POPC   C1A75399  29.814  39.406   6.338
 5973POPC   D2A75400  29.751  39.534   6.781
 5973POPC   C3A75401  29.744  39.249   7.147
 5973POPC   C4A75402  29.581  39.342   7.591
 5973POPC   C1B75403  30.281  39.168   6.247
 5973POPC   C2B75404  30.123  39.139   6.672
 5973POPC   C3B75405  30.278  39.365   7.014
 5973POPC   C4B75406  30.327  39.153   7.369
 5974POPC   NC375407  40.961   9.246   5.573
 5974POPC   PO475408  41.159   8.636   5.449
 5974POPC   GL175409  40.930   8.768   5.808
 5974POPC   GL275410  41.045   8.479   5.940
 5974POPC   C1A75411  40.734   9.007   6.150
 5974POPC   D2A75412  40.524   9.202   6.500
 5974POPC   C3A75413  40.849   9.268   6.821
 5974POPC   C4A75414  40.932   9.278   7.267
 5974POPC   C1B75415  41.015   8.580   6.326
 5974POPC   C2B75416  40.769   8.763   6.594
 5974POPC   C3B75417  40.576   8.838   6.938
 5974POPC   C4B75418  40.846   8.798   7.227
 5975POPC   NC375419  23.141  37.613   5.490
 5975POPC   PO475420  22.472  37.367   5.453
 5975POPC   GL175421  22.710  37.639   5.733
 5975POPC   GL275422  22.759  37.371   5.899
 5975POPC   C1A75423  22.982  37.776   6.120
 5975POPC   D2A75424  22.981  37.889   6.563
 5975POPC   C3A75425  23.111  37.702   6.945
 5975POPC   C4A75426  23.012  37.913   7.316
 5975POPC   C1B75427  22.522  37.294   6.273
 5975POPC   C2B75428  22.715  37.290   6.682
 5975POPC   C3B75429  22.681  37.413   7.077
 5975POPC   C4B75430  22.977  37.424   7.402
 5976POPC   NC375431  34.982   4.652   5.612
 5976POPC   PO475432  35.535   4.270   5.384
 5976POPC   GL175433  35.453   4.268   5.835
 5976POPC   GL275434  35.423   4.569   5.852
 5976POPC   C1A75435  35.452   4.116   6.293
 5976POPC   D2A75436  35.615   3.952   6.723
 5976POPC   C3A75437  35.399   4.174   7.076
 5976POPC   C4A75438  35.103   4.015   7.375
 5976POPC   C1B75439  35.578   4.622   6.236
 5976POPC   C2B75440  35.450   4.525   6.671
 5976POPC   C3B75441  35.182   4.650   7.051
 5976POPC   C4B75442  35.149   4.514   7.513
 5977POPC   NC375443  36.597  14.520   5.578
 5977POPC   PO475444  35.947  14.783   5.405
 5977POPC   GL175445  36.064  14.514   5.728
 5977POPC   GL275446  36.159  14.158   5.720
 5977POPC   C1A75447  35.924  14.397   6.121
 5977POPC   D2A75448  36.100  14.527   6.498
 5977POPC   C3A75449  35.986  14.306   6.845
 5977POPC   C4A75450  36.075  14.265   7.220
 5977POPC   C1B75451  36.380  14.164   6.167
 5977POPC   C2B75452  36.455  14.177   6.646
 5977POPC   C3B75453  36.533  14.111   7.105
 5977POPC   C4B75454  36.371  14.061   7.591
 5978POPC   NC375455  25.635  28.599   5.435
 5978POPC   PO475456  25.088  28.293   5.299
 5978POPC   GL175457  25.191  28.408   5.709
 5978POPC   GL275458  25.129  28.740   5.760
 5978POPC   C1A75459  25.002  28.409   6.119
 5978POPC   D2A75460  25.072  28.227   6.503
 5978POPC   C3A75461  25.037  28.424   6.917
 5978POPC   C4A75462  25.289  28.257   7.249
 5978POPC   C1B75463  25.293  28.828   6.168
 5978POPC   C2B75464  25.313  28.702   6.585
 5978POPC   C3B75465  25.471  28.678   7.016
 5978POPC   C4B75466  25.194  28.734   7.368
 5979POPC   NC375467  20.720  34.911   5.367
 5979POPC   PO475468  20.770  34.249   5.526
 5979POPC   GL175469  20.623  34.328   5.895
 5979POPC   GL275470  20.602  34.668   5.834
 5979POPC   C1A75471  20.645  34.218   6.319
 5979POPC   D2A75472  20.657  34.437   6.682
 5979POPC   C3A75473  20.634  34.263   7.087
 5979POPC   C4A75474  20.303  34.550   7.202
 5979POPC   C1B75475  20.802  34.744   6.255
 5979POPC   C2B75476  20.931  34.875   6.694
 5979POPC   C3B75477  20.903  35.006   7.137
 5979POPC   C4B75478  21.006  34.858   7.551
 5980POPC   NC375479  43.193  25.497   5.290
 5980POPC   PO475480  42.881  25.005   5.496
 5980POPC   GL175481  43.154  25.241   5.781
 5980POPC   GL275482  43.332  25.538   5.779
 5980POPC   C1A75483  43.299  25.232   6.208
 5980POPC   D2A75484  43.033  25.114   6.551
 5980POPC   C3A75485  42.917  25.329   6.918
 5980POPC   C4A75486  42.897  25.107   7.306
 5980POPC   C1B75487  43.414  25.732   6.158
 5980POPC   C2B75488  43.221  25.623   6.562
 5980POPC   C3B75489  43.352  25.620   6.968
 5980POPC   C4B75490  43.369  25.271   7.190
 5981POPC   NC375491  18.906   4.811   5.416
 5981POPC   PO475492  19.129   5.400   5.124
 5981POPC   GL175493  19.175   5.340   5.598
 5981POPC   GL275494  18.871   5.207   5.771
 5981POPC   C1A75495  19.296   5.335   6.069
 5981POPC   D2A75496  19.073   5.273   6.481
 5981POPC   C3A75497  19.178   5.118   6.911
 5981POPC   C4A75498  19.067   5.367   7.298
 5981POPC   C1B75499  18.885   4.919   6.131
 5981POPC   C2B75500  18.929   4.751   6.566
 5981POPC   C3B75501  18.735   4.838   6.961
 5981POPC   C4B75502  18.887   4.887   7.367
 5982POPC   NC375503  24.807   2.430   5.609
 5982POPC   PO475504  24.204   2.722   5.328
 5982POPC   GL175505  24.454   2.806   5.705
 5982POPC   GL275506  24.609   3.137   5.669
 5982POPC   C1A75507  24.325   2.851   6.152
 5982POPC   D2A75508  24.094   2.882   6.581
 5982POPC   C3A75509  24.270   2.663   6.949
 5982POPC   C4A75510  24.072   2.293   7.171
 5982POPC   C1B75511  24.814   3.027   6.058
 5982POPC   C2B75512  24.768   2.770   6.425
 5982POPC   C3B75513  24.768   2.932   6.836
 5982POPC   C4B75514  24.734   2.767   7.222
 5983POPC   NC375515  20.015  14.711   5.425
 5983POPC   PO475516  19.908  13.995   5.259
 5983POPC   GL175517  19.905  14.250   5.651
 5983POPC   GL275518  19.842  13.962   5.834
 5983POPC   C1A75519  20.096  14.319   6.101
 5983POPC   D2A75520  20.243  14.149   6.515
 5983POPC   C3A75521  20.031  14.215   6.923
 5983POPC   C4A75522  20.113  14.554   7.234
 5983POPC   C1B75523  19.579  14.244   6.099
 5983POPC   C2B75524  19.619  14.333   6.552
 5983POPC   C3B75525  19.505  14.306   6.984
 5983POPC   C4B75526  19.720  14.156   7.346
 5984POPC   NC375527  34.129  29.964   5.336
 5984POPC   PO475528  34.737  29.767   5.433
 5984POPC   GL175529  34.612  30.041   5.782
 5984POPC   GL275530  34.253  30.064   5.903
 5984POPC   C1A75531  34.796  30.066   6.194
 5984POPC   D2A75532  34.894  30.040   6.625
 5984POPC   C3A75533  34.541  29.995   6.909
 5984POPC   C4A75534  34.244  29.869   7.219
 5984POPC   C1B75535  34.329  29.843   6.273
 5984POPC   C2B75536  34.554  29.596   6.560
 5984POPC   C3B75537  34.859  29.563   6.845
 5984POPC   C4B75538  34.745  29.679   7.265
 5985POPC   NC375539   4.376  38.177   5.087
 5985POPC   PO475540   4.081  38.724   5.390
 5985POPC   GL175541   4.222  38.664   5.853
 5985POPC   GL275542   4.370  38.328   5.944
 5985POPC   C1A75543   4.537  38.713   6.202
 5985POPC   D2A75544   4.650  38.544   6.595
 5985POPC   C3A75545   4.354  38.748   6.873
 5985POPC   C4A75546   4.349  38.768   7.320
 5985POPC   C1B75547   4.160  38.346   6.305
 5985POPC   C2B75548   4.326  38.132   6.641
 5985POPC   C3B75549   4.336  38.271   7.060
 5985POPC   C4B75550   3.965  38.423   7.326
 5986POPC   NC375551   2.528  26.377   5.232
 5986POPC   PO475552   2.891  25.779   5.383
 5986POPC   GL175553   2.663  26.087   5.687
 5986POPC   GL275554   2.927  26.116   5.936
 5986POPC   C1A75555   2.488  26.187   6.137
 5986POPC   D2A75556   2.598  25.960   6.515
 5986POPC   C3A75557   2.532  26.150   6.902
 5986POPC   C4A75558   2.724  26.228   7.278
 5986POPC   C1B75559   3.164  25.809   6.169
 5986POPC   C2B75560   3.164  25.623   6.575
 5986POPC   C3B75561   3.054  25.770   6.992
 5986POPC   C4B75562   3.247  25.983   7.309
 5987POPC   NC375563   8.403  15.702   5.424
 5987POPC   PO475564   7.870  16.051   5.298
 5987POPC   GL175565   7.946  15.785   5.671
 5987POPC   GL275566   8.173  16.048   5.764
 5987POPC   C1A75567   8.058  15.710   6.125
 5987POPC   D2A75568   8.148  15.968   6.503
 5987POPC   C3A75569   8.155  15.809   6.921
 5987POPC   C4A75570   8.427  15.597   7.173
 5987POPC   C1B75571   8.291  16.301   6.113
 5987POPC   C2B75572   8.388  16.445   6.537
 5987POPC   C3B75573   8.290  16.296   6.951
 5987POPC   C4B75574   8.395  16.236   7.390
 5988POPC   NC375575   7.961  31.521   5.295
 5988POPC   PO475576   8.652  31.446   5.390
 5988POPC   GL175577   8.352  31.422   5.725
 5988POPC   GL275578   8.304  31.079   5.860
 5988POPC   C1A75579   8.092  31.510   6.095
 5988POPC   D2A75580   8.054  31.683   6.490
 5988POPC   C3A75581   8.183  31.726   6.911
 5988POPC   C4A75582   8.319  31.453   7.233
 5988POPC   C1B75583   7.910  31.048   6.041
 5988POPC   C2B75584   7.821  31.221   6.463
 5988POPC   C3B75585   8.023  31.231   6.860
 5988POPC   C4B75586   7.831  31.235   7.271
 5989POPC   NC375587   8.637  29.419   5.378
 5989POPC   PO475588   9.107  28.978   5.258
 5989POPC   GL175589   9.004  29.165   5.686
 5989POPC   GL275590   8.887  28.857   5.792
 5989POPC   C1A75591   9.057  29.134   6.193
 5989POPC   D2A75592   8.978  29.365   6.634
 5989POPC   C3A75593   9.023  29.218   7.063
 5989POPC   C4A75594   9.272  29.244   7.442
 5989POPC   C1B75595   8.634  28.834   6.202
 5989POPC   C2B75596   8.669  28.941   6.658
 5989POPC   C3B75597   8.652  28.862   7.116
 5989POPC   C4B75598   8.791  29.105   7.533
 5990POPC   NC375599  34.001  17.306   5.447
 5990POPC   PO475600  33.389  17.757   5.520
 5990POPC   GL175601  33.559  17.417   5.792
 5990POPC   GL275602  33.857  17.357   5.936
 5990POPC   C1A75603  33.390  17.263   6.170
 5990POPC   D2A75604  33.500  17.495   6.524
 5990POPC   C3A75605  33.737  17.395   6.874
 5990POPC   C4A75606  33.495  17.361   7.249
 5990POPC   C1B75607  34.084  17.604   6.199
 5990POPC   C2B75608  34.196  17.567   6.605
 5990POPC   C3B75609  34.161  17.801   6.953
 5990POPC   C4B75610  33.900  17.685   7.275
 5991POPC   NC375611  41.125   4.955   5.253
 5991POPC   PO475612  40.577   5.213   5.372
 5991POPC   GL175613  40.733   5.099   5.779
 5991POPC   GL275614  41.048   4.964   5.751
 5991POPC   C1A75615  40.820   5.304   6.212
 5991POPC   D2A75616  40.605   5.366   6.630
 5991POPC   C3A75617  40.696   5.060   6.931
 5991POPC   C4A75618  40.878   5.156   7.282
 5991POPC   C1B75619  40.975   4.810   6.154
 5991POPC   C2B75620  40.939   4.754   6.589
 5991POPC   C3B75621  41.037   4.700   7.034
 5991POPC   C4B75622  40.885   4.684   7.436
 5992POPC   NC375623  44.043  25.155   5.363
 5992POPC   PO475624  44.075  25.783   5.429
 5992POPC   GL175625  43.854  25.502   5.759
 5992POPC   GL275626  43.682  25.151   5.774
 5992POPC   C1A75627  43.789  25.388   6.199
 5992POPC   D2A75628  43.994  25.265   6.559
 5992POPC   C3A75629  43.822  25.396   6.965
 5992POPC   C4A75630  43.732  25.598   7.366
 5992POPC   C1B75631  43.708  24.897   6.185
 5992POPC   C2B75632  43.556  24.993   6.618
 5992POPC   C3B75633  43.788  24.876   7.000
 5992POPC   C4B75634  43.740  25.021   7.420
 5993POPC   NC375635  24.805  27.255   5.545
 5993POPC   PO475636  24.316  26.798   5.357
 5993POPC   GL175637  24.411  26.830   5.789
 5993POPC   GL275638  24.376  27.165   5.816
 5993POPC   C1A75639  24.508  26.567   6.176
 5993POPC   D2A75640  24.564  26.466   6.622
 5993POPC   C3A75641  24.343  26.707   6.920
 5993POPC   C4A75642  24.382  26.860   7.301
 5993POPC   C1B75643  24.601  27.061   6.196
 5993POPC   C2B75644  24.507  27.084   6.616
 5993POPC   C3B75645  24.778  26.990   6.961
 5993POPC   C4B75646  24.778  27.158   7.343
 5994POPC   NC375647  30.393  11.091   5.501
 5994POPC   PO475648  30.827  11.641   5.522
 5994POPC   GL175649  30.610  11.414   5.883
 5994POPC   GL275650  30.277  11.559   5.910
 5994POPC   C1A75651  30.679  11.191   6.312
 5994POPC   D2A75652  30.909  11.074   6.712
 5994POPC   C3A75653  30.727  11.102   7.127
 5994POPC   C4A75654  30.780  11.422   7.404
 5994POPC   C1B75655  30.484  11.654   6.341
 5994POPC   C2B75656  30.480  11.464   6.784
 5994POPC   C3B75657  30.337  11.508   7.230
 5994POPC   C4B75658  30.375  11.499   7.728
 5995POPC   NC375659  18.585  31.348   5.396
 5995POPC   PO475660  17.995  31.677   5.405
 5995POPC   GL175661  18.233  31.534   5.736
 5995POPC   GL275662  18.478  31.769   5.790
 5995POPC   C1A75663  18.172  31.559   6.181
 5995POPC   D2A75664  18.096  31.864   6.491
 5995POPC   C3A75665  18.137  31.827   6.909
 5995POPC   C4A75666  18.129  31.763   7.326
 5995POPC   C1B75667  18.677  31.647   6.167
 5995POPC   C2B75668  18.521  31.550   6.591
 5995POPC   C3B75669  18.592  31.580   7.049
 5995POPC   C4B75670  18.947  31.478   7.301
 5996POPC   NC375671  39.505  20.099   5.436
 5996POPC   PO475672  39.600  19.407   5.340
 5996POPC   GL175673  39.528  19.671   5.737
 5996POPC   GL275674  39.164  19.769   5.821
 5996POPC   C1A75675  39.507  19.932   6.145
 5996POPC   D2A75676  39.184  19.922   6.498
 5996POPC   C3A75677  39.324  20.032   6.933
 5996POPC   C4A75678  39.163  20.104   7.342
 5996POPC   C1B75679  38.930  19.509   6.081
 5996POPC   C2B75680  38.995  19.385   6.482
 5996POPC   C3B75681  38.922  19.556   6.895
 5996POPC   C4B75682  38.769  19.536   7.312
 5997POPC   NC375683   3.835  39.141   5.453
 5997POPC   PO475684   3.258  39.453   5.410
 5997POPC   GL175685   3.532  39.350   5.807
 5997POPC   GL275686   3.810  39.070   5.958
 5997POPC   C1A75687   3.568  39.431   6.239
 5997POPC   D2A75688   3.612  39.099   6.544
 5997POPC   C3A75689   3.598  39.289   6.943
 5997POPC   C4A75690   3.694  39.274   7.380
 5997POPC   C1B75691   4.031  38.854   6.308
 5997POPC   C2B75692   3.876  38.676   6.719
 5997POPC   C3B75693   3.903  38.896   7.116
 5997POPC   C4B75694   3.920  38.874   7.601
 5998POPC   NC375695  36.385  37.374   5.402
 5998POPC   PO475696  35.987  37.920   5.507
 5998POPC   GL175697  36.269  37.701   5.781
 5998POPC   GL275698  36.042  37.443   5.818
 5998POPC   C1A75699  36.387  37.774   6.199
 5998POPC   D2A75700  36.190  38.006   6.535
 5998POPC   C3A75701  36.328  37.830   6.894
 5998POPC   C4A75702  36.340  37.544   7.225
 5998POPC   C1B75703  35.887  37.754   6.155
 5998POPC   C2B75704  35.789  37.718   6.606
 5998POPC   C3B75705  35.863  37.636   7.070
 5998POPC   C4B75706  35.937  37.770   7.570
 5999POPC   NC375707  29.396  37.592   5.583
 5999POPC   PO475708  28.849  37.672   5.241
 5999POPC   GL175709  28.924  37.926   5.649
 5999POPC   GL275710  29.258  38.112   5.777
 5999POPC   C1A75711  28.866  38.013   6.092
 5999POPC   D2A75712  28.953  37.753   6.473
 5999POPC   C3A75713  29.037  37.846   6.896
 5999POPC   C4A75714  29.112  37.526   7.183
 5999POPC   C1B75715  29.358  37.954   6.212
 5999POPC   C2B75716  29.452  38.014   6.673
 5999POPC   C3B75717  29.536  37.802   7.101
 5999POPC   C4B75718  29.486  37.612   7.518
 6000POPC   NC375719  42.262  17.270   5.504
 6000POPC   PO475720  42.792  17.734   5.352
 6000POPC   GL175721  42.739  17.740   5.769
 6000POPC   GL275722  42.681  17.403   5.875
 6000POPC   C1A75723  42.530  17.793   6.168
 6000POPC   D2A75724  42.224  17.696   6.492
 6000POPC   C3A75725  42.418  17.710   6.890
 6000POPC   C4A75726  42.201  17.706   7.280
 6000POPC   C1B75727  42.352  17.282   6.167
 6000POPC   C2B75728  42.286  17.182   6.590
 6000POPC   C3B75729  42.257  17.253   7.011
 6000POPC   C4B75730  42.592  17.376   7.281
 6001POPC   NC375731  43.839  42.721   5.598
 6001POPC   PO475732  43.989  42.217   5.211
 6001POPC   GL175733  43.904  42.183   5.654
 6001POPC   GL275734  43.563  42.284   5.759
 6001POPC   C1A75735  44.051  42.081   6.090
 6001POPC   D2A75736  44.203  42.387   6.404
 6001POPC   C3A75737  43.987  42.406   6.795
 6001POPC   C4A75738  44.183  42.312   7.181
 6001POPC   C1B75739  43.696  42.467   6.189
 6001POPC   C2B75740  43.664  42.772   6.549
 6001POPC   C3B75741  43.497  42.669   6.951
 6001POPC   C4B75742  43.607  42.274   7.161
 6002POPC   NC375743  41.857   4.914   5.460
 6002POPC   PO475744  41.387   5.360   5.242
 6002POPC   GL175745  41.492   5.192   5.662
 6002POPC   GL275746  41.748   5.348   5.860
 6002POPC   C1A75747  41.447   5.010   6.095
 6002POPC   D2A75748  41.456   5.242   6.493
 6002POPC   C3A75749  41.221   5.138   6.865
 6002POPC   C4A75750  41.356   5.031   7.306
 6002POPC   C1B75751  41.849   5.499   6.255
 6002POPC   C2B75752  41.947   5.261   6.655
 6002POPC   C3B75753  41.719   5.034   6.952
 6002POPC   C4B75754  41.822   4.784   7.321
 6003POPC   NC375755  15.057  39.528   5.342
 6003POPC   PO475756  15.298  38.999   5.366
 6003POPC   GL175757  15.106  38.997   5.764
 6003POPC   GL275758  14.884  39.308   5.804
 6003POPC   C1A75759  15.315  38.874   6.155
 6003POPC   D2A75760  15.384  38.978   6.598
 6003POPC   C3A75761  15.163  38.746   6.908
 6003POPC   C4A75762  15.076  38.849   7.354
 6003POPC   C1B75763  14.989  39.251   6.247
 6003POPC   C2B75764  14.879  39.122   6.660
 6003POPC   C3B75765  15.006  39.266   7.061
 6003POPC   C4B75766  14.980  39.522   7.414
 6004POPC   NC375767   1.284  17.317   5.599
 6004POPC   PO475768   1.625  17.870   5.598
 6004POPC   GL175769   1.430  17.630   5.975
 6004POPC   GL275770   1.053  17.504   6.017
 6004POPC   C1A75771   1.432  17.260   6.259
 6004POPC   D2A75772   1.218  17.314   6.649
 6004POPC   C3A75773   1.244  17.654   6.932
 6004POPC   C4A75774   1.057  17.519   7.284
 6004POPC   C1B75775   0.815  17.677   6.382
 6004POPC   C2B75776   0.744  17.826   6.824
 6004POPC   C3B75777   0.618  17.743   7.286
 6004POPC   C4B75778   0.818  17.845   7.707
 6005POPC   NC375779  11.159  25.001   5.400
 6005POPC   PO475780  11.648  25.462   5.448
 6005POPC   GL175781  11.567  25.146   5.720
 6005POPC   GL275782  11.223  25.226   5.846
 6005POPC   C1A75783  11.654  25.043   6.159
 6005POPC   D2A75784  11.571  25.221   6.571
 6005POPC   C3A75785  11.598  25.062   7.006
 6005POPC   C4A75786  11.215  25.077   7.270
 6005POPC   C1B75787  11.385  25.502   6.149
 6005POPC   C2B75788  11.293  25.661   6.561
 6005POPC   C3B75789  11.407  25.567   6.990
 6005POPC   C4B75790  11.225  25.764   7.355
 6006POPC   NC375791  32.491   4.016   5.504
 6006POPC   PO475792  31.918   4.122   5.228
 6006POPC   GL175793  32.072   4.287   5.657
 6006POPC   GL275794  32.179   4.037   5.899
 6006POPC   C1A75795  32.128   4.526   6.065
 6006POPC   D2A75796  31.986   4.551   6.488
 6006POPC   C3A75797  32.192   4.316   6.822
 6006POPC   C4A75798  32.179   4.443   7.250
 6006POPC   C1B75799  32.253   4.088   6.335
 6006POPC   C2B75800  31.969   3.869   6.631
 6006POPC   C3B75801  32.132   3.800   7.004
 6006POPC   C4B75802  32.446   3.970   7.273
 6007POPC   NC375803  33.102  25.457   5.616
 6007POPC   PO475804  32.971  24.802   5.583
 6007POPC   GL175805  32.784  25.071   5.932
 6007POPC   GL275806  32.652  25.442   5.876
 6007POPC   C1A75807  32.982  25.094   6.371
 6007POPC   D2A75808  33.290  25.149   6.721
 6007POPC   C3A75809  33.095  25.269   7.103
 6007POPC   C4A75810  32.704  25.096   7.316
 6007POPC   C1B75811  32.602  25.420   6.343
 6007POPC   C2B75812  32.591  25.352   6.810
 6007POPC   C3B75813  32.737  25.603   7.175
 6007POPC   C4B75814  32.723  25.519   7.637
 6008POPC   NC375815  18.108   4.513   5.445
 6008POPC   PO475816  18.316   3.860   5.408
 6008POPC   GL175817  18.425   4.184   5.754
 6008POPC   GL275818  18.535   4.546   5.779
 6008POPC   C1A75819  18.318   4.192   6.208
 6008POPC   D2A75820  18.414   4.010   6.644
 6008POPC   C3A75821  18.139   4.087   7.011
 6008POPC   C4A75822  18.211   4.237   7.443
 6008POPC   C1B75823  18.400   4.718   6.193
 6008POPC   C2B75824  18.434   4.562   6.634
 6008POPC   C3B75825  18.233   4.586   7.049
 6008POPC   C4B75826  17.986   4.878   7.282
 6009POPC   NC375827  21.115  35.748   5.477
 6009POPC   PO475828  20.412  35.783   5.410
 6009POPC   GL175829  20.681  35.561   5.709
 6009POPC   GL275830  20.734  35.198   5.790
 6009POPC   C1A75831  20.655  35.530   6.159
 6009POPC   D2A75832  20.641  35.269   6.512
 6009POPC   C3A75833  20.842  35.474   6.844
 6009POPC   C4A75834  20.725  35.713   7.208
 6009POPC   C1B75835  20.409  35.062   6.076
 6009POPC   C2B75836  20.340  34.838   6.472
 6009POPC   C3B75837  20.454  34.916   6.891
 6009POPC   C4B75838  20.472  35.286   7.141
 6010POPC   NC375839   3.708  22.999   5.387
 6010POPC   PO475840   3.126  22.854   5.657
 6010POPC   GL175841   3.379  23.191   5.855
 6010POPC   GL275842   3.782  23.243   5.891
 6010POPC   C1A75843   3.497  23.140   6.280
 6010POPC   D2A75844   3.397  22.954   6.673
 6010POPC   C3A75845   3.260  23.153   7.085
 6010POPC   C4A75846   3.119  23.147   7.548
 6010POPC   C1B75847   3.942  22.896   6.222
 6010POPC   C2B75848   3.852  22.680   6.635
 6010POPC   C3B75849   3.458  22.492   6.828
 6010POPC   C4B75850   3.429  22.680   7.219
 6011POPC   NC375851  16.781  34.128   5.457
 6011POPC   PO475852  17.030  33.493   5.411
 6011POPC   GL175853  16.836  33.703   5.757
 6011POPC   GL275854  16.516  33.567   5.850
 6011POPC   C1A75855  16.939  33.903   6.134
 6011POPC   D2A75856  16.962  33.737   6.567
 6011POPC   C3A75857  16.867  33.917   6.968
 6011POPC   C4A75858  16.496  33.801   7.236
 6011POPC   C1B75859  16.487  33.700   6.289
 6011POPC   C2B75860  16.476  33.674   6.734
 6011POPC   C3B75861  16.510  33.333   7.030
 6011POPC   C4B75862  16.396  33.364   7.481
 6012POPC   NC375863  15.783  21.634   5.554
 6012POPC   PO475864  16.340  21.286   5.315
 6012POPC   GL175865  16.108  21.258   5.753
 6012POPC   GL275866  15.762  21.159   5.832
 6012POPC   C1A75867  16.020  21.421   6.202
 6012POPC   D2A75868  15.717  21.547   6.544
 6012POPC   C3A75869  15.808  21.596   7.000
 6012POPC   C4A75870  16.096  21.390   7.312
 6012POPC   C1B75871  16.018  20.915   6.132
 6012POPC   C2B75872  16.224  21.064   6.508
 6012POPC   C3B75873  16.013  21.146   6.846
 6012POPC   C4B75874  16.157  20.907   7.156
 6013POPC   NC375875  13.354  17.032   5.394
 6013POPC   PO475876  13.858  17.490   5.308
 6013POPC   GL175877  13.913  17.583   5.777
 6013POPC   GL275878  13.842  17.948   5.770
 6013POPC   C1A75879  13.775  17.412   6.228
 6013POPC   D2A75880  13.833  17.168   6.642
 6013POPC   C3A75881  13.760  17.301   7.079
 6013POPC   C4A75882  13.544  17.320   7.452
 6013POPC   C1B75883  13.915  17.907   6.210
 6013POPC   C2B75884  13.688  17.781   6.598
 6013POPC   C3B75885  13.762  17.806   7.015
 6013POPC   C4B75886  13.535  17.806   7.376
 6014POPC   NC375887  15.596  25.185   5.600
 6014POPC   PO475888  15.847  25.546   5.117
 6014POPC   GL175889  15.810  25.606   5.688
 6014POPC   GL275890  16.040  25.488   5.977
 6014POPC   C1A75891  15.587  25.598   6.147
 6014POPC   D2A75892  15.734  25.489   6.571
 6014POPC   C3A75893  15.819  25.276   6.952
 6014POPC   C4A75894  16.242  25.153   7.081
 6014POPC   C1B75895  15.788  25.118   6.211
 6014POPC   C2B75896  15.546  25.000   6.591
 6014POPC   C3B75897  15.525  24.853   7.027
 6014POPC   C4B75898  15.857  24.953   7.354
 6015POPC   NC375899   2.340  13.412   5.489
 6015POPC   PO475900   2.629  12.759   5.304
 6015POPC   GL175901   2.778  12.794   5.766
 6015POPC   GL275902   3.109  12.989   5.824
 6015POPC   C1A75903   2.650  12.660   6.209
 6015POPC   D2A75904   2.446  12.742   6.605
 6015POPC   C3A75905   2.670  12.677   7.004
 6015POPC   C4A75906   2.475  12.959   7.287
 6015POPC   C1B75907   3.081  12.932   6.251
 6015POPC   C2B75908   2.964  12.964   6.666
 6015POPC   C3B75909   3.120  12.938   7.076
 6015POPC   C4B75910   3.062  12.944   7.509
 6016POPC   NC375911  25.497  26.905   5.405
 6016POPC   PO475912  24.827  26.845   5.205
 6016POPC   GL175913  25.032  26.764   5.628
 6016POPC   GL275914  25.328  26.534   5.753
 6016POPC   C1A75915  25.040  26.810   6.077
 6016POPC   D2A75916  24.958  26.809   6.512
 6016POPC   C3A75917  25.299  26.938   6.789
 6016POPC   C4A75918  25.259  26.966   7.217
 6016POPC   C1B75919  25.550  26.518   6.208
 6016POPC   C2B75920  25.511  26.455   6.688
 6016POPC   C3B75921  25.367  26.480   7.133
 6016POPC   C4B75922  25.390  26.630   7.575
 6017POPC   NC375923  21.822  31.537   5.409
 6017POPC   PO475924  22.458  31.475   5.344
 6017POPC   GL175925  22.219  31.363   5.705
 6017POPC   GL275926  21.986  31.067   5.615
 6017POPC   C1A75927  22.182  31.618   6.103
 6017POPC   D2A75928  21.900  31.780   6.420
 6017POPC   C3A75929  22.100  31.832   6.831
 6017POPC   C4A75930  22.113  31.524   7.193
 6017POPC   C1B75931  21.847  31.236   6.028
 6017POPC   C2B75932  21.991  31.244   6.464
 6017POPC   C3B75933  22.034  31.082   6.877
 6017POPC   C4B75934  21.891  31.058   7.283
 6018POPC   NC375935  41.973  38.328   5.453
 6018POPC   PO475936  42.701  38.463   5.494
 6018POPC   GL175937  42.556  38.535   5.909
 6018POPC   GL275938  42.187  38.498   5.928
 6018POPC   C1A75939  42.623  38.796   6.275
 6018POPC   D2A75940  42.467  38.808   6.698
 6018POPC   C3A75941  42.324  38.380   6.807
 6018POPC   C4A75942  42.275  38.165   7.217
 6018POPC   C1B75943  42.091  38.615   6.366
 6018POPC   C2B75944  41.930  38.754   6.765
 6018POPC   C3B75945  42.026  38.625   7.197
 6018POPC   C4B75946  41.779  38.704   7.589
 6019POPC   NC375947   5.494  16.869   5.554
 6019POPC   PO475948   4.920  16.456   5.543
 6019POPC   GL175949   5.130  16.651   5.868
 6019POPC   GL275950   5.046  17.004   5.824
 6019POPC   C1A75951   5.067  16.661   6.302
 6019POPC   D2A75952   5.215  16.384   6.605
 6019POPC   C3A75953   5.104  16.635   6.952
 6019POPC   C4A75954   5.144  16.771   7.352
 6019POPC   C1B75955   5.312  17.083   6.186
 6019POPC   C2B75956   5.235  17.069   6.630
 6019POPC   C3B75957   5.449  17.042   7.030
 6019POPC   C4B75958   5.375  17.207   7.413
 6020POPC   NC375959  31.492  36.441   5.516
 6020POPC   PO475960  31.529  35.801   5.691
 6020POPC   GL175961  31.644  36.013   6.049
 6020POPC   GL275962  31.381  36.250   5.997
 6020POPC   C1A75963  31.629  36.064   6.510
 6020POPC   D2A75964  31.970  36.138   6.815
 6020POPC   C3A75965  31.911  36.211   7.268
 6020POPC   C4A75966  31.614  35.964   7.542
 6020POPC   C1B75967  31.472  36.535   6.335
 6020POPC   C2B75968  31.418  36.511   6.772
 6020POPC   C3B75969  31.430  36.271   7.160
 6020POPC   C4B75970  31.401  36.401   7.629
 6021POPC   NC375971  10.720   4.551   5.499
 6021POPC   PO475972  10.323   4.041   5.603
 6021POPC   GL175973  10.331   4.199   6.021
 6021POPC   GL275974  10.639   4.267   5.936
 6021POPC   C1A75975  10.420   4.184   6.472
 6021POPC   D2A75976  10.359   4.368   6.873
 6021POPC   C3A75977  10.070   4.219   7.176
 6021POPC   C4A75978  10.199   4.015   7.558
 6021POPC   C1B75979  10.875   4.127   6.255
 6021POPC   C2B75980  11.012   4.391   6.577
 6021POPC   C3B75981  10.834   4.546   6.960
 6021POPC   C4B75982  10.927   4.353   7.350
 6022POPC   NC375983  42.138  33.801   5.394
 6022POPC   PO475984  42.613  34.297   5.389
 6022POPC   GL175985  42.395  34.043   5.764
 6022POPC   GL275986  42.492  33.694   5.815
 6022POPC   C1A75987  42.463  33.978   6.241
 6022POPC   D2A75988  42.628  33.729   6.593
 6022POPC   C3A75989  42.465  33.596   6.960
 6022POPC   C4A75990  42.495  33.833   7.306
 6022POPC   C1B75991  42.373  33.467   6.193
 6022POPC   C2B75992  42.114  33.635   6.513
 6022POPC   C3B75993  41.937  33.585   6.897
 6022POPC   C4B75994  42.029  33.653   7.290
 6023POPC   NC375995  20.377   5.721   5.426
 6023POPC   PO475996  20.987   6.053   5.449
 6023POPC   GL175997  20.722   5.894   5.846
 6023POPC   GL275998  20.344   5.819   5.926
 6023POPC   C1A75999  20.647   5.790   6.313
 6023POPC   D2A76000  20.509   5.564   6.663
 6023POPC   C3A76001  20.670   5.777   7.032
 6023POPC   C4A76002  20.560   5.717   7.452
 6023POPC   C1B76003  20.246   6.108   6.271
 6023POPC   C2B76004  20.339   6.071   6.714
 6023POPC   C3B76005  20.258   6.076   7.171
 6023POPC   C4B76006  20.571   6.240   7.488
 6024POPC   NC376007  27.904  25.350   5.358
 6024POPC   PO476008  27.491  24.860   5.546
 6024POPC   GL176009  27.737  25.101   5.802
 6024POPC   GL276010  27.535  25.394   5.743
 6024POPC   C1A76011  27.660  25.295   6.225
 6024POPC   D2A76012  27.939  25.425   6.558
 6024POPC   C3A76013  27.700  25.442   6.932
 6024POPC   C4A76014  27.548  25.089   7.180
 6024POPC   C1B76015  27.230  25.540   6.086
 6024POPC   C2B76016  27.093  25.502   6.545
 6024POPC   C3B76017  27.185  25.504   7.002
 6024POPC   C4B76018  27.435  25.599   7.352
 6025POPC   NC376019   2.757  10.421   5.501
 6025POPC   PO476020   2.289  10.847   5.548
 6025POPC   GL176021   2.493  10.570   5.929
 6025POPC   GL276022   2.896  10.508   5.978
 6025POPC   C1A76023   2.597  10.557   6.385
 6025POPC   D2A76024   2.966  10.690   6.649
 6025POPC   C3A76025   2.893  10.500   7.066
 6025POPC   C4A76026   2.443  10.523   7.127
 6025POPC   C1B76027   3.025  10.254   6.344
 6025POPC   C2B76028   2.749  10.182   6.712
 6025POPC   C3B76029   2.575  10.015   7.112
 6025POPC   C4B76030   2.494  10.223   7.537
 6026POPC   NC376031  13.143  35.108   5.553
 6026POPC   PO476032  12.536  35.024   5.283
 6026POPC   GL176033  12.646  35.193   5.711
 6026POPC   GL276034  12.825  35.516   5.728
 6026POPC   C1A76035  12.856  35.187   6.141
 6026POPC   D2A76036  12.996  35.400   6.529
 6026POPC   C3A76037  12.844  35.228   6.913
 6026POPC   C4A76038  12.846  35.279   7.358
 6026POPC   C1B76039  12.806  35.726   6.155
 6026POPC   C2B76040  12.682  35.818   6.618
 6026POPC   C3B76041  12.683  35.705   7.096
 6026POPC   C4B76042  12.556  35.936   7.528
 6027POPC   NC376043  38.210   7.110   5.180
 6027POPC   PO476044  38.612   6.590   5.260
 6027POPC   GL176045  38.637   6.560   5.750
 6027POPC   GL276046  38.829   6.868   5.880
 6027POPC   C1A76047  38.413   6.616   6.163
 6027POPC   D2A76048  38.259   6.842   6.548
 6027POPC   C3A76049  38.249   6.563   6.913
 6027POPC   C4A76050  37.978   6.360   7.258
 6027POPC   C1B76051  38.877   6.729   6.317
 6027POPC   C2B76052  38.732   6.771   6.734
 6027POPC   C3B76053  38.680   6.716   7.160
 6027POPC   C4B76054  38.886   6.824   7.507
 6028POPC   NC376055   2.188  12.693   5.465
 6028POPC   PO476056   1.873  13.295   5.502
 6028POPC   GL176057   2.104  13.175   5.898
 6028POPC   GL276058   2.292  12.884   5.924
 6028POPC   C1A76059   2.149  13.112   6.363
 6028POPC   D2A76060   1.934  12.964   6.734
 6028POPC   C3A76061   1.958  12.954   7.182
 6028POPC   C4A76062   1.686  13.166   7.521
 6028POPC   C1B76063   2.087  12.591   6.228
 6028POPC   C2B76064   1.972  12.484   6.648
 6028POPC   C3B76065   2.189  12.506   7.014
 6028POPC   C4B76066   2.222  12.548   7.438
 6029POPC   NC376067  18.435  18.642   5.401
 6029POPC   PO476068  18.446  19.420   5.335
 6029POPC   GL176069  18.319  19.288   5.742
 6029POPC   GL276070  18.467  18.989   5.771
 6029POPC   C1A76071  18.238  19.168   6.192
 6029POPC   D2A76072  18.391  19.178   6.607
 6029POPC   C3A76073  18.144  19.287   6.957
 6029POPC   C4A76074  18.203  19.084   7.326
 6029POPC   C1B76075  18.613  18.778   6.159
 6029POPC   C2B76076  18.320  18.675   6.467
 6029POPC   C3B76077  18.273  18.718   6.891
 6029POPC   C4B76078  18.536  18.710   7.210
 6030POPC   NC376079  15.440   3.819   5.475
 6030POPC   PO476080  14.938   3.223   5.425
 6030POPC   GL176081  15.130   3.436   5.736
 6030POPC   GL276082  15.044   3.765   5.773
 6030POPC   C1A76083  15.250   3.441   6.141
 6030POPC   D2A76084  15.286   3.255   6.519
 6030POPC   C3A76085  15.198   3.359   6.942
 6030POPC   C4A76086  15.086   3.214   7.351
 6030POPC   C1B76087  15.126   3.929   6.175
 6030POPC   C2B76088  15.164   3.760   6.557
 6030POPC   C3B76089  15.343   3.889   6.911
 6030POPC   C4B76090  15.120   3.779   7.248
 6031POPC   NC376091  22.437  28.907   5.172
 6031POPC   PO476092  23.074  28.789   5.313
 6031POPC   GL176093  23.021  28.976   5.769
 6031POPC   GL276094  23.345  29.164   5.793
 6031POPC   C1A76095  22.771  29.226   6.128
 6031POPC   D2A76096  22.763  29.063   6.558
 6031POPC   C3A76097  22.784  29.314   6.946
 6031POPC   C4A76098  22.669  29.091   7.301
 6031POPC   C1B76099  23.232  29.070   6.224
 6031POPC   C2B76100  23.401  29.109   6.594
 6031POPC   C3B76101  23.166  28.976   6.894
 6031POPC   C4B76102  23.182  29.116   7.250
 6032POPC   NC376103  31.039  44.546   5.398
 6032POPC   PO476104  31.650  44.814   5.439
 6032POPC   GL176105  31.526  44.636   5.828
 6032POPC   GL276106  31.790  44.360   5.854
 6032POPC   C1A76107  31.330  44.746   6.240
 6032POPC   D2A76108  31.471  44.651   6.671
 6032POPC   C3A76109  31.296  44.763   7.056
 6032POPC   C4A76110  31.495   0.088   7.292
 6032POPC   C1B76111  31.752  44.465   6.266
 6032POPC   C2B76112  31.775  44.248   6.628
 6032POPC   C3B76113  31.850  44.369   7.027
 6032POPC   C4B76114  31.972  44.349   7.453
 6033POPC   NC376115  28.578  39.755   5.637
 6033POPC   PO476116  27.989  40.097   5.465
 6033POPC   GL176117  28.195  40.119   5.852
 6033POPC   GL276118  28.540  40.304   5.823
 6033POPC   C1A76119  28.028  40.097   6.272
 6033POPC   D2A76120  27.893  40.261   6.658
 6033POPC   C3A76121  27.983  40.032   7.047
 6033POPC   C4A76122  27.805  40.306   7.362
 6033POPC   C1B76123  28.527  40.094   6.247
 6033POPC   C2B76124  28.354  39.966   6.664
 6033POPC   C3B76125  28.498  40.098   7.078
 6033POPC   C4B76126  28.498  39.871   7.485
 6034POPC   NC376127  26.146  43.346   5.381
 6034POPC   PO476128  25.784  42.806   5.443
 6034POPC   GL176129  26.122  42.948   5.776
 6034POPC   GL276130  26.066  43.247   5.896
 6034POPC   C1A76131  26.179  42.794   6.222
 6034POPC   D2A76132  26.212  42.604   6.649
 6034POPC   C3A76133  26.021  42.802   6.984
 6034POPC   C4A76134  26.221  42.880   7.384
 6034POPC   C1B76135  26.000  43.277   6.319
 6034POPC   C2B76136  26.217  43.161   6.657
 6034POPC   C3B76137  26.141  43.297   7.060
 6034POPC   C4B76138  25.747  43.164   7.235
 6035POPC   NC376139   8.214  43.067   5.196
 6035POPC   PO476140   8.673  43.428   5.294
 6035POPC   GL176141   8.323  43.353   5.665
 6035POPC   GL276142   8.126  43.011   5.720
 6035POPC   C1A76143   8.153  43.286   6.139
 6035POPC   D2A76144   8.134  43.060   6.565
 6035POPC   C3A76145   7.955  43.272   6.942
 6035POPC   C4A76146   8.214  43.460   7.274
 6035POPC   C1B76147   7.947  42.796   6.112
 6035POPC   C2B76148   7.832  42.629   6.542
 6035POPC   C3B76149   7.999  42.680   6.990
 6035POPC   C4B76150   8.254  42.652   7.387
 6036POPC   NC376151  35.561   1.164   5.515
 6036POPC   PO476152  36.184   1.038   5.376
 6036POPC   GL176153  36.041   1.292   5.759
 6036POPC   GL276154  35.805   1.086   5.931
 6036POPC   C1A76155  36.081   1.352   6.259
 6036POPC   D2A76156  36.301   1.225   6.660
 6036POPC   C3A76157  36.195   1.432   7.075
 6036POPC   C4A76158  36.367   1.532   7.520
 6036POPC   C1B76159  35.728   0.958   6.313
 6036POPC   C2B76160  35.828   0.983   6.717
 6036POPC   C3B76161  36.126   0.826   6.957
 6036POPC   C4B76162  36.063   0.723   7.349
 6037POPC   NC376163  19.526  36.687   5.465
 6037POPC   PO476164  20.233  36.628   5.490
 6037POPC   GL176165  19.933  36.658   5.878
 6037POPC   GL276166  19.635  36.893   5.897
 6037POPC   C1A76167  19.871  36.840   6.329
 6037POPC   D2A76168  19.696  37.206   6.580
 6037POPC   C3A76169  19.778  37.106   7.017
 6037POPC   C4A76170  19.851  36.663   7.165
 6037POPC   C1B76171  19.379  36.783   6.251
 6037POPC   C2B76172  19.541  36.729   6.700
 6037POPC   C3B76173  19.365  36.833   7.082
 6037POPC   C4B76174  19.517  36.866   7.479
 6038POPC   NC376175  19.707   1.574   5.479
 6038POPC   PO476176  19.882   2.275   5.361
 6038POPC   GL176177  19.896   2.064   5.824
 6038POPC   GL276178  19.632   1.826   5.893
 6038POPC   C1A76179  20.029   1.931   6.279
 6038POPC   D2A76180  20.162   2.167   6.631
 6038POPC   C3A76181  20.105   1.977   6.986
 6038POPC   C4A76182  19.823   2.018   7.260
 6038POPC   C1B76183  19.576   1.699   6.301
 6038POPC   C2B76184  19.661   1.932   6.677
 6038POPC   C3B76185  19.406   1.827   7.006
 6038POPC   C4B76186  19.470   1.703   7.422
 6039POPC   NC376187   6.854   6.383   5.465
 6039POPC   PO476188   6.386   6.824   5.387
 6039POPC   GL176189   6.516   6.639   5.788
 6039POPC   GL276190   6.890   6.695   5.859
 6039POPC   C1A76191   6.336   6.484   6.203
 6039POPC   D2A76192   6.455   6.212   6.536
 6039POPC   C3A76193   6.453   6.333   6.967
 6039POPC   C4A76194   6.521   6.239   7.400
 6039POPC   C1B76195   6.734   6.813   6.238
 6039POPC   C2B76196   6.736   6.654   6.618
 6039POPC   C3B76197   6.678   6.862   6.958
 6039POPC   C4B76198   6.473   6.741   7.299
 6040POPC   NC376199  35.885  41.396   5.293
 6040POPC   PO476200  36.156  41.910   5.499
 6040POPC   GL176201  36.112  41.620   5.791
 6040POPC   GL276202  36.328  41.321   5.748
 6040POPC   C1A76203  36.168  41.696   6.220
 6040POPC   D2A76204  35.919  41.835   6.548
 6040POPC   C3A76205  36.113  41.801   6.922
 6040POPC   C4A76206  36.144  41.959   7.310
 6040POPC   C1B76207  36.001  41.189   6.094
 6040POPC   C2B76208  35.776  41.256   6.529
 6040POPC   C3B76209  35.771  41.089   6.988
 6040POPC   C4B76210  35.871  41.234   7.430
 6041POPC   NC376211  29.473  18.984   5.477
 6041POPC   PO476212  28.995  19.461   5.466
 6041POPC   GL176213  28.996  19.044   5.716
 6041POPC   GL276214  28.785  18.728   5.789
 6041POPC   C1A76215  29.137  18.958   6.137
 6041POPC   D2A76216  29.150  19.184   6.531
 6041POPC   C3A76217  29.370  19.049   6.889
 6041POPC   C4A76218  29.342  19.173   7.286
 6041POPC   C1B76219  28.866  18.533   6.221
 6041POPC   C2B76220  28.936  18.711   6.636
 6041POPC   C3B76221  28.974  18.712   7.071
 6041POPC   C4B76222  28.990  18.876   7.475
 6042POPC   NC376223  29.349  44.473   5.564
 6042POPC   PO476224  28.912  44.973   5.509
 6042POPC   GL176225  29.130  44.900   5.878
 6042POPC   GL276226  29.486  44.930   5.798
 6042POPC   C1A76227  28.959  44.648   6.228
 6042POPC   D2A76228  28.864  44.453   6.619
 6042POPC   C3A76229  29.089  44.558   6.978
 6042POPC   C4A76230  28.941  44.649   7.388
 6042POPC   C1B76231  29.472  44.651   6.176
 6042POPC   C2B76232  29.421  44.713   6.589
 6042POPC   C3B76233  29.616  44.488   6.914
 6042POPC   C4B76234  29.486  44.565   7.305
 6043POPC   NC376235  10.804  30.676   5.418
 6043POPC   PO476236  10.165  30.854   5.379
 6043POPC   GL176237  10.437  30.841   5.777
 6043POPC   GL276238  10.288  31.156   5.920
 6043POPC   C1A76239  10.609  30.925   6.225
 6043POPC   D2A76240  10.447  30.828   6.661
 6043POPC   C3A76241  10.716  30.604   6.962
 6043POPC   C4A76242  10.848  30.418   7.344
 6043POPC   C1B76243  10.085  30.793   6.157
 6043POPC   C2B76244  10.065  30.480   6.483
 6043POPC   C3B76245  10.111  30.511   6.916
 6043POPC   C4B76246  10.323  30.515   7.292
 6044POPC   NC376247  11.185   2.289   5.391
 6044POPC   PO476248  11.175   1.648   5.554
 6044POPC   GL176249  11.523   1.821   5.805
 6044POPC   GL276250  11.647   2.130   5.635
 6044POPC   C1A76251  11.426   1.874   6.282
 6044POPC   D2A76252  11.073   1.964   6.612
 6044POPC   C3A76253  11.115   1.836   7.073
 6044POPC   C4A76254  11.490   1.579   7.229
 6044POPC   C1B76255  11.378   2.304   5.997
 6044POPC   C2B76256  11.330   2.404   6.426
 6044POPC   C3B76257  11.350   2.320   6.866
 6044POPC   C4B76258  11.453   2.146   7.281
 6045POPC   NC376259  41.329  20.189   5.621
 6045POPC   PO476260  41.515  20.695   5.143
 6045POPC   GL176261  41.611  20.725   5.662
 6045POPC   GL276262  41.368  20.576   5.951
 6045POPC   C1A76263  41.745  20.847   6.130
 6045POPC   D2A76264  41.616  20.595   6.514
 6045POPC   C3A76265  41.691  20.698   6.938
 6045POPC   C4A76266  41.936  20.502   7.233
 6045POPC   C1B76267  41.181  20.389   6.345
 6045POPC   C2B76268  41.187  20.345   6.827
 6045POPC   C3B76269  41.362  20.323   7.279
 6045POPC   C4B76270  41.285  20.433   7.754
 6046POPC   NC376271   4.002  33.744   5.407
 6046POPC   PO476272   3.341  33.860   5.424
 6046POPC   GL176273   3.545  33.845   5.824
 6046POPC   GL276274   3.226  33.851   5.940
 6046POPC   C1A76275   3.553  34.063   6.273
 6046POPC   D2A76276   3.776  34.141   6.688
 6046POPC   C3A76277   3.898  33.755   6.893
 6046POPC   C4A76278   3.674  33.575   7.229
 6046POPC   C1B76279   3.142  33.638   6.323
 6046POPC   C2B76280   3.413  33.725   6.674
 6046POPC   C3B76281   3.375  33.959   7.033
 6046POPC   C4B76282   3.158  33.651   7.277
 6047POPC   NC376283  32.033  19.597   5.306
 6047POPC   PO476284  32.260  19.003   5.437
 6047POPC   GL176285  32.305  19.223   5.811
 6047POPC   GL276286  32.204  18.929   5.992
 6047POPC   C1A76287  32.281  19.365   6.232
 6047POPC   D2A76288  32.091  19.334   6.628
 6047POPC   C3A76289  32.153  18.952   6.880
 6047POPC   C4A76290  32.149  19.125   7.289
 6047POPC   C1B76291  31.859  19.039   6.279
 6047POPC   C2B76292  31.644  18.959   6.639
 6047POPC   C3B76293  31.727  19.230   6.965
 6047POPC   C4B76294  31.670  19.280   7.353
 6048POPC   NC376295  40.201  41.844   5.368
 6048POPC   PO476296  39.855  41.416   5.202
 6048POPC   GL176297  39.892  41.526   5.662
 6048POPC   GL276298  39.971  41.840   5.829
 6048POPC   C1A76299  39.806  41.375   6.105
 6048POPC   D2A76300  39.836  41.196   6.548
 6048POPC   C3A76301  39.774  41.381   7.009
 6048POPC   C4A76302  39.810  41.857   7.152
 6048POPC   C1B76303  40.298  41.514   5.984
 6048POPC   C2B76304  40.376  41.451   6.444
 6048POPC   C3B76305  40.252  41.278   6.841
 6048POPC   C4B76306  40.226  41.573   7.192
 6049POPC   NC376307  35.889  27.449   5.251
 6049POPC   PO476308  36.521  27.740   5.533
 6049POPC   GL176309  36.119  27.762   5.786
 6049POPC   GL276310  36.010  27.445   5.735
 6049POPC   C1A76311  35.892  27.780   6.236
 6049POPC   D2A76312  35.922  27.766   6.725
 6049POPC   C3A76313  36.272  27.702   7.001
 6049POPC   C4A76314  36.300  27.827   7.462
 6049POPC   C1B76315  36.174  27.355   6.105
 6049POPC   C2B76316  35.959  27.321   6.474
 6049POPC   C3B76317  36.017  27.262   6.888
 6049POPC   C4B76318  35.944  26.993   7.205
 6050POPC   NC376319  37.997  34.537   5.283
 6050POPC   PO476320  37.312  34.846   5.473
 6050POPC   GL176321  37.465  34.743   5.917
 6050POPC   GL276322  37.830  34.641   5.939
 6050POPC   C1A76323  37.530  34.452   6.281
 6050POPC   D2A76324  37.858  34.526   6.555
 6050POPC   C3A76325  37.754  34.529   6.971
 6050POPC   C4A76326  37.855  34.508   7.424
 6050POPC   C1B76327  37.976  34.219   6.150
 6050POPC   C2B76328  38.043  34.024   6.572
 6050POPC   C3B76329  38.042  34.122   7.067
 6050POPC   C4B76330  38.012  34.051   7.567
 6051POPC   NC376331   2.188   6.518   5.477
 6051POPC   PO476332   1.742   6.990   5.372
 6051POPC   GL176333   1.961   6.889   5.752
 6051POPC   GL276334   1.839   6.577   5.842
 6051POPC   C1A76335   2.151   6.914   6.174
 6051POPC   D2A76336   2.117   6.691   6.578
 6051POPC   C3A76337   2.052   6.921   6.955
 6051POPC   C4A76338   2.225   6.920   7.396
 6051POPC   C1B76339   2.111   6.390   6.153
 6051POPC   C2B76340   1.961   6.183   6.527
 6051POPC   C3B76341   2.038   6.282   6.928
 6051POPC   C4B76342   1.958   6.471   7.293
 6052POPC   NC376343  18.388  37.127   4.801
 6052POPC   PO476344  18.397  36.689   5.414
 6052POPC   GL176345  18.497  36.679   5.891
 6052POPC   GL276346  18.422  37.010   5.942
 6052POPC   C1A76347  18.398  36.505   6.319
 6052POPC   D2A76348  18.063  36.545   6.657
 6052POPC   C3A76349  18.166  36.620   7.116
 6052POPC   C4A76350  17.924  36.764   7.521
 6052POPC   C1B76351  18.134  36.937   6.294
 6052POPC   C2B76352  17.949  37.044   6.695
 6052POPC   C3B76353  18.157  37.116   7.076
 6052POPC   C4B76354  18.528  37.362   7.184
 6053POPC   NC376355  23.164  12.170   5.590
 6053POPC   PO476356  22.563  12.382   5.427
 6053POPC   GL176357  22.797  12.442   5.835
 6053POPC   GL276358  22.690  12.113   5.879
 6053POPC   C1A76359  23.018  12.261   6.251
 6053POPC   D2A76360  22.952  11.881   6.570
 6053POPC   C3A76361  22.961  12.049   7.005
 6053POPC   C4A76362  22.876  12.485   7.126
 6053POPC   C1B76363  22.533  12.107   6.249
 6053POPC   C2B76364  22.616  12.250   6.621
 6053POPC   C3B76365  22.478  12.207   6.984
 6053POPC   C4B76366  22.538  12.167   7.382
 6054POPC   NC376367  39.996  35.132   5.375
 6054POPC   PO476368  39.785  35.732   5.579
 6054POPC   GL176369  40.174  35.597   5.807
 6054POPC   GL276370  40.238  35.224   5.819
 6054POPC   C1A76371  40.248  35.640   6.243
 6054POPC   D2A76372  39.924  35.605   6.526
 6054POPC   C3A76373  39.941  35.332   6.856
 6054POPC   C4A76374  39.735  35.464   7.208
 6054POPC   C1B76375  40.423  35.116   6.186
 6054POPC   C2B76376  40.310  34.952   6.582
 6054POPC   C3B76377  40.371  35.069   6.975
 6054POPC   C4B76378  40.046  35.076   7.302
 6055POPC   NC376379  18.894  43.833   5.350
 6055POPC   PO476380  19.388  43.388   5.462
 6055POPC   GL176381  19.102  43.697   5.779
 6055POPC   GL276382  18.718  43.658   5.790
 6055POPC   C1A76383  18.988  43.954   6.158
 6055POPC   D2A76384  19.301  43.976   6.487
 6055POPC   C3A76385  19.182  44.024   6.905
 6055POPC   C4A76386  19.221  43.717   7.187
 6055POPC   C1B76387  18.711  43.517   6.221
 6055POPC   C2B76388  18.889  43.668   6.618
 6055POPC   C3B76389  18.731  43.798   7.025
 6055POPC   C4B76390  18.795  43.683   7.452
 6056POPC   NC376391  15.119  13.593   5.201
 6056POPC   PO476392  14.432  13.631   5.331
 6056POPC   GL176393  14.338  13.523   5.775
 6056POPC   GL276394  14.657  13.343   5.906
 6056POPC   C1A76395  14.407  13.693   6.219
 6056POPC   D2A76396  14.322  13.871   6.645
 6056POPC   C3A76397  14.541  13.867   7.019
 6056POPC   C4A76398  14.503  13.523   7.292
 6056POPC   C1B76399  14.629  13.270   6.372
 6056POPC   C2B76400  14.590  13.394   6.784
 6056POPC   C3B76401  14.789  13.151   7.100
 6056POPC   C4B76402  14.715  13.134   7.561
 6057POPC   NC376403  44.034  15.530   5.501
 6057POPC   PO476404  43.854  14.967   5.204
 6057POPC   GL176405  43.851  15.009   5.686
 6057POPC   GL276406  44.162  15.069   5.811
 6057POPC   C1A76407  43.677  15.251   6.068
 6057POPC   D2A76408  43.740  15.546   6.442
 6057POPC   C3A76409  43.655  15.388   6.864
 6057POPC   C4A76410  43.809  15.459   7.248
 6057POPC   C1B76411  44.176  15.266   6.220
 6057POPC   C2B76412  44.185  15.385   6.646
 6057POPC   C3B76413  44.274  15.383   7.052
 6057POPC   C4B76414  44.195  15.122   7.387
 6058POPC   NC376415  22.583  30.199   5.115
 6058POPC   PO476416  22.987  29.777   5.431
 6058POPC   GL176417  22.959  29.927   5.860
 6058POPC   GL276418  23.302  30.076   5.894
 6058POPC   C1A76419  22.894  30.209   6.212
 6058POPC   D2A76420  22.949  30.021   6.615
 6058POPC   C3A76421  22.865  30.225   6.991
 6058POPC   C4A76422  22.895  29.804   7.163
 6058POPC   C1B76423  23.364  30.004   6.288
 6058POPC   C2B76424  23.524  29.930   6.650
 6058POPC   C3B76425  23.359  30.074   7.003
 6058POPC   C4B76426  23.315  29.942   7.403
 6059POPC   NC376427  23.874  28.769   5.398
 6059POPC   PO476428  23.599  28.207   5.373
 6059POPC   GL176429  23.785  28.198   5.793
 6059POPC   GL276430  24.114  28.408   5.759
 6059POPC   C1A76431  23.523  28.249   6.182
 6059POPC   D2A76432  23.414  28.630   6.427
 6059POPC   C3A76433  23.394  28.528   6.886
 6059POPC   C4A76434  23.494  28.162   7.148
 6059POPC   C1B76435  23.947  28.540   6.175
 6059POPC   C2B76436  23.823  28.404   6.597
 6059POPC   C3B76437  23.893  28.471   7.012
 6059POPC   C4B76438  23.986  28.064   7.181
 6060POPC   NC376439  12.230  30.815   5.058
 6060POPC   PO476440  12.101  30.492   5.623
 6060POPC   GL176441  12.020  30.777   5.941
 6060POPC   GL276442  11.660  30.827   6.026
 6060POPC   C1A76443  12.201  30.773   6.351
 6060POPC   D2A76444  12.127  30.975   6.747
 6060POPC   C3A76445  12.309  30.883   7.148
 6060POPC   C4A76446  12.215  30.621   7.496
 6060POPC   C1B76447  11.802  30.455   6.273
 6060POPC   C2B76448  11.979  30.444   6.699
 6060POPC   C3B76449  11.851  30.597   7.127
 6060POPC   C4B76450  11.738  30.546   7.618
 6061POPC   NC376451  28.406  21.060   5.171
 6061POPC   PO476452  28.094  20.415   5.261
 6061POPC   GL176453  28.168  20.415   5.774
 6061POPC   GL276454  28.361  20.699   5.896
 6061POPC   C1A76455  28.288  20.394   6.291
 6061POPC   D2A76456  28.207  20.627   6.717
 6061POPC   C3A76457  28.225  20.364   7.085
 6061POPC   C4A76458  27.983  20.174   7.406
 6061POPC   C1B76459  28.421  20.902   6.296
 6061POPC   C2B76460  28.684  20.710   6.562
 6061POPC   C3B76461  28.691  20.464   6.914
 6061POPC   C4B76462  28.536  20.773   7.198
 6062POPC   NC376463  18.044   3.486   5.534
 6062POPC   PO476464  18.780   3.407   5.448
 6062POPC   GL176465  18.510   3.386   5.767
 6062POPC   GL276466  18.413   3.696   5.906
 6062POPC   C1A76467  18.513   3.267   6.201
 6062POPC   D2A76468  18.314   3.228   6.599
 6062POPC   C3A76469  18.524   3.520   6.881
 6062POPC   C4A76470  18.606   3.402   7.318
 6062POPC   C1B76471  18.174   3.687   6.297
 6062POPC   C2B76472  18.009   3.655   6.735
 6062POPC   C3B76473  18.129   3.579   7.190
 6062POPC   C4B76474  18.258   3.767   7.634
 6063POPC   NC376475  35.529  28.295   5.316
 6063POPC   PO476476  34.874  28.009   5.380
 6063POPC   GL176477  35.025  28.129   5.788
 6063POPC   GL276478  34.913  28.458   5.774
 6063POPC   C1A76479  35.281  28.202   6.178
 6063POPC   D2A76480  35.453  28.498   6.484
 6063POPC   C3A76481  35.349  28.455   6.918
 6063POPC   C4A76482  35.564  28.435   7.325
 6063POPC   C1B76483  35.110  28.685   6.132
 6063POPC   C2B76484  34.975  28.672   6.538
 6063POPC   C3B76485  34.986  28.810   6.922
 6063POPC   C4B76486  34.912  28.537   7.230
 6064POPC   NC376487   1.086   8.358   5.479
 6064POPC   PO476488   1.617   7.920   5.718
 6064POPC   GL176489   1.358   8.225   5.911
 6064POPC   GL276490   1.013   8.179   5.937
 6064POPC   C1A76491   1.327   8.283   6.352
 6064POPC   D2A76492   1.485   7.990   6.694
 6064POPC   C3A76493   1.207   8.066   6.997
 6064POPC   C4A76494   1.078   8.470   7.073
 6064POPC   C1B76495   0.794   8.055   6.288
 6064POPC   C2B76496   0.825   8.215   6.681
 6064POPC   C3B76497   0.701   8.072   7.058
 6064POPC   C4B76498   0.892   7.845   7.324
 6065POPC   NC376499  41.521  38.881   5.399
 6065POPC   PO476500  41.510  38.259   5.472
 6065POPC   GL176501  41.609  38.437   5.798
 6065POPC   GL276502  41.366  38.662   5.835
 6065POPC   C1A76503  41.755  38.293   6.152
 6065POPC   D2A76504  41.622  38.384   6.550
 6065POPC   C3A76505  41.833  38.254   6.889
 6065POPC   C4A76506  41.572  38.401   7.195
 6065POPC   C1B76507  41.253  38.423   6.188
 6065POPC   C2B76508  41.091  38.392   6.592
 6065POPC   C3B76509  41.237  38.656   6.919
 6065POPC   C4B76510  41.257  38.756   7.376
 6066POPC   NC376511  19.403  18.875   5.533
 6066POPC   PO476512  18.869  18.706   5.243
 6066POPC   GL176513  18.917  18.755   5.714
 6066POPC   GL276514  18.978  19.113   5.749
 6066POPC   C1A76515  19.145  18.854   6.142
 6066POPC   D2A76516  19.477  18.938   6.430
 6066POPC   C3A76517  19.266  18.940   6.802
 6066POPC   C4A76518  19.285  19.085   7.219
 6066POPC   C1B76519  18.757  19.261   6.107
 6066POPC   C2B76520  18.889  19.151   6.513
 6066POPC   C3B76521  18.781  19.059   6.933
 6066POPC   C4B76522  18.773  19.175   7.337
 6067POPC   NC376523  38.168  10.779   5.600
 6067POPC   PO476524  38.411  10.086   5.505
 6067POPC   GL176525  38.401  10.381   5.827
 6067POPC   GL276526  38.701  10.575   5.929
 6067POPC   C1A76527  38.277  10.422   6.238
 6067POPC   D2A76528  38.459  10.252   6.594
 6067POPC   C3A76529  38.480  10.459   6.970
 6067POPC   C4A76530  38.419  10.301   7.386
 6067POPC   C1B76531  38.681  10.755   6.333
 6067POPC   C2B76532  38.324  10.806   6.609
 6067POPC   C3B76533  38.207  10.885   7.024
 6067POPC   C4B76534  38.438  10.860   7.390
 6068POPC   NC376535  40.673  18.737   5.214
 6068POPC   PO476536  40.983  19.122   5.635
 6068POPC   GL176537  40.789  19.027   5.961
 6068POPC   GL276538  40.478  19.152   5.903
 6068POPC   C1A76539  40.750  19.038   6.385
 6068POPC   D2A76540  40.622  19.089   6.782
 6068POPC   C3A76541  40.928  19.203   7.053
 6068POPC   C4A76542  40.911  19.223   7.460
 6068POPC   C1B76543  40.366  18.784   6.148
 6068POPC   C2B76544  40.363  18.675   6.603
 6068POPC   C3B76545  40.291  18.804   7.045
 6068POPC   C4B76546  40.449  19.155   7.271
 6069POPC   NC376547  20.404  33.984   5.573
 6069POPC   PO476548  20.908  33.592   5.338
 6069POPC   GL176549  20.883  33.805   5.787
 6069POPC   GL276550  20.595  33.806   5.991
 6069POPC   C1A76551  21.028  33.862   6.254
 6069POPC   D2A76552  20.980  33.976   6.719
 6069POPC   C3A76553  20.948  33.729   7.134
 6069POPC   C4A76554  20.819  33.973   7.520
 6069POPC   C1B76555  20.220  33.879   6.221
 6069POPC   C2B76556  20.314  33.940   6.631
 6069POPC   C3B76557  20.187  34.028   7.022
 6069POPC   C4B76558  20.445  33.764   7.251
 6070POPC   NC376559  33.713  42.973   5.489
 6070POPC   PO476560  34.050  43.610   5.421
 6070POPC   GL176561  33.941  43.343   5.778
 6070POPC   GL276562  33.575  43.411   5.785
 6070POPC   C1A76563  33.920  43.147   6.192
 6070POPC   D2A76564  34.125  43.285   6.560
 6070POPC   C3A76565  34.110  42.995   6.900
 6070POPC   C4A76566  34.016  42.883   7.289
 6070POPC   C1B76567  33.409  43.183   6.144
 6070POPC   C2B76568  33.521  43.003   6.538
 6070POPC   C3B76569  33.601  42.889   6.963
 6070POPC   C4B76570  33.654  43.238   7.239
 6071POPC   NC376571  18.824   3.836   5.617
 6071POPC   PO476572  19.155   4.399   5.339
 6071POPC   GL176573  19.006   4.308   5.764
 6071POPC   GL276574  19.206   4.030   5.916
 6071POPC   C1A76575  19.129   4.459   6.188
 6071POPC   D2A76576  19.254   4.280   6.591
 6071POPC   C3A76577  19.062   4.429   6.976
 6071POPC   C4A76578  18.687   4.389   7.210
 6071POPC   C1B76579  18.850   4.032   6.233
 6071POPC   C2B76580  18.907   3.806   6.606
 6071POPC   C3B76581  18.872   3.945   6.995
 6071POPC   C4B76582  18.554   3.905   7.257
 6072POPC   NC376583  12.645  34.611   5.103
 6072POPC   PO476584  12.863  34.019   5.257
 6072POPC   GL176585  12.839  34.466   5.553
 6072POPC   GL276586  12.562  34.667   5.656
 6072POPC   C1A76587  12.959  34.659   6.008
 6072POPC   D2A76588  12.803  34.472   6.396
 6072POPC   C3A76589  12.892  34.578   6.822
 6072POPC   C4A76590  12.771  34.495   7.228
 6072POPC   C1B76591  12.478  34.820   6.100
 6072POPC   C2B76592  12.620  34.938   6.533
 6072POPC   C3B76593  12.497  34.861   6.974
 6072POPC   C4B76594  12.344  35.197   7.218
 6073POPC   NC376595  13.309  40.840   5.562
 6073POPC   PO476596  12.692  40.596   5.327
 6073POPC   GL176597  12.845  40.739   5.767
 6073POPC   GL276598  12.577  40.803   5.993
 6073POPC   C1A76599  13.034  40.770   6.222
 6073POPC   D2A76600  12.852  40.735   6.664
 6073POPC   C3A76601  13.040  40.608   7.038
 6073POPC   C4A76602  13.422  40.696   7.264
 6073POPC   C1B76603  12.543  41.013   6.378
 6073POPC   C2B76604  12.872  41.283   6.585
 6073POPC   C3B76605  12.994  41.172   7.004
 6073POPC   C4B76606  12.609  40.944   7.115
 6074POPC   NC376607  30.553   4.138   5.368
 6074POPC   PO476608  30.577   4.749   5.414
 6074POPC   GL176609  30.702   4.483   5.770
 6074POPC   GL276610  30.461   4.281   5.867
 6074POPC   C1A76611  30.847   4.339   6.184
 6074POPC   D2A76612  30.613   4.176   6.553
 6074POPC   C3A76613  30.747   4.288   6.997
 6074POPC   C4A76614  30.911   4.142   7.417
 6074POPC   C1B76615  30.353   4.504   6.265
 6074POPC   C2B76616  30.306   4.534   6.731
 6074POPC   C3B76617  30.286   4.555   7.171
 6074POPC   C4B76618  30.575   4.571   7.500
 6075POPC   NC376619   3.373   4.542   5.451
 6075POPC   PO476620   3.276   3.940   5.600
 6075POPC   GL176621   3.321   4.084   5.968
 6075POPC   GL276622   3.593   4.309   5.959
 6075POPC   C1A76623   3.384   4.090   6.393
 6075POPC   D2A76624   3.703   4.341   6.573
 6075POPC   C3A76625   3.575   4.445   6.987
 6075POPC   C4A76626   3.183   4.274   7.151
 6075POPC   C1B76627   3.846   3.972   6.217
 6075POPC   C2B76628   3.918   3.856   6.677
 6075POPC   C3B76629   3.752   3.961   7.122
 6075POPC   C4B76630   3.851   4.030   7.558
 6076POPC   NC376631  11.832  33.333   5.593
 6076POPC   PO476632  11.229  33.790   5.474
 6076POPC   GL176633  11.188  33.688   5.891
 6076POPC   GL276634  11.565  33.671   5.851
 6076POPC   C1A76635  11.130  33.638   6.371
 6076POPC   D2A76636  11.060  33.928   6.713
 6076POPC   C3A76637  11.161  33.703   7.070
 6076POPC   C4A76638  11.490  33.640   7.282
 6076POPC   C1B76639  11.570  33.832   6.208
 6076POPC   C2B76640  11.547  33.839   6.632
 6076POPC   C3B76641  11.515  34.064   7.006
 6076POPC   C4B76642  11.607  34.178   7.435
 6077POPC   NC376643  20.704  24.117   5.447
 6077POPC   PO476644  20.217  24.595   5.404
 6077POPC   GL176645  20.425  24.446   5.772
 6077POPC   GL276646  20.796  24.497   5.826
 6077POPC   C1A76647  20.434  24.614   6.190
 6077POPC   D2A76648  20.601  24.675   6.619
 6077POPC   C3A76649  20.339  24.631   6.983
 6077POPC   C4A76650  20.373  24.768   7.411
 6077POPC   C1B76651  20.860  24.344   6.268
 6077POPC   C2B76652  20.756  24.145   6.669
 6077POPC   C3B76653  20.699  24.253   7.088
 6077POPC   C4B76654  20.832  24.672   7.153
 6078POPC   NC376655  42.708  28.060   5.434
 6078POPC   PO476656  42.028  28.307   5.438
 6078POPC   GL176657  42.306  28.362   5.801
 6078POPC   GL276658  42.694  28.365   5.839
 6078POPC   C1A76659  42.356  28.265   6.226
 6078POPC   D2A76660  42.404  28.500   6.578
 6078POPC   C3A76661  42.088  28.433   6.858
 6078POPC   C4A76662  42.182  28.433   7.294
 6078POPC   C1B76663  42.777  28.000   6.136
 6078POPC   C2B76664  42.719  27.987   6.601
 6078POPC   C3B76665  42.568  28.210   6.981
 6078POPC   C4B76666  42.649  28.281   7.444
 6079POPC   NC376667  19.850  19.965   5.489
 6079POPC   PO476668  19.435  19.355   5.468
 6079POPC   GL176669  19.508  19.719   5.824
 6079POPC   GL276670  19.570  20.094   5.904
 6079POPC   C1A76671  19.543  19.795   6.297
 6079POPC   D2A76672  19.566  20.003   6.655
 6079POPC   C3A76673  19.441  19.868   6.953
 6079POPC   C4A76674  19.578  19.930   7.306
 6079POPC   C1B76675  19.759  20.286   6.303
 6079POPC   C2B76676  19.940  20.328   6.771
 6079POPC   C3B76677  19.884  20.326   7.243
 6079POPC   C4B76678  19.512  20.395   7.540
 6080POPC   NC376679  15.625  11.850   5.480
 6080POPC   PO476680  16.265  12.060   5.591
 6080POPC   GL176681  16.080  11.999   5.940
 6080POPC   GL276682  15.982  11.677   5.812
 6080POPC   C1A76683  15.814  12.229   6.220
 6080POPC   D2A76684  15.842  12.367   6.630
 6080POPC   C3A76685  16.167  12.208   6.847
 6080POPC   C4A76686  16.205  12.041   7.252
 6080POPC   C1B76687  15.743  11.689   6.181
 6080POPC   C2B76688  15.626  11.888   6.565
 6080POPC   C3B76689  15.749  11.975   6.998
 6080POPC   C4B76690  15.718  11.724   7.394
 6081POPC   NC376691  27.886  44.487   5.464
 6081POPC   PO476692  27.344  44.764   5.591
 6081POPC   GL176693  27.580  44.569   5.922
 6081POPC   GL276694  27.779  44.845   5.879
 6081POPC   C1A76695  27.529  44.539   6.399
 6081POPC   D2A76696  27.558  44.482   6.873
 6081POPC   C3A76697  27.278  44.574   7.214
 6081POPC   C4A76698  27.145  44.886   7.496
 6081POPC   C1B76699  27.897  44.870   6.297
 6081POPC   C2B76700  27.715  44.938   6.712
 6081POPC   C3B76701  27.644  44.941   7.190
 6081POPC   C4B76702  27.977  44.888   7.530
 6082POPC   NC376703  18.972  22.098   5.228
 6082POPC   PO476704  18.937  22.483   5.727
 6082POPC   GL176705  19.081  22.106   5.912
 6082POPC   GL276706  18.823  21.915   5.853
 6082POPC   C1A76707  19.263  22.101   6.304
 6082POPC   D2A76708  19.234  22.415   6.640
 6082POPC   C3A76709  18.882  22.334   6.912
 6082POPC   C4A76710  19.021  22.227   7.276
 6082POPC   C1B76711  18.753  21.916   6.314
 6082POPC   C2B76712  19.012  21.876   6.712
 6082POPC   C3B76713  19.382  22.029   6.975
 6082POPC   C4B76714  19.463  21.996   7.444
 6083POPC   NC376715  23.854   2.366   5.334
 6083POPC   PO476716  23.697   2.898   5.614
 6083POPC   GL176717  23.953   2.594   5.826
 6083POPC   GL276718  23.695   2.336   5.870
 6083POPC   C1A76719  24.013   2.458   6.271
 6083POPC   D2A76720  23.828   2.453   6.709
 6083POPC   C3A76721  23.760   2.769   7.005
 6083POPC   C4A76722  23.975   3.034   7.278
 6083POPC   C1B76723  23.563   2.673   6.208
 6083POPC   C2B76724  23.406   2.783   6.615
 6083POPC   C3B76725  23.229   2.703   7.022
 6083POPC   C4B76726  23.389   2.922   7.344
 6084POPC   NC376727  43.852  41.734   5.309
 6084POPC   PO476728  43.771  40.983   5.425
 6084POPC   GL176729  43.847  41.393   5.741
 6084POPC   GL276730  43.710  41.729   5.807
 6084POPC   C1A76731  44.063  41.543   6.143
 6084POPC   D2A76732  43.945  41.591   6.587
 6084POPC   C3A76733  44.001  41.873   6.955
 6084POPC   C4A76734  43.897  41.754   7.384
 6084POPC   C1B76735  43.570  41.769   6.252
 6084POPC   C2B76736  43.552  41.947   6.688
 6084POPC   C3B76737  43.467  41.795   7.109
 6084POPC   C4B76738  43.447  41.943   7.541
 6085POPC   NC376739  32.125  13.908   5.487
 6085POPC   PO476740  32.216  14.572   5.378
 6085POPC   GL176741  32.238  14.485   5.799
 6085POPC   GL276742  32.059  14.186   5.902
 6085POPC   C1A76743  32.442  14.732   6.116
 6085POPC   D2A76744  32.336  14.757   6.545
 6085POPC   C3A76745  32.478  14.469   6.859
 6085POPC   C4A76746  32.525  14.722   7.168
 6085POPC   C1B76747  32.197  14.309   6.310
 6085POPC   C2B76748  32.004  14.371   6.709
 6085POPC   C3B76749  32.077  14.278   7.125
 6085POPC   C4B76750  32.082  13.988   7.456
 6086POPC   NC376751  21.057  31.646   5.468
 6086POPC   PO476752  21.508  31.214   5.390
 6086POPC   GL176753  21.450  31.426   5.751
 6086POPC   GL276754  21.167  31.289   5.836
 6086POPC   C1A76755  21.429  31.587   6.181
 6086POPC   D2A76756  21.421  31.770   6.596
 6086POPC   C3A76757  21.709  31.521   6.856
 6086POPC   C4A76758  21.610  31.471   7.277
 6086POPC   C1B76759  21.141  31.147   6.240
 6086POPC   C2B76760  21.357  31.232   6.601
 6086POPC   C3B76761  21.229  31.443   6.954
 6086POPC   C4B76762  21.118  31.320   7.296
 6087POPC   NC376763   0.414  26.352   5.138
 6087POPC   PO476764   0.375  27.015   5.491
 6087POPC   GL176765   0.428  26.926   5.914
 6087POPC   GL276766   0.508  26.572   5.989
 6087POPC   C1A76767   0.382  26.943   6.351
 6087POPC   D2A76768   0.427  26.638   6.652
 6087POPC   C3A76769   0.582  26.895   6.944
 6087POPC   C4A76770   0.456  27.081   7.309
 6087POPC   C1B76771   0.095  26.549   6.206
 6087POPC   C2B76772  44.923  26.766   6.558
 6087POPC   C3B76773   0.060  27.003   6.885
 6087POPC   C4B76774   0.108  26.742   7.209
 6088POPC   NC376775  24.877  17.088   5.378
 6088POPC   PO476776  24.270  16.868   5.470
 6088POPC   GL176777  24.399  16.701   5.837
 6088POPC   GL276778  24.769  16.806   5.822
 6088POPC   C1A76779  24.563  16.548   6.230
 6088POPC   D2A76780  24.773  16.491   6.626
 6088POPC   C3A76781  24.462  16.374   6.940
 6088POPC   C4A76782  24.385  16.597   7.316
 6088POPC   C1B76783  24.939  16.972   6.220
 6088POPC   C2B76784  24.873  17.000   6.668
 6088POPC   C3B76785  24.793  16.779   7.083
 6088POPC   C4B76786  24.605  17.000   7.479
 6089POPC   NC376787  24.290  44.947   5.546
 6089POPC   PO476788  24.462   0.500   5.158
 6089POPC   GL176789  24.532   0.425   5.626
 6089POPC   GL276790  24.189   0.424   5.733
 6089POPC   C1A76791  24.524   0.245   6.091
 6089POPC   D2A76792  24.643   0.127   6.524
 6089POPC   C3A76793  24.403   0.310   6.874
 6089POPC   C4A76794  24.632   0.444   7.240
 6089POPC   C1B76795  24.312   0.736   6.056
 6089POPC   C2B76796  24.299   0.707   6.516
 6089POPC   C3B76797  24.461   0.829   6.933
 6089POPC   C4B76798  24.269   0.787   7.316
 6090POPC   NC376799  24.694  23.789   5.219
 6090POPC   PO476800  25.364  23.853   5.302
 6090POPC   GL176801  25.211  23.846   5.740
 6090POPC   GL276802  24.909  23.720   5.758
 6090POPC   C1A76803  25.297  23.794   6.182
 6090POPC   D2A76804  25.373  23.548   6.564
 6090POPC   C3A76805  25.311  23.777   6.938
 6090POPC   C4A76806  25.210  23.617   7.338
 6090POPC   C1B76807  24.800  23.619   6.186
 6090POPC   C2B76808  24.905  23.763   6.593
 6090POPC   C3B76809  24.814  23.590   6.981
 6090POPC   C4B76810  24.729  23.770   7.361
 6091POPC   NC376811   7.514   1.166   5.417
 6091POPC   PO476812   6.884   1.360   5.702
 6091POPC   GL176813   7.295   1.407   5.849
 6091POPC   GL276814   7.350   1.081   5.885
 6091POPC   C1A76815   7.445   1.384   6.297
 6091POPC   D2A76816   7.235   1.221   6.681
 6091POPC   C3A76817   7.169   1.437   7.051
 6091POPC   C4A76818   7.500   1.392   7.308
 6091POPC   C1B76819   7.577   0.867   6.182
 6091POPC   C2B76820   7.636   0.918   6.580
 6091POPC   C3B76821   7.562   0.935   6.988
 6091POPC   C4B76822   7.192   0.939   7.149
 6092POPC   NC376823  35.875  23.489   5.636
 6092POPC   PO476824  36.166  22.913   5.375
 6092POPC   GL176825  36.093  23.012   5.801
 6092POPC   GL276826  35.719  23.001   5.767
 6092POPC   C1A76827  36.061  23.239   6.241
 6092POPC   D2A76828  35.992  23.335   6.708
 6092POPC   C3A76829  36.234  23.085   7.016
 6092POPC   C4A76830  36.251  22.651   7.013
 6092POPC   C1B76831  35.823  22.798   6.163
 6092POPC   C2B76832  36.042  22.815   6.550
 6092POPC   C3B76833  35.798  22.846   6.892
 6092POPC   C4B76834  35.798  22.738   7.299
 6093POPC   NC376835  18.823  32.157   5.659
 6093POPC   PO476836  18.313  32.397   5.276
 6093POPC   GL176837  18.398  32.303   5.856
 6093POPC   GL276838  18.148  32.069   6.032
 6093POPC   C1A76839  18.225  32.493   6.292
 6093POPC   D2A76840  18.176  32.322   6.661
 6093POPC   C3A76841  18.305  32.506   6.964
 6093POPC   C4A76842  18.405  32.530   7.354
 6093POPC   C1B76843  18.525  32.091   6.314
 6093POPC   C2B76844  18.579  32.026   6.745
 6093POPC   C3B76845  18.515  32.057   7.199
 6093POPC   C4B76846  18.634  31.807   7.582
 6094POPC   NC376847   0.560  41.889   5.288
 6094POPC   PO476848   0.196  41.382   5.391
 6094POPC   GL176849   0.321  41.593   5.771
 6094POPC   GL276850   0.298  41.244   5.902
 6094POPC   C1A76851   0.493  41.629   6.231
 6094POPC   D2A76852   0.820  41.576   6.591
 6094POPC   C3A76853   0.674  41.395   7.012
 6094POPC   C4A76854   0.530  41.676   7.341
 6094POPC   C1B76855  44.983  41.483   6.143
 6094POPC   C2B76856  44.933  41.673   6.528
 6094POPC   C3B76857   0.153  41.614   6.927
 6094POPC   C4B76858   0.197  41.298   7.268
 6095POPC   NC376859  31.036   6.591   5.115
 6095POPC   PO476860  31.599   6.871   5.397
 6095POPC   GL176861  31.439   6.861   5.812
 6095POPC   GL276862  31.556   6.533   5.828
 6095POPC   C1A76863  31.288   6.910   6.242
 6095POPC   D2A76864  31.454   6.756   6.639
 6095POPC   C3A76865  31.215   6.655   7.002
 6095POPC   C4A76866  31.358   6.747   7.382
 6095POPC   C1B76867  31.743   6.644   6.206
 6095POPC   C2B76868  31.819   6.409   6.556
 6095POPC   C3B76869  31.956   6.458   6.933
 6095POPC   C4B76870  31.929   6.499   7.344
 6096POPC   NC376871   4.581  38.842   5.517
 6096POPC   PO476872   4.256  39.430   5.451
 6096POPC   GL176873   4.188  39.420   5.876
 6096POPC   GL276874   4.363  39.140   5.973
 6096POPC   C1A76875   4.073  39.380   6.320
 6096POPC   D2A76876   4.103  39.190   6.726
 6096POPC   C3A76877   4.076  39.467   7.095
 6096POPC   C4A76878   4.185  39.335   7.519
 6096POPC   C1B76879   4.546  39.182   6.410
 6096POPC   C2B76880   4.780  39.018   6.799
 6096POPC   C3B76881   4.707  39.134   7.256
 6096POPC   C4B76882   4.678  39.334   7.670
 6097POPC   NC376883  33.258  21.117   5.621
 6097POPC   PO476884  32.823  21.482   5.332
 6097POPC   GL176885  32.971  21.571   5.753
 6097POPC   GL276886  33.240  21.822   5.737
 6097POPC   C1A76887  33.166  21.422   6.164
 6097POPC   D2A76888  33.396  21.177   6.518
 6097POPC   C3A76889  33.154  21.015   6.894
 6097POPC   C4A76890  33.156  21.225   7.316
 6097POPC   C1B76891  33.481  21.826   6.167
 6097POPC   C2B76892  33.283  21.697   6.557
 6097POPC   C3B76893  33.243  21.510   6.911
 6097POPC   C4B76894  33.485  21.682   7.222
 6098POPC   NC376895  12.800  38.149   5.333
 6098POPC   PO476896  13.235  38.668   5.379
 6098POPC   GL176897  12.967  38.454   5.691
 6098POPC   GL276898  13.079  38.702   5.854
 6098POPC   C1A76899  12.763  38.404   6.093
 6098POPC   D2A76900  12.911  38.394   6.520
 6098POPC   C3A76901  12.714  38.247   6.924
 6098POPC   C4A76902  12.773  38.338   7.393
 6098POPC   C1B76903  13.285  38.592   6.185
 6098POPC   C2B76904  13.406  38.564   6.579
 6098POPC   C3B76905  13.155  38.591   6.927
 6098POPC   C4B76906  13.136  38.750   7.314
 6099POPC   NC376907  18.135  15.992   5.452
 6099POPC   PO476908  18.756  15.734   5.436
 6099POPC   GL176909  18.454  15.838   5.816
 6099POPC   GL276910  18.372  16.159   5.857
 6099POPC   C1A76911  18.256  15.776   6.246
 6099POPC   D2A76912  18.414  15.887   6.659
 6099POPC   C3A76913  18.311  15.776   7.116
 6099POPC   C4A76914  18.473  15.751   7.598
 6099POPC   C1B76915  18.055  16.241   6.153
 6099POPC   C2B76916  17.976  16.141   6.586
 6099POPC   C3B76917  18.050  16.295   7.014
 6099POPC   C4B76918  18.094  16.106   7.430
 6100POPC   NC376919  26.526  38.691   5.327
 6100POPC   PO476920  27.151  38.405   5.564
 6100POPC   GL176921  27.090  38.670   5.917
 6100POPC   GL276922  26.753  38.728   5.785
 6100POPC   C1A76923  26.919  38.707   6.365
 6100POPC   D2A76924  26.756  38.447   6.707
 6100POPC   C3A76925  26.765  38.526   7.119
 6100POPC   C4A76926  27.112  38.682   7.269
 6100POPC   C1B76927  26.470  38.782   6.119
 6100POPC   C2B76928  26.424  38.912   6.534
 6100POPC   C3B76929  26.359  38.780   6.951
 6100POPC   C4B76930  26.349  38.669   7.377
 6101POPC   NC376931   4.936  15.243   5.247
 6101POPC   PO476932   5.453  15.711   5.497
 6101POPC   GL176933   5.321  15.291   5.724
 6101POPC   GL276934   5.001  15.171   5.732
 6101POPC   C1A76935   5.344  15.045   6.140
 6101POPC   D2A76936   5.586  15.002   6.531
 6101POPC   C3A76937   5.359  14.893   6.923
 6101POPC   C4A76938   5.296  15.099   7.322
 6101POPC   C1B76939   4.886  15.265   6.130
 6101POPC   C2B76940   4.784  14.988   6.457
 6101POPC   C3B76941   4.803  14.997   6.892
 6101POPC   C4B76942   4.899  15.364   7.170
 6102POPC   NC376943   9.208  37.829   5.165
 6102POPC   PO476944   8.834  37.248   5.228
 6102POPC   GL176945   8.911  37.568   5.571
 6102POPC   GL276946   9.199  37.778   5.679
 6102POPC   C1A76947   8.888  37.599   6.035
 6102POPC   D2A76948   9.080  37.580   6.445
 6102POPC   C3A76949   9.014  37.785   6.856
 6102POPC   C4A76950   9.242  37.789   7.234
 6102POPC   C1B76951   9.202  37.986   6.112
 6102POPC   C2B76952   9.376  38.009   6.554
 6102POPC   C3B76953   9.417  38.208   6.987
 6102POPC   C4B76954   9.289  38.242   7.420
 6103POPC   NC376955   6.630  33.272   5.541
 6103POPC   PO476956   7.161  32.925   5.370
 6103POPC   GL176957   6.931  32.935   5.812
 6103POPC   GL276958   7.024  32.602   5.948
 6103POPC   C1A76959   6.621  32.960   6.187
 6103POPC   D2A76960   6.494  33.227   6.567
 6103POPC   C3A76961   6.338  33.120   6.978
 6103POPC   C4A76962   6.550  33.175   7.376
 6103POPC   C1B76963   7.133  32.922   6.287
 6103POPC   C2B76964   6.928  32.879   6.677
 6103POPC   C3B76965   6.929  33.077   7.040
 6103POPC   C4B76966   7.057  33.022   7.427
 6104POPC   NC376967  42.156  10.298   5.254
 6104POPC   PO476968  42.828  10.578   5.276
 6104POPC   GL176969  42.492  10.488   5.645
 6104POPC   GL276970  42.263  10.193   5.769
 6104POPC   C1A76971  42.291  10.613   6.073
 6104POPC   D2A76972  41.974  10.657   6.421
 6104POPC   C3A76973  42.170  10.674   6.823
 6104POPC   C4A76974  42.314  10.811   7.225
 6104POPC   C1B76975  42.034  10.183   6.201
 6104POPC   C2B76976  42.035  10.187   6.661
 6104POPC   C3B76977  42.052  10.040   7.080
 6104POPC   C4B76978  42.043   9.993   7.535
 6105POPC   NC376979  11.651  41.140   5.403
 6105POPC   PO476980  12.245  41.490   5.281
 6105POPC   GL176981  12.267  41.449   5.756
 6105POPC   GL276982  11.917  41.408   5.794
 6105POPC   C1A76983  12.098  41.722   6.163
 6105POPC   D2A76984  11.967  41.926   6.551
 6105POPC   C3A76985  12.214  41.942   6.916
 6105POPC   C4A76986  12.230  41.761   7.338
 6105POPC   C1B76987  12.081  41.214   6.190
 6105POPC   C2B76988  12.141  41.274   6.611
 6105POPC   C3B76989  12.013  41.462   6.999
 6105POPC   C4B76990  12.152  41.266   7.390
 6106POPC   NC376991  15.418   7.359   5.373
 6106POPC   PO476992  14.765   7.483   5.248
 6106POPC   GL176993  15.050   7.512   5.682
 6106POPC   GL276994  15.379   7.658   5.786
 6106POPC   C1A76995  15.174   7.371   6.127
 6106POPC   D2A76996  15.052   7.579   6.498
 6106POPC   C3A76997  15.038   7.418   6.894
 6106POPC   C4A76998  15.188   7.256   7.253
 6106POPC   C1B76999  15.474   7.788   6.213
 6106POPC   C2B77000  15.528   7.672   6.662
 6106POPC   C3B77001  15.365   7.771   7.087
 6106POPC   C4B77002  15.507   7.577   7.472
 6107POPC   NC377003  40.618   1.987   5.060
 6107POPC   PO477004  41.225   2.043   5.405
 6107POPC   GL177005  40.990   1.995   5.809
 6107POPC   GL277006  41.188   1.681   5.855
 6107POPC   C1A77007  40.590   1.876   6.088
 6107POPC   D2A77008  40.423   1.931   6.531
 6107POPC   C3A77009  40.683   1.968   6.934
 6107POPC   C4A77010  40.654   2.187   7.351
 6107POPC   C1B77011  41.034   1.671   6.225
 6107POPC   C2B77012  40.942   1.999   6.471
 6107POPC   C3B77013  41.134   2.217   6.796
 6107POPC   C4B77014  41.357   2.021   7.100
 6108POPC   NC377015  44.591  28.434   5.486
 6108POPC   PO477016  44.814  27.777   5.530
 6108POPC   GL177017  44.739  28.116   5.888
 6108POPC   GL277018  44.811  28.507   5.932
 6108POPC   C1A77019  44.584  28.277   6.313
 6108POPC   D2A77020  44.404  28.209   6.730
 6108POPC   C3A77021  44.593  28.153   7.158
 6108POPC   C4A77022  44.745  28.102   7.599
 6108POPC   C1B77023   0.059  28.600   6.289
 6108POPC   C2B77024  44.958  28.769   6.683
 6108POPC   C3B77025  44.762  28.593   7.020
 6108POPC   C4B77026  44.649  28.635   7.479
 6109POPC   NC377027  12.495   6.817   5.532
 6109POPC   PO477028  13.235   6.846   5.579
 6109POPC   GL177029  12.909   6.624   5.793
 6109POPC   GL277030  12.809   6.289   5.688
 6109POPC   C1A77031  12.667   6.690   6.188
 6109POPC   D2A77032  12.837   6.839   6.587
 6109POPC   C3A77033  12.616   6.747   6.922
 6109POPC   C4A77034  12.767   6.772   7.301
 6109POPC   C1B77035  12.881   6.222   6.154
 6109POPC   C2B77036  12.696   6.351   6.592
 6109POPC   C3B77037  12.983   6.398   7.000
 6109POPC   C4B77038  13.008   6.372   7.464
 6110POPC   NC377039  29.119  26.259   5.488
 6110POPC   PO477040  29.626  25.820   5.538
 6110POPC   GL177041  29.380  26.013   5.886
 6110POPC   GL277042  29.039  25.915   5.882
 6110POPC   C1A77043  29.244  26.134   6.319
 6110POPC   D2A77044  29.374  26.315   6.719
 6110POPC   C3A77045  29.136  26.192   7.096
 6110POPC   C4A77046  29.210  26.169   7.551
 6110POPC   C1B77047  29.040  25.618   6.226
 6110POPC   C2B77048  28.828  25.568   6.626
 6110POPC   C3B77049  28.929  25.719   7.034
 6110POPC   C4B77050  29.241  25.716   7.336
 6111POPC   NC377051  15.841  16.311   5.522
 6111POPC   PO477052  15.993  15.686   5.472
 6111POPC   GL177053  15.810  15.864   5.815
 6111POPC   GL277054  16.119  16.058   5.858
 6111POPC   C1A77055  15.768  15.970   6.256
 6111POPC   D2A77056  15.529  16.151   6.598
 6111POPC   C3A77057  15.676  15.999   6.990
 6111POPC   C4A77058  15.881  15.618   7.140
 6111POPC   C1B77059  16.239  16.135   6.264
 6111POPC   C2B77060  16.067  16.138   6.682
 6111POPC   C3B77061  16.241  16.004   7.071
 6111POPC   C4B77062  16.320  15.909   7.490
 6112POPC   NC377063  14.811  18.458   5.277
 6112POPC   PO477064  15.452  18.139   5.429
 6112POPC   GL177065  15.281  18.264   5.821
 6112POPC   GL277066  14.928  18.216   5.777
 6112POPC   C1A77067  15.261  18.435   6.271
 6112POPC   D2A77068  15.328  18.716   6.620
 6112POPC   C3A77069  14.963  18.635   6.848
 6112POPC   C4A77070  15.003  18.422   7.218
 6112POPC   C1B77071  15.005  17.999   6.175
 6112POPC   C2B77072  14.968  18.143   6.617
 6112POPC   C3B77073  14.998  17.963   7.018
 6112POPC   C4B77074  14.894  17.979   7.465
 6113POPC   NC377075  30.916  38.699   5.475
 6113POPC   PO477076  30.455  38.209   5.582
 6113POPC   GL177077  30.674  38.420   5.854
 6113POPC   GL277078  30.497  38.682   6.036
 6113POPC   C1A77079  30.810  38.261   6.239
 6113POPC   D2A77080  30.732  38.474   6.586
 6113POPC   C3A77081  30.817  38.249   6.910
 6113POPC   C4A77082  30.828  38.294   7.330
 6113POPC   C1B77083  30.975  38.732   6.136
 6113POPC   C2B77084  31.187  38.712   6.524
 6113POPC   C3B77085  31.189  38.579   6.925
 6113POPC   C4B77086  31.011  38.766   7.254
 6114POPC   NC377087  13.342  26.848   5.415
 6114POPC   PO477088  12.664  26.549   5.306
 6114POPC   GL177089  12.909  26.677   5.668
 6114POPC   GL277090  12.956  27.021   5.703
 6114POPC   C1A77091  12.818  26.723   6.125
 6114POPC   D2A77092  12.740  26.982   6.532
 6114POPC   C3A77093  12.772  26.834   6.979
 6114POPC   C4A77094  13.014  26.491   7.201
 6114POPC   C1B77095  12.989  27.202   6.126
 6114POPC   C2B77096  13.226  27.221   6.502
 6114POPC   C3B77097  13.141  27.346   6.925
 6114POPC   C4B77098  13.116  27.113   7.286
 6115POPC   NC377099  28.965  30.691   5.424
 6115POPC   PO477100  29.660  30.674   5.449
 6115POPC   GL177101  29.353  30.662   5.763
 6115POPC   GL277102  29.303  30.333   5.917
 6115POPC   C1A77103  29.140  30.755   6.151
 6115POPC   D2A77104  29.311  30.824   6.535
 6115POPC   C3A77105  29.069  31.011   6.840
 6115POPC   C4A77106  29.197  30.934   7.238
 6115POPC   C1B77107  28.957  30.274   6.229
 6115POPC   C2B77108  28.935  30.465   6.606
 6115POPC   C3B77109  29.178  30.508   6.939
 6115POPC   C4B77110  29.041  30.474   7.348
 6116POPC   NC377111  43.643   1.328   5.106
 6116POPC   PO477112  44.264   1.183   5.277
 6116POPC   GL177113  44.026   1.161   5.694
 6116POPC   GL277114  43.645   1.156   5.726
 6116POPC   C1A77115  44.048   1.156   6.156
 6116POPC   D2A77116  44.063   1.314   6.587
 6116POPC   C3A77117  43.917   1.077   6.949
 6116POPC   C4A77118  43.949   1.266   7.375
 6116POPC   C1B77119  43.539   1.164   6.120
 6116POPC   C2B77120  43.631   1.068   6.523
 6116POPC   C3B77121  43.496   1.345   6.852
 6116POPC   C4B77122  43.475   1.140   7.246
 6117POPC   NC377123   2.778  25.322   5.260
 6117POPC   PO477124   2.558  24.878   5.685
 6117POPC   GL177125   2.736  25.279   5.786
 6117POPC   GL277126   2.504  25.570   5.671
 6117POPC   C1A77127   2.998  25.230   6.169
 6117POPC   D2A77128   2.931  24.992   6.568
 6117POPC   C3A77129   2.996  25.241   6.933
 6117POPC   C4A77130   2.725  25.316   7.299
 6117POPC   C1B77131   2.675  25.670   6.088
 6117POPC   C2B77132   2.689  25.451   6.487
 6117POPC   C3B77133   2.607  25.578   6.872
 6117POPC   C4B77134   2.506  25.762   7.246
 6118POPC   NC377135  26.389  44.315   5.364
 6118POPC   PO477136  27.101  44.018   5.457
 6118POPC   GL177137  27.007  43.941   5.842
 6118POPC   GL277138  26.661  44.039   5.804
 6118POPC   C1A77139  27.206  43.743   6.187
 6118POPC   D2A77140  27.007  43.739   6.565
 6118POPC   C3A77141  27.196  43.680   6.958
 6118POPC   C4A77142  26.940  43.661   7.303
 6118POPC   C1B77143  26.659  43.684   6.128
 6118POPC   C2B77144  26.495  43.593   6.568
 6118POPC   C3B77145  26.489  43.726   7.030
 6118POPC   C4B77146  26.375  43.798   7.475
 6119POPC   NC377147  21.826  33.026   5.483
 6119POPC   PO477148  22.257  33.441   5.401
 6119POPC   GL177149  22.401  33.145   5.732
 6119POPC   GL277150  22.115  32.984   5.904
 6119POPC   C1A77151  22.498  33.218   6.192
 6119POPC   D2A77152  22.339  33.457   6.596
 6119POPC   C3A77153  22.289  33.208   7.016
 6119POPC   C4A77154  22.433  33.199   7.489
 6119POPC   C1B77155  21.999  33.283   6.234
 6119POPC   C2B77156  21.960  33.089   6.627
 6119POPC   C3B77157  21.745  33.116   6.999
 6119POPC   C4B77158  21.998  32.901   7.334
 6120POPC   NC377159  34.595   0.903   5.491
 6120POPC   PO477160  34.201   1.387   5.514
 6120POPC   GL177161  34.389   1.217   5.841
 6120POPC   GL277162  34.723   1.348   5.737
 6120POPC   C1A77163  34.355   1.392   6.233
 6120POPC   D2A77164  34.576   1.471   6.571
 6120POPC   C3A77165  34.378   1.219   6.812
 6120POPC   C4A77166  34.277   1.280   7.185
 6120POPC   C1B77167  34.815   1.177   6.144
 6120POPC   C2B77168  34.825   1.028   6.553
 6120POPC   C3B77169  34.891   1.247   6.915
 6120POPC   C4B77170  34.960   1.170   7.321
 6121POPC   NC377171  35.083  38.846   5.476
 6121POPC   PO477172  35.423  39.479   5.468
 6121POPC   GL177173  35.370  39.220   5.840
 6121POPC   GL277174  35.121  38.999   5.958
 6121POPC   C1A77175  35.605  38.987   6.149
 6121POPC   D2A77176  35.667  38.844   6.559
 6121POPC   C3A77177  35.622  39.185   6.842
 6121POPC   C4A77178  35.369  39.202   7.226
 6121POPC   C1B77179  34.984  39.069   6.383
 6121POPC   C2B77180  35.116  38.979   6.824
 6121POPC   C3B77181  35.030  38.808   7.246
 6121POPC   C4B77182  34.896  38.775   7.706
 6122POPC   NC377183  11.136  40.453   5.119
 6122POPC   PO477184  11.361  39.867   5.275
 6122POPC   GL177185  11.211  39.876   5.769
 6122POPC   GL277186  11.425  40.092   5.952
 6122POPC   C1A77187  11.286  39.711   6.252
 6122POPC   D2A77188  11.438  39.977   6.622
 6122POPC   C3A77189  11.276  39.941   7.060
 6122POPC   C4A77190  11.081  39.887   7.473
 6122POPC   C1B77191  11.035  40.139   6.250
 6122POPC   C2B77192  10.924  40.208   6.696
 6122POPC   C3B77193  11.098  40.432   7.039
 6122POPC   C4B77194  11.231  40.387   7.473
 6123POPC   NC377195  33.525  19.514   5.544
 6123POPC   PO477196  33.865  20.089   5.438
 6123POPC   GL177197  33.824  19.999   5.889
 6123POPC   GL277198  33.726  19.651   5.969
 6123POPC   C1A77199  33.746  19.971   6.354
 6123POPC   D2A77200  33.796  20.268   6.700
 6123POPC   C3A77201  33.777  20.164   7.137
 6123POPC   C4A77202  33.564  19.806   7.297
 6123POPC   C1B77203  34.024  19.535   6.261
 6123POPC   C2B77204  33.929  19.445   6.674
 6123POPC   C3B77205  33.968  19.615   7.078
 6123POPC   C4B77206  34.179  19.435   7.428
 6124POPC   NC377207  27.075  25.909   5.341
 6124POPC   PO477208  26.487  26.123   5.321
 6124POPC   GL177209  26.698  26.325   5.620
 6124POPC   GL277210  26.750  25.988   5.770
 6124POPC   C1A77211  26.690  26.405   6.080
 6124POPC   D2A77212  26.766  26.151   6.459
 6124POPC   C3A77213  26.713  26.325   6.867
 6124POPC   C4A77214  26.952  26.224   7.233
 6124POPC   C1B77215  26.740  25.690   6.117
 6124POPC   C2B77216  26.607  25.651   6.530
 6124POPC   C3B77217  26.796  25.813   6.884
 6124POPC   C4B77218  26.732  25.586   7.248
 6125POPC   NC377219  11.028  13.504   5.295
 6125POPC   PO477220  10.320  13.484   5.323
 6125POPC   GL177221  10.145  13.609   5.719
 6125POPC   GL277222  10.508  13.694   5.770
 6125POPC   C1A77223  10.210  13.786   6.146
 6125POPC   D2A77224  10.231  13.507   6.464
 6125POPC   C3A77225  10.398  13.730   6.797
 6125POPC   C4A77226  10.467  13.765   7.221
 6125POPC   C1B77227  10.686  13.567   6.201
 6125POPC   C2B77228  10.897  13.715   6.576
 6125POPC   C3B77229  10.893  13.586   7.014
 6125POPC   C4B77230  10.738  13.379   7.389
 6126POPC   NC377231  30.190  23.203   5.478
 6126POPC   PO477232  29.836  22.642   5.335
 6126POPC   GL177233  29.969  22.756   5.743
 6126POPC   GL277234  29.770  23.061   5.807
 6126POPC   C1A77235  29.917  22.782   6.195
 6126POPC   D2A77236  29.763  22.971   6.568
 6126POPC   C3A77237  30.054  22.947   6.916
 6126POPC   C4A77238  30.076  22.709   7.312
 6126POPC   C1B77239  29.957  23.297   6.187
 6126POPC   C2B77240  29.813  23.493   6.588
 6126POPC   C3B77241  29.618  23.282   6.943
 6126POPC   C4B77242  29.800  23.128   7.311
 6127POPC   NC377243  34.179  44.649   5.368
 6127POPC   PO477244  33.584  44.856   5.465
 6127POPC   GL177245  33.868  44.682   5.795
 6127POPC   GL277246  34.090  44.965   5.801
 6127POPC   C1A77247  34.058  44.664   6.236
 6127POPC   D2A77248  34.012  44.946   6.613
 6127POPC   C3A77249  34.097  44.786   7.016
 6127POPC   C4A77250  33.817  44.614   7.317
 6127POPC   C1B77251  33.838   0.132   6.150
 6127POPC   C2B77252  33.535   0.123   6.547
 6127POPC   C3B77253  33.608  44.969   7.002
 6127POPC   C4B77254  33.670   0.077   7.491
 6128POPC   NC377255  12.785  14.925   5.088
 6128POPC   PO477256  12.864  15.424   5.531
 6128POPC   GL177257  12.855  15.298   5.909
 6128POPC   GL277258  12.546  15.112   5.915
 6128POPC   C1A77259  12.977  15.025   6.240
 6128POPC   D2A77260  12.958  14.657   6.511
 6128POPC   C3A77261  12.815  14.876   6.858
 6128POPC   C4A77262  13.029  15.083   7.208
 6128POPC   C1B77263  12.568  15.316   6.329
 6128POPC   C2B77264  12.839  15.367   6.712
 6128POPC   C3B77265  12.950  15.580   7.099
 6128POPC   C4B77266  12.897  15.469   7.541
 6129POPC   NC377267  44.036  40.773   5.098
 6129POPC   PO477268  44.325  40.533   5.600
 6129POPC   GL177269  44.025  40.700   5.946
 6129POPC   GL277270  43.789  40.940   5.938
 6129POPC   C1A77271  43.993  40.690   6.368
 6129POPC   D2A77272  43.794  40.531   6.734
 6129POPC   C3A77273  44.085  40.654   7.040
 6129POPC   C4A77274  44.186  40.998   7.247
 6129POPC   C1B77275  43.729  41.159   6.315
 6129POPC   C2B77276  43.903  41.079   6.713
 6129POPC   C3B77277  43.848  41.347   7.027
 6129POPC   C4B77278  43.768  41.259   7.398
 6130POPC   NC377279  23.381   6.142   5.484
 6130POPC   PO477280  23.697   5.634   5.239
 6130POPC   GL177281  23.704   5.780   5.749
 6130POPC   GL277282  24.017   5.948   5.907
 6130POPC   C1A77283  23.648   5.915   6.224
 6130POPC   D2A77284  23.718   6.087   6.617
 6130POPC   C3A77285  23.428   5.909   6.878
 6130POPC   C4A77286  23.634   5.879   7.234
 6130POPC   C1B77287  24.007   6.308   6.230
 6130POPC   C2B77288  24.101   6.452   6.646
 6130POPC   C3B77289  24.005   6.264   7.044
 6130POPC   C4B77290  23.835   6.363   7.433
 6131POPC   NC377291  34.350  30.459   5.614
 6131POPC   PO477292  34.128  31.157   5.510
 6131POPC   GL177293  34.312  30.929   5.843
 6131POPC   GL277294  34.641  30.913   5.876
 6131POPC   C1A77295  34.278  30.784   6.273
 6131POPC   D2A77296  34.525  31.013   6.557
 6131POPC   C3A77297  34.597  30.888   6.977
 6131POPC   C4A77298  34.824  31.112   7.303
 6131POPC   C1B77299  34.713  30.568   6.194
 6131POPC   C2B77300  34.597  30.457   6.616
 6131POPC   C3B77301  34.849  30.407   7.003
 6131POPC   C4B77302  34.732  30.605   7.380
 6132POPC   NC377303  28.620  43.865   5.420
 6132POPC   PO477304  28.087  43.413   5.539
 6132POPC   GL177305  28.438  43.630   5.855
 6132POPC   GL277306  28.487  44.003   5.876
 6132POPC   C1A77307  28.416  43.742   6.306
 6132POPC   D2A77308  28.062  43.856   6.556
 6132POPC   C3A77309  28.177  43.726   6.971
 6132POPC   C4A77310  28.414  43.767   7.339
 6132POPC   C1B77311  28.590  44.242   6.220
 6132POPC   C2B77312  28.428  44.193   6.649
 6132POPC   C3B77313  28.350  44.222   7.089
 6132POPC   C4B77314  28.685  44.198   7.411
 6133POPC   NC377315   3.310  14.727   5.650
 6133POPC   PO477316   3.797  14.348   5.353
 6133POPC   GL177317   3.541  14.253   5.721
 6133POPC   GL277318   3.176  14.216   5.680
 6133POPC   C1A77319   3.636  14.387   6.160
 6133POPC   D2A77320   3.892  14.389   6.526
 6133POPC   C3A77321   3.728  14.142   6.825
 6133POPC   C4A77322   3.843  14.148   7.225
 6133POPC   C1B77323   3.115  14.286   6.145
 6133POPC   C2B77324   3.283  14.503   6.560
 6133POPC   C3B77325   3.355  14.429   7.033
 6133POPC   C4B77326   3.182  14.229   7.367
 6134POPC   NC377327   8.399  44.062   5.339
 6134POPC   PO477328   7.763  43.980   5.303
 6134POPC   GL177329   8.044  43.840   5.697
 6134POPC   GL277330   8.400  43.939   5.826
 6134POPC   C1A77331   8.077  43.807   6.175
 6134POPC   D2A77332   7.940  44.023   6.542
 6134POPC   C3A77333   8.008  43.825   6.931
 6134POPC   C4A77334   7.872  43.801   7.346
 6134POPC   C1B77335   8.550  43.595   6.090
 6134POPC   C2B77336   8.440  43.585   6.532
 6134POPC   C3B77337   8.508  43.719   6.948
 6134POPC   C4B77338   8.365  43.950   7.309
 6135POPC   NC377339  43.587   5.360   5.491
 6135POPC   PO477340  43.625   4.674   5.398
 6135POPC   GL177341  43.750   4.935   5.749
 6135POPC   GL277342  44.004   4.799   5.897
 6135POPC   C1A77343  43.868   5.275   6.062
 6135POPC   D2A77344  43.995   5.422   6.496
 6135POPC   C3A77345  43.960   5.239   6.906
 6135POPC   C4A77346  43.686   5.229   7.272
 6135POPC   C1B77347  43.788   4.864   6.329
 6135POPC   C2B77348  43.604   4.917   6.741
 6135POPC   C3B77349  43.711   4.745   7.140
 6135POPC   C4B77350  43.978   4.872   7.527
 6136POPC   NC377351  33.290  13.559   5.393
 6136POPC   PO477352  32.602  13.824   5.452
 6136POPC   GL177353  32.725  13.574   5.829
 6136POPC   GL277354  33.054  13.430   5.815
 6136POPC   C1A77355  32.897  13.644   6.241
 6136POPC   D2A77356  33.069  13.570   6.645
 6136POPC   C3A77357  32.803  13.612   7.002
 6136POPC   C4A77358  32.779  13.733   7.461
 6136POPC   C1B77359  33.327  13.365   6.173
 6136POPC   C2B77360  33.525  13.340   6.556
 6136POPC   C3B77361  33.318  13.254   6.956
 6136POPC   C4B77362  33.229  13.526   7.300
 6137POPC   NC377363  12.732   2.740   5.348
 6137POPC   PO477364  13.373   3.121   5.487
 6137POPC   GL177365  13.027   2.897   5.800
 6137POPC   GL277366  12.795   2.577   5.816
 6137POPC   C1A77367  12.828   2.840   6.255
 6137POPC   D2A77368  12.656   2.982   6.664
 6137POPC   C3A77369  12.926   3.010   6.998
 6137POPC   C4A77370  13.070   2.634   7.223
 6137POPC   C1B77371  12.591   2.388   6.178
 6137POPC   C2B77372  12.468   2.511   6.597
 6137POPC   C3B77373  12.602   2.537   7.011
 6137POPC   C4B77374  12.560   2.845   7.288
 6138POPC   NC377375  15.719  15.319   5.542
 6138POPC   PO477376  16.166  14.784   5.479
 6138POPC   GL177377  16.052  15.042   5.819
 6138POPC   GL277378  16.225  15.360   5.780
 6138POPC   C1A77379  15.851  15.229   6.192
 6138POPC   D2A77380  15.934  15.165   6.611
 6138POPC   C3A77381  15.707  15.122   6.990
 6138POPC   C4A77382  15.946  15.156   7.356
 6138POPC   C1B77383  16.193  15.628   6.138
 6138POPC   C2B77384  16.073  15.648   6.550
 6138POPC   C3B77385  16.274  15.462   6.883
 6138POPC   C4B77386  16.387  15.424   7.309
 6139POPC   NC377387  20.990   4.931   5.415
 6139POPC   PO477388  21.539   5.309   5.379
 6139POPC   GL177389  21.328   5.183   5.770
 6139POPC   GL277390  21.310   4.814   5.794
 6139POPC   C1A77391  21.424   5.223   6.220
 6139POPC   D2A77392  21.519   5.422   6.611
 6139POPC   C3A77393  21.362   5.209   6.946
 6139POPC   C4A77394  21.453   5.214   7.358
 6139POPC   C1B77395  21.232   4.747   6.222
 6139POPC   C2B77396  21.370   4.778   6.625
 6139POPC   C3B77397  21.064   4.802   6.921
 6139POPC   C4B77398  21.015   4.929   7.315
 6140POPC   NC377399  19.419  29.164   5.368
 6140POPC   PO477400  18.941  28.681   5.434
 6140POPC   GL177401  19.095  28.954   5.835
 6140POPC   GL277402  19.096  29.313   5.753
 6140POPC   C1A77403  19.126  29.024   6.330
 6140POPC   D2A77404  18.841  29.142   6.726
 6140POPC   C3A77405  18.973  29.080   7.173
 6140POPC   C4A77406  19.150  28.831   7.551
 6140POPC   C1B77407  19.248  29.486   6.155
 6140POPC   C2B77408  19.216  29.486   6.621
 6140POPC   C3B77409  19.349  29.444   7.069
 6140POPC   C4B77410  19.306  29.323   7.494
 6141POPC   NC377411  22.553   6.524   5.542
 6141POPC   PO477412  22.878   7.055   5.576
 6141POPC   GL177413  22.893   6.724   5.904
 6141POPC   GL277414  23.142   6.465   5.839
 6141POPC   C1A77415  22.887   6.706   6.370
 6141POPC   D2A77416  23.084   6.478   6.717
 6141POPC   C3A77417  22.930   6.649   7.109
 6141POPC   C4A77418  22.878   6.776   7.537
 6141POPC   C1B77419  22.932   6.249   6.181
 6141POPC   C2B77420  22.612   6.263   6.499
 6141POPC   C3B77421  22.645   6.183   6.935
 6141POPC   C4B77422  23.040   6.149   7.163
 6142POPC   NC377423  36.503  32.314   5.580
 6142POPC   PO477424  35.812  32.219   5.485
 6142POPC   GL177425  36.106  32.042   5.780
 6142POPC   GL277426  36.038  32.355   5.933
 6142POPC   C1A77427  36.372  32.020   6.165
 6142POPC   D2A77428  36.295  31.881   6.588
 6142POPC   C3A77429  36.380  32.035   7.026
 6142POPC   C4A77430  36.230  32.062   7.446
 6142POPC   C1B77431  36.054  32.357   6.369
 6142POPC   C2B77432  36.294  32.630   6.604
 6142POPC   C3B77433  36.354  32.551   7.005
 6142POPC   C4B77434  36.230  32.564   7.394
 6143POPC   NC377435  21.068  12.560   5.396
 6143POPC   PO477436  21.525  13.082   5.259
 6143POPC   GL177437  21.568  12.988   5.719
 6143POPC   GL277438  21.421  12.678   5.792
 6143POPC   C1A77439  21.483  13.021   6.164
 6143POPC   D2A77440  21.606  12.793   6.527
 6143POPC   C3A77441  21.492  12.900   6.936
 6143POPC   C4A77442  21.554  12.473   7.120
 6143POPC   C1B77443  21.107  12.679   6.121
 6143POPC   C2B77444  21.078  12.475   6.527
 6143POPC   C3B77445  21.101  12.577   6.945
 6143POPC   C4B77446  21.226  12.773   7.369
 6144POPC   NC377447  35.161  29.913   5.400
 6144POPC   PO477448  35.690  30.380   5.420
 6144POPC   GL177449  35.561  30.009   5.718
 6144POPC   GL277450  35.688  29.648   5.678
 6144POPC   C1A77451  35.322  30.009   6.111
 6144POPC   D2A77452  35.403  30.022   6.577
 6144POPC   C3A77453  35.188  29.912   7.026
 6144POPC   C4A77454  35.088  29.922   7.513
 6144POPC   C1B77455  35.675  29.650   6.125
 6144POPC   C2B77456  35.838  29.754   6.530
 6144POPC   C3B77457  35.724  29.834   6.954
 6144POPC   C4B77458  35.558  29.763   7.357
 6145POPC   NC377459   3.993  15.400   5.370
 6145POPC   PO477460   4.506  14.934   5.383
 6145POPC   GL177461   4.487  15.340   5.705
 6145POPC   GL277462   4.150  15.370   5.844
 6145POPC   C1A77463   4.494  15.577   6.168
 6145POPC   D2A77464   4.680  15.487   6.614
 6145POPC   C3A77465   4.418  15.331   6.980
 6145POPC   C4A77466   4.525  15.049   7.346
 6145POPC   C1B77467   4.367  15.080   6.121
 6145POPC   C2B77468   4.259  15.204   6.499
 6145POPC   C3B77469   4.005  15.076   6.815
 6145POPC   C4B77470   4.031  15.104   7.237
 6146POPC   NC377471  27.094   7.266   5.425
 6146POPC   PO477472  26.542   7.277   5.427
 6146POPC   GL177473  26.752   7.210   5.841
 6146POPC   GL277474  26.929   7.513   5.863
 6146POPC   C1A77475  26.905   7.258   6.308
 6146POPC   D2A77476  26.883   7.567   6.658
 6146POPC   C3A77477  26.949   7.431   7.115
 6146POPC   C4A77478  26.924   7.170   7.509
 6146POPC   C1B77479  26.559   7.617   6.184
 6146POPC   C2B77480  26.400   7.761   6.609
 6146POPC   C3B77481  26.585   7.772   7.034
 6146POPC   C4B77482  26.571   7.562   7.462
 6147POPC   NC377483  43.962  29.051   5.380
 6147POPC   PO477484  43.921  29.703   5.249
 6147POPC   GL177485  43.862  29.512   5.717
 6147POPC   GL277486  43.619  29.257   5.752
 6147POPC   C1A77487  43.926  29.241   6.158
 6147POPC   D2A77488  44.233  29.184   6.541
 6147POPC   C3A77489  44.092  29.198   6.990
 6147POPC   C4A77490  44.095  29.445   7.380
 6147POPC   C1B77491  43.474  29.506   6.115
 6147POPC   C2B77492  43.404  29.351   6.538
 6147POPC   C3B77493  43.594  29.249   6.921
 6147POPC   C4B77494  43.705  28.842   7.084
 6148POPC   NC377495  30.044  35.660   5.377
 6148POPC   PO477496  29.981  34.987   5.361
 6148POPC   GL177497  29.980  35.289   5.718
 6148POPC   GL277498  30.305  35.393   5.748
 6148POPC   C1A77499  29.801  35.392   6.135
 6148POPC   D2A77500  29.820  35.174   6.518
 6148POPC   C3A77501  29.609  35.372   6.834
 6148POPC   C4A77502  29.779  35.352   7.218
 6148POPC   C1B77503  30.267  35.189   6.127
 6148POPC   C2B77504  30.337  35.315   6.538
 6148POPC   C3B77505  30.367  35.070   6.906
 6148POPC   C4B77506  30.187  35.052   7.296
 6149POPC   NC377507   3.847  22.049   5.130
 6149POPC   PO477508   4.485  22.108   5.517
 6149POPC   GL177509   4.351  22.131   5.918
 6149POPC   GL277510   4.656  21.977   5.994
 6149POPC   C1A77511   4.159  22.407   6.242
 6149POPC   D2A77512   4.303  22.434   6.671
 6149POPC   C3A77513   4.247  22.037   6.771
 6149POPC   C4A77514   4.058  21.736   7.091
 6149POPC   C1B77515   4.657  22.229   6.344
 6149POPC   C2B77516   4.788  22.141   6.748
 6149POPC   C3B77517   4.624  22.271   7.134
 6149POPC   C4B77518   4.807  22.417   7.517
 6150POPC   NC377519  38.533  14.203   5.374
 6150POPC   PO477520  38.348  13.461   5.155
 6150POPC   GL177521  38.402  13.747   5.570
 6150POPC   GL277522  38.234  14.051   5.739
 6150POPC   C1A77523  38.555  13.777   6.049
 6150POPC   D2A77524  38.649  13.494   6.447
 6150POPC   C3A77525  38.609  13.569   6.912
 6150POPC   C4A77526  38.567  13.895   7.239
 6150POPC   C1B77527  38.046  13.892   6.110
 6150POPC   C2B77528  38.051  13.657   6.493
 6150POPC   C3B77529  38.127  13.792   6.926
 6150POPC   C4B77530  38.182  13.554   7.280
 6151POPC   NC377531  16.644   8.074   5.384
 6151POPC   PO477532  16.558   8.750   5.520
 6151POPC   GL177533  16.568   8.334   5.825
 6151POPC   GL277534  16.449   7.956   5.870
 6151POPC   C1A77535  16.833   8.122   6.171
 6151POPC   D2A77536  16.719   7.987   6.625
 6151POPC   C3A77537  16.767   8.309   6.978
 6151POPC   C4A77538  17.005   8.464   7.379
 6151POPC   C1B77539  16.319   8.119   6.288
 6151POPC   C2B77540  16.277   8.226   6.743
 6151POPC   C3B77541  16.373   7.986   7.122
 6151POPC   C4B77542  16.739   8.015   7.394
 6152POPC   NC377543  36.599  41.766   5.443
 6152POPC   PO477544  37.069  41.329   5.566
 6152POPC   GL177545  36.862  41.536   5.851
 6152POPC   GL277546  37.089  41.801   5.987
 6152POPC   C1A77547  36.938  41.414   6.274
 6152POPC   D2A77548  37.238  41.603   6.513
 6152POPC   C3A77549  37.052  41.775   6.840
 6152POPC   C4A77550  37.012  41.719   7.260
 6152POPC   C1B77551  36.677  41.848   6.216
 6152POPC   C2B77552  36.566  41.731   6.644
 6152POPC   C3B77553  36.598  41.927   7.062
 6152POPC   C4B77554  36.588  41.894   7.542
 6153POPC   NC377555  36.935  26.118   5.287
 6153POPC   PO477556  37.411  26.184   5.550
 6153POPC   GL177557  37.017  26.192   5.785
 6153POPC   GL277558  36.810  25.902   5.757
 6153POPC   C1A77559  36.808  26.255   6.178
 6153POPC   D2A77560  36.922  26.178   6.588
 6153POPC   C3A77561  37.070  26.257   6.976
 6153POPC   C4A77562  36.962  26.096   7.393
 6153POPC   C1B77563  36.493  25.869   6.110
 6153POPC   C2B77564  36.470  25.951   6.570
 6153POPC   C3B77565  36.677  25.869   6.981
 6153POPC   C4B77566  36.565  25.778   7.402
 6154POPC   NC377567  26.731  13.785   5.100
 6154POPC   PO477568  27.208  13.669   5.529
 6154POPC   GL177569  26.838  13.744   5.779
 6154POPC   GL277570  27.040  13.572   6.022
 6154POPC   C1A77571  26.657  13.820   6.233
 6154POPC   D2A77572  26.783  13.577   6.619
 6154POPC   C3A77573  26.662  13.682   7.049
 6154POPC   C4A77574  26.845  13.712   7.463
 6154POPC   C1B77575  27.027  13.200   6.277
 6154POPC   C2B77576  27.209  13.219   6.692
 6154POPC   C3B77577  27.094  13.413   7.079
 6154POPC   C4B77578  26.930  13.228   7.454
 6155POPC   NC377579  10.454  26.142   5.367
 6155POPC   PO477580  10.958  25.724   5.538
 6155POPC   GL177581  10.700  26.001   5.814
 6155POPC   GL277582  10.362  25.971   5.839
 6155POPC   C1A77583  10.655  26.132   6.240
 6155POPC   D2A77584  10.748  26.025   6.658
 6155POPC   C3A77585  10.475  26.267   6.935
 6155POPC   C4A77586  10.314  26.054   7.272
 6155POPC   C1B77587  10.309  25.687   6.166
 6155POPC   C2B77588  10.492  25.526   6.540
 6155POPC   C3B77589  10.458  25.666   6.989
 6155POPC   C4B77590  10.621  25.662   7.461
 6156POPC   NC377591  35.758  15.956   5.627
 6156POPC   PO477592  36.368  16.240   5.543
 6156POPC   GL177593  36.254  15.969   5.875
 6156POPC   GL277594  36.482  15.689   5.829
 6156POPC   C1A77595  36.023  15.825   6.270
 6156POPC   D2A77596  35.852  15.735   6.691
 6156POPC   C3A77597  35.950  15.954   7.118
 6156POPC   C4A77598  35.785  15.751   7.561
 6156POPC   C1B77599  36.541  15.834   6.276
 6156POPC   C2B77600  36.389  15.727   6.701
 6156POPC   C3B77601  36.536  15.870   7.112
 6156POPC   C4B77602  36.651  15.692   7.525
 6157POPC   NC377603  18.191  19.678   5.051
 6157POPC   PO477604  17.890  20.229   5.334
 6157POPC   GL177605  18.053  20.152   5.739
 6157POPC   GL277606  18.217  19.814   5.685
 6157POPC   C1A77607  17.989  19.940   6.151
 6157POPC   D2A77608  18.095  19.607   6.472
 6157POPC   C3A77609  18.224  19.797   6.855
 6157POPC   C4A77610  18.142  19.969   7.261
 6157POPC   C1B77611  18.435  19.669   6.071
 6157POPC   C2B77612  18.633  19.624   6.476
 6157POPC   C3B77613  18.658  19.545   6.907
 6157POPC   C4B77614  18.455  19.561   7.277
 6158POPC   NC377615   8.907  31.822   5.418
 6158POPC   PO477616   9.443  31.506   5.610
 6158POPC   GL177617   9.049  31.420   5.755
 6158POPC   GL277618   8.822  31.657   5.902
 6158POPC   C1A77619   9.073  31.238   6.161
 6158POPC   D2A77620   8.995  31.407   6.554
 6158POPC   C3A77621   9.163  31.143   6.852
 6158POPC   C4A77622   9.068  31.368   7.170
 6158POPC   C1B77623   8.585  31.389   6.190
 6158POPC   C2B77624   8.475  31.414   6.612
 6158POPC   C3B77625   8.701  31.681   6.929
 6158POPC   C4B77626   8.753  31.690   7.372
 6159POPC   NC377627  38.302  35.749   5.635
 6159POPC   PO477628  38.844  35.501   5.328
 6159POPC   GL177629  38.645  35.375   5.757
 6159POPC   GL277630  38.330  35.250   5.860
 6159POPC   C1A77631  38.584  35.531   6.202
 6159POPC   D2A77632  38.509  35.389   6.605
 6159POPC   C3A77633  38.832  35.183   6.826
 6159POPC   C4A77634  38.753  35.250   7.260
 6159POPC   C1B77635  38.115  35.299   6.232
 6159POPC   C2B77636  38.002  35.437   6.633
 6159POPC   C3B77637  38.191  35.278   7.015
 6159POPC   C4B77638  38.164  35.241   7.478
 6160POPC   NC377639  43.763  33.676   5.402
 6160POPC   PO477640  44.094  34.258   5.493
 6160POPC   GL177641  43.767  33.987   5.821
 6160POPC   GL277642  43.901  33.633   5.898
 6160POPC   C1A77643  43.523  33.736   6.221
 6160POPC   D2A77644  43.725  33.421   6.460
 6160POPC   C3A77645  43.560  33.471   6.864
 6160POPC   C4A77646  43.695  33.359   7.273
 6160POPC   C1B77647  44.005  33.874   6.278
 6160POPC   C2B77648  43.722  33.912   6.656
 6160POPC   C3B77649  43.849  33.817   7.090
 6160POPC   C4B77650  44.173  34.026   7.331
 6161POPC   NC377651  33.334  39.228   5.497
 6161POPC   PO477652  33.912  39.437   5.501
 6161POPC   GL177653  33.590  39.555   5.789
 6161POPC   GL277654  33.647  39.209   5.888
 6161POPC   C1A77655  33.428  39.508   6.207
 6161POPC   D2A77656  33.623  39.274   6.514
 6161POPC   C3A77657  33.527  39.384   6.919
 6161POPC   C4A77658  33.773  39.303   7.263
 6161POPC   C1B77659  33.921  38.942   6.098
 6161POPC   C2B77660  33.897  38.826   6.511
 6161POPC   C3B77661  33.989  39.031   6.865
 6161POPC   C4B77662  34.014  38.852   7.246
 6162POPC   NC377663  44.659  23.027   5.122
 6162POPC   PO477664  44.521  22.558   5.616
 6162POPC   GL177665  44.381  22.828   5.926
 6162POPC   GL277666  44.295  23.171   5.780
 6162POPC   C1A77667  44.607  22.841   6.304
 6162POPC   D2A77668  44.991  22.853   6.534
 6162POPC   C3A77669  44.930  22.979   6.951
 6162POPC   C4A77670  44.856  22.652   7.215
 6162POPC   C1B77671  44.417  23.339   6.183
 6162POPC   C2B77672  44.324  23.458   6.604
 6162POPC   C3B77673  44.528  23.372   6.990
 6162POPC   C4B77674  44.467  22.985   7.198
 6163POPC   NC377675  23.866  24.640   5.368
 6163POPC   PO477676  23.239  24.453   5.578
 6163POPC   GL177677  23.390  24.635   5.905
 6163POPC   GL277678  23.733  24.702   5.840
 6163POPC   C1A77679  23.599  24.445   6.259
 6163POPC   D2A77680  23.507  24.189   6.599
 6163POPC   C3A77681  23.515  24.466   6.944
 6163POPC   C4A77682  23.718  24.357   7.326
 6163POPC   C1B77683  23.996  24.828   6.172
 6163POPC   C2B77684  23.854  24.767   6.595
 6163POPC   C3B77685  24.024  24.528   6.911
 6163POPC   C4B77686  24.154  24.609   7.310
 6164POPC   NC377687   1.512  25.809   5.323
 6164POPC   PO477688   0.897  26.211   5.575
 6164POPC   GL177689   1.016  26.234   6.036
 6164POPC   GL277690   1.200  25.942   6.177
 6164POPC   C1A77691   1.275  26.406   6.377
 6164POPC   D2A77692   1.255  26.177   6.740
 6164POPC   C3A77693   1.506  26.202   7.090
 6164POPC   C4A77694   1.527  25.825   7.311
 6164POPC   C1B77695   0.839  25.692   6.297
 6164POPC   C2B77696   0.718  25.681   6.702
 6164POPC   C3B77697   0.968  25.887   7.068
 6164POPC   C4B77698   1.050  26.032   7.480
 6165POPC   NC377699  22.164   6.188   5.225
 6165POPC   PO477700  22.257   6.792   5.261
 6165POPC   GL177701  22.201   6.900   5.735
 6165POPC   GL277702  22.369   6.671   5.995
 6165POPC   C1A77703  21.975   6.941   6.160
 6165POPC   D2A77704  21.873   6.869   6.596
 6165POPC   C3A77705  22.193   6.950   6.901
 6165POPC   C4A77706  22.446   6.793   7.222
 6165POPC   C1B77707  22.131   6.464   6.347
 6165POPC   C2B77708  22.182   6.437   6.807
 6165POPC   C3B77709  22.017   6.526   7.220
 6165POPC   C4B77710  21.986   6.334   7.653
 6166POPC   NC377711  13.252   1.239   5.489
 6166POPC   PO477712  13.831   1.516   5.419
 6166POPC   GL177713  13.611   1.448   5.803
 6166POPC   GL277714  13.653   1.078   5.813
 6166POPC   C1A77715  13.454   1.361   6.213
 6166POPC   D2A77716  13.528   1.143   6.600
 6166POPC   C3A77717  13.382   1.277   7.005
 6166POPC   C4A77718  13.635   1.457   7.270
 6166POPC   C1B77719  13.459   0.855   6.167
 6166POPC   C2B77720  13.254   0.703   6.547
 6166POPC   C3B77721  13.437   0.756   6.957
 6166POPC   C4B77722  13.604   0.895   7.354
 6167POPC   NC377723  44.201  27.618   5.059
 6167POPC   PO477724  44.095  27.254   5.573
 6167POPC   GL177725  43.861  27.498   5.815
 6167POPC   GL277726  43.638  27.203   5.845
 6167POPC   C1A77727  43.858  27.790   6.217
 6167POPC   D2A77728  43.926  27.956   6.653
 6167POPC   C3A77729  43.804  27.751   7.050
 6167POPC   C4A77730  43.781  27.933   7.465
 6167POPC   C1B77731  43.770  27.298   6.260
 6167POPC   C2B77732  43.668  27.440   6.661
 6167POPC   C3B77733  43.797  27.250   7.053
 6167POPC   C4B77734  43.822  27.424   7.471
 6168POPC   NC377735  36.023   3.278   5.341
 6168POPC   PO477736  36.452   2.920   5.606
 6168POPC   GL177737  36.049   2.922   5.747
 6168POPC   GL277738  35.856   3.224   5.814
 6168POPC   C1A77739  35.935   2.821   6.166
 6168POPC   D2A77740  36.143   2.901   6.571
 6168POPC   C3A77741  36.258   2.622   6.918
 6168POPC   C4A77742  36.160   2.721   7.337
 6168POPC   C1B77743  35.617   3.232   6.184
 6168POPC   C2B77744  35.618   2.989   6.546
 6168POPC   C3B77745  35.755   2.809   6.918
 6168POPC   C4B77746  35.716   3.005   7.303
 6169POPC   NC377747  16.256   1.683   5.372
 6169POPC   PO477748  16.860   1.875   5.358
 6169POPC   GL177749  16.727   1.835   5.795
 6169POPC   GL277750  16.661   2.160   5.860
 6169POPC   C1A77751  16.769   1.837   6.276
 6169POPC   D2A77752  16.617   1.885   6.708
 6169POPC   C3A77753  16.873   1.745   7.074
 6169POPC   C4A77754  16.745   1.871   7.494
 6169POPC   C1B77755  16.812   2.471   6.098
 6169POPC   C2B77756  16.781   2.359   6.488
 6169POPC   C3B77757  16.549   2.385   6.829
 6169POPC   C4B77758  16.792   2.240   7.112
 6170POPC   NC377759  30.951  23.929   5.554
 6170POPC   PO477760  30.440  23.545   5.264
 6170POPC   GL177761  30.546  23.468   5.743
 6170POPC   GL277762  30.895  23.466   5.840
 6170POPC   C1A77763  30.503  23.422   6.210
 6170POPC   D2A77764  30.298  23.309   6.613
 6170POPC   C3A77765  30.498  23.543   6.950
 6170POPC   C4A77766  30.656  23.547   7.364
 6170POPC   C1B77767  30.954  23.699   6.193
 6170POPC   C2B77768  30.818  23.755   6.594
 6170POPC   C3B77769  31.001  23.643   6.969
 6170POPC   C4B77770  31.195  23.632   7.335
 6171POPC   NC377771  43.867  37.317   5.551
 6171POPC   PO477772  43.408  37.758   5.450
 6171POPC   GL177773  43.697  37.749   5.841
 6171POPC   GL277774  44.047  37.965   5.917
 6171POPC   C1A77775  43.764  37.771   6.266
 6171POPC   D2A77776  44.077  37.931   6.462
 6171POPC   C3A77777  43.925  37.946   6.836
 6171POPC   C4A77778  43.911  37.936   7.263
 6171POPC   C1B77779  44.166  37.529   6.144
 6171POPC   C2B77780  43.965  37.456   6.610
 6171POPC   C3B77781  43.990  37.477   7.056
 6171POPC   C4B77782  44.319  37.378   7.351
 6172POPC   NC377783   5.527   7.863   5.504
 6172POPC   PO477784   6.002   8.348   5.557
 6172POPC   GL177785   5.781   8.133   5.894
 6172POPC   GL277786   5.712   7.756   5.963
 6172POPC   C1A77787   5.774   8.323   6.314
 6172POPC   D2A77788   6.019   8.559   6.651
 6172POPC   C3A77789   5.896   8.505   7.065
 6172POPC   C4A77790   5.572   8.269   7.278
 6172POPC   C1B77791   6.081   7.822   6.211
 6172POPC   C2B77792   6.097   8.027   6.599
 6172POPC   C3B77793   5.886   7.999   6.964
 6172POPC   C4B77794   6.059   8.100   7.355
 6173POPC   NC377795   0.257  26.438   5.590
 6173POPC   PO477796   0.608  25.936   5.193
 6173POPC   GL177797   0.484  25.925   5.662
 6173POPC   GL277798   0.203  25.743   5.797
 6173POPC   C1A77799   0.538  26.068   6.112
 6173POPC   D2A77800   0.777  26.166   6.512
 6173POPC   C3A77801   0.545  26.111   6.917
 6173POPC   C4A77802   0.525  26.449   7.132
 6173POPC   C1B77803   0.081  25.867   6.223
 6173POPC   C2B77804   0.243  26.172   6.521
 6173POPC   C3B77805   0.055  26.319   6.910
 6173POPC   C4B77806  44.920  25.973   7.173
 6174POPC   NC377807  24.697   1.648   5.224
 6174POPC   PO477808  25.315   1.939   5.310
 6174POPC   GL177809  25.258   2.027   5.790
 6174POPC   GL277810  25.436   1.754   5.981
 6174POPC   C1A77811  25.106   2.113   6.212
 6174POPC   D2A77812  25.268   1.893   6.582
 6174POPC   C3A77813  25.146   2.130   6.962
 6174POPC   C4A77814  25.231   2.310   7.351
 6174POPC   C1B77815  25.012   1.612   6.184
 6174POPC   C2B77816  24.801   1.666   6.577
 6174POPC   C3B77817  25.003   1.638   6.977
 6174POPC   C4B77818  24.705   1.763   7.283
 6175POPC   NC377819  17.111  43.484   5.232
 6175POPC   PO477820  17.401  42.911   5.581
 6175POPC   GL177821  17.283  43.168   5.937
 6175POPC   GL277822  17.063  43.415   5.758
 6175POPC   C1A77823  17.396  43.209   6.382
 6175POPC   D2A77824  17.381  42.842   6.689
 6175POPC   C3A77825  17.533  42.843   7.108
 6175POPC   C4A77826  17.901  42.801   7.395
 6175POPC   C1B77827  17.045  43.568   6.179
 6175POPC   C2B77828  16.984  43.399   6.614
 6175POPC   C3B77829  17.173  43.527   6.973
 6175POPC   C4B77830  17.510  43.344   7.161
 6176POPC   NC377831  14.282   6.230   5.752
 6176POPC   PO477832  14.743   5.766   5.479
 6176POPC   GL177833  14.417   5.703   5.823
 6176POPC   GL277834  14.020   5.770   5.823
 6176POPC   C1A77835  14.301   5.598   6.266
 6176POPC   D2A77836  14.323   5.541   6.731
 6176POPC   C3A77837  14.649   5.800   6.939
 6176POPC   C4A77838  14.824   5.803   7.348
 6176POPC   C1B77839  13.912   5.950   6.249
 6176POPC   C2B77840  14.019   5.959   6.696
 6176POPC   C3B77841  14.141   5.839   7.132
 6176POPC   C4B77842  14.342   5.788   7.532
 6177POPC   NC377843  36.359   5.499   5.222
 6177POPC   PO477844  35.763   5.814   5.408
 6177POPC   GL177845  35.970   5.682   5.806
 6177POPC   GL277846  36.317   5.752   5.758
 6177POPC   C1A77847  36.069   5.767   6.273
 6177POPC   D2A77848  36.028   5.748   6.748
 6177POPC   C3A77849  36.171   6.031   7.085
 6177POPC   C4A77850  35.768   6.134   7.260
 6177POPC   C1B77851  36.443   6.067   6.105
 6177POPC   C2B77852  36.454   5.998   6.589
 6177POPC   C3B77853  36.492   5.655   6.939
 6177POPC   C4B77854  36.444   5.678   7.415
 6178POPC   NC377855  20.028  26.694   5.407
 6178POPC   PO477856  19.375  26.585   5.486
 6178POPC   GL177857  19.633  26.761   5.771
 6178POPC   GL277858  19.794  26.442   5.796
 6178POPC   C1A77859  19.776  26.922   6.189
 6178POPC   D2A77860  19.850  27.117   6.594
 6178POPC   C3A77861  19.961  26.949   6.962
 6178POPC   C4A77862  19.933  26.983   7.395
 6178POPC   C1B77863  20.104  26.540   6.120
 6178POPC   C2B77864  20.132  26.656   6.565
 6178POPC   C3B77865  19.954  26.450   6.961
 6178POPC   C4B77866  19.579  26.577   7.222
 6179POPC   NC377867   6.956  11.678   5.002
 6179POPC   PO477868   6.752  12.113   5.461
 6179POPC   GL177869   6.691  12.089   5.864
 6179POPC   GL277870   6.622  12.448   5.901
 6179POPC   C1A77871   6.719  11.831   6.198
 6179POPC   D2A77872   6.904  11.914   6.589
 6179POPC   C3A77873   6.723  11.726   6.928
 6179POPC   C4A77874   6.530  11.814   7.310
 6179POPC   C1B77875   6.733  12.329   6.328
 6179POPC   C2B77876   6.676  12.343   6.766
 6179POPC   C3B77877   6.787  12.516   7.130
 6179POPC   C4B77878   6.478  12.315   7.345
 6180POPC   NC377879  41.901  29.720   5.335
 6180POPC   PO477880  41.401  30.045   5.595
 6180POPC   GL177881  41.743  29.903   5.843
 6180POPC   GL277882  41.675  29.570   5.883
 6180POPC   C1A77883  41.762  29.944   6.289
 6180POPC   D2A77884  41.631  29.765   6.674
 6180POPC   C3A77885  41.622  29.989   7.077
 6180POPC   C4A77886  41.517  30.138   7.531
 6180POPC   C1B77887  41.329  29.672   6.209
 6180POPC   C2B77888  41.128  29.702   6.622
 6180POPC   C3B77889  41.307  29.527   7.003
 6180POPC   C4B77890  41.260  29.732   7.366
 6181POPC   NC377891  42.839  23.895   5.469
 6181POPC   PO477892  43.423  23.582   5.219
 6181POPC   GL177893  43.249  23.631   5.674
 6181POPC   GL277894  42.928  23.457   5.808
 6181POPC   C1A77895  43.142  23.829   6.095
 6181POPC   D2A77896  43.014  23.877   6.544
 6181POPC   C3A77897  43.245  23.851   6.944
 6181POPC   C4A77898  42.902  23.777   7.218
 6181POPC   C1B77899  43.149  23.333   6.208
 6181POPC   C2B77900  43.309  23.386   6.627
 6181POPC   C3B77901  43.153  23.344   7.038
 6181POPC   C4B77902  43.257  23.453   7.468
 6182POPC   NC377903  14.093  30.069   5.447
 6182POPC   PO477904  14.695  30.212   5.666
 6182POPC   GL177905  14.345  29.982   5.898
 6182POPC   GL277906  14.150  29.665   5.832
 6182POPC   C1A77907  14.174  29.951   6.318
 6182POPC   D2A77908  14.265  29.727   6.708
 6182POPC   C3A77909  14.385  29.958   7.074
 6182POPC   C4A77910  14.663  29.941   7.457
 6182POPC   C1B77911  14.068  29.424   6.254
 6182POPC   C2B77912  14.150  29.221   6.682
 6182POPC   C3B77913  14.435  29.366   7.041
 6182POPC   C4B77914  14.611  29.401   7.472
 6183POPC   NC377915  40.004  39.573   5.435
 6183POPC   PO477916  40.333  39.054   5.621
 6183POPC   GL177917  39.998  39.134   5.949
 6183POPC   GL277918  39.750  39.368   5.898
 6183POPC   C1A77919  39.949  39.238   6.390
 6183POPC   D2A77920  40.259  39.339   6.687
 6183POPC   C3A77921  40.291  39.043   7.022
 6183POPC   C4A77922  39.989  38.966   7.344
 6183POPC   C1B77923  39.467  39.221   6.233
 6183POPC   C2B77924  39.467  39.359   6.646
 6183POPC   C3B77925  39.794  39.267   6.921
 6183POPC   C4B77926  39.861  39.458   7.290
 6184POPC   NC377927  29.640  34.785   5.110
 6184POPC   PO477928  29.970  34.444   5.606
 6184POPC   GL177929  30.133  34.784   5.829
 6184POPC   GL277930  30.482  34.778   5.859
 6184POPC   C1A77931  30.008  34.767   6.267
 6184POPC   D2A77932  29.753  34.614   6.616
 6184POPC   C3A77933  29.821  34.880   6.975
 6184POPC   C4A77934  29.726  34.899   7.422
 6184POPC   C1B77935  30.471  34.541   6.223
 6184POPC   C2B77936  30.274  34.409   6.600
 6184POPC   C3B77937  30.055  34.398   6.986
 6184POPC   C4B77938  30.247  34.553   7.345
 6185POPC   NC377939   9.467  22.494   5.326
 6185POPC   PO477940   9.606  23.200   5.266
 6185POPC   GL177941   9.679  22.901   5.625
 6185POPC   GL277942   9.438  22.664   5.798
 6185POPC   C1A77943   9.877  22.827   6.035
 6185POPC   D2A77944   9.847  22.651   6.446
 6185POPC   C3A77945   9.832  22.962   6.789
 6185POPC   C4A77946   9.856  22.919   7.240
 6185POPC   C1B77947   9.380  22.845   6.213
 6185POPC   C2B77948   9.344  22.691   6.648
 6185POPC   C3B77949   9.359  22.930   7.043
 6185POPC   C4B77950   9.445  23.021   7.501
 6186POPC   NC377951  17.280  14.224   5.418
 6186POPC   PO477952  17.673  14.658   5.627
 6186POPC   GL177953  17.578  14.338   5.899
 6186POPC   GL277954  17.743  13.994   5.808
 6186POPC   C1A77955  17.580  14.525   6.316
 6186POPC   D2A77956  17.669  14.768   6.688
 6186POPC   C3A77957  17.418  14.558   6.980
 6186POPC   C4A77958  17.146  14.246   7.099
 6186POPC   C1B77959  17.681  14.015   6.270
 6186POPC   C2B77960  17.590  14.184   6.704
 6186POPC   C3B77961  17.669  14.130   7.168
 6186POPC   C4B77962  17.736  14.086   7.622
 6187POPC   NC377963  29.151  41.749   5.588
 6187POPC   PO477964  28.853  41.126   5.460
 6187POPC   GL177965  29.034  41.288   5.799
 6187POPC   GL277966  28.802  41.549   5.904
 6187POPC   C1A77967  29.073  41.285   6.234
 6187POPC   D2A77968  28.814  41.372   6.573
 6187POPC   C3A77969  29.101  41.404   6.883
 6187POPC   C4A77970  29.064  41.320   7.289
 6187POPC   C1B77971  29.037  41.816   6.223
 6187POPC   C2B77972  29.232  41.859   6.630
 6187POPC   C3B77973  29.087  41.872   7.061
 6187POPC   C4B77974  29.118  41.799   7.475
 6188POPC   NC377975  26.039  14.363   5.532
 6188POPC   PO477976  25.536  14.814   5.505
 6188POPC   GL177977  25.776  14.675   5.880
 6188POPC   GL277978  25.858  14.306   5.992
 6188POPC   C1A77979  25.849  14.694   6.313
 6188POPC   D2A77980  26.006  14.311   6.507
 6188POPC   C3A77981  26.139  14.433   6.891
 6188POPC   C4A77982  26.032  14.658   7.271
 6188POPC   C1B77983  25.622  14.027   6.212
 6188POPC   C2B77984  25.606  13.844   6.582
 6188POPC   C3B77985  25.877  13.948   6.889
 6188POPC   C4B77986  25.802  14.212   7.214
 6189POPC   NC377987   2.065  30.308   5.375
 6189POPC   PO477988   1.673  29.793   5.608
 6189POPC   GL177989   2.011  30.016   5.810
 6189POPC   GL277990   1.755  30.146   6.001
 6189POPC   C1A77991   2.175  29.941   6.220
 6189POPC   D2A77992   2.108  29.704   6.618
 6189POPC   C3A77993   2.277  29.876   7.002
 6189POPC   C4A77994   2.060  30.061   7.338
 6189POPC   C1B77995   1.705  29.740   6.260
 6189POPC   C2B77996   1.614  29.562   6.659
 6189POPC   C3B77997   1.784  29.734   7.051
 6189POPC   C4B77998   1.564  29.591   7.429
 6190POPC   NC377999   9.120  10.386   5.305
 6190POPC   PO478000   8.527  10.636   5.546
 6190POPC   GL178001   8.788  10.282   5.738
 6190POPC   GL278002   9.166  10.133   5.740
 6190POPC   C1A78003   8.738  10.333   6.192
 6190POPC   D2A78004   8.961  10.308   6.585
 6190POPC   C3A78005   8.749  10.353   6.990
 6190POPC   C4A78006   8.511  10.701   7.164
 6190POPC   C1B78007   9.294  10.263   6.152
 6190POPC   C2B78008   9.480  10.259   6.560
 6190POPC   C3B78009   9.280  10.318   6.986
 6190POPC   C4B78010   9.079  10.531   7.362
 6191POPC   NC378011  30.855  16.049   5.497
 6191POPC   PO478012  30.772  15.344   5.532
 6191POPC   GL178013  30.569  15.452   5.884
 6191POPC   GL278014  30.583  15.794   5.857
 6191POPC   C1A78015  30.730  15.533   6.298
 6191POPC   D2A78016  30.930  15.768   6.627
 6191POPC   C3A78017  30.744  15.625   6.997
 6191POPC   C4A78018  30.507  15.825   7.300
 6191POPC   C1B78019  30.837  16.040   6.173
 6191POPC   C2B78020  30.747  16.275   6.555
 6191POPC   C3B78021  30.829  16.145   6.978
 6191POPC   C4B78022  30.574  16.316   7.250
 6192POPC   NC378023  14.027  44.130   5.490
 6192POPC   PO478024  13.341  43.832   5.434
 6192POPC   GL178025  13.648  43.848   5.729
 6192POPC   GL278026  13.410  43.635   5.902
 6192POPC   C1A78027  13.663  43.997   6.148
 6192POPC   D2A78028  13.492  43.856   6.517
 6192POPC   C3A78029  13.663  44.100   6.869
 6192POPC   C4A78030  13.523  44.064   7.277
 6192POPC   C1B78031  13.779  43.493   6.113
 6192POPC   C2B78032  13.970  43.593   6.488
 6192POPC   C3B78033  13.764  43.606   6.886
 6192POPC   C4B78034  13.889  43.579   7.285
 6193POPC   NC378035  22.451  24.092   5.496
 6193POPC   PO478036  21.930  23.688   5.538
 6193POPC   GL178037  22.222  23.806   5.894
 6193POPC   GL278038  22.375  23.499   5.995
 6193POPC   C1A78039  22.330  23.829   6.360
 6193POPC   D2A78040  22.352  23.453   6.628
 6193POPC   C3A78041  22.396  23.604   7.040
 6193POPC   C4A78042  22.171  23.955   7.252
 6193POPC   C1B78043  21.981  23.446   6.250
 6193POPC   C2B78044  21.784  23.360   6.659
 6193POPC   C3B78045  21.880  23.580   7.049
 6193POPC   C4B78046  22.088  23.474   7.449
 6194POPC   NC378047  22.504   7.207   5.345
 6194POPC   PO478048  22.145   7.735   5.576
 6194POPC   GL178049  22.098   7.424   5.846
 6194POPC   GL278050  21.856   7.655   6.022
 6194POPC   C1A78051  22.242   7.364   6.243
 6194POPC   D2A78052  22.256   7.627   6.576
 6194POPC   C3A78053  22.344   7.445   6.992
 6194POPC   C4A78054  22.709   7.227   7.170
 6194POPC   C1B78055  21.762   7.365   6.366
 6194POPC   C2B78056  21.862   7.347   6.796
 6194POPC   C3B78057  21.851   7.186   7.202
 6194POPC   C4B78058  21.818   7.347   7.614
 6195POPC   NC378059  15.066  12.539   5.369
 6195POPC   PO478060  15.037  11.876   5.199
 6195POPC   GL178061  15.139  12.043   5.650
 6195POPC   GL278062  14.981  12.336   5.818
 6195POPC   C1A78063  15.338  12.051   6.094
 6195POPC   D2A78064  15.245  12.227   6.521
 6195POPC   C3A78065  15.256  11.998   6.916
 6195POPC   C4A78066  15.237  12.065   7.376
 6195POPC   C1B78067  14.845  12.482   6.202
 6195POPC   C2B78068  14.758  12.349   6.609
 6195POPC   C3B78069  14.961  12.404   7.006
 6195POPC   C4B78070  14.829  12.658   7.360
 6196POPC   NC378071   1.460  28.363   5.507
 6196POPC   PO478072   0.793  28.495   5.371
 6196POPC   GL178073   1.017  28.513   5.810
 6196POPC   GL278074   1.162  28.184   5.869
 6196POPC   C1A78075   1.128  28.446   6.297
 6196POPC   D2A78076   1.212  28.532   6.744
 6196POPC   C3A78077   1.078  28.313   7.121
 6196POPC   C4A78078   0.910  28.517   7.473
 6196POPC   C1B78079   1.365  27.980   6.232
 6196POPC   C2B78080   1.256  28.001   6.665
 6196POPC   C3B78081   1.446  27.993   7.051
 6196POPC   C4B78082   1.667  28.093   7.424
 6197POPC   NC378083  19.122   5.809   5.388
 6197POPC   PO478084  19.804   5.771   5.296
 6197POPC   GL178085  19.823   5.854   5.736
 6197POPC   GL278086  19.496   5.959   5.791
 6197POPC   C1A78087  19.765   5.635   6.141
 6197POPC   D2A78088  19.995   5.726   6.529
 6197POPC   C3A78089  19.899   5.617   6.962
 6197POPC   C4A78090  20.145   5.475   7.330
 6197POPC   C1B78091  19.726   6.131   6.191
 6197POPC   C2B78092  19.859   6.223   6.620
 6197POPC   C3B78093  19.696   6.099   7.010
 6197POPC   C4B78094  19.782   6.261   7.400
 6198POPC   NC378095   7.724  17.997   5.427
 6198POPC   PO478096   7.182  18.353   5.335
 6198POPC   GL178097   7.344  18.160   5.750
 6198POPC   GL278098   7.583  18.380   5.770
 6198POPC   C1A78099   7.505  18.151   6.211
 6198POPC   D2A78100   7.363  18.270   6.629
 6198POPC   C3A78101   7.351  18.126   7.072
 6198POPC   C4A78102   7.122  18.293   7.429
 6198POPC   C1B78103   7.779  18.631   6.085
 6198POPC   C2B78104   7.755  18.604   6.522
 6198POPC   C3B78105   7.672  18.511   6.962
 6198POPC   C4B78106   7.799  18.235   7.301
 6199POPC   NC378107  39.418  30.513   5.538
 6199POPC   PO478108  38.847  30.946   5.429
 6199POPC   GL178109  39.021  30.908   5.889
 6199POPC   GL278110  39.349  30.775   5.952
 6199POPC   C1A78111  39.122  30.874   6.382
 6199POPC   D2A78112  38.980  30.493   6.632
 6199POPC   C3A78113  38.866  30.629   7.030
 6199POPC   C4A78114  39.082  30.981   7.237
 6199POPC   C1B78115  39.319  30.426   6.230
 6199POPC   C2B78116  39.514  30.502   6.624
 6199POPC   C3B78117  39.377  30.640   6.993
 6199POPC   C4B78118  39.323  30.463   7.412
 6200POPC   NC378119  43.066  38.088   5.384
 6200POPC   PO478120  42.763  37.462   5.457
 6200POPC   GL178121  42.940  37.690   5.772
 6200POPC   GL278122  43.216  37.509   5.843
 6200POPC   C1A78123  42.784  37.660   6.196
 6200POPC   D2A78124  42.968  37.637   6.602
 6200POPC   C3A78125  42.791  37.695   6.999
 6200POPC   C4A78126  43.135  37.862   7.242
 6200POPC   C1B78127  43.282  37.716   6.205
 6200POPC   C2B78128  43.465  37.575   6.602
 6200POPC   C3B78129  43.520  37.684   6.972
 6200POPC   C4B78130  43.487  37.471   7.311
 6201POPC   NC378131   2.912  44.506   5.466
 6201POPC   PO478132   2.357  44.936   5.307
 6201POPC   GL178133   2.557  44.819   5.726
 6201POPC   GL278134   2.839  44.650   5.938
 6201POPC   C1A78135   2.454  44.853   6.170
 6201POPC   D2A78136   2.513  44.588   6.543
 6201POPC   C3A78137   2.622  44.712   6.972
 6201POPC   C4A78138   2.523  44.893   7.401
 6201POPC   C1B78139   2.974  44.790   6.352
 6201POPC   C2B78140   2.930   0.054   6.719
 6201POPC   C3B78141   2.984   0.037   7.165
 6201POPC   C4B78142   2.999  44.651   7.410
 6202POPC   NC378143  38.568   0.159   5.545
 6202POPC   PO478144  38.035   0.504   5.309
 6202POPC   GL178145  38.217   0.495   5.788
 6202POPC   GL278146  38.314   0.176   5.986
 6202POPC   C1A78147  38.391   0.617   6.251
 6202POPC   D2A78148  38.212   0.506   6.664
 6202POPC   C3A78149  38.250   0.751   7.035
 6202POPC   C4A78150  38.339   0.602   7.459
 6202POPC   C1B78151  38.713   0.216   6.228
 6202POPC   C2B78152  38.702   0.335   6.664
 6202POPC   C3B78153  38.505   0.309   7.060
 6202POPC   C4B78154  38.553   0.143   7.471
 6203POPC   NC378155  26.874  38.047   5.493
 6203POPC   PO478156  26.279  37.881   5.485
 6203POPC   GL178157  26.442  37.727   5.898
 6203POPC   GL278158  26.815  37.622   5.838
 6203POPC   C1A78159  26.558  37.766   6.357
 6203POPC   D2A78160  26.910  37.947   6.626
 6203POPC   C3A78161  26.767  37.978   7.052
 6203POPC   C4A78162  26.514  37.687   7.265
 6203POPC   C1B78163  26.878  37.385   6.227
 6203POPC   C2B78164  26.582  37.240   6.551
 6203POPC   C3B78165  26.530  37.275   6.973
 6203POPC   C4B78166  26.932  37.363   7.165
 6204POPC   NC378167  14.046  31.110   5.305
 6204POPC   PO478168  14.470  31.615   5.206
 6204POPC   GL178169  14.443  31.552   5.694
 6204POPC   GL278170  14.402  31.190   5.704
 6204POPC   C1A78171  14.179  31.458   6.113
 6204POPC   D2A78172  14.164  31.700   6.545
 6204POPC   C3A78173  14.272  31.547   7.002
 6204POPC   C4A78174  14.114  31.577   7.490
 6204POPC   C1B78175  14.584  31.121   6.113
 6204POPC   C2B78176  14.570  31.294   6.536
 6204POPC   C3B78177  14.619  31.091   6.941
 6204POPC   C4B78178  14.469  31.213   7.345
 6205POPC   NC378179   3.765   9.101   5.505
 6205POPC   PO478180   3.164   8.792   5.483
 6205POPC   GL178181   3.368   9.004   5.807
 6205POPC   GL278182   3.584   8.732   5.822
 6205POPC   C1A78183   3.558   9.028   6.229
 6205POPC   D2A78184   3.570   8.844   6.636
 6205POPC   C3A78185   3.548   9.057   7.054
 6205POPC   C4A78186   3.280   9.363   7.354
 6205POPC   C1B78187   3.242   8.630   6.148
 6205POPC   C2B78188   3.212   8.455   6.576
 6205POPC   C3B78189   3.267   8.607   6.974
 6205POPC   C4B78190   3.532   8.634   7.333
 6206POPC   NC378191  20.689  40.494   5.309
 6206POPC   PO478192  20.533  41.144   5.240
 6206POPC   GL178193  20.616  40.952   5.687
 6206POPC   GL278194  20.336  40.979   5.914
 6206POPC   C1A78195  20.772  40.844   6.155
 6206POPC   D2A78196  20.858  40.541   6.490
 6206POPC   C3A78197  20.649  40.569   6.916
 6206POPC   C4A78198  20.768  40.889   7.209
 6206POPC   C1B78199  20.449  41.192   6.328
 6206POPC   C2B78200  20.521  41.044   6.734
 6206POPC   C3B78201  20.278  40.959   7.059
 6206POPC   C4B78202  20.327  40.895   7.491
 6207POPC   NC378203  28.022  11.239   5.482
 6207POPC   PO478204  28.717  11.187   5.508
 6207POPC   GL178205  28.446  11.267   5.873
 6207POPC   GL278206  28.150  11.493   5.913
 6207POPC   C1A78207  28.314  11.137   6.294
 6207POPC   D2A78208  28.386  10.851   6.635
 6207POPC   C3A78209  28.595  11.109   6.934
 6207POPC   C4A78210  28.398  11.442   7.159
 6207POPC   C1B78211  27.861  11.356   6.276
 6207POPC   C2B78212  27.989  11.197   6.705
 6207POPC   C3B78213  27.918  11.346   7.111
 6207POPC   C4B78214  28.065  11.525   7.543
 6208POPC   NC378215   2.809  19.267   5.639
 6208POPC   PO478216   3.216  18.854   5.331
 6208POPC   GL178217   3.050  18.696   5.745
 6208POPC   GL278218   2.706  18.845   5.919
 6208POPC   C1A78219   3.076  18.610   6.180
 6208POPC   D2A78220   3.041  18.982   6.431
 6208POPC   C3A78221   2.720  19.001   6.735
 6208POPC   C4A78222   2.714  19.099   7.136
 6208POPC   C1B78223   2.496  19.125   6.276
 6208POPC   C2B78224   2.253  19.260   6.681
 6208POPC   C3B78225   2.249  19.295   7.153
 6208POPC   C4B78226   2.400  19.089   7.527
 6209POPC   NC378227   9.118  30.295   5.381
 6209POPC   PO478228   9.041  29.647   5.391
 6209POPC   GL178229   8.896  29.948   5.727
 6209POPC   GL278230   8.804  29.640   5.861
 6209POPC   C1A78231   8.985  30.151   6.150
 6209POPC   D2A78232   9.290  30.041   6.475
 6209POPC   C3A78233   9.172  30.101   6.899
 6209POPC   C4A78234   8.961  30.177   7.271
 6209POPC   C1B78235   9.043  29.658   6.214
 6209POPC   C2B78236   8.799  29.852   6.556
 6209POPC   C3B78237   8.808  29.743   6.980
 6209POPC   C4B78238   9.141  29.700   7.286
 6210POPC   NC378239  36.628  27.298   5.455
 6210POPC   PO478240  36.755  26.524   5.444
 6210POPC   GL178241  36.915  26.677   5.902
 6210POPC   GL278242  37.158  26.960   5.866
 6210POPC   C1A78243  36.926  26.717   6.340
 6210POPC   D2A78244  36.831  26.915   6.742
 6210POPC   C3A78245  36.879  26.674   7.153
 6210POPC   C4A78246  36.866  26.569   7.599
 6210POPC   C1B78247  37.111  27.182   6.257
 6210POPC   C2B78248  37.378  27.173   6.661
 6210POPC   C3B78249  37.220  27.042   7.057
 6210POPC   C4B78250  36.838  27.144   7.302
 6211POPC   NC378251  20.548   0.734   5.408
 6211POPC   PO478252  20.298   0.092   5.244
 6211POPC   GL178253  20.425   0.288   5.642
 6211POPC   GL278254  20.771   0.288   5.679
 6211POPC   C1A78255  20.417   0.505   6.073
 6211POPC   D2A78256  20.205   0.659   6.465
 6211POPC   C3A78257  20.347   0.487   6.857
 6211POPC   C4A78258  20.562   0.506   7.247
 6211POPC   C1B78259  20.913   0.562   6.010
 6211POPC   C2B78260  20.780   0.673   6.443
 6211POPC   C3B78261  20.884   0.692   6.883
 6211POPC   C4B78262  21.066   0.562   7.277
 6212POPC   NC378263   1.316   0.001   5.351
 6212POPC   PO478264   0.924  44.388   5.517
 6212POPC   GL178265   1.065  44.550   5.874
 6212POPC   GL278266   1.336  44.740   5.784
 6212POPC   C1A78267   1.149  44.747   6.268
 6212POPC   D2A78268   1.261  44.493   6.600
 6212POPC   C3A78269   1.065  44.369   6.974
 6212POPC   C4A78270   1.368  44.233   7.266
 6212POPC   C1B78271   1.558   0.051   6.041
 6212POPC   C2B78272   1.524   0.132   6.500
 6212POPC   C3B78273   1.553  44.850   6.859
 6212POPC   C4B78274   1.360  44.735   7.264
 6213POPC   NC378275  28.567  26.945   5.226
 6213POPC   PO478276  27.974  26.657   5.360
 6213POPC   GL178277  28.191  26.896   5.705
 6213POPC   GL278278  28.576  26.952   5.751
 6213POPC   C1A78279  28.221  26.900   6.168
 6213POPC   D2A78280  28.103  26.707   6.579
 6213POPC   C3A78281  28.355  26.899   6.922
 6213POPC   C4A78282  28.676  26.997   7.255
 6213POPC   C1B78283  28.710  26.770   6.160
 6213POPC   C2B78284  28.614  26.604   6.569
 6213POPC   C3B78285  28.797  26.583   6.952
 6213POPC   C4B78286  28.780  26.442   7.368
 6214POPC   NC378287  20.209  35.335   5.381
 6214POPC   PO478288  19.557  35.273   5.500
 6214POPC   GL178289  19.780  35.461   5.870
 6214POPC   GL278290  20.131  35.653   5.852
 6214POPC   C1A78291  19.631  35.358   6.300
 6214POPC   D2A78292  19.654  35.301   6.730
 6214POPC   C3A78293  19.663  35.643   7.019
 6214POPC   C4A78294  19.430  35.450   7.359
 6214POPC   C1B78295  20.144  35.444   6.281
 6214POPC   C2B78296  20.156  35.294   6.712
 6214POPC   C3B78297  19.976  35.257   7.126
 6214POPC   C4B78298  20.049  35.149   7.544
 6215POPC   NC378299   7.716   3.781   5.356
 6215POPC   PO478300   7.424   3.237   5.555
 6215POPC   GL178301   7.476   3.516   5.775
 6215POPC   GL278302   7.857   3.481   5.749
 6215POPC   C1A78303   7.311   3.419   6.173
 6215POPC   D2A78304   7.147   3.269   6.534
 6215POPC   C3A78305   7.291   3.541   6.830
 6215POPC   C4A78306   7.375   3.361   7.212
 6215POPC   C1B78307   7.783   3.608   6.146
 6215POPC   C2B78308   7.700   3.385   6.535
 6215POPC   C3B78309   7.804   3.453   6.951
 6215POPC   C4B78310   7.646   3.799   7.195
 6216POPC   NC378311  34.128  42.064   5.552
 6216POPC   PO478312  33.811  42.561   5.290
 6216POPC   GL178313  33.857  42.536   5.752
 6216POPC   GL278314  33.925  42.255   5.964
 6216POPC   C1A78315  33.708  42.669   6.171
 6216POPC   D2A78316  33.909  42.661   6.591
 6216POPC   C3A78317  33.897  42.449   7.021
 6216POPC   C4A78318  33.540  42.330   7.311
 6216POPC   C1B78319  34.164  42.006   6.218
 6216POPC   C2B78320  34.189  42.119   6.635
 6216POPC   C3B78321  34.237  42.039   7.047
 6216POPC   C4B78322  34.243  42.099   7.480
 6217POPC   NC378323  11.001   0.601   5.432
 6217POPC   PO478324  11.586   0.239   5.256
 6217POPC   GL178325  11.399   0.381   5.658
 6217POPC   GL278326  11.625   0.209   5.828
 6217POPC   C1A78327  11.177   0.386   6.093
 6217POPC   D2A78328  11.269   0.383   6.548
 6217POPC   C3A78329  11.088   0.387   6.957
 6217POPC   C4A78330  11.041   0.787   7.171
 6217POPC   C1B78331  11.694   0.371   6.219
 6217POPC   C2B78332  11.722   0.161   6.589
 6217POPC   C3B78333  11.589   0.291   6.998
 6217POPC   C4B78334  11.520   0.628   7.301
 6218POPC   NC378335  33.579  33.421   5.601
 6218POPC   PO478336  33.522  32.767   5.400
 6218POPC   GL178337  33.784  32.952   5.723
 6218POPC   GL278338  34.057  33.211   5.754
 6218POPC   C1A78339  33.927  32.894   6.129
 6218POPC   D2A78340  33.877  33.067   6.518
 6218POPC   C3A78341  33.738  32.803   6.809
 6218POPC   C4A78342  33.619  32.857   7.204
 6218POPC   C1B78343  34.029  33.431   6.184
 6218POPC   C2B78344  34.147  33.470   6.650
 6218POPC   C3B78345  33.951  33.294   7.037
 6218POPC   C4B78346  34.145  32.947   7.289
 6219POPC   NC378347   7.555  33.632   5.661
 6219POPC   PO478348   7.277  34.229   5.425
 6219POPC   GL178349   7.296  34.031   5.872
 6219POPC   GL278350   7.163  33.720   5.984
 6219POPC   C1A78351   7.573  33.890   6.260
 6219POPC   D2A78352   7.663  33.638   6.626
 6219POPC   C3A78353   7.539  33.758   7.048
 6219POPC   C4A78354   7.650  34.117   7.239
 6219POPC   C1B78355   7.195  33.568   6.402
 6219POPC   C2B78356   7.190  33.909   6.714
 6219POPC   C3B78357   7.043  33.924   7.145
 6219POPC   C4B78358   7.089  33.517   7.324
 6220POPC   NC378359  37.817   4.822   5.339
 6220POPC   PO478360  37.372   5.283   5.427
 6220POPC   GL178361  37.523   5.094   5.784
 6220POPC   GL278362  37.646   4.768   5.807
 6220POPC   C1A78363  37.593   5.225   6.200
 6220POPC   D2A78364  37.542   4.994   6.571
 6220POPC   C3A78365  37.738   5.204   6.930
 6220POPC   C4A78366  37.571   5.130   7.322
 6220POPC   C1B78367  37.884   4.797   6.162
 6220POPC   C2B78368  37.927   4.624   6.580
 6220POPC   C3B78369  37.756   4.703   6.961
 6220POPC   C4B78370  37.970   4.833   7.295
 6221POPC   NC378371   4.054  36.739   5.591
 6221POPC   PO478372   4.654  37.079   5.397
 6221POPC   GL178373   4.432  37.046   5.763
 6221POPC   GL278374   4.515  36.688   5.822
 6221POPC   C1A78375   4.253  37.113   6.170
 6221POPC   D2A78376   4.326  36.965   6.574
 6221POPC   C3A78377   4.202  37.226   6.906
 6221POPC   C4A78378   4.499  37.294   7.221
 6221POPC   C1B78379   4.315  36.588   6.208
 6221POPC   C2B78380   4.030  36.508   6.518
 6221POPC   C3B78381   4.192  36.569   6.889
 6221POPC   C4B78382   4.238  36.828   7.211
 6222POPC   NC378383   6.209  27.738   5.286
 6222POPC   PO478384   6.094  27.109   5.374
 6222POPC   GL178385   6.115  27.416   5.750
 6222POPC   GL278386   6.087  27.803   5.777
 6222POPC   C1A78387   5.867  27.530   6.140
 6222POPC   D2A78388   5.598  27.546   6.483
 6222POPC   C3A78389   5.815  27.433   6.834
 6222POPC   C4A78390   5.653  27.490   7.236
 6222POPC   C1B78391   6.042  28.021   6.185
 6222POPC   C2B78392   6.069  27.824   6.593
 6222POPC   C3B78393   5.936  27.889   7.040
 6222POPC   C4B78394   6.038  27.718   7.458
 6223POPC   NC378395  15.298  17.718   5.351
 6223POPC   PO478396  14.827  17.326   5.238
 6223POPC   GL178397  14.958  17.480   5.679
 6223POPC   GL278398  14.927  17.173   5.884
 6223POPC   C1A78399  15.290  17.498   6.041
 6223POPC   D2A78400  15.625  17.426   6.354
 6223POPC   C3A78401  15.492  17.568   6.760
 6223POPC   C4A78402  15.405  17.701   7.178
 6223POPC   C1B78403  14.795  17.530   6.157
 6223POPC   C2B78404  15.002  17.634   6.547
 6223POPC   C3B78405  14.970  17.466   6.965
 6223POPC   C4B78406  15.094  17.309   7.368
 6224POPC   NC378407  31.520  31.948   5.318
 6224POPC   PO478408  31.169  32.522   5.272
 6224POPC   GL178409  31.237  32.448   5.723
 6224POPC   GL278410  31.547  32.259   5.753
 6224POPC   C1A78411  31.407  32.560   6.143
 6224POPC   D2A78412  31.354  32.400   6.561
 6224POPC   C3A78413  31.570  32.500   6.923
 6224POPC   C4A78414  31.321  32.451   7.281
 6224POPC   C1B78415  31.817  32.278   6.160
 6224POPC   C2B78416  31.819  32.107   6.593
 6224POPC   C3B78417  31.995  32.196   7.001
 6224POPC   C4B78418  31.772  32.266   7.392
 6225POPC   NC378419  39.790  37.963   5.112
 6225POPC   PO478420  39.580  38.458   5.543
 6225POPC   GL178421  39.255  38.422   5.851
 6225POPC   GL278422  38.956  38.218   5.772
 6225POPC   C1A78423  39.337  38.515   6.247
 6225POPC   D2A78424  39.586  38.291   6.494
 6225POPC   C3A78425  39.372  38.321   6.821
 6225POPC   C4A78426  39.087  38.454   7.115
 6225POPC   C1B78427  39.092  38.078   6.213
 6225POPC   C2B78428  39.057  37.944   6.619
 6225POPC   C3B78429  38.787  38.097   6.901
 6225POPC   C4B78430  38.724  38.151   7.343
 6226POPC   NC378431  14.016   6.625   5.278
 6226POPC   PO478432  14.557   6.566   5.588
 6226POPC   GL178433  14.533   6.814   5.911
 6226POPC   GL278434  14.176   6.825   5.882
 6226POPC   C1A78435  14.705   6.682   6.289
 6226POPC   D2A78436  14.502   6.655   6.686
 6226POPC   C3A78437  14.715   6.446   6.987
 6226POPC   C4A78438  14.457   6.207   7.237
 6226POPC   C1B78439  14.261   6.956   6.324
 6226POPC   C2B78440  14.295   7.107   6.763
 6226POPC   C3B78441  14.234   6.815   7.122
 6226POPC   C4B78442  14.103   6.618   7.539
 6227POPC   NC378443  28.926  24.386   5.180
 6227POPC   PO478444  29.317  24.884   5.370
 6227POPC   GL178445  29.268  24.527   5.708
 6227POPC   GL278446  28.965  24.316   5.738
 6227POPC   C1A78447  29.236  24.340   6.165
 6227POPC   D2A78448  29.142  24.611   6.509
 6227POPC   C3A78449  29.205  24.436   6.912
 6227POPC   C4A78450  29.054  24.719   7.243
 6227POPC   C1B78451  28.721  24.351   6.138
 6227POPC   C2B78452  28.814  24.235   6.570
 6227POPC   C3B78453  28.725  24.372   7.005
 6227POPC   C4B78454  28.849  24.242   7.435
 6228POPC   NC378455  44.726  40.331   5.414
 6228POPC   PO478456  44.595  39.640   5.239
 6228POPC   GL178457  44.569  39.740   5.719
 6228POPC   GL278458  44.492  40.098   5.799
 6228POPC   C1A78459  44.692  39.863   6.178
 6228POPC   D2A78460  44.750  40.149   6.502
 6228POPC   C3A78461  44.604  39.975   6.837
 6228POPC   C4A78462  44.545  39.841   7.226
 6228POPC   C1B78463  44.354  40.288   6.200
 6228POPC   C2B78464  44.282  40.354   6.643
 6228POPC   C3B78465  44.160  40.166   7.011
 6228POPC   C4B78466  44.154  40.128   7.414
 6229POPC   NC378467  23.015  29.281   5.376
 6229POPC   PO478468  23.770  29.230   5.365
 6229POPC   GL178469  23.889  29.187   5.791
 6229POPC   GL278470  24.080  29.483   5.867
 6229POPC   C1A78471  23.732  29.005   6.189
 6229POPC   D2A78472  23.915  28.937   6.610
 6229POPC   C3A78473  23.674  28.966   6.997
 6229POPC   C4A78474  23.575  28.756   7.356
 6229POPC   C1B78475  24.032  29.394   6.288
 6229POPC   C2B78476  23.785  29.469   6.658
 6229POPC   C3B78477  23.985  29.360   7.047
 6229POPC   C4B78478  23.891  29.172   7.447
 6230POPC   NC378479  25.303  42.870   5.572
 6230POPC   PO478480  25.676  43.485   5.355
 6230POPC   GL178481  25.567  43.249   5.802
 6230POPC   GL278482  25.654  42.872   5.930
 6230POPC   C1A78483  25.493  43.162   6.290
 6230POPC   D2A78484  25.655  43.122   6.706
 6230POPC   C3A78485  25.286  43.233   6.924
 6230POPC   C4A78486  25.014  43.109   7.258
 6230POPC   C1B78487  25.319  42.671   6.204
 6230POPC   C2B78488  25.213  42.798   6.627
 6230POPC   C3B78489  25.373  42.750   7.041
 6230POPC   C4B78490  25.205  42.567   7.425
 6231POPC   NC378491  35.143  25.883   5.589
 6231POPC   PO478492  35.020  26.439   5.687
 6231POPC   GL178493  35.186  26.215   5.971
 6231POPC   GL278494  35.527  26.231   5.877
 6231POPC   C1A78495  35.276  25.922   6.279
 6231POPC   D2A78496  35.155  26.062   6.648
 6231POPC   C3A78497  35.277  25.862   7.014
 6231POPC   C4A78498  35.111  26.056   7.294
 6231POPC   C1B78499  35.557  26.347   6.344
 6231POPC   C2B78500  35.643  26.138   6.768
 6231POPC   C3B78501  35.698  26.111   7.254
 6231POPC   C4B78502  35.790  26.281   7.722
 6232POPC   NC378503  15.499  13.802   5.585
 6232POPC   PO478504  15.061  13.260   5.498
 6232POPC   GL178505  15.169  13.444   5.827
 6232POPC   GL278506  15.456  13.262   5.847
 6232POPC   C1A78507  14.970  13.622   6.203
 6232POPC   D2A78508  14.844  13.831   6.592
 6232POPC   C3A78509  14.999  13.634   6.977
 6232POPC   C4A78510  15.004  13.531   7.406
 6232POPC   C1B78511  15.442  13.400   6.269
 6232POPC   C2B78512  15.361  13.195   6.644
 6232POPC   C3B78513  15.392  13.324   7.062
 6232POPC   C4B78514  15.479  13.698   7.241
 6233POPC   NC378515  38.691  21.578   5.695
 6233POPC   PO478516  38.745  20.944   5.399
 6233POPC   GL178517  38.674  21.085   5.839
 6233POPC   GL278518  38.319  21.179   5.876
 6233POPC   C1A78519  38.721  21.231   6.292
 6233POPC   D2A78520  38.513  21.242   6.724
 6233POPC   C3A78521  38.765  21.375   7.094
 6233POPC   C4A78522  38.603  21.637   7.438
 6233POPC   C1B78523  38.258  21.475   6.244
 6233POPC   C2B78524  38.134  21.658   6.655
 6233POPC   C3B78525  38.276  21.602   7.066
 6233POPC   C4B78526  38.344  21.208   7.299
 6234POPC   NC378527  40.410  26.493   5.394
 6234POPC   PO478528  39.879  26.895   5.341
 6234POPC   GL178529  40.048  26.896   5.724
 6234POPC   GL278530  39.719  26.943   5.833
 6234POPC   C1A78531  40.140  26.792   6.146
 6234POPC   D2A78532  39.906  26.754   6.523
 6234POPC   C3A78533  40.181  26.695   6.860
 6234POPC   C4A78534  40.425  26.940   7.139
 6234POPC   C1B78535  39.653  27.090   6.226
 6234POPC   C2B78536  39.511  27.055   6.629
 6234POPC   C3B78537  39.725  26.963   6.997
 6234POPC   C4B78538  39.935  26.738   7.326
 6235POPC   NC378539  29.089  16.490   5.478
 6235POPC   PO478540  29.273  17.139   5.381
 6235POPC   GL178541  29.382  16.991   5.816
 6235POPC   GL278542  29.425  16.610   5.837
 6235POPC   C1A78543  29.302  16.883   6.284
 6235POPC   D2A78544  28.973  16.767   6.568
 6235POPC   C3A78545  28.921  16.752   7.016
 6235POPC   C4A78546  28.669  16.998   7.312
 6235POPC   C1B78547  29.637  16.345   6.158
 6235POPC   C2B78548  29.725  16.222   6.608
 6235POPC   C3B78549  29.680  16.499   6.945
 6235POPC   C4B78550  29.399  16.697   7.203
 6236W        W78551  11.557  26.060   2.610
 6237W        W78552   8.133  20.113   1.690
 6238W        W78553  32.323  43.764   0.674
 6239W        W78554  32.629  26.913   1.797
 6240W        W78555   3.431  36.792  11.415
 6241W        W78556  15.186  38.553  13.317
 6242W        W78557   9.244   0.729   4.477
 6243W        W78558  25.547  44.880   2.729
 6244W        W78559  28.307  42.506  11.070
 6245W        W78560  35.926  31.344   2.231
 6246W        W78561  12.676   6.835  11.835
 6247W        W78562  24.362  33.552   1.855
 6248W        W78563   7.040  17.660   2.617
 6249W        W78564  10.774   2.854  11.212
 6250W        W78565  13.205   0.588  14.078
 6251W        W78566  28.392  30.163   2.204
 6252W        W78567  38.904  39.068   1.517
 6253W        W78568   2.928  32.640  13.311
 6254W        W78569  41.898  28.997   2.708
 6255W        W78570  25.242   5.490   2.830
 6256W        W78571   8.642   5.563  11.118
 6257W        W78572   7.186  34.347  10.733
 6258W        W78573   9.621  41.714  11.262
 6259W        W78574  30.950   8.059   2.132
 6260W        W78575  27.517   3.135  14.992
 6261W        W78576  26.718  40.499  11.356
 6262W        W78577  20.669   5.586  12.678
 6263W        W78578   4.816  27.476  13.844
 6264W        W78579  31.692   3.751   1.866
 6265W        W78580   6.410  13.691  11.736
 6266W        W78581   3.132  21.027  12.476
 6267W        W78582  29.535  29.128   0.181
 6268W        W78583   5.890  24.440   2.891
 6269W        W78584  44.003  36.020  11.024
 6270W        W78585  31.489  38.518  12.531
 6271W        W78586   6.295   8.022  10.054
 6272W        W78587   7.928  13.010  11.692
 6273W        W78588   7.200   7.285  12.104
 6274W        W78589  17.595  32.492  12.882
 6275W        W78590  44.241  32.381  14.034
 6276W        W78591  15.377  29.899   0.772
 6277W        W78592  40.085  34.925  13.816
 6278W        W78593   7.431   3.778   2.792
 6279W        W78594  32.406  30.291   0.902
 6280W        W78595   9.447  38.797   2.686
 6281W        W78596   8.337  18.790  12.667
 6282W        W78597   7.799  31.117  12.027
 6283W        W78598  38.117  22.726  13.337
 6284W        W78599  26.495  31.366   4.644
 6285W        W78600   8.812  39.922   3.319
 6286W        W78601   6.895  26.805  14.421
 6287W        W78602  14.721  33.481   5.407
 6288W        W78603  15.549  18.269   3.231
 6289W        W78604  26.129  15.881  11.637
 6290W        W78605   4.849  27.611   0.258
 6291W        W78606  34.267  26.405  11.442
 6292W        W78607  41.503  14.356   1.394
 6293W        W78608  20.614  41.880  10.596
 6294W        W78609  21.240  30.663   2.949
 6295W        W78610  25.038  39.398  12.275
 6296W        W78611   7.744  38.604   0.444
 6297W        W78612  41.348  11.489  12.874
 6298W        W78613  14.555  30.581   0.299
 6299W        W78614   0.850  15.890   1.206
 6300W        W78615  19.919   6.309  11.240
 6301W        W78616  12.391  20.873  13.847
 6302W        W78617  30.593  22.620   1.305
 6303W        W78618  33.154  18.107  14.241
 6304W        W78619  38.116  21.646  10.474
 6305W        W78620  24.657  29.814  13.853
 6306W        W78621  31.153  11.317  10.510
 6307W        W78622   3.966  34.313   1.166
 6308W        W78623   5.334   3.899  14.916
 6309W        W78624  24.474  33.696  11.167
 6310W        W78625  14.852  44.467   1.935
 6311W        W78626  12.041  12.693  14.095
 6312W        W78627  30.919  31.708   0.543
 6313W        W78628  29.614  39.541  14.004
 6314W        W78629  33.516  21.707  12.452
 6315W        W78630  31.491  32.837  10.837
 6316W        W78631  26.659  30.376   3.659
 6317W        W78632  18.695  44.056  12.420
 6318W        W78633   6.234  15.180   3.921
 6319W        W78634  38.943  34.444  12.389
 6320W        W78635  39.062  19.563   2.254
 6321W        W78636   4.698   3.144   1.882
 6322W        W78637   2.513  33.716   0.241
 6323W        W78638   2.163  28.900  12.978
 6324W        W78639  11.647  17.091  10.526
 6325W        W78640  37.623  19.588  14.739
 6326W        W78641  25.577  23.229  14.803
 6327W        W78642  13.783  15.136   0.184
 6328W        W78643   8.569  22.756   3.287
 6329W        W78644   2.778   2.859   0.322
 6330W        W78645   0.123  21.914  14.119
 6331W        W78646  30.151  23.222   2.275
 6332W        W78647   1.582  13.992  13.936
 6333W        W78648  44.991  30.547   1.490
 6334W        W78649  28.982  44.511  10.622
 6335W        W78650  10.803  14.286  13.294
 6336W        W78651  37.419   6.024  14.932
 6337W        W78652  37.073  40.271  12.463
 6338W        W78653  39.383  27.432   0.758
 6339W        W78654  30.153  40.575   3.740
 6340W        W78655  26.742  18.637  13.448
 6341W        W78656  22.751  35.316  11.209
 6342W        W78657  19.050  24.345  11.370
 6343W        W78658  38.898   6.018   2.862
 6344W        W78659  36.595  12.310  13.928
 6345W        W78660   5.318  26.474   3.978
 6346W        W78661  27.389  29.194   1.345
 6347W        W78662   3.679  24.442  11.435
 6348W        W78663  26.555  37.361  10.877
 6349W        W78664  17.136  20.338   4.226
 6350W        W78665   6.334  14.326   4.124
 6351W        W78666  22.219  22.479  11.900
 6352W        W78667  10.276  10.337  13.082
 6353W        W78668  20.378  43.238   2.131
 6354W        W78669  14.659  28.255  11.201
 6355W        W78670  43.162  25.800  11.107
 6356W        W78671  33.228  40.492  14.561
 6357W        W78672  35.907  20.260   4.524
 6358W        W78673  21.337  31.519   3.781
 6359W        W78674  40.996  38.899  12.210
 6360W        W78675   1.493  19.462  14.419
 6361W        W78676  23.145  19.111  12.975
 6362W        W78677   3.812  44.018  14.338
 6363W        W78678  18.143  10.386   4.134
 6364W        W78679  38.867  18.062  11.522
 6365W        W78680   6.092   1.537  11.589
 6366W        W78681  30.585  14.117  11.267
 6367W        W78682  19.540  24.620  13.817
 6368W        W78683  27.213  35.419  11.350
 6369W        W78684  11.798  22.312  11.191
 6370W        W78685  11.760  33.194  13.346
 6371W        W78686  16.095   5.756   2.432
 6372W        W78687  11.159   6.063  11.151
 6373W        W78688  37.105  19.094   3.370
 6374W        W78689   3.443  35.388   2.752
 6375W        W78690  29.165  24.711   1.488
 6376W        W78691   6.755  33.744   4.099
 6377W        W78692  38.833  28.056   3.027
 6378W        W78693  11.108  34.995  10.762
 6379W        W78694  43.763   9.163   2.722
 6380W        W78695  44.774  43.810  14.470
 6381W        W78696  35.076  24.508   4.708
 6382W        W78697   8.620   1.919   1.369
 6383W        W78698  41.015  22.523   1.195
 6384W        W78699   4.767  10.648  14.827
 6385W        W78700  39.550  17.132   0.364
 6386W        W78701  20.527   5.197   4.446
 6387W        W78702  35.634  30.513   4.528
 6388W        W78703  26.017  37.289   0.443
 6389W        W78704  10.371  16.828   4.115
 6390W        W78705  16.649  23.586   1.684
 6391W        W78706  34.841   4.227  12.956
 6392W        W78707  23.946  42.051   4.256
 6393W        W78708   2.562  43.441   2.347
 6394W        W78709   9.445  23.794  10.998
 6395W        W78710   3.588  33.388   5.421
 6396W        W78711  37.905  42.937   3.424
 6397W        W78712   6.428   6.345   3.189
 6398W        W78713  28.625   5.275  11.116
 6399W        W78714  42.440  44.983   4.584
 6400W        W78715  14.584  14.508   3.043
 6401W        W78716   3.380  36.298   2.811
 6402W        W78717  38.006   6.836   2.904
 6403W        W78718  38.150  26.605   1.032
 6404W        W78719   0.181  36.764  10.625
 6405W        W78720  24.500  33.667  12.474
 6406W        W78721  30.905  11.437   3.762
 6407W        W78722   5.630  11.713   3.617
 6408W        W78723  26.095   1.261   2.775
 6409W        W78724  42.263   0.408   4.331
 6410W        W78725  25.670  19.569   3.322
 6411W        W78726   0.642  27.433   0.874
 6412W        W78727   6.755  21.572   2.374
 6413W        W78728  18.526  42.909   1.175
 6414W        W78729  31.994  19.111   2.121
 6415W        W78730  25.760  29.368  14.367
 6416W        W78731  21.724  39.509  14.751
 6417W        W78732   8.142  19.727   2.216
 6418W        W78733   2.883  27.425  13.437
 6419W        W78734  13.015  17.059   4.950
 6420W        W78735  11.747  27.700   4.187
 6421W        W78736   9.612   0.820   4.048
 6422W        W78737  40.523   0.701  14.571
 6423W        W78738   9.765  22.717  14.729
 6424W        W78739  36.567   7.652   0.503
 6425W        W78740  40.513  19.452  12.754
 6426W        W78741  16.688  30.641   4.629
 6427W        W78742   9.241  24.928  11.658
 6428W        W78743  20.311  40.412  14.275
 6429W        W78744  41.915  12.107  12.434
 6430W        W78745  13.870  12.532  12.465
 6431W        W78746  44.522  30.276  13.920
 6432W        W78747  36.063   4.249   1.127
 6433W        W78748   0.477   8.759   3.421
 6434W        W78749  15.269  41.567  12.377
 6435W        W78750  44.869  14.710   4.830
 6436W        W78751  40.417  20.326   1.396
 6437W        W78752  11.639  11.215  11.687
 6438W        W78753  40.870  27.651   4.057
 6439W        W78754  28.847   7.728   2.689
 6440W        W78755  14.775   8.244  12.102
 6441W        W78756  37.179   1.424   3.531
 6442W        W78757  20.543  24.988  10.760
 6443W        W78758  29.614  23.633  13.737
 6444W        W78759  31.349  12.705  11.994
 6445W        W78760  29.009  22.023  11.244
 6446W        W78761  44.398  17.661   1.460
 6447W        W78762   4.656  39.049   3.723
 6448W        W78763   4.736  10.832   3.486
 6449W        W78764  30.895  32.989  10.042
 6450W        W78765  21.967   6.888   3.715
 6451W        W78766  41.985  35.486  10.497
 6452W        W78767  10.650  44.506   3.233
 6453W        W78768  19.062  39.806  11.642
 6454W        W78769   1.768  44.022  11.895
 6455W        W78770  21.643  19.264   3.316
 6456W        W78771  26.104  10.231  13.546
 6457W        W78772  23.235  29.018   3.691
 6458W        W78773  28.371  21.126   2.256
 6459W        W78774   0.176   8.126  13.767
 6460W        W78775  14.109  32.314  11.335
 6461W        W78776  22.195  25.053   0.262
 6462W        W78777  19.709  40.838   4.387
 6463W        W78778  16.989  31.671   0.373
 6464W        W78779  23.803  38.070   3.748
 6465W        W78780  19.730  16.563  14.622
 6466W        W78781  28.080  19.154   0.482
 6467W        W78782   5.915  33.343   3.302
 6468W        W78783  12.240  34.923  13.610
 6469W        W78784  37.306  25.709   0.789
 6470W        W78785  43.355   4.244   3.686
 6471W        W78786  30.646  34.808   3.908
 6472W        W78787  36.821  15.291   2.811
 6473W        W78788   1.885   1.042   1.708
 6474W        W78789  39.759  30.918   4.153
 6475W        W78790  33.831  25.669  14.351
 6476W        W78791  43.184  44.587   3.685
 6477W        W78792  17.625  40.605  11.082
 6478W        W78793  10.758  26.078   3.315
 6479W        W78794   8.847  18.957   0.784
 6480W        W78795  28.030  43.384  12.110
 6481W        W78796  34.469  43.406  14.302
 6482W        W78797  41.834   8.723   1.941
 6483W        W78798   6.565  26.618  10.336
 6484W        W78799   6.349  44.465   0.006
 6485W        W78800  24.838   5.293   4.684
 6486W        W78801  20.247  36.433   3.681
 6487W        W78802  12.289   4.926   3.178
 6488W        W78803   2.145  27.124  12.143
 6489W        W78804  33.345   4.374  13.600
 6490W        W78805   0.966  36.883   3.591
 6491W        W78806  21.875  10.843  13.184
 6492W        W78807   0.458  24.676  11.129
 6493W        W78808  13.292  41.431  11.251
 6494W        W78809  15.854  22.408   0.723
 6495W        W78810  30.197  41.524   3.839
 6496W        W78811   7.910  42.549  10.819
 6497W        W78812  38.993  27.639   2.724
 6498W        W78813  27.744   3.525   1.284
 6499W        W78814  16.237  18.770  13.991
 6500W        W78815  25.677   6.819  13.577
 6501W        W78816  21.006  42.822   1.969
 6502W        W78817   8.598  32.859   0.361
 6503W        W78818  20.660  26.537   2.587
 6504W        W78819  38.518  26.225  13.410
 6505W        W78820  43.063  10.865  12.918
 6506W        W78821  16.582  30.423   1.812
 6507W        W78822  33.691  39.912  13.001
 6508W        W78823  16.191  23.619  11.477
 6509W        W78824  16.686  13.744   2.299
 6510W        W78825  36.789  15.732   0.312
 6511W        W78826  17.330  44.498  11.535
 6512W        W78827  25.494  25.008  13.519
 6513W        W78828  14.783  14.468   0.060
 6514W        W78829  38.362  21.234  10.725
 6515W        W78830  26.785   7.747  13.530
 6516W        W78831   0.516  25.156   2.260
 6517W        W78832  39.535  19.116  11.278
 6518W        W78833  39.439  41.795   1.698
 6519W        W78834  40.349  26.711  12.393
 6520W        W78835  29.567  11.816   3.302
 6521W        W78836  31.631  40.989   3.298
 6522W        W78837  13.154  10.164  11.140
 6523W        W78838  15.564  44.225  11.067
 6524W        W78839  15.558  20.094   0.739
 6525W        W78840  31.565   5.139   3.235
 6526W        W78841  12.161  12.409   3.207
 6527W        W78842   0.345  25.521   4.340
 6528W        W78843  37.853  43.934  12.495
 6529W        W78844  36.918  13.867   0.873
 6530W        W78845  28.048  36.305   0.338
 6531W        W78846  11.225  19.651  12.535
 6532W        W78847  31.114   8.949  10.766
 6533W        W78848  31.613  14.723  12.656
 6534W        W78849  32.949   6.203  13.878
 6535W        W78850   7.017  32.152   1.287
 6536W        W78851   9.948  17.571  14.004
 6537W        W78852   6.389  37.821  11.537
 6538W        W78853  28.713  28.005  11.224
 6539W        W78854  43.568  39.359  10.666
 6540W        W78855  33.071  37.335  12.463
 6541W        W78856  20.827  29.565  14.560
 6542W        W78857  19.477  44.294   1.415
 6543W        W78858  33.492  12.399  13.609
 6544W        W78859  17.519  38.251  13.942
 6545W        W78860  17.329   4.202  11.522
 6546W        W78861  37.772  26.298  10.240
 6547W        W78862  22.739  43.284  10.948
 6548W        W78863  38.959  44.788   2.249
 6549W        W78864  21.162  18.388  13.355
 6550W        W78865  29.557  18.293   4.763
 6551W        W78866  26.990  11.655  11.828
 6552W        W78867  10.876   5.639  11.581
 6553W        W78868  36.564  12.691   0.935
 6554W        W78869   2.327  29.922  12.912
 6555W        W78870   7.792   6.369   3.585
 6556W        W78871  40.102  37.491  11.353
 6557W        W78872  22.142  40.538  14.429
 6558W        W78873  41.644  30.930  13.634
 6559W        W78874  40.584  35.476  13.999
 6560W        W78875  38.608   1.338   0.758
 6561W        W78876  12.768  11.829  12.493
 6562W        W78877  14.255   1.277   1.825
 6563W        W78878   9.039  19.541   5.141
 6564W        W78879  17.621   3.499  10.883
 6565W        W78880  35.818   9.889   0.908
 6566W        W78881   7.298  44.831   3.714
 6567W        W78882  13.165  18.603  12.805
 6568W        W78883   8.851  28.459  13.790
 6569W        W78884  36.418  39.364   4.095
 6570W        W78885  24.239  42.831   3.641
 6571W        W78886  37.502   8.827  14.296
 6572W        W78887  20.012  36.812  12.429
 6573W        W78888  33.313  24.510   4.463
 6574W        W78889  20.701  36.298  10.864
 6575W        W78890  22.937  24.933  14.388
 6576W        W78891   6.445   3.358   1.890
 6577W        W78892   2.936  27.214  10.647
 6578W        W78893   2.287  34.349   1.866
 6579W        W78894  43.701  29.851   0.345
 6580W        W78895  18.934   0.738  13.046
 6581W        W78896  23.117  35.455   2.889
 6582W        W78897   3.356  32.474  11.657
 6583W        W78898  17.984  27.731   5.605
 6584W        W78899  42.410   1.870  10.673
 6585W        W78900  20.738  42.646  11.596
 6586W        W78901  15.739  21.403  14.921
 6587W        W78902  26.516  12.094  14.228
 6588W        W78903  20.994  26.220  10.819
 6589W        W78904  16.726  35.651   4.184
 6590W        W78905  30.500   1.285   4.523
 6591W        W78906  38.412  16.883   3.719
 6592W        W78907  42.063  27.974  10.123
 6593W        W78908  37.988  40.709   4.027
 6594W        W78909   8.640  10.328   5.141
 6595W        W78910   4.362  42.959  11.006
 6596W        W78911  17.014  18.106  11.984
 6597W        W78912  15.764  18.326   2.333
 6598W        W78913  15.156  31.985  11.127
 6599W        W78914  20.467  16.170  12.105
 6600W        W78915  13.257  44.352  14.826
 6601W        W78916   8.545  15.445  12.478
 6602W        W78917  24.188  23.418   2.489
 6603W        W78918  32.409  11.573  13.526
 6604W        W78919  34.888  30.063   3.444
 6605W        W78920  44.391  22.552   4.229
 6606W        W78921   8.726  21.520   1.347
 6607W        W78922  23.273  39.243   0.532
 6608W        W78923   5.883  31.041  14.012
 6609W        W78924  33.851   4.277   3.743
 6610W        W78925  28.842  41.014   2.270
 6611W        W78926  35.394  28.918  14.476
 6612W        W78927  30.220  41.118   1.952
 6613W        W78928  28.631  36.352   0.042
 6614W        W78929  35.331  25.565  14.932
 6615W        W78930  11.591  24.921   1.981
 6616W        W78931  34.639  10.780   4.650
 6617W        W78932   3.095  20.856   1.483
 6618W        W78933  22.975  24.473   0.070
 6619W        W78934   1.232  12.188  13.448
 6620W        W78935   6.484  41.544   3.635
 6621W        W78936  42.249  10.858   1.787
 6622W        W78937  24.431  10.675   0.932
 6623W        W78938   3.139  35.838  14.989
 6624W        W78939  30.432  26.284   2.840
 6625W        W78940  35.583  19.673  13.839
 6626W        W78941  14.117  13.287  12.024
 6627W        W78942  12.185  14.387  14.856
 6628W        W78943  31.885  26.063   0.568
 6629W        W78944  36.952  35.542   0.012
 6630W        W78945  38.323  29.011   3.120
 6631W        W78946   3.246  37.673  12.427
 6632W        W78947  21.962  30.868  11.200
 6633W        W78948  20.900  41.909  11.022
 6634W        W78949   5.403  13.798   0.295
 6635W        W78950  27.417  39.118   3.661
 6636W        W78951   1.864  32.826   2.194
 6637W        W78952  27.560  31.181  11.955
 6638W        W78953   0.421  34.162   2.753
 6639W        W78954  24.734   9.296  12.563
 6640W        W78955   0.292  21.043  10.774
 6641W        W78956  34.177  31.525  12.918
 6642W        W78957  16.093  19.647  14.301
 6643W        W78958  13.657  18.562   2.735
 6644W        W78959  19.044   9.204  12.013
 6645W        W78960   4.194  36.310   0.373
 6646W        W78961  27.677  31.382  11.167
 6647W        W78962  16.690  24.134   2.993
 6648W        W78963  29.958  41.637   2.836
 6649W        W78964  36.566   4.491  13.919
 6650W        W78965  43.032  28.993  13.902
 6651W        W78966  17.648  16.526   1.694
 6652W        W78967  30.816  17.723  11.662
 6653W        W78968  10.017   5.013  11.104
 6654W        W78969  41.752  25.608   2.939
 6655W        W78970  38.344  14.282  14.087
 6656W        W78971  17.265   3.952   2.247
 6657W        W78972  40.996   4.352   1.736
 6658W        W78973   7.088  14.665   1.198
 6659W        W78974  35.087  34.501   2.733
 6660W        W78975  27.872  25.686  12.111
 6661W        W78976  35.106  25.945   2.287
 6662W        W78977  11.162   2.515  11.118
 6663W        W78978  26.919   4.780  14.855
 6664W        W78979  30.158   1.000   4.879
 6665W        W78980  25.202   9.307  13.554
 6666W        W78981   3.154  33.040   0.196
 6667W        W78982  12.244  32.585  14.284
 6668W        W78983   5.316   0.890   4.743
 6669W        W78984  38.689   1.775   2.743
 6670W        W78985   8.677   0.935   0.406
 6671W        W78986  43.387  40.587  13.457
 6672W        W78987  11.133  20.055  14.943
 6673W        W78988  33.141  15.708  12.961
 6674W        W78989  31.187   4.785  11.568
 6675W        W78990  20.579  33.403   4.107
 6676W        W78991  34.371  12.582  14.244
 6677W        W78992  38.616   0.957  13.488
 6678W        W78993  23.819  32.173  10.515
 6679W        W78994   9.866  16.510   1.755
 6680W        W78995  34.524  40.734  11.391
 6681W        W78996  31.991  23.116   4.130
 6682W        W78997  15.186   3.943   3.767
 6683W        W78998  39.818  17.738  12.156
 6684W        W78999  27.668  36.649   0.300
 6685W        W79000   0.042  20.058  11.581
 6686W        W79001  34.008  16.067  13.577
 6687W        W79002   7.500   1.317  11.729
 6688W        W79003  26.569  37.347  14.349
 6689W        W79004  12.134  38.320   2.208
 6690W        W79005  23.707  24.664  11.446
 6691W        W79006   1.273  15.233   3.273
 6692W        W79007  22.654   5.039   3.544
 6693W        W79008   6.842  35.087  14.757
 6694W        W79009  21.605  24.521  13.045
 6695W        W79010  38.536  34.574  11.233
 6696W        W79011  39.077  28.363  12.682
 6697W        W79012  13.643  14.679  12.978
 6698W        W79013   0.196  40.378  14.072
 6699W        W79014   8.784  11.855   4.518
 6700W        W79015  20.651  30.705  11.807
 6701W        W79016   5.140  15.300  12.962
 6702W        W79017  41.351   8.681   4.734
 6703W        W79018  33.064   4.507   0.449
 6704W        W79019  12.250   7.844   4.211
 6705W        W79020  20.200  22.201   0.842
 6706W        W79021  17.919  13.686   0.487
 6707W        W79022  43.249   2.726  13.391
 6708W        W79023   2.970   3.161  11.964
 6709W        W79024  38.263  39.281   0.325
 6710W        W79025  21.429  16.434   2.006
 6711W        W79026  11.130  35.147   0.966
 6712W        W79027  34.521  16.228  12.244
 6713W        W79028  15.139  21.333   4.656
 6714W        W79029  44.001  44.315   3.255
 6715W        W79030   2.990  16.676  11.219
 6716W        W79031  26.529   7.657   2.282
 6717W        W79032   7.499  19.738   3.853
 6718W        W79033  44.265  27.595  12.871
 6719W        W79034  12.378  42.988  13.891
 6720W        W79035  39.547  41.579   4.796
 6721W        W79036  19.736  25.649   2.858
 6722W        W79037  44.696  29.533  13.434
 6723W        W79038  10.933  37.562  11.174
 6724W        W79039  41.508  27.707   0.471
 6725W        W79040  17.775  39.261   4.683
 6726W        W79041  20.964  38.989  13.434
 6727W        W79042  21.776  39.100   3.829
 6728W        W79043   6.488  19.860   3.711
 6729W        W79044  15.075  19.558   0.379
 6730W        W79045  25.743  42.310   1.697
 6731W        W79046  38.364   6.398   1.688
 6732W        W79047   8.880  25.482   2.843
 6733W        W79048  30.173  17.621   4.540
 6734W        W79049  22.218  10.229   4.651
 6735W        W79050  40.591   2.884  12.036
 6736W        W79051   4.340  19.547  14.133
 6737W        W79052  24.621   9.256  10.713
 6738W        W79053  24.250  29.052   4.557
 6739W        W79054   3.744  35.049  14.833
 6740W        W79055   9.164  40.573   4.536
 6741W        W79056  34.587  14.899  10.831
 6742W        W79057  11.222  11.187   0.945
 6743W        W79058  44.193   6.308  11.502
 6744W        W79059  13.401   8.439  13.249
 6745W        W79060  38.240  34.127  14.412
 6746W        W79061   5.781  17.112   4.220
 6747W        W79062  28.355   4.698   4.277
 6748W        W79063   5.179  17.826  14.223
 6749W        W79064  23.968   4.339  14.951
 6750W        W79065  40.425  14.311   3.407
 6751W        W79066   7.691   3.235   2.107
 6752W        W79067  15.442  37.597   2.654
 6753W        W79068  28.870  27.599  12.947
 6754W        W79069   2.815   1.966   3.420
 6755W        W79070  24.662  20.269  11.711
 6756W        W79071  37.734   7.058   1.161
 6757W        W79072   5.985  12.068   2.232
 6758W        W79073   3.241  17.169   2.878
 6759W        W79074  28.298  36.024  12.578
 6760W        W79075   5.741  41.832  14.766
 6761W        W79076   5.574   0.045  11.574
 6762W        W79077   1.027  37.589  14.946
 6763W        W79078  15.740  20.029  12.508
 6764W        W79079  23.800   5.376  12.029
 6765W        W79080  17.061  13.360  14.768
 6766W        W79081  18.004  42.029   2.379
 6767W        W79082  12.887  37.107   0.794
 6768W        W79083  20.108  40.968   3.695
 6769W        W79084   5.136  17.625  11.525
 6770W        W79085  20.612  17.693  13.600
 6771W        W79086  35.105   3.866   2.267
 6772W        W79087  41.708   4.482  12.998
 6773W        W79088   2.437  43.379  13.796
 6774W        W79089  26.699  27.459   2.431
 6775W        W79090  20.213  18.103   0.373
 6776W        W79091  22.487  36.187  14.424
 6777W        W79092  11.098  13.095  12.678
 6778W        W79093  34.982  19.127   3.774
 6779W        W79094  14.020  30.569  14.388
 6780W        W79095  33.979  40.043   2.180
 6781W        W79096  41.238  10.201   0.270
 6782W        W79097  13.678  44.731  11.689
 6783W        W79098  29.474  39.258   0.322
 6784W        W79099  11.752  35.987   1.183
 6785W        W79100  40.629  37.386  12.589
 6786W        W79101   8.771  13.766   2.935
 6787W        W79102  33.576  25.191  12.508
 6788W        W79103  41.343  10.954  12.915
 6789W        W79104  40.034  19.251  11.201
 6790W        W79105   3.189   4.236   1.224
 6791W        W79106  24.898  37.322  12.369
 6792W        W79107  30.908   6.196  12.530
 6793W        W79108  27.453  33.299   0.091
 6794W        W79109  43.357  28.389  14.477
 6795W        W79110  25.706  35.832   4.505
 6796W        W79111  27.861  10.769   2.988
 6797W        W79112   1.279  12.894  10.655
 6798W        W79113  31.079  23.201   2.294
 6799W        W79114  32.134   7.190  14.728
 6800W        W79115  23.195  30.632   2.210
 6801W        W79116  43.747  28.906   2.812
 6802W        W79117   1.258  40.566   1.740
 6803W        W79118  17.963  37.022  11.884
 6804W        W79119   8.674  35.462  11.180
 6805W        W79120  27.629  13.577  14.773
 6806W        W79121  20.336  22.171  14.936
 6807W        W79122  32.174  24.102  14.849
 6808W        W79123   5.798  43.252  12.073
 6809W        W79124   1.897  40.103   4.976
 6810W        W79125  35.657  13.489  14.378
 6811W        W79126  33.592  16.601   2.691
 6812W        W79127  37.456  14.111   0.276
 6813W        W79128  19.864   2.248   2.142
 6814W        W79129   7.881  32.641  12.041
 6815W        W79130  24.034  37.568  10.861
 6816W        W79131  44.827  34.553  11.411
 6817W        W79132   2.771  25.252  14.856
 6818W        W79133  22.535  35.015  13.046
 6819W        W79134  11.953   1.795   2.389
 6820W        W79135  36.493  15.356  13.283
 6821W        W79136  14.115  27.681   3.611
 6822W        W79137  43.126  26.973  10.326
 6823W        W79138  11.569   7.249   3.686
 6824W        W79139  39.316  28.427   2.374
 6825W        W79140  24.481   7.376   4.030
 6826W        W79141   3.230  43.086  11.623
 6827W        W79142  25.168   7.901   5.048
 6828W        W79143  18.155  22.179   3.578
 6829W        W79144  37.489  36.061  13.772
 6830W        W79145  17.330  28.448  10.114
 6831W        W79146  24.221  18.913   4.248
 6832W        W79147  11.264  35.459  11.126
 6833W        W79148  12.199  28.460   2.894
 6834W        W79149  20.193  41.005   1.703
 6835W        W79150  26.238  19.598  13.449
 6836W        W79151   3.770  40.739  14.117
 6837W        W79152  31.687  38.526   4.488
 6838W        W79153  39.004  30.326   0.921
 6839W        W79154  23.632  26.261   2.609
 6840W        W79155  35.835  11.891  14.427
 6841W        W79156  20.500  39.325  14.131
 6842W        W79157  39.507  20.956  11.499
 6843W        W79158  17.725   0.781  11.745
 6844W        W79159  36.861  42.328  10.962
 6845W        W79160  24.086  36.178  14.340
 6846W        W79161  25.468  32.596  11.049
 6847W        W79162  15.240  25.627   0.075
 6848W        W79163  43.271  26.967   0.980
 6849W        W79164  40.040  23.489  12.984
 6850W        W79165   9.309  25.498  14.471
 6851W        W79166  29.720  40.427  14.547
 6852W        W79167   6.098  43.661  12.007
 6853W        W79168  43.157  20.142  11.232
 6854W        W79169   7.747   6.356  12.828
 6855W        W79170  18.248  32.904  11.968
 6856W        W79171  29.812  19.703   1.758
 6857W        W79172  27.458   8.655  11.454
 6858W        W79173  11.593  19.730   2.805
 6859W        W79174   1.256   2.404  14.325
 6860W        W79175  15.855  22.032  11.006
 6861W        W79176  31.066  31.401   3.282
 6862W        W79177  37.624  41.052   0.769
 6863W        W79178  41.399  18.574   3.164
 6864W        W79179  39.329  24.284  11.283
 6865W        W79180   7.569  30.417   5.439
 6866W        W79181  16.471  12.681  13.540
 6867W        W79182   8.280   7.625   3.626
 6868W        W79183  24.577  32.352  11.038
 6869W        W79184  13.121  25.168  11.271
 6870W        W79185  10.872   7.086  11.716
 6871W        W79186  14.834  35.360   4.877
 6872W        W79187   3.649   6.909  11.067
 6873W        W79188  34.644  35.348   4.078
 6874W        W79189   9.850  16.776  13.381
 6875W        W79190  20.312  18.210  11.555
 6876W        W79191  12.839   2.766  14.413
 6877W        W79192  14.693  36.034  11.428
 6878W        W79193  38.276  32.097  14.284
 6879W        W79194   3.872  21.056   4.719
 6880W        W79195   6.860  22.676  13.560
 6881W        W79196  35.408  15.447   1.441
 6882W        W79197  24.099  21.701   0.966
 6883W        W79198  35.826   4.406  12.027
 6884W        W79199  11.922   9.093  10.752
 6885W        W79200  17.078  39.930  12.746
 6886W        W79201   0.430  25.082   4.078
 6887W        W79202   3.306  11.725   1.645
 6888W        W79203  26.214  18.668  10.574
 6889W        W79204   6.809   5.413  12.553
 6890W        W79205  37.088  25.305  13.337
 6891W        W79206  18.005  17.212  13.854
 6892W        W79207  26.031  26.467   3.676
 6893W        W79208  44.550  16.854  13.506
 6894W        W79209  12.923  37.614  14.976
 6895W        W79210   5.865  18.229   4.929
 6896W        W79211  35.648  27.243   3.457
 6897W        W79212   6.871  13.055  10.739
 6898W        W79213  23.235  26.950  12.063
 6899W        W79214  24.888  21.437   4.325
 6900W        W79215  34.405  37.426  10.615
 6901W        W79216  10.855  39.958   1.870
 6902W        W79217   8.376  36.304   3.265
 6903W        W79218  44.479   8.258   1.824
 6904W        W79219  34.649  35.299  10.761
 6905W        W79220   5.455  42.975   2.239
 6906W        W79221  28.433  15.112   2.683
 6907W        W79222  39.974  32.120  11.964
 6908W        W79223  29.909  42.966   4.107
 6909W        W79224  11.075  15.288   3.992
 6910W        W79225   1.872  28.807  12.501
 6911W        W79226  30.691   6.585  13.927
 6912W        W79227  32.961  30.028  10.878
 6913W        W79228  22.998   6.732  14.121
 6914W        W79229  24.406  19.390  11.797
 6915W        W79230  43.520   9.147   2.241
 6916W        W79231  24.729  11.685   2.302
 6917W        W79232  20.044  17.147  11.547
 6918W        W79233  43.190  42.590   4.241
 6919W        W79234  40.399  38.577  13.284
 6920W        W79235  43.427   9.837  14.142
 6921W        W79236  36.429  37.297   0.256
 6922W        W79237  22.785  27.100   0.991
 6923W        W79238   6.839  26.748   3.148
 6924W        W79239  24.001  30.105   3.666
 6925W        W79240  36.325   2.223  10.637
 6926W        W79241   1.659  38.828  11.604
 6927W        W79242   6.274  38.099  14.646
 6928W        W79243   4.483   4.848  12.398
 6929W        W79244  35.424  28.996  12.643
 6930W        W79245  36.406  10.137  14.194
 6931W        W79246   4.782  20.074   3.068
 6932W        W79247   2.468  11.166   2.134
 6933W        W79248  31.050  42.556  12.886
 6934W        W79249  40.985  27.036   1.752
 6935W        W79250   9.755  36.894   1.789
 6936W        W79251  19.596  23.481  14.885
 6937W        W79252   6.710  44.768   0.273
 6938W        W79253   5.425  39.604  14.403
 6939W        W79254   5.627  29.636   1.548
 6940W        W79255  39.394  25.709  10.184
 6941W        W79256  43.600   4.223  13.044
 6942W        W79257  32.597   2.188   5.080
 6943W        W79258  44.689   5.701   2.127
 6944W        W79259   2.218  27.630  10.524
 6945W        W79260   6.174  17.153  10.639
 6946W        W79261   0.035  13.336  11.427
 6947W        W79262   3.765   1.290   1.384
 6948W        W79263  23.137  25.945  14.370
 6949W        W79264  43.510  36.091   9.927
 6950W        W79265  19.173   5.230   4.177
 6951W        W79266  42.864   2.168   1.055
 6952W        W79267  27.096  14.279  10.514
 6953W        W79268  13.332  16.288  12.128
 6954W        W79269  36.079   2.314  13.924
 6955W        W79270   0.931  20.745   2.930
 6956W        W79271   1.719  34.419   2.649
 6957W        W79272  10.484  26.028   1.505
 6958W        W79273  32.689  24.245  14.944
 6959W        W79274  39.692   3.975   1.860
 6960W        W79275  38.058  30.886   1.206
 6961W        W79276  13.223  28.402  12.357
 6962W        W79277  44.724  39.177  11.720
 6963W        W79278  35.627   2.674   3.296
 6964W        W79279   5.973  30.099   2.152
 6965W        W79280  10.036   7.123   2.484
 6966W        W79281   2.774  42.682   3.915
 6967W        W79282  32.482  30.685  14.940
 6968W        W79283  24.874  17.064  11.090
 6969W        W79284   3.402  37.519   4.236
 6970W        W79285  26.024   6.163  11.468
 6971W        W79286   7.826  17.512  12.482
 6972W        W79287   1.824  37.017   4.176
 6973W        W79288  15.416  11.251  12.902
 6974W        W79289   3.407  24.078  13.652
 6975W        W79290  12.890  36.119  10.711
 6976W        W79291  44.031   4.815  10.659
 6977W        W79292  17.047   4.744  11.528
 6978W        W79293  22.155  39.305  13.580
 6979W        W79294  15.189  15.814   4.926
 6980W        W79295  41.506   9.407  11.313
 6981W        W79296  26.167  38.076  10.577
 6982W        W79297  16.712   0.960   2.199
 6983W        W79298   1.827  41.948  13.074
 6984W        W79299  24.140  39.469  12.581
 6985W        W79300   5.214  22.067   2.887
 6986W        W79301  25.574  33.590   2.707
 6987W        W79302  23.679  13.616   2.811
 6988W        W79303  13.639  14.318  11.531
 6989W        W79304   4.943  41.638   0.215
 6990W        W79305  27.089  10.442   3.185
 6991W        W79306   1.435  29.015  11.245
 6992W        W79307  30.120  37.800  11.087
 6993W        W79308  14.287  18.763  13.033
 6994W        W79309  28.006  43.556  13.857
 6995W        W79310  42.316   0.917  10.473
 6996W        W79311   7.944  42.480   2.174
 6997W        W79312   3.303  36.451   0.237
 6998W        W79313  41.504  24.646  14.429
 6999W        W79314  38.470  31.182   1.159
 7000W        W79315  37.901  28.003  10.596
 7001W        W79316  24.667  37.382  13.025
 7002W        W79317  26.178  23.105  11.582
 7003W        W79318  32.380  39.427  11.527
 7004W        W79319   5.469   7.945   1.717
 7005W        W79320  37.288  20.499   3.109
 7006W        W79321  43.478  39.033   3.686
 7007W        W79322   2.857  23.497   3.705
 7008W        W79323  21.144   3.053  10.811
 7009W        W79324  24.325   5.220   2.677
 7010W        W79325  33.345   4.173  14.245
 7011W        W79326  32.705   4.670   1.526
 7012W        W79327   9.071  22.806  13.347
 7013W        W79328  36.459  26.997   4.050
 7014W        W79329   1.567  37.375   3.598
 7015W        W79330  27.256  12.263   3.205
 7016W        W79331  32.398   6.819  14.347
 7017W        W79332  24.686  12.408  14.933
 7018W        W79333  26.195  34.460  12.066
 7019W        W79334   8.218   0.715  10.216
 7020W        W79335  28.055  29.949  13.768
 7021W        W79336  26.771  31.763  11.050
 7022W        W79337  15.196  44.245  14.860
 7023W        W79338  25.969  32.007   9.840
 7024W        W79339   0.461  21.721  13.335
 7025W        W79340   7.515  20.998  10.662
 7026W        W79341  18.586  34.834  14.480
 7027W        W79342  31.896  38.365  11.617
 7028W        W79343  14.389   1.860   3.606
 7029W        W79344   2.387  29.004  14.763
 7030W        W79345  41.008   2.678  12.931
 7031W        W79346   4.874  43.856   1.607
 7032W        W79347  40.887  41.935   2.175
 7033W        W79348  28.457  43.584   2.698
 7034W        W79349  20.419  43.378  13.495
 7035W        W79350   2.234  33.025  14.911
 7036W        W79351   9.175  40.878  12.357
 7037W        W79352  21.221  28.894   3.269
 7038W        W79353  29.567  24.663   3.153
 7039W        W79354  39.750   4.653   1.612
 7040W        W79355  20.362  25.228  10.311
 7041W        W79356  13.376   9.257   4.396
 7042W        W79357  32.351   7.602  13.315
 7043W        W79358   2.446  20.807   0.378
 7044W        W79359  21.468  18.145   2.351
 7045W        W79360  20.563  14.621  13.571
 7046W        W79361  21.017   5.821  14.417
 7047W        W79362  34.135  39.919  12.057
 7048W        W79363  14.221  35.972  12.057
 7049W        W79364  34.809  43.092   2.997
 7050W        W79365  12.702  15.678  11.230
 7051W        W79366  16.298  39.599   9.842
 7052W        W79367  35.403  30.605  11.905
 7053W        W79368  30.411  40.800   2.440
 7054W        W79369  15.856  14.136   4.973
 7055W        W79370  30.591   6.369   4.895
 7056W        W79371  34.113  16.854   3.968
 7057W        W79372  12.335  30.459   4.080
 7058W        W79373  24.477   2.463   0.855
 7059W        W79374  38.937  40.561  13.015
 7060W        W79375  22.215  21.842   5.084
 7061W        W79376  12.467  23.661   2.814
 7062W        W79377   5.243  41.913  14.356
 7063W        W79378  38.321   8.768   2.244
 7064W        W79379   7.507  41.198   4.079
 7065W        W79380   1.682  20.257  13.421
 7066W        W79381   2.310  33.675   2.269
 7067W        W79382  32.428  42.327  14.408
 7068W        W79383  44.243  38.006   1.176
 7069W        W79384  18.285  43.265  12.398
 7070W        W79385  40.164  42.375   0.718
 7071W        W79386  38.547  26.608   4.315
 7072W        W79387   9.081  22.596   3.322
 7073W        W79388  36.489  10.778  14.776
 7074W        W79389  21.926   8.943   0.218
 7075W        W79390  34.766  44.317  10.237
 7076W        W79391  15.145  14.725  11.575
 7077W        W79392  29.746  12.217   1.878
 7078W        W79393  10.447   5.501  14.988
 7079W        W79394   6.144  33.515   2.083
 7080W        W79395  26.949  38.986   3.822
 7081W        W79396  18.956  39.064   4.136
 7082W        W79397  14.451  23.005  12.848
 7083W        W79398  31.439  30.876  13.845
 7084W        W79399  23.225  32.849  12.061
 7085W        W79400   8.324   1.408  10.572
 7086W        W79401  17.231  11.137   3.279
 7087W        W79402  21.043   1.286   1.164
 7088W        W79403  25.723  27.292  12.934
 7089W        W79404  13.787  11.161  10.681
 7090W        W79405   4.410   0.771   0.880
 7091W        W79406  31.332  42.756  10.252
 7092W        W79407  29.743   2.485   2.788
 7093W        W79408  23.719  11.702   2.375
 7094W        W79409  38.305  30.071   1.631
 7095W        W79410  27.300  27.435  14.563
 7096W        W79411  22.725   4.244   1.328
 7097W        W79412   1.596  10.900   0.683
 7098W        W79413  15.252  21.010  14.040
 7099W        W79414  26.728   2.248   3.306
 7100W        W79415  38.595  44.894  13.073
 7101W        W79416  42.779  18.801   4.167
 7102W        W79417  30.187  33.297   1.965
 7103W        W79418   8.577  33.674  11.168
 7104W        W79419  10.544  43.831   4.731
 7105W        W79420   9.429  30.864  12.131
 7106W        W79421   5.451  43.581  10.436
 7107W        W79422  32.167  22.452   4.635
 7108W        W79423  20.786  21.365   4.365
 7109W        W79424   7.809  20.083   2.966
 7110W        W79425  43.719  33.101  11.338
 7111W        W79426  17.822  13.133  11.300
 7112W        W79427  40.239  39.002  14.407
 7113W        W79428  27.205  15.854   4.100
 7114W        W79429  24.278  38.784  13.324
 7115W        W79430  34.632  11.691  13.922
 7116W        W79431  26.393  20.516  11.199
 7117W        W79432  28.903  10.147   3.590
 7118W        W79433  34.241  11.840  11.111
 7119W        W79434  15.817   0.931   2.178
 7120W        W79435  18.534   8.675  11.323
 7121W        W79436  37.456  36.455   4.968
 7122W        W79437  41.779   4.299   2.229
 7123W        W79438  41.448  31.717  12.389
 7124W        W79439  36.405   7.577  11.358
 7125W        W79440  41.693   1.526   1.307
 7126W        W79441  29.683  29.667  10.841
 7127W        W79442  10.431  27.730  12.390
 7128W        W79443  23.378   8.793   0.774
 7129W        W79444  15.767  24.343  14.503
 7130W        W79445  32.135  21.982   1.720
 7131W        W79446  12.105  34.267  10.955
 7132W        W79447  40.164   9.248  13.088
 7133W        W79448  31.966  36.651   4.698
 7134W        W79449  16.370  15.690  14.448
 7135W        W79450  20.746  25.168  13.431
 7136W        W79451  23.979  30.865   2.419
 7137W        W79452  27.175  27.437   3.685
 7138W        W79453  14.610  43.543   0.805
 7139W        W79454  32.181  40.960   4.680
 7140W        W79455  18.105  32.380  12.851
 7141W        W79456  17.551  23.105   2.203
 7142W        W79457  39.892   8.588   0.709
 7143W        W79458  21.602   8.670  12.491
 7144W        W79459  37.308  29.756  13.012
 7145W        W79460  38.461   0.271  10.635
 7146W        W79461  17.732   8.351   9.849
 7147W        W79462  41.306  23.239   4.200
 7148W        W79463   0.347   7.454   3.289
 7149W        W79464   8.852  29.498  10.447
 7150W        W79465  31.022  29.173  10.584
 7151W        W79466  27.726  36.390   3.606
 7152W        W79467  33.584  29.761  11.014
 7153W        W79468  19.449  37.470  14.302
 7154W        W79469  19.979  41.388  13.452
 7155W        W79470  27.482  38.336  13.457
 7156W        W79471   1.937  18.858  13.326
 7157W        W79472  20.030  24.711   2.750
 7158W        W79473  36.168  18.188   3.140
 7159W        W79474  32.071  25.626  14.016
 7160W        W79475  26.709  31.649   0.799
 7161W        W79476  13.759  38.264   4.142
 7162W        W79477  28.553  19.406  14.853
 7163W        W79478  10.014  20.135   1.225
 7164W        W79479  18.603  43.449   4.722
 7165W        W79480  14.305  40.372  10.560
 7166W        W79481  20.160  38.068  10.751
 7167W        W79482  23.835  14.128   2.823
 7168W        W79483   3.755  18.500  14.804
 7169W        W79484  39.853  40.844  14.751
 7170W        W79485   9.895  13.367  11.724
 7171W        W79486  43.579  25.200   3.571
 7172W        W79487  38.141  10.831   3.506
 7173W        W79488  34.330   6.914   3.077
 7174W        W79489  41.386  23.378  11.695
 7175W        W79490   4.061  24.432  14.420
 7176W        W79491  29.984  34.370   4.536
 7177W        W79492  24.888   5.907   0.251
 7178W        W79493  37.928  28.521   4.617
 7179W        W79494  40.872  32.168   3.070
 7180W        W79495  20.159  27.875  14.274
 7181W        W79496  41.141  30.119  13.971
 7182W        W79497  23.385   0.428  11.387
 7183W        W79498  17.534  22.948   0.047
 7184W        W79499  18.304  42.868   1.671
 7185W        W79500  22.186   9.597  13.963
 7186W        W79501   0.924  25.724  11.973
 7187W        W79502  19.645  16.304  11.555
 7188W        W79503  26.510  35.486  11.074
 7189W        W79504  20.040  10.430   4.766
 7190W        W79505  12.292  18.057  12.224
 7191W        W79506   2.037  43.112   4.020
 7192W        W79507  44.103   4.180  13.024
 7193W        W79508  12.193  39.260   0.671
 7194W        W79509   6.695  16.346   0.413
 7195W        W79510  44.833  29.235  10.295
 7196W        W79511  44.859   0.732   2.344
 7197W        W79512   4.863  28.073   2.394
 7198W        W79513  10.658  40.320   3.704
 7199W        W79514  24.003   1.520  14.921
 7200W        W79515   8.874   4.366  13.632
 7201W        W79516   8.683  34.556   2.237
 7202W        W79517  42.929  37.167   3.221
 7203W        W79518  35.641   8.978   0.733
 7204W        W79519  38.502  20.790   3.674
 7205W        W79520  15.400  22.911  14.483
 7206W        W79521  14.252  31.229   1.189
 7207W        W79522   1.419  44.690   3.929
 7208W        W79523  42.722  43.337  11.953
 7209W        W79524  37.620   0.264   0.767
 7210W        W79525  32.318   3.861  12.528
 7211W        W79526   3.669   7.636  11.508
 7212W        W79527  14.729  33.121   3.128
 7213W        W79528  11.328  24.278  13.813
 7214W        W79529  31.882  19.175   2.627
 7215W        W79530  15.966   1.827  12.007
 7216W        W79531  39.134  14.256  13.461
 7217W        W79532  32.167  23.828  14.377
 7218W        W79533  28.975   3.383  12.538
 7219W        W79534   3.995  19.172   1.199
 7220W        W79535  27.107  13.234   3.882
 7221W        W79536  18.119  42.017  13.013
 7222W        W79537   8.703  19.353  13.920
 7223W        W79538  42.039  18.532  12.933
 7224W        W79539   6.898  16.785  11.553
 7225W        W79540  21.197  33.742  14.406
 7226W        W79541  36.629  41.923   0.982
 7227W        W79542  32.262  39.367  10.762
 7228W        W79543  21.317  31.551   2.805
 7229W        W79544  42.871  40.564  14.454
 7230W        W79545  11.067  10.395  10.720
 7231W        W79546   2.857  29.503   0.389
 7232W        W79547  38.804   3.992   3.393
 7233W        W79548  38.634  12.643   0.482
 7234W        W79549   3.998  27.181  14.052
 7235W        W79550  42.892  17.482  13.540
 7236W        W79551   9.798  37.464  11.282
 7237W        W79552   6.743  31.583  11.255
 7238W        W79553  24.720  40.259   1.276
 7239W        W79554  15.680  25.071  12.853
 7240W        W79555  17.195  10.139  14.937
 7241W        W79556  36.183  27.418  13.926
 7242W        W79557  37.447  44.998  10.605
 7243W        W79558  29.655  12.612   0.589
 7244W        W79559  34.581   8.792   0.593
 7245W        W79560  42.353  14.821  12.488
 7246W        W79561  26.702  38.788  12.572
 7247W        W79562  18.285  17.620   2.015
 7248W        W79563  28.703  34.864  13.367
 7249W        W79564  35.594   1.213   0.823
 7250W        W79565  15.267  36.466  10.778
 7251W        W79566  28.660  40.119   4.186
 7252W        W79567  26.477  39.259   2.231
 7253W        W79568  28.030   4.384  10.124
 7254W        W79569  32.218  42.532  11.068
 7255W        W79570  43.893   3.320  13.456
 7256W        W79571  14.266  13.020   5.059
 7257W        W79572  33.427  25.241   1.712
 7258W        W79573   9.173  35.009   2.668
 7259W        W79574  36.103   6.914   0.209
 7260W        W79575  38.929  42.802   5.070
 7261W        W79576  25.445  19.866   2.945
 7262W        W79577  16.787  22.264   4.585
 7263W        W79578   7.522  44.909  12.324
 7264W        W79579  32.597   0.938   0.103
 7265W        W79580  39.367  22.011   4.599
 7266W        W79581  42.557  41.760  13.484
 7267W        W79582  16.569  44.483   2.720
 7268W        W79583  23.062   8.355   4.218
 7269W        W79584  26.608   6.943   1.252
 7270W        W79585  43.249  35.519  11.489
 7271W        W79586   1.309  10.739  11.092
 7272W        W79587  24.268  21.746   5.084
 7273W        W79588  21.468   5.046   1.710
 7274W        W79589  21.926  34.474   0.368
 7275W        W79590  39.110   3.704  13.138
 7276W        W79591  26.506  35.676   3.297
 7277W        W79592  29.159  31.191  12.409
 7278W        W79593  28.409  35.460   3.318
 7279W        W79594  34.168  27.571  11.119
 7280W        W79595   6.334  33.968   2.718
 7281W        W79596  17.087  30.628  13.259
 7282W        W79597  36.269   3.958  12.918
 7283W        W79598  11.874  23.967   4.615
 7284W        W79599  10.735  43.379   4.947
 7285W        W79600  44.697  15.778   0.540
 7286W        W79601  11.770   2.384   3.901
 7287W        W79602  35.124   9.642   3.225
 7288W        W79603   6.342   5.728  11.318
 7289W        W79604   1.543   6.755  12.903
 7290W        W79605  24.156  25.257  12.998
 7291W        W79606  13.167  42.963   0.569
 7292W        W79607  14.236  14.862  11.892
 7293W        W79608  40.397  41.468   3.105
 7294W        W79609  25.060  40.779   0.507
 7295W        W79610  29.491  43.705   3.671
 7296W        W79611  19.736   3.937   2.327
 7297W        W79612  41.872  23.631  14.851
 7298W        W79613  17.214  12.780   2.359
 7299W        W79614   8.820  35.817   0.325
 7300W        W79615  22.294  11.857   4.953
 7301W        W79616  27.060  23.902   2.994
 7302W        W79617  40.463  32.089  14.958
 7303W        W79618  21.567  20.674  12.393
 7304W        W79619  15.348  40.688   4.526
 7305W        W79620  39.027   6.145   0.860
 7306W        W79621  44.297   0.176  12.146
 7307W        W79622  20.715  39.672  12.413
 7308W        W79623   0.272  16.464   3.630
 7309W        W79624   6.366   9.137  11.151
 7310W        W79625   9.800  11.534   1.389
 7311W        W79626  39.684  43.410   4.027
 7312W        W79627  17.511  41.249   1.062
 7313W        W79628  27.137  25.285   4.829
 7314W        W79629  41.087   8.698   0.035
 7315W        W79630  15.797  26.038  12.537
 7316W        W79631   3.700  27.880  13.364
 7317W        W79632   0.301   1.571   3.269
 7318W        W79633  41.701  25.547   0.592
 7319W        W79634  23.055  11.682   0.321
 7320W        W79635  33.089  36.955  12.835
 7321W        W79636   3.459  30.539   3.640
 7322W        W79637  20.749  36.434   0.382
 7323W        W79638  44.253   7.395   4.534
 7324W        W79639  24.491  40.083   2.889
 7325W        W79640  20.763  34.224   4.600
 7326W        W79641  17.431  23.189  11.675
 7327W        W79642   5.975   1.775   2.277
 7328W        W79643  21.486   0.518   2.376
 7329W        W79644   0.354  22.781   2.105
 7330W        W79645  16.309  14.620  11.121
 7331W        W79646  42.779   8.465   2.605
 7332W        W79647  36.118  34.642   0.842
 7333W        W79648  33.872  33.264  10.633
 7334W        W79649   0.236  27.827   2.192
 7335W        W79650   7.292  13.947  11.565
 7336W        W79651  43.470  31.922   2.072
 7337W        W79652   1.715  12.857   3.128
 7338W        W79653  25.286   1.292  13.335
 7339W        W79654   6.415  15.223  12.782
 7340W        W79655  23.740  22.502  12.767
 7341W        W79656  39.580  44.349  11.033
 7342W        W79657  41.608  21.055  11.183
 7343W        W79658  24.688  29.643   2.660
 7344W        W79659  27.237  17.983   0.863
 7345W        W79660  10.348   0.884   4.585
 7346W        W79661  23.180  34.201   4.098
 7347W        W79662  16.085  18.428  11.117
 7348W        W79663  12.862  31.536  11.428
 7349W        W79664  24.446  28.181  14.379
 7350W        W79665  19.603  38.053  14.461
 7351W        W79666  30.904  18.149  11.093
 7352W        W79667  20.966  26.014   0.010
 7353W        W79668  30.657  28.129   1.848
 7354W        W79669  12.135  31.351  14.805
 7355W        W79670   8.153  16.530  11.415
 7356W        W79671   2.794   9.444   3.811
 7357W        W79672  36.117   5.107  14.238
 7358W        W79673  31.010  17.157   0.360
 7359W        W79674  31.009  23.193  12.839
 7360W        W79675   2.445  20.726   2.812
 7361W        W79676   8.445  23.078  14.549
 7362W        W79677  23.484  31.539   1.678
 7363W        W79678  28.987  34.251  12.332
 7364W        W79679   6.108   1.411  12.988
 7365W        W79680  23.708  28.916   1.654
 7366W        W79681  32.348  31.734   0.493
 7367W        W79682  39.860  30.421   4.116
 7368W        W79683   5.333  23.591   0.903
 7369W        W79684  42.279  26.492   1.639
 7370W        W79685   8.110  28.079   2.975
 7371W        W79686  41.218  29.764   2.752
 7372W        W79687  28.175  16.321   2.749
 7373W        W79688   3.648  21.614   0.413
 7374W        W79689  10.831  21.843  14.685
 7375W        W79690   9.357  37.825  11.968
 7376W        W79691  28.549  37.968   4.283
 7377W        W79692   1.520   9.380  13.156
 7378W        W79693  26.032  12.615  11.226
 7379W        W79694  21.751  10.158   1.288
 7380W        W79695  34.635  43.375   1.735
 7381W        W79696  44.260   9.886   5.441
 7382W        W79697  22.487  23.010   1.892
 7383W        W79698  32.884  21.957   1.238
 7384W        W79699  30.590   2.236  10.710
 7385W        W79700  10.117  44.002  14.810
 7386W        W79701  40.793  38.024   1.501
 7387W        W79702  28.680  14.068  12.413
 7388W        W79703   5.891   2.599  10.858
 7389W        W79704  19.053  41.288  14.057
 7390W        W79705  20.879  25.194   4.047
 7391W        W79706  32.286  26.372  12.906
 7392W        W79707   7.412  16.126  11.459
 7393W        W79708  10.466  38.491   2.190
 7394W        W79709  30.578   4.766  13.921
 7395W        W79710  20.953   1.940  12.499
 7396W        W79711   5.865  23.902  11.892
 7397W        W79712  16.767  16.728  14.047
 7398W        W79713   8.703  18.325   4.527
 7399W        W79714  16.285  42.148  12.915
 7400W        W79715   4.325  40.251   2.487
 7401W        W79716  37.567   9.384   0.931
 7402W        W79717  38.949   5.765   1.847
 7403W        W79718   2.321   2.238  10.453
 7404W        W79719  17.644  38.944   1.127
 7405W        W79720  20.835  20.820   0.790
 7406W        W79721   0.895  29.487  11.121
 7407W        W79722  14.845  12.764   4.615
 7408W        W79723  42.565  43.245   2.181
 7409W        W79724  14.101  19.612  10.881
 7410W        W79725  13.871  31.576  11.171
 7411W        W79726  27.153  42.846   4.558
 7412W        W79727   1.065   2.225   1.657
 7413W        W79728  39.910  36.877  10.946
 7414W        W79729  24.902  32.836   0.203
 7415W        W79730   4.683   7.236   1.693
 7416W        W79731  32.149   2.490  12.409
 7417W        W79732  43.645  13.752   0.054
 7418W        W79733  17.363  44.983   3.891
 7419W        W79734  22.260  40.905   3.257
 7420W        W79735  30.416  18.616   3.260
 7421W        W79736  28.266  19.722  14.433
 7422W        W79737  36.403  19.986   0.439
 7423W        W79738  15.584  24.852   0.596
 7424W        W79739  26.705  43.014  10.645
 7425W        W79740  25.115   2.652   1.607
 7426W        W79741  15.669  40.926   1.906
 7427W        W79742  14.712  13.058  10.964
 7428W        W79743  40.378   8.172  14.897
 7429W        W79744  26.690  23.634   3.261
 7430W        W79745   1.280  11.290   0.879
 7431W        W79746  10.788  40.904  11.958
 7432W        W79747  14.804  43.390  12.390
 7433W        W79748  44.951   2.441   2.746
 7434W        W79749   5.839  39.598   1.282
 7435W        W79750   9.187  12.124   0.305
 7436W        W79751  10.842  34.731  11.902
 7437W        W79752  14.671  24.232   0.309
 7438W        W79753   1.366  42.087  12.132
 7439W        W79754  19.702  38.970   2.142
 7440W        W79755  13.898  34.972  10.940
 7441W        W79756  18.366  25.520   1.409
 7442W        W79757   9.338   6.904  11.265
 7443W        W79758  22.191  44.894  10.929
 7444W        W79759  27.729  32.080   2.822
 7445W        W79760  13.212  38.422   0.568
 7446W        W79761  37.347  19.483  13.464
 7447W        W79762  41.092  24.917   1.321
 7448W        W79763  14.489  44.350   4.889
 7449W        W79764   8.861  36.645  13.594
 7450W        W79765  28.609  21.729   1.308
 7451W        W79766   6.866   4.946  10.845
 7452W        W79767  18.737   8.196  13.753
 7453W        W79768  17.123   1.385  13.519
 7454W        W79769  20.595  14.993  12.256
 7455W        W79770  18.463  34.536   4.512
 7456W        W79771  16.782  37.509   3.164
 7457W        W79772  42.065  27.935  11.005
 7458W        W79773  37.050  42.452   3.644
 7459W        W79774  38.089   4.048  12.717
 7460W        W79775  32.447  37.118   4.108
 7461W        W79776  20.699   3.372  11.966
 7462W        W79777  21.927  23.397  11.655
 7463W        W79778   9.056  20.164   4.831
 7464W        W79779  21.035  32.465   4.323
 7465W        W79780  21.123  22.214   0.290
 7466W        W79781  17.072  44.329  14.271
 7467W        W79782  20.642  25.490  10.671
 7468W        W79783  18.694  38.607   5.461
 7469W        W79784  41.517  27.596   2.294
 7470W        W79785  30.948  38.299   3.815
 7471W        W79786  14.596  42.466   3.014
 7472W        W79787   1.334   4.679  14.675
 7473W        W79788  21.042   0.390   3.230
 7474W        W79789  15.199  43.786   4.509
 7475W        W79790  28.183   8.415  13.256
 7476W        W79791  11.815   0.098   4.123
 7477W        W79792   1.188  35.267   5.039
 7478W        W79793   8.137  26.625  14.132
 7479W        W79794  39.462   3.978   0.810
 7480W        W79795   6.965  38.483  10.683
 7481W        W79796  33.318  42.409  13.393
 7482W        W79797  35.523  11.418  13.958
 7483W        W79798  43.481   2.448   3.299
 7484W        W79799  38.058  18.121   0.249
 7485W        W79800  14.752  32.023   5.051
 7486W        W79801  23.944  35.466  12.935
 7487W        W79802  24.185  22.610   5.129
 7488W        W79803  19.974  36.847  14.194
 7489W        W79804  40.125  21.135   0.452
 7490W        W79805  37.031  22.151   1.390
 7491W        W79806   9.417  19.846   1.903
 7492W        W79807   8.089  31.558  10.687
 7493W        W79808  24.360  22.076   3.810
 7494W        W79809  20.784  38.377   3.299
 7495W        W79810  19.792  20.736  14.866
 7496W        W79811  19.241  37.375   1.680
 7497W        W79812   9.858  10.911   0.023
 7498W        W79813  18.750  26.645   5.016
 7499W        W79814  44.749  32.923  12.006
 7500W        W79815  41.231  19.927   1.220
 7501W        W79816  20.762  33.422  11.974
 7502W        W79817  15.703  28.784   0.538
 7503W        W79818  22.177  22.695   2.331
 7504W        W79819  38.307   1.439  12.022
 7505W        W79820  26.066   4.189   0.210
 7506W        W79821  11.449  27.876  14.782
 7507W        W79822  16.572  41.252   4.969
 7508W        W79823   4.259  17.201   3.149
 7509W        W79824  41.575   2.882   4.610
 7510W        W79825   1.900  43.820   3.760
 7511W        W79826  26.419  12.257  11.976
 7512W        W79827  28.421   2.565   4.716
 7513W        W79828  20.013   9.409   3.682
 7514W        W79829   9.146  43.764   3.317
 7515W        W79830  25.542  36.822  12.590
 7516W        W79831  32.061  24.572   3.661
 7517W        W79832  38.688   7.207   3.427
 7518W        W79833  39.069  34.281  12.864
 7519W        W79834   1.366   1.034   4.593
 7520W        W79835  21.782  25.799  11.999
 7521W        W79836   3.054  16.544  11.735
 7522W        W79837  10.379  13.906   0.413
 7523W        W79838  15.594  23.421   0.906
 7524W        W79839  11.265  34.946   3.601
 7525W        W79840  41.410  15.681   0.009
 7526W        W79841  44.494   1.730   1.652
 7527W        W79842   8.829  12.386  12.461
 7528W        W79843  41.955  38.330  10.784
 7529W        W79844  20.140  32.602  11.981
 7530W        W79845  44.821  20.792  10.905
 7531W        W79846  16.873  19.311   4.106
 7532W        W79847  43.292  12.215  13.305
 7533W        W79848  20.576  36.492  13.510
 7534W        W79849  12.798   5.724  11.408
 7535W        W79850   5.971  20.624   2.758
 7536W        W79851  32.399   0.343   1.771
 7537W        W79852  42.866  18.973   2.939
 7538W        W79853   5.886   7.190  14.824
 7539W        W79854   1.162  28.968  14.511
 7540W        W79855  42.422  13.060  14.870
 7541W        W79856  34.541  28.910   1.451
 7542W        W79857   3.471  20.074  11.599
 7543W        W79858  36.429   5.886   4.227
 7544W        W79859  17.262  11.747   1.688
 7545W        W79860   2.674   4.582  14.484
 7546W        W79861  33.515  18.103   1.471
 7547W        W79862  27.389  35.160  12.066
 7548W        W79863  28.119  31.384  12.873
 7549W        W79864  23.898  29.866   2.290
 7550W        W79865   2.693  12.229  12.575
 7551W        W79866  12.222  31.953  13.411
 7552W        W79867  43.062  22.937  13.847
 7553W        W79868  21.644  37.809   3.359
 7554W        W79869  19.525  16.741  10.591
 7555W        W79870  25.613  26.191   2.734
 7556W        W79871   3.225  42.578   2.207
 7557W        W79872   9.355  15.308  11.933
 7558W        W79873  27.301  44.475  12.240
 7559W        W79874  25.536   1.937   2.601
 7560W        W79875   3.772   2.146  11.976
 7561W        W79876  24.012  33.457  12.438
 7562W        W79877  34.931  42.016  11.034
 7563W        W79878  12.597  39.971   4.716
 7564W        W79879  25.332  39.345  11.421
 7565W        W79880  11.055  40.353  12.072
 7566W        W79881  43.830  21.195   4.748
 7567W        W79882   5.337  26.163   2.170
 7568W        W79883  29.465  38.979  14.832
 7569W        W79884  16.310  21.592   3.576
 7570W        W79885  16.816   5.241   3.657
 7571W        W79886  30.237  10.052  14.365
 7572W        W79887   8.162  32.426   2.106
 7573W        W79888  44.393  38.766  13.095
 7574W        W79889  36.830  24.639   3.059
 7575W        W79890   8.804  32.586   3.657
 7576W        W79891  42.854  40.372  14.946
 7577W        W79892   3.626   7.270   1.911
 7578W        W79893   8.686  16.131  10.321
 7579W        W79894  27.051  20.642   3.987
 7580W        W79895  13.059  36.632   0.978
 7581W        W79896  23.002  28.553   3.661
 7582W        W79897  39.237   2.859  14.063
 7583W        W79898  25.923   2.242  10.393
 7584W        W79899  16.028  13.112  11.238
 7585W        W79900  12.272  23.247   1.289
 7586W        W79901   3.375  37.280   1.231
 7587W        W79902  25.067  27.070   4.779
 7588W        W79903  12.542  39.497   2.437
 7589W        W79904   2.383  14.384  13.925
 7590W        W79905   2.272  26.823   5.150
 7591W        W79906  22.105  42.051   4.194
 7592W        W79907  32.988  38.272   1.684
 7593W        W79908  14.085  42.563   3.268
 7594W        W79909  34.839  37.659  11.499
 7595W        W79910  16.601  39.256   2.690
 7596W        W79911   0.881  27.691  12.452
 7597W        W79912   8.869  11.223   2.795
 7598W        W79913  27.238  26.627   3.311
 7599W        W79914  33.454  23.763  11.589
 7600W        W79915  41.766  42.845  13.392
 7601W        W79916  34.976  33.192  12.284
 7602W        W79917  35.334   3.293  13.278
 7603W        W79918  33.738   7.183  11.528
 7604W        W79919  15.095  29.672  12.984
 7605W        W79920  44.981  43.339  14.505
 7606W        W79921  15.617  18.359  11.944
 7607W        W79922  27.404  34.550   0.744
 7608W        W79923  12.090  23.600   3.583
 7609W        W79924  20.326  13.760  11.571
 7610W        W79925  28.225  37.571  12.028
 7611W        W79926  18.673  30.951   5.064
 7612W        W79927  31.121  39.883  13.403
 7613W        W79928  19.599   9.486  12.424
 7614W        W79929  12.742   5.833   1.290
 7615W        W79930  42.420   7.835  14.161
 7616W        W79931  13.092   6.152  13.965
 7617W        W79932  14.785  27.128  13.960
 7618W        W79933  22.059  36.552   1.810
 7619W        W79934  19.358   2.163   2.209
 7620W        W79935  38.011  26.248   1.400
 7621W        W79936  18.555  43.325   4.201
 7622W        W79937  23.030  32.638   2.243
 7623W        W79938  43.924  15.861   4.133
 7624W        W79939  23.239  32.945   4.702
 7625W        W79940  30.364   1.034  11.177
 7626W        W79941  10.742  25.344   4.530
 7627W        W79942  38.857  32.711   3.652
 7628W        W79943   6.669  26.032  11.459
 7629W        W79944  26.627   0.020   4.750
 7630W        W79945  40.151   7.249   2.364
 7631W        W79946  24.268  15.711   3.629
 7632W        W79947  36.136   2.289   2.532
 7633W        W79948  10.846  41.785  10.492
 7634W        W79949  16.189  39.975  12.486
 7635W        W79950  17.071   8.650   4.202
 7636W        W79951   0.070  26.905   2.261
 7637W        W79952  28.022   3.885   0.483
 7638W        W79953  37.521  27.138  11.980
 7639W        W79954  41.966  41.588   4.596
 7640W        W79955  12.101   5.571  13.365
 7641W        W79956  10.402  18.675  10.285
 7642W        W79957  12.412  32.232  11.954
 7643W        W79958  21.348  24.077  13.088
 7644W        W79959  41.816  35.474   3.996
 7645W        W79960  30.288  35.071  10.638
 7646W        W79961   7.442  36.569   1.334
 7647W        W79962   5.240  25.081   0.993
 7648W        W79963  30.125  15.221  14.379
 7649W        W79964  21.400  21.617   3.248
 7650W        W79965  32.827   2.865   1.810
 7651W        W79966   9.432  18.242  14.783
 7652W        W79967   9.628  35.410   4.149
 7653W        W79968  31.638  11.816   3.176
 7654W        W79969  32.200  31.977  12.980
 7655W        W79970   5.200  14.320  14.360
 7656W        W79971  28.730  12.316  14.168
 7657W        W79972  32.667  27.967   0.832
 7658W        W79973  23.022  20.721   0.725
 7659W        W79974   9.692  10.859   4.059
 7660W        W79975  32.885  21.837   3.886
 7661W        W79976   8.408   6.871   4.062
 7662W        W79977  31.675  28.519   3.227
 7663W        W79978  22.593  32.650  12.863
 7664W        W79979  22.468  36.044   3.145
 7665W        W79980  41.009  16.327   0.547
 7666W        W79981  18.354   8.810   3.632
 7667W        W79982  42.959  26.524  14.448
 7668W        W79983  14.895   8.355  12.917
 7669W        W79984  12.886  43.789   3.753
 7670W        W79985   5.180  16.568   2.394
 7671W        W79986  43.699   0.883   0.646
 7672W        W79987  36.767   7.675   3.562
 7673W        W79988  17.633   5.771   0.979
 7674W        W79989  12.124   0.131  11.116
 7675W        W79990  24.485  29.302  13.915
 7676W        W79991  39.799  34.620  11.345
 7677W        W79992  42.478  38.001   4.767
 7678W        W79993  36.620  38.471  12.058
 7679W        W79994  25.666   0.670   3.294
 7680W        W79995  42.889  23.622  12.018
 7681W        W79996  16.274  42.980   3.887
 7682W        W79997  32.491  17.304  11.204
 7683W        W79998  33.083   4.886  14.181
 7684W        W79999   0.893  39.546  13.029
 7685W        W80000   7.220  31.426  10.681
 7686W        W80001  24.284  17.111  13.843
 7687W        W80002  40.090   4.649   4.329
 7688W        W80003  31.620   4.536  11.163
 7689W        W80004  24.988  17.541   3.251
 7690W        W80005  29.912   6.209  12.917
 7691W        W80006  30.530  23.946  10.455
 7692W        W80007   2.523  28.474  13.024
 7693W        W80008   0.528  42.425  13.155
 7694W        W80009   2.318   5.746   2.218
 7695W        W80010  19.596  21.504  11.673
 7696W        W80011  29.492  44.660   0.001
 7697W        W80012  42.491   1.853  12.446
 7698W        W80013  22.831  16.331   0.593
 7699W        W80014  33.186  18.297  12.902
 7700W        W80015  32.703  38.347  14.930
 7701W        W80016  18.582  42.996   0.188
 7702W        W80017   4.268   1.775  12.899
 7703W        W80018  34.638  31.652   3.275
 7704W        W80019  16.486  36.367   0.404
 7705W        W80020  17.074   0.331   2.810
 7706W        W80021  11.016  41.580  11.561
 7707W        W80022   6.596  44.077  14.736
 7708W        W80023   2.615  32.528   0.740
 7709W        W80024  26.457  23.666   4.134
 7710W        W80025  13.306   4.615   0.034
 7711W        W80026  24.140   4.440   0.441
 7712W        W80027  43.935  35.037   4.550
 7713W        W80028  25.358  27.232  13.857
 7714W        W80029   7.904  16.022   4.656
 7715W        W80030  35.541  20.107   3.611
 7716W        W80031  34.090   3.474  11.138
 7717W        W80032   2.338  43.234   2.762
 7718W        W80033  44.193  24.843  11.911
 7719W        W80034  24.970  30.372   4.173
 7720W        W80035  32.126  21.105   3.556
 7721W        W80036  17.544  37.336  14.307
 7722W        W80037  43.393  32.401   2.230
 7723W        W80038  18.310  39.352  11.579
 7724W        W80039  12.073  11.822   3.790
 7725W        W80040  36.824   8.995  12.184
 7726W        W80041  21.705  33.029  12.837
 7727W        W80042  17.914   8.153  11.124
 7728W        W80043  26.095   8.440  10.761
 7729W        W80044  23.832   1.924  12.395
 7730W        W80045  26.462   1.965   4.331
 7731W        W80046  32.570  43.589   2.650
 7732W        W80047  29.920  26.124   2.803
 7733W        W80048  20.707  36.731  10.588
 7734W        W80049  44.103   3.652   0.457
 7735W        W80050  12.669   4.246  14.463
 7736W        W80051  29.522   3.606   1.255
 7737W        W80052  38.730   9.813   1.693
 7738W        W80053  41.839  25.725  11.178
 7739W        W80054  20.924  30.263   3.131
 7740W        W80055  43.438  21.259  13.292
 7741W        W80056   6.630  40.037  13.500
 7742W        W80057   1.365  17.013  11.129
 7743W        W80058  40.378  21.470   4.865
 7744W        W80059  33.482  25.249   0.813
 7745W        W80060   4.448  25.012   0.911
 7746W        W80061   1.704  36.394  11.850
 7747W        W80062  30.128  21.100   4.705
 7748W        W80063   3.932  41.965   3.665
 7749W        W80064  15.797  24.813   4.293
 7750W        W80065  13.348  14.065   2.717
 7751W        W80066  15.979  23.851   3.676
 7752W        W80067  33.580  26.986  10.649
 7753W        W80068  19.677  37.852   2.744
 7754W        W80069  27.324  37.396   1.028
 7755W        W80070  24.203  43.436   2.206
 7756W        W80071  37.983  15.036  12.212
 7757W        W80072  31.522  24.532  12.010
 7758W        W80073  19.163  13.595  12.795
 7759W        W80074  22.172  42.744   0.341
 7760W        W80075  11.888   5.248   3.303
 7761W        W80076  26.210  10.426  12.101
 7762W        W80077  17.785  26.882   0.458
 7763W        W80078  15.229  41.246   3.828
 7764W        W80079  35.924  21.770  13.456
 7765W        W80080  16.746  37.486   0.194
 7766W        W80081   2.775  44.476  14.911
 7767W        W80082  20.004  12.832  10.741
 7768W        W80083  11.574   6.918   1.335
 7769W        W80084  34.648  12.201  13.966
 7770W        W80085  44.689  12.430  14.515
 7771W        W80086  12.434  21.147   4.799
 7772W        W80087  26.024  44.034  11.771
 7773W        W80088  42.971   7.368  12.587
 7774W        W80089  21.686  26.659  13.040
 7775W        W80090  12.613  31.492  12.484
 7776W        W80091  16.303  13.920   3.735
 7777W        W80092   4.350  36.174   2.089
 7778W        W80093  27.061  25.670   3.575
 7779W        W80094   8.946  12.866  12.639
 7780W        W80095  37.419   3.040  11.835
 7781W        W80096  23.132  35.449  14.584
 7782W        W80097  34.876  30.354   0.968
 7783W        W80098  44.805  25.198   5.090
 7784W        W80099   4.282  39.744   3.245
 7785W        W80100  12.914  16.115  13.038
 7786W        W80101  31.206  22.440   1.752
 7787W        W80102  39.024  36.849   4.057
 7788W        W80103  33.453  39.328  11.079
 7789W        W80104   3.402  32.877  13.270
 7790W        W80105  29.388  40.540  10.715
 7791W        W80106   8.918   6.952   1.239
 7792W        W80107  30.985  25.479  12.150
 7793W        W80108  36.067  29.697  13.332
 7794W        W80109  13.199  39.785   2.812
 7795W        W80110  43.343  37.821   2.585
 7796W        W80111  24.127   6.287   1.578
 7797W        W80112   9.192  38.916   3.145
 7798W        W80113  38.541  20.338  14.898
 7799W        W80114   7.662  17.636   1.380
 7800W        W80115  11.373  41.829  13.123
 7801W        W80116  22.454  14.763   4.257
 7802W        W80117  27.025  36.428   2.116
 7803W        W80118  11.408   8.858   0.365
 7804W        W80119  44.583   2.533  10.185
 7805W        W80120   6.660  34.415  14.023
 7806W        W80121   7.233  32.627   1.120
 7807W        W80122  17.712  34.729   2.648
 7808W        W80123  37.188  25.194   5.562
 7809W        W80124  42.384  20.481   1.746
 7810W        W80125  44.400  22.008   0.377
 7811W        W80126  12.194  41.298  10.820
 7812W        W80127  20.924   4.469  13.480
 7813W        W80128  20.787   6.261  11.357
 7814W        W80129  25.632   1.604   0.434
 7815W        W80130   0.456   5.982   3.293
 7816W        W80131  16.854  20.955   0.739
 7817W        W80132  25.144   1.424  12.460
 7818W        W80133   6.675  36.549  10.979
 7819W        W80134   8.111  32.999  14.636
 7820W        W80135  44.191  19.625  10.023
 7821W        W80136   7.227   5.207  10.596
 7822W        W80137  37.872  30.274   4.160
 7823W        W80138  15.647  40.405   2.791
 7824W        W80139  18.157  16.696   4.569
 7825W        W80140   2.663  34.044   3.177
 7826W        W80141   5.930   4.713  14.768
 7827W        W80142  23.975  14.815   3.329
 7828W        W80143  29.383  22.737  13.385
 7829W        W80144  21.229   1.403  11.922
 7830W        W80145   6.228  41.913  14.944
 7831W        W80146  28.061  31.570   3.148
 7832W        W80147  44.331  19.062  10.909
 7833W        W80148  13.687  24.142  12.549
 7834W        W80149  31.865  26.678  12.834
 7835W        W80150  26.563  28.247   5.012
 7836W        W80151  42.090   9.438  13.529
 7837W        W80152  13.277  12.355  10.646
 7838W        W80153  42.521   4.700  13.800
 7839W        W80154   6.337  20.688  12.453
 7840W        W80155  36.509  38.344   1.764
 7841W        W80156  21.263  23.613   1.343
 7842W        W80157  43.971  39.039   1.907
 7843W        W80158  43.391  37.893  12.607
 7844W        W80159  22.498  38.810   0.866
 7845W        W80160  36.762  20.271   0.946
 7846W        W80161  23.741  18.778   4.263
 7847W        W80162  18.186  31.032   5.509
 7848W        W80163  14.135  17.826   4.014
 7849W        W80164  29.181   3.380   4.590
 7850W        W80165  39.624   5.787   2.161
 7851W        W80166   1.007  35.953   2.204
 7852W        W80167  13.162   8.853   0.974
 7853W        W80168  23.489  17.069  11.532
 7854W        W80169   1.533   5.214  14.973
 7855W        W80170  40.550  24.203   5.035
 7856W        W80171  19.776   2.397  13.381
 7857W        W80172  40.382  44.281  10.161
 7858W        W80173  24.040   8.879   3.988
 7859W        W80174  34.973   2.072   1.658
 7860W        W80175  35.029  39.929  12.609
 7861W        W80176  27.211   5.335   0.976
 7862W        W80177  44.880  26.020  12.133
 7863W        W80178  14.802  31.974   1.837
 7864W        W80179  33.506  14.248  12.854
 7865W        W80180   6.496  43.779  12.646
 7866W        W80181  38.843   4.865  13.981
 7867W        W80182  28.370  39.984  10.749
 7868W        W80183   9.137   4.351  11.384
 7869W        W80184  12.602   0.802   0.280
 7870W        W80185  24.685   4.791   3.800
 7871W        W80186  22.986  39.590   4.536
 7872W        W80187  24.520  23.783  12.468
 7873W        W80188  32.769   8.582  14.747
 7874W        W80189  44.884   9.485  11.933
 7875W        W80190  22.794  43.849   3.178
 7876W        W80191  34.053  17.872   0.504
 7877W        W80192  41.168  32.466   0.280
 7878W        W80193  14.299  43.230  12.394
 7879W        W80194  38.946  25.185   0.904
 7880W        W80195  14.056   1.211  14.318
 7881W        W80196  31.115  25.242   4.985
 7882W        W80197   0.442  41.821  12.366
 7883W        W80198   0.289  12.246  11.218
 7884W        W80199  17.752  20.779  13.994
 7885W        W80200  30.364  27.659  14.763
 7886W        W80201  42.317  18.513   3.709
 7887W        W80202  39.510  21.591  14.556
 7888W        W80203  24.797  30.920  12.876
 7889W        W80204  36.484  17.209   0.128
 7890W        W80205  37.601  30.700   3.945
 7891W        W80206  13.045   4.759   4.083
 7892W        W80207   4.201   1.392   3.264
 7893W        W80208  36.353  36.111   2.532
 7894W        W80209  41.509   7.705  12.025
 7895W        W80210   2.992  43.805   4.674
 7896W        W80211   4.712  15.694   3.359
 7897W        W80212  29.471  32.678  13.447
 7898W        W80213   1.337  43.280   2.430
 7899W        W80214  44.501  12.726   1.280
 7900W        W80215   7.176  30.029  13.333
 7901W        W80216  18.203  12.013   3.650
 7902W        W80217  36.917  25.448   2.358
 7903W        W80218  13.199  41.840   4.609
 7904W        W80219   0.331  18.939  11.360
 7905W        W80220  22.676  33.930  13.264
 7906W        W80221  44.450  44.830  13.900
 7907W        W80222  15.465  17.807  14.789
 7908W        W80223  42.350  28.106   4.637
 7909W        W80224   0.304  17.685  12.638
 7910W        W80225   7.427  35.415   3.803
 7911W        W80226  27.960  42.011   0.501
 7912W        W80227  10.078  29.656  11.629
 7913W        W80228   7.323  37.322   3.710
 7914W        W80229  14.353   1.848  12.769
 7915W        W80230  11.813  44.558  13.619
 7916W        W80231  37.936  32.513  13.115
 7917W        W80232  21.381  12.690   4.959
 7918W        W80233  37.390  22.174   0.028
 7919W        W80234  35.040   5.316  12.327
 7920W        W80235  21.574  22.439   2.640
 7921W        W80236  27.651  27.427   3.898
 7922W        W80237  12.584  30.387  14.223
 7923W        W80238  37.264   3.464  12.564
 7924W        W80239  22.975  10.130   1.660
 7925W        W80240   6.316  26.397   0.979
 7926W        W80241  29.869  43.106  13.469
 7927W        W80242   4.172   7.738  11.634
 7928W        W80243  40.966  41.561   4.873
 7929W        W80244  37.818  32.571   1.868
 7930W        W80245  33.675  20.521  12.198
 7931W        W80246  32.395  27.568  13.897
 7932W        W80247  11.593  30.997   2.295
 7933W        W80248   2.253  16.439   0.867
 7934W        W80249   0.897   4.715  12.053
 7935W        W80250  36.094  40.915   2.197
 7936W        W80251  30.103  19.763  13.702
 7937W        W80252   6.235  43.062  10.788
 7938W        W80253  27.851   8.201   1.857
 7939W        W80254  38.683  12.273   2.735
 7940W        W80255  20.477   5.013  11.473
 7941W        W80256  39.814   6.433  13.568
 7942W        W80257   0.929  30.703  10.645
 7943W        W80258   8.039  13.247  13.258
 7944W        W80259   1.839  10.263  12.579
 7945W        W80260  40.153  22.044  14.893
 7946W        W80261  31.109  40.618  12.103
 7947W        W80262  11.699  13.721   4.860
 7948W        W80263   8.903  44.962   1.696
 7949W        W80264  18.062  33.052  13.583
 7950W        W80265  40.233  22.579  12.850
 7951W        W80266   9.749  32.376  14.955
 7952W        W80267  25.591  40.234  14.901
 7953W        W80268  17.077  36.377  14.458
 7954W        W80269  31.474  23.066   1.424
 7955W        W80270  14.554  19.583   0.392
 7956W        W80271  13.907  32.999   3.286
 7957W        W80272  44.718  12.557   1.743
 7958W        W80273  43.933  22.016   3.502
 7959W        W80274  37.765  39.276  14.531
 7960W        W80275  18.822  17.280   3.576
 7961W        W80276  24.601  10.703  12.823
 7962W        W80277  18.518  40.804   1.337
 7963W        W80278  27.704  44.421  11.935
 7964W        W80279  13.144   9.654   4.130
 7965W        W80280  29.085  30.007  13.402
 7966W        W80281   6.723  25.110   2.429
 7967W        W80282  43.076  15.644   1.372
 7968W        W80283  30.309  22.292  12.494
 7969W        W80284  19.110  42.950   2.038
 7970W        W80285  27.854  38.845   1.397
 7971W        W80286  33.625   0.003   2.194
 7972W        W80287   9.716  24.032   4.541
 7973W        W80288  43.788  15.857  13.483
 7974W        W80289   4.131  21.038  13.584
 7975W        W80290  43.477  42.684  13.824
 7976W        W80291  22.462  25.838   1.931
 7977W        W80292  38.873  24.442  14.574
 7978W        W80293  43.042   5.672  12.423
 7979W        W80294  19.514   2.736   1.723
 7980W        W80295  33.354  40.909   4.296
 7981W        W80296   4.761  24.841  14.980
 7982W        W80297  36.930  42.975  12.015
 7983W        W80298  37.338  35.524  12.877
 7984W        W80299  38.270  23.723   3.664
 7985W        W80300   3.084  23.189   0.405
 7986W        W80301  32.059   4.096  13.856
 7987W        W80302  33.384  25.494   2.213
 7988W        W80303  28.512  38.426   1.808
 7989W        W80304  44.243  33.063   2.419
 7990W        W80305   1.828  35.676  14.440
 7991W        W80306  12.883   4.702   1.000
 7992W        W80307   0.842  29.182   3.444
 7993W        W80308  33.004  19.489  10.733
 7994W        W80309  19.819  41.924  12.297
 7995W        W80310  18.558  20.788   1.221
 7996W        W80311  37.596  36.992  11.006
 7997W        W80312  11.940   1.416  11.400
 7998W        W80313  39.755  27.120  13.359
 7999W        W80314  28.838   8.283  12.679
 8000W        W80315   9.772  19.205  11.632
 8001W        W80316  20.971  38.997   4.465
 8002W        W80317   4.855   0.667   4.676
 8003W        W80318  20.488  35.483  11.962
 8004W        W80319   4.277  20.057  14.011
 8005W        W80320  13.165  40.803  13.058
 8006W        W80321  43.204  21.299  12.391
 8007W        W80322  44.865  19.642   5.012
 8008W        W80323   6.663  14.727   4.703
 8009W        W80324   5.397  11.655  12.940
 8010W        W80325  22.569   5.460  10.566
 8011W        W80326  17.677  38.589   3.486
 8012W        W80327  44.428  14.610  14.767
 8013W        W80328  10.377  27.535   2.917
 8014W        W80329   8.164  26.522  12.816
 8015W        W80330  14.696  11.134  13.441
 8016W        W80331   1.522  10.733   4.121
 8017W        W80332  17.819  16.372   3.195
 8018W        W80333  17.161   0.377   0.199
 8019W        W80334   8.509  42.537  14.169
 8020W        W80335  29.763  11.329   0.878
 8021W        W80336  21.691  39.482   4.191
 8022W        W80337   6.488   0.600  13.914
 8023W        W80338   6.299   2.598  13.875
 8024W        W80339  23.027  40.889  14.606
 8025W        W80340  38.142  30.191  12.074
 8026W        W80341  22.803   4.331  14.419
 8027W        W80342  41.468  41.281  11.505
 8028W        W80343  44.149  16.722  12.563
 8029W        W80344  33.544  29.509   2.798
 8030W        W80345  40.488  36.947   1.420
 8031W        W80346  24.657   1.135  14.318
 8032W        W80347  25.206   4.459   9.980
 8033W        W80348  39.964  39.277   4.622
 8034W        W80349  39.051  35.273  12.634
 8035W        W80350  28.868  24.587  13.889
 8036W        W80351  44.714  33.535   1.338
 8037W        W80352  26.976   3.917   1.566
 8038W        W80353  13.752  22.686  11.144
 8039W        W80354  14.488  37.479   0.425
 8040W        W80355  30.646  28.665   1.755
 8041W        W80356   3.981  34.159  14.308
 8042W        W80357   8.083  43.344  12.080
 8043W        W80358  18.644  37.597  11.944
 8044W        W80359  31.269  33.089   4.105
 8045W        W80360  28.436   4.587   5.433
 8046W        W80361  11.849   5.943  11.779
 8047W        W80362  27.981  16.193   1.796
 8048W        W80363  16.878  37.929  10.602
 8049W        W80364  25.120   0.245  10.733
 8050W        W80365  20.555  29.706   0.858
 8051W        W80366   3.792   3.720  11.152
 8052W        W80367   8.129  33.215  14.153
 8053W        W80368  28.844   3.920  14.504
 8054W        W80369  12.985  21.997   3.514
 8055W        W80370   8.855  28.108  14.512
 8056W        W80371  22.729  34.757   3.329
 8057W        W80372   4.211  31.038   0.470
 8058W        W80373  44.421  29.662   1.886
 8059W        W80374  14.835   7.457  14.195
 8060W        W80375  35.522  27.707   4.399
 8061W        W80376  15.054  25.782   1.813
 8062W        W80377   9.710  25.753  11.710
 8063W        W80378  28.219   7.459   0.395
 8064W        W80379  35.538  36.152  12.714
 8065W        W80380  16.901  18.727   3.389
 8066W        W80381  22.465  34.029  10.464
 8067W        W80382   0.529  20.479  11.975
 8068W        W80383   6.817  15.020  14.079
 8069W        W80384  32.689  17.447   0.912
 8070W        W80385  15.439   1.637   9.926
 8071W        W80386  38.469  14.888  14.867
 8072W        W80387  11.084  43.054  13.025
 8073W        W80388   4.903  44.696   3.681
 8074W        W80389   7.142  42.401   4.615
 8075W        W80390  43.408  12.817  14.461
 8076W        W80391  32.537  30.563   2.271
 8077W        W80392  38.840  24.972   9.927
 8078W        W80393  23.189  24.941   1.646
 8079W        W80394  43.964  37.489   0.031
 8080W        W80395  27.463  32.041   2.330
 8081W        W80396  40.396   6.786   2.243
 8082W        W80397  38.058  32.401   1.428
 8083W        W80398  30.655   8.938  13.002
 8084W        W80399  12.277  25.685  11.215
 8085W        W80400  36.382  24.106  10.562
 8086W        W80401  14.572  30.178  11.987
 8087W        W80402  44.043  11.926   0.781
 8088W        W80403  12.589  23.291  10.637
 8089W        W80404  33.045  32.763   1.415
 8090W        W80405  44.264  43.955  10.752
 8091W        W80406  25.885  14.875   3.632
 8092W        W80407  39.005   6.672   0.849
 8093W        W80408   8.202  38.543   2.970
 8094W        W80409  35.964   7.824  14.716
 8095W        W80410  21.365  39.998   2.765
 8096W        W80411  20.640  18.820   4.451
 8097W        W80412  13.505  19.665   4.210
 8098W        W80413  33.404  23.091   4.320
 8099W        W80414  31.892  31.937   3.858
 8100W        W80415  22.067  18.257  14.779
 8101W        W80416   1.726  40.560   4.636
 8102W        W80417  18.124  19.114   2.159
 8103W        W80418   5.400   5.323   4.650
 8104W        W80419  38.540   4.415  13.527
 8105W        W80420  23.993  33.423   0.125
 8106W        W80421  40.183   1.051   1.893
 8107W        W80422  19.694  12.405   0.900
 8108W        W80423  21.029  19.283   2.437
 8109W        W80424   4.725  31.676  11.996
 8110W        W80425   6.761  33.449  14.435
 8111W        W80426  33.386  27.060   4.855
 8112W        W80427  33.062  13.351  11.661
 8113W        W80428   6.769  31.146   3.183
 8114W        W80429  37.613  21.087   2.260
 8115W        W80430  43.117  19.655   1.294
 8116W        W80431   5.996   1.528  10.800
 8117W        W80432  35.948  38.212  12.600
 8118W        W80433  34.818  13.779   0.717
 8119W        W80434  21.544  40.258   1.461
 8120W        W80435  18.836  23.679   4.712
 8121W        W80436   5.428  28.055   3.848
 8122W        W80437  26.626  20.508  13.536
 8123W        W80438  39.325  37.368   0.134
 8124W        W80439   8.661  17.988  14.393
 8125W        W80440   2.911  22.729   2.175
 8126W        W80441  37.999  16.959   1.603
 8127W        W80442  19.537   1.200   1.737
 8128W        W80443  14.270  34.069   1.913
 8129W        W80444   8.637  36.398  14.035
 8130W        W80445  33.967   4.830  14.492
 8131W        W80446  14.344   0.284  11.195
 8132W        W80447  32.482  17.864  12.504
 8133W        W80448  29.644   0.757  10.494
 8134W        W80449  35.379  30.505   0.908
 8135W        W80450   4.800  39.822   3.282
 8136W        W80451  31.615  15.175   2.723
 8137W        W80452  16.112  29.136   4.150
 8138W        W80453  31.424  42.988   1.800
 8139W        W80454  38.888  32.093  12.504
 8140W        W80455  28.526   6.823  13.811
 8141W        W80456  22.074  17.454   3.221
 8142W        W80457  31.174  22.684   4.409
 8143W        W80458  24.047  24.319   4.613
 8144W        W80459   4.149  44.542  14.845
 8145W        W80460  25.089  39.515  14.551
 8146W        W80461  43.263  29.609   0.233
 8147W        W80462  40.477  25.934   4.196
 8148W        W80463  16.644  44.043  14.234
 8149W        W80464  18.043  34.496   0.120
 8150W        W80465  22.740  29.134  11.217
 8151W        W80466  18.813  39.912   4.182
 8152W        W80467   6.791  26.445  11.755
 8153W        W80468  34.574  15.978   1.819
 8154W        W80469  39.832   8.827  14.290
 8155W        W80470  21.659   8.822   4.644
 8156W        W80471  21.121  39.573   1.390
 8157W        W80472  15.496  13.295  12.044
 8158W        W80473   3.228  41.826   3.753
 8159W        W80474  16.139   4.275   3.249
 8160W        W80475   8.091   7.907   2.880
 8161W        W80476  41.403   6.242  13.646
 8162W        W80477  10.832  36.191   1.938
 8163W        W80478  24.212   6.761   1.876
 8164W        W80479  11.186  31.368   4.549
 8165W        W80480  41.648  10.883  14.362
 8166W        W80481  21.430  14.119  13.146
 8167W        W80482  26.978  35.950   4.130
 8168W        W80483  21.951  11.641  12.078
 8169W        W80484  34.190  19.448   0.253
 8170W        W80485  14.983  26.403  13.446
 8171W        W80486  26.159   1.460  14.461
 8172W        W80487   4.719  13.138  11.194
 8173W        W80488  44.259   6.420   2.362
 8174W        W80489   6.926  10.632  14.408
 8175W        W80490  25.203  40.542  14.773
 8176W        W80491   7.293  27.036  12.405
 8177W        W80492  10.325   4.352  13.131
 8178W        W80493  33.002  41.714  11.555
 8179W        W80494   4.168  28.172   0.139
 8180W        W80495  41.970  35.876   4.597
 8181W        W80496  36.503  42.815   2.879
 8182W        W80497   8.703  44.347   0.844
 8183W        W80498  11.731  42.118  12.337
 8184W        W80499  13.853  23.751   3.778
 8185W        W80500  34.978   9.115  11.605
 8186W        W80501  28.410   2.704  13.383
 8187W        W80502  38.835  33.075   2.180
 8188W        W80503  39.338   7.905   0.612
 8189W        W80504  34.899  36.632  10.687
 8190W        W80505  17.623  20.224   4.844
 8191W        W80506  35.116   0.510  10.650
 8192W        W80507  16.718   3.034   3.502
 8193W        W80508  31.412   6.461   1.879
 8194W        W80509  24.933  42.954   4.323
 8195W        W80510  30.111  41.655   4.391
 8196W        W80511   9.145   5.697   2.667
 8197W        W80512  29.129  37.320  12.411
 8198W        W80513  37.548  34.351  13.401
 8199W        W80514  35.361  35.167  12.527
 8200W        W80515   2.731   7.687   2.744
 8201W        W80516   2.530   2.241   0.281
 8202W        W80517  24.490   2.290   1.851
 8203W        W80518  22.449  42.990   3.625
 8204W        W80519  43.428   5.682  11.226
 8205W        W80520  34.976  40.837  14.510
 8206W        W80521  44.549  40.241  11.127
 8207W        W80522   7.820   5.638   2.882
 8208W        W80523  12.690   9.494   1.319
 8209W        W80524  24.589  43.561   1.031
 8210W        W80525  25.948   3.707   0.203
 8211W        W80526  18.214  19.510  12.070
 8212W        W80527  31.478  37.845  14.936
 8213W        W80528  44.570  18.101  12.825
 8214W        W80529  36.869  25.485  12.622
 8215W        W80530   7.686  24.523  13.688
 8216W        W80531   0.445  23.586   3.276
 8217W        W80532  16.394  25.048  10.719
 8218W        W80533   6.707  41.100  11.973
 8219W        W80534  37.976   5.989   2.725
 8220W        W80535  21.510  21.294  10.663
 8221W        W80536   3.583   8.262  13.998
 8222W        W80537   4.888  11.893  14.322
 8223W        W80538  19.467  31.571   4.230
 8224W        W80539  31.570  27.515   3.863
 8225W        W80540  16.179  39.884   4.489
 8226W        W80541  20.160   2.986  13.112
 8227W        W80542  28.545  41.780  14.804
 8228W        W80543  14.396  34.527  11.943
 8229W        W80544  37.294   0.807   1.296
 8230W        W80545  24.213  20.825   4.084
 8231W        W80546  10.416  38.958   0.314
 8232W        W80547  35.456  11.278   3.092
 8233W        W80548  21.503  26.104  10.702
 8234W        W80549  23.261   5.436   2.881
 8235W        W80550  15.765   1.263  12.076
 8236W        W80551  14.305   8.729   2.831
 8237W        W80552  10.688  25.168   2.744
 8238W        W80553  34.924  18.833   3.183
 8239W        W80554  22.111  42.645  14.272
 8240W        W80555  34.367  39.563  14.964
 8241W        W80556   9.121   5.271  11.479
 8242W        W80557  25.100  32.870  13.802
 8243W        W80558  16.461  22.198  14.969
 8244W        W80559  13.574  43.358   4.192
 8245W        W80560  24.425  28.055   2.360
 8246W        W80561  30.029  26.911   1.461
 8247W        W80562  37.729   6.048   1.164
 8248W        W80563   0.313  17.926   0.508
 8249W        W80564  26.044  41.947  13.341
 8250W        W80565  17.335  33.464  14.603
 8251W        W80566  20.919  43.084  11.331
 8252W        W80567  44.819  18.146   0.444
 8253W        W80568   1.275  16.593   1.383
 8254W        W80569   3.209   0.697   0.688
 8255W        W80570   1.527  11.092   4.540
 8256W        W80571  21.509  35.356   4.126
 8257W        W80572  27.122  38.827   4.804
 8258W        W80573   1.680  28.277  14.703
 8259W        W80574   1.939  19.950   0.596
 8260W        W80575   4.282  31.517  11.202
 8261W        W80576   7.722  16.879   0.844
 8262W        W80577  33.159   4.862   4.189
 8263W        W80578  10.939  30.001  12.257
 8264W        W80579   5.752   5.944   2.229
 8265W        W80580   3.926  32.405   3.802
 8266W        W80581  41.622  30.355   2.375
 8267W        W80582   4.292   1.919   4.836
 8268W        W80583   8.390  34.617  11.540
 8269W        W80584  10.553  42.171   3.181
 8270W        W80585  32.956   4.966   1.875
 8271W        W80586   9.764  44.017   3.488
 8272W        W80587  14.589  14.822  14.753
 8273W        W80588  15.216  24.464  13.460
 8274W        W80589  31.625  39.804   4.099
 8275W        W80590  13.607   5.210   4.643
 8276W        W80591  21.326  24.187   3.562
 8277W        W80592   2.420  15.149  10.488
 8278W        W80593  21.049  44.467   0.086
 8279W        W80594  23.786  24.901  13.009
 8280W        W80595  27.528   5.999  12.230
 8281W        W80596  18.577   5.707  11.557
 8282W        W80597  10.571  10.816  12.116
 8283W        W80598  17.101   5.424  12.005
 8284W        W80599  43.957  42.967   2.194
 8285W        W80600  13.729  12.067  14.329
 8286W        W80601  32.524  38.266   1.400
 8287W        W80602  40.318  32.843   1.244
 8288W        W80603  13.797  32.612   0.287
 8289W        W80604   4.668  36.076   1.659
 8290W        W80605  17.178  35.908  12.178
 8291W        W80606  34.510  42.751  12.900
 8292W        W80607   0.895  30.046   0.932
 8293W        W80608  33.616  23.972  12.904
 8294W        W80609  36.871  27.796   4.289
 8295W        W80610  30.040  30.870   2.690
 8296W        W80611   2.496  42.004   4.694
 8297W        W80612  17.839   3.955  11.001
 8298W        W80613  23.708  10.439   4.644
 8299W        W80614  40.112   1.444  13.362
 8300W        W80615  10.871  33.135   3.095
 8301W        W80616  17.282  29.941  10.646
 8302W        W80617  34.335  34.607   0.861
 8303W        W80618  42.673  26.892  10.072
 8304W        W80619  20.986   8.186   2.265
 8305W        W80620  27.207  43.007  10.748
 8306W        W80621  37.779  22.377   1.829
 8307W        W80622   3.328  25.113  13.388
 8308W        W80623   4.808  31.663   4.757
 8309W        W80624  25.200   6.879   1.914
 8310W        W80625  19.077  24.256   3.827
 8311W        W80626  31.909  15.097   0.971
 8312W        W80627  36.521  35.217   3.858
 8313W        W80628   8.271  34.408  14.857
 8314W        W80629  41.013  32.128  14.331
 8315W        W80630   6.781  12.444  11.675
 8316W        W80631  10.409  11.324  14.395
 8317W        W80632  22.969  43.448   0.920
 8318W        W80633   0.865  23.499  12.898
 8319W        W80634   4.942  13.314   5.100
 8320W        W80635  30.574  36.481  12.493
 8321W        W80636   9.785  40.365  10.785
 8322W        W80637   0.615  19.551  10.697
 8323W        W80638  25.608   8.287   0.304
 8324W        W80639  16.283  41.856  14.075
 8325W        W80640  24.394   8.397   2.172
 8326W        W80641  21.167   9.334   1.695
 8327W        W80642   5.859  26.903  10.777
 8328W        W80643  23.512  40.693  11.270
 8329W        W80644  27.298   1.034   3.627
 8330W        W80645  14.617  29.769   3.853
 8331W        W80646   7.946  19.684  14.828
 8332W        W80647  26.450  27.254   3.727
 8333W        W80648  30.767  38.540  14.854
 8334W        W80649  17.208  14.737  11.881
 8335W        W80650  20.104   2.387  14.005
 8336W        W80651  22.227  29.388   3.411
 8337W        W80652  14.556  18.097  11.946
 8338W        W80653  36.641  27.479  11.548
 8339W        W80654   4.009  32.999  14.880
 8340W        W80655  14.251  25.400   5.285
 8341W        W80656  18.109  10.760   5.403
 8342W        W80657   2.175   8.883  14.734
 8343W        W80658  12.922  34.385   2.786
 8344W        W80659  33.690   1.126  11.172
 8345W        W80660   6.420  43.569   4.044
 8346W        W80661  18.781  13.715   2.648
 8347W        W80662  12.672   6.372   1.364
 8348W        W80663  39.393   2.275   2.667
 8349W        W80664   2.761  26.164  11.055
 8350W        W80665  21.546   8.581  11.129
 8351W        W80666  38.632  20.734   2.262
 8352W        W80667  13.862  33.174   4.524
 8353W        W80668  29.321  12.102  12.874
 8354W        W80669  22.594  27.964   2.204
 8355W        W80670  24.947  14.825  10.867
 8356W        W80671  29.404   7.785  12.001
 8357W        W80672  16.124   9.824   4.429
 8358W        W80673  20.717  31.127  11.519
 8359W        W80674  27.261   4.645  10.517
 8360W        W80675  16.548  39.089   3.339
 8361W        W80676  21.781  44.443  13.884
 8362W        W80677  20.561  28.152  14.444
 8363W        W80678   3.954  33.123  11.486
 8364W        W80679  27.451  38.603  13.028
 8365W        W80680   9.137  24.748  14.863
 8366W        W80681   8.946  36.626  13.071
 8367W        W80682  44.235  39.314   0.372
 8368W        W80683  21.050   9.174  12.065
 8369W        W80684   2.741  31.648  10.413
 8370W        W80685   5.875  15.593  10.482
 8371W        W80686   7.375  41.352   1.796
 8372W        W80687  40.378  22.987  13.156
 8373W        W80688  40.320  34.509  12.144
 8374W        W80689  17.692  30.046  12.933
 8375W        W80690  10.833  15.835   4.686
 8376W        W80691  28.915  28.691   4.537
 8377W        W80692  33.422   3.773   4.574
 8378W        W80693   1.052  29.825  12.915
 8379W        W80694  14.530  29.891   4.375
 8380W        W80695  18.169  14.589   3.867
 8381W        W80696  35.631  31.569  10.467
 8382W        W80697  17.735  41.706   0.929
 8383W        W80698  37.843  13.509  11.947
 8384W        W80699  18.238  39.058   1.908
 8385W        W80700  15.101  43.468   1.046
 8386W        W80701  20.785  26.127   4.231
 8387W        W80702  33.197  24.463   2.147
 8388W        W80703   2.163   2.390  12.973
 8389W        W80704  18.503  36.473   4.692
 8390W        W80705  28.955  12.554   0.453
 8391W        W80706   4.265  27.364  13.006
 8392W        W80707  26.056  34.548   0.847
 8393W        W80708  24.247  40.019   1.690
 8394W        W80709  15.821  28.927  14.545
 8395W        W80710  20.118  40.508  14.998
 8396W        W80711  39.579   5.874   3.857
 8397W        W80712  17.809  12.952  14.297
 8398W        W80713  26.466  25.476  12.375
 8399W        W80714  30.826  13.576  13.913
 8400W        W80715  30.884  40.409  13.368
 8401W        W80716   3.314  19.342   3.035
 8402W        W80717  42.040  23.125   3.550
 8403W        W80718   3.699   8.830  14.874
 8404W        W80719  34.000  29.721   3.625
 8405W        W80720  42.969  12.471   0.326
 8406W        W80721  12.767  28.619  10.964
 8407W        W80722  18.089  23.131  13.828
 8408W        W80723  39.932  15.295   4.186
 8409W        W80724   7.653  44.527  13.059
 8410W        W80725  38.433  17.042   4.599
 8411W        W80726   1.772  37.820   1.211
 8412W        W80727   2.606   2.568  14.881
 8413W        W80728  33.854  23.681   2.402
 8414W        W80729  37.156  29.688   3.326
 8415W        W80730  31.821   8.853  12.570
 8416W        W80731  32.896   3.017   0.453
 8417W        W80732  19.500  31.585   0.512
 8418W        W80733  25.119  37.062   2.202
 8419W        W80734  18.878  36.111  12.011
 8420W        W80735  24.179   2.954  11.210
 8421W        W80736  16.081  37.250  11.361
 8422W        W80737   3.958  41.775  13.351
 8423W        W80738  30.588   8.378  12.978
 8424W        W80739  32.338  43.487  11.472
 8425W        W80740   4.938  29.522  13.041
 8426W        W80741  29.052  16.577  14.016
 8427W        W80742  39.138  12.818   0.397
 8428W        W80743  14.596   9.419  11.460
 8429W        W80744  19.465  23.768   0.762
 8430W        W80745  41.324  27.510  12.569
 8431W        W80746  11.743  24.569  13.971
 8432W        W80747  43.280  39.770  11.565
 8433W        W80748  28.933  14.025  14.473
 8434W        W80749   9.138  37.631  12.466
 8435W        W80750  43.846  39.094  14.345
 8436W        W80751  23.621  12.636  11.536
 8437W        W80752  42.952   8.510  14.496
 8438W        W80753  43.063   9.720  12.443
 8439W        W80754  25.401   8.274   4.208
 8440W        W80755   0.459  26.187  14.768
 8441W        W80756  17.554  20.475   3.802
 8442W        W80757   3.236   5.890   0.937
 8443W        W80758  40.809   7.725   4.882
 8444W        W80759  25.220  21.135   1.890
 8445W        W80760  39.369  35.032  12.993
 8446W        W80761   5.272  27.004   0.202
 8447W        W80762  19.762  34.343   1.391
 8448W        W80763  41.770   8.538   0.436
 8449W        W80764  25.040  31.911  12.566
 8450W        W80765  24.677   6.129  11.381
 8451W        W80766  43.976  37.890  11.608
 8452W        W80767  33.239  40.919  13.366
 8453W        W80768  22.602  20.570   0.432
 8454W        W80769  28.057  36.493  14.457
 8455W        W80770   6.170  19.579   4.204
 8456W        W80771  32.571  38.800  10.320
 8457W        W80772  31.875  38.011   3.259
 8458W        W80773   1.910  37.849  12.573
 8459W        W80774  13.637  32.207   0.929
 8460W        W80775   0.797  27.725   1.295
 8461W        W80776  21.151   3.684   5.029
 8462W        W80777   8.019  25.169   0.319
 8463W        W80778  35.799  28.415  13.815
 8464W        W80779  36.949  38.779  11.030
 8465W        W80780   6.685  34.413  14.561
 8466W        W80781  13.874  11.585   1.941
 8467W        W80782  19.777   1.316   2.202
 8468W        W80783  34.130   7.171   2.130
 8469W        W80784  42.522   3.395  11.461
 8470W        W80785  22.496  15.902   5.246
 8471W        W80786  18.315  43.070   4.978
 8472W        W80787  38.790  31.363  14.740
 8473W        W80788  23.444  18.540   4.635
 8474W        W80789  38.062   1.709   4.988
 8475W        W80790  33.996  40.860  14.359
 8476W        W80791   6.021   6.728   1.687
 8477W        W80792  12.117  10.407   3.209
 8478W        W80793  33.047  14.151   2.709
 8479W        W80794   8.905  20.787  10.660
 8480W        W80795  32.606  22.987  10.745
 8481W        W80796  15.079  20.102   2.423
 8482W        W80797  40.285  39.543   0.720
 8483W        W80798  14.187  29.582   2.858
 8484W        W80799  37.844   1.078   0.964
 8485W        W80800  21.350  37.319  13.034
 8486W        W80801  42.445   2.432   1.282
 8487W        W80802  26.802  32.708  10.247
 8488W        W80803  13.261  36.655   0.376
 8489W        W80804  42.526  34.582   4.583
 8490W        W80805  24.122  31.391   4.218
 8491W        W80806  32.094  21.677   4.250
 8492W        W80807  44.769   4.879   1.988
 8493W        W80808  36.263   2.219  11.592
 8494W        W80809  19.107  13.047   0.126
 8495W        W80810  34.469  33.203   1.795
 8496W        W80811  33.080  28.950  13.630
 8497W        W80812   5.205  12.892   3.332
 8498W        W80813  25.079  44.646   2.760
 8499W        W80814  35.325  26.013  12.786
 8500W        W80815  37.912  29.070   4.580
 8501W        W80816   5.263  40.209   3.821
 8502W        W80817  10.866  39.949  13.401
 8503W        W80818  26.636  23.766  12.966
 8504W        W80819   2.433   3.276   2.956
 8505W        W80820  39.804  33.742  13.941
 8506W        W80821  41.649  36.120  11.902
 8507W        W80822   8.128  17.127  12.595
 8508W        W80823  27.204   6.323   2.632
 8509W        W80824  23.690  44.268  10.716
 8510W        W80825  24.802   4.218  13.080
 8511W        W80826   7.823  15.365   1.006
 8512W        W80827  21.257  31.324  12.969
 8513W        W80828  34.060  30.587  12.934
 8514W        W80829  27.169  29.558  10.591
 8515W        W80830   7.317  21.265  11.064
 8516W        W80831  30.112  10.796  12.692
 8517W        W80832  36.394  33.903  12.329
 8518W        W80833   3.939  30.063  13.883
 8519W        W80834  26.656   2.435   4.208
 8520W        W80835  36.967  25.338  10.206
 8521W        W80836  23.427  19.949  11.568
 8522W        W80837   4.551  20.558   2.664
 8523W        W80838  42.964  34.190   2.197
 8524W        W80839   5.608  27.643   2.391
 8525W        W80840   2.428  18.291   0.008
 8526W        W80841   1.060   1.759  12.468
 8527W        W80842  30.611   1.624   0.837
 8528W        W80843  12.842  41.355  11.522
 8529W        W80844  10.320  18.246   0.751
 8530W        W80845  33.345   3.530   2.335
 8531W        W80846  13.511   5.407   0.243
 8532W        W80847  34.679   0.286  13.307
 8533W        W80848  20.753  11.600   1.330
 8534W        W80849  30.601  21.308  14.401
 8535W        W80850   2.187  39.777   2.836
 8536W        W80851  19.768  27.132   0.903
 8537W        W80852   0.959   1.994  13.394
 8538W        W80853  12.271  40.901  12.054
 8539W        W80854  24.153  32.510  10.725
 8540W        W80855   7.123  29.634  14.611
 8541W        W80856  30.329  15.687  12.941
 8542W        W80857  31.515  26.153   1.423
 8543W        W80858  41.738  35.535  11.503
 8544W        W80859  40.442   6.341   1.980
 8545W        W80860  29.642  16.491   4.030
 8546W        W80861  14.364  10.374   0.409
 8547W        W80862  15.406  10.621  11.047
 8548W        W80863   3.952   1.244  11.408
 8549W        W80864   9.352  20.126   0.569
 8550W        W80865  42.681   0.801   0.882
 8551W        W80866  36.166   2.007   4.144
 8552W        W80867  20.456  15.933   0.036
 8553W        W80868  19.193  21.748   0.415
 8554W        W80869  14.024  33.616  13.874
 8555W        W80870  19.718  14.709   4.606
 8556W        W80871   6.484  12.580   2.283
 8557W        W80872  34.889  16.057  13.563
 8558W        W80873  15.332  32.607   4.695
 8559W        W80874  30.586  43.899  11.886
 8560W        W80875  14.134   2.848   1.213
 8561W        W80876   8.114  34.295   2.734
 8562W        W80877  39.801  15.812   1.586
 8563W        W80878  12.605   1.029  13.357
 8564W        W80879  22.481  26.193  13.897
 8565W        W80880   4.570  42.442  13.969
 8566W        W80881  39.669  33.504   1.351
 8567W        W80882  30.330  31.525   4.071
 8568W        W80883  44.616   0.901   4.122
 8569W        W80884   1.940   4.760  11.593
 8570W        W80885  31.869  22.066  13.974
 8571W        W80886  31.846   5.657   0.586
 8572W        W80887   2.010  10.396  14.866
 8573W        W80888  42.021  33.648  11.537
 8574W        W80889  18.299  22.753  11.039
 8575W        W80890  14.738  27.222  14.963
 8576W        W80891   2.904  22.736   4.310
 8577W        W80892  14.954  23.110  11.586
 8578W        W80893  23.104   4.196  12.661
 8579W        W80894  32.948  12.558   4.755
 8580W        W80895  37.057  41.329  12.408
 8581W        W80896  32.396   2.289   4.500
 8582W        W80897  38.401  19.736  11.702
 8583W        W80898  40.028  30.659   1.156
 8584W        W80899  21.037  20.225   3.753
 8585W        W80900  14.104  40.536  10.992
 8586W        W80901  33.807  20.867   3.770
 8587W        W80902  18.547  37.791   1.725
 8588W        W80903   2.102  35.572   9.972
 8589W        W80904  33.922  43.857  14.932
 8590W        W80905  30.547  19.860  12.415
 8591W        W80906   0.451  37.362  12.319
 8592W        W80907  34.053  42.050  14.916
 8593W        W80908  17.989  16.144  11.567
 8594W        W80909  43.853   8.658   0.410
 8595W        W80910  42.895  28.398   4.419
 8596W        W80911   5.696  10.646  13.792
 8597W        W80912   9.413  25.714  13.988
 8598W        W80913   7.183  34.211   4.518
 8599W        W80914  38.773  15.284   4.972
 8600W        W80915   2.863  27.633  14.928
 8601W        W80916  33.455  31.870   3.855
 8602W        W80917   8.328  16.455  10.565
 8603W        W80918  10.719  30.436   2.499
 8604W        W80919  36.792  22.213  12.488
 8605W        W80920   7.857  43.782  12.932
 8606W        W80921  44.937  29.312  10.794
 8607W        W80922  37.941  19.650  11.438
 8608W        W80923  26.183  31.973   0.445
 8609W        W80924  33.244  29.489  12.874
 8610W        W80925   0.815  33.188   1.538
 8611W        W80926  15.710  21.562  12.501
 8612W        W80927  23.475  29.938   1.332
 8613W        W80928   1.962  27.446  12.498
 8614W        W80929  24.650  23.357  14.009
 8615W        W80930  31.456  43.466  11.846
 8616W        W80931  16.032  34.891   1.339
 8617W        W80932  15.290  42.496  12.403
 8618W        W80933  43.456   6.473  13.428
 8619W        W80934   7.757  13.409   4.046
 8620W        W80935  28.110  40.361   0.974
 8621W        W80936  40.729  17.577   1.858
 8622W        W80937  41.559  40.516  11.978
 8623W        W80938  14.078  14.752  14.781
 8624W        W80939  25.999  26.980   3.726
 8625W        W80940  35.480   8.471  11.300
 8626W        W80941  18.614  20.613  13.876
 8627W        W80942   3.328  40.590  13.860
 8628W        W80943   1.862   5.329   3.280
 8629W        W80944  28.844  14.616  12.180
 8630W        W80945   7.921  14.213  13.854
 8631W        W80946  44.934  21.909   1.870
 8632W        W80947   2.838  34.876  10.634
 8633W        W80948   0.433   8.797   2.438
 8634W        W80949   8.290  33.718  14.089
 8635W        W80950  42.363  35.078  11.154
 8636W        W80951   3.264  21.583  10.909
 8637W        W80952   1.864  43.479   2.268
 8638W        W80953   2.081  25.503   1.733
 8639W        W80954  33.984   7.849  13.849
 8640W        W80955  14.514  26.981  13.499
 8641W        W80956  33.009  31.362  12.833
 8642W        W80957  24.702  27.430   3.292
 8643W        W80958   6.409  24.138  14.053
 8644W        W80959  12.636  20.090   1.680
 8645W        W80960  30.956  21.144   0.174
 8646W        W80961   5.666  41.037  13.399
 8647W        W80962  14.246   5.410   3.308
 8648W        W80963   8.236  14.612  13.055
 8649W        W80964  12.936  42.515  14.316
 8650W        W80965  29.504  43.358  10.412
 8651W        W80966   2.322  42.703   2.755
 8652W        W80967   3.341  36.863   0.535
 8653W        W80968  23.122  35.896   4.710
 8654W        W80969  14.674  43.810   4.170
 8655W        W80970  20.963  12.234   3.602
 8656W        W80971  33.637  39.397   2.678
 8657W        W80972  16.401  10.774  14.330
 8658W        W80973  31.188  36.842   1.948
 8659W        W80974  37.299  27.925   1.012
 8660W        W80975  32.438  28.113   0.031
 8661W        W80976  44.233  27.884   2.349
 8662W        W80977  24.732  30.625   0.117
 8663W        W80978  43.506  11.102   3.154
 8664W        W80979  23.518  42.466  13.085
 8665W        W80980  31.499  13.024  13.484
 8666W        W80981  21.258  14.793  14.258
 8667W        W80982   0.320  17.760   2.320
 8668W        W80983  23.129  16.903  13.641
 8669W        W80984  44.413  41.515  10.414
 8670W        W80985  33.979  36.396  13.042
 8671W        W80986  28.144   9.425   2.484
 8672W        W80987  40.482   5.275   1.865
 8673W        W80988  44.687  33.190  11.034
 8674W        W80989  36.921  15.813  13.861
 8675W        W80990  20.953  23.437  13.565
 8676W        W80991  39.419  44.599   3.030
 8677W        W80992  20.975  43.702  11.141
 8678W        W80993  24.802  24.406  12.779
 8679W        W80994  33.511  44.397  11.472
 8680W        W80995   0.296  17.844   1.633
 8681W        W80996  15.629  26.238   0.697
 8682W        W80997  38.535   3.884   0.641
 8683W        W80998  26.395  26.577   2.294
 8684W        W80999  31.961  13.672   3.144
 8685W        W81000  41.278  32.463  11.896
 8686W        W81001  21.177  21.182   0.410
 8687W        W81002  24.767  43.094   0.767
 8688W        W81003  34.574   0.944  13.003
 8689W        W81004  41.898  28.592  11.677
 8690W        W81005  17.721  38.351   2.474
 8691W        W81006  17.328  25.684  11.465
 8692W        W81007  32.551  18.289   1.907
 8693W        W81008  24.070  41.504  10.821
 8694W        W81009  23.799  38.911  13.796
 8695W        W81010   3.882   3.349  13.398
 8696W        W81011   3.877  38.195   4.899
 8697W        W81012  21.691  13.753   1.048
 8698W        W81013  12.541   3.912   4.412
 8699W        W81014  31.429   4.325  11.601
 8700W        W81015  12.630  12.347  11.115
 8701W        W81016  28.334   2.682  11.554
 8702W        W81017  10.283  14.353   1.233
 8703W        W81018  29.158  12.312   0.885
 8704W        W81019  40.292  12.330   4.694
 8705W        W81020  26.558  30.320   0.845
 8706W        W81021   2.048   4.022   3.253
 8707W        W81022  24.318   2.289   1.353
 8708W        W81023  13.137   2.683   1.265
 8709W        W81024  28.540  10.295  14.050
 8710W        W81025  25.045  29.884   4.098
 8711W        W81026  13.398  38.531  10.699
 8712W        W81027  35.508  23.262   1.445
 8713W        W81028  26.641  33.964   9.808
 8714W        W81029  42.039  10.824   1.295
 8715W        W81030  19.387  37.394  11.964
 8716W        W81031   7.268  32.129  12.600
 8717W        W81032  44.739  26.385  13.088
 8718W        W81033  35.842   2.436  12.903
 8719W        W81034  21.941   3.460   0.815
 8720W        W81035  13.335   7.743   2.675
 8721W        W81036  43.943  23.127  12.097
 8722W        W81037  17.857  13.287  13.304
 8723W        W81038  18.727  10.126  14.785
 8724W        W81039  32.646  25.892  12.022
 8725W        W81040  15.336   6.867   2.879
 8726W        W81041  10.226   2.662  11.331
 8727W        W81042  25.670  41.780   0.923
 8728W        W81043  15.046   9.162  11.428
 8729W        W81044  23.039  32.061  12.468
 8730W        W81045   9.838  42.874   3.004
 8731W        W81046  15.498  11.661  12.484
 8732W        W81047  31.616   9.666   2.451
 8733W        W81048  35.449  28.690   4.159
 8734W        W81049   7.696   9.404  13.429
 8735W        W81050  38.371   1.935  13.400
 8736W        W81051   2.823  23.114   0.843
 8737W        W81052  40.951   6.854  14.934
 8738W        W81053  19.226   2.430  12.505
 8739W        W81054  18.868  25.619   3.621
 8740W        W81055  28.111   2.102  12.101
 8741W        W81056  18.018  19.951  13.778
 8742W        W81057  22.514  41.705  12.561
 8743W        W81058  35.130  19.409  13.973
 8744W        W81059   1.913  36.594  14.820
 8745W        W81060  10.277  40.507  14.956
 8746W        W81061  40.926  11.774  14.008
 8747W        W81062  35.242  15.304  12.837
 8748W        W81063  35.922  11.188   3.311
 8749W        W81064  39.301  25.814  12.391
 8750W        W81065  39.481  29.512   4.256
 8751W        W81066  27.213  41.001   1.433
 8752W        W81067   7.763  30.448   4.477
 8753W        W81068   9.790  22.987  11.077
 8754W        W81069  28.416   2.773   1.484
 8755W        W81070   9.836   8.347   4.439
 8756W        W81071  30.369  37.074  14.044
 8757W        W81072   6.447  19.966  14.138
 8758W        W81073  43.852   5.097  11.046
 8759W        W81074  23.202  31.682   4.129
 8760W        W81075  25.751  38.816   0.822
 8761W        W81076  14.411   6.274  12.410
 8762W        W81077  27.546  25.980   4.391
 8763W        W81078  10.200   4.414  12.373
 8764W        W81079  20.342   8.265   9.831
 8765W        W81080  26.019  16.425   0.742
 8766W        W81081  12.165  22.287   0.214
 8767W        W81082   2.192  33.383   1.105
 8768W        W81083  29.138   6.806  14.234
 8769W        W81084  41.549  17.882   0.718
 8770W        W81085  42.910  10.360  11.509
 8771W        W81086  13.090  30.215   3.679
 8772W        W81087  37.814  35.580  13.065
 8773W        W81088  23.808   2.152   1.337
 8774W        W81089   1.714   9.941  12.020
 8775W        W81090  32.659  23.779   4.205
 8776W        W81091  12.223  17.209  11.316
 8777W        W81092  36.351  35.006  10.183
 8778W        W81093  43.283  42.034   4.316
 8779W        W81094  19.457  29.254  11.156
 8780W        W81095   9.663   9.426   3.263
 8781W        W81096  36.099  15.117   0.413
 8782W        W81097  19.573  32.610   3.369
 8783W        W81098  30.270  44.849  10.808
 8784W        W81099  20.948  32.619   0.379
 8785W        W81100  35.546  44.015  14.301
 8786W        W81101  40.387  41.379   5.187
 8787W        W81102  25.926  19.938   4.267
 8788W        W81103  17.263  41.246   3.248
 8789W        W81104  22.640   1.882  10.692
 8790W        W81105  39.625   3.764  13.043
 8791W        W81106  34.842  10.140  11.534
 8792W        W81107  14.799  30.327  10.167
 8793W        W81108  17.744   9.652  13.412
 8794W        W81109  16.831  20.256   3.177
 8795W        W81110   5.401   1.709   4.178
 8796W        W81111  23.197  14.784   1.954
 8797W        W81112  40.591  19.836  13.188
 8798W        W81113  34.951   4.794  13.078
 8799W        W81114  22.552  17.996  14.888
 8800W        W81115  19.244  12.282  11.107
 8801W        W81116  20.548  43.372  11.181
 8802W        W81117  31.105  29.109  13.082
 8803W        W81118  15.155   5.144   2.343
 8804W        W81119   4.390  30.882   1.863
 8805W        W81120  20.705  22.462  14.066
 8806W        W81121  20.449  27.539  14.910
 8807W        W81122  12.133  40.485   3.187
 8808W        W81123  12.270  26.091   1.441
 8809W        W81124  10.195  15.757   3.233
 8810W        W81125  20.376  31.411   0.896
 8811W        W81126  12.379  24.472   3.212
 8812W        W81127   3.648  29.073   0.215
 8813W        W81128   8.380  18.816   0.962
 8814W        W81129  12.610  41.617   4.198
 8815W        W81130  13.009  39.489   2.236
 8816W        W81131  33.844  44.308   1.263
 8817W        W81132  11.241  17.580  12.970
 8818W        W81133  21.631  21.931  14.053
 8819W        W81134  13.176   2.005   2.451
 8820W        W81135  12.650  27.076  10.669
 8821W        W81136  28.123  20.484  13.965
 8822W        W81137  11.725  36.891  11.953
 8823W        W81138  15.648   5.854   4.428
 8824W        W81139  20.841   8.882  11.563
 8825W        W81140  36.091  11.262  13.538
 8826W        W81141   4.813   0.636  14.250
 8827W        W81142  33.962  31.923   3.722
 8828W        W81143   2.610  18.743   4.553
 8829W        W81144  40.057   4.013  12.430
 8830W        W81145   0.995  38.528  12.001
 8831W        W81146  24.403  12.940  11.944
 8832W        W81147  19.987  18.830   1.803
 8833W        W81148  44.785  33.891   1.714
 8834W        W81149  38.550  21.720  10.738
 8835W        W81150  21.647  23.508   0.437
 8836W        W81151  34.341  27.075   0.730
 8837W        W81152   1.459   8.708   3.696
 8838W        W81153  24.016  31.193   3.757
 8839W        W81154   5.359  17.853  12.500
 8840W        W81155  36.474  27.388   2.853
 8841W        W81156  20.282  20.637   2.355
 8842W        W81157  24.197  35.417   4.442
 8843W        W81158  11.375  21.759   3.628
 8844W        W81159  15.855  20.211   0.333
 8845W        W81160  40.746  23.576  11.187
 8846W        W81161  20.563   3.568   3.402
 8847W        W81162  20.033  23.677  12.810
 8848W        W81163  33.301  16.766  14.982
 8849W        W81164   5.860  33.946  13.475
 8850W        W81165  42.836   2.985   0.001
 8851W        W81166  29.900   8.517  11.992
 8852W        W81167  28.345  27.536   2.868
 8853W        W81168  13.933  40.042   3.996
 8854W        W81169  13.761  34.538  10.668
 8855W        W81170  41.893  14.079   1.868
 8856W        W81171  13.741  35.680   2.174
 8857W        W81172  41.838  44.779   0.418
 8858W        W81173   4.347  33.070   3.832
 8859W        W81174   8.349  27.778  14.925
 8860W        W81175   6.706   8.705   0.711
 8861W        W81176  36.635  24.153  14.944
 8862W        W81177  36.401   0.433   1.022
 8863W        W81178  20.524  19.597  10.049
 8864W        W81179  20.561  44.318   1.317
 8865W        W81180  20.101  34.515  14.451
 8866W        W81181  44.847  41.912   4.540
 8867W        W81182  15.342  16.626   0.993
 8868W        W81183  39.377  30.163  14.376
 8869W        W81184   2.224  21.554   4.051
 8870W        W81185  41.997  11.277  11.303
 8871W        W81186   6.780  15.241   1.317
 8872W        W81187   1.547  31.099  14.898
 8873W        W81188  31.146  43.904   3.736
 8874W        W81189  30.606  21.566   4.692
 8875W        W81190   7.614  13.147  13.607
 8876W        W81191  36.481  25.169   3.570
 8877W        W81192  10.470  15.760   5.069
 8878W        W81193  21.450   6.455   1.192
 8879W        W81194  38.770  31.937   3.205
 8880W        W81195  13.237  42.856  13.067
 8881W        W81196  44.464  34.749   1.204
 8882W        W81197  25.248  19.655  14.730
 8883W        W81198  21.296  27.201   4.640
 8884W        W81199  17.748  36.296   3.259
 8885W        W81200   3.074  34.948  12.170
 8886W        W81201   9.669  34.636   1.318
 8887W        W81202  28.540  43.289  12.956
 8888W        W81203  16.614   7.918   3.267
 8889W        W81204  12.700   0.763  10.646
 8890W        W81205  21.123  11.091   0.929
 8891W        W81206  31.831  13.824   2.173
 8892W        W81207  37.155  42.978  11.545
 8893W        W81208  35.805  23.379   2.445
 8894W        W81209  16.416  10.365   1.937
 8895W        W81210  40.635  25.507   0.527
 8896W        W81211  33.026  21.716  14.507
 8897W        W81212  43.773  29.338   2.526
 8898W        W81213   8.737  18.816  10.698
 8899W        W81214  43.684  25.889   1.449
 8900W        W81215  31.650  30.477   2.265
 8901W        W81216  33.654  30.507  10.590
 8902W        W81217  25.129  22.134   1.714
 8903W        W81218  32.583  21.009  14.322
 8904W        W81219  39.821  27.610  13.519
 8905W        W81220  14.934   7.426  11.154
 8906W        W81221  27.569   4.290  12.874
 8907W        W81222  37.611  18.216   0.489
 8908W        W81223  19.164   3.398   3.595
 8909W        W81224  39.230  12.226   1.715
 8910W        W81225  26.600  18.694   0.994
 8911W        W81226  14.798   9.066   2.694
 8912W        W81227  39.862  43.308  12.899
 8913W        W81228  10.826   0.835   4.380
 8914W        W81229   7.471   9.141   4.098
 8915W        W81230  18.684   2.001   9.893
 8916W        W81231  23.512  36.462  10.726
 8917W        W81232   0.204  35.075   0.501
 8918W        W81233  41.509   6.788  12.007
 8919W        W81234  40.987  20.972  14.345
 8920W        W81235  36.375  19.100  14.511
 8921W        W81236  40.800   5.980   0.276
 8922W        W81237  34.896  40.817   2.867
 8923W        W81238  15.772  31.094   4.656
 8924W        W81239   3.252  44.697  14.963
 8925W        W81240  19.920  23.144   0.779
 8926W        W81241  42.799  42.769   2.305
 8927W        W81242  32.923   2.422   2.750
 8928W        W81243  32.040  21.779  11.623
 8929W        W81244  19.873  20.672   4.480
 8930W        W81245  19.507  43.540  14.017
 8931W        W81246  28.575  31.552  10.165
 8932W        W81247  23.927  22.215   0.264
 8933W        W81248  11.156  27.684   2.386
 8934W        W81249  42.801  18.504   2.730
 8935W        W81250  36.030  19.857   0.086
 8936W        W81251  34.101  15.598  13.356
 8937W        W81252   1.421  13.199  12.591
 8938W        W81253  15.808  16.801   0.248
 8939W        W81254   4.924  41.557  13.509
 8940W        W81255  42.470  36.094   0.758
 8941W        W81256  18.029  39.769  11.531
 8942W        W81257   3.115  18.764   4.833
 8943W        W81258   5.599  34.304  13.840
 8944W        W81259   7.496  44.990  12.817
 8945W        W81260   5.945  29.212  13.813
 8946W        W81261  42.813  10.277   4.829
 8947W        W81262  16.340  36.916  12.844
 8948W        W81263  18.964  30.465   4.416
 8949W        W81264  20.853   6.321   0.949
 8950W        W81265  10.260  15.402  13.602
 8951W        W81266  28.310   7.758  12.856
 8952W        W81267  18.111  17.273  10.743
 8953W        W81268  14.194  25.043  11.193
 8954W        W81269  25.484  11.531  13.359
 8955W        W81270   2.839  42.711  14.815
 8956W        W81271  34.776  10.308   1.251
 8957W        W81272  12.460  37.595  13.408
 8958W        W81273   9.258  38.905   0.765
 8959W        W81274  26.435   2.699  11.417
 8960W        W81275  28.876   3.274  13.361
 8961W        W81276  16.029  27.107   4.191
 8962W        W81277   9.250  33.489  11.994
 8963W        W81278  40.759  20.734  13.102
 8964W        W81279  16.651  35.453  14.280
 8965W        W81280   4.410  14.437   1.945
 8966W        W81281  26.737   9.237   2.818
 8967W        W81282  41.469  34.400   1.017
 8968W        W81283  42.295   2.441   2.425
 8969W        W81284  21.700  19.245  12.433
 8970W        W81285  22.545  10.321   5.081
 8971W        W81286   0.570   9.254  11.283
 8972W        W81287  13.202  33.320   3.424
 8973W        W81288  29.177   3.256   2.310
 8974W        W81289  21.054  20.881   1.285
 8975W        W81290   5.846  44.393   3.805
 8976W        W81291  10.685  42.115   4.119
 8977W        W81292   2.239  27.759   1.317
 8978W        W81293  23.546   8.211   1.279
 8979W        W81294  33.091  30.161   1.828
 8980W        W81295  35.577   8.013   1.839
 8981W        W81296  39.541  43.890  13.366
 8982W        W81297  40.935  13.738  14.413
 8983W        W81298  31.568  43.774  10.453
 8984W        W81299  18.404  30.971   0.744
 8985W        W81300  13.671  17.480  11.523
 8986W        W81301  40.926  14.664   1.716
 8987W        W81302  11.733   3.947   1.225
 8988W        W81303  20.455  44.005  12.795
 8989W        W81304  10.257   5.906  12.122
 8990W        W81305   8.961  42.366  13.938
 8991W        W81306  10.415  31.984  13.413
 8992W        W81307  36.514  41.077  14.386
 8993W        W81308   1.745  20.505   3.395
 8994W        W81309  10.371  14.548  11.591
 8995W        W81310  16.880  25.241  12.503
 8996W        W81311  33.292  25.633  12.473
 8997W        W81312  16.642  35.823  13.923
 8998W        W81313   5.715  18.108   4.247
 8999W        W81314   6.394  32.011  10.567
 9000W        W81315   5.127   2.712   4.287
 9001W        W81316  19.573  32.892   0.163
 9002W        W81317  14.700  16.860  12.536
 9003W        W81318  19.287  23.591   1.743
 9004W        W81319  30.096  27.235   2.395
 9005W        W81320  13.098  34.909   2.203
 9006W        W81321   8.757   0.409   4.694
 9007W        W81322  20.150  29.217  12.142
 9008W        W81323  43.416  12.685   0.529
 9009W        W81324  41.755   5.536  12.531
 9010W        W81325   3.523   3.404  10.819
 9011W        W81326  30.703  14.324  12.531
 9012W        W81327  17.390  38.174  12.124
 9013W        W81328  42.563  40.883  13.991
 9014W        W81329  29.040  26.587  12.932
 9015W        W81330  36.478  17.106  11.687
 9016W        W81331  34.969  23.765   0.826
 9017W        W81332  13.909   2.954  12.436
 9018W        W81333   8.805  19.753  10.720
 9019W        W81334   7.596  27.138  13.399
 9020W        W81335  12.768  32.897   1.648
 9021W        W81336  20.709  41.265  11.029
 9022W        W81337   1.763  35.315  12.750
 9023W        W81338  16.295  16.065  10.892
 9024W        W81339  26.285  30.013   3.188
 9025W        W81340  26.512  44.757  14.445
 9026W        W81341  33.838   0.800  10.802
 9027W        W81342  27.911  40.892   2.669
 9028W        W81343   4.667  19.455  10.958
 9029W        W81344  21.491  11.764  13.455
 9030W        W81345  23.504  29.085   4.112
 9031W        W81346   2.463  42.456  14.419
 9032W        W81347  26.980  31.114   3.579
 9033W        W81348   3.532   0.538   3.934
 9034W        W81349   9.856  38.456  12.194
 9035W        W81350   5.340  31.678   2.973
 9036W        W81351  32.134  18.281   2.709
 9037W        W81352  13.647   3.900   3.808
 9038W        W81353   6.891   9.147  11.188
 9039W        W81354  12.842  24.740  12.842
 9040W        W81355  44.781   8.303   0.963
 9041W        W81356  19.689  15.154   1.383
 9042W        W81357  24.846  31.629   3.764
 9043W        W81358  25.586  28.534  11.878
 9044W        W81359  41.090  42.498   2.859
 9045W        W81360  40.431  41.001  12.871
 9046W        W81361   9.954  41.912   4.627
 9047W        W81362  24.032  19.123  11.481
 9048W        W81363  16.227  27.381   5.518
 9049W        W81364  29.874  15.354  11.542
 9050W        W81365  44.554   9.552   3.627
 9051W        W81366  15.598  38.448   0.056
 9052W        W81367   5.699  32.072   0.778
 9053W        W81368  40.561  31.210   4.093
 9054W        W81369   4.340  37.887   0.367
 9055W        W81370  41.523   2.913   2.262
 9056W        W81371  17.521  23.617   2.318
 9057W        W81372  37.058  34.454  13.536
 9058W        W81373   1.370   7.628  14.540
 9059W        W81374   8.255  41.151  11.096
 9060W        W81375  33.144  24.166  14.736
 9061W        W81376  27.677  15.808   1.300
 9062W        W81377  17.485  25.406   0.371
 9063W        W81378  30.752  25.738   1.269
 9064W        W81379   1.802  42.532  14.832
 9065W        W81380   1.586  42.910   4.131
 9066W        W81381  38.562   1.670  12.409
 9067W        W81382  32.144   5.944  12.877
 9068W        W81383   1.646  16.081  14.435
 9069W        W81384   4.799   5.171   0.237
 9070W        W81385  39.348  37.159   4.862
 9071W        W81386  39.448  31.352   0.322
 9072W        W81387  40.354  22.899  13.656
 9073W        W81388   2.151  36.851   0.875
 9074W        W81389   7.564   5.768   9.770
 9075W        W81390  40.464  32.288  14.483
 9076W        W81391  40.965   5.945  13.610
 9077W        W81392  28.369   8.667   3.792
 9078W        W81393  22.990  24.723  10.604
 9079W        W81394  36.240  32.906   2.419
 9080W        W81395  22.738  22.273   9.575
 9081W        W81396  28.619   3.413  12.931
 9082W        W81397  32.342  25.257  13.774
 9083W        W81398  29.049  15.267   4.430
 9084W        W81399  17.115  39.560  14.056
 9085W        W81400  12.277  16.883   2.288
 9086W        W81401  44.351  38.559  10.078
 9087W        W81402  29.083  23.099   1.891
 9088W        W81403  39.665  41.512   2.673
 9089W        W81404  28.543   5.851   4.991
 9090W        W81405  24.666  26.056  11.815
 9091W        W81406  29.080  40.635   3.757
 9092W        W81407  18.996  26.103   4.768
 9093W        W81408   4.341  19.837  12.157
 9094W        W81409  33.130  17.160   0.802
 9095W        W81410  26.045  14.333  12.507
 9096W        W81411  10.696  41.677   3.152
 9097W        W81412  43.757  16.629   3.738
 9098W        W81413  42.213  21.392  11.496
 9099W        W81414  20.123  36.789  14.687
 9100W        W81415  44.979  38.171  13.481
 9101W        W81416  27.277   8.984  11.090
 9102W        W81417  43.403   2.625  11.651
 9103W        W81418   0.915  20.529   5.077
 9104W        W81419   7.297  11.042   1.489
 9105W        W81420  12.499  41.664  14.814
 9106W        W81421  29.832   0.511  14.532
 9107W        W81422  40.669  30.257  12.081
 9108W        W81423  36.467  17.781   3.265
 9109W        W81424  37.481   7.177   2.501
 9110W        W81425  34.993   7.156  13.975
 9111W        W81426  44.988   2.318  11.098
 9112W        W81427  40.021   6.336  14.958
 9113W        W81428  13.330  17.091  14.993
 9114W        W81429  36.145   8.370   0.045
 9115W        W81430  25.232  32.675  14.418
 9116W        W81431   5.612   5.906  13.936
 9117W        W81432   0.636  15.580  10.267
 9118W        W81433  16.126  20.511  11.885
 9119W        W81434   6.536  33.490   2.815
 9120W        W81435  17.819  12.791  14.817
 9121W        W81436  41.845  30.453  12.553
 9122W        W81437  12.700  43.078  11.027
 9123W        W81438   4.715  19.180   0.779
 9124W        W81439  42.835  16.016   3.705
 9125W        W81440  33.373  31.697  12.576
 9126W        W81441  27.481   4.873   2.186
 9127W        W81442  36.636  23.114  14.790
 9128W        W81443  39.304  14.201  12.579
 9129W        W81444  23.754  20.676   4.263
 9130W        W81445   6.440  17.606  12.926
 9131W        W81446  10.399  13.827   2.292
 9132W        W81447   6.298  32.413  13.106
 9133W        W81448   0.451   8.214   1.795
 9134W        W81449  18.181  37.275  13.479
 9135W        W81450  38.378  16.419  14.786
 9136W        W81451  24.595   1.510   1.271
 9137W        W81452  12.165  21.598   4.890
 9138W        W81453  20.134   2.971   0.048
 9139W        W81454  17.215  35.786  13.558
 9140W        W81455  32.229  41.222  12.524
 9141W        W81456   4.827  19.031  12.449
 9142W        W81457  24.223   8.767   0.481
 9143W        W81458   6.429  29.080  11.928
 9144W        W81459  28.574   4.178  10.240
 9145W        W81460  35.011  25.361  10.127
 9146W        W81461   0.403  11.136  13.269
 9147W        W81462  34.852  28.571   4.502
 9148W        W81463   9.313  37.513   2.375
 9149W        W81464  10.581   3.619  12.676
 9150W        W81465  19.794  43.942   4.588
 9151W        W81466  11.154  37.321  10.757
 9152W        W81467  42.568  43.562   1.255
 9153W        W81468   6.130  22.983  13.533
 9154W        W81469   5.870   5.453  13.999
 9155W        W81470  34.551  10.387  10.590
 9156W        W81471  42.312  16.983  11.078
 9157W        W81472  20.598   7.388   4.481
 9158W        W81473   1.411  21.996   2.668
 9159W        W81474  34.506  39.941   0.779
 9160W        W81475  39.532  37.386  11.957
 9161W        W81476  27.113  16.552  10.481
 9162W        W81477  27.258  38.352   1.847
 9163W        W81478  13.210  44.685  11.519
 9164W        W81479  41.942  26.494   1.255
 9165W        W81480   4.085  28.051   3.393
 9166W        W81481  38.407  24.641  13.345
 9167W        W81482  21.747   7.952   1.336
 9168W        W81483   4.417   8.558  13.407
 9169W        W81484  21.725  25.027   2.322
 9170W        W81485  34.511  15.722   4.561
 9171W        W81486  22.590  39.651   3.718
 9172W        W81487  42.538   5.191   4.635
 9173W        W81488  28.624  42.886  11.142
 9174W        W81489  38.000  32.558  14.134
 9175W        W81490  40.095  33.137   2.573
 9176W        W81491   8.306  27.643  13.165
 9177W        W81492  21.571  26.546   3.256
 9178W        W81493  29.513   6.964  13.930
 9179W        W81494  36.666  26.552  14.032
 9180W        W81495   0.265   8.400  10.993
 9181W        W81496  13.591  15.981  13.490
 9182W        W81497  34.500   9.768  11.354
 9183W        W81498  37.672  11.594  13.214
 9184W        W81499  42.687  20.326  11.157
 9185W        W81500  18.762   1.337   1.286
 9186W        W81501  25.045  32.787   1.907
 9187W        W81502  25.884  37.388   4.706
 9188W        W81503  26.545  28.545   3.247
 9189W        W81504  32.221  24.709   2.468
 9190W        W81505  26.284  29.422  11.022
 9191W        W81506  26.171   4.375   1.347
 9192W        W81507  32.215  31.337   4.805
 9193W        W81508  11.672  27.728  10.422
 9194W        W81509  15.350  35.914   1.960
 9195W        W81510  31.276   7.128  13.533
 9196W        W81511  18.165  23.162   3.179
 9197W        W81512  32.699   3.660  14.453
 9198W        W81513  10.221  31.947   9.845
 9199W        W81514  17.980  39.481   1.705
 9200W        W81515  40.298  22.140   3.296
 9201W        W81516   2.732  32.833  14.983
 9202W        W81517  20.419  32.021   3.691
 9203W        W81518  22.940  42.107   3.200
 9204W        W81519  39.312  25.410   3.802
 9205W        W81520  31.064  34.361  12.313
 9206W        W81521  10.872  35.466   0.399
 9207W        W81522  10.289  22.368  10.369
 9208W        W81523  10.803  21.313  12.848
 9209W        W81524   7.634  24.517   4.467
 9210W        W81525  16.780  39.005  11.867
 9211W        W81526   7.594  22.764   1.785
 9212W        W81527  26.734  25.256  11.940
 9213W        W81528  25.018   4.951   1.410
 9214W        W81529  29.052  35.295  12.433
 9215W        W81530  40.556  23.716   2.912
 9216W        W81531   4.211  15.943   1.838
 9217W        W81532  33.956  39.011  12.146
 9218W        W81533  27.920   7.082  10.084
 9219W        W81534  41.533  25.615   1.663
 9220W        W81535   2.880  26.917  13.516
 9221W        W81536  28.833   2.274  12.941
 9222W        W81537  23.637  30.590   3.100
 9223W        W81538  21.801  39.732   2.785
 9224W        W81539  39.552  44.975   3.802
 9225W        W81540  27.215   1.673  12.336
 9226W        W81541  28.375   6.891  11.513
 9227W        W81542  25.299  37.107   4.821
 9228W        W81543  32.878  18.987   2.410
 9229W        W81544  14.240  20.816   1.769
 9230W        W81545  14.695  29.600   2.770
 9231W        W81546  18.188  36.268  11.406
 9232W        W81547  30.658  26.093  13.083
 9233W        W81548  39.115  24.869  10.350
 9234W        W81549   0.866  29.045   0.583
 9235W        W81550  37.517  31.215  10.791
 9236W        W81551  11.006  28.909  13.395
 9237W        W81552   9.254  36.813   1.638
 9238W        W81553  28.527   3.157  11.545
 9239W        W81554  34.572  24.211  14.894
 9240W        W81555   6.621  19.281   1.850
 9241W        W81556  10.138  18.814  10.706
 9242W        W81557   0.790  42.034   4.734
 9243W        W81558  12.350  16.394  13.901
 9244W        W81559   0.407   5.733   2.825
 9245W        W81560  20.680  16.346  12.551
 9246W        W81561  35.294  26.060  11.139
 9247W        W81562  27.907  44.442   0.611
 9248W        W81563  23.791  24.731  14.954
 9249W        W81564   0.147  36.328   9.826
 9250W        W81565  28.943   5.349   4.457
 9251W        W81566  44.848  21.522  14.389
 9252W        W81567   9.409  20.164  11.190
 9253W        W81568   4.313   8.042  13.383
 9254W        W81569  14.179  19.122  14.154
 9255W        W81570  28.895  44.016   1.502
 9256W        W81571   3.966  42.240   4.696
 9257W        W81572   1.289  22.129  10.786
 9258W        W81573  29.194  14.815  14.158
 9259W        W81574   1.474   7.198   1.961
 9260W        W81575   8.194  16.534   1.941
 9261W        W81576   7.024   1.870   2.332
 9262W        W81577  15.153   5.266   3.356
 9263W        W81578   0.757  30.528   2.117
 9264W        W81579  37.336   2.573   2.615
 9265W        W81580  24.942  38.414   3.226
 9266W        W81581  21.690  37.987  11.902
 9267W        W81582  39.534  40.572  10.677
 9268W        W81583  36.741  43.270   1.343
 9269W        W81584   9.792  11.883  10.730
 9270W        W81585  17.158   3.781  12.956
 9271W        W81586  36.494  26.058  14.910
 9272W        W81587   3.289  22.628   3.948
 9273W        W81588  33.060  30.451   2.257
 9274W        W81589  32.958   0.312  11.104
 9275W        W81590   5.729  23.319  12.615
 9276W        W81591  23.129  28.363   2.154
 9277W        W81592  30.486  38.870   0.196
 9278W        W81593  33.402  30.651  14.851
 9279W        W81594  23.273  17.702  10.691
 9280W        W81595  38.960   8.130   1.774
 9281W        W81596   4.983  41.574   1.243
 9282W        W81597  15.337  14.867  11.075
 9283W        W81598  43.699  23.127   0.388
 9284W        W81599  38.815  39.572  14.282
 9285W        W81600  36.944  32.295   3.656
 9286W        W81601   0.251  20.578   1.731
 9287W        W81602  16.606  34.092  14.583
 9288W        W81603   7.085  15.744   3.180
 9289W        W81604  22.856  25.765  14.795
 9290W        W81605  33.100  36.642  14.367
 9291W        W81606   6.219  41.540   3.151
 9292W        W81607   9.720  29.411  11.075
 9293W        W81608  43.074   6.231  14.240
 9294W        W81609  44.234  25.953   2.958
 9295W        W81610   7.716  13.636  11.526
 9296W        W81611  15.308  42.115   0.697
 9297W        W81612   8.667  14.233   0.780
 9298W        W81613  38.117  33.878  11.994
 9299W        W81614  16.512  18.159   4.821
 9300W        W81615   3.096  35.342  12.967
 9301W        W81616  19.928   7.390   2.371
 9302W        W81617  34.314   4.326  14.828
 9303W        W81618  32.088  12.177   3.747
 9304W        W81619  29.067   6.547  10.103
 9305W        W81620  44.935  25.577   4.674
 9306W        W81621   4.978  24.597  12.024
 9307W        W81622  21.876  17.074  13.374
 9308W        W81623   2.457  40.521   0.553
 9309W        W81624  43.237  36.061   3.295
 9310W        W81625  13.445  34.453   2.835
 9311W        W81626  15.628   9.695   4.316
 9312W        W81627   3.220  37.785   0.907
 9313W        W81628  16.458  25.155  13.446
 9314W        W81629  30.374   7.416  14.971
 9315W        W81630  38.052  10.413  13.625
 9316W        W81631  36.151  17.770   1.360
 9317W        W81632   9.907  27.692   0.024
 9318W        W81633   2.122  17.258   3.844
 9319W        W81634  39.301  44.116   1.350
 9320W        W81635  39.072   4.172  12.412
 9321W        W81636  38.517  44.918   4.553
 9322W        W81637  28.609  22.473   2.320
 9323W        W81638   4.253  22.636  14.436
 9324W        W81639  29.620  36.890  14.245
 9325W        W81640  44.289  39.836  10.489
 9326W        W81641  44.900   7.033  10.796
 9327W        W81642  27.702  16.924   0.372
 9328W        W81643  24.713  22.059  11.178
 9329W        W81644   0.389  18.460  13.590
 9330W        W81645   8.799  29.581   3.922
 9331W        W81646   3.655  34.394  10.389
 9332W        W81647   7.124  37.398   1.780
 9333W        W81648   2.463   6.291  14.473
 9334W        W81649  18.479  35.315  14.358
 9335W        W81650  18.274  37.281   2.409
 9336W        W81651  20.103  29.735  10.768
 9337W        W81652  26.667   4.035  14.647
 9338W        W81653  12.852  13.285  13.929
 9339W        W81654   1.168  34.454  12.805
 9340W        W81655  18.509  32.159   4.255
 9341W        W81656  20.366  33.652  13.422
 9342W        W81657  25.499  31.746  12.411
 9343W        W81658  10.178   4.923  12.416
 9344W        W81659  40.492  36.956   1.925
 9345W        W81660  30.595  17.250  11.690
 9346W        W81661  19.785  14.881   3.363
 9347W        W81662  23.864  19.548   3.715
 9348W        W81663  42.275  25.008   2.948
 9349W        W81664   1.404  31.598  14.913
 9350W        W81665  14.747  43.412   3.194
 9351W        W81666  41.800   7.308   0.235
 9352W        W81667  26.454  26.145   0.340
 9353W        W81668  41.320  14.839   2.018
 9354W        W81669  11.322  14.085  12.955
 9355W        W81670  31.912   2.842   4.813
 9356W        W81671  10.902  30.692  14.404
 9357W        W81672   4.289   8.193  11.407
 9358W        W81673  13.815   8.672  10.625
 9359W        W81674   9.868   6.207   0.385
 9360W        W81675   8.724  39.814   0.687
 9361W        W81676   4.324   0.462   0.324
 9362W        W81677  36.991   2.771   3.363
 9363W        W81678  28.228  34.975   4.215
 9364W        W81679  20.996  16.318   2.242
 9365W        W81680   4.095  22.219  13.064
 9366W        W81681  32.595  33.436  11.200
 9367W        W81682   2.016  23.707   0.779
 9368W        W81683   6.207  28.513  14.073
 9369W        W81684  15.545  12.905   3.183
 9370W        W81685  42.885  11.709  11.064
 9371W        W81686  14.563  36.656   0.410
 9372W        W81687  25.932  14.812   4.473
 9373W        W81688   5.245   7.865  13.873
 9374W        W81689   1.329  31.026  10.632
 9375W        W81690  33.743  43.067  12.654
 9376W        W81691   2.507  17.069   0.240
 9377W        W81692  34.171  37.910   3.687
 9378W        W81693  35.024  37.062   1.236
 9379W        W81694  28.300   0.858   2.765
 9380W        W81695  24.661  40.008  13.826
 9381W        W81696  31.522  35.127  10.890
 9382W        W81697  17.649  37.706   3.675
 9383W        W81698  24.972  17.711  11.200
 9384W        W81699  31.937  17.100  10.661
 9385W        W81700  17.322  17.192  11.101
 9386W        W81701  19.047  11.301  11.938
 9387W        W81702  38.766  28.277   4.298
 9388W        W81703   6.724   1.310  12.091
 9389W        W81704   2.746  34.659   0.783
 9390W        W81705   8.730   6.735  11.608
 9391W        W81706  27.940  42.766   3.174
 9392W        W81707   8.718  32.151  10.260
 9393W        W81708  37.354  38.302  11.662
 9394W        W81709   2.283  38.657  12.525
 9395W        W81710  42.762  38.156  13.884
 9396W        W81711   3.956  23.196   1.843
 9397W        W81712  39.383  20.025  10.624
 9398W        W81713  33.931  10.334   2.560
 9399W        W81714   3.465  40.971  11.381
 9400W        W81715  41.527  18.603  11.990
 9401W        W81716  10.617  33.029   1.273
 9402W        W81717   8.705  16.669   2.413
 9403W        W81718  21.559  40.526   1.924
 9404W        W81719   6.826   6.088  11.929
 9405W        W81720  37.626  31.037  12.122
 9406W        W81721  26.957  43.996   3.982
 9407W        W81722   3.691  11.395   0.886
 9408W        W81723  11.370  30.873  10.522
 9409W        W81724  37.962  44.368  14.787
 9410W        W81725  10.405   1.273   3.729
 9411W        W81726   8.298  25.514  12.563
 9412W        W81727   9.433  30.667   2.711
 9413W        W81728  43.429  21.679   3.845
 9414W        W81729  10.476   3.390   3.256
 9415W        W81730  11.339  36.341  13.986
 9416W        W81731   1.870  10.456   5.034
 9417W        W81732  32.402  11.047  13.436
 9418W        W81733  25.683  34.312  11.984
 9419W        W81734   6.117  20.467  14.050
 9420W        W81735  30.534   3.577   1.942
 9421W        W81736  40.402  42.831   2.097
 9422W        W81737   0.260   7.957   3.387
 9423W        W81738   8.674  40.056   5.278
 9424W        W81739  16.811  44.457   2.244
 9425W        W81740  42.000  33.474   1.799
 9426W        W81741  19.670   4.246  12.125
 9427W        W81742  11.578  21.506  13.866
 9428W        W81743  16.764  27.400   3.299
 9429W        W81744  10.885  33.467  10.755
 9430W        W81745  31.337  31.517  13.459
 9431W        W81746   0.928  13.916   3.174
 9432W        W81747  25.993  44.981  12.170
 9433W        W81748  42.058  17.097   5.005
 9434W        W81749  32.387  32.954   4.561
 9435W        W81750   5.000  20.475  13.368
 9436W        W81751  29.967  28.183   4.413
 9437W        W81752  28.619  33.042  13.048
 9438W        W81753  19.354  25.183   4.265
 9439W        W81754  34.965  29.101   0.604
 9440W        W81755  44.251  22.459   0.573
 9441W        W81756   7.474  31.121  11.588
 9442W        W81757   7.986  24.338  12.907
 9443W        W81758  34.349  19.088   0.625
 9444W        W81759  24.618  28.482   3.326
 9445W        W81760   1.327  39.033  12.566
 9446W        W81761  14.313   7.408   1.319
 9447W        W81762  44.420  23.588   1.263
 9448W        W81763  33.040  22.487  13.780
 9449W        W81764  12.726  16.637   3.082
 9450W        W81765  36.775  35.854  11.618
 9451W        W81766  25.465   5.969   4.768
 9452W        W81767  10.384  28.958   1.804
 9453W        W81768  26.969  32.870   1.690
 9454W        W81769  44.894  21.302  11.017
 9455W        W81770   7.796  24.594  14.206
 9456W        W81771  25.123   9.568   3.622
 9457W        W81772  28.119  10.082  10.616
 9458W        W81773  14.208  16.840   4.088
 9459W        W81774   6.936  24.250   3.782
 9460W        W81775  26.754  31.786   2.705
 9461W        W81776  40.306  35.357  11.502
 9462W        W81777   6.764  41.980  13.417
 9463W        W81778  44.323  39.918  11.534
 9464W        W81779  34.333  17.144   3.280
 9465W        W81780  30.415  36.455  10.608
 9466W        W81781  21.245  20.028  12.444
 9467W        W81782  21.246  33.820   2.857
 9468W        W81783  28.538  23.125   4.053
 9469W        W81784  17.101   3.440  10.146
 9470W        W81785  29.420  24.120  13.892
 9471W        W81786   8.613  19.750  12.922
 9472W        W81787  37.312  34.999  10.671
 9473W        W81788  18.986  44.777   3.214
 9474W        W81789  22.545  17.251   2.677
 9475W        W81790  16.620   1.581  11.412
 9476W        W81791  19.144  26.599  12.950
 9477W        W81792  23.722  35.316  12.504
 9478W        W81793  23.738  11.835   3.255
 9479W        W81794  11.650  12.077   3.993
 9480W        W81795  16.843  32.586   1.930
 9481W        W81796  36.041  12.815   0.926
 9482W        W81797  35.122  16.799  10.367
 9483W        W81798  38.050  26.727  10.119
 9484W        W81799   9.460  13.159  11.154
 9485W        W81800   3.299  13.068  11.487
 9486W        W81801  30.231  38.566  14.829
 9487W        W81802  10.352  13.330  12.029
 9488W        W81803  32.125  39.776  13.613
 9489W        W81804   0.498  26.032   2.387
 9490W        W81805  28.664  40.110  11.578
 9491W        W81806  44.387  28.403  11.338
 9492W        W81807  44.789  42.300   2.376
 9493W        W81808  22.561  40.597  13.801
 9494W        W81809  24.795  35.491  14.297
 9495W        W81810  11.757  12.544  13.693
 9496W        W81811  12.675  36.826  14.454
 9497W        W81812  13.106   6.851  10.647
 9498W        W81813   9.597  25.589   1.939
 9499W        W81814  38.214  16.896  14.871
 9500W        W81815  25.219  28.321   2.207
 9501W        W81816  20.912  43.056  11.838
 9502W        W81817  19.416   1.685   0.720
 9503W        W81818   3.546  15.147   2.227
 9504W        W81819   0.747  37.297   5.127
 9505W        W81820  42.801  10.184  14.765
 9506W        W81821  21.276  25.198   0.337
 9507W        W81822  24.183  14.709  11.473
 9508W        W81823   8.620   4.535   3.374
 9509W        W81824  43.288   8.385   1.671
 9510W        W81825  40.345  16.044   3.508
 9511W        W81826  42.763  42.836  13.495
 9512W        W81827  14.239  27.862   2.189
 9513W        W81828   4.215  35.859  13.140
 9514W        W81829  37.296   8.940  10.650
 9515W        W81830  39.719  14.684   0.925
 9516W        W81831  38.505  10.394   2.507
 9517W        W81832  29.470   7.308   1.697
 9518W        W81833  19.762  13.525  14.300
 9519W        W81834  42.861  18.348  13.590
 9520W        W81835  31.406   5.258   4.563
 9521W        W81836  43.762  44.473   4.565
 9522W        W81837   6.320   5.239  10.535
 9523W        W81838  16.750  12.610  12.108
 9524W        W81839  10.904   0.023   0.803
 9525W        W81840  32.947  11.640   4.617
 9526W        W81841  15.027   0.179  14.543
 9527W        W81842  15.838  21.261  13.399
 9528W        W81843  28.179   9.943  14.541
 9529W        W81844  16.722  19.167  12.863
 9530W        W81845  24.665  10.704  14.247
 9531W        W81846  11.597  44.032   4.290
 9532W        W81847  36.401  14.431  14.768
 9533W        W81848  43.060  22.017  10.782
 9534W        W81849   4.858  12.198   4.564
 9535W        W81850  41.894   5.913  10.727
 9536W        W81851  27.720  31.694  10.378
 9537W        W81852   4.448  21.030  13.995
 9538W        W81853  18.950  41.273  13.542
 9539W        W81854  33.495  35.398  10.700
 9540W        W81855  41.044  30.632  12.080
 9541W        W81856   1.154   8.244   3.256
 9542W        W81857  35.544  20.656   3.622
 9543W        W81858  28.948  18.763   0.727
 9544W        W81859  29.856  18.653   4.109
 9545W        W81860   5.690  11.082  10.889
 9546W        W81861  38.220  13.757   2.125
 9547W        W81862   2.184  30.781  11.199
 9548W        W81863  30.116  15.623  11.170
 9549W        W81864  41.813   7.598  13.323
 9550W        W81865  29.550   4.663   3.376
 9551W        W81866   9.875  21.709  12.988
 9552W        W81867  35.092  33.969  10.353
 9553W        W81868  32.234   7.547   3.209
 9554W        W81869  21.050  24.114   5.012
 9555W        W81870   8.894  14.588  12.467
 9556W        W81871  17.081   2.447  14.488
 9557W        W81872  18.277  31.907   3.731
 9558W        W81873  41.398   6.811   1.825
 9559W        W81874  20.725  23.485   1.815
 9560W        W81875  29.705  16.354  11.350
 9561W        W81876  25.493  17.775   1.195
 9562W        W81877  42.275   3.412   1.287
 9563W        W81878  38.221  38.937  13.305
 9564W        W81879  25.249   5.301  14.458
 9565W        W81880   7.691  11.240  11.693
 9566W        W81881  19.507  37.941   0.505
 9567W        W81882  38.030   0.224   0.402
 9568W        W81883  32.950   9.879  12.303
 9569W        W81884  23.739  43.074  11.882
 9570W        W81885  20.250   4.933  14.953
 9571W        W81886  23.581  20.864   1.398
 9572W        W81887  13.183  33.914  13.735
 9573W        W81888   5.226  19.476   4.014
 9574W        W81889  30.050  23.514   3.043
 9575W        W81890  10.720  26.604  14.800
 9576W        W81891  43.259  18.517  12.449
 9577W        W81892  32.140  27.479  13.450
 9578W        W81893  23.623  30.110   4.398
 9579W        W81894  44.815  39.000  10.699
 9580W        W81895  21.329   1.697   1.290
 9581W        W81896  35.734   9.027  13.992
 9582W        W81897  10.659  22.287  13.307
 9583W        W81898  21.110   8.624  12.086
 9584W        W81899  35.414  17.259  12.914
 9585W        W81900   7.378   5.238  13.910
 9586W        W81901  10.682  34.508   1.325
 9587W        W81902  41.905  43.890  12.155
 9588W        W81903  33.469  36.875  10.530
 9589W        W81904   6.219  34.903   3.086
 9590W        W81905  28.887   5.827  10.997
 9591W        W81906  20.449  44.474  12.569
 9592W        W81907  17.611   6.742   4.356
 9593W        W81908   9.127  23.677  14.119
 9594W        W81909  23.441   2.009  13.575
 9595W        W81910  26.466   5.752   2.356
 9596W        W81911  25.120  18.879  10.717
 9597W        W81912  26.450   4.394  14.950
 9598W        W81913  26.205  19.637  14.387
 9599W        W81914   3.388  29.458   0.424
 9600W        W81915  11.364   7.028  12.427
 9601W        W81916  20.765  11.132  14.377
 9602W        W81917  42.236  19.743   4.170
 9603W        W81918  22.852   1.702   0.290
 9604W        W81919  31.689  43.410   3.279
 9605W        W81920   4.309   5.370   0.282
 9606W        W81921  22.366   6.086   1.326
 9607W        W81922   3.995   1.566  10.000
 9608W        W81923   8.400  14.569  12.560
 9609W        W81924   7.798  30.602  12.013
 9610W        W81925  33.150  15.628   2.344
 9611W        W81926   9.268   2.000   2.773
 9612W        W81927   8.978  41.797   1.455
 9613W        W81928  34.421  42.198  10.734
 9614W        W81929  33.899  39.342  10.827
 9615W        W81930  13.644  11.085   1.997
 9616W        W81931  32.498  36.260  11.198
 9617W        W81932   9.397  24.113  12.798
 9618W        W81933  18.122   4.768  13.347
 9619W        W81934  23.027  43.798  12.908
 9620W        W81935   5.187  22.771   0.722
 9621W        W81936  24.155  24.506   3.060
 9622W        W81937  33.934  31.055  14.478
 9623W        W81938  11.734  28.216  10.602
 9624W        W81939  16.527  26.934  14.999
 9625W        W81940  15.946  40.864  13.415
 9626W        W81941  36.967   1.577   0.931
 9627W        W81942   0.842  27.460   2.708
 9628W        W81943  14.615  21.363  13.435
 9629W        W81944  43.409  18.304  13.550
 9630W        W81945   4.227   0.423   3.193
 9631W        W81946  25.694  13.877  11.204
 9632W        W81947  29.240   2.338   4.256
 9633W        W81948  30.585   5.712  14.530
 9634W        W81949  41.496  43.390   0.550
 9635W        W81950  15.755  22.647   2.420
 9636W        W81951   9.871  13.359   1.902
 9637W        W81952  13.598   1.936  13.043
 9638W        W81953   6.906   1.886  14.285
 9639W        W81954  25.334  30.493   1.273
 9640W        W81955  21.930  36.837  12.385
 9641W        W81956   2.375  20.102   4.576
 9642W        W81957  31.087  15.246   1.513
 9643W        W81958  16.804  29.408   2.153
 9644W        W81959  39.716  13.204   3.327
 9645W        W81960  44.185  37.999  14.894
 9646W        W81961  15.472  16.227   2.364
 9647W        W81962  23.256  12.689   1.352
 9648W        W81963  22.224  32.352   2.846
 9649W        W81964  39.256   4.487   4.219
 9650W        W81965  42.743  26.403   1.894
 9651W        W81966  12.200  43.839  12.459
 9652W        W81967  30.740  20.521  11.653
 9653W        W81968   1.420  26.481   1.345
 9654W        W81969  35.090   4.972  11.904
 9655W        W81970  24.698  38.597  13.582
 9656W        W81971  16.307  28.700   0.250
 9657W        W81972  11.722  16.287  10.157
 9658W        W81973  16.784  28.926  13.455
 9659W        W81974   8.293  40.350   0.364
 9660W        W81975  31.807  12.481  11.204
 9661W        W81976  12.204  37.116  13.389
 9662W        W81977  22.212   9.737  14.878
 9663W        W81978   6.461  19.401  14.246
 9664W        W81979  30.370  37.286  14.531
 9665W        W81980  15.822  41.836   5.024
 9666W        W81981  19.503  27.184  11.618
 9667W        W81982  42.964  33.957  12.915
 9668W        W81983  36.194  10.700   3.288
 9669W        W81984  33.644   9.087  14.877
 9670W        W81985  17.523  21.578  12.079
 9671W        W81986  25.946  40.417   0.265
 9672W        W81987  33.355  43.425  11.761
 9673W        W81988  31.698   0.055  10.876
 9674W        W81989  16.141  18.704  14.529
 9675W        W81990  38.218  14.224  12.475
 9676W        W81991  19.288  24.080   1.951
 9677W        W81992  24.607  31.086  13.825
 9678W        W81993  23.287  43.975  14.869
 9679W        W81994  42.404  41.942   3.908
 9680W        W81995  32.272  31.032  12.188
 9681W        W81996   0.346  17.255   2.386
 9682W        W81997  26.613  31.867   5.559
 9683W        W81998   3.374  38.413   4.151
 9684W        W81999  18.841  27.001  14.920
 9685W        W82000  39.390  35.039  10.869
 9686W        W82001  10.705  27.029  10.254
 9687W        W82002  22.101   6.395  11.022
 9688W        W82003  13.388  26.904  10.277
 9689W        W82004  36.895  31.255   3.669
 9690W        W82005  32.914   2.631   2.263
 9691W        W82006  27.626  35.338   0.063
 9692W        W82007   0.298  38.646   3.661
 9693W        W82008  25.130  18.867   3.729
 9694W        W82009   2.339  32.624  14.308
 9695W        W82010  28.682   3.476   2.309
 9696W        W82011  34.143   4.684   3.900
 9697W        W82012   0.880  20.346  14.186
 9698W        W82013  33.508  15.704   0.362
 9699W        W82014  44.363  44.493  14.906
 9700W        W82015  38.143  26.905   5.190
 9701W        W82016  14.886   3.967  10.692
 9702W        W82017   4.168  11.808  10.468
 9703W        W82018  40.038  35.095   1.760
 9704W        W82019  26.601  42.430   2.247
 9705W        W82020  24.686  13.698  11.631
 9706W        W82021   8.864  32.597  14.937
 9707W        W82022  42.300  30.621   0.247
 9708W        W82023  35.158   5.796  14.049
 9709W        W82024  41.875  43.752   1.185
 9710W        W82025  25.212  32.019   4.626
 9711W        W82026  41.231  28.970  11.982
 9712W        W82027  29.573  22.563   0.332
 9713W        W82028  20.691  24.219   4.204
 9714W        W82029  20.523  38.805   4.213
 9715W        W82030  18.450   1.721   1.477
 9716W        W82031  23.302  35.710  12.480
 9717W        W82032  31.151   4.429  12.735
 9718W        W82033  14.124  40.099   1.414
 9719W        W82034  41.570  11.134   4.871
 9720W        W82035   0.185  16.227  11.094
 9721W        W82036  10.046  34.614   5.153
 9722W        W82037  39.826  37.859   2.293
 9723W        W82038  30.370  38.452  11.574
 9724W        W82039   0.917  38.425  13.324
 9725W        W82040   1.685  33.707   3.375
 9726W        W82041  19.537   6.395   1.357
 9727W        W82042  40.233  23.299   0.439
 9728W        W82043  10.964  40.665  14.034
 9729W        W82044  38.900  21.020   3.405
 9730W        W82045  12.449  36.640   4.435
 9731W        W82046   0.258  15.795   4.655
 9732W        W82047   6.440  22.013   1.461
 9733W        W82048  11.108   7.778   3.359
 9734W        W82049   4.833   6.905  10.251
 9735W        W82050  43.959  29.177  11.550
 9736W        W82051  23.460  27.132  14.571
 9737W        W82052  14.534  40.292   2.788
 9738W        W82053  44.451   1.675  10.254
 9739W        W82054  15.805  24.052  14.922
 9740W        W82055  32.903  40.919  14.394
 9741W        W82056  26.257  24.749   1.729
 9742W        W82057  23.558  23.100  13.923
 9743W        W82058  43.831  17.804   1.921
 9744W        W82059   4.060   1.063   1.856
 9745W        W82060  21.090  24.405   2.592
 9746W        W82061   2.836  12.331   4.606
 9747W        W82062  42.388  42.140   0.223
 9748W        W82063  40.850  14.607   3.726
 9749W        W82064  36.854  29.111  11.201
 9750W        W82065  41.604  26.133  12.672
 9751W        W82066  24.657  15.737  12.561
 9752W        W82067  28.253  41.395  10.341
 9753W        W82068  32.056  43.802   1.114
 9754W        W82069  13.027  12.049   4.163
 9755W        W82070  42.251  20.589   4.346
 9756W        W82071  17.708  44.641   1.913
 9757W        W82072  30.885  16.769   2.474
 9758W        W82073  44.533  38.058   0.744
 9759W        W82074  43.013   6.339  13.724
 9760W        W82075  21.027   9.829  11.627
 9761W        W82076  13.647  16.962  11.480
 9762W        W82077  33.035  43.114  12.474
 9763W        W82078  41.312   9.288  13.804
 9764W        W82079  42.305  13.643  13.617
 9765W        W82080   1.826  21.533  10.683
 9766W        W82081  10.852  40.930   4.871
 9767W        W82082   2.293  33.850  11.551
 9768W        W82083  27.603   3.198   0.869
 9769W        W82084  42.791  18.856  10.726
 9770W        W82085  13.794  25.036  14.730
 9771W        W82086  24.497  21.813   9.899
 9772W        W82087  13.663  12.106  12.196
 9773W        W82088  34.696  26.241   3.225
 9774W        W82089  12.193   4.348   1.790
 9775W        W82090  41.316   4.023  14.449
 9776W        W82091  42.626  27.070   4.559
 9777W        W82092  18.353  40.335  11.532
 9778W        W82093  16.153  14.586   2.801
 9779W        W82094  25.778  38.268  12.326
 9780W        W82095  19.981  44.234  12.634
 9781W        W82096  32.049  13.251   4.574
 9782W        W82097  24.622  30.502  12.616
 9783W        W82098  40.859  33.654  11.600
 9784W        W82099  30.045  30.583   4.561
 9785W        W82100  37.468   8.462  13.423
 9786W        W82101  25.594   5.647   1.905
 9787W        W82102  11.514  41.482   4.230
 9788W        W82103   2.656  42.988   1.941
 9789W        W82104   3.029   6.285  11.161
 9790W        W82105  13.141   6.894   0.933
 9791W        W82106  11.711  34.699   3.593
 9792W        W82107  41.426  34.413  14.532
 9793W        W82108   3.748  21.984  10.321
 9794W        W82109  11.204  15.392  13.424
 9795W        W82110  43.718  41.017  11.000
 9796W        W82111  22.040  10.151  14.245
 9797W        W82112  26.980  37.999  14.829
 9798W        W82113   7.705   4.373   2.397
 9799W        W82114   9.921  40.474   3.312
 9800W        W82115   0.003  43.840   2.407
 9801W        W82116  24.955  40.368   0.185
 9802W        W82117  12.697   3.378   4.039
 9803W        W82118  38.647  33.186  14.421
 9804W        W82119   6.823  21.211   2.757
 9805W        W82120  15.577  29.402  12.965
 9806W        W82121  38.094  43.512  11.502
 9807W        W82122  20.254  14.857  14.974
 9808W        W82123  26.631  12.615   2.832
 9809W        W82124  41.277  33.211   1.420
 9810W        W82125   7.478   7.947   4.207
 9811W        W82126  24.628  17.206   2.355
 9812W        W82127  26.242  20.601  14.948
 9813W        W82128   3.331  11.301  10.766
 9814W        W82129  26.820   8.730   0.970
 9815W        W82130  26.776  15.905   0.046
 9816W        W82131  29.042  27.785  14.813
 9817W        W82132  27.464  17.665   1.227
 9818W        W82133  30.227  18.519   2.764
 9819W        W82134  10.202  30.330   1.798
 9820W        W82135  27.892  31.933  11.940
 9821W        W82136   0.797   0.231  10.658
 9822W        W82137   3.711  37.777   4.615
 9823W        W82138  32.946  33.175  14.310
 9824W        W82139   5.806  13.767   2.643
 9825W        W82140  26.456  34.975   1.395
 9826W        W82141  32.622   1.389   4.496
 9827W        W82142  32.856  16.594  13.323
 9828W        W82143   0.511   9.605   2.455
 9829W        W82144  11.336  30.578   1.943
 9830W        W82145   6.716   8.779   2.186
 9831W        W82146  12.904  17.961  11.176
 9832W        W82147  21.138   1.295  13.840
 9833W        W82148  33.979  26.920   2.159
 9834W        W82149  18.415  19.117  10.701
 9835W        W82150   2.796  27.986   2.179
 9836W        W82151   8.410  17.018   2.096
 9837W        W82152  27.062  28.712   3.296
 9838W        W82153   9.697   7.170  11.037
 9839W        W82154  40.787  31.658   0.052
 9840W        W82155  41.374   9.243   2.321
 9841W        W82156  16.112  22.036  12.104
 9842W        W82157  19.017  13.654  11.929
 9843W        W82158  33.638  14.518   3.614
 9844W        W82159  14.277  23.182  10.731
 9845W        W82160  21.989  39.460   0.432
 9846W        W82161  28.421  16.262   3.984
 9847W        W82162  15.140  23.125   5.046
 9848W        W82163  22.316  37.422   4.328
 9849W        W82164  32.667  43.593  11.097
 9850W        W82165  40.498  28.933  14.532
 9851W        W82166   0.250   0.886  13.314
 9852W        W82167  21.882  23.572  14.634
 9853W        W82168  17.351   7.812   0.719
 9854W        W82169  35.138   3.230   0.197
 9855W        W82170  19.784  17.667  13.002
 9856W        W82171   5.202  14.531  12.452
 9857W        W82172  36.990  14.358   2.835
 9858W        W82173   4.916  22.429  12.100
 9859W        W82174  13.037  17.287   2.677
 9860W        W82175   5.417   3.417   3.120
 9861W        W82176  17.374  40.431  10.644
 9862W        W82177  26.703   4.221   5.464
 9863W        W82178   5.712  21.607   4.479
 9864W        W82179   0.404   3.803  14.207
 9865W        W82180  28.115  12.639   1.637
 9866W        W82181  39.390  28.106   2.796
 9867W        W82182  39.561   3.307  14.011
 9868W        W82183  19.282  27.208  11.158
 9869W        W82184   1.882  38.051  10.833
 9870W        W82185  29.215   0.841  11.919
 9871W        W82186   8.331  30.651   4.739
 9872W        W82187  11.964   6.116   1.908
 9873W        W82188  34.759  11.278  12.032
 9874W        W82189  39.506  20.213   1.336
 9875W        W82190  32.764  21.117  13.825
 9876W        W82191   3.492  15.741  11.189
 9877W        W82192   9.777  17.268  10.466
 9878W        W82193   3.723  34.438  12.883
 9879W        W82194  17.793  37.273  13.875
 9880W        W82195  18.140  27.606   4.715
 9881W        W82196  35.965  27.915  13.046
 9882W        W82197  30.090  28.702  13.650
 9883W        W82198  31.964   7.769   2.819
 9884W        W82199   0.708  29.042   2.978
 9885W        W82200  38.412  37.415   3.686
 9886W        W82201  12.988   5.954  10.433
 9887W        W82202  35.416  25.672  11.929
 9888W        W82203  44.626  27.912  13.643
 9889W        W82204   0.286  42.793   1.272
 9890W        W82205   1.943  27.535   2.683
 9891W        W82206  33.596  37.941  10.963
 9892W        W82207  21.188   3.897   0.809
 9893W        W82208   7.739  11.834   4.795
 9894W        W82209   7.216  36.410  10.353
 9895W        W82210  41.772  27.083   2.816
 9896W        W82211  18.909   7.034   1.300
 9897W        W82212  13.893   6.872  11.864
 9898W        W82213   3.448   8.683   0.347
 9899W        W82214  36.029  19.973   4.117
 9900W        W82215  43.882   5.361   3.920
 9901W        W82216  27.626  12.432  10.680
 9902W        W82217  31.148  30.979  13.436
 9903W        W82218   6.425  27.634  11.324
 9904W        W82219  17.384  38.864   3.133
 9905W        W82220  22.684  22.474   0.645
 9906W        W82221  23.403  44.866  13.937
 9907W        W82222  10.723   7.723   3.046
 9908W        W82223   3.040  39.359  12.402
 9909W        W82224  17.117  38.775  14.427
 9910W        W82225  42.869  13.577  14.433
 9911W        W82226  28.190  12.402   3.458
 9912W        W82227  28.059   7.590   1.384
 9913W        W82228  27.617  30.233  13.689
 9914W        W82229  29.395  29.151   3.102
 9915W        W82230  28.768  15.146   3.108
 9916W        W82231  28.636   9.191   2.667
 9917W        W82232  27.964   2.962  13.453
 9918W        W82233  16.544  13.167  12.894
 9919W        W82234  13.852  44.798   1.431
 9920W        W82235   0.976  28.427  10.452
 9921W        W82236  30.042  22.019  10.603
 9922W        W82237  11.270   4.192   1.339
 9923W        W82238  15.994  25.232   4.534
 9924W        W82239   9.372  34.036   3.262
 9925W        W82240  30.081  41.332  14.076
 9926W        W82241  24.966   9.149   3.199
 9927W        W82242  29.040  40.016  12.406
 9928W        W82243  33.935  20.840   1.751
 9929W        W82244  24.045  29.485   0.831
 9930W        W82245  44.276  16.082   1.742
 9931W        W82246   0.326  27.694  11.342
 9932W        W82247  25.446   0.423   1.630
 9933W        W82248  40.892   1.952  14.556
 9934W        W82249  40.088   9.176  10.734
 9935W        W82250   5.769  40.383   3.785
 9936W        W82251  34.939  23.930   2.257
 9937W        W82252  32.199  10.793   0.703
 9938W        W82253  21.308   1.660   4.267
 9939W        W82254  31.385  13.704   4.112
 9940W        W82255   9.737  25.176   1.148
 9941W        W82256  42.889  29.609   2.271
 9942W        W82257  14.657   1.651  10.980
 9943W        W82258  42.406  12.375  12.541
 9944W        W82259  42.786  36.978  14.303
 9945W        W82260  22.636  39.884   0.023
 9946W        W82261   1.873  14.497   2.331
 9947W        W82262  43.932  15.792   5.055
 9948W        W82263  20.181  39.084   1.288
 9949W        W82264  20.552  44.525  11.625
 9950W        W82265  21.034   2.641  14.045
 9951W        W82266  29.605  37.385   0.997
 9952W        W82267   2.208  44.553   1.815
 9953W        W82268  39.260  35.356   2.654
 9954W        W82269  30.739   1.363  11.147
 9955W        W82270   2.653  37.451  10.746
 9956W        W82271   7.189   9.313   0.276
 9957W        W82272  20.684   1.285   2.989
 9958W        W82273   9.782  16.480   5.500
 9959W        W82274  36.298  39.083  14.349
 9960W        W82275   9.153  12.297  14.326
 9961W        W82276  14.196  21.438  11.998
 9962W        W82277  21.490  39.402   0.223
 9963W        W82278  30.022  40.000  14.485
 9964W        W82279  10.156  16.119  10.659
 9965W        W82280  24.641  14.120  13.661
 9966W        W82281  13.829   5.258  12.960
 9967W        W82282  16.341  38.904   0.257
 9968W        W82283  33.452   7.331   0.063
 9969W        W82284  26.597  44.227   3.706
 9970W        W82285  23.201  35.847  14.940
 9971W        W82286  43.211   1.210   1.257
 9972W        W82287  13.752  34.118  12.458
 9973W        W82288  36.105  26.675  10.655
 9974W        W82289   6.214  17.283  13.689
 9975W        W82290  28.713  23.262  10.790
 9976W        W82291  34.466   6.298   0.968
 9977W        W82292  18.823   2.955  10.491
 9978W        W82293  15.320  36.695   4.759
 9979W        W82294  40.684   4.729   3.660
 9980W        W82295  24.252  32.706  13.035
 9981W        W82296  30.489  25.505  12.026
 9982W        W82297  13.287  22.489  13.922
 9983W        W82298  29.542  33.902   2.886
 9984W        W82299  15.699  41.355   1.619
 9985W        W82300  38.466  10.939  11.634
 9986W        W82301  15.817  22.932  11.235
 9987W        W82302   6.665   7.211   3.005
 9988W        W82303  27.449  25.438   0.793
 9989W        W82304   8.940  43.879  13.800
 9990W        W82305   7.126  18.257  13.437
 9991W        W82306  37.716   0.317   4.515
 9992W        W82307  40.603  23.312   2.591
 9993W        W82308  32.691  18.761  11.998
 9994W        W82309  16.357  42.121   4.228
 9995W        W82310  12.745  26.699   0.402
 9996W        W82311  43.184  25.627  14.593
 9997W        W82312  16.168  36.758  10.572
 9998W        W82313  31.082  21.812  12.568
 9999W        W82314  33.080  25.369   3.725
10000W        W82315   9.169  23.904  11.924
10001W        W82316  16.107  31.589   1.644
10002W        W82317   0.967  33.470  11.089
10003W        W82318  21.076  20.378   1.207
10004W        W82319  43.803  11.478  10.643
10005W        W82320  27.140   9.732   1.883
10006W        W82321  23.101  27.085  14.984
10007W        W82322  19.708  23.516  13.943
10008W        W82323   1.160  15.072   1.017
10009W        W82324  32.940  28.981   3.232
10010W        W82325   9.932   2.753   2.961
10011W        W82326  36.554   1.323  14.299
10012W        W82327   1.867  32.592   4.113
10013W        W82328  42.018  24.664  11.815
10014W        W82329  10.584   1.817   0.322
10015W        W82330  17.266  16.505  14.109
10016W        W82331  44.034  14.321   4.043
10017W        W82332   9.139  40.048  11.723
10018W        W82333  25.941   3.694   3.096
10019W        W82334   2.978  19.817  12.925
10020W        W82335   8.704  19.619  11.196
10021W        W82336  18.581  11.487  11.771
10022W        W82337   5.629  44.368   2.109
10023W        W82338  17.366  44.072  12.006
10024W        W82339  32.545   5.357  11.593
10025W        W82340  33.396  25.784  14.755
10026W        W82341  19.496   4.909   2.813
10027W        W82342  26.071   1.201   4.683
10028W        W82343   7.670  35.663  11.198
10029W        W82344  33.107  37.812   3.585
10030W        W82345  29.398  14.397  13.301
10031W        W82346   2.362  33.406   2.753
10032W        W82347  37.329  35.059   3.711
10033W        W82348   8.229   1.468  11.886
10034W        W82349   7.161  37.012   1.424
10035W        W82350   9.274  26.487  11.550
10036W        W82351  41.287  39.947  14.347
10037W        W82352  19.716  15.254   4.636
10038W        W82353  33.461   6.834  14.407
10039W        W82354  11.709  32.677   3.692
10040W        W82355   1.246  26.126   0.609
10041W        W82356  33.432   2.343   2.791
10042W        W82357   4.552  14.766  14.013
10043W        W82358  18.116  33.087   2.791
10044W        W82359  20.903  13.258   2.380
10045W        W82360  21.627   6.133   2.790
10046W        W82361  19.134   7.616   9.839
10047W        W82362  43.548  35.611   2.658
10048W        W82363  15.427  33.012  12.501
10049W        W82364   2.026  38.398   1.888
10050W        W82365  22.135  33.084  11.622
10051W        W82366   0.699  43.777  13.438
10052W        W82367  29.338  44.392   5.017
10053W        W82368  29.005  40.294  13.947
10054W        W82369  18.720   1.239   3.782
10055W        W82370  13.077  11.870  10.579
10056W        W82371   9.150   6.053   2.289
10057W        W82372  16.079   4.168   4.744
10058W        W82373  28.657  26.265   1.927
10059W        W82374  10.195  20.092   2.643
10060W        W82375  23.998  25.166  10.660
10061W        W82376  32.689  10.300  10.690
10062W        W82377  42.606  23.607  11.330
10063W        W82378  13.457  24.207   4.714
10064W        W82379  30.515  40.109   3.235
10065W        W82380  14.199  41.216   0.757
10066W        W82381  17.352  41.069  11.163
10067W        W82382  35.465  33.843  13.597
10068W        W82383   5.228  22.970   4.433
10069W        W82384  33.079  35.075  14.973
10070W        W82385  36.561  39.348  13.006
10071W        W82386  22.324  26.125   0.210
10072W        W82387  19.001  20.737  10.038
10073W        W82388  41.704   6.377   3.796
10074W        W82389  37.457  19.820  11.317
10075W        W82390  26.008  34.105   9.555
10076W        W82391  17.556  17.109  11.573
10077W        W82392  38.340  36.263  10.892
10078W        W82393   2.897  28.946  14.768
10079W        W82394  44.788  30.334   4.696
10080W        W82395  20.199  34.629   2.225
10081W        W82396  39.053  36.833   4.567
10082W        W82397  22.046  37.624  11.956
10083W        W82398  33.934  30.078   0.370
10084W        W82399  15.212  28.909  10.844
10085W        W82400  20.194  12.326  10.712
10086W        W82401  16.207  38.080   2.657
10087W        W82402   7.923  17.296   4.535
10088W        W82403  31.636  28.426  12.919
10089W        W82404  27.885   8.476   0.440
10090W        W82405  24.021  26.266   3.221
10091W        W82406  43.593  30.408   4.661
10092W        W82407  21.994  11.812  10.299
10093W        W82408  35.976   0.222   0.866
10094W        W82409  14.659  12.223   2.315
10095W        W82410   3.718  30.486   3.200
10096W        W82411  39.456  32.586   1.342
10097W        W82412  37.418   9.770   2.372
10098W        W82413  20.145  30.909   1.978
10099W        W82414  20.577  22.958   4.694
10100W        W82415  12.349  27.617   0.321
10101W        W82416  10.988  29.296   3.707
10102W        W82417  41.036  14.574  11.967
10103W        W82418  10.121  44.934   3.764
10104W        W82419  24.968  20.296   1.793
10105W        W82420  14.755  41.804  12.986
10106W        W82421  15.871  27.442   2.185
10107W        W82422  42.063   4.113  13.034
10108W        W82423  21.352  18.777   1.124
10109W        W82424  34.180  24.051  13.758
10110W        W82425  18.760  27.948  14.485
10111W        W82426   4.353   9.824   4.862
10112W        W82427  29.072  30.439   2.852
10113W        W82428  33.421  31.185  12.552
10114W        W82429  38.367  40.538  12.528
10115W        W82430  15.205  43.235   2.522
10116W        W82431  40.349   7.636   0.826
10117W        W82432  23.811  25.568  12.451
10118W        W82433   0.403  26.966   3.830
10119W        W82434  20.708  28.437   1.391
10120W        W82435  36.183   5.940   3.386
10121W        W82436  40.848  24.244   4.033
10122W        W82437  13.226   1.192   1.017
10123W        W82438  20.988  26.016   2.686
10124W        W82439  25.416  21.463   4.147
10125W        W82440  37.439  32.569  11.033
10126W        W82441  12.680  44.332   4.607
10127W        W82442   2.501  11.751  12.435
10128W        W82443  40.372  26.472  11.003
10129W        W82444  44.479  37.471   5.013
10130W        W82445  26.687  40.351  10.362
10131W        W82446  22.446   4.659  11.492
10132W        W82447   1.413  41.281   3.032
10133W        W82448   1.652  37.016   0.792
10134W        W82449  20.173   2.302  12.206
10135W        W82450  41.563  32.613   2.800
10136W        W82451  17.170   5.831  10.704
10137W        W82452  16.029  37.652  10.457
10138W        W82453  22.309   5.135   4.939
10139W        W82454  10.967  14.219   4.810
10140W        W82455  14.440  21.573  12.996
10141W        W82456  24.499  12.780   4.519
10142W        W82457  43.162  22.646  12.513
10143W        W82458  13.551   6.049   3.678
10144W        W82459  28.087   9.742   4.347
10145W        W82460   7.799   9.797   0.014
10146W        W82461  39.527  36.532  10.746
10147W        W82462  25.667   5.798   3.813
10148W        W82463   0.213  18.552  14.464
10149W        W82464  37.116  37.061  13.831
10150W        W82465  19.312  33.871  10.984
10151W        W82466   1.677   8.530  14.532
10152W        W82467   3.498  15.202  11.522
10153W        W82468  22.161  21.623   4.201
10154W        W82469  19.421  21.352   2.307
10155W        W82470  29.411  23.892   9.794
10156W        W82471   0.007  14.587  11.192
10157W        W82472  36.931   8.908  13.094
10158W        W82473   6.443  17.478   5.007
10159W        W82474   7.826  40.454  14.038
10160W        W82475  12.265  13.294  14.790
10161W        W82476   5.253  32.389  14.951
10162W        W82477  42.545   6.144  12.648
10163W        W82478  32.550  23.688   1.257
10164W        W82479  27.405  40.008   2.595
10165W        W82480  15.812  28.096  10.703
10166W        W82481  29.843  44.898   1.309
10167W        W82482  22.020  27.957  13.616
10168W        W82483   7.131  41.456  11.920
10169W        W82484  29.949  22.224   4.570
10170W        W82485   0.403  32.618  12.565
10171W        W82486  41.043  26.766   4.294
10172W        W82487  21.056  22.475  11.815
10173W        W82488  38.493  22.032  13.841
10174W        W82489  35.143  27.725  14.847
10175W        W82490   5.239  31.960   4.587
10176W        W82491  34.013  39.510  12.341
10177W        W82492   0.779  42.528  10.479
10178W        W82493   2.405   8.492  12.411
10179W        W82494   4.368  22.789  12.422
10180W        W82495  23.511  13.402  11.012
10181W        W82496  39.659  42.285   0.779
10182W        W82497   3.865  20.314  12.898
10183W        W82498   2.286  39.016   2.319
10184W        W82499  19.461  43.003  10.696
10185W        W82500  38.611  38.331  12.134
10186W        W82501  28.963  25.041   0.014
10187W        W82502   9.443  16.370  11.648
10188W        W82503  23.562  36.355  13.795
10189W        W82504  12.471   3.967   1.585
10190W        W82505   5.276  28.454   0.205
10191W        W82506  28.880  38.015   2.819
10192W        W82507  16.211  20.106   4.659
10193W        W82508  22.453  33.485   2.712
10194W        W82509   9.774   2.466  11.083
10195W        W82510   2.710  30.029  10.648
10196W        W82511  16.785  36.547   2.275
10197W        W82512  41.483  43.109  13.018
10198W        W82513  18.855  41.879  11.076
10199W        W82514  25.979   0.976   3.751
10200W        W82515  21.271  43.201   1.051
10201W        W82516  12.300  22.397  10.858
10202W        W82517  42.737  15.808  12.297
10203W        W82518   4.847  26.736   1.405
10204W        W82519   4.914  40.544   3.597
10205W        W82520  36.346  35.514   4.269
10206W        W82521   5.811  35.888  12.500
10207W        W82522  31.269  17.682  13.599
10208W        W82523   3.917  35.845  12.446
10209W        W82524  43.639   3.481  12.644
10210W        W82525   9.648  37.329  14.869
10211W        W82526   1.161  22.192   2.099
10212W        W82527  17.522  16.566   0.185
10213W        W82528  28.098  29.395  10.420
10214W        W82529  42.716  15.783   4.982
10215W        W82530  30.680   3.473   0.428
10216W        W82531  37.869  11.905   1.389
10217W        W82532   1.115   9.373  12.829
10218W        W82533  42.923  22.620   3.588
10219W        W82534  25.443  30.483   3.242
10220W        W82535  21.449  36.115   0.493
10221W        W82536  36.967  25.739  14.070
10222W        W82537   3.302  43.868  14.381
10223W        W82538  36.753  11.543  12.820
10224W        W82539   1.688  15.848  12.640
10225W        W82540   9.718   2.704  14.047
10226W        W82541  16.608  28.523   1.249
10227W        W82542  41.397   5.726   4.872
10228W        W82543  14.762  32.823   4.121
10229W        W82544  10.100   3.450  14.678
10230W        W82545   2.894  36.881   2.925
10231W        W82546  22.578  32.969  13.268
10232W        W82547  11.857  32.023  13.801
10233W        W82548   8.884   8.120   0.751
10234W        W82549  18.935  22.222  11.598
10235W        W82550  22.549  17.225   3.568
10236W        W82551  20.348  41.872   2.572
10237W        W82552  10.502  26.021  10.220
10238W        W82553  36.009  29.423   1.184
10239W        W82554  18.237  16.209  13.376
10240W        W82555  40.024  20.735  11.476
10241W        W82556  30.310  14.774   2.270
10242W        W82557   4.587  38.864  11.073
10243W        W82558  15.245  23.250   3.892
10244W        W82559  33.497  40.282   3.699
10245W        W82560  31.487  22.579   0.341
10246W        W82561  11.124  18.695   1.166
10247W        W82562  28.423  40.663   2.821
10248W        W82563  42.202  36.677  10.939
10249W        W82564  37.066   7.730   0.425
10250W        W82565  28.691  32.613   2.332
10251W        W82566  23.950  40.539  14.112
10252W        W82567  41.231  22.016  10.978
10253W        W82568  39.731   7.577   2.786
10254W        W82569  11.771  11.789  14.400
10255W        W82570  38.015  39.855   2.898
10256W        W82571  28.179   0.376   3.645
10257W        W82572   7.047   5.669   4.339
10258W        W82573  26.188  33.109  11.193
10259W        W82574  36.509  41.642  12.611
10260W        W82575  26.610  14.778  13.892
10261W        W82576   9.640  30.189  11.547
10262W        W82577  14.291  35.114   1.834
10263W        W82578  39.725  23.932   0.007
10264W        W82579  25.440   7.711   1.873
10265W        W82580  39.212  34.998   2.231
10266W        W82581  13.404   8.669   0.543
10267W        W82582  18.059  15.392   0.753
10268W        W82583  28.721  30.560  12.874
10269W        W82584  22.562  20.023  13.256
10270W        W82585  42.552  35.641  13.497
10271W        W82586  15.781   1.342   4.528
10272W        W82587  30.228  11.461  12.576
10273W        W82588  26.332  16.740   2.691
10274W        W82589  22.542  15.817  10.839
10275W        W82590  33.117  29.566  11.057
10276W        W82591  37.436  40.317   0.954
10277W        W82592  40.078  34.007  14.910
10278W        W82593  35.526  21.040   2.109
10279W        W82594  36.765  13.912   2.707
10280W        W82595  44.324  11.637  13.274
10281W        W82596   7.611  27.626   0.766
10282W        W82597  41.976  20.168  11.526
10283W        W82598  36.486  28.714   1.542
10284W        W82599   2.462  40.893   4.707
10285W        W82600  39.059  33.850  11.144
10286W        W82601  23.056   1.473  14.871
10287W        W82602  43.760  30.404   3.724
10288W        W82603  42.750   0.331   2.864
10289W        W82604  35.488  13.217   3.676
10290W        W82605  38.980  11.473   3.412
10291W        W82606  29.050  10.084  11.439
10292W        W82607  24.450  13.381  13.868
10293W        W82608  25.328   0.852   0.909
10294W        W82609  41.497   0.300   3.624
10295W        W82610  39.829  20.705  13.813
10296W        W82611  24.774   4.732   0.986
10297W        W82612  23.827   5.768  11.612
10298W        W82613  39.409  12.079   4.230
10299W        W82614  33.347  39.614   1.740
10300W        W82615   9.662  38.290  10.678
10301W        W82616  19.739   9.874  14.044
10302W        W82617  39.816  10.394   0.689
10303W        W82618   5.411  38.344   1.276
10304W        W82619  44.963  17.660  11.947
10305W        W82620  18.035  40.885  10.653
10306W        W82621  36.674  19.116   0.838
10307W        W82622  21.719  23.360   1.415
10308W        W82623  37.862  37.141   1.702
10309W        W82624  36.379  33.138  11.019
10310W        W82625  27.730  31.493  14.400
10311W        W82626   6.004  12.822   2.250
10312W        W82627  13.343  27.964   2.748
10313W        W82628  26.622  40.366  11.843
10314W        W82629  40.602   4.912   0.271
10315W        W82630  30.933  43.375   2.889
10316W        W82631  27.554  21.963   3.420
10317W        W82632  34.055  25.234  13.885
10318W        W82633   1.386   4.334   0.536
10319W        W82634   6.372  30.934  14.307
10320W        W82635  10.222  15.928   1.871
10321W        W82636  34.479   9.942   4.471
10322W        W82637  37.911   9.835  11.849
10323W        W82638  38.256  43.916  11.175
10324W        W82639  12.390  21.570  12.627
10325W        W82640  27.174  16.308  13.349
10326W        W82641  36.331  38.372   1.270
10327W        W82642  23.317  29.150  12.001
10328W        W82643  17.556  34.374   2.291
10329W        W82644   6.333  26.883   0.813
10330W        W82645  38.359  43.963  12.632
10331W        W82646  29.570  12.318   0.197
10332W        W82647  22.783  42.890  14.693
10333W        W82648   4.881  30.731   1.723
10334W        W82649  29.376  28.115  11.447
10335W        W82650  13.925  17.498   1.856
10336W        W82651  22.237  14.586  10.789
10337W        W82652  38.410  26.569  14.766
10338W        W82653  16.908  23.749  11.050
10339W        W82654   5.771   4.827   0.695
10340W        W82655  31.644   1.828   3.655
10341W        W82656  10.173  17.293   3.307
10342W        W82657  14.799  30.473   2.152
10343W        W82658   4.772   8.615  12.353
10344W        W82659  43.451  28.059   3.984
10345W        W82660   9.934  24.178   3.287
10346W        W82661   3.649  37.966  13.852
10347W        W82662  11.778  17.103  14.298
10348W        W82663  17.839   8.657   0.006
10349W        W82664   7.749  14.580  13.508
10350W        W82665  40.927  29.560   0.865
10351W        W82666  39.765  13.780  14.406
10352W        W82667  34.865  43.363  10.676
10353W        W82668  23.791   6.852  10.679
10354W        W82669  36.346   8.772  12.443
10355W        W82670  38.812  37.948  12.828
10356W        W82671   8.184  38.405   3.902
10357W        W82672  11.312  27.618  12.229
10358W        W82673  40.512  10.270   2.440
10359W        W82674  43.032  13.250   4.144
10360W        W82675  12.830  39.316   3.589
10361W        W82676  16.362   1.245  11.114
10362W        W82677   6.727  16.075  14.967
10363W        W82678  11.178   8.152  14.398
10364W        W82679  22.523   2.813   2.968
10365W        W82680  38.036  15.818  14.404
10366W        W82681  30.089   1.000   4.335
10367W        W82682  43.280  15.311   3.317
10368W        W82683  41.921   5.473   0.415
10369W        W82684  26.758   9.661   0.934
10370W        W82685  11.767  41.407   1.443
10371W        W82686  21.667  36.822  14.643
10372W        W82687  21.059  32.708   3.852
10373W        W82688  26.516   0.761   1.776
10374W        W82689   7.928   0.130  12.570
10375W        W82690  30.341  20.739  13.486
10376W        W82691  18.173  22.492   4.428
10377W        W82692  35.049  44.811   3.726
10378W        W82693  14.460  20.314  11.576
10379W        W82694   1.955  24.629   4.613
10380W        W82695   8.194  35.456   1.848
10381W        W82696   3.319  44.318   3.786
10382W        W82697   3.908  20.375  11.481
10383W        W82698  27.729  20.629   4.449
10384W        W82699  24.676  44.912  12.568
10385W        W82700   6.722  35.180   1.299
10386W        W82701   4.396  31.932   0.490
10387W        W82702  29.606  34.278  13.357
10388W        W82703  41.960  23.756   2.257
10389W        W82704  38.671  36.067  13.420
10390W        W82705  35.593   3.605  11.042
10391W        W82706  12.176  28.457   4.327
10392W        W82707  24.193  35.783   4.036
10393W        W82708  21.241   8.638   2.245
10394W        W82709  24.868   5.290   3.789
10395W        W82710  41.003   8.563   3.165
10396W        W82711  35.608   3.492   0.249
10397W        W82712  20.274  26.457  10.634
10398W        W82713   7.693  17.735  12.036
10399W        W82714  23.633  31.624   0.028
10400W        W82715   4.275  14.548   1.447
10401W        W82716   1.776   4.806  12.615
10402W        W82717   6.118  35.046  14.008
10403W        W82718   4.795  26.878  12.107
10404W        W82719   4.959  43.848   4.094
10405W        W82720  44.565  37.419   0.071
10406W        W82721   1.484  40.539  14.768
10407W        W82722  10.936   9.660   2.717
10408W        W82723   0.293  10.627   0.201
10409W        W82724  25.084  19.491   2.185
10410W        W82725  22.762  13.699   4.237
10411W        W82726  40.305  35.882   1.294
10412W        W82727   6.902  17.577  13.949
10413W        W82728   8.105  37.488  14.783
10414W        W82729  22.314  42.551   4.725
10415W        W82730  43.226  37.462   4.547
10416W        W82731  23.112   8.507  14.437
10417W        W82732  37.560  28.638   1.392
10418W        W82733  43.166   1.288   2.696
10419W        W82734  28.479  35.347  14.468
10420W        W82735  18.299  43.892   1.805
10421W        W82736   6.428  29.863   1.991
10422W        W82737  42.563  10.702   2.155
10423W        W82738  18.564  11.614   2.857
10424W        W82739   9.802  27.272  14.592
10425W        W82740  40.923   6.512   0.372
10426W        W82741  24.762  25.149   2.258
10427W        W82742  18.621  43.606   3.757
10428W        W82743  44.066  41.309   0.439
10429W        W82744  14.561  19.643   1.274
10430W        W82745  25.130  11.069   3.379
10431W        W82746  35.035  11.535   1.811
10432W        W82747  40.027  17.171   2.840
10433W        W82748  36.855  37.956  13.035
10434W        W82749  19.675  26.416   2.179
10435W        W82750   5.281   0.842  14.354
10436W        W82751  43.454  34.079  10.991
10437W        W82752  33.272  39.172   4.025
10438W        W82753  18.195   2.398  11.477
10439W        W82754  22.811   1.646  10.018
10440W        W82755  43.303  14.515  12.587
10441W        W82756  30.163  44.428   2.246
10442W        W82757  42.280  18.341   3.216
10443W        W82758  44.883  36.430  10.272
10444W        W82759  41.560  25.098  13.034
10445W        W82760  42.743  44.831   3.617
10446W        W82761  21.808  27.615   3.572
10447W        W82762  43.532  27.517   1.149
10448W        W82763   2.919  34.435   3.397
10449W        W82764  34.876  42.949   4.507
10450W        W82765  15.173  27.092  11.629
10451W        W82766  44.785  42.437   1.888
10452W        W82767   6.527  24.127   1.733
10453W        W82768  10.148  16.384   0.287
10454W        W82769   3.790  10.743   2.359
10455W        W82770  20.234  29.929  11.728
10456W        W82771  20.175   4.335   1.208
10457W        W82772   6.348   3.878   1.413
10458W        W82773  35.938   2.010   1.341
10459W        W82774   2.850   0.735   3.265
10460W        W82775  16.478   9.679   2.979
10461W        W82776  34.822   3.391   2.244
10462W        W82777  35.914  10.405   3.698
10463W        W82778  37.550  19.103  14.908
10464W        W82779  22.098   4.879   3.299
10465W        W82780  42.532  21.519   3.942
10466W        W82781  41.486  32.030  14.092
10467W        W82782   8.422  37.349   1.382
10468W        W82783   2.891  39.846  10.590
10469W        W82784  17.689  27.476   1.718
10470W        W82785  28.900  44.534   1.670
10471W        W82786  31.921   7.750  10.955
10472W        W82787   6.468   1.068   3.817
10473W        W82788  30.525  12.835  12.519
10474W        W82789   2.542  18.167   4.207
10475W        W82790   5.291  22.908   2.357
10476W        W82791  38.629  15.715   1.418
10477W        W82792  14.857  18.160   4.085
10478W        W82793  16.332  39.692   2.697
10479W        W82794   8.740  44.646  11.561
10480W        W82795   5.830  20.520   3.238
10481W        W82796   5.719  39.300   1.816
10482W        W82797   1.387  27.227   4.088
10483W        W82798  11.236  30.065   3.222
10484W        W82799  34.877   6.842  13.103
10485W        W82800  35.164  32.869  14.202
10486W        W82801   2.234  25.248  10.690
10487W        W82802   0.946   6.657   0.369
10488W        W82803  26.780  28.643  12.329
10489W        W82804  35.410   7.133  14.778
10490W        W82805  26.553  18.720   2.507
10491W        W82806  28.557  44.320   4.713
10492W        W82807  35.161   0.481  13.403
10493W        W82808  29.887   3.052   3.737
10494W        W82809  21.787  24.468   3.599
10495W        W82810  29.188  34.646  13.263
10496W        W82811  17.125   9.908  13.530
10497W        W82812  35.938  25.229  13.933
10498W        W82813  23.505  39.468  11.523
10499W        W82814   8.730   3.779  10.699
10500W        W82815   3.283  16.681  14.548
10501W        W82816   8.905  38.262  10.734
10502W        W82817  21.624   1.799  11.932
10503W        W82818  25.713  33.356  13.802
10504W        W82819  25.090  18.227   3.851
10505W        W82820   3.683  29.031  13.003
10506W        W82821  17.616   4.788  13.520
10507W        W82822  39.536  20.420  11.555
10508W        W82823  18.151  36.959   0.843
10509W        W82824   4.916  23.742  11.543
10510W        W82825  35.084  16.007   1.797
10511W        W82826  38.417  23.707  10.119
10512W        W82827  28.001   9.272   0.514
10513W        W82828  26.989  28.454   2.860
10514W        W82829  37.052   4.463   0.977
10515W        W82830  14.591   4.366   2.366
10516W        W82831  36.793  40.577   0.475
10517W        W82832  17.633   2.948  14.091
10518W        W82833  27.754  11.897   4.086
10519W        W82834   5.838  42.399  11.723
10520W        W82835   0.009  13.826  11.582
10521W        W82836   6.653  10.358   3.322
10522W        W82837  17.226  39.063   2.682
10523W        W82838  30.659   8.405   1.784
10524W        W82839   6.346  33.881   0.754
10525W        W82840  24.134   3.970   1.268
10526W        W82841  41.974  27.003  10.926
10527W        W82842  35.875  23.922   4.610
10528W        W82843   9.803   3.462   0.452
10529W        W82844   7.313  17.950   2.944
10530W        W82845   4.540  16.587  13.578
10531W        W82846  27.327  27.087  14.137
10532W        W82847  12.142  16.792   3.712
10533W        W82848  25.920  17.588   1.462
10534W        W82849  38.438  19.579  12.621
10535W        W82850  34.565  29.815   3.132
10536W        W82851  28.184  38.456   1.146
10537W        W82852  44.383  14.871   4.596
10538W        W82853  19.348  32.007   4.539
10539W        W82854  41.616  14.378  11.551
10540W        W82855   4.640  35.342   1.054
10541W        W82856  34.597  44.709  11.075
10542W        W82857  28.552   7.792   5.045
10543W        W82858  16.772   3.645   0.017
10544W        W82859  15.134  10.866   0.945
10545W        W82860  26.929  41.344  14.773
10546W        W82861  26.176   9.786   2.172
10547W        W82862  30.490  27.200   3.683
10548W        W82863   2.019  31.742  12.475
10549W        W82864  34.747  17.615   0.009
10550W        W82865   1.806  32.354   4.615
10551W        W82866   1.014   6.800  12.878
10552W        W82867  36.631  25.084  10.619
10553W        W82868  21.530  15.317   4.925
10554W        W82869  35.972  25.545  12.369
10555W        W82870   1.717  25.091  14.076
10556W        W82871   0.947  22.439   0.761
10557W        W82872  17.240  21.809  13.118
10558W        W82873  44.466   6.594   4.180
10559W        W82874  25.538  20.047   3.433
10560W        W82875  12.065   2.287  12.576
10561W        W82876  25.498  43.303   2.634
10562W        W82877  16.424  37.662   4.243
10563W        W82878  43.415   7.160  12.425
10564W        W82879  16.407  15.130  14.975
10565W        W82880  31.882  34.940  12.604
10566W        W82881   6.930  23.837   3.474
10567W        W82882  26.004   0.730  11.154
10568W        W82883  37.869  14.726   0.809
10569W        W82884   3.743  38.854  11.680
10570W        W82885  16.607   6.898   0.181
10571W        W82886  27.702  45.000   0.922
10572W        W82887   5.896  31.614  14.772
10573W        W82888  38.455   9.145  13.354
10574W        W82889  44.455  24.165  11.590
10575W        W82890  12.178   2.358  10.677
10576W        W82891  34.688   9.981  12.360
10577W        W82892  24.219  19.632  14.952
10578W        W82893  37.550  19.416  10.290
10579W        W82894  24.906  43.831   0.372
10580W        W82895  15.206  41.563  13.717
10581W        W82896  36.420  28.993   0.157
10582W        W82897  38.741   2.328  10.879
10583W        W82898   5.316  25.101   4.595
10584W        W82899   2.338  30.386   2.613
10585W        W82900  28.026  21.775   2.834
10586W        W82901   2.432  26.743   1.238
10587W        W82902  22.625  37.055   3.219
10588W        W82903  12.136  16.761   1.201
10589W        W82904  17.099  13.780   0.098
10590W        W82905  22.577  10.207  11.418
10591W        W82906   5.410  12.784  11.515
10592W        W82907  21.817   5.147   0.490
10593W        W82908  23.495  25.101  11.682
10594W        W82909  18.700  38.779  12.674
10595W        W82910  11.224  12.551  11.160
10596W        W82911  15.846  24.092  14.075
10597W        W82912   7.794  15.079  14.399
10598W        W82913  14.189  25.986   2.757
10599W        W82914  36.494  15.175   4.837
10600W        W82915  14.575  14.037   3.218
10601W        W82916   8.807   6.164  11.562
10602W        W82917  27.017   2.560  14.425
10603W        W82918   7.255  11.134   0.024
10604W        W82919  23.744  32.063  12.833
10605W        W82920  34.729   3.228   4.224
10606W        W82921   3.859  40.242  11.889
10607W        W82922  26.043   6.814   4.639
10608W        W82923  11.615  30.082   2.866
10609W        W82924  29.141  25.282  12.630
10610W        W82925  35.846  23.529   1.108
10611W        W82926  17.662  20.691   1.345
10612W        W82927  13.397  12.208  13.973
10613W        W82928  33.959  10.547  12.094
10614W        W82929  42.173  17.919   2.286
10615W        W82930  20.944  17.557   0.234
10616W        W82931   7.882   0.416   1.254
10617W        W82932  10.388   9.845   1.436
10618W        W82933  22.262   5.594   1.350
10619W        W82934   4.204  12.321  10.700
10620W        W82935  27.388  19.156   3.372
10621W        W82936  30.958  40.132   4.047
10622W        W82937   4.689  34.904   1.329
10623W        W82938   0.450  16.757   2.337
10624W        W82939   6.673  29.841  11.608
10625W        W82940  36.050  19.766  11.599
10626W        W82941  35.521   6.219   0.181
10627W        W82942  32.273  11.158   3.213
10628W        W82943  24.247  28.643  12.264
10629W        W82944   7.311  25.651   0.928
10630W        W82945  25.083  42.977  14.068
10631W        W82946  15.529  36.140  12.025
10632W        W82947  21.276   3.698   1.900
10633W        W82948  27.564   9.095  13.223
10634W        W82949  22.160  16.977   4.353
10635W        W82950  35.366   1.199   2.010
10636W        W82951   0.804  20.736  11.146
10637W        W82952   8.235  39.519  13.828
10638W        W82953  24.288  42.314   3.799
10639W        W82954   0.958  32.535  14.735
10640W        W82955  12.662   2.021  11.542
10641W        W82956   6.123  27.715   2.365
10642W        W82957   8.374   1.206   0.023
10643W        W82958   0.417  41.043   4.540
10644W        W82959  19.626  28.720  11.609
10645W        W82960  25.930   1.344  12.961
10646W        W82961   6.866  12.571  14.009
10647W        W82962  41.358  16.813  12.515
10648W        W82963  43.323   5.487  13.458
10649W        W82964  38.435  22.226   3.767
10650W        W82965  16.662  16.475   2.740
10651W        W82966  43.945  36.572   1.789
10652W        W82967  18.194  36.494   3.084
10653W        W82968  25.308   5.288   5.206
10654W        W82969  39.108   8.424   3.789
10655W        W82970  34.934   1.496   0.750
10656W        W82971  26.578  22.402  13.329
10657W        W82972  15.734  32.390   1.446
10658W        W82973  27.067   7.661   0.782
10659W        W82974  18.964  35.305  12.020
10660W        W82975  42.914  33.686   1.215
10661W        W82976  15.396  21.952  11.237
10662W        W82977  22.705  20.073   0.652
10663W        W82978   3.696  37.948  13.334
10664W        W82979   1.270  18.564  12.673
10665W        W82980  20.091  33.708   4.837
10666W        W82981  18.726  26.868  13.074
10667W        W82982  41.767  19.766  13.401
10668W        W82983  37.543  31.008   1.212
10669W        W82984  39.018  21.300   0.895
10670W        W82985  34.551  11.716   2.409
10671W        W82986  14.149   7.873   0.435
10672W        W82987  31.440  13.911   0.227
10673W        W82988  42.345  29.596   3.687
10674W        W82989  15.848  40.464  14.434
10675W        W82990  44.991  21.172   3.723
10676W        W82991  42.988  34.844  11.450
10677W        W82992  27.705  24.047  10.611
10678W        W82993  37.335   6.308   3.199
10679W        W82994   6.680   4.384   1.810
10680W        W82995  41.596   4.436  13.850
10681W        W82996  28.169  39.517  10.840
10682W        W82997  17.269   4.953  11.116
10683W        W82998   8.251   5.685   3.211
10684W        W82999   0.748  33.070  12.311
10685W        W83000   2.903  30.668  11.944
10686W        W83001  21.725  40.890  11.281
10687W        W83002  39.591   2.770  14.983
10688W        W83003  38.337  29.559  13.784
10689W        W83004  14.912   6.901  11.099
10690W        W83005  28.978  14.327  12.930
10691W        W83006  18.282   1.814   2.799
10692W        W83007  31.242  35.889   4.282
10693W        W83008  34.642  31.798  14.126
10694W        W83009  30.915   0.469  11.130
10695W        W83010  36.296  11.216   2.549
10696W        W83011   5.891  16.793   1.302
10697W        W83012  31.549  31.425  11.006
10698W        W83013  22.464   0.868  12.143
10699W        W83014  26.073  22.655   3.866
10700W        W83015  42.778  35.644   2.399
10701W        W83016  11.017  27.489  14.974
10702W        W83017  35.823  41.969  11.378
10703W        W83018  32.861  21.008   2.096
10704W        W83019  13.844  40.359  14.431
10705W        W83020  19.974  14.483   4.203
10706W        W83021  36.827  25.567   3.728
10707W        W83022   1.070  43.805  12.546
10708W        W83023  31.398  10.849   0.304
10709W        W83024  13.202  23.307   3.324
10710W        W83025  24.044  22.553  10.099
10711W        W83026   0.360  28.693  12.807
10712W        W83027   0.403   7.672   0.911
10713W        W83028  19.013  11.443  11.453
10714W        W83029  11.185   9.940   4.005
10715W        W83030   9.223   6.215   1.803
10716W        W83031   2.075  33.066  10.600
10717W        W83032   2.359   9.213   3.687
10718W        W83033  34.553  13.169   4.759
10719W        W83034  43.052  35.533  10.562
10720W        W83035  38.989  42.752   3.277
10721W        W83036  37.475   7.177  12.977
10722W        W83037  22.586  16.052   2.305
10723W        W83038  21.241   3.904   3.754
10724W        W83039   9.214   6.310   0.816
10725W        W83040  30.948   7.380   4.526
10726W        W83041  38.467  30.033   4.730
10727W        W83042  28.375   0.418  12.853
10728W        W83043  32.947  38.500   2.152
10729W        W83044  35.718   5.135   0.923
10730W        W83045  10.100  27.510  12.770
10731W        W83046   5.387  15.492  13.828
10732W        W83047   4.848  35.798  12.663
10733W        W83048  35.665  31.487  11.015
10734W        W83049  37.937  27.777   1.800
10735W        W83050  30.866  11.343   0.804
10736W        W83051   9.127   8.565   0.540
10737W        W83052   7.434  33.459   1.326
10738W        W83053  12.376  14.711  13.538
10739W        W83054  10.467  19.818   5.327
10740W        W83055  10.807  24.546   1.457
10741W        W83056  40.409  25.601  12.880
10742W        W83057  32.965  17.703   1.332
10743W        W83058  24.510  14.195   4.216
10744W        W83059  41.812  24.268   2.722
10745W        W83060  40.760   2.877  14.034
10746W        W83061   7.187   8.330   0.344
10747W        W83062  31.063  11.418  14.021
10748W        W83063   5.453   4.281   1.306
10749W        W83064  41.053  17.744   1.447
10750W        W83065  42.363  33.067   3.748
10751W        W83066   2.753  35.512  14.853
10752W        W83067   9.608   6.896   2.720
10753W        W83068  21.677  34.021  11.665
10754W        W83069  24.587  34.896   0.812
10755W        W83070  14.039  18.238  14.295
10756W        W83071  16.124  28.703   3.871
10757W        W83072  14.873  42.004  14.491
10758W        W83073   1.937  22.143  14.618
10759W        W83074  39.447  30.189  13.331
10760W        W83075  28.074  25.587   3.891
10761W        W83076  14.684  44.280  11.084
10762W        W83077  31.192  29.742  11.169
10763W        W83078   6.647  40.343   3.152
10764W        W83079  25.919  41.429  12.149
10765W        W83080   4.776  22.565  14.423
10766W        W83081  20.572  10.664   1.558
10767W        W83082  25.173   0.825  13.140
10768W        W83083   0.772  25.308  13.381
10769W        W83084  36.375  41.936   1.435
10770W        W83085   0.971  32.411   3.125
10771W        W83086   4.852  36.573  11.631
10772W        W83087  15.137   1.319   2.948
10773W        W83088  29.334  10.367   4.144
10774W        W83089  12.288  26.447  14.291
10775W        W83090   1.361  31.178  11.129
10776W        W83091  10.084  10.358  13.568
10777W        W83092   2.709   6.670   1.937
10778W        W83093   1.735  12.270   4.233
10779W        W83094  23.581  21.203   4.967
10780W        W83095   1.731  10.378  13.944
10781W        W83096  30.709  17.605   4.774
10782W        W83097   9.711  20.574  11.103
10783W        W83098  44.238  26.283   3.886
10784W        W83099   5.309   8.382   2.418
10785W        W83100  39.085  12.575  12.451
10786W        W83101  26.146  19.827  12.614
10787W        W83102  19.235   4.681   3.190
10788W        W83103   0.859  28.184   2.110
10789W        W83104   7.325  38.857  10.767
10790W        W83105  15.703  18.356   4.152
10791W        W83106  31.848   9.444   0.269
10792W        W83107  41.399   2.749  13.853
10793W        W83108  42.980  32.542  14.507
10794W        W83109  43.321   0.526  13.371
10795W        W83110   7.326  23.001   1.363
10796W        W83111  17.563  27.306  11.153
10797W        W83112  11.986  35.590  12.486
10798W        W83113  27.080  43.499   2.733
10799W        W83114  40.730  28.378   0.362
10800W        W83115  28.045  20.338   4.178
10801W        W83116  31.505  30.685  11.593
10802W        W83117  33.689  38.085  11.989
10803W        W83118  19.022  13.958   2.204
10804W        W83119  24.636   3.026  11.885
10805W        W83120  36.785   0.035   3.223
10806W        W83121   3.447  40.556   3.413
10807W        W83122  22.736  16.620  13.844
10808W        W83123  41.744   4.708   1.915
10809W        W83124   4.351  38.470   2.614
10810W        W83125  36.418  41.408  11.211
10811W        W83126  29.392   4.792  10.327
10812W        W83127  35.402   0.927  10.453
10813W        W83128  25.938  13.684   2.153
10814W        W83129   2.910   1.542   3.750
10815W        W83130  19.237   8.301   5.008
10816W        W83131   6.372  11.677   3.300
10817W        W83132  19.794  10.190   4.358
10818W        W83133  31.517  17.604  14.762
10819W        W83134  22.134   9.740   0.519
10820W        W83135   2.174  41.078   2.337
10821W        W83136  23.106  40.641  10.872
10822W        W83137  22.277  16.756  12.016
10823W        W83138  44.723  25.985   5.014
10824W        W83139  27.365  32.548   1.506
10825W        W83140  18.492  43.811  14.112
10826W        W83141  44.178  34.444   3.259
10827W        W83142  35.344  24.123  12.373
10828W        W83143  37.400  39.031   4.531
10829W        W83144   1.402   6.789   0.149
10830W        W83145   8.525   2.274  12.989
10831W        W83146  13.744  15.749  12.212
10832W        W83147  34.478  16.960  13.004
10833W        W83148   1.198  25.130   4.533
10834W        W83149   9.294   7.299  12.924
10835W        W83150  22.494   2.208   0.807
10836W        W83151  13.479  39.834   0.352
10837W        W83152  13.370   3.194  13.049
10838W        W83153   3.451  40.109   1.412
10839W        W83154   2.374  39.834  10.777
10840W        W83155  22.960   4.745   1.345
10841W        W83156  32.902  13.658  13.127
10842W        W83157  17.126  28.058   0.190
10843W        W83158  11.425  24.125  11.156
10844W        W83159  29.775  26.652   4.255
10845W        W83160  29.166  34.491   1.623
10846W        W83161  27.033  24.275  12.508
10847W        W83162  25.469  24.572  10.663
10848W        W83163  13.855  23.755   2.874
10849W        W83164  40.992  19.276  11.525
10850W        W83165  12.131  15.845   2.119
10851W        W83166  31.396  25.596  10.612
10852W        W83167  13.211  29.872   4.557
10853W        W83168  10.266  11.025  12.505
10854W        W83169  25.130  44.328  12.028
10855W        W83170  41.672  10.206  14.125
10856W        W83171   4.981  35.530   2.978
10857W        W83172  39.021   1.035   0.886
10858W        W83173  22.347   0.258  13.961
10859W        W83174  34.923   1.701  13.896
10860W        W83175  33.843  27.891  14.731
10861W        W83176  36.016  43.735  12.073
10862W        W83177   8.838  40.949  13.535
10863W        W83178  40.845   8.355   4.067
10864W        W83179   3.768   1.436   0.418
10865W        W83180  42.489  14.055   4.094
10866W        W83181  13.209   0.452  11.889
10867W        W83182   8.778  23.822   3.117
10868W        W83183  39.617  30.140  14.966
10869W        W83184  43.526   2.195  14.900
10870W        W83185  44.928  19.181   0.548
10871W        W83186   4.329  20.840   0.306
10872W        W83187  32.405  44.154   1.435
10873W        W83188  37.666   3.168   3.751
10874W        W83189  44.430  21.644   1.344
10875W        W83190  30.943  27.671  11.531
10876W        W83191  38.758  35.081  13.593
10877W        W83192  31.109  43.200   2.445
10878W        W83193  31.024   8.887  13.828
10879W        W83194  43.102  15.874  11.575
10880W        W83195  35.548  10.423  11.271
10881W        W83196   8.403  17.764  12.462
10882W        W83197  16.505  22.000   2.257
10883W        W83198  13.229  23.988   0.103
10884W        W83199  12.517   0.774   2.110
10885W        W83200   8.133  32.087  14.853
10886W        W83201  30.088   1.264  13.605
10887W        W83202   9.205  11.584   0.406
10888W        W83203  23.010  42.021   1.731
10889W        W83204  23.444   2.428   4.129
10890W        W83205  42.905   4.289   5.052
10891W        W83206  34.041  35.105   4.819
10892W        W83207   3.346  34.976   2.459
10893W        W83208  39.137   8.747   1.295
10894W        W83209  28.159  20.573  11.524
10895W        W83210  10.193  39.558  13.541
10896W        W83211  33.193  25.993   3.209
10897W        W83212  34.593  35.164  12.119
10898W        W83213  21.107  16.054   4.982
10899W        W83214  10.213  11.798   1.230
10900W        W83215  33.926  22.229   2.345
10901W        W83216  13.371  17.223  10.235
10902W        W83217  16.682   7.690  13.821
10903W        W83218  29.574  15.206  10.667
10904W        W83219  33.639  21.702  10.201
10905W        W83220  44.249  23.701  11.705
10906W        W83221  15.737  10.191  14.251
10907W        W83222  10.810   5.388   2.305
10908W        W83223  29.690   5.551   1.724
10909W        W83224  32.183  20.348   4.230
10910W        W83225  11.358  28.411   2.869
10911W        W83226   0.049  16.198  14.497
10912W        W83227  26.483  12.879  11.164
10913W        W83228  35.896  42.079  13.798
10914W        W83229  23.910  18.061   4.656
10915W        W83230  29.160  29.612   1.349
10916W        W83231  44.963   3.817   4.103
10917W        W83232  14.591  14.580  13.939
10918W        W83233  35.068  27.951   4.191
10919W        W83234   9.425  20.049   4.497
10920W        W83235  38.709  23.158  10.684
10921W        W83236  20.367   0.984  14.456
10922W        W83237  24.122  18.150   3.616
10923W        W83238  17.082  35.674   4.995
10924W        W83239  34.203  43.397   4.792
10925W        W83240  14.848  12.693  11.865
10926W        W83241  22.127  43.576  11.527
10927W        W83242  19.229  16.807  12.814
10928W        W83243  32.944   0.395  12.703
10929W        W83244  36.084   6.651  11.185
10930W        W83245  10.645  19.499   4.217
10931W        W83246  42.423  31.642  10.742
10932W        W83247   5.413  28.105   4.652
10933W        W83248  34.630  18.589   2.796
10934W        W83249  40.034  22.954   0.018
10935W        W83250  30.629   9.193  14.747
10936W        W83251  39.403  42.361  11.958
10937W        W83252   2.549  32.907  13.094
10938W        W83253  40.389  37.074   3.348
10939W        W83254  30.688  11.067  10.624
10940W        W83255  35.323  34.458  11.964
10941W        W83256  20.639  38.865   3.124
10942W        W83257  12.718  26.092   3.158
10943W        W83258  19.701  43.288  13.131
10944W        W83259   8.119  27.241  13.453
10945W        W83260  29.858  32.422  13.041
10946W        W83261  26.530   6.333   3.345
10947W        W83262  14.393   3.385   5.047
10948W        W83263   6.219   4.541  14.000
10949W        W83264  43.884  25.779  13.816
10950W        W83265  15.271  39.066   0.332
10951W        W83266   5.624  23.056  13.413
10952W        W83267  23.655  31.965   1.992
10953W        W83268  39.336  28.753  11.874
10954W        W83269  12.676  37.644   2.427
10955W        W83270  26.064  19.539  11.216
10956W        W83271  39.924  18.606  14.762
10957W        W83272  23.306  30.474   4.623
10958W        W83273  39.848   1.848   1.351
10959W        W83274   4.915  20.931   3.805
10960W        W83275  44.508   3.730  10.553
10961W        W83276   1.915  35.901   4.966
10962W        W83277  17.776  22.067   2.671
10963W        W83278  11.238  40.612   1.234
10964W        W83279  30.229  32.241   4.512
10965W        W83280  37.435  37.400   2.116
10966W        W83281  32.423   4.701  13.074
10967W        W83282  22.053  32.483   0.917
10968W        W83283  27.126   2.401  12.524
10969W        W83284  12.601  43.306   4.606
10970W        W83285  25.045  29.061   4.153
10971W        W83286  15.696  29.518  14.405
10972W        W83287   6.336  21.213  12.961
10973W        W83288  39.005  35.199  10.472
10974W        W83289  30.348  26.340  11.107
10975W        W83290  26.135  19.999   1.324
10976W        W83291   5.028  28.024  11.482
10977W        W83292  35.991   9.571   1.284
10978W        W83293  16.593  19.241   3.262
10979W        W83294  15.516  28.627  12.018
10980W        W83295  13.144  14.309  13.805
10981W        W83296  28.525  28.927  11.976
10982W        W83297  28.674  20.249  13.226
10983W        W83298  31.662  15.591  11.575
10984W        W83299  27.629   7.682   2.351
10985W        W83300   7.851  37.805   1.789
10986W        W83301  28.862  30.453   4.979
10987W        W83302  13.066  43.321   4.317
10988W        W83303  13.570  23.032   1.119
10989W        W83304  40.227   4.385  11.530
10990W        W83305  15.091  38.549   2.248
10991W        W83306  26.749   9.641  11.110
10992W        W83307  20.489  32.514   0.177
10993W        W83308  12.183  10.501  11.834
10994W        W83309  23.214  23.564  11.889
10995W        W83310  43.551  42.572  11.981
10996W        W83311   6.353  22.348   0.209
10997W        W83312  21.612  17.935   1.899
10998W        W83313  23.674  42.030   2.642
10999W        W83314  15.703  10.696  13.396
11000W        W83315  12.339   3.816  13.384
11001W        W83316  22.673  17.130  13.528
11002W        W83317  33.392  12.794   5.316
11003W        W83318  37.920  40.309   4.339
11004W        W83319  26.652   9.159  11.911
11005W        W83320  24.120   7.699  13.086
11006W        W83321   9.349  10.371   2.476
11007W        W83322  43.773   6.478   3.027
11008W        W83323  21.068  10.935   4.658
11009W        W83324  14.067  14.616  13.917
11010W        W83325  40.727  12.381   3.313
11011W        W83326   6.167   3.817  10.657
11012W        W83327   3.960   5.869   1.902
11013W        W83328  18.085  13.110  12.883
11014W        W83329  21.905  44.363   3.401
11015W        W83330   7.603  12.333  11.170
11016W        W83331  22.676  29.645   0.187
11017W        W83332  12.320  28.506   1.056
11018W        W83333  12.918   3.033  11.458
11019W        W83334  38.590   8.843  11.024
11020W        W83335  13.278  33.508   0.527
11021W        W83336   4.234  19.220   2.609
11022W        W83337  30.896  20.817   4.270
11023W        W83338  34.747  22.728   0.774
11024W        W83339  28.197  13.056   0.305
11025W        W83340  13.551  41.537  12.162
11026W        W83341  36.825   5.271  12.822
11027W        W83342  22.442  20.117   3.850
11028W        W83343  37.953   3.899   1.393
11029W        W83344  21.157  11.756   1.648
11030W        W83345  36.865   6.856   4.642
11031W        W83346   6.120  21.383   9.950
11032W        W83347  31.711  21.450   3.305
11033W        W83348  34.840  36.871   2.591
11034W        W83349   9.006  41.173  13.076
11035W        W83350  15.323  30.582   1.227
11036W        W83351  14.225  17.151  14.881
11037W        W83352   8.386  18.519  11.911
11038W        W83353  33.892   2.585   4.824
11039W        W83354   4.269  14.135  13.384
11040W        W83355   4.895  34.148   4.881
11041W        W83356  42.392   3.234  14.906
11042W        W83357  29.074  29.057  14.921
11043W        W83358  40.430   2.790   0.448
11044W        W83359  10.251  26.511  14.575
11045W        W83360  36.600   5.010  14.052
11046W        W83361  25.263  33.153  12.882
11047W        W83362  41.462  25.390   2.176
11048W        W83363  15.376  38.431   2.712
11049W        W83364   6.417  44.698   1.963
11050W        W83365  20.128  25.328   0.982
11051W        W83366  32.101  39.494  12.368
11052W        W83367  32.684   8.826   2.274
11053W        W83368  27.915  17.899   1.061
11054W        W83369  20.435  25.065  13.952
11055W        W83370  43.662  29.474  13.254
11056W        W83371  10.789   3.082  10.745
11057W        W83372  27.058  12.285  13.559
11058W        W83373  11.958  14.566   0.804
11059W        W83374  21.552  34.570  11.986
11060W        W83375  28.381  12.649  13.411
11061W        W83376  42.285  39.196   4.094
11062W        W83377  37.271  19.108   1.639
11063W        W83378  30.686  44.033  11.059
11064W        W83379  20.300  32.163   4.181
11065W        W83380  33.414  40.558  10.632
11066W        W83381  18.653  40.039   3.717
11067W        W83382  44.682  32.591   3.301
11068W        W83383  43.765  44.857  13.125
11069W        W83384  44.321  17.576   2.468
11070W        W83385  36.616  39.975   2.747
11071W        W83386  20.305  36.809  13.809
11072W        W83387   0.861   7.441  14.478
11073W        W83388  14.742   3.226   1.871
11074W        W83389  11.439   8.351  13.991
11075W        W83390  43.212  19.694   4.510
11076W        W83391  13.686   7.154  13.535
11077W        W83392   9.901  25.648  13.799
11078W        W83393  42.906  34.527   0.286
11079W        W83394  34.810  16.711   2.262
11080W        W83395  28.648  38.050  10.721
11081W        W83396   6.865  41.462   2.605
11082W        W83397  38.326  11.760  13.503
11083W        W83398   6.779  15.228   2.288
11084W        W83399  34.003  32.855   0.932
11085W        W83400  23.742   0.869   1.700
11086W        W83401  23.614  17.301   0.411
11087W        W83402  15.778  37.462  14.968
11088W        W83403  33.970  15.820   1.263
11089W        W83404  41.452  43.321   0.009
11090W        W83405   0.146  44.021  12.485
11091W        W83406  34.897  20.629  10.965
11092W        W83407  25.135   5.844  13.934
11093W        W83408  27.075  17.172   2.316
11094W        W83409  17.694   8.448   2.805
11095W        W83410  29.484   4.289   1.180
11096W        W83411  28.472  10.907   0.714
11097W        W83412  42.328  44.658   0.230
11098W        W83413  15.246  43.634  10.625
11099W        W83414  14.710  32.981   4.628
11100W        W83415  29.716  23.098  14.547
11101W        W83416  12.278  43.362  14.674
11102W        W83417  11.526  23.068  11.735
11103W        W83418  33.050  10.270   1.614
11104W        W83419  22.162  12.347  13.561
11105W        W83420  28.441  35.890  13.564
11106W        W83421  34.520  33.689   2.918
11107W        W83422   2.487   0.005   2.673
11108W        W83423   8.791  16.020   1.255
11109W        W83424  16.431   2.492  11.203
11110W        W83425  15.528  26.425  12.299
11111W        W83426   6.308  12.865  12.429
11112W        W83427   2.238  24.737  10.645
11113W        W83428   0.076  13.315  13.802
11114W        W83429  21.610   0.522   0.285
11115W        W83430  11.376  12.862  10.758
11116W        W83431   3.790  33.467   3.717
11117W        W83432  16.296  38.886   3.751
11118W        W83433   6.030   8.446   2.911
11119W        W83434   9.140  10.833  11.154
11120W        W83435  37.456   7.589   1.791
11121W        W83436   0.973  26.613   0.393
11122W        W83437  11.723  22.362  10.180
11123W        W83438  43.850  28.578   4.764
11124W        W83439  34.566   2.243   0.897
11125W        W83440  13.846  39.877   2.425
11126W        W83441  33.123  33.232  11.644
11127W        W83442  37.819  36.102  13.142
11128W        W83443  37.290  15.576   2.787
11129W        W83444   9.831   1.783   4.209
11130W        W83445   9.621  10.218  14.800
11131W        W83446  29.477  32.288  14.331
11132W        W83447  32.631  44.987   3.955
11133W        W83448  16.298  12.332   0.961
11134W        W83449  25.469  24.552  14.310
11135W        W83450   1.450  27.680  13.136
11136W        W83451  10.345  23.539  14.853
11137W        W83452  41.979   2.340   3.364
11138W        W83453  25.884  13.925   0.842
11139W        W83454  35.532  17.980  11.043
11140W        W83455  37.515  38.934   4.034
11141W        W83456  22.305  39.905   0.444
11142W        W83457  20.034   9.663  13.332
11143W        W83458  21.902   1.706   2.876
11144W        W83459  32.460  44.743   0.346
11145W        W83460  44.358  16.195  12.564
11146W        W83461  25.988  11.579   0.912
11147W        W83462  25.475  41.270   0.893
11148W        W83463  29.503  37.992  13.891
11149W        W83464  36.110  20.010  12.973
11150W        W83465  42.049  14.777   3.251
11151W        W83466  42.536   1.369  10.613
11152W        W83467  22.295  32.590   3.667
11153W        W83468  12.324   1.686   0.288
11154W        W83469  13.129  17.016  12.845
11155W        W83470   5.233  20.200   2.840
11156W        W83471  21.587  28.109  14.245
11157W        W83472  43.249  17.677  11.545
11158W        W83473   5.287  31.616   2.454
11159W        W83474  14.184  20.772  11.612
11160W        W83475   6.026  21.089  12.515
11161W        W83476   1.930  29.542   0.650
11162W        W83477   0.944  34.928  12.817
11163W        W83478  18.736   5.852   4.543
11164W        W83479   1.113  16.845   0.864
11165W        W83480  10.921  19.673   5.541
11166W        W83481  26.514  14.107   0.261
11167W        W83482   0.882   5.754   3.075
11168W        W83483  34.819   8.171  11.447
11169W        W83484  27.504   3.949   0.442
11170W        W83485  23.237  22.284  13.775
11171W        W83486  29.924  31.146  13.967
11172W        W83487  20.075  28.940  11.224
11173W        W83488  20.128  43.488   3.821
11174W        W83489  32.967  17.656  14.088
11175W        W83490   6.326  40.523   1.138
11176W        W83491  11.779  23.487  14.954
11177W        W83492  18.641  36.604   2.391
11178W        W83493  37.512   7.683  12.932
11179W        W83494  33.098  26.595   4.812
11180W        W83495   9.264  23.725   3.686
11181W        W83496  41.382  40.590  10.780
11182W        W83497  37.657   0.925   3.752
11183W        W83498  29.196  32.678   5.160
11184W        W83499  39.705  29.420  13.456
11185W        W83500  24.539  19.990  14.374
11186W        W83501  36.031  31.173  11.253
11187W        W83502  21.522  21.766   3.742
11188W        W83503  15.352  35.331  11.226
11189W        W83504  26.114  14.286   2.789
11190W        W83505  40.984  31.949  12.468
11191W        W83506  35.652  23.259   0.539
11192W        W83507  10.105  44.481  12.845
11193W        W83508  31.536  28.047  14.741
11194W        W83509  40.318  30.598  13.926
11195W        W83510  21.267  43.814  12.456
11196W        W83511  32.210  13.785   4.459
11197W        W83512   7.726  27.306  11.525
11198W        W83513  19.059  18.588  11.554
11199W        W83514  38.357  13.238   4.184
11200W        W83515  22.099  14.055   0.738
11201W        W83516   3.559  12.324  11.936
11202W        W83517  19.763  22.656  10.684
11203W        W83518  35.038   3.375   3.273
11204W        W83519   5.106  26.273   2.750
11205W        W83520   1.652  35.688   4.212
11206W        W83521  35.506  37.774   2.187
11207W        W83522  34.896  40.850   1.000
11208W        W83523  16.740  20.645   4.767
11209W        W83524  34.050  38.967  11.650
11210W        W83525  44.387  21.663   2.741
11211W        W83526   7.755  13.627  13.437
11212W        W83527  28.636   5.637   2.595
11213W        W83528  32.461  27.189  10.596
11214W        W83529  40.362  14.224  11.937
11215W        W83530   7.951  41.826  14.034
11216W        W83531  28.824  10.587   0.368
11217W        W83532  34.317  33.599  11.911
11218W        W83533  14.159   7.424  13.395
11219W        W83534  33.336  19.574  14.282
11220W        W83535   5.936  44.436  11.469
11221W        W83536  28.628  31.932  11.105
11222W        W83537  31.972  26.267  12.486
11223W        W83538  33.478   2.531  14.895
11224W        W83539  30.554  25.273   1.408
11225W        W83540  39.118   0.903  12.637
11226W        W83541   1.422  15.075   0.358
11227W        W83542  37.617  34.353   1.528
11228W        W83543  18.193   1.700   0.171
11229W        W83544  23.600   8.427  14.310
11230W        W83545  19.116  33.974   2.538
11231W        W83546  22.078  30.756   1.698
11232W        W83547  25.576  28.466   4.231
11233W        W83548   7.765  13.106   3.616
11234W        W83549  14.568   6.692  13.033
11235W        W83550   7.768   5.225  11.746
11236W        W83551  36.982  28.841  12.064
11237W        W83552  35.471  21.187  14.074
11238W        W83553   5.774  24.588  10.667
11239W        W83554  23.468   0.268  11.861
11240W        W83555  43.297  37.313  11.536
11241W        W83556  44.232   2.368  14.416
11242W        W83557  30.136  17.014  13.415
11243W        W83558  43.476   6.972  11.524
11244W        W83559  16.302  30.259   1.425
11245W        W83560  17.732  25.592   4.453
11246W        W83561  26.198  22.281   0.894
11247W        W83562  11.352  15.757   2.684
11248W        W83563   8.764  38.343  12.161
11249W        W83564  33.913  23.099   4.541
11250W        W83565  41.577  23.222   1.993
11251W        W83566  40.084  22.046   3.790
11252W        W83567   7.274  42.248   2.306
11253W        W83568  42.912  12.560  13.389
11254W        W83569  15.692  17.272   2.192
11255W        W83570  35.027  44.856  12.409
11256W        W83571  19.969  18.334   2.614
11257W        W83572  24.269  20.151  13.205
11258W        W83573  19.540  25.186  10.700
11259W        W83574  16.345  14.329   5.075
11260W        W83575  32.042  23.215   3.182
11261W        W83576  28.133  10.207   4.118
11262W        W83577   0.446  34.656   2.341
11263W        W83578  33.546  43.477   4.121
11264W        W83579  23.757  42.048  13.773
11265W        W83580  18.118  30.775   1.492
11266W        W83581  19.698  13.643   3.708
11267W        W83582  15.236  40.035   3.363
11268W        W83583  37.870  32.449  11.297
11269W        W83584  13.257  31.650   1.738
11270W        W83585  43.535  23.891  13.961
11271W        W83586  38.877  18.012   2.265
11272W        W83587  19.530  28.570  12.999
11273W        W83588  12.625  26.500  10.723
11274W        W83589  24.087  36.448  13.451
11275W        W83590  31.424  13.634  14.766
11276W        W83591  36.977   5.480  14.462
11277W        W83592  43.637   9.721  11.508
11278W        W83593  30.011  30.181  13.193
11279W        W83594  37.955  23.170  13.549
11280W        W83595  14.582  37.295  10.666
11281W        W83596  38.447  19.612   2.741
11282W        W83597  10.039   4.205   0.789
11283W        W83598  26.908  44.843   1.294
11284W        W83599  11.704  12.453  13.171
11285W        W83600  27.535  12.074  13.533
11286W        W83601  16.346  23.979   4.920
11287W        W83602  44.657  28.084   1.390
11288W        W83603  37.230  15.979   4.578
11289W        W83604  43.773  31.531  12.505
11290W        W83605  14.715  31.544   2.696
11291W        W83606  40.549  34.386   3.198
11292W        W83607  23.659  31.552  13.527
11293W        W83608  26.763   2.831   5.451
11294W        W83609  13.171  17.194  13.333
11295W        W83610  38.968   7.597   0.264
11296W        W83611  23.553   3.408  11.672
11297W        W83612   2.720  23.073   3.349
11298W        W83613  10.688   3.600  11.681
11299W        W83614  10.587  34.385  14.520
11300W        W83615  35.434  29.152   3.322
11301W        W83616  13.717  43.377   1.022
11302W        W83617  35.495  33.784  11.692
11303W        W83618   6.924  43.971  14.351
11304W        W83619  44.933  12.858  13.600
11305W        W83620   5.737  14.133  10.947
11306W        W83621   3.399  26.567   3.127
11307W        W83622  13.859  44.045  10.971
11308W        W83623   6.384  19.824  12.529
11309W        W83624  24.582   4.353   2.046
11310W        W83625  11.225   5.666  11.964
11311W        W83626   5.688  39.862  11.931
11312W        W83627  28.017   5.151   1.305
11313W        W83628  19.658  41.952  11.428
11314W        W83629  13.782  18.562  10.637
11315W        W83630  18.919  32.920  13.984
11316W        W83631  44.890  23.647  10.561
11317W        W83632  35.087   6.717   1.355
11318W        W83633   1.371   9.605  10.413
11319W        W83634  25.061   2.686  13.034
11320W        W83635  23.373   1.349   0.259
11321W        W83636  34.110   1.378  11.043
11322W        W83637  14.767  24.844  14.481
11323W        W83638  28.712  26.592   2.765
11324W        W83639  18.425  25.160  14.466
11325W        W83640  32.522  17.773  14.359
11326W        W83641  42.459  27.000  13.987
11327W        W83642  28.161  25.660  13.441
11328W        W83643  14.063  32.925   0.596
11329W        W83644  19.386   0.800  12.829
11330W        W83645  30.031  12.338  14.041
11331W        W83646  37.550  23.997   3.109
11332W        W83647  33.613  10.960   4.503
11333W        W83648   3.042  33.096  10.502
11334W        W83649  36.985  39.026  10.555
11335W        W83650   5.797  41.044   1.318
11336W        W83651  30.003  33.621  10.464
11337W        W83652  44.905   4.015   3.136
11338W        W83653  27.966  38.873  13.921
11339W        W83654  35.550  38.167   1.849
11340W        W83655   3.454  23.899   2.026
11341W        W83656  29.515  26.489  12.796
11342W        W83657  24.106  15.591   4.097
11343W        W83658  33.426  28.686   4.063
11344W        W83659  29.174   0.404  12.462
11345W        W83660  18.039  14.858   0.887
11346W        W83661  35.609  40.804   0.942
11347W        W83662  17.186  24.476   3.932
11348W        W83663  16.541  18.322  11.945
11349W        W83664  34.379  14.736   2.497
11350W        W83665   1.349  37.157  12.521
11351W        W83666  40.566  33.325  14.410
11352W        W83667  21.545  27.909  10.060
11353W        W83668  42.796   5.791   3.271
11354W        W83669   1.873  28.157  11.892
11355W        W83670   7.285  41.246   3.274
11356W        W83671  25.648  36.166   2.618
11357W        W83672  34.388  20.008   2.826
11358W        W83673   8.587  30.650   4.252
11359W        W83674  39.510  30.533   2.251
11360W        W83675  22.649   5.347  13.374
11361W        W83676  17.757  32.609   4.555
11362W        W83677   3.282  32.555  13.660
11363W        W83678  23.942  29.592   3.719
11364W        W83679  40.874  39.598   1.809
11365W        W83680  25.453  11.622   0.816
11366W        W83681   0.030  37.879  13.034
11367W        W83682  30.623  20.087  13.053
11368W        W83683   8.550  37.506  11.348
11369W        W83684   8.756  21.563   3.291
11370W        W83685  13.289  19.174   0.816
11371W        W83686  28.547  44.215  10.598
11372W        W83687  38.906  22.102  10.109
11373W        W83688  16.605   1.478  13.562
11374W        W83689  24.016  28.997   0.295
11375W        W83690  27.239   8.559  13.841
11376W        W83691   4.114  30.573  13.827
11377W        W83692  24.378  17.991   1.407
11378W        W83693  40.568  36.048  10.257
11379W        W83694   7.434   5.836  12.062
11380W        W83695  30.692  33.615   4.710
11381W        W83696  28.994   5.951  11.515
11382W        W83697  28.960   7.275   1.952
11383W        W83698  12.488  29.378  11.922
11384W        W83699  21.835  21.241  11.053
11385W        W83700  25.925  35.310  11.955
11386W        W83701   1.774  12.531   1.799
11387W        W83702  36.473  17.829   0.943
11388W        W83703   3.837  17.118  13.952
11389W        W83704  40.784  20.308   2.469
11390W        W83705  33.438  20.528   3.678
11391W        W83706  31.677  42.899   2.239
11392W        W83707  27.403  34.959   3.794
11393W        W83708  25.478  11.823   4.536
11394W        W83709  24.637  37.955   2.435
11395W        W83710  14.132  10.628  10.613
11396W        W83711  44.941   5.954   1.717
11397W        W83712  26.216  24.245   1.893
11398W        W83713  22.959  22.127   0.373
11399W        W83714  34.537   7.715   0.775
11400W        W83715  43.963  44.813  12.656
11401W        W83716  31.635   5.589  11.929
11402W        W83717   2.474   4.401   2.408
11403W        W83718  43.006  35.387   4.221
11404W        W83719   9.394  39.358   3.335
11405W        W83720  35.513   4.489   3.802
11406W        W83721  40.241  29.701   3.157
11407W        W83722   1.664  39.760  13.571
11408W        W83723  15.833  23.559   4.658
11409W        W83724   3.240  33.426   2.767
11410W        W83725  27.163   5.369   4.624
11411W        W83726  30.975   4.955   0.683
11412W        W83727  22.616  11.377  13.044
11413W        W83728  24.779   1.763  12.391
11414W        W83729   9.915  37.615  12.631
11415W        W83730  19.849  19.592   2.314
11416W        W83731  16.061  26.671   1.937
11417W        W83732  11.151  20.975   0.851
11418W        W83733  41.558  14.279  13.611
11419W        W83734  32.245   0.635   5.054
11420W        W83735  44.005  14.836  12.418
11421W        W83736  37.160  28.150  13.352
11422W        W83737  16.053  44.129  11.246
11423W        W83738  15.104  15.741  11.231
11424W        W83739  14.263  32.835   3.821
11425W        W83740  27.958  28.712   4.563
11426W        W83741  31.023  17.657   0.935
11427W        W83742   8.393  35.047  11.265
11428W        W83743  41.764  38.317   3.959
11429W        W83744   2.262  32.510  12.954
11430W        W83745   3.917  21.262  14.536
11431W        W83746  38.809   0.829  14.888
11432W        W83747   5.073   4.742  13.262
11433W        W83748  23.441   1.824  11.188
11434W        W83749  31.591  35.490  13.409
11435W        W83750  40.181   0.431   1.351
11436W        W83751  10.921  29.973  11.212
11437W        W83752  20.647  15.669   1.512
11438W        W83753  17.795  44.792   2.869
11439W        W83754  28.930  38.366   0.389
11440W        W83755  28.937  24.126  12.057
11441W        W83756  17.003  31.178   3.202
11442W        W83757  17.577  32.527   2.971
11443W        W83758   4.695  40.772   2.705
11444W        W83759  13.468  20.604  14.887
11445W        W83760  20.281  13.294   3.347
11446W        W83761  10.158  42.287   1.626
11447W        W83762  43.551  10.938   4.873
11448W        W83763  21.816  11.338  10.791
11449W        W83764  42.255  40.932   1.232
11450W        W83765   7.741   8.901  13.494
11451W        W83766   4.926  41.943  13.126
11452W        W83767  38.151  25.811   0.342
11453W        W83768  39.275  32.455  10.547
11454W        W83769  33.864  19.178   3.673
11455W        W83770  21.525   5.852  14.471
11456W        W83771  23.476  20.209  14.319
11457W        W83772  15.273  14.825   2.363
11458W        W83773   8.441  17.092  12.162
11459W        W83774  17.201  43.469   4.086
11460W        W83775  41.885  37.969  13.088
11461W        W83776  16.051   9.129  12.602
11462W        W83777  37.247  23.761  14.719
11463W        W83778  43.848  11.803  14.915
11464W        W83779   7.276  35.180   1.348
11465W        W83780  24.245  33.023   1.016
11466W        W83781  27.983  23.576  11.083
11467W        W83782  13.058  10.440   3.163
11468W        W83783   5.901  44.452   3.295
11469W        W83784   7.560  13.173  11.369
11470W        W83785   8.735  31.456   4.572
11471W        W83786  38.966  13.340   2.920
11472W        W83787  28.384   5.206  13.951
11473W        W83788  24.102  22.633   1.028
11474W        W83789  38.586  17.720   0.985
11475W        W83790  17.787  38.615   5.311
11476W        W83791  44.000  24.358   0.710
11477W        W83792  14.755  12.040   3.344
11478W        W83793  11.822  23.006  12.136
11479W        W83794  15.090   3.647  13.686
11480W        W83795  37.448  16.208  12.112
11481W        W83796  33.628  38.340   3.104
11482W        W83797   3.724  16.603   0.695
11483W        W83798  23.900   2.465   2.887
11484W        W83799   4.267  27.670  10.650
11485W        W83800  43.508  14.983  12.520
11486W        W83801  29.889  22.291   2.384
11487W        W83802  12.174  13.701  14.436
11488W        W83803   5.875   2.987   0.986
11489W        W83804  32.233  15.589  14.920
11490W        W83805  16.238  43.934   1.663
11491W        W83806  14.849  36.586  11.628
11492W        W83807  42.257  28.924  11.950
11493W        W83808  10.382   2.802  10.863
11494W        W83809  33.398   3.267   1.454
11495W        W83810  20.521  22.295  10.840
11496W        W83811  30.366  17.238   1.803
11497W        W83812  25.715  20.865  13.824
11498W        W83813  24.598   8.759  14.735
11499W        W83814  26.952  19.177   2.468
11500W        W83815  18.715  14.145  13.450
11501W        W83816  25.562  21.497   3.260
11502W        W83817  25.961  10.289   4.135
11503W        W83818  20.617  10.554   5.555
11504W        W83819   7.159  23.220  12.895
11505W        W83820  33.910  14.140  11.664
11506W        W83821  13.802  21.709   1.478
11507W        W83822  39.242  26.054   3.121
11508W        W83823  35.643  13.530   4.085
11509W        W83824  33.214  40.516   1.292
11510W        W83825  38.946  38.613  13.896
11511W        W83826  14.256  43.386   3.754
11512W        W83827   2.525  18.495  14.106
11513W        W83828  32.111  17.029  10.152
11514W        W83829  44.289  37.604   0.859
11515W        W83830  40.331  22.244   1.215
11516W        W83831  15.659   0.903  14.126
11517W        W83832   8.219  17.744   2.694
11518W        W83833  28.675  33.971  13.664
11519W        W83834  24.148  23.038   2.869
11520W        W83835  18.134  18.453  12.005
11521W        W83836   6.020  37.681   4.175
11522W        W83837   5.379  27.551  12.157
11523W        W83838  12.078  39.664   3.380
11524W        W83839  26.928  25.932   0.275
11525W        W83840   0.318  17.001   1.017
11526W        W83841  35.062  26.516  13.299
11527W        W83842  15.587  24.287   5.303
11528W        W83843  31.131  35.072  14.487
11529W        W83844  23.728  37.951  14.018
11530W        W83845  21.314   0.832   2.914
11531W        W83846  22.007  31.642  14.414
11532W        W83847  33.921  36.594   4.314
11533W        W83848  44.360  32.370  12.548
11534W        W83849  23.638  14.753  11.454
11535W        W83850  42.201  25.646   0.641
11536W        W83851   4.557  14.723  14.861
11537W        W83852   8.885  29.363   4.925
11538W        W83853  12.369  11.329   4.516
11539W        W83854   7.585   9.202   2.740
11540W        W83855  37.347   4.695  14.484
11541W        W83856  42.800  15.121   1.337
11542W        W83857  40.595  43.430  13.492
11543W        W83858   3.313   3.887  11.275
11544W        W83859  43.411  22.923   0.005
11545W        W83860  40.129   1.900   1.810
11546W        W83861  41.970   8.476  13.765
11547W        W83862  12.119  36.657  13.640
11548W        W83863  25.282   3.135   4.088
11549W        W83864  18.532  25.222   2.748
11550W        W83865   7.918  39.995   1.757
11551W        W83866  32.033  33.324  12.555
11552W        W83867  22.491  10.666  11.098
11553W        W83868  32.856  41.875  10.627
11554W        W83869  39.770  33.184  11.192
11555W        W83870   2.879  20.312  14.593
11556W        W83871   6.802  15.823  10.682
11557W        W83872   0.197  37.064   4.171
11558W        W83873  30.160  38.575  12.070
11559W        W83874  10.358  39.114  12.396
11560W        W83875  23.571  37.873  10.761
11561W        W83876  26.804  21.558  14.293
11562W        W83877   8.713  26.076  11.578
11563W        W83878  32.148  17.503  10.391
11564W        W83879   2.682  10.815   1.489
11565W        W83880  36.116  34.411   1.341
11566W        W83881   6.142  35.965  13.826
11567W        W83882  19.256  25.102  14.343
11568W        W83883  18.656  13.819   3.701
11569W        W83884  37.634  23.109  10.958
11570W        W83885  18.628  37.884  12.396
11571W        W83886   1.806  36.836  13.476
11572W        W83887  21.069  30.948   4.625
11573W        W83888   7.390  27.065  10.315
11574W        W83889  34.506  35.888   1.157
11575W        W83890   6.788  30.589  14.474
11576W        W83891   5.729  41.977  13.464
11577W        W83892   1.368   8.330   2.750
11578W        W83893   7.117  25.278   3.353
11579W        W83894   2.347  36.746   4.826
11580W        W83895  43.624  19.338   3.303
11581W        W83896  15.593  33.250   0.337
11582W        W83897  32.100  21.269  12.130
11583W        W83898  35.973  42.964   2.783
11584W        W83899  25.872  41.857   3.085
11585W        W83900  44.927  17.077  12.804
11586W        W83901  12.345  40.603   4.125
11587W        W83902  13.872  22.722  11.982
11588W        W83903   9.396  31.377  13.533
11589W        W83904  23.441  31.146  11.237
11590W        W83905  33.555  15.038   3.616
11591W        W83906  37.145  11.377  13.478
11592W        W83907  32.447  35.836   4.502
11593W        W83908  25.309   4.804  12.957
11594W        W83909  15.692   9.842  13.818
11595W        W83910   7.406   8.740   2.915
11596W        W83911  12.222  32.674   3.752
11597W        W83912  21.065  27.363   2.279
11598W        W83913  13.280  30.780   0.785
11599W        W83914  16.755  25.634  12.832
11600W        W83915   1.104  41.651   4.597
11601W        W83916   1.588  20.781   2.501
11602W        W83917   2.540  29.823   4.571
11603W        W83918  20.943  22.835  14.333
11604W        W83919  23.266  20.991  10.305
11605W        W83920   3.957  19.545   4.600
11606W        W83921  12.839   3.933  13.404
11607W        W83922  17.266  43.358   2.106
11608W        W83923  32.994   7.286   0.331
11609W        W83924  17.481  43.804  13.899
11610W        W83925   2.731   4.229   2.899
11611W        W83926  13.355  28.706   2.523
11612W        W83927  10.233  21.271  14.038
11613W        W83928   7.858  27.411   0.393
11614W        W83929  11.646  36.436  12.244
11615W        W83930   7.283   9.374  12.482
11616W        W83931  28.096  30.968   0.408
11617W        W83932  14.892  29.452   4.145
11618W        W83933  40.740  40.767   1.188
11619W        W83934  41.768  36.181  13.580
11620W        W83935  44.770  28.449  13.474
11621W        W83936  21.206  10.055   0.351
11622W        W83937  39.273  20.774   4.194
11623W        W83938   7.917  29.566   3.785
11624W        W83939  13.233  21.300   4.227
11625W        W83940  24.553  31.124  13.298
11626W        W83941  33.955   8.253  10.889
11627W        W83942  30.651   7.620  12.588
11628W        W83943  30.026  38.061  12.064
11629W        W83944  35.925   0.721  12.956
11630W        W83945  25.988  28.646  13.003
11631W        W83946  16.394  22.517  14.498
11632W        W83947  14.907  19.906  11.162
11633W        W83948  36.921   2.740   2.856
11634W        W83949  14.084  37.818  14.029
11635W        W83950  18.148   9.508  11.135
11636W        W83951   8.375  18.777   1.870
11637W        W83952  44.241   8.314   4.099
11638W        W83953   5.331  34.136  13.420
11639W        W83954  20.139   6.483  10.791
11640W        W83955  39.718  32.155  14.286
11641W        W83956   6.791  29.006   3.099
11642W        W83957   8.388   4.581  12.886
11643W        W83958  32.882  23.081   3.845
11644W        W83959  36.848   6.934   3.600
11645W        W83960  42.914  34.229   3.235
11646W        W83961   8.745  18.536  14.321
11647W        W83962   1.283  25.709   2.345
11648W        W83963  11.603   9.843  11.384
11649W        W83964  27.249  35.045   0.820
11650W        W83965   2.850  40.449  14.710
11651W        W83966  25.097   2.498  12.542
11652W        W83967  31.076  23.719   2.286
11653W        W83968  15.310  33.552  11.942
11654W        W83969  23.504  40.927  14.331
11655W        W83970  17.565   2.499   2.804
11656W        W83971  38.376   8.207  14.970
11657W        W83972   2.749  17.708   4.913
11658W        W83973  24.249  22.691   3.274
11659W        W83974   1.330  44.588   1.932
11660W        W83975  44.255  35.407   4.796
11661W        W83976  38.751   3.424   1.258
11662W        W83977  13.709   5.726   4.489
11663W        W83978  26.985  40.094  11.527
11664W        W83979  41.171  40.237  11.085
11665W        W83980  41.560  28.719   3.181
11666W        W83981   7.785   3.790   1.339
11667W        W83982  10.672   2.385  11.440
11668W        W83983  24.510  35.420  13.866
11669W        W83984  36.081  22.670  13.393
11670W        W83985  10.714  33.099   3.583
11671W        W83986  39.878  23.316  12.494
11672W        W83987  24.752   6.098  13.322
11673W        W83988  12.599   2.884   4.214
11674W        W83989  28.199  30.453  11.998
11675W        W83990   7.166  12.229   4.032
11676W        W83991  21.185  23.101   1.193
11677W        W83992  36.869  40.334  11.594
11678W        W83993  25.149   5.607  14.877
11679W        W83994  34.056   2.316   0.947
11680W        W83995  18.866  11.861   5.179
11681W        W83996  29.926  35.029  12.824
11682W        W83997  22.311  36.879  13.261
11683W        W83998  18.671  40.614  11.200
11684W        W83999  40.305  18.784  12.072
11685W        W84000  13.092  10.251   4.096
11686W        W84001  32.405  13.472   1.336
11687W        W84002  28.012   2.607  12.023
11688W        W84003  13.774  33.624  11.143
11689W        W84004   1.972  38.390  14.793
11690W        W84005  10.879   1.252  12.991
11691W        W84006   6.761  39.844  12.521
11692W        W84007  25.749   4.294   3.262
11693W        W84008  24.073  16.322  14.589
11694W        W84009  19.928  31.207  11.782
11695W        W84010  38.135  40.144   3.291
11696W        W84011  32.456  30.496  13.615
11697W        W84012  14.624  19.298  12.547
11698W        W84013  41.047  13.115  12.765
11699W        W84014  25.729   9.152  13.429
11700W        W84015   1.395  20.115   3.280
11701W        W84016   2.447  10.261  14.532
11702W        W84017  39.404  16.886   4.674
11703W        W84018  33.020  32.579   4.461
11704W        W84019  38.476  14.682  12.622
11705W        W84020  35.499  28.481   1.907
11706W        W84021   9.840  11.187   0.851
11707W        W84022   0.007  41.887  13.436
11708W        W84023   1.024  37.104  11.534
11709W        W84024   0.291  20.990   3.337
11710W        W84025  10.154  37.633   3.159
11711W        W84026   9.925  33.685   1.153
11712W        W84027  40.633  37.738   0.722
11713W        W84028  22.061  17.222  11.933
11714W        W84029   6.777  42.268   5.152
11715W        W84030   8.184  14.675   2.241
11716W        W84031   4.861  26.796  14.937
11717W        W84032  18.210  37.566  10.223
11718W        W84033   6.708  19.111   2.876
11719W        W84034  12.925   1.342   1.460
11720W        W84035  40.881  16.917  10.675
11721W        W84036  12.686  40.575  13.837
11722W        W84037  11.417  37.566  13.316
11723W        W84038  12.630  30.121   4.841
11724W        W84039  11.145   8.718   4.668
11725W        W84040  34.413  13.197  14.797
11726W        W84041   8.432   4.675   2.526
11727W        W84042  11.418   8.873   2.680
11728W        W84043  21.973  40.055  12.096
11729W        W84044  28.340  40.990   2.384
11730W        W84045   6.453   8.150   1.979
11731W        W84046  20.665   7.068  12.124
11732W        W84047  30.992  35.549  14.684
11733W        W84048  19.181   7.830  14.805
11734W        W84049  39.523  35.804   2.616
11735W        W84050  38.421  33.581  12.364
11736W        W84051  28.017  21.047  11.644
11737W        W84052   3.676  39.613   3.701
11738W        W84053  26.880  29.117   1.345
11739W        W84054  41.565  32.290   0.556
11740W        W84055   6.385  29.101  14.055
11741W        W84056  24.732  33.638  13.595
11742W        W84057  35.672  29.444   0.223
11743W        W84058   4.879  38.473  12.034
11744W        W84059  40.417  25.962   0.843
11745W        W84060  26.592  37.794  10.566
11746W        W84061  35.121  42.230   0.965
11747W        W84062   6.345  32.480   0.026
11748W        W84063   4.868  17.674  12.366
11749W        W84064  31.022  22.153  11.025
11750W        W84065  21.252  26.667  10.672
11751W        W84066  37.990  35.864   3.910
11752W        W84067  30.421  15.605  14.853
11753W        W84068   5.411  41.991   3.602
11754W        W84069  32.673  30.063   2.179
11755W        W84070  16.243  22.741  11.437
11756W        W84071  22.190  16.160  13.308
11757W        W84072  16.377  32.957   0.395
11758W        W84073  37.670  24.255   5.182
11759W        W84074  34.320  33.412  14.413
11760W        W84075  17.738  23.194  12.553
11761W        W84076   1.222  31.466  11.534
11762W        W84077  13.564  44.342   0.237
11763W        W84078  12.157  36.323  12.979
11764W        W84079  34.340  16.302  11.269
11765W        W84080   8.982  14.056   1.177
11766W        W84081  32.651   5.445   3.207
11767W        W84082  22.028  11.552   3.271
11768W        W84083  36.105  16.757  11.724
11769W        W84084  34.789  43.427  12.245
11770W        W84085  21.573  32.738   0.792
11771W        W84086  31.878  17.745   3.588
11772W        W84087  33.714  27.964   3.585
11773W        W84088  29.712  27.720  12.064
11774W        W84089  27.888  41.512  12.015
11775W        W84090   6.776  38.481   1.862
11776W        W84091  25.669  30.909   1.167
11777W        W84092  33.709  41.647   4.175
11778W        W84093  21.845  16.505  10.675
11779W        W84094  38.619   3.177  13.961
11780W        W84095  14.164  39.741  11.589
11781W        W84096   4.938  37.863   2.268
11782W        W84097  20.058  35.859   2.663
11783W        W84098  36.111  32.426  11.691
11784W        W84099  29.899  30.979  11.779
11785W        W84100  22.512  30.951   1.486
11786W        W84101  26.917  12.588  12.773
11787W        W84102   4.517  33.035   3.348
11788W        W84103  43.512   0.316  12.427
11789W        W84104   8.278  21.447   4.247
11790W        W84105   8.145  11.110  14.953
11791W        W84106   4.006   2.220  12.889
11792W        W84107  22.550   5.683  11.446
11793W        W84108  15.345  15.752   4.123
11794W        W84109  41.506   3.459   3.669
11795W        W84110   3.736  36.153  11.123
11796W        W84111  36.462  22.187   4.087
11797W        W84112  37.071  30.612  13.383
11798W        W84113  12.720  17.098   0.715
11799W        W84114  23.459  18.515  13.163
11800W        W84115  40.834   9.026   3.328
11801W        W84116  43.429  23.842   0.401
11802W        W84117  31.965  42.402  12.712
11803W        W84118   9.777  10.902  12.406
11804W        W84119  21.810   6.386   0.691
11805W        W84120   2.059  34.834  14.766
11806W        W84121  39.411  31.524   3.577
11807W        W84122   3.783  44.887  11.212
11808W        W84123  21.769  38.975   0.307
11809W        W84124  10.663   2.407   2.346
11810W        W84125  14.692  21.673  11.685
11811W        W84126   9.491  36.824   3.975
11812W        W84127   5.460   3.193  13.876
11813W        W84128   5.768  42.284   0.736
11814W        W84129  14.537  32.092  12.131
11815W        W84130  38.273  33.472  13.317
11816W        W84131  22.587  18.290   3.233
11817W        W84132  19.964  39.014  13.301
11818W        W84133   4.638   1.154  14.162
11819W        W84134  25.302  25.654  12.838
11820W        W84135   1.025  19.620   4.080
11821W        W84136   3.186   4.698  14.441
11822W        W84137  18.544  41.560   1.809
11823W        W84138  30.611  41.997  12.629
11824W        W84139   6.934  38.040   3.397
11825W        W84140  23.074   0.833  11.438
11826W        W84141  10.849   7.016   0.662
11827W        W84142   7.386   6.314   0.796
11828W        W84143   5.280   3.838  12.556
11829W        W84144  15.659  23.622  13.921
11830W        W84145  14.579  24.201  10.932
11831W        W84146  27.348  13.416  10.494
11832W        W84147   3.402   6.971   4.045
11833W        W84148  42.047  20.134   4.460
11834W        W84149  18.095  23.932  14.799
11835W        W84150   4.329  38.401   1.239
11836W        W84151  39.056  39.876   2.901
11837W        W84152  26.653  24.792  12.922
11838W        W84153  39.319  14.183  13.950
11839W        W84154  27.010  33.044   2.686
11840W        W84155  14.784  19.994   4.228
11841W        W84156  42.997  33.355  11.908
11842W        W84157  12.675   3.972  13.943
11843W        W84158  33.834  11.820   4.764
11844W        W84159  37.787   8.666   3.277
11845W        W84160  39.903  38.864   2.343
11846W        W84161   1.331   1.364   1.283
11847W        W84162   4.445  23.534   4.820
11848W        W84163  27.053  27.528   4.518
11849W        W84164  28.905  15.147  11.575
11850W        W84165   2.238  32.209   4.137
11851W        W84166  35.435   9.875   2.220
11852W        W84167  30.521   3.356  12.212
11853W        W84168  13.038  12.767  14.007
11854W        W84169  34.681  14.298  11.218
11855W        W84170  29.036  36.991  14.989
11856W        W84171  13.587  22.022  12.455
11857W        W84172  44.802  29.845   4.890
11858W        W84173  23.691  23.772  11.834
11859W        W84174  36.584  13.422   2.898
11860W        W84175   1.579   1.970  11.103
11861W        W84176   0.353  16.732   4.852
11862W        W84177  20.245  19.816   0.803
11863W        W84178  21.340  35.138  14.273
11864W        W84179  27.515   3.706   1.746
11865W        W84180   0.845  44.909   4.688
11866W        W84181   4.135  28.967  12.857
11867W        W84182   5.616  16.363   4.585
11868W        W84183  40.474   4.379  13.429
11869W        W84184  27.636  26.466   3.607
11870W        W84185  41.814  31.501   0.973
11871W        W84186   2.905  23.111   1.833
11872W        W84187  43.168  30.000  12.983
11873W        W84188  34.446  14.666   1.384
11874W        W84189  23.730  21.272   4.478
11875W        W84190  31.870  20.005   2.384
11876W        W84191  41.770  29.826  11.117
11877W        W84192   1.170   9.894  10.779
11878W        W84193  44.911  32.841  12.990
11879W        W84194  15.679  10.371  14.747
11880W        W84195   9.191  13.177  10.626
11881W        W84196  13.274  22.506   2.722
11882W        W84197  12.146  25.243  11.574
11883W        W84198  17.788  11.729   1.695
11884W        W84199  39.231   3.303   1.434
11885W        W84200  25.597  11.142  14.291
11886W        W84201  14.845  14.088  12.946
11887W        W84202  40.001   0.061   2.664
11888W        W84203   6.710  44.410  10.468
11889W        W84204  14.513   5.773  12.586
11890W        W84205  29.088  25.280   3.071
11891W        W84206   8.333   6.579   2.350
11892W        W84207   2.338  28.493   4.593
11893W        W84208  23.166  35.117   0.703
11894W        W84209  26.307   7.170   3.697
11895W        W84210   7.436  19.540   0.770
11896W        W84211  15.547  33.551   3.193
11897W        W84212  39.784   4.794   1.014
11898W        W84213  19.219  31.142   0.363
11899W        W84214   5.164  11.185   0.888
11900W        W84215   4.930  40.348   3.120
11901W        W84216   1.474   4.211   1.960
11902W        W84217  12.051  33.001   3.366
11903W        W84218  18.515  14.087   3.303
11904W        W84219  31.551  28.631   4.649
11905W        W84220   2.624  10.147   4.498
11906W        W84221  37.355  33.947   1.278
11907W        W84222  18.178  10.087   3.114
11908W        W84223  42.164  36.306   4.975
11909W        W84224  20.316  44.513  12.068
11910W        W84225  32.524   0.462   4.087
11911W        W84226  40.031   9.788   0.455
11912W        W84227  18.961   2.811   2.893
11913W        W84228  12.366   7.727   0.480
11914W        W84229  42.327   5.693  11.877
11915W        W84230   3.663   5.892   4.631
11916W        W84231  33.341  30.639  11.544
11917W        W84232  28.910  19.678   3.162
11918W        W84233  34.849   1.787  10.311
11919W        W84234  39.736  40.890   3.388
11920W        W84235  38.768  19.488   1.356
11921W        W84236  22.864  24.426  10.997
11922W        W84237  11.690   7.221   4.576
11923W        W84238  37.584   3.377  13.980
11924W        W84239   4.631  13.642  14.048
11925W        W84240  26.039  10.590   2.693
11926W        W84241   6.186  17.034  11.145
11927W        W84242  39.223  19.794  12.831
11928W        W84243  16.997  42.478   1.873
11929W        W84244  43.325   0.160   2.360
11930W        W84245  29.982   0.905  13.980
11931W        W84246  10.176  31.495   4.942
11932W        W84247  38.836   0.798  12.180
11933W        W84248  27.799   7.324   0.698
11934W        W84249  31.974   4.914  12.846
11935W        W84250   4.941  41.087   3.556
11936W        W84251  30.982  29.696   4.978
11937W        W84252   8.336  24.657   3.597
11938W        W84253  38.118  20.041   4.308
11939W        W84254   4.641   4.770   0.541
11940W        W84255   7.975  41.945   4.506
11941W        W84256  24.854  30.295  13.790
11942W        W84257  17.262  26.197   0.238
11943W        W84258  42.094  37.439  12.352
11944W        W84259  24.066   3.000   0.253
11945W        W84260  28.594   3.310  14.034
11946W        W84261   3.171  21.681   1.315
11947W        W84262  22.910  34.536   3.779
11948W        W84263   7.923  17.063  12.118
11949W        W84264   6.348  14.813  14.002
11950W        W84265  40.420  27.948  14.734
11951W        W84266  36.958  16.035   3.251
11952W        W84267   6.588   1.966   3.694
11953W        W84268  24.586  19.670  10.542
11954W        W84269  28.335  10.716   0.258
11955W        W84270   7.907  34.129  14.058
11956W        W84271   2.897   7.382  10.426
11957W        W84272  12.072  43.512  12.856
11958W        W84273  43.430   3.880  14.227
11959W        W84274   2.860  24.917  13.546
11960W        W84275  32.474  29.466  14.679
11961W        W84276  35.127  43.537   1.637
11962W        W84277  41.829  32.471   0.087
11963W        W84278   5.823  19.588  13.368
11964W        W84279  31.894   2.205   4.624
11965W        W84280  36.944  22.218   1.908
11966W        W84281   9.902  21.479   0.367
11967W        W84282  30.655  37.504  14.152
11968W        W84283  43.018  20.547  12.852
11969W        W84284  22.454  32.692   0.541
11970W        W84285  31.186  43.505   4.176
11971W        W84286   1.068   1.732  11.452
11972W        W84287  23.051  30.937   0.455
11973W        W84288  32.169  23.051   1.787
11974W        W84289  16.239  22.415   2.419
11975W        W84290  24.653  23.001  12.922
11976W        W84291  19.306   5.700   4.378
11977W        W84292  12.698  32.866   3.804
11978W        W84293  20.094   0.994  12.063
11979W        W84294  42.973  32.883  13.725
11980W        W84295  10.768   4.826   0.668
11981W        W84296   8.660   6.000   0.941
11982W        W84297   5.763  10.114  14.994
11983W        W84298  34.397  40.745  10.901
11984W        W84299  44.135  23.369  10.382
11985W        W84300  21.547  18.768   4.726
11986W        W84301  25.208   1.822  13.988
11987W        W84302   0.793  22.616  12.016
11988W        W84303  30.463  31.248   2.620
11989W        W84304   3.880  35.785   3.354
11990W        W84305  15.380  21.727   3.231
11991W        W84306  10.385   3.925   1.053
11992W        W84307  14.389  38.970  14.290
11993W        W84308   0.727  18.762   3.815
11994W        W84309  25.404  31.948   0.894
11995W        W84310   4.801   9.099   2.172
11996W        W84311  13.230  14.763   0.417
11997W        W84312  31.935   6.745  12.545
11998W        W84313   5.870  26.368   2.129
11999W        W84314   6.525  23.174   4.160
12000W        W84315  33.332   9.191  11.194
12001W        W84316  22.521  28.484   4.786
12002W        W84317   2.256   9.146  11.931
12003W        W84318   1.001  26.178   3.271
12004W        W84319  32.427  38.385  10.609
12005W        W84320  26.165  21.153   1.643
12006W        W84321  23.693  35.751  12.158
12007W        W84322   2.624  12.564  13.349
12008W        W84323  37.985  19.391  12.803
12009W        W84324  42.683  32.399   4.091
12010W        W84325   5.285  21.001  13.852
12011W        W84326  37.908  12.797  12.788
12012W        W84327  33.100  22.742   1.624
12013W        W84328  33.602  17.020  13.559
12014W        W84329   6.865  39.322  14.022
12015W        W84330   7.172  22.981   4.771
12016W        W84331  44.680   6.204  11.623
12017W        W84332  37.099  13.357  12.610
12018W        W84333  18.623  35.103  10.043
12019W        W84334  39.899  28.056   0.353
12020W        W84335   6.315  31.710   3.206
12021W        W84336   9.956  29.171  13.818
12022W        W84337  19.637  24.040   2.937
12023W        W84338   2.697  24.960   2.296
12024W        W84339  43.773  10.478   0.058
12025W        W84340  43.739  44.280   1.895
12026W        W84341  42.820  40.586  10.752
12027W        W84342  23.226  24.403   1.806
12028W        W84343  13.609  43.121   2.726
12029W        W84344  10.818  20.049   5.867
12030W        W84345  39.313   2.403  14.727
12031W        W84346  30.909  23.453   2.743
12032W        W84347   5.257  25.150  12.037
12033W        W84348  11.594  15.121   2.226
12034W        W84349   3.472   7.187  12.227
12035W        W84350  30.138   1.407   2.298
12036W        W84351  27.848  14.105   2.268
12037W        W84352  28.888  28.089  13.127
12038W        W84353  14.630  29.156   2.175
12039W        W84354  38.278  17.621  12.134
12040W        W84355   1.909  18.299  14.508
12041W        W84356  11.089  37.338   4.895
12042W        W84357  26.537   3.763  12.028
12043W        W84358  21.935  36.378  12.658
12044W        W84359  39.834   2.351  14.802
12045W        W84360  12.130  29.705   3.832
12046W        W84361  15.859  40.608   3.310
12047W        W84362  25.007   5.493  12.630
12048W        W84363  30.193  25.649   2.800
12049W        W84364  31.416  14.281  11.930
12050W        W84365  25.615   3.923   4.158
12051W        W84366  25.497  30.145  11.530
12052W        W84367  20.452  12.788  11.596
12053W        W84368  23.996  27.540  12.942
12054W        W84369  15.755  18.232   1.222
12055W        W84370  31.595  28.194   2.702
12056W        W84371  44.110   8.614   1.903
12057W        W84372   9.919  18.248   0.444
12058W        W84373  18.816  40.294  14.607
12059W        W84374  33.324   9.741   3.608
12060W        W84375  23.492  34.558   2.804
12061W        W84376   0.967  22.140   1.178
12062W        W84377  33.059  10.831   3.771
12063W        W84378  13.801  18.725   3.255
12064W        W84379  34.856   8.335   0.535
12065W        W84380  38.418  43.915   1.117
12066W        W84381  10.896  15.830  13.139
12067W        W84382  27.866  22.633   0.718
12068W        W84383  27.318   7.836  11.210
12069W        W84384  33.645  31.413  14.270
12070W        W84385  30.122  24.102   3.805
12071W        W84386  14.080  13.795  14.547
12072W        W84387  28.488   5.369   4.772
12073W        W84388  30.284  21.586   2.739
12074W        W84389  43.090  43.597   3.857
12075W        W84390  40.898  34.395  12.080
12076W        W84391  44.300  19.783  10.759
12077W        W84392  27.213  13.946  14.014
12078W        W84393   2.031  22.131   1.862
12079W        W84394  21.715  33.950  12.569
12080W        W84395  28.008  11.043  11.572
12081W        W84396  25.897  43.161   1.259
12082W        W84397  19.640  23.241  14.372
12083W        W84398  37.910  29.180   1.936
12084W        W84399   2.707  13.047   0.755
12085W        W84400  32.842   3.158   2.273
12086W        W84401  44.022   2.868  14.408
12087W        W84402  20.215   3.707  14.446
12088W        W84403   5.274  12.246  11.174
12089W        W84404   7.133  10.853   4.245
12090W        W84405  21.154   3.208  12.134
12091W        W84406  19.011  29.707  14.754
12092W        W84407  24.570  43.545  13.405
12093W        W84408  44.669  43.944  11.606
12094W        W84409   8.556  39.912  13.980
12095W        W84410  35.512   3.403   4.942
12096W        W84411   2.803  38.595   0.893
12097W        W84412  41.825  15.026  13.839
12098W        W84413  38.455  12.982   4.635
12099W        W84414   2.371  37.739   2.596
12100W        W84415  10.114  19.498   1.440
12101W        W84416   2.221   8.638   2.729
12102W        W84417  41.323  36.414  14.312
12103W        W84418  41.067  22.475  13.275
12104W        W84419   3.937  32.855   1.219
12105W        W84420   3.002  15.521  14.538
12106W        W84421   0.455  14.276  11.023
12107W        W84422   4.681  10.676  11.179
12108W        W84423  42.285   5.230  11.169
12109W        W84424  37.077   2.069  13.343
12110W        W84425  13.429   1.280  11.543
12111W        W84426  44.031  35.866   2.953
12112W        W84427  34.414  29.855   0.399
12113W        W84428   6.472  26.392  13.399
12114W        W84429  31.930  40.450   0.773
12115W        W84430  41.993  38.062   2.565
12116W        W84431  40.752  28.763  11.714
12117W        W84432  40.324  15.841   0.924
12118W        W84433  32.221  28.903  10.145
12119W        W84434  33.547  23.445   4.670
12120W        W84435  15.014  37.851  11.431
12121W        W84436  11.304   9.191   4.492
12122W        W84437  24.020  20.098   4.732
12123W        W84438  31.396  26.608  11.036
12124W        W84439  31.823  18.614   0.943
12125W        W84440  14.327  26.954  12.351
12126W        W84441  24.048  38.662   2.901
12127W        W84442  28.176  41.805  13.910
12128W        W84443  34.005   5.151  10.398
12129W        W84444  29.900   5.822  12.555
12130W        W84445   9.595  43.529  11.670
12131W        W84446   5.942   7.704   1.825
12132W        W84447   6.788   8.878  14.710
12133W        W84448  41.952  44.845   3.129
12134W        W84449   7.194   6.314  11.569
12135W        W84450  40.689  24.581   9.845
12136W        W84451  10.723  34.072   3.532
12137W        W84452  27.136  42.158  14.941
12138W        W84453  35.529  30.118   1.808
12139W        W84454  39.246  36.197   4.722
12140W        W84455  17.371  36.848  14.403
12141W        W84456  18.414  28.108   3.270
12142W        W84457  34.826   6.685  14.055
12143W        W84458  33.386  40.314  11.967
12144W        W84459   5.110  24.001  12.455
12145W        W84460  12.152  25.556  14.465
12146W        W84461  37.545  26.937   1.860
12147W        W84462  34.078  30.694   2.259
12148W        W84463  30.295  27.882  12.022
12149W        W84464  19.213  43.751   3.403
12150W        W84465  42.645  37.553  13.483
12151W        W84466  35.675  17.200   3.857
12152W        W84467  43.321  10.437   2.010
12153W        W84468  26.961   2.845   4.050
12154W        W84469   3.806  23.545   0.816
12155W        W84470  23.325   6.116   0.303
12156W        W84471  10.714  38.474   3.663
12157W        W84472   2.443  23.091  10.386
12158W        W84473  38.473  21.630   4.702
12159W        W84474   7.713  22.534   2.230
12160W        W84475  40.831  39.518  11.574
12161W        W84476   2.916  10.757   0.967
12162W        W84477  17.741  31.471   1.335
12163W        W84478  40.255  35.560   0.866
12164W        W84479  34.923  35.511   1.332
12165W        W84480  11.617  32.920  10.728
12166W        W84481  33.032   6.823  10.929
12167W        W84482  25.619  27.647   1.950
12168W        W84483  22.895  35.782   3.223
12169W        W84484  34.367  18.257   3.270
12170W        W84485   4.748  10.363   0.983
12171W        W84486  12.776   1.756  11.102
12172W        W84487  12.101  31.592   1.189
12173W        W84488  12.235  44.313  12.211
12174W        W84489  40.811  27.387  10.845
12175W        W84490  34.394  37.927   4.190
12176W        W84491  11.171  37.850   0.418
12177W        W84492  17.990  34.540   4.731
12178W        W84493  44.237  35.621  13.054
12179W        W84494   6.485  41.948   1.387
12180W        W84495  25.018  41.359  10.664
12181W        W84496   7.178  32.897   3.436
12182W        W84497  22.241   7.089   1.440
12183W        W84498  33.941  36.403  14.981
12184W        W84499  19.266  33.812  11.566
12185W        W84500  10.126  17.272   4.050
12186W        W84501   7.707   6.525  10.440
12187W        W84502  32.425  17.100   1.609
12188W        W84503  43.108   4.661  11.380
12189W        W84504  37.698  32.888   4.497
12190W        W84505  24.113   9.172   1.889
12191W        W84506   9.110  22.650   1.757
12192W        W84507   4.065  18.626  10.679
12193W        W84508  18.695  26.013   0.586
12194W        W84509   5.234  15.203   4.365
12195W        W84510   2.951   6.527   2.389
12196W        W84511  10.630  28.060  14.305
12197W        W84512   9.415  13.890   1.404
12198W        W84513   5.122   8.918  10.269
12199W        W84514  19.111  37.006   3.286
12200W        W84515  28.096  38.652  11.997
12201W        W84516   1.903  33.954  14.911
12202W        W84517  21.769  30.526   3.725
12203W        W84518  33.364  34.470   2.260
12204W        W84519  38.509  36.748   4.793
12205W        W84520  40.004  19.721   3.345
12206W        W84521  40.763  41.508   1.827
12207W        W84522   1.991  12.200  13.944
12208W        W84523   9.616  13.137   3.684
12209W        W84524  31.609  33.562  11.437
12210W        W84525  27.544   4.443   4.339
12211W        W84526  27.656  11.892  13.058
12212W        W84527   1.332   7.651  10.724
12213W        W84528  30.481  26.864   3.110
12214W        W84529  11.200  25.307   0.927
12215W        W84530  24.928   5.006  11.677
12216W        W84531  10.372  44.433   3.673
12217W        W84532  37.359  27.130   4.308
12218W        W84533  39.640   9.914   0.787
12219W        W84534  12.546  32.014   1.210
12220W        W84535  19.211  21.558  10.741
12221W        W84536  31.949  34.819  10.805
12222W        W84537  26.184  42.282   5.050
12223W        W84538  21.549  15.322   3.871
12224W        W84539   2.599  26.899  12.182
12225W        W84540  31.084  35.946   0.582
12226W        W84541  43.021  37.009  10.808
12227W        W84542  20.141  27.655  13.823
12228W        W84543  27.312  19.278   5.414
12229W        W84544  14.546  11.070  10.168
12230W        W84545  38.517  29.479   2.848
12231W        W84546  12.770  35.526   3.596
12232W        W84547  14.754  36.551   0.905
12233W        W84548  12.647   4.370   4.672
12234W        W84549  10.079  14.722  11.169
12235W        W84550  43.655   9.687   2.672
12236W        W84551  15.866  42.479   2.759
12237W        W84552  42.736  31.932   4.337
12238W        W84553  43.466  12.649   3.186
12239W        W84554  34.718  33.537   2.116
12240W        W84555   6.637  14.273   4.980
12241W        W84556   4.778  31.486   2.314
12242W        W84557  28.149  19.051  14.852
12243W        W84558   8.802  31.391   0.569
12244W        W84559  39.840  39.853   2.447
12245W        W84560  41.066   1.430   0.410
12246W        W84561  13.734  34.734   4.981
12247W        W84562  13.006   6.869   4.721
12248W        W84563  26.220  34.353  12.933
12249W        W84564  17.565  24.090   4.364
12250W        W84565  17.029  39.866  13.636
12251W        W84566  14.728   2.745   3.274
12252W        W84567  16.240  17.265   2.743
12253W        W84568  37.083   7.705  13.803
12254W        W84569  25.652   9.396  14.496
12255W        W84570  33.340  14.762   3.982
12256W        W84571  25.550   8.483  14.363
12257W        W84572  43.519  19.477   4.871
12258W        W84573  42.089  24.447   3.500
12259W        W84574  16.119  32.373  10.742
12260W        W84575  12.158   4.182   4.751
12261W        W84576  44.726  34.029   1.184
12262W        W84577  13.559   0.797   4.098
12263W        W84578  17.718  26.845  10.990
12264W        W84579  40.649  35.793  13.521
12265W        W84580   4.226  28.937   0.769
12266W        W84581  44.459  20.533  11.229
12267W        W84582  28.016  24.076  14.817
12268W        W84583  33.615  29.638   0.686
12269W        W84584   8.954  19.239  10.941
12270W        W84585   4.325   7.908  10.623
12271W        W84586  15.650  30.372  11.602
12272W        W84587   4.149  23.707   0.307
12273W        W84588   8.984  33.092   4.158
12274W        W84589  16.505   3.368   1.287
12275W        W84590   8.197   4.413  11.464
12276W        W84591  36.996  17.561  12.348
12277W        W84592  42.817  26.736   0.873
12278W        W84593   3.332  24.428   1.652
12279W        W84594  13.288  40.392   4.536
12280W        W84595  43.040  23.168   2.407
12281W        W84596  22.682  14.718   0.833
12282W        W84597  44.770  39.457  14.500
12283W        W84598   8.220  43.196   2.310
12284W        W84599  26.649  33.428  13.564
12285W        W84600   5.854  27.258   4.570
12286W        W84601  31.902  36.166  13.856
12287W        W84602  12.382  19.309   4.467
12288W        W84603  26.201  37.875  13.509
12289W        W84604  28.133   4.340   5.064
12290W        W84605  14.125  14.257   3.108
12291W        W84606   2.423  39.217   3.675
12292W        W84607  37.376   9.791  12.930
12293W        W84608  44.889  21.448   2.080
12294W        W84609   3.827  14.882  10.694
12295W        W84610  43.514  13.790  11.881
12296W        W84611   7.359  29.633  10.622
12297W        W84612  19.815   4.947  11.086
12298W        W84613  26.548  19.590   1.973
12299W        W84614   8.098   2.028  12.433
12300W        W84615   5.392  42.246  14.779
12301W        W84616  19.163  44.744  12.187
12302W        W84617  32.061  24.704  13.518
12303W        W84618  12.302  18.610  10.382
12304W        W84619  40.095  25.141  11.498
12305W        W84620  41.785  15.206  10.632
12306W        W84621   0.402  10.892  10.989
12307W        W84622  36.541   6.681  10.933
12308W        W84623   2.318  13.078  10.707
12309W        W84624  41.904  44.444  14.073
12310W        W84625  36.836  34.898  13.339
12311W        W84626  28.538  32.989   3.092
12312W        W84627  25.796  43.889   1.852
12313W        W84628   4.521  17.860  13.025
12314W        W84629  14.928  11.872  11.754
12315W        W84630  41.257   7.250  12.048
12316W        W84631  23.260  44.442   1.700
12317W        W84632  13.983  16.863   1.231
12318W        W84633  35.850  44.448  12.487
12319W        W84634  14.175  24.265  10.583
12320W        W84635  42.363  43.911  14.592
12321W        W84636  12.539  24.973   1.640
12322W        W84637   3.206   4.981   0.657
12323W        W84638  25.960  22.707  12.389
12324W        W84639   0.010  13.753   0.258
12325W        W84640   6.817  34.872  13.393
12326W        W84641  19.220  33.028  10.629
12327W        W84642  23.177  22.214   4.536
12328W        W84643  39.834  19.091   4.959
12329W        W84644  14.362  32.050  13.528
12330W        W84645  23.074  44.542   2.179
12331W        W84646  44.931   9.620  12.463
12332W        W84647  39.107  31.502  14.351
12333W        W84648   4.435  12.108  14.950
12334W        W84649  38.845  34.632  13.835
12335W        W84650  33.884  33.137  12.471
12336W        W84651  38.259  14.773   1.164
12337W        W84652   6.499  21.048   3.673
12338W        W84653  44.707  24.266   3.177
12339W        W84654  33.877  31.691   2.360
12340W        W84655  38.604  43.991  13.529
12341W        W84656  41.284  10.616  11.609
12342W        W84657  22.473   8.624   5.010
12343W        W84658  23.498   4.712   2.360
12344W        W84659  17.369  25.574  10.948
12345W        W84660  10.059   7.314   1.999
12346W        W84661  37.002  17.768   0.924
12347W        W84662  42.860   1.306   3.110
12348W        W84663  38.058  12.558   0.684
12349W        W84664   7.442   5.001  12.578
12350W        W84665   6.177  40.116  14.755
12351W        W84666   0.104  25.668   1.181
12352W        W84667  39.000  39.410   4.206
12353W        W84668  32.880   2.423   1.549
12354W        W84669  23.237  16.599   0.762
12355W        W84670  11.685  10.186   5.061
12356W        W84671  38.405  44.380   1.355
12357W        W84672  10.309  38.003   4.526
12358W        W84673  22.103  20.266  13.995
12359W        W84674  44.081  13.738   2.266
12360W        W84675  32.576  39.436  12.554
12361W        W84676  39.347   3.217   0.032
12362W        W84677  38.278  41.288   3.263
12363W        W84678  30.066  25.654   2.128
12364W        W84679  18.004  14.564   0.472
12365W        W84680  43.034  20.848   3.363
12366W        W84681  34.082   2.691  13.784
12367W        W84682   0.780  18.571   0.376
12368W        W84683  39.529  10.091   4.176
12369W        W84684   8.239  33.432  12.033
12370W        W84685  34.016  15.116   3.808
12371W        W84686  14.792  39.430   1.912
12372W        W84687   9.770  22.246   0.805
12373W        W84688   4.528  43.463  14.860
12374W        W84689  42.291   3.721   0.868
12375W        W84690  24.933  17.129   4.832
12376W        W84691  19.041   5.418   0.984
12377W        W84692  36.343  22.648   0.441
12378W        W84693  12.113  22.276   2.239
12379W        W84694  20.123  43.475   2.843
12380W        W84695  16.431  23.012   3.135
12381W        W84696  42.770  25.079   4.651
12382W        W84697  40.936  28.561   0.869
12383W        W84698  13.474  19.010  13.400
12384W        W84699  31.060  24.194  14.549
12385W        W84700   0.336   2.203  13.593
12386W        W84701   8.129  11.682   3.980
12387W        W84702  34.608   9.402   1.342
12388W        W84703  26.682  28.636  10.592
12389W        W84704  37.220  36.633   0.428
12390W        W84705   2.843  19.081   0.343
12391W        W84706  13.226  32.030  11.458
12392W        W84707   1.022  16.738  13.942
12393W        W84708  15.491  23.705  11.868
12394W        W84709   7.072  16.919  11.995
12395W        W84710  29.082  16.530  12.950
12396W        W84711  28.035  25.572  11.626
12397W        W84712  23.581  17.105  13.850
12398W        W84713   5.319  23.412   2.381
12399W        W84714   0.968   6.787  14.848
12400W        W84715  21.655  17.576  12.526
12401W        W84716  25.675  24.197   4.561
12402W        W84717   0.262   7.206  12.878
12403W        W84718  36.828   0.726  14.855
12404W        W84719  13.329  30.750   4.362
12405W        W84720   6.800   6.406  12.358
12406W        W84721  15.269  15.533  12.550
12407W        W84722  35.141   6.491   0.434
12408W        W84723  20.186  12.462  13.804
12409W        W84724   6.872  41.881  12.051
12410W        W84725  14.843  30.072   2.484
12411W        W84726  10.566  19.725   1.370
12412W        W84727   1.980  26.854   2.331
12413W        W84728   7.516  20.878  12.546
12414W        W84729  35.256   0.293   3.657
12415W        W84730   7.166  12.639  14.448
12416W        W84731  21.671   6.150   3.710
12417W        W84732  20.065   8.432  10.234
12418W        W84733  32.210   0.708   3.297
12419W        W84734  31.511  22.982  10.572
12420W        W84735  11.779  35.719   3.318
12421W        W84736   7.904  26.544   0.454
12422W        W84737  28.048  29.184   4.778
12423W        W84738  21.359  35.815   4.290
12424W        W84739  32.384   3.762  14.068
12425W        W84740  31.199  18.233   1.564
12426W        W84741  25.829  16.845  11.132
12427W        W84742   8.861  38.181  11.659
12428W        W84743  28.998  31.663   4.100
12429W        W84744  37.355  13.392   4.026
12430W        W84745  41.593   1.785   0.859
12431W        W84746  41.141  33.553   3.339
12432W        W84747   1.482   6.165  11.143
12433W        W84748  20.327  16.332   1.772
12434W        W84749  35.974  31.158  14.858
12435W        W84750  32.226  15.738  13.011
12436W        W84751  35.265  30.132  10.617
12437W        W84752  33.019  41.216  11.733
12438W        W84753  33.977  30.557  14.424
12439W        W84754  13.959  25.776  13.098
12440W        W84755  21.903  35.916   0.273
12441W        W84756  10.668  15.508   4.248
12442W        W84757  17.359  40.903   5.107
12443W        W84758  10.130  24.672  13.765
12444W        W84759  30.354  36.929  14.889
12445W        W84760  32.606  25.628  10.689
12446W        W84761   1.663  41.087  14.918
12447W        W84762  31.145  21.922   1.681
12448W        W84763  23.179  26.162   1.450
12449W        W84764  38.897  26.025   5.410
12450W        W84765   3.829  25.989  13.599
12451W        W84766   4.731  17.164  12.401
12452W        W84767  13.627  42.448   0.681
12453W        W84768   5.000  43.398   0.324
12454W        W84769  33.077  42.889  12.975
12455W        W84770  44.045  34.673   0.904
12456W        W84771  26.461   8.808   2.706
12457W        W84772  19.878  38.434  14.693
12458W        W84773   2.839  29.264   2.808
12459W        W84774  41.776   5.862  13.662
12460W        W84775  10.265   3.415   0.165
12461W        W84776  13.701  30.538  12.772
12462W        W84777  43.481  12.448   1.908
12463W        W84778  35.782  39.107   4.543
12464W        W84779  25.584   2.949   0.279
12465W        W84780  34.387  34.875   1.449
12466W        W84781   3.023  34.419   2.906
12467W        W84782  37.784   0.887   1.444
12468W        W84783  13.256  27.591  12.674
12469W        W84784  11.419  26.794  12.339
12470W        W84785  40.175  15.609   2.296
12471W        W84786   3.759   1.290  12.379
12472W        W84787  14.856  23.546  14.536
12473W        W84788  18.988  18.195  13.918
12474W        W84789  18.638   7.844   9.841
12475W        W84790   1.918  34.405   0.815
12476W        W84791   8.731  20.303  13.911
12477W        W84792  28.523  25.552   3.652
12478W        W84793  27.933  14.245   4.654
12479W        W84794  16.884  11.011   5.038
12480W        W84795  37.596  21.428   3.341
12481W        W84796  28.368  11.247   2.306
12482W        W84797   2.171  36.039  10.191
12483W        W84798   3.596  27.072  14.946
12484W        W84799   5.807  32.913  11.200
12485W        W84800  38.465  13.559   1.715
12486W        W84801  25.929  20.042   3.060
12487W        W84802   3.720  21.336  11.936
12488W        W84803  39.049  18.517   1.366
12489W        W84804  40.366  25.748  12.355
12490W        W84805  38.474  33.953  13.941
12491W        W84806  31.951  11.218  10.152
12492W        W84807  13.687   0.438  11.192
12493W        W84808  30.041  16.150   3.245
12494W        W84809  17.720  44.756   3.402
12495W        W84810  43.947  16.080  11.925
12496W        W84811  17.036   3.644  13.933
12497W        W84812   8.961  11.324  10.600
12498W        W84813  28.195  17.600   3.137
12499W        W84814   5.036  44.161  12.491
12500W        W84815  29.659   9.410   2.148
12501W        W84816  42.985  41.509  13.326
12502W        W84817  19.194   0.459  12.507
12503W        W84818  17.352   6.234   4.730
12504W        W84819  25.944  17.683   1.958
12505W        W84820  25.590  12.948   1.852
12506W        W84821  12.230  33.509   3.360
12507W        W84822  40.191  38.698   1.005
12508W        W84823  42.009  20.647  13.152
12509W        W84824  14.343  23.398   1.292
12510W        W84825  33.115  18.994  13.387
12511W        W84826  43.674  12.620   3.649
12512W        W84827  10.686  19.593  13.081
12513W        W84828  23.606  19.565   2.684
12514W        W84829  41.235   4.404   1.271
12515W        W84830  23.773  36.148  11.042
12516W        W84831  30.582  27.035  13.075
12517W        W84832   1.151  37.084   0.895
12518W        W84833   5.255  41.968   2.097
12519W        W84834  39.347   8.314  14.881
12520W        W84835  38.824   9.546  10.682
12521W        W84836  20.713  36.559   4.884
12522W        W84837  33.288  31.762  11.662
12523W        W84838   1.788  29.055  14.923
12524W        W84839   7.851   0.878   4.458
12525W        W84840  12.135  23.263   2.695
12526W        W84841   5.660  20.438  11.165
12527W        W84842   0.830   5.494  11.607
12528W        W84843   8.569  17.023  13.502
12529W        W84844  13.295  26.772  14.667
12530W        W84845  33.006   1.688   2.087
12531W        W84846  15.961   6.364  12.324
12532W        W84847   1.355   1.521   2.662
12533W        W84848  19.664  18.055   0.499
12534W        W84849   6.436  28.224   0.964
12535W        W84850  32.047  16.884  13.265
12536W        W84851  28.543  15.107  14.761
12537W        W84852  21.686  36.776   4.131
12538W        W84853  19.090   1.678   0.307
12539W        W84854   0.258  24.184   1.856
12540W        W84855  35.069  12.908   3.574
12541W        W84856  20.475  42.844  10.615
12542W        W84857   5.796  15.082   2.745
12543W        W84858  43.313  31.419  13.411
12544W        W84859   5.889  40.551  12.578
12545W        W84860  28.155  14.844  13.332
12546W        W84861  14.476  27.885   0.372
12547W        W84862  22.034  16.030   0.816
12548W        W84863   8.331  15.302   0.874
12549W        W84864   7.736  38.289  12.469
12550W        W84865   0.738  36.897   1.182
12551W        W84866  15.703  32.819   3.714
12552W        W84867  42.500  32.106  11.559
12553W        W84868  35.033  14.235   2.606
12554W        W84869  40.303  36.536  11.053
12555W        W84870  21.723  35.954   2.762
12556W        W84871  17.140  31.527  12.896
12557W        W84872  28.230  16.547  11.111
12558W        W84873  17.839  17.824   1.845
12559W        W84874  17.807  28.520   2.736
12560W        W84875  23.679   8.107  11.149
12561W        W84876   4.930   7.285  13.803
12562W        W84877  44.493  44.219   1.251
12563W        W84878  32.359  27.373  12.979
12564W        W84879  31.487  38.604   3.282
12565W        W84880  42.588  19.945   2.627
12566W        W84881  10.742   2.224  14.865
12567W        W84882  28.585  32.290  13.551
12568W        W84883  43.538  31.462  14.834
12569W        W84884  37.352  23.805  13.015
12570W        W84885   4.071  22.635   4.521
12571W        W84886  37.102  14.729  13.063
12572W        W84887  34.542  19.711  11.791
12573W        W84888   8.388  44.493   0.462
12574W        W84889  26.253  36.400   2.829
12575W        W84890   3.227  43.884  13.491
12576W        W84891  37.362  19.185  14.437
12577W        W84892  27.191  12.701  10.672
12578W        W84893   0.479  28.615   1.060
12579W        W84894  36.021  34.938   3.178
12580W        W84895  23.675  29.640  14.048
12581W        W84896  31.613  28.933  13.043
12582W        W84897   9.734   6.959   3.631
12583W        W84898   9.448   3.450   0.879
12584W        W84899  30.222  10.606   2.390
12585W        W84900   6.677   3.784  12.893
12586W        W84901  11.424  44.506   3.779
12587W        W84902  33.380   4.478  11.051
12588W        W84903  19.122  12.251   4.449
12589W        W84904   1.075  41.862   0.966
12590W        W84905  34.686   6.921   2.716
12591W        W84906  13.168  10.335  10.657
12592W        W84907  22.514  12.416   0.332
12593W        W84908  30.370  38.424  13.027
12594W        W84909  44.278   9.109   2.720
12595W        W84910  42.520  39.490  11.127
12596W        W84911  25.159  21.678  13.461
12597W        W84912   8.753  31.465   1.306
12598W        W84913   5.381   2.371  12.697
12599W        W84914  19.206  29.456   4.586
12600W        W84915   4.293  20.044  13.011
12601W        W84916  36.141   2.112   4.963
12602W        W84917   1.801  18.044   2.175
12603W        W84918  14.256  22.941   0.317
12604W        W84919  33.258  36.112   1.883
12605W        W84920  42.098   7.323  10.504
12606W        W84921   6.931  11.059   2.625
12607W        W84922   7.181   2.861   0.359
12608W        W84923  43.852   9.069   1.809
12609W        W84924   9.738   5.677   1.137
12610W        W84925  19.097  17.089   0.861
12611W        W84926  22.217  31.807  12.013
12612W        W84927  30.167   8.581  10.784
12613W        W84928  32.139  39.228  11.937
12614W        W84929  24.664  10.640  11.500
12615W        W84930  26.928  12.885   4.683
12616W        W84931  36.999   2.928   0.511
12617W        W84932  36.645  41.141  12.642
12618W        W84933  28.553  27.798   1.860
12619W        W84934   1.475  11.712  13.366
12620W        W84935   6.408   0.426   0.235
12621W        W84936  37.359   5.510  14.867
12622W        W84937   7.554  25.619   3.423
12623W        W84938  20.138  32.911  14.464
12624W        W84939  28.601  15.584   3.330
12625W        W84940   6.380  40.652  12.395
12626W        W84941   9.803   6.908  11.534
12627W        W84942  36.458  15.155   1.319
12628W        W84943   2.237  30.625  12.530
12629W        W84944  11.441  33.343  14.032
12630W        W84945  22.282  39.980   2.767
12631W        W84946  35.327   8.305  13.422
12632W        W84947  25.003  41.483   4.121
12633W        W84948  20.494  22.011   2.686
12634W        W84949  13.026  37.537  13.137
12635W        W84950  43.543  35.215  12.776
12636W        W84951   6.896  17.702   3.112
12637W        W84952   2.162  29.417  11.582
12638W        W84953  16.075  33.473  11.174
12639W        W84954  44.224  43.269   1.205
12640W        W84955   6.683  43.401   1.422
12641W        W84956   8.209  28.999  11.740
12642W        W84957   7.267  26.016   2.679
12643W        W84958  31.988   2.187   3.063
12644W        W84959  18.923  35.467   4.795
12645W        W84960  15.086  31.625  12.840
12646W        W84961  18.781  12.756   2.253
12647W        W84962   3.418   9.193   4.594
12648W        W84963  16.744  24.978   0.812
12649W        W84964  27.891  30.082   4.700
12650W        W84965   6.206  29.394  14.476
12651W        W84966   5.343  33.361  10.649
12652W        W84967  32.712  15.632   4.923
12653W        W84968  43.387  23.676  11.694
12654W        W84969  43.238  30.460   3.600
12655W        W84970  19.101  10.451  10.693
12656W        W84971  18.102  17.759   3.662
12657W        W84972   4.815   4.737  12.801
12658W        W84973  36.774   4.854   0.790
12659W        W84974  41.480  20.655   0.474
12660W        W84975  10.255  39.077  13.819
12661W        W84976   6.875  22.541   1.911
12662W        W84977   4.448  30.639   4.210
12663W        W84978   8.130  42.914   4.109
12664W        W84979  31.869  22.276  11.555
12665W        W84980  22.699   7.309   3.531
12666W        W84981   7.691  23.352  10.369
12667W        W84982  20.360  17.007   4.365
12668W        W84983  29.574  22.989  12.139
12669W        W84984  39.491  21.030  14.059
12670W        W84985  11.699  12.790  11.156
12671W        W84986  35.313  33.248   2.735
12672W        W84987  31.789  27.870  13.509
12673W        W84988  26.932  10.941   3.964
12674W        W84989  39.906  40.917   0.760
12675W        W84990   2.670  18.811   0.790
12676W        W84991   8.635  18.204   3.132
12677W        W84992  25.712  14.884   0.999
12678W        W84993  10.342  16.278   4.124
12679W        W84994  32.646  41.256   1.252
12680W        W84995  20.016  10.262   3.901
12681W        W84996  38.542  27.132   3.233
12682W        W84997  19.611  14.668  12.451
12683W        W84998  38.538  19.304  14.735
12684W        W84999  35.596  22.539   0.964
12685W        W85000   3.618  33.029  12.782
12686W        W85001  11.246  33.949  14.938
12687W        W85002  26.531  40.500   2.638
12688W        W85003  26.719  39.485   2.628
12689W        W85004  15.147  39.446  13.842
12690W        W85005  44.435  34.056   4.525
12691W        W85006  10.699  25.447  12.349
12692W        W85007  16.083  10.122   3.609
12693W        W85008  35.041  36.260  12.465
12694W        W85009  36.138  39.826   4.074
12695W        W85010  24.150  20.823  12.883
12696W        W85011  32.604  36.995  11.645
12697W        W85012   7.432  20.679   0.297
12698W        W85013  16.390   2.509  13.330
12699W        W85014  13.670  35.401   0.820
12700W        W85015  44.310   9.940   2.388
12701W        W85016  23.552  41.420  10.770
12702W        W85017   6.683  36.446  11.465
12703W        W85018  27.800  30.450   2.224
12704W        W85019  18.557   9.774  10.901
12705W        W85020  29.101  25.453  11.177
12706W        W85021  22.819  21.642   2.845
12707W        W85022  24.460  40.017  14.324
12708W        W85023  20.472  30.039   1.356
12709W        W85024   6.282  34.685  12.479
12710W        W85025  40.302   8.802  13.334
12711W        W85026  12.419   2.803  14.069
12712W        W85027  41.983  27.211  14.836
12713W        W85028  17.362  15.731   2.871
12714W        W85029  13.327   8.901  10.614
12715W        W85030  14.801  29.149   9.991
12716W        W85031  34.837  27.512   1.264
12717W        W85032  27.260   3.934   3.246
12718W        W85033  38.820  19.981  11.931
12719W        W85034   3.054  37.124   2.491
12720W        W85035  16.157   6.321  11.639
12721W        W85036  21.393  31.985   1.705
12722W        W85037  26.624   5.140  12.573
12723W        W85038  22.869   0.137  14.781
12724W        W85039  16.115  42.945   2.886
12725W        W85040  20.092  26.100  11.304
12726W        W85041  21.768  26.568  10.648
12727W        W85042  36.084  44.987   0.431
12728W        W85043  35.475   7.622  14.619
12729W        W85044  32.417  36.542   3.157
12730W        W85045  31.187   6.551   3.746
12731W        W85046  42.005  34.078  12.995
12732W        W85047  42.924  36.488  14.371
12733W        W85048  20.350  20.629  10.973
12734W        W85049  16.758   8.180   2.845
12735W        W85050  36.124  19.269  11.308
12736W        W85051  11.162  27.789  13.653
12737W        W85052  15.735  37.047  12.379
12738W        W85053   1.549  17.061   0.516
12739W        W85054  27.440  24.220   4.070
12740W        W85055   9.477  17.323   0.848
12741W        W85056  13.656  11.184  13.749
12742W        W85057  35.521   9.973  12.462
12743W        W85058  31.776  32.805  11.733
12744W        W85059  44.802  23.267   0.872
12745W        W85060  29.042  12.249  12.469
12746W        W85061  34.085  18.208  13.114
12747W        W85062  38.860  18.984   1.307
12748W        W85063  10.877  39.034  10.689
12749W        W85064   6.461  36.804  14.472
12750W        W85065  29.474  23.566  14.681
12751W        W85066  10.112  34.976   1.275
12752W        W85067   1.490   6.748  10.650
12753W        W85068   1.538  35.962  11.110
12754W        W85069  26.006  33.101   0.943
12755W        W85070   5.966  42.265   3.781
12756W        W85071  10.455  20.229   1.502
12757W        W85072  26.884  27.152  13.867
12758W        W85073  34.628  37.122  11.158
12759W        W85074  15.969  43.911  13.529
12760W        W85075  25.418  20.600  11.377
12761W        W85076   7.947  31.364   2.942
12762W        W85077  32.713  17.789  12.045
12763W        W85078  22.612  15.877  10.318
12764W        W85079  16.687  28.978  14.414
12765W        W85080   0.418  21.116  13.835
12766W        W85081  13.043  29.478   1.690
12767W        W85082   9.197  12.225  13.757
12768W        W85083   4.279  41.790   0.394
12769W        W85084  12.600   7.154   0.859
12770W        W85085  11.313  40.169   3.129
12771W        W85086  38.998  13.316  11.906
12772W        W85087  16.410  39.458   0.819
12773W        W85088  17.837  39.695   0.391
12774W        W85089  38.508  27.645   2.939
12775W        W85090   1.692  41.708   2.953
12776W        W85091  41.562  11.808  10.967
12777W        W85092  25.048  17.045  14.254
12778W        W85093  34.111  21.026  10.626
12779W        W85094  38.973  27.782  12.465
12780W        W85095  44.654   4.250   4.135
12781W        W85096  18.028   8.478  12.494
12782W        W85097  42.060  25.642  13.722
12783W        W85098  31.433  10.247   0.816
12784W        W85099  22.664  15.249   0.731
12785W        W85100   3.312   2.887   0.206
12786W        W85101   4.542  25.223  11.494
12787W        W85102  42.008   6.832  12.192
12788W        W85103  36.014  12.287  11.565
12789W        W85104   6.224  20.718  12.941
12790W        W85105   2.215  16.752  13.324
12791W        W85106  25.655  25.153   4.650
12792W        W85107  19.535  42.211   4.186
12793W        W85108   3.676  38.537  14.999
12794W        W85109  34.924  29.167  14.568
12795W        W85110  11.702   9.621   2.019
12796W        W85111  23.926  40.433   3.574
12797W        W85112  44.089  22.233  12.521
12798W        W85113  34.919  19.670  12.449
12799W        W85114   8.641  31.812  12.547
12800W        W85115  39.555  22.629   3.209
12801W        W85116  27.496   6.701   2.377
12802W        W85117   2.970  32.512   0.348
12803W        W85118  33.018  42.798   3.635
12804W        W85119   3.010  20.303  11.535
12805W        W85120  31.377  11.192  12.353
12806W        W85121  11.203  36.848  12.812
12807W        W85122  30.105  25.567  11.667
12808W        W85123  39.362  33.623   0.944
12809W        W85124  44.762  36.891  11.864
12810W        W85125  17.713  29.023   1.853
12811W        W85126   9.169  41.349  14.566
12812W        W85127  16.658  34.056   2.339
12813W        W85128  28.769  37.822   3.824
12814W        W85129  28.265  16.405   3.261
12815W        W85130  39.158  30.094  12.910
12816W        W85131   0.096   7.479  12.126
12817W        W85132  24.572   7.436  12.971
12818W        W85133  37.473  41.744  10.407
12819W        W85134  20.040  33.507   1.294
12820W        W85135  18.161  38.215   2.206
12821W        W85136  13.373   2.372  12.875
12822W        W85137  22.287  21.625  12.267
12823W        W85138   1.395   9.767   4.530
12824W        W85139  41.361  16.152   0.218
12825W        W85140  11.136  18.381   9.896
12826W        W85141  22.465   8.932  11.989
12827W        W85142  38.442  16.590   2.821
12828W        W85143   4.775   5.822   2.415
12829W        W85144  22.327  17.099  13.124
12830W        W85145  31.828  28.927   4.202
12831W        W85146  11.209   7.163  14.474
12832W        W85147  12.785  23.368   1.365
12833W        W85148  31.906   5.813   1.154
12834W        W85149  40.916  20.248  10.778
12835W        W85150  39.757  13.698  12.364
12836W        W85151  39.356  18.153   2.396
12837W        W85152   4.749  35.078   4.912
12838W        W85153  37.898   1.976  14.879
12839W        W85154  14.457  43.328   4.563
12840W        W85155  17.849   7.219   4.575
12841W        W85156  41.529   9.722   2.483
12842W        W85157  11.512  40.246  12.987
12843W        W85158   7.751  39.967   2.249
12844W        W85159  10.689   4.368   4.610
12845W        W85160  39.556  30.577   1.339
12846W        W85161  33.398  38.826   0.128
12847W        W85162  24.733  44.811   3.128
12848W        W85163  42.073  34.622   1.338
12849W        W85164   6.996   9.791   0.346
12850W        W85165  43.886  20.310  12.543
12851W        W85166  32.589  11.336   0.002
12852W        W85167  21.559  37.774   2.859
12853W        W85168  16.221  21.670   4.608
12854W        W85169  10.686  13.908   5.306
12855W        W85170  10.885  44.433  10.745
12856W        W85171  29.482  32.181   3.764
12857W        W85172  30.118  28.888  13.071
12858W        W85173  28.202  34.990   3.234
12859W        W85174  41.503   6.498  14.090
12860W        W85175  37.362  12.096   0.019
12861W        W85176  31.005  33.492   3.419
12862W        W85177  20.803  21.534  10.533
12863W        W85178   6.792  44.342   9.945
12864W        W85179  19.114  27.539  10.706
12865W        W85180  32.534   0.359   3.562
12866W        W85181  22.546  43.711  11.187
12867W        W85182   6.454  14.717  12.921
12868W        W85183  35.830  32.358   1.875
12869W        W85184  38.732  17.139   2.256
12870W        W85185  24.257   7.310  14.576
12871W        W85186  32.376  26.044   2.695
12872W        W85187  16.966  22.999  11.928
12873W        W85188   1.969  29.688  12.035
12874W        W85189  30.641  27.566   0.844
12875W        W85190  37.276   4.680  10.881
12876W        W85191   3.370  12.226  10.926
12877W        W85192   6.907  41.576   0.134
12878W        W85193  27.147  20.264  12.446
12879W        W85194  17.796  17.868  13.324
12880W        W85195  11.409   7.870  11.899
12881W        W85196  28.911  16.168   3.887
12882W        W85197  43.867  14.327  12.479
12883W        W85198   4.518  41.271   4.104
12884W        W85199  30.510  42.262  10.624
12885W        W85200   6.853   3.411   4.954
12886W        W85201  43.007  10.420   3.458
12887W        W85202  17.267  31.746  10.477
12888W        W85203  30.061   5.053  12.052
12889W        W85204  27.088  17.208   3.878
12890W        W85205  20.965   1.670  14.513
12891W        W85206  22.733  14.299   0.494
12892W        W85207  37.193  26.867   1.213
12893W        W85208  24.594   9.280  13.983
12894W        W85209  14.738  44.904  13.163
12895W        W85210  28.188  13.784   4.634
12896W        W85211  17.618  12.522   4.140
12897W        W85212   8.619  39.295  12.048
12898W        W85213  37.067   9.767  13.368
12899W        W85214  17.844   8.815   5.057
12900W        W85215   5.620   3.800   0.852
12901W        W85216  26.622  38.484  13.985
12902W        W85217  11.877   8.187   3.346
12903W        W85218  16.039   3.704   5.021
12904W        W85219  24.717   6.370  12.876
12905W        W85220   5.369   1.436   1.657
12906W        W85221  20.937  16.978   4.728
12907W        W85222  30.581  12.842   3.270
12908W        W85223  28.596  18.152  13.981
12909W        W85224  30.657  11.148   4.634
12910W        W85225  41.410   0.930  13.064
12911W        W85226  39.429  20.579  10.619
12912W        W85227  26.009  26.370   4.956
12913W        W85228   3.866  43.358  11.914
12914W        W85229  28.590  35.054  12.508
12915W        W85230  36.648  39.712   1.688
12916W        W85231   1.745   9.222   4.106
12917W        W85232  10.367  31.473   2.816
12918W        W85233  16.213  12.926   1.863
12919W        W85234  26.691   0.676  11.552
12920W        W85235  22.510  23.156   4.620
12921W        W85236  28.456  30.916  11.207
12922W        W85237  18.093  36.391  14.566
12923W        W85238   9.354  11.781   1.270
12924W        W85239  14.220  13.519   4.868
12925W        W85240  19.398   3.776  13.881
12926W        W85241  23.846  23.532  14.014
12927W        W85242  38.394  26.447  11.989
12928W        W85243  29.527  32.357  14.835
12929W        W85244  43.310   1.104  10.583
12930W        W85245  16.378   4.858   0.453
12931W        W85246   6.134  27.506  13.192
12932W        W85247  18.023  13.821   3.262
12933W        W85248  33.868  28.617  13.837
12934W        W85249  11.236   1.177   0.440
12935W        W85250   6.671  22.706   0.877
12936W        W85251  27.896  30.861  12.170
12937W        W85252  36.436  31.026   4.738
12938W        W85253  21.987  29.734  12.055
12939W        W85254  17.057  34.192   1.399
12940W        W85255  32.887  43.260   2.336
12941W        W85256   7.190   2.316  13.491
12942W        W85257  17.167  34.094  10.651
12943W        W85258   8.643  37.295   1.852
12944W        W85259   7.743   8.727   0.390
12945W        W85260  35.594  25.630  13.174
12946W        W85261   2.661   0.049   4.884
12947W        W85262  41.371  22.636   3.647
12948W        W85263  41.752  31.621   0.109
12949W        W85264  19.712  16.354   3.118
12950W        W85265  31.523   2.746   1.816
12951W        W85266  25.917  22.676  11.442
12952W        W85267  27.001  12.862  14.796
12953W        W85268  14.071  16.333   4.316
12954W        W85269  27.543  43.342  14.034
12955W        W85270   2.695  28.466   1.371
12956W        W85271  39.553  32.701  11.521
12957W        W85272  44.317  27.130   2.885
12958W        W85273   9.705  35.526   3.163
12959W        W85274   5.686  34.676  12.981
12960W        W85275  35.294   7.881   3.689
12961W        W85276  29.828  27.440  12.515
12962W        W85277  26.508   2.855  12.297
12963W        W85278  33.671  33.463  10.187
12964W        W85279   0.841   2.674   2.684
12965W        W85280  32.042  15.211   1.912
12966W        W85281  13.728  37.239   4.054
12967W        W85282  23.261   4.541  13.078
12968W        W85283   0.103  19.897  12.902
12969W        W85284  33.407  10.230  13.950
12970W        W85285  15.248  40.087   0.001
12971W        W85286  40.798  17.557  11.533
12972W        W85287   6.262  36.501   4.620
12973W        W85288  16.573  18.089   0.993
12974W        W85289  39.838   4.873   3.319
12975W        W85290   8.879  16.970   5.143
12976W        W85291  32.133  35.765  13.614
12977W        W85292  43.568  42.547   3.481
12978W        W85293  12.383  10.364  12.271
12979W        W85294   1.678  43.809   3.304
12980W        W85295  44.457  14.727  10.314
12981W        W85296  35.624  17.235   3.356
12982W        W85297  36.868  36.455   3.205
12983W        W85298   7.330  15.311  13.819
12984W        W85299  39.764  34.988   2.199
12985W        W85300   5.217  20.476  13.935
12986W        W85301  22.676  28.023  12.500
12987W        W85302  15.306  12.655   2.368
12988W        W85303   8.148  25.688   3.748
12989W        W85304  17.341  14.303  11.585
12990W        W85305  37.756   1.021   2.381
12991W        W85306  11.766  42.166  14.817
12992W        W85307  18.179   5.786   4.613
12993W        W85308  36.841   4.377   1.440
12994W        W85309  25.483  17.174   5.009
12995W        W85310  40.105   1.898  13.604
12996W        W85311  22.173  27.253  12.512
12997W        W85312   0.772   9.913   0.466
12998W        W85313   6.096  21.662   1.686
12999W        W85314  12.425  12.600   0.513
13000W        W85315  24.873  13.721  13.885
13001W        W85316   4.157   8.771  13.012
13002W        W85317  16.555   5.357   2.187
13003W        W85318  37.460  25.347   5.083
13004W        W85319  14.942   1.544  13.316
13005W        W85320  10.877  13.059  10.926
13006W        W85321  12.553  25.203   2.101
13007W        W85322  29.762  19.008   0.243
13008W        W85323  18.691  10.296  14.257
13009W        W85324  29.839  31.487   3.217
13010W        W85325   4.978  30.404   2.906
13011W        W85326  40.109  18.105  12.380
13012W        W85327   1.487  31.516  12.966
13013W        W85328  41.300  10.234   4.603
13014W        W85329  26.763  12.211   0.811
13015W        W85330   5.921  15.594   2.692
13016W        W85331  26.997  36.213  14.998
13017W        W85332   4.192   4.275  12.458
13018W        W85333  44.608  21.153   1.258
13019W        W85334  33.819  27.758   0.303
13020W        W85335  39.025  16.595  12.816
13021W        W85336  15.731   2.373   2.339
13022W        W85337  38.909  41.331   2.158
13023W        W85338  16.877  30.421   2.769
13024W        W85339  32.343   5.716   2.354
13025W        W85340  20.861  12.774   2.955
13026W        W85341  31.365  43.954  13.489
13027W        W85342  35.418  31.902   0.357
13028W        W85343  35.860   9.217  11.735
13029W        W85344   1.712   9.114   0.304
13030W        W85345   5.743  34.513  14.776
13031W        W85346  30.768  15.297  12.372
13032W        W85347  29.482  34.965  13.942
13033W        W85348  26.437   3.941   2.778
13034W        W85349  26.105  10.779   1.681
13035W        W85350  24.543   8.732   3.878
13036W        W85351   6.879  18.971  12.472
13037W        W85352   0.684   5.774  11.210
13038W        W85353  33.909  14.641  13.555
13039W        W85354  22.596  33.432  12.375
13040W        W85355  44.741  36.392  14.263
13041W        W85356  14.536   0.807   3.239
13042W        W85357   1.304  43.370  12.368
13043W        W85358  33.838  42.130  12.117
13044W        W85359   1.058  16.532   4.112
13045W        W85360  43.925  22.194   4.482
13046W        W85361   9.203  22.209   4.967
13047W        W85362   4.039  22.313  13.974
13048W        W85363  18.886  33.870  11.942
13049W        W85364  16.765  31.013  10.282
13050W        W85365  44.222   4.062   3.601
13051W        W85366  41.526  24.024   2.330
13052W        W85367   0.271  12.781  13.981
13053W        W85368  30.061   0.120  11.225
13054W        W85369  26.606   5.914  10.432
13055W        W85370  10.756   5.769   3.204
13056W        W85371   4.630  11.787   0.551
13057W        W85372  42.433  10.863  12.120
13058W        W85373  38.151   0.825   2.703
13059W        W85374  27.216  19.115  14.961
13060W        W85375  15.547  28.545  10.634
13061W        W85376  14.634  37.831  10.531
13062W        W85377   9.948  16.587   4.209
13063W        W85378  25.571  43.546   4.578
13064W        W85379  23.304  44.509   3.546
13065W        W85380  35.552   7.959   0.006
13066W        W85381  39.610   8.958  10.895
13067W        W85382  39.322  22.467   2.777
13068W        W85383  14.755  29.431   1.310
13069W        W85384  25.456  30.584  14.918
13070W        W85385  21.985  10.187   0.685
13071W        W85386   7.940  16.118  14.291
13072W        W85387   9.870  29.655   2.311
13073W        W85388  32.854  28.517  13.866
13074W        W85389  18.804  33.835   0.939
13075W        W85390  29.738   0.274  11.656
13076W        W85391  41.328   2.838  11.453
13077W        W85392   9.014  43.101   2.782
13078W        W85393  37.914  29.901   0.337
13079W        W85394  17.043   8.979  13.239
13080W        W85395  19.176  37.997  13.128
13081W        W85396  40.266  28.748   1.203
13082W        W85397  27.549  26.246  13.503
13083W        W85398  18.352  35.616   4.041
13084W        W85399  31.538  41.763  14.335
13085W        W85400  22.619   5.898  13.350
13086W        W85401  15.739  38.335  14.073
13087W        W85402  32.344  43.309   0.398
13088W        W85403  36.650   3.710   2.674
13089W        W85404  34.013  20.066   3.660
13090W        W85405  41.448   8.005  11.565
13091W        W85406  29.012  14.316  13.997
13092W        W85407  43.849  23.138   1.229
13093W        W85408   8.180  24.254  14.110
13094W        W85409  13.360   4.840   0.885
13095W        W85410  24.751  25.687  14.103
13096W        W85411  32.943   0.307  11.625
13097W        W85412  21.481  24.593   0.447
13098W        W85413  15.577  35.946  13.861
13099W        W85414  22.087  40.319  13.921
13100W        W85415  13.718  25.980  14.933
13101W        W85416  44.055   6.848  14.374
13102W        W85417  23.080   7.202   3.130
13103W        W85418  13.523  11.003   0.908
13104W        W85419   4.540   3.406  12.384
13105W        W85420   2.369  31.089   3.260
13106W        W85421  13.784  32.584  10.969
13107W        W85422   8.357  35.919   1.986
13108W        W85423  10.763  17.521   3.429
13109W        W85424  28.670  37.055  11.535
13110W        W85425  41.489  36.398   2.278
13111W        W85426  11.302  37.892  14.925
13112W        W85427   9.720  35.818   2.689
13113W        W85428  12.749  15.076   1.054
13114W        W85429   6.184   4.180   4.460
13115W        W85430  14.145   9.092  10.791
13116W        W85431  26.042   6.345   1.684
13117W        W85432  26.480  18.708  13.013
13118W        W85433  26.085  30.086  14.325
13119W        W85434  34.371   8.919  13.597
13120W        W85435   3.924  29.638   4.099
13121W        W85436  24.090  17.116   0.135
13122W        W85437   5.967   4.269   1.338
13123W        W85438  43.257  11.707   2.725
13124W        W85439   5.172  20.266   3.358
13125W        W85440   6.741  20.678  10.486
13126W        W85441  31.036  33.278   2.455
13127W        W85442  13.396  18.254  11.223
13128W        W85443  37.872  23.819  12.944
13129W        W85444   9.035  27.180  14.891
13130W        W85445  17.131  41.370  13.067
13131W        W85446  41.808  31.601  14.045
13132W        W85447  25.709  12.029  10.609
13133W        W85448  17.112  35.475  14.500
13134W        W85449  32.105   5.954   0.240
13135W        W85450  43.319  41.806  12.996
13136W        W85451   1.381  37.481   1.684
13137W        W85452  15.729  32.681  14.041
13138W        W85453   9.144   1.769   3.672
13139W        W85454  33.706  27.565   3.929
13140W        W85455  22.417  38.758   2.755
13141W        W85456   1.887  34.594  14.345
13142W        W85457  41.794  18.836   3.902
13143W        W85458  44.842   4.404  10.529
13144W        W85459  12.369   5.723  11.088
13145W        W85460  21.584  37.553  11.677
13146W        W85461  15.150  39.517   0.699
13147W        W85462  23.692  20.065   3.080
13148W        W85463  34.809  34.862   4.139
13149W        W85464  27.579  39.566   2.845
13150W        W85465  11.214  39.420  10.536
13151W        W85466  17.561  40.894  14.269
13152W        W85467  14.695  41.434   2.163
13153W        W85468  11.186  18.270  13.430
13154W        W85469   1.936  27.197   1.945
13155W        W85470  14.298  31.970   0.292
13156W        W85471  18.100   5.506  11.434
13157W        W85472  20.474  17.627   2.740
13158W        W85473  42.032  11.222   0.021
13159W        W85474  40.203  39.148  10.704
13160W        W85475  34.240  31.173   3.537
13161W        W85476  26.575  29.779   2.820
13162W        W85477  10.814   9.300   4.343
13163W        W85478  19.249  26.613  12.451
13164W        W85479  37.005  26.002   3.480
13165W        W85480  11.953  22.583   3.520
13166W        W85481  20.311  13.744  10.649
13167W        W85482  23.449   9.719   0.772
13168W        W85483  28.533   9.968  12.505
13169W        W85484   2.453  15.795   3.465
13170W        W85485  14.808  37.943  14.742
13171W        W85486  27.607  26.111  14.442
13172W        W85487  18.234  39.770   2.660
13173W        W85488  11.747  33.380   1.295
13174W        W85489  32.516   9.301   3.358
13175W        W85490   7.100   0.573   4.517
13176W        W85491  30.159  31.588  11.736
13177W        W85492  35.050  16.421  10.735
13178W        W85493  11.340  34.483  14.900
13179W        W85494   1.328  22.361  12.636
13180W        W85495  11.752  29.089  10.618
13181W        W85496  15.778  23.516  12.278
13182W        W85497  23.112  39.610  10.672
13183W        W85498  40.483  44.072  11.968
13184W        W85499  35.444   7.368   1.292
13185W        W85500  28.719  31.993  12.802
13186W        W85501   4.173  41.118  13.673
13187W        W85502   7.331   5.387   0.908
13188W        W85503   5.788  22.533   2.435
13189W        W85504  38.862   3.194  10.321
13190W        W85505  34.082  29.834   0.802
13191W        W85506  19.541  11.417  11.456
13192W        W85507  39.010  19.004   4.318
13193W        W85508   3.326  33.453  11.857
13194W        W85509  21.236   6.324  11.061
13195W        W85510  13.378  32.476  12.862
13196W        W85511   1.055  42.487   4.853
13197W        W85512  24.912   1.190  11.499
13198W        W85513   5.848   9.840   4.462
13199W        W85514   4.225   0.035   4.531
13200W        W85515   8.597  42.503   1.870
13201W        W85516   0.680  10.143   4.098
13202W        W85517  14.616   2.155  11.133
13203W        W85518   1.180   4.463   2.810
13204W        W85519  15.897  21.730   1.927
13205W        W85520   8.799  43.211  14.440
13206W        W85521  42.267   6.139   1.848
13207W        W85522  38.325   3.329   3.167
13208W        W85523  21.036  44.020  12.055
13209W        W85524  37.585  42.874  14.278
13210W        W85525  22.647  25.290   1.331
13211W        W85526  18.785  13.073  13.479
13212W        W85527   7.895  36.967   2.789
13213W        W85528  14.694  43.725  12.010
13214W        W85529  13.645  26.471  13.553
13215W        W85530  38.278  24.594  11.560
13216W        W85531  36.642  27.649   0.901
13217W        W85532  11.312  22.958  12.308
13218W        W85533  25.419   1.751  13.508
13219W        W85534  17.251  44.859   0.052
13220W        W85535  17.755  21.818   0.304
13221W        W85536  33.905  23.318   1.563
13222W        W85537  18.270  38.401   5.227
13223W        W85538  13.259  30.016   0.337
13224W        W85539   1.526  41.477  13.366
13225W        W85540  17.957  43.699   1.467
13226W        W85541   7.532  41.808  13.760
13227W        W85542   8.941  43.290   3.267
13228W        W85543  21.915   2.184  14.513
13229W        W85544  34.783  29.154   1.846
13230W        W85545   6.590   1.414   3.007
13231W        W85546  10.154  27.994  13.156
13232W        W85547  35.368  42.064   1.393
13233W        W85548   1.224  40.209  11.631
13234W        W85549  42.568  36.351  13.059
13235W        W85550  18.070  10.999   2.218
13236W        W85551   7.109  16.870   1.285
13237W        W85552  32.757  14.785   1.401
13238W        W85553  16.054  42.013   0.070
13239W        W85554  44.987  21.686   4.046
13240W        W85555  37.958  23.450  11.755
13241W        W85556  26.378  19.465  11.693
13242W        W85557   7.352  21.592  14.448
13243W        W85558  21.247  34.603  12.843
13244W        W85559  29.606  43.697   3.152
13245W        W85560  32.468  41.571   4.263
13246W        W85561  26.727  15.314  12.042
13247W        W85562   8.409   9.808  11.485
13248W        W85563  14.291  27.288   2.130
13249W        W85564  42.369  37.731  11.655
13250W        W85565   8.871  36.018  12.481
13251W        W85566  16.508  44.856  11.026
13252W        W85567  40.191  18.092   1.892
13253W        W85568   3.900  43.162  14.423
13254W        W85569  39.809  24.406   2.863
13255W        W85570  31.725   0.424   4.665
13256W        W85571  11.916   3.337   3.144
13257W        W85572   8.908  34.172   2.525
13258W        W85573  34.171  19.275   4.102
13259W        W85574  14.775  41.866   1.393
13260W        W85575  32.573  43.579   3.181
13261W        W85576   9.327  39.575  12.466
13262W        W85577  16.454  25.953  13.110
13263W        W85578  23.121  33.341  12.915
13264W        W85579  43.289  11.398   1.650
13265W        W85580  11.395  38.355  12.028
13266W        W85581  19.298  36.876   4.794
13267W        W85582  25.236  24.173   4.252
13268W        W85583  43.301   9.151  10.683
13269W        W85584  36.957  30.292   2.704
13270W        W85585   7.569  39.231  11.142
13271W        W85586   9.860  23.102  14.358
13272W        W85587  22.173  26.678   4.595
13273W        W85588   4.562   8.031  14.914
13274W        W85589  28.064  37.452  13.341
13275W        W85590  30.231  31.491   2.226
13276W        W85591   9.371  19.146   2.611
13277W        W85592  31.613  10.182  12.783
13278W        W85593  30.522   9.138   0.244
13279W        W85594  39.890  34.008  11.659
13280W        W85595  25.758  44.298  10.152
13281W        W85596  17.296  10.819   1.666
13282W        W85597  40.923  40.495  10.515
13283W        W85598  43.489   7.228  13.815
13284W        W85599  28.692  16.210   2.038
13285W        W85600   0.920   9.893   2.476
13286W        W85601   6.724   0.204  12.407
13287W        W85602  41.525  14.171   2.804
13288W        W85603   0.178  33.002   2.196
13289W        W85604   8.569  21.169   0.971
13290W        W85605  40.591  20.203  12.034
13291W        W85606  12.347  43.287  10.721
13292W        W85607  17.712  16.210  13.376
13293W        W85608  26.103  15.045  13.036
13294W        W85609  35.200  29.244  11.238
13295W        W85610  24.659  35.350  11.631
13296W        W85611   0.476  40.108  12.034
13297W        W85612   7.421  18.817   1.822
13298W        W85613  13.186   1.937  12.041
13299W        W85614  40.982  39.919   0.526
13300W        W85615   3.973  34.526  13.366
13301W        W85616   3.292   3.018  12.807
13302W        W85617  12.249  32.021  11.460
13303W        W85618   0.462  18.047   0.009
13304W        W85619   7.007  13.674  14.576
13305W        W85620  24.162  41.040   0.848
13306W        W85621   6.031  10.766  10.680
13307W        W85622  20.101  18.961   4.626
13308W        W85623  30.567   7.692   1.414
13309W        W85624  44.022   8.400   2.398
13310W        W85625   5.313  10.750   2.744
13311W        W85626  23.661  35.291   0.664
13312W        W85627  12.263  12.871   2.479
13313W        W85628   2.773  42.253   3.434
13314W        W85629  32.883  15.985   2.080
13315W        W85630  19.832   6.811  11.074
13316W        W85631  12.068  11.413   2.483
13317W        W85632   8.690  34.091   4.132
13318W        W85633  25.218  37.588  10.004
13319W        W85634   9.394   1.883  11.116
13320W        W85635   6.644  17.128  12.813
13321W        W85636   2.304  43.465  11.510
13322W        W85637  17.596   9.694  10.130
13323W        W85638  29.183  37.351   4.164
13324W        W85639  32.257  39.716   2.297
13325W        W85640  25.528  14.958   1.926
13326W        W85641   9.413  38.957  14.753
13327W        W85642  12.609  27.526   0.769
13328W        W85643  21.539  14.332  14.007
13329W        W85644  18.731  43.545  12.552
13330W        W85645   7.826  16.507   3.741
13331W        W85646  15.172  12.559   3.351
13332W        W85647  16.343  19.389   4.114
13333W        W85648  42.281  43.565  11.179
13334W        W85649  19.746  17.053  10.972
13335W        W85650   8.124  11.044  13.057
13336W        W85651  17.339   7.681  12.630
13337W        W85652  21.179   4.895   3.440
13338W        W85653  43.828  17.097  14.344
13339W        W85654  13.266  26.536   5.013
13340W        W85655   3.340   3.280   0.881
13341W        W85656  14.541   7.799  14.499
13342W        W85657  31.848  36.623   4.187
13343W        W85658  18.132   5.963  12.676
13344W        W85659  35.121  42.351  14.489
13345W        W85660  13.677  33.723  13.413
13346W        W85661   2.338  14.592  10.521
13347W        W85662   4.897  35.592   4.468
13348W        W85663  33.727  33.871   1.835
13349W        W85664   5.056  29.659   5.078
13350W        W85665  14.785  22.256  10.940
13351W        W85666   7.358   3.179   4.914
13352W        W85667  11.717  31.657   2.861
13353W        W85668  25.732   3.423   4.176
13354W        W85669  11.534   5.352  12.579
13355W        W85670   0.363  40.635   0.808
13356W        W85671  22.121  39.441  10.699
13357W        W85672  36.848  29.961   1.315
13358W        W85673  20.590  37.017  13.435
13359W        W85674  33.381   9.207  12.107
13360W        W85675  39.388  12.402  14.118
13361W        W85676  42.740  30.959   0.254
13362W        W85677  32.679  19.334  14.374
13363W        W85678  44.765  16.636  14.634
13364W        W85679  37.560  10.817  10.255
13365W        W85680  12.935   4.000   1.841
13366W        W85681  40.268  16.518   3.718
13367W        W85682  18.015  38.481  13.914
13368W        W85683   6.768  10.166   2.837
13369W        W85684  41.087  11.840   1.746
13370W        W85685  28.563  19.254  14.378
13371W        W85686  29.190  37.291   1.330
13372W        W85687  15.105  13.058  12.437
13373W        W85688  33.034  27.402  12.423
13374W        W85689  30.871  16.075   0.903
13375W        W85690  15.351  29.614  12.534
13376W        W85691   6.357  23.429  14.439
13377W        W85692  16.145   0.267  12.696
13378W        W85693  41.436  40.459   4.219
13379W        W85694  36.518  21.778  11.937
13380W        W85695  13.419  23.212  14.250
13381W        W85696  39.528  17.389  13.855
13382W        W85697  32.952  42.431   1.218
13383W        W85698  25.252   4.727  11.018
13384W        W85699   5.925  37.610  13.512
13385W        W85700   5.328   8.750  14.746
13386W        W85701  19.240  39.814  10.658
13387W        W85702  19.754  41.895   4.953
13388W        W85703  10.496  20.272   0.979
13389W        W85704   8.342  22.558  14.493
13390W        W85705  17.774  42.324   3.274
13391W        W85706  33.455   0.254  12.031
13392W        W85707  25.057   9.721   1.656
13393W        W85708  19.031  18.100   0.925
13394W        W85709  44.203   9.406   1.386
13395W        W85710  19.735  26.607  13.906
13396W        W85711  17.952   8.116  13.866
13397W        W85712  19.092   2.925  12.456
13398W        W85713  30.482   9.694  12.258
13399W        W85714  10.193   9.575   0.577
13400W        W85715  34.889  16.089  14.085
13401W        W85716  23.157  21.522   2.156
13402W        W85717  31.004  41.396   0.709
13403W        W85718  42.317  36.252  14.870
13404W        W85719  24.439  15.741  12.058
13405W        W85720  24.517   5.470  13.822
13406W        W85721  34.615   6.285  11.978
13407W        W85722  43.057  40.853  13.895
13408W        W85723  23.578  26.155  14.044
13409W        W85724  38.603   3.686  14.855
13410W        W85725  29.597  27.842   3.728
13411W        W85726  42.100  23.215   2.038
13412W        W85727  21.133  32.441   0.838
13413W        W85728  20.777  24.573   3.262
13414W        W85729  27.951   7.833  11.846
13415W        W85730  39.329  28.814   5.004
13416W        W85731  26.495   9.827   1.711
13417W        W85732  25.978  31.522  13.147
13418W        W85733  16.043  42.873  14.233
13419W        W85734  15.318  42.998   0.884
13420W        W85735  17.735  11.800  11.396
13421W        W85736  28.058  24.603   0.900
13422W        W85737   7.969   6.699   0.297
13423W        W85738  24.961  14.705  14.831
13424W        W85739  37.501  39.616  12.102
13425W        W85740  22.295   8.338  11.529
13426W        W85741  23.166  17.531  12.481
13427W        W85742  39.441   8.209   4.154
13428W        W85743  28.502   7.366   1.648
13429W        W85744   1.920  38.552   4.719
13430W        W85745  32.215   4.946  11.594
13431W        W85746  12.818  16.119   0.421
13432W        W85747   2.651  42.341   1.353
13433W        W85748  40.545  20.059  13.737
13434W        W85749  16.993   3.877  14.405
13435W        W85750  29.729  42.162  14.405
13436W        W85751  17.015  43.375  11.129
13437W        W85752  41.759   0.485   1.305
13438W        W85753   0.908  33.786  13.031
13439W        W85754   2.457  30.514  10.817
13440W        W85755  16.195  19.105  14.877
13441W        W85756   7.849  15.339  13.935
13442W        W85757  10.447   5.790  14.241
13443W        W85758  36.840   5.782   2.365
13444W        W85759  12.803   9.441  12.483
13445W        W85760   9.674  28.027  10.920
13446W        W85761  23.080   5.300  11.315
13447W        W85762  20.270  16.233   4.817
13448W        W85763  16.835  44.748   3.842
13449W        W85764  26.681  20.195   1.840
13450W        W85765  30.319  21.150   3.041
13451W        W85766  43.054  20.095  13.069
13452W        W85767   5.486   8.748   3.252
13453W        W85768   6.210   9.863  14.848
13454W        W85769   0.644  30.974   3.859
13455W        W85770   3.704  35.122  11.167
13456W        W85771   8.258  15.734  11.615
13457W        W85772  41.366  18.783   1.824
13458W        W85773  11.213  42.888  11.420
13459W        W85774   2.771  14.423   0.399
13460W        W85775  16.704  10.936  11.529
13461W        W85776   7.862  29.590   0.203
13462W        W85777  26.940   5.411  10.171
13463W        W85778  40.377  38.802  11.555
13464W        W85779  40.116  21.266   2.121
13465W        W85780   4.177   3.811   2.323
13466W        W85781  32.484  22.488   2.333
13467W        W85782   3.867  20.522   2.379
13468W        W85783  19.279  29.225  13.362
13469W        W85784   0.342  23.843   1.403
13470W        W85785  17.838  17.111  11.145
13471W        W85786  24.422  32.593  13.934
13472W        W85787  23.639  31.576  12.998
13473W        W85788  11.279  17.273  13.508
13474W        W85789  39.309  11.331   4.803
13475W        W85790  16.253  39.914   5.023
13476W        W85791  22.099  38.235  14.863
13477W        W85792  18.792  25.085  14.122
13478W        W85793  38.367  20.757   0.313
13479W        W85794  28.459  10.733   4.649
13480W        W85795  29.900   8.757   3.724
13481W        W85796  12.648  37.795   1.499
13482W        W85797   3.737  28.332   3.732
13483W        W85798  10.340   2.859  13.506
13484W        W85799  30.006  24.632  11.417
13485W        W85800   7.248  15.009  12.352
13486W        W85801  37.980  11.834   4.187
13487W        W85802  44.487  16.707  12.162
13488W        W85803  41.010  25.607  11.501
13489W        W85804  42.598   9.454  13.638
13490W        W85805  42.270  42.852   2.314
13491W        W85806  27.474  30.424   1.804
13492W        W85807   0.763  16.792   2.761
13493W        W85808  36.984   5.186  14.933
13494W        W85809   3.401  29.139  14.753
13495W        W85810  39.009   4.405  13.823
13496W        W85811  36.697  16.530   0.564
13497W        W85812  43.299  15.082   2.321
13498W        W85813  29.206  44.391  11.393
13499W        W85814  25.240  29.613  12.578
13500W        W85815   2.389  14.739  14.295
13501W        W85816  15.852   1.905  11.519
13502W        W85817   1.000  27.198   4.482
13503W        W85818   6.578   0.711   1.812
13504W        W85819  42.659  21.879   2.615
13505W        W85820  26.533  42.153   4.144
13506W        W85821  24.366  19.101  12.384
13507W        W85822  43.013   0.940  11.002
13508W        W85823  41.546  35.853   2.837
13509W        W85824  16.374  31.421   4.005
13510W        W85825  27.179  20.793   0.770
13511W        W85826  22.709  11.125  13.507
13512W        W85827  41.491  43.361  14.028
13513W        W85828   4.714  18.342  12.968
13514W        W85829  39.173   7.404   3.261
13515W        W85830  13.165  13.885   3.168
13516W        W85831  38.466  41.249  11.978
13517W        W85832   7.376  24.936   4.635
13518W        W85833  26.419  30.427   1.357
13519W        W85834   7.880  38.830   4.938
13520W        W85835  21.664  12.299  12.293
13521W        W85836  42.032  22.917   9.939
13522W        W85837  38.085  20.530  14.765
13523W        W85838  30.161  10.734   1.866
13524W        W85839   5.397   4.027   0.427
13525W        W85840  25.642  17.615   3.882
13526W        W85841   0.046  14.770   3.338
13527W        W85842  10.143  28.184   5.085
13528W        W85843  41.623  39.572   2.824
13529W        W85844  43.873  29.712  11.595
13530W        W85845   9.255   0.326   1.751
13531W        W85846  20.699  13.187   4.324
13532W        W85847  44.443  13.065  11.885
13533W        W85848  15.052  42.011  13.990
13534W        W85849   2.414  43.411  10.735
13535W        W85850  42.904  39.018  14.163
13536W        W85851   9.574  27.677   1.982
13537W        W85852  10.662  22.734   4.749
13538W        W85853  12.172   5.108  13.041
13539W        W85854  43.817  23.932  11.584
13540W        W85855  33.581   5.406  10.626
13541W        W85856  42.957  37.674  12.415
13542W        W85857  25.519   7.608  11.166
13543W        W85858  38.450  11.147  13.021
13544W        W85859  32.470  22.812  12.578
13545W        W85860   1.808  30.495   2.718
13546W        W85861  28.055  14.551  14.456
13547W        W85862  35.085   6.052  10.306
13548W        W85863  15.768  44.078   2.932
13549W        W85864   8.297  38.522  13.644
13550W        W85865  40.879  29.498   4.242
13551W        W85866   8.171   1.838   0.421
13552W        W85867  36.075  37.987  13.998
13553W        W85868  34.537  31.810   0.466
13554W        W85869  32.846  12.880   2.885
13555W        W85870   1.920  37.925   4.087
13556W        W85871  29.982  15.656   3.452
13557W        W85872  33.871  23.131  14.339
13558W        W85873  27.156  21.679   2.355
13559W        W85874  36.021   5.756   1.401
13560W        W85875  26.213  10.422   0.355
13561W        W85876  18.317  34.136   2.798
13562W        W85877  34.940  43.840  13.346
13563W        W85878  25.132  32.891   2.989
13564W        W85879  27.348  30.997  10.056
13565W        W85880  18.305  12.530   3.763
13566W        W85881   4.236  25.426  14.274
13567W        W85882  24.634   8.129  13.481
13568W        W85883  15.045  18.656   4.232
13569W        W85884  16.829  31.233  13.885
13570W        W85885  31.778   8.603  14.903
13571W        W85886  35.209  12.720  10.780
13572W        W85887  22.973  33.396   4.608
13573W        W85888   2.595   1.880  12.446
13574W        W85889  31.821  44.931  11.881
13575W        W85890  25.520  11.538  10.650
13576W        W85891  14.008  40.248  11.802
13577W        W85892  24.594   6.155  12.402
13578W        W85893  38.406  16.138   3.411
13579W        W85894  44.056  10.313  13.251
13580W        W85895  34.741  15.028   4.155
13581W        W85896  25.742  10.154   2.699
13582W        W85897   3.332  14.121   1.360
13583W        W85898  33.766  11.992  10.938
13584W        W85899  15.289  29.070   9.838
13585W        W85900  19.575  22.483  12.060
13586W        W85901  29.931   7.166  14.867
13587W        W85902   5.352   4.364   3.554
13588W        W85903  23.714  26.113   1.426
13589W        W85904  14.886  31.356  11.598
13590W        W85905  17.663  19.894   0.834
13591W        W85906   7.246  23.446  11.673
13592W        W85907  19.207  24.590   1.327
13593W        W85908  24.505  41.489  10.527
13594W        W85909  33.923  42.087   3.581
13595W        W85910  25.647  39.757   4.264
13596W        W85911  13.732  32.451   1.903
13597W        W85912  37.439  31.858  12.618
13598W        W85913   4.051   8.422   1.506
13599W        W85914   9.368  28.837   3.787
13600W        W85915  10.123  15.324   3.965
13601W        W85916  11.276  25.167  10.983
13602W        W85917  24.449   3.853  12.993
13603W        W85918  10.816  17.681   3.918
13604W        W85919  17.849  17.057   3.745
13605W        W85920  11.338  19.297   1.707
13606W        W85921   0.781  25.915   0.480
13607W        W85922  43.749   8.224  11.104
13608W        W85923  23.758   0.541   2.744
13609W        W85924  39.080  13.681   4.715
13610W        W85925  42.420  30.483   2.782
13611W        W85926  13.415   2.572  13.697
13612W        W85927  15.045  11.761  10.846
13613W        W85928  15.398   6.893  12.129
13614W        W85929  21.812  36.868  13.804
13615W        W85930  16.003  43.937  10.775
13616W        W85931  26.997  29.608  13.873
13617W        W85932   9.458  19.682   0.838
13618W        W85933  19.769  36.408  11.495
13619W        W85934  37.317   0.280  11.338
13620W        W85935  39.496  10.619  14.447
13621W        W85936  11.768  34.963   5.078
13622W        W85937  28.512  20.714   1.963
13623W        W85938  23.409   9.778  11.443
13624W        W85939  28.126  22.488  12.943
13625W        W85940  12.170  38.365   0.608
13626W        W85941  35.360   5.021   2.742
13627W        W85942   4.732  44.458  10.329
13628W        W85943  10.811  41.547   1.816
13629W        W85944  40.076  29.059  13.310
13630W        W85945  22.194  29.256   4.236
13631W        W85946   0.891  24.926  14.438
13632W        W85947  41.248  30.577   3.664
13633W        W85948  41.698  34.427  11.145
13634W        W85949  43.160  22.580  11.584
13635W        W85950  38.889  34.034   3.865
13636W        W85951   1.880  18.036   3.714
13637W        W85952  41.232  41.821  13.850
13638W        W85953  28.127  16.621   0.358
13639W        W85954  20.408   3.504   0.968
13640W        W85955  24.439  43.822  10.687
13641W        W85956  30.922  41.462   0.206
13642W        W85957   5.135  16.196  10.233
13643W        W85958  12.117   9.896   4.081
13644W        W85959  43.893  34.382   4.970
13645W        W85960   7.430   8.787   4.488
13646W        W85961   7.570  14.078  14.306
13647W        W85962  34.317  15.340   0.844
13648W        W85963  34.075  26.583  14.470
13649W        W85964   2.879   3.030   4.129
13650W        W85965  43.367  17.916  14.513
13651W        W85966  22.212  14.698   4.710
13652W        W85967   9.025  26.949   3.578
13653W        W85968  39.559  12.356   1.300
13654W        W85969  37.894  36.127  11.537
13655W        W85970   0.909   7.077   3.981
13656W        W85971  41.540  42.208   4.191
13657W        W85972  43.564  18.073  13.087
13658W        W85973  37.573  31.099   0.329
13659W        W85974  44.893  42.358  14.656
13660W        W85975  36.809  33.845   3.628
13661W        W85976   3.943   3.030  13.859
13662W        W85977  42.780  40.364   4.270
13663W        W85978  35.138  11.267  12.680
13664W        W85979  38.397  44.857  14.043
13665W        W85980  32.464   4.862   3.617
13666W        W85981  24.246  37.001   4.530
13667W        W85982   7.381  14.535  12.150
13668W        W85983  28.125  29.933   3.665
13669W        W85984  13.259  35.309   3.734
13670W        W85985  23.129  17.716   4.942
13671W        W85986  12.729  25.618   0.358
13672W        W85987  30.677  10.422  11.133
13673W        W85988   5.221  27.522   0.963
13674W        W85989  12.844  16.816  14.817
13675W        W85990   4.143  34.577  10.549
13676W        W85991   0.843  22.476   2.693
13677W        W85992   5.289  27.567  14.926
13678W        W85993  11.060  24.685   3.919
13679W        W85994  41.317  27.183  11.828
13680W        W85995   0.112   0.752   4.139
13681W        W85996  41.225  33.340   4.120
13682W        W85997  18.862   0.163  13.905
13683W        W85998  19.051  17.637  14.741
13684W        W85999  27.961  22.748   4.528
13685W        W86000  33.597  13.044   2.408
13686W        W86001   1.662  40.097   1.097
13687W        W86002  18.147  27.034   0.079
13688W        W86003  42.050   9.934  11.837
13689W        W86004  44.551  44.798  10.987
13690W        W86005  20.144  39.605   4.566
13691W        W86006  14.713  28.689  10.902
13692W        W86007  39.606  34.304   4.188
13693W        W86008   1.387  33.420  14.417
13694W        W86009   9.104  41.584  10.279
13695W        W86010  43.210  42.405  12.333
13696W        W86011  34.387  11.265  14.006
13697W        W86012  31.359   5.725   0.474
13698W        W86013  38.569   9.915  11.928
13699W        W86014  33.510  32.412  14.365
13700W        W86015  22.899  25.789   2.594
13701W        W86016  37.361   9.294   1.410
13702W        W86017  44.910  37.000   3.764
13703W        W86018   9.679  29.684  10.646
13704W        W86019  26.255  32.560  10.966
13705W        W86020  31.153  36.408   3.252
13706W        W86021   0.417  27.920  13.839
13707W        W86022  43.327  43.095   0.986
13708W        W86023  13.946  25.526  14.783
13709W        W86024  31.671  31.923  11.107
13710W        W86025  33.631  37.414   3.174
13711W        W86026  43.446   8.133  12.467
13712W        W86027  39.923  28.505   3.892
13713W        W86028   9.692  22.954   2.223
13714W        W86029  12.767  25.668   2.246
13715W        W86030  29.060  44.698   2.654
13716W        W86031  13.212  23.942  12.534
13717W        W86032   7.836  20.085  12.437
13718W        W86033  41.503  24.321  12.575
13719W        W86034   7.871  18.021   3.638
13720W        W86035  11.564  26.171   1.706
13721W        W86036  24.650  16.622   3.187
13722W        W86037   7.738   5.375   3.955
13723W        W86038  13.623  40.717  13.514
13724W        W86039   4.156   2.002  13.350
13725W        W86040  23.217   2.499   3.647
13726W        W86041  36.852  18.716  10.511
13727W        W86042  16.678  28.474  11.456
13728W        W86043  40.181  28.978   3.266
13729W        W86044  30.667  35.370   0.024
13730W        W86045  21.168  38.184   4.114
13731W        W86046  22.724  27.071  12.157
13732W        W86047  28.002  43.559  11.157
13733W        W86048   0.597  17.103  10.105
13734W        W86049  36.837   6.194   3.284
13735W        W86050  26.152  44.558   1.304
13736W        W86051  43.613  19.803   1.300
13737W        W86052  21.073  10.908  11.002
13738W        W86053  21.713  28.160   4.784
13739W        W86054   2.285  15.304   0.001
13740W        W86055   2.527   1.705  11.568
13741W        W86056  19.206  33.848  14.814
13742W        W86057  28.540  39.297   2.531
13743W        W86058  34.255  42.524  14.993
13744W        W86059   7.725  28.404   4.495
13745W        W86060  31.263  43.023   5.045
13746W        W86061  27.955  31.855   1.716
13747W        W86062  23.251  22.412  13.259
13748W        W86063  42.072  35.865  11.238
13749W        W86064  28.903   2.488  11.259
13750W        W86065  22.304   6.722  11.875
13751W        W86066  36.132  39.639   2.234
13752W        W86067   5.908  15.820   3.766
13753W        W86068  32.236  25.204  11.641
13754W        W86069  10.580  13.314  13.907
13755W        W86070  33.520  44.497   2.691
13756W        W86071  36.966   9.222  12.626
13757W        W86072  13.294   0.979   5.046
13758W        W86073  18.696  30.557   3.119
13759W        W86074  33.081  14.169  13.749
13760W        W86075  40.677  29.001   0.950
13761W        W86076   3.166  22.144   3.187
13762W        W86077  17.157  34.268   4.133
13763W        W86078   9.911  20.123  11.359
13764W        W86079   5.870  28.366   1.818
13765W        W86080   4.934  17.767  11.067
13766W        W86081  27.641  28.952  10.831
13767W        W86082  29.568  29.121  11.907
13768W        W86083  22.670  15.043   1.249
13769W        W86084  28.605  17.095  13.569
13770W        W86085   0.096  22.052   0.922
13771W        W86086  28.775  17.725   3.117
13772W        W86087  30.707  16.292   2.275
13773W        W86088  20.201   9.685  13.849
13774W        W86089  18.324  33.542   0.773
13775W        W86090   0.696   2.202   1.132
13776W        W86091   4.764  14.959  14.435
13777W        W86092  25.724  39.272   4.173
13778W        W86093   5.627  19.662   0.449
13779W        W86094   4.771  34.627   1.768
13780W        W86095  24.460  26.920   2.586
13781W        W86096  38.517  34.890  12.169
13782W        W86097   6.283  13.876   2.447
13783W        W86098  11.505  28.586  12.594
13784W        W86099  37.061  38.075  10.410
13785W        W86100   0.607  31.899  14.342
13786W        W86101  38.575  25.433  10.620
13787W        W86102  34.557   2.332   1.797
13788W        W86103  32.091  38.735   2.666
13789W        W86104  39.907  39.961  11.749
13790W        W86105  21.083  24.684  12.403
13791W        W86106   3.622  38.523  12.559
13792W        W86107  34.501  23.123   2.429
13793W        W86108  40.255  18.528  11.639
13794W        W86109  31.320  39.887  11.998
13795W        W86110  35.380  16.064  13.443
13796W        W86111  19.749  10.311   0.021
13797W        W86112  19.761   3.411  12.353
13798W        W86113  40.079   2.304  13.175
13799W        W86114  40.354  39.969  12.075
13800W        W86115   8.160  19.825  14.361
13801W        W86116  10.136  37.385  13.084
13802W        W86117   5.899  44.477  12.583
13803W        W86118  18.582   9.229   0.959
13804W        W86119  44.415  17.305  11.422
13805W        W86120  26.260  19.201   1.766
13806W        W86121   6.801  25.451  10.971
13807W        W86122  10.199  10.327   1.342
13808W        W86123  19.117  35.452   0.452
13809W        W86124  22.005  38.302  11.643
13810W        W86125  40.379   4.721  13.804
13811W        W86126  22.234   3.284  11.248
13812W        W86127  19.137  19.625  12.943
13813W        W86128  23.626  19.679   4.163
13814W        W86129  21.532  25.453   0.875
13815W        W86130  43.316  10.291   4.670
13816W        W86131  24.420  19.755   9.730
13817W        W86132  26.490  32.646  13.971
13818W        W86133  15.118  23.243  12.181
13819W        W86134  18.127  21.516   3.227
13820W        W86135  21.596   3.556   3.119
13821W        W86136  31.593   4.666  11.951
13822W        W86137  27.353  38.716   1.477
13823W        W86138  29.639  11.170   3.718
13824W        W86139   3.448  35.631  12.506
13825W        W86140  13.820  24.662   4.728
13826W        W86141  35.528  34.094   1.985
13827W        W86142  32.679  26.216  13.845
13828W        W86143   5.719  42.888  13.450
13829W        W86144  39.204  39.434   4.982
13830W        W86145  31.327  38.185  12.931
13831W        W86146   2.709   5.769  13.888
13832W        W86147   9.361  15.779   0.515
13833W        W86148  34.658  44.712  11.986
13834W        W86149  13.954   9.701   0.303
13835W        W86150  41.587   6.884   0.463
13836W        W86151  44.482  26.345   1.285
13837W        W86152  38.048  18.138  12.055
13838W        W86153   0.403  41.403  11.447
13839W        W86154  20.735  43.711  10.691
13840W        W86155   2.842   3.469   0.846
13841W        W86156  23.161  23.807   4.171
13842W        W86157  25.239  44.249   0.326
13843W        W86158   7.247   3.654   1.316
13844W        W86159  26.051   5.858   2.630
13845W        W86160   1.618  16.843   1.665
13846W        W86161  40.047  24.171  11.621
13847W        W86162  10.799  36.596   3.766
13848W        W86163   7.409  14.271  10.683
13849W        W86164  22.161  16.008  13.816
13850W        W86165  27.412   5.911   2.250
13851W        W86166  32.075  34.430  12.578
13852W        W86167  22.590   9.228   3.686
13853W        W86168  33.115  44.391  14.639
13854W        W86169  26.658  32.636  12.839
13855W        W86170   5.104  10.858   0.239
13856W        W86171  27.170  33.634   0.432
13857W        W86172  30.171  37.416   3.257
13858W        W86173   4.376   5.740  14.489
13859W        W86174   1.255   1.218  14.627
13860W        W86175  11.763  11.150  13.775
13861W        W86176  26.042   7.885   2.108
13862W        W86177  37.403  17.285  12.100
13863W        W86178  18.334  41.266   1.431
13864W        W86179  35.313  34.792   4.325
13865W        W86180  38.941   6.654  12.475
13866W        W86181  36.339  21.504  10.510
13867W        W86182   9.653  18.998  13.954
13868W        W86183  25.743  37.114  12.142
13869W        W86184  40.022  31.838   4.891
13870W        W86185  42.218  18.342  14.328
13871W        W86186  43.796  27.565  12.657
13872W        W86187  14.520  36.529  13.022
13873W        W86188  11.834   6.127  13.655
13874W        W86189  44.001   7.855  14.792
13875W        W86190  43.967  23.634  12.145
13876W        W86191  32.864  44.224   1.154
13877W        W86192  42.247  20.081   1.400
13878W        W86193  21.875  37.262   4.060
13879W        W86194   3.450  36.657  14.753
13880W        W86195  18.265  36.613  11.810
13881W        W86196   8.392  17.785   3.402
13882W        W86197  32.671  20.203   4.189
13883W        W86198  40.585  42.356   2.821
13884W        W86199  36.463   6.368  14.221
13885W        W86200  20.680  37.531  11.170
13886W        W86201   7.237  12.257  12.916
13887W        W86202   0.894  15.069  10.758
13888W        W86203   0.381  17.784  13.976
13889W        W86204  10.121  33.410   5.024
13890W        W86205  13.645  25.199   1.839
13891W        W86206  42.815  22.013   2.132
13892W        W86207   2.240  23.574  12.080
13893W        W86208  39.270  43.830   5.066
13894W        W86209  41.001  39.239  11.114
13895W        W86210   2.851  13.910   0.356
13896W        W86211  36.852  38.332  14.528
13897W        W86212  27.951   7.745   3.679
13898W        W86213  33.692  42.392   3.250
13899W        W86214  20.021  38.572  10.707
13900W        W86215  43.356   9.622   2.257
13901W        W86216   6.254  26.580  14.957
13902W        W86217   1.812  29.386  11.174
13903W        W86218  33.590   1.866  14.046
13904W        W86219  39.104  17.650   0.917
13905W        W86220   7.464  18.237  13.860
13906W        W86221   8.114  29.858   1.343
13907W        W86222  10.373  44.374  11.630
13908W        W86223  18.700  29.086   0.907
13909W        W86224  11.804  22.034   0.469
13910W        W86225   7.754  20.064  12.948
13911W        W86226   0.033  33.067   4.196
13912W        W86227  38.392  42.752   4.889
13913W        W86228  11.688  41.497   1.967
13914W        W86229   9.366  19.090   0.835
13915W        W86230  42.244  32.632  12.537
13916W        W86231  31.124  15.377  13.568
13917W        W86232  29.790  35.147  10.418
13918W        W86233  40.079  31.475  12.355
13919W        W86234  37.505   3.476   2.310
13920W        W86235  20.335  31.957  13.039
13921W        W86236  33.483  26.242   1.106
13922W        W86237  23.910  19.315  14.700
13923W        W86238  30.192  35.938  14.547
13924W        W86239   9.630  20.210   1.606
13925W        W86240  39.907  31.003  11.624
13926W        W86241  34.425  15.237  14.547
13927W        W86242  32.435  14.031   3.754
13928W        W86243  13.216  42.427  11.030
13929W        W86244  10.898   6.826   2.130
13930W        W86245  10.457  38.959  10.075
13931W        W86246  13.251   9.404   0.444
13932W        W86247  44.398  13.720  12.145
13933W        W86248  13.098  31.971   1.358
13934W        W86249  12.870  43.344  12.416
13935W        W86250  14.334  38.021   2.280
13936W        W86251  16.287  26.235   2.172
13937W        W86252   5.773  17.142  14.885
13938W        W86253  28.866  28.619   0.165
13939W        W86254   5.954   2.273   3.388
13940W        W86255   4.968   1.009  12.971
13941W        W86256  18.794  12.606  10.815
13942W        W86257  35.587  40.438   4.518
13943W        W86258   5.508  42.820  12.979
13944W        W86259   6.637  26.279   0.237
13945W        W86260  10.864  44.327  14.566
13946W        W86261  29.911   5.319  14.874
13947W        W86262  39.323  31.866   4.342
13948W        W86263  35.616  16.911  11.951
13949W        W86264   0.372  22.612   1.618
13950W        W86265  10.425  32.982   2.197
13951W        W86266  23.795  16.267   0.431
13952W        W86267   5.957  28.721   1.402
13953W        W86268   1.907  28.616   2.704
13954W        W86269  17.746   6.239   1.196
13955W        W86270   1.662  26.565  10.702
13956W        W86271   4.393  37.792   2.290
13957W        W86272  25.658  32.231  13.558
13958W        W86273  24.162  31.911  12.476
13959W        W86274   5.447  22.634  10.071
13960W        W86275  22.560  10.902   0.296
13961W        W86276   5.662  20.777   1.312
13962W        W86277  41.583  30.242  14.206
13963W        W86278  31.134   0.417  10.656
13964W        W86279   3.392  40.011   2.310
13965W        W86280  44.879   0.534  14.014
13966W        W86281  32.518  32.357  13.464
13967W        W86282  13.219   7.903   0.885
13968W        W86283  16.610  30.834  13.427
13969W        W86284   6.052  17.300   1.233
13970W        W86285  42.492   4.319  11.207
13971W        W86286  44.228  18.164   1.297
13972W        W86287  19.377  38.368  12.363
13973W        W86288  28.188  15.136  12.027
13974W        W86289  22.010  34.490  14.376
13975W        W86290   4.040   7.795   0.757
13976W        W86291  27.119  40.744   4.526
13977W        W86292  14.530  37.293  12.059
13978W        W86293  10.589  40.936   0.470
13979W        W86294  25.596   8.169   2.131
13980W        W86295  27.747  41.473  14.351
13981W        W86296  41.032  29.321  12.428
13982W        W86297  29.545   0.635   5.061
13983W        W86298  24.600   0.916   2.671
13984W        W86299   7.813   7.416   2.155
13985W        W86300  19.301  37.825  10.722
13986W        W86301  14.516  38.439  12.118
13987W        W86302  25.801  31.095  12.896
13988W        W86303  15.149  43.828   2.475
13989W        W86304   8.728   4.235   4.810
13990W        W86305  16.135   8.836   4.545
13991W        W86306  31.411  39.843  11.129
13992W        W86307  41.991   7.483   4.838
13993W        W86308  42.262   4.448  11.655
13994W        W86309  12.954  10.789  10.607
13995W        W86310   3.721  14.041   0.326
13996W        W86311  40.480  12.315   2.872
13997W        W86312  17.009  18.626  14.861
13998W        W86313  14.349   0.367   4.375
13999W        W86314   5.492   5.827  13.067
14000W        W86315   8.764   1.643   4.032
14001W        W86316  39.314  13.764   2.152
14002W        W86317  21.186   2.864  12.535
14003W        W86318  21.741  17.403  14.770
14004W        W86319  14.625   5.389   1.203
14005W        W86320  16.083   6.528  10.058
14006W        W86321  20.456  26.690  13.249
14007W        W86322  35.178  12.005   2.859
14008W        W86323   4.967  16.199   1.203
14009W        W86324  44.723   7.129   2.479
14010W        W86325  28.318  37.527  12.880
14011W        W86326  28.090  34.385  12.740
14012W        W86327  36.952  34.332   2.398
14013W        W86328  11.870  15.665  12.916
14014W        W86329  35.485  23.118  13.180
14015W        W86330  19.995  18.836  14.233
14016W        W86331  19.279   1.396   1.166
14017W        W86332  24.132  33.388   5.164
14018W        W86333  29.874   5.236   2.217
14019W        W86334   7.199  41.065   1.394
14020W        W86335  30.639  24.191   1.341
14021W        W86336   2.926  36.312   3.042
14022W        W86337  42.824  18.009  12.373
14023W        W86338  14.069  23.895   1.357
14024W        W86339  11.025  43.573  12.971
14025W        W86340  24.613  43.369   3.155
14026W        W86341  24.688  37.142  14.865
14027W        W86342  41.804  26.253   0.827
14028W        W86343  10.688  23.378  11.223
14029W        W86344  25.487  12.754   2.326
14030W        W86345  22.555  21.091  10.535
14031W        W86346  35.947  11.978   2.769
14032W        W86347  35.841  22.660   1.393
14033W        W86348   5.805  29.449  14.807
14034W        W86349   8.812  42.253   3.107
14035W        W86350  11.572   5.733   0.991
14036W        W86351  21.584   0.838  12.619
14037W        W86352  14.997  13.705   0.793
14038W        W86353  36.547   1.731  10.751
14039W        W86354  29.994  40.380   2.377
14040W        W86355  34.426  43.961  11.431
14041W        W86356   2.438  11.175  10.281
14042W        W86357  25.144  10.592   3.196
14043W        W86358  41.864   7.008   2.002
14044W        W86359  41.758   7.797   4.517
14045W        W86360  34.872  13.710   4.767
14046W        W86361  13.328   9.103   2.763
14047W        W86362   9.105  12.186  12.857
14048W        W86363  12.478  17.392  14.875
14049W        W86364  19.199  20.977  11.421
14050W        W86365  13.086   2.368   3.708
14051W        W86366  31.116  10.310   9.687
14052W        W86367  26.798  36.750  11.695
14053W        W86368   7.907   5.234  13.732
14054W        W86369  34.448  38.399   4.582
14055W        W86370  34.565   1.929  14.934
14056W        W86371   8.856  37.601   3.119
14057W        W86372  18.223  27.986   5.066
14058W        W86373  19.152  16.796  12.283
14059W        W86374   8.233  29.383  12.215
14060W        W86375  37.617  12.915  13.565
14061W        W86376  21.542  10.815   0.788
14062W        W86377  25.150  12.698   0.720
14063W        W86378  29.468  24.432   1.836
14064W        W86379  36.939  12.475   3.777
14065W        W86380  23.587  27.921   4.576
14066W        W86381  17.117  20.167   3.605
14067W        W86382  17.679  35.823   2.152
14068W        W86383   6.979  11.732   4.123
14069W        W86384  36.397  28.008  13.980
14070W        W86385  26.421  34.418  13.466
14071W        W86386  17.178  39.817  10.680
14072W        W86387  35.900  17.383  11.195
14073W        W86388  27.568   3.571   5.505
14074W        W86389  22.151  30.139  14.036
14075W        W86390  10.942  39.939  14.356
14076W        W86391   7.755  11.338   1.630
14077W        W86392  28.694  24.653   2.920
14078W        W86393  18.631  41.039   2.644
14079W        W86394  29.067  15.620   2.238
14080W        W86395   6.704  15.786   0.406
14081W        W86396   1.066   0.279   3.400
14082W        W86397  36.406  27.373  14.392
14083W        W86398   2.320  18.637  14.566
14084W        W86399  20.256   7.086   0.974
14085W        W86400  16.081  20.390   4.219
14086W        W86401  20.125  21.214  12.453
14087W        W86402  34.553  44.415  13.270
14088W        W86403  29.084   3.138  10.496
14089W        W86404  25.025  28.787   0.856
14090W        W86405  10.070  25.262  12.966
14091W        W86406   5.840   8.808  11.550
14092W        W86407  18.454  40.536  13.062
14093W        W86408  43.311   5.725   3.259
14094W        W86409  12.843   6.968   2.276
14095W        W86410  33.074  17.037  13.474
14096W        W86411  18.096  11.355  10.320
14097W        W86412   7.302  24.666   0.867
14098W        W86413   9.373   9.200  12.977
14099W        W86414  40.798  23.524   1.186
14100W        W86415   5.209  21.192   3.122
14101W        W86416   6.381  38.936   0.421
14102W        W86417  17.070   8.838   1.704
14103W        W86418  26.688  42.141   2.706
14104W        W86419  22.119  18.948  10.137
14105W        W86420  26.932  34.001  10.249
14106W        W86421   7.544  27.006   3.623
14107W        W86422  12.446  29.742   1.342
14108W        W86423   6.184  40.500   4.717
14109W        W86424   9.649  43.514  14.241
14110W        W86425  30.167  44.289  10.222
14111W        W86426  21.609  19.989   1.015
14112W        W86427  41.432  32.222  12.342
14113W        W86428  39.938  24.117   2.376
14114W        W86429  41.984  39.558   0.359
14115W        W86430  27.982   0.234   3.175
14116W        W86431  22.076  41.557  11.121
14117W        W86432  23.485   6.240  13.386
14118W        W86433  22.983  32.581  10.757
14119W        W86434  28.540  11.357  12.387
14120W        W86435  34.417  21.670   3.810
14121W        W86436   9.540  25.999  12.858
14122W        W86437  25.756  40.641  11.084
14123W        W86438   0.317  16.950   3.777
14124W        W86439  26.781   6.204   4.676
14125W        W86440  34.481  16.776  11.490
14126W        W86441  17.773  32.004   1.263
14127W        W86442  34.028  21.717  12.353
14128W        W86443  26.401  41.674   4.226
14129W        W86444   4.809  41.752  14.065
14130W        W86445  11.155  30.224   2.290
14131W        W86446   9.204  10.599   3.748
14132W        W86447  36.965  44.008  11.841
14133W        W86448  30.504  12.176  13.892
14134W        W86449  10.043  22.790   3.339
14135W        W86450  15.165   5.242   4.384
14136W        W86451  32.019  26.939   2.610
14137W        W86452  13.641  21.794   0.202
14138W        W86453  18.611   0.685  14.285
14139W        W86454  35.959  35.010  13.873
14140W        W86455  34.638  13.124   1.695
14141W        W86456  23.306  44.990  12.281
14142W        W86457  40.022  23.709  14.164
14143W        W86458  18.309   5.611   2.688
14144W        W86459   0.178  28.054  10.988
14145W        W86460  33.448  19.763   4.249
14146W        W86461  25.353  16.741   2.399
14147W        W86462   3.708  30.913   2.149
14148W        W86463   3.810   0.381  12.346
14149W        W86464  40.553  31.955   1.652
14150W        W86465  30.380  15.824   4.234
14151W        W86466   8.929  17.560  12.490
14152W        W86467  12.189  22.594   4.399
14153W        W86468   2.838  40.290  12.008
14154W        W86469  15.007  40.561  12.397
14155W        W86470  15.772   7.269   2.290
14156W        W86471   0.000   0.667  14.548
14157W        W86472  10.898   5.191  11.150
14158W        W86473  29.529  40.797   0.785
14159W        W86474  41.420  12.684  12.139
14160W        W86475  37.795   4.891  12.838
14161W        W86476   4.906  31.116   4.828
14162W        W86477  33.037   6.242  10.792
14163W        W86478  34.049  43.644  11.600
14164W        W86479  28.457  32.154  11.528
14165W        W86480   0.637  11.237   4.094
14166W        W86481   0.807  32.159   1.797
14167W        W86482   3.637  13.345  11.132
14168W        W86483  20.649   2.830  14.786
14169W        W86484  12.866   8.595   4.013
14170W        W86485  12.179  39.832   4.371
14171W        W86486  25.717  31.022   4.859
14172W        W86487   0.154  18.792   3.189
14173W        W86488  27.292  43.193  12.367
14174W        W86489  23.508   0.819   2.291
14175W        W86490  38.997  23.833  13.521
14176W        W86491  27.893  28.981   2.754
14177W        W86492  44.168  13.731  14.948
14178W        W86493  13.179  18.313   2.769
14179W        W86494   6.303  29.967   3.800
14180W        W86495  34.166  11.800   3.338
14181W        W86496   9.452  17.723   5.274
14182W        W86497  29.664  23.137  11.666
14183W        W86498  38.356  27.344  10.807
14184W        W86499  40.420   9.683  14.174
14185W        W86500  18.085  39.311  13.598
14186W        W86501  23.925  11.409   1.310
14187W        W86502  34.058  42.563  10.620
14188W        W86503  30.947  24.972  12.600
14189W        W86504  19.102  13.241   1.008
14190W        W86505  38.486  34.379  12.112
14191W        W86506   0.372  11.124   2.731
14192W        W86507  11.479  12.467   0.277
14193W        W86508  38.952   7.715  14.296
14194W        W86509  39.792  34.008   1.419
14195W        W86510   9.623  27.470   3.672
14196W        W86511   3.431  30.018  13.802
14197W        W86512  39.179  26.897   1.591
14198W        W86513  38.625  42.173   3.677
14199W        W86514  37.488  12.843   1.887
14200W        W86515  21.371   1.679  12.365
14201W        W86516  24.977  31.563   4.464
14202W        W86517  20.655  12.197   4.025
14203W        W86518  44.940   3.783   3.585
14204W        W86519  13.603   6.849   3.124
14205W        W86520   5.850  14.664  10.754
14206W        W86521  17.118  30.655  10.403
14207W        W86522   0.646  34.596   4.794
14208W        W86523  33.821   1.225   2.361
14209W        W86524  21.499   8.210   2.129
14210W        W86525  25.718  39.422   2.696
14211W        W86526   1.850  20.101   3.709
14212W        W86527  14.731  21.862   1.448
14213W        W86528  22.555  10.406   1.865
14214W        W86529   4.605  33.662   0.823
14215W        W86530  32.533   6.357  11.459
14216W        W86531   7.470   3.507  14.216
14217W        W86532  39.926  21.401  10.655
14218W        W86533  19.581   3.754   1.512
14219W        W86534  20.131  39.484  12.002
14220W        W86535  25.394  18.962   3.242
14221W        W86536  37.134  17.467   1.358
14222W        W86537  36.033  33.119   3.646
14223W        W86538  36.122  43.481   2.690
14224W        W86539  35.933  17.642   4.453
14225W        W86540  19.570  39.939   1.451
14226W        W86541  37.576   9.902   0.325
14227W        W86542  26.015  18.930  13.892
14228W        W86543   3.239  20.644   3.371
14229W        W86544  24.779  32.044   3.018
14230W        W86545  27.105  24.217   2.038
14231W        W86546  20.250  27.696   1.319
14232W        W86547  32.400  28.258  12.136
14233W        W86548  15.819  27.224  10.771
14234W        W86549  17.099  21.417  10.486
14235W        W86550  19.971  20.982  10.650
14236W        W86551  23.678  14.299   0.028
14237W        W86552  25.564   1.464   2.853
14238W        W86553  17.002   6.656  14.942
14239W        W86554  40.861   8.319  14.728
14240W        W86555   8.325  36.230   2.388
14241W        W86556   8.290   3.990  12.978
14242W        W86557   1.343  39.015  14.856
14243W        W86558  11.735  25.292  14.566
14244W        W86559  44.673  21.225  13.296
14245W        W86560  21.168  18.563   0.274
14246W        W86561  23.225   8.640   4.680
14247W        W86562  38.645  10.247   3.000
14248W        W86563  36.492   8.200  13.460
14249W        W86564  22.949  44.191  13.450
14250W        W86565   7.981  38.634  11.870
14251W        W86566  19.421  24.966   3.769
14252W        W86567  21.704  22.829  14.834
14253W        W86568  30.124   4.963   4.357
14254W        W86569   5.264   2.344   2.237
14255W        W86570  35.891  11.396  10.553
14256W        W86571  10.776   6.325  13.479
14257W        W86572  29.975  40.907   1.466
14258W        W86573  16.840  27.533   4.176
14259W        W86574  27.898  14.831   2.730
14260W        W86575   0.779  33.841   0.355
14261W        W86576  24.231  30.945  11.571
14262W        W86577  11.856   2.705  14.552
14263W        W86578  10.707  30.356  10.932
14264W        W86579  39.030   5.386   4.292
14265W        W86580  29.476  23.728   2.326
14266W        W86581  21.151  25.498  13.582
14267W        W86582   9.655  18.766   1.197
14268W        W86583  27.108  27.624  13.966
14269W        W86584  12.384  18.869   4.738
14270W        W86585  23.813  11.658  10.536
14271W        W86586   2.822  22.093  11.939
14272W        W86587  42.834   1.236  11.865
14273W        W86588  44.845   4.901   2.810
14274W        W86589  16.123  30.560   2.359
14275W        W86590  40.202  31.768   3.265
14276W        W86591   3.521  29.234   3.592
14277W        W86592  36.068  18.743   2.335
14278W        W86593  31.900  44.995   2.713
14279W        W86594  26.461   6.250   2.152
14280W        W86595  13.591  38.517   1.854
14281W        W86596  18.452  21.614   4.601
14282W        W86597   5.768  10.633  14.920
14283W        W86598  33.895  26.687  14.007
14284W        W86599  14.236  23.616   1.794
14285W        W86600  41.857  25.531   4.522
14286W        W86601   9.169  38.300   4.758
14287W        W86602  14.920  31.114   2.912
14288W        W86603   2.320  41.457   3.828
14289W        W86604   1.114  35.034  11.947
14290W        W86605  28.856  42.455  12.604
14291W        W86606  21.504  30.126   1.252
14292W        W86607  20.223  34.128   4.547
14293W        W86608   8.300  21.048   0.269
14294W        W86609   0.635  20.561   2.085
14295W        W86610  36.427  40.688   1.869
14296W        W86611  29.096  18.553   3.658
14297W        W86612  40.589  27.141  12.405
14298W        W86613  38.356  32.181   2.282
14299W        W86614  12.661  23.175   2.781
14300W        W86615  27.708  33.989  13.493
14301W        W86616  18.853  44.054  14.971
14302W        W86617   8.414  16.207  11.734
14303W        W86618  18.302  18.286  12.464
14304W        W86619   7.983   8.384   2.624
14305W        W86620  12.172  41.048   1.490
14306W        W86621  29.444  25.459   2.116
14307W        W86622  41.566  10.705   3.516
14308W        W86623  11.748  16.198   5.202
14309W        W86624  24.147  37.338   5.048
14310W        W86625   8.959  30.311  10.741
14311W        W86626   1.071  16.551   3.122
14312W        W86627  12.687  13.287   2.788
14313W        W86628  43.546  44.196  14.762
14314W        W86629  33.633  40.318  12.707
14315W        W86630  41.281  43.078  12.133
14316W        W86631  43.499  17.701   4.871
14317W        W86632  40.908  26.349   4.704
14318W        W86633  32.893  37.667  12.081
14319W        W86634  15.130  34.630   0.104
14320W        W86635   8.429   3.768   2.564
14321W        W86636  38.880  23.406   1.964
14322W        W86637  15.780  31.048   0.245
14323W        W86638  24.982  44.947   1.299
14324W        W86639  20.675   8.372   0.373
14325W        W86640  22.914  15.288   3.703
14326W        W86641  40.972  37.280  11.704
14327W        W86642   4.005   8.318  13.707
14328W        W86643  13.717  12.036  11.413
14329W        W86644  26.586  16.856   1.187
14330W        W86645  27.101  25.186   3.768
14331W        W86646  15.212   2.351  11.407
14332W        W86647  26.938  21.215   4.523
14333W        W86648   6.635  38.996   3.161
14334W        W86649  41.564  11.260  14.764
14335W        W86650  12.064  10.120  10.643
14336W        W86651  20.762  36.933   0.219
14337W        W86652   9.882  22.992   3.801
14338W        W86653  19.540  14.026  11.119
14339W        W86654  22.630  23.090   2.815
14340W        W86655  27.669   6.646   0.246
14341W        W86656  15.073  17.345   3.181
14342W        W86657  24.502  11.917  14.425
14343W        W86658  34.419  10.316  12.894
14344W        W86659  39.486  18.529   2.738
14345W        W86660  18.555   1.847  12.564
14346W        W86661  44.200  20.743  11.639
14347W        W86662  23.787  19.086   9.785
14348W        W86663  23.521  22.680   4.628
14349W        W86664  33.498  16.044  12.799
14350W        W86665   8.167  18.173   4.193
14351W        W86666   7.111   7.486   3.142
14352W        W86667  37.971  19.998  14.802
14353W        W86668  42.967  40.112   0.489
14354W        W86669  26.237   5.728  10.707
14355W        W86670  11.133  11.741   0.840
14356W        W86671   9.962  16.965   3.655
14357W        W86672  11.699  41.091  13.884
14358W        W86673  43.829  44.453  12.036
14359W        W86674  25.763  34.883   4.999
14360W        W86675  18.702   9.774   0.178
14361W        W86676   6.014  25.382  11.544
14362W        W86677   8.954   2.001  12.912
14363W        W86678  20.666  43.879   2.600
14364W        W86679   4.775  26.691   2.653
14365W        W86680  33.218  31.827   0.255
14366W        W86681   1.000  40.472   2.829
14367W        W86682  43.472   7.704  12.068
14368W        W86683  13.188  30.265   0.873
14369W        W86684   6.315  10.934   4.489
14370W        W86685  30.425   6.995   2.693
14371W        W86686  21.635  31.835   0.335
14372W        W86687  34.759  24.739   5.044
14373W        W86688  11.329  21.908   4.129
14374W        W86689  35.303  23.116   4.727
14375W        W86690  38.324   8.396   0.952
14376W        W86691  34.117   1.984  12.017
14377W        W86692  28.071   0.332   4.156
14378W        W86693  38.775  21.360   1.396
14379W        W86694   0.183  25.116   4.626
14380W        W86695  13.616   0.727  12.117
14381W        W86696   2.691  36.730   3.909
14382W        W86697  11.579   2.746   4.239
14383W        W86698  36.834  28.633   4.614
14384W        W86699  10.587  28.895   0.764
14385W        W86700  16.883  30.485   3.577
14386W        W86701  11.409   9.169   2.245
14387W        W86702  21.549   8.592   0.015
14388W        W86703  38.449  38.902  11.573
14389W        W86704  25.722  31.898  14.580
14390W        W86705  27.747  40.355   2.396
14391W        W86706  23.804   8.777   3.338
14392W        W86707  30.571  13.421   0.187
14393W        W86708   1.229  28.422   2.400
14394W        W86709   2.590  28.062  14.743
14395W        W86710  23.484  43.973  11.753
14396W        W86711   5.150  38.129  13.379
14397W        W86712   9.921   3.221   3.192
14398W        W86713  14.342  21.096  14.029
14399W        W86714  25.428  23.628   0.923
14400W        W86715  23.412  36.647  12.891
14401W        W86716  17.788  24.484   2.205
14402W        W86717   0.809  31.414   4.154
14403W        W86718  10.177  41.839   3.268
14404W        W86719  23.996  33.653   2.724
14405W        W86720  21.753  31.654  12.679
14406W        W86721  20.741  21.364   4.884
14407W        W86722  19.644  27.411   2.234
14408W        W86723   1.259  38.529  10.746
14409W        W86724  40.543  21.957   0.225
14410W        W86725   3.296  32.561   1.132
14411W        W86726  44.804  10.152   3.297
14412W        W86727  35.718  21.944   2.295
14413W        W86728  43.876  29.992   2.279
14414W        W86729  43.967  12.055   4.553
14415W        W86730  36.539  39.297  11.856
14416W        W86731  27.922  40.788   2.165
14417W        W86732  39.767  38.812  13.747
14418W        W86733  10.597  38.341  14.303
14419W        W86734   7.696   4.316  10.745
14420W        W86735  26.109  14.026   4.765
14421W        W86736  31.423  33.354   3.667
14422W        W86737   4.151  31.439   4.723
14423W        W86738  18.066  31.798  13.396
14424W        W86739  19.036  11.681   2.654
14425W        W86740  39.847   7.758   4.871
14426W        W86741  43.911   0.290   3.666
14427W        W86742  23.620  44.474  14.223
14428W        W86743  36.643  40.438   4.575
14429W        W86744  15.905  16.812   3.093
14430W        W86745   9.738  41.385   0.763
14431W        W86746  25.706  40.298   2.157
14432W        W86747  24.213  24.018   3.307
14433W        W86748  39.932  21.293   2.605
14434W        W86749  22.998  22.900   1.958
14435W        W86750  12.603   9.867  12.818
14436W        W86751   3.908   8.585  12.616
14437W        W86752  40.235  29.553   2.663
14438W        W86753  31.694  30.187  12.475
14439W        W86754   4.410  36.840  13.438
14440W        W86755  43.029   0.177  12.680
14441W        W86756  15.981  24.551   0.401
14442W        W86757  18.804  39.910   1.833
14443W        W86758  14.938  43.683  13.750
14444W        W86759   0.447   9.385  14.394
14445W        W86760  15.085  30.109  11.116
14446W        W86761  39.646  42.080   4.790
14447W        W86762  24.773  39.096  13.888
14448W        W86763  38.592  33.405  14.867
14449W        W86764  13.713   2.348  10.675
14450W        W86765   3.252   6.949  12.629
14451W        W86766  42.952   6.494  13.242
14452W        W86767  24.535  12.951  14.216
14453W        W86768  11.292  21.528  11.260
14454W        W86769  44.699  21.830   2.347
14455W        W86770  16.603  38.843   2.383
14456W        W86771  18.857  43.943  11.866
14457W        W86772  44.842  30.200  13.087
14458W        W86773  28.073   8.501   2.216
14459W        W86774  32.221   3.460  14.511
14460W        W86775   9.695   8.399  11.500
14461W        W86776  19.289   8.844  12.954
14462W        W86777  32.665  27.482  13.415
14463W        W86778   2.719   7.437  13.271
14464W        W86779  32.103  25.674  10.757
14465W        W86780  18.601  40.974  12.461
14466W        W86781  37.239  41.331  11.649
14467W        W86782  19.023  43.832   2.455
14468W        W86783  10.011   2.234  12.203
14469W        W86784  15.729  25.729  13.456
14470W        W86785  17.018  37.658   4.894
14471W        W86786  41.816  10.368   3.775
14472W        W86787  10.191  43.019   0.476
14473W        W86788  36.335  40.316  13.991
14474W        W86789  21.159   1.208  14.671
14475W        W86790  41.368  37.502   3.272
14476W        W86791  30.928  25.266  14.496
14477W        W86792  18.225  17.179   0.180
14478W        W86793  20.073  18.019   3.471
14479W        W86794  29.442  29.388  14.746
14480W        W86795  32.948  26.271  11.149
14481W        W86796   7.090  11.908   3.628
14482W        W86797  11.121  38.031   2.509
14483W        W86798  23.713  16.847   1.304
14484W        W86799  39.013  29.469   1.046
14485W        W86800   8.625  29.905  10.728
14486W        W86801   6.856  15.592   1.712
14487W        W86802  24.444  31.044   2.617
14488W        W86803  35.946  12.057  12.017
14489W        W86804  10.769  43.477   4.429
14490W        W86805  31.545   2.173   2.480
14491W        W86806  17.538  24.646  12.383
14492W        W86807  10.101  43.816  14.302
14493W        W86808  16.534  17.213  14.943
14494W        W86809  17.127   7.284   0.841
14495W        W86810  27.206  38.355   4.587
14496W        W86811  23.594  14.135   3.702
14497W        W86812  26.526  40.810   3.835
14498W        W86813  10.189  12.363  13.539
14499W        W86814  34.528   2.026   1.378
14500W        W86815  24.579  33.059   1.858
14501W        W86816  23.058  18.183   4.082
14502W        W86817   1.240  26.644   3.231
14503W        W86818  16.155   5.864  12.280
14504W        W86819   2.074  41.919  11.565
14505W        W86820  13.046  43.011   2.254
14506W        W86821  15.120  39.314  12.012
14507W        W86822  13.366  39.967  11.942
14508W        W86823  20.047  27.528   2.639
14509W        W86824  22.079  15.388  14.976
14510W        W86825  26.701  29.675   4.170
14511W        W86826  21.243  15.606   3.592
14512W        W86827  16.952  26.283   4.591
14513W        W86828  27.253  22.612  14.918
14514W        W86829  27.586  13.598   2.883
14515W        W86830  31.353  13.273   3.819
14516W        W86831  27.728   1.331  13.482
14517W        W86832  29.090  35.013   1.718
14518W        W86833  15.232   2.914   4.011
14519W        W86834   8.312  19.614  10.881
14520W        W86835  23.618   4.249   4.227
14521W        W86836  43.067   1.949  10.127
14522W        W86837  13.445  28.427   3.876
14523W        W86838  42.555  10.597   3.638
14524W        W86839   0.845  43.436  14.854
14525W        W86840  38.915  28.766   3.768
14526W        W86841  42.469  23.225  12.733
14527W        W86842   4.138   7.159   1.836
14528W        W86843  23.516  24.141  14.620
14529W        W86844  32.164  44.747   4.069
14530W        W86845  40.326  27.733  13.406
14531W        W86846   9.861  24.245   2.409
14532W        W86847  37.385  20.032   3.324
14533W        W86848  43.887  15.150  12.832
14534W        W86849  37.609  14.219  13.563
14535W        W86850  12.533   7.528  14.190
14536W        W86851  25.043  20.671   4.644
14537W        W86852   1.265  11.313   1.816
14538W        W86853   8.715   8.720  14.089
14539W        W86854  19.532  18.913  12.431
14540W        W86855  20.676  14.549  14.973
14541W        W86856  39.482  42.498  12.453
14542W        W86857  21.979  20.588   3.985
14543W        W86858   6.857  13.269   1.900
14544W        W86859   6.969  35.805   0.548
14545W        W86860   5.630  28.791  11.129
14546W        W86861   2.607  32.926  12.124
14547W        W86862  32.953   3.946   0.291
14548W        W86863  31.517  41.011  13.800
14549W        W86864  42.950  42.900  10.595
14550W        W86865   0.480  22.254   1.267
14551W        W86866  18.755  33.871  12.449
14552W        W86867  32.723   2.718   1.168
14553W        W86868  10.920   9.445  14.065
14554W        W86869  36.512  31.454   3.932
14555W        W86870  36.716  40.556   1.368
14556W        W86871   8.345  41.580   2.821
14557W        W86872  28.433  28.423  12.050
14558W        W86873  26.646  30.338  14.811
14559W        W86874  10.598   9.997   5.004
14560W        W86875  32.312  33.426  12.124
14561W        W86876  17.702  26.033   2.132
14562W        W86877  33.907   8.717  12.517
14563W        W86878  15.017   2.185  12.700
14564W        W86879  28.040  19.791   2.562
14565W        W86880   2.948  19.542   1.957
14566W        W86881  32.209  15.576  11.163
14567W        W86882  16.741   9.843  13.991
14568W        W86883  28.986  24.590   1.978
14569W        W86884  44.083  19.131   1.825
14570W        W86885  38.776  24.121  10.713
14571W        W86886  42.468  26.521   1.172
14572W        W86887  17.307  29.071  10.448
14573W        W86888  32.301  23.714   2.767
14574W        W86889  12.633  29.992   3.840
14575W        W86890  31.673  30.966   5.354
14576W        W86891  22.946  23.970   0.978
14577W        W86892   4.246  14.807  14.450
14578W        W86893  22.709  30.701  13.505
14579W        W86894  27.624  43.053   2.878
14580W        W86895  19.729  32.450   1.869
14581W        W86896  31.920  20.126   3.846
14582W        W86897  32.008  37.360   1.479
14583W        W86898  16.498  10.506  12.460
14584W        W86899  34.247  40.894  10.435
14585W        W86900   5.268  31.962   1.713
14586W        W86901  21.753  23.571  10.596
14587W        W86902  35.415  28.587  10.595
14588W        W86903  28.877   9.542  13.399
14589W        W86904  16.238  25.879  13.947
14590W        W86905  22.578  22.542  12.800
14591W        W86906  21.319  20.084   2.739
14592W        W86907  28.137  35.313   0.221
14593W        W86908  44.978   0.939   0.032
14594W        W86909  16.487  30.019  10.238
14595W        W86910   2.764  11.541   0.836
14596W        W86911   2.349  11.057   0.220
14597W        W86912  28.241  12.215  13.703
14598W        W86913  38.161  42.377   3.623
14599W        W86914  26.604  42.431   3.177
14600W        W86915  32.561  34.595  12.055
14601W        W86916  26.996  34.497   4.086
14602W        W86917  39.400  24.293  14.261
14603W        W86918  16.252  16.760   2.735
14604W        W86919  29.078   1.058  13.666
14605W        W86920   6.917  17.173  14.535
14606W        W86921  35.911  24.697  13.925
14607W        W86922  39.956  30.693  12.986
14608W        W86923   5.865  35.420   1.110
14609W        W86924  43.715  17.292   1.658
14610W        W86925  44.486   7.230   0.216
14611W        W86926  29.168  39.207  13.001
14612W        W86927  23.709  44.353   1.158
14613W        W86928  28.020   8.161  11.137
14614W        W86929  19.024  21.104   0.935
14615W        W86930  30.125   9.272  14.943
14616W        W86931   8.906  15.656   0.303
14617W        W86932  44.923  29.627   1.751
14618W        W86933   6.362  43.135   3.780
14619W        W86934   8.177   1.767  13.747
14620W        W86935   4.370  30.640  12.503
14621W        W86936  27.585  17.969  13.821
14622W        W86937  32.051  11.130   3.669
14623W        W86938  18.541   8.410  11.753
14624W        W86939  41.129  23.957  14.791
14625W        W86940  10.635  18.828   2.391
14626W        W86941  24.115   1.964   2.778
14627W        W86942  36.140  40.739   4.192
14628W        W86943   9.635  28.034  13.967
14629W        W86944  13.225  24.170  11.464
14630W        W86945  13.845   0.853   4.529
14631W        W86946  26.713  18.621   3.538
14632W        W86947  20.996   3.809  13.021
14633W        W86948  20.667  29.265   4.106
14634W        W86949  34.790  15.208   2.707
14635W        W86950   3.287  17.117  14.237
14636W        W86951  30.913  32.378   2.199
14637W        W86952  26.124   1.726   0.324
14638W        W86953   5.962   1.032  11.645
14639W        W86954  25.995  25.644   1.948
14640W        W86955  13.712   5.374   2.232
14641W        W86956   5.877  27.776  12.422
14642W        W86957  24.207  41.357   3.719
14643W        W86958  42.240   7.811   4.369
14644W        W86959   0.959  10.883  14.874
14645W        W86960  44.849   4.307   0.265
14646W        W86961  44.437  38.069   1.656
14647W        W86962  26.735  13.936  13.400
14648W        W86963  33.673  40.191  10.893
14649W        W86964  39.511   1.839  10.999
14650W        W86965  19.590   4.492  13.821
14651W        W86966   3.415  15.347  12.327
14652W        W86967   4.460   1.688  12.073
14653W        W86968  23.827  34.065   4.762
14654W        W86969  11.544  24.161   4.247
14655W        W86970  25.697   1.554  12.484
14656W        W86971  10.352  24.585   1.202
14657W        W86972  28.214  11.265  11.123
14658W        W86973   1.220  12.139  14.449
14659W        W86974  16.347  44.534   0.930
14660W        W86975  38.634  17.707   4.281
14661W        W86976   2.721  41.236  14.004
14662W        W86977  42.838   6.367   4.551
14663W        W86978   8.133  33.759   0.461
14664W        W86979   0.413  35.194   3.043
14665W        W86980  38.856  25.932  12.634
14666W        W86981  21.759  22.536   0.808
14667W        W86982   6.315  36.136  11.613
14668W        W86983  36.594  12.770   4.700
14669W        W86984  42.731   9.244   3.690
14670W        W86985  37.150   5.662   3.239
14671W        W86986  34.537  12.092  11.607
14672W        W86987  20.927  12.630  14.280
14673W        W86988   5.310  13.412   0.624
14674W        W86989  22.664   1.856  11.646
14675W        W86990  35.333   7.019  12.938
14676W        W86991  22.480   4.013   0.480
14677W        W86992  15.993   5.177   3.188
14678W        W86993  31.775  16.215  14.658
14679W        W86994   1.243  17.234  12.967
14680W        W86995  20.622  31.509   4.551
14681W        W86996  10.896   4.893  14.315
14682W        W86997   1.720   9.787   4.125
14683W        W86998  42.866  39.027   1.449
14684W        W86999  33.164  26.143   5.104
14685W        W87000  31.159  13.110  14.412
14686W        W87001   7.221  43.371   1.480
14687W        W87002  36.221   0.340   1.954
14688W        W87003  37.348  21.990   0.948
14689W        W87004  23.124  44.131  14.402
14690W        W87005   2.610  37.144  10.344
14691W        W87006   7.465  17.731   3.906
14692W        W87007  13.336  20.370   2.877
14693W        W87008  16.078  12.268  10.418
14694W        W87009  44.529   7.730   2.755
14695W        W87010  27.545   9.387  11.939
14696W        W87011   2.743   4.811   0.446
14697W        W87012  43.739  21.367  12.420
14698W        W87013   9.818  23.454  10.901
14699W        W87014  16.845  21.231  11.009
14700W        W87015  24.678   9.716  11.238
14701W        W87016  10.418  39.911  14.386
14702W        W87017  42.976   3.783   2.669
14703W        W87018  37.839  14.423   3.318
14704W        W87019  37.565  27.732   1.451
14705W        W87020   6.733  39.819   3.175
14706W        W87021   6.351  44.236  13.488
14707W        W87022  30.504  38.028   4.648
14708W        W87023  20.864  32.831  14.404
14709W        W87024  31.919  12.643  14.040
14710W        W87025  33.366  13.563  12.100
14711W        W87026  16.790  27.544  10.496
14712W        W87027  37.912  20.890   3.286
14713W        W87028  21.600  30.287  10.397
14714W        W87029  29.625  20.662  14.636
14715W        W87030  22.111  19.246  12.063
14716W        W87031  14.744   2.991  14.959
14717W        W87032   9.672   0.756  10.456
14718W        W87033   3.463  38.384   1.817
14719W        W87034  40.410  40.441   1.774
14720W        W87035  14.488  13.668  12.108
14721W        W87036  15.262  31.279   3.724
14722W        W87037  33.504   9.919  14.477
14723W        W87038   1.868   9.802   2.232
14724W        W87039  34.947  37.244  12.475
14725W        W87040  38.460  27.581   2.411
14726W        W87041  11.667   0.419  11.151
14727W        W87042  22.346  25.773  14.779
14728W        W87043  12.773   3.486  11.203
14729W        W87044  34.108  40.284  13.004
14730W        W87045  28.033  22.659   5.030
14731W        W87046  41.858  10.247  10.847
14732W        W87047  40.755  12.288   1.796
14733W        W87048  43.451  17.735   2.889
14734W        W87049   3.671  40.893   0.986
14735W        W87050  15.146  28.131  12.613
14736W        W87051   2.324   9.312  14.970
14737W        W87052  35.827   4.622   2.878
14738W        W87053  29.545  10.760   3.433
14739W        W87054  35.601  10.762  10.848
14740W        W87055  36.992  24.172   1.280
14741W        W87056  18.221  41.828   2.810
14742W        W87057  12.574  36.082  12.794
14743W        W87058   5.190  20.233   4.272
14744W        W87059  36.092  23.917   3.185
14745W        W87060  15.549  38.370  12.144
14746W        W87061  23.082  41.426   2.278
14747W        W87062   6.380   9.907   4.577
14748W        W87063  16.738  39.553   4.984
14749W        W87064   8.760  14.956   5.068
14750W        W87065  44.250  11.933  13.695
14751W        W87066  15.157   3.925  11.942
14752W        W87067  10.690  40.786   1.407
14753W        W87068   9.175  22.623   2.280
14754W        W87069   1.757  44.583  11.268
14755W        W87070   2.873  44.483  12.155
14756W        W87071  33.836  35.597   4.713
14757W        W87072  25.032   4.829  14.457
14758W        W87073  27.906  33.599   2.298
14759W        W87074  11.716  18.673   0.778
14760W        W87075  12.165   4.258   1.228
14761W        W87076  23.823  40.499   2.222
14762W        W87077  42.360  10.360  12.062
14763W        W87078  11.479   7.245   1.996
14764W        W87079  31.913  21.743   2.183
14765W        W87080  27.968  25.935   0.266
14766W        W87081  27.135  44.041   1.638
14767W        W87082   9.780   5.493   1.968
14768W        W87083   7.736  43.997   1.880
14769W        W87084  31.867   6.834   2.748
14770W        W87085  31.992  18.720   0.475
14771W        W87086  30.029  44.167   0.909
14772W        W87087  40.040  40.090   4.246
14773W        W87088  33.556  38.998  13.818
14774W        W87089  35.461   6.369  13.607
14775W        W87090  20.789  14.537   2.615
14776W        W87091   2.669  40.962   3.284
14777W        W87092  38.495  33.181  11.509
14778W        W87093  22.810   7.368  13.799
14779W        W87094  19.559  42.331  14.895
14780W        W87095   7.853   7.237  12.446
14781W        W87096  37.502   6.761   1.555
14782W        W87097  24.420  44.971   2.177
14783W        W87098  17.086  29.618   1.609
14784W        W87099   7.867   0.340   1.757
14785W        W87100  41.058  25.654   4.248
14786W        W87101  22.610  28.637   3.342
14787W        W87102   9.893  10.296   4.601
14788W        W87103  19.349  32.914  11.116
14789W        W87104   2.263  43.527   1.928
14790W        W87105  14.882  22.565   0.828
14791W        W87106  21.183   1.293   2.743
14792W        W87107  14.648  15.037   0.232
14793W        W87108  15.795  12.651  12.440
14794W        W87109   8.377  35.423  12.042
14795W        W87110  20.813  18.764  14.937
14796W        W87111  14.048  42.483  13.030
14797W        W87112  40.330  25.405   0.932
14798W        W87113  15.868  39.982  11.198
14799W        W87114  39.526  19.096  13.585
14800W        W87115  13.660  40.541  12.077
14801W        W87116   9.678  26.040   4.115
14802W        W87117  21.527  41.719  11.606
14803W        W87118  29.914  24.195  11.680
14804W        W87119  27.650   8.170  11.480
14805W        W87120   7.718  42.905   4.410
14806W        W87121  35.967  39.232  14.716
14807W        W87122  31.155  30.616   2.369
14808W        W87123  38.571  40.752   0.387
14809W        W87124  36.907  38.266   2.646
14810W        W87125  33.517  24.454  12.942
14811W        W87126   6.224  25.242  13.017
14812W        W87127  32.241   0.510  13.470
14813W        W87128  22.383  19.506  14.792
14814W        W87129  14.163  29.146   3.123
14815W        W87130  22.681  42.359  11.573
14816W        W87131  19.223  16.216   3.297
14817W        W87132  41.034  39.508   4.612
14818W        W87133  11.760  15.860  13.898
14819W        W87134  43.704  15.092  14.233
14820W        W87135  13.388  24.958   0.384
14821W        W87136  10.250   5.301  12.751
14822W        W87137  22.687   6.448   4.477
14823W        W87138   4.279  23.048   3.274
14824W        W87139   2.773   2.159   4.439
14825W        W87140  36.351  35.018  10.707
14826W        W87141  41.719  28.182  14.823
14827W        W87142  43.419  35.539   0.895
14828W        W87143  26.894  27.019   3.718
14829W        W87144  10.847  24.646  12.023
14830W        W87145   1.849  27.962  13.377
14831W        W87146  35.496  27.739  11.979
14832W        W87147  21.732   7.578  11.099
14833W        W87148  14.133  27.232  14.407
14834W        W87149  30.839   7.898   4.534
14835W        W87150  13.866  14.833   3.736
14836W        W87151  31.156  29.739   1.415
14837W        W87152   9.263  21.811  13.974
14838W        W87153  44.798  25.630  10.362
14839W        W87154  40.294   0.079  11.110
14840W        W87155  38.036   1.206   1.772
14841W        W87156  25.777  40.957  11.991
14842W        W87157  43.669  18.224   2.230
14843W        W87158  17.788  26.961   1.820
14844W        W87159   2.798  29.103  10.833
14845W        W87160  15.882  44.277   3.399
14846W        W87161  25.417  29.128   4.510
14847W        W87162  37.472  39.043  12.854
14848W        W87163  11.688   3.434  10.624
14849W        W87164  25.552  21.041   2.278
14850W        W87165  43.454   8.679   0.083
14851W        W87166  32.044  18.261   3.614
14852W        W87167  19.858   0.797  14.687
14853W        W87168  22.067  13.071  13.854
14854W        W87169   2.524  12.274  14.889
14855W        W87170  34.885  22.304  12.555
14856W        W87171   4.750  20.216   0.839
14857W        W87172  32.811  35.767  10.995
14858W        W87173  12.692  42.537   2.792
14859W        W87174  40.322   0.573  11.951
14860W        W87175  20.757  31.063  13.491
14861W        W87176  30.563  20.662   2.275
14862W        W87177   4.776   0.168   4.511
14863W        W87178  18.666  28.237   0.341
14864W        W87179  16.337  19.549   2.243
14865W        W87180  33.597  23.406   2.757
14866W        W87181  30.443   5.338  13.312
14867W        W87182  27.699  29.368  14.941
14868W        W87183   0.780  30.583  13.458
14869W        W87184  32.427   4.137   1.185
14870W        W87185  31.587  32.527   4.638
14871W        W87186   9.438  29.782  12.727
14872W        W87187  33.511  13.571   2.179
14873W        W87188  26.964  19.135  10.723
14874W        W87189  27.777  33.107   3.789
14875W        W87190   1.922  39.463   1.778
14876W        W87191  14.515   9.821   0.386
14877W        W87192  21.456  16.353  14.963
14878W        W87193   9.103  44.877   0.043
14879W        W87194  27.527  29.507   3.152
14880W        W87195  33.091   9.424   4.161
14881W        W87196  37.254  28.612  11.666
14882W        W87197  40.770  31.800  12.920
14883W        W87198   4.946  33.891   3.416
14884W        W87199  43.319  28.625   4.673
14885W        W87200   8.104   4.948   0.827
14886W        W87201  39.060  16.205  10.907
14887W        W87202   0.783  13.147  10.175
14888W        W87203   0.576   5.287  14.062
14889W        W87204  35.275  14.924  13.365
14890W        W87205  32.938  10.634  11.550
14891W        W87206   6.695   6.905  13.542
14892W        W87207   5.915  40.524  14.490
14893W        W87208  25.137  21.515  11.705
14894W        W87209  16.884  36.196  12.986
14895W        W87210  22.301  11.791  12.960
14896W        W87211  16.249  22.732   0.899
14897W        W87212  43.530  17.178  14.786
14898W        W87213  20.599  11.830  10.668
14899W        W87214  11.599  25.318  12.320
14900W        W87215   4.907  12.256   1.210
14901W        W87216  28.043  13.826  10.992
14902W        W87217  28.120   0.101  14.992
14903W        W87218   8.388  28.995   3.300
14904W        W87219  34.560  29.292   3.079
14905W        W87220  22.089  18.517  12.710
14906W        W87221  16.038  44.774  12.682
14907W        W87222  10.260  24.366   2.077
14908W        W87223  20.838  12.675  12.823
14909W        W87224  32.020  35.755  10.763
14910W        W87225  20.014  21.588   3.331
14911W        W87226  11.836  13.244   4.686
14912W        W87227   4.923  30.627  14.720
14913W        W87228   1.518  39.733   3.716
14914W        W87229  39.749  12.170   1.758
14915W        W87230  30.526  29.846   0.244
14916W        W87231   2.856   3.764   0.400
14917W        W87232  29.968  19.844  13.189
14918W        W87233  33.399   0.785  10.198
14919W        W87234  20.522  12.168   0.016
14920W        W87235  30.718  17.713   2.457
14921W        W87236  44.029   7.799   0.800
14922W        W87237  30.429  13.862   4.456
14923W        W87238  13.331  36.984  11.958
14924W        W87239  43.483  14.331  13.155
14925W        W87240  20.694  27.004   2.371
14926W        W87241  41.503  27.585   4.642
14927W        W87242  10.187   8.707  11.221
14928W        W87243  10.581   2.792  13.966
14929W        W87244  24.530  24.895   2.688
14930W        W87245  30.195   1.711  10.498
14931W        W87246  41.873  40.989  13.451
14932W        W87247   7.612  32.863  12.425
14933W        W87248  31.572  10.651   3.673
14934W        W87249  24.465  37.395   1.893
14935W        W87250  32.615  40.309  12.589
14936W        W87251  17.786  32.637  11.553
14937W        W87252  22.679  37.597   0.520
14938W        W87253  31.124   0.933  10.825
14939W        W87254   1.577   0.930  13.887
14940W        W87255  33.169  15.151   4.322
14941W        W87256   4.318  32.338  11.643
14942W        W87257  14.017   9.452   1.105
14943W        W87258   0.164  16.602  12.679
14944W        W87259  18.902  24.170  11.843
14945W        W87260  24.621  26.105  13.319
14946W        W87261   3.347  36.018  13.462
14947W        W87262   1.753  24.480  12.039
14948W        W87263  29.632  43.032   1.295
14949W        W87264  15.483   6.870  13.040
14950W        W87265  36.095  21.178  14.279
14951W        W87266  27.917   0.647  12.919
14952W        W87267  38.322   5.678  11.140
14953W        W87268   0.944   2.684   0.762
14954W        W87269  14.393  27.341  13.098
14955W        W87270  27.064   1.434  11.501
14956W        W87271   2.456  27.121   2.198
14957W        W87272  29.966  25.216   0.295
14958W        W87273  37.045   4.678  12.167
14959W        W87274   8.264  29.485  10.810
14960W        W87275  27.428  10.720  13.669
14961W        W87276  32.574  36.784  11.180
14962W        W87277  26.000  20.787   0.934
14963W        W87278  28.721  40.732  13.836
14964W        W87279  29.031  39.844   2.352
14965W        W87280  16.537   4.428   4.742
14966W        W87281   5.665  28.580   4.479
14967W        W87282  20.709   0.184  10.719
14968W        W87283  17.101  31.860   4.999
14969W        W87284  38.872  10.915  13.281
14970W        W87285  25.835  15.764   4.472
14971W        W87286  19.647  29.499  12.026
14972W        W87287  14.643  30.126   3.487
14973W        W87288   1.873  39.061   3.752
14974W        W87289  17.782  15.257  13.362
14975W        W87290  19.123  30.629   0.289
14976W        W87291  18.810  41.507   4.467
14977W        W87292  10.940  37.365  13.444
14978W        W87293  22.141   1.526  12.809
14979W        W87294  44.612  23.094  13.835
14980W        W87295   2.232  24.945   2.059
14981W        W87296  12.095   8.796   4.104
14982W        W87297  26.514  33.596   0.894
14983W        W87298   0.545  17.112   5.181
14984W        W87299   6.433   0.818  14.869
14985W        W87300  23.736  41.210  11.211
14986W        W87301  26.515   8.666   0.545
14987W        W87302  42.868   0.253  13.481
14988W        W87303  31.351   5.770  10.621
14989W        W87304  16.346  39.100  11.536
14990W        W87305  43.045  23.180  12.467
14991W        W87306  36.993  18.730   0.823
14992W        W87307   2.333  38.153  12.536
14993W        W87308  19.413   8.840   5.104
14994W        W87309  15.889  26.686  14.465
14995W        W87310  12.961  27.444  13.997
14996W        W87311  43.045  29.049   4.834
14997W        W87312  44.816  11.341  10.341
14998W        W87313  19.739   3.438  13.413
14999W        W87314  28.499   8.109  13.635
15000W        W87315  38.014  37.153   0.936
15001W        W87316  18.793   9.764   3.661
15002W        W87317  19.758  18.541   4.618
15003W        W87318  28.406  11.572   4.538
15004W        W87319  17.181  40.257   2.234
15005W        W87320  37.594  33.641  11.071
15006W        W87321  26.188  24.981   4.607
15007W        W87322  34.774  38.523   0.814
15008W        W87323  19.157  16.033  14.303
15009W        W87324  40.946  29.371  13.352
15010W        W87325  13.545  18.284  11.911
15011W        W87326  43.487   7.419   2.094
15012W        W87327  40.604  33.095  13.373
15013W        W87328   9.115   0.060   3.128
15014W        W87329  17.149   1.175   3.144
15015W        W87330  28.069  24.438   1.748
15016W        W87331  37.028  23.280   2.017
15017W        W87332  11.409   9.688   3.617
15018W        W87333  22.754  12.861   1.217
15019W        W87334  11.887  42.866  14.156
15020W        W87335  36.098  12.957   4.673
15021W        W87336   0.477   8.667  11.919
15022W        W87337   8.387   0.211  14.903
15023W        W87338  28.090  26.976   4.963
15024W        W87339  10.198   8.669  14.002
15025W        W87340  32.656  14.043  13.379
15026W        W87341  10.699  26.479   3.650
15027W        W87342  30.929  14.075  13.944
15028W        W87343  14.244  25.980  13.903
15029W        W87344  26.989  30.245   2.190
15030W        W87345  35.070  33.654   0.281
15031W        W87346  21.010  11.578  13.915
15032W        W87347  11.855  13.656  14.862
15033W        W87348  24.480  11.930  12.036
15034W        W87349  15.796  38.391  14.580
15035W        W87350  31.550  22.966   2.290
15036W        W87351  27.043  16.662  13.718
15037W        W87352   7.424  36.004   0.357
15038W        W87353  15.121   4.278   2.230
15039W        W87354  12.300  26.634   3.784
15040W        W87355  35.555  22.308   0.051
15041W        W87356  27.546   1.848  13.168
15042W        W87357   6.917  38.775  14.436
15043W        W87358  20.957  23.228   4.091
15044W        W87359  21.024  22.056   2.736
15045W        W87360  15.568   2.912   1.374
15046W        W87361  43.026  27.981  14.431
15047W        W87362  40.625   0.400   0.533
15048W        W87363  41.623  36.777  12.914
15049W        W87364  22.737  29.920  14.722
15050W        W87365  23.731  36.640  11.193
15051W        W87366   0.776   2.276   3.585
15052W        W87367  21.241   7.703   3.163
15053W        W87368  26.596  42.573  13.399
15054W        W87369  18.797  33.998   3.364
15055W        W87370   3.139   9.285  11.456
15056W        W87371  13.159  24.206   2.334
15057W        W87372   6.743  24.949  13.834
15058W        W87373  19.821  27.963   1.528
15059W        W87374  19.288  22.547   1.857
15060W        W87375  22.235  16.753  12.587
15061W        W87376  28.160   2.908   4.432
15062W        W87377  16.058  21.519  12.079
15063W        W87378  44.128  32.538   1.208
15064W        W87379   0.138  10.106  10.696
15065W        W87380  22.526  20.038  10.698
15066W        W87381  39.558  39.925   4.351
15067W        W87382  27.215  38.798  12.483
15068W        W87383   5.283   2.480   3.781
15069W        W87384  40.403  17.125  12.711
15070W        W87385  25.949  22.990  13.941
15071W        W87386  40.881  20.150  11.592
15072W        W87387  23.165  33.937  14.982
15073W        W87388  21.330  29.106  13.347
15074W        W87389  43.526  20.087   4.314
15075W        W87390   4.875  17.500   2.050
15076W        W87391  32.240   7.584  14.195
15077W        W87392  38.023  41.879  10.610
15078W        W87393   2.770   4.439  11.601
15079W        W87394  11.773   5.264   1.985
15080W        W87395  23.242  10.329  10.155
15081W        W87396  12.187   6.782  11.615
15082W        W87397  19.665  43.249   2.825
15083W        W87398   4.261  25.060  13.263
15084W        W87399   5.360  26.848   4.345
15085W        W87400  27.610  34.908  12.455
15086W        W87401  10.063  42.075  13.007
15087W        W87402   9.626  40.766  13.922
15088W        W87403  14.370  10.322  13.670
15089W        W87404   3.796  26.136   0.228
15090W        W87405  39.976   7.768  11.501
15091W        W87406  16.350  29.505  14.713
15092W        W87407  10.882   9.719  12.923
15093W        W87408   1.314  20.572   4.282
15094W        W87409  21.112  40.087   2.318
15095W        W87410  23.215  21.320   4.553
15096W        W87411  18.121  20.284   4.136
15097W        W87412  16.707  33.133  10.854
15098W        W87413  10.712   6.146   2.860
15099W        W87414  33.966   4.025  13.381
15100W        W87415  14.122   3.686   3.810
15101W        W87416  31.103  28.134  11.767
15102W        W87417  18.140   2.870   2.022
15103W        W87418  32.315  33.598  12.925
15104W        W87419  32.660  28.080  12.567
15105W        W87420  27.392  28.115   2.153
15106W        W87421  16.233  32.977   2.299
15107W        W87422  13.999  18.588   3.809
15108W        W87423  17.522  11.196   5.065
15109W        W87424  26.201  32.125   4.433
15110W        W87425   7.972  39.407   4.221
15111W        W87426   2.276  44.195   1.419
15112W        W87427  32.021  33.083  14.335
15113W        W87428   9.973  21.495   2.282
15114W        W87429  21.275  39.818  10.648
15115W        W87430   2.334  20.062   0.914
15116W        W87431   4.684  27.507   0.795
15117W        W87432  23.776  20.266   2.207
15118W        W87433  42.037  16.311  11.779
15119W        W87434  22.501  34.585   4.684
15120W        W87435  19.485  23.938   3.447
15121W        W87436  16.824  15.775   0.318
15122W        W87437  14.767   9.353   0.096
15123W        W87438  41.723  24.634   4.037
15124W        W87439  24.092  12.815  14.474
15125W        W87440  28.796  35.885  11.863
15126W        W87441  16.087  12.205   0.486
15127W        W87442  28.206   5.846   2.807
15128W        W87443   0.731  12.636   0.848
15129W        W87444  25.041  34.127   2.077
15130W        W87445  21.611   9.248   1.459
15131W        W87446  30.098   2.478  14.259
15132W        W87447  14.210  15.838   0.433
15133W        W87448  34.952  21.085  11.207
15134W        W87449  30.877  38.434  10.757
15135W        W87450  17.026  34.106   4.620
15136W        W87451  33.822  13.642   3.715
15137W        W87452  21.077  11.313   2.733
15138W        W87453   1.529   0.832   5.031
15139W        W87454   9.991  28.586  10.703
15140W        W87455  20.765  37.871   4.048
15141W        W87456  14.862  18.295  11.597
15142W        W87457  36.872  16.910   0.275
15143W        W87458  32.987   2.704  11.378
15144W        W87459   6.889  14.413  12.917
15145W        W87460   8.664   7.073  13.497
15146W        W87461  23.929   3.383  11.301
15147W        W87462  20.410  17.643   3.584
15148W        W87463   4.265   3.898   3.294
15149W        W87464  29.636   6.669  12.488
15150W        W87465  15.111  29.780   3.652
15151W        W87466  32.395  37.986  11.360
15152W        W87467  33.303   0.474   0.745
15153W        W87468  23.396  26.459  12.079
15154W        W87469  34.746   8.305   0.018
15155W        W87470   6.312  19.239  11.687
15156W        W87471  15.822  12.546  14.845
15157W        W87472   1.395   4.839   0.686
15158W        W87473   5.007  16.368  12.477
15159W        W87474   3.790  34.621  11.874
15160W        W87475  30.606  42.799  10.535
15161W        W87476  41.882   1.774   1.772
15162W        W87477  37.961  41.343   2.266
15163W        W87478  12.955  22.148  12.132
15164W        W87479   7.851  26.886   3.184
15165W        W87480   3.782   0.786   1.514
15166W        W87481  25.802   3.870  10.361
15167W        W87482   9.758  29.484   0.799
15168W        W87483  16.813  18.959   0.444
15169W        W87484  38.860  37.543   2.767
15170W        W87485   0.285   0.354  12.377
15171W        W87486  31.684  10.598   2.777
15172W        W87487  21.599  28.217  13.730
15173W        W87488  34.138  31.822   4.619
15174W        W87489  17.160  41.281   0.067
15175W        W87490  16.059  40.310  12.051
15176W        W87491   5.650  41.740  12.121
15177W        W87492  44.772  35.827  14.870
15178W        W87493  27.644  23.016  10.804
15179W        W87494  22.197   7.412  11.211
15180W        W87495  24.113  26.776  10.282
15181W        W87496  15.150  28.447  11.060
15182W        W87497  36.830  41.195  11.966
15183W        W87498   4.842  36.311  12.201
15184W        W87499  35.821  13.616  13.010
15185W        W87500   4.173   9.948  14.548
15186W        W87501   0.017  27.561   3.876
15187W        W87502  32.910  28.488   1.435
15188W        W87503   7.391  38.756   1.787
15189W        W87504   9.579  34.358   1.764
15190W        W87505  31.654  15.093   2.212
15191W        W87506  42.944  20.536   1.881
15192W        W87507  36.862  42.223  10.411
15193W        W87508  17.321  34.031  10.148
15194W        W87509  20.557   6.228  13.299
15195W        W87510   8.409   2.342   1.157
15196W        W87511  36.589  32.624  14.989
15197W        W87512   3.282  37.275  11.582
15198W        W87513  16.613  42.943   3.052
15199W        W87514  19.242  25.623   2.650
15200W        W87515   1.306   7.377   2.862
15201W        W87516  23.218   9.848   3.399
15202W        W87517  39.577  34.009  13.528
15203W        W87518  30.232   1.906  12.781
15204W        W87519   6.855  19.543  13.950
15205W        W87520  29.619  28.399   3.240
15206W        W87521   1.436  36.938   3.366
15207W        W87522   2.750  30.628   2.391
15208W        W87523   4.721  44.393   0.815
15209W        W87524  10.394   0.093   4.191
15210W        W87525   8.198  14.712  12.098
15211W        W87526   6.772  39.302   4.096
15212W        W87527  36.098  39.883   0.863
15213W        W87528   3.689  30.043   1.965
15214W        W87529   0.189  15.764   1.984
15215W        W87530  32.295  11.517   2.237
15216W        W87531  12.188  33.929   0.852
15217W        W87532   8.357  41.612  14.698
15218W        W87533  26.720  17.356  13.276
15219W        W87534  34.811  29.199   2.629
15220W        W87535  21.844  32.987  14.359
15221W        W87536  23.528  35.964  14.495
15222W        W87537  21.336   0.364  13.819
15223W        W87538   0.920  42.399  14.461
15224W        W87539   0.493  12.252   3.641
15225W        W87540  23.579   1.194   1.042
15226W        W87541  40.519  43.991  11.050
15227W        W87542   1.655  19.545  10.755
15228W        W87543  19.375  22.202   4.158
15229W        W87544  18.714  22.083   2.898
15230W        W87545  39.064  21.672   3.169
15231W        W87546   3.912   8.953   0.377
15232W        W87547  32.728  32.066   0.295
15233W        W87548  16.624   1.042  13.859
15234W        W87549  39.878  44.179  12.617
15235W        W87550  14.157  42.052  13.832
15236W        W87551   2.173  13.163   4.810
15237W        W87552  23.496  16.497  10.912
15238W        W87553  23.187  29.436   2.603
15239W        W87554  41.514  35.184   0.491
15240W        W87555  43.808  35.013  13.543
15241W        W87556  11.123  22.575  13.090
15242W        W87557  20.322   4.833   4.825
15243W        W87558   2.326  19.099   1.509
15244W        W87559  30.106  42.343   1.031
15245W        W87560   1.418  38.539  12.435
15246W        W87561  43.554  41.306   3.782
15247W        W87562  13.388  17.620   4.506
15248W        W87563  39.306  16.734   4.156
15249W        W87564  42.100  32.934   1.901
15250W        W87565  14.037  32.425   4.110
15251W        W87566  11.151  25.360   3.399
15252W        W87567  15.110   7.694   1.258
15253W        W87568  30.730  41.548  11.107
15254W        W87569  17.586  28.169   1.059
15255W        W87570  13.849  42.934   1.227
15256W        W87571  34.414   5.575  14.641
15257W        W87572  32.974   9.107  11.555
15258W        W87573  25.042  17.086   0.424
15259W        W87574  32.193   4.859   0.051
15260W        W87575  18.575  38.519  11.912
15261W        W87576  37.541  43.149   0.834
15262W        W87577  44.653  11.350  11.354
15263W        W87578  33.548  27.629  12.279
15264W        W87579  42.324  31.947   3.992
15265W        W87580  15.916  16.513   5.036
15266W        W87581  11.063  37.318   3.329
15267W        W87582  13.264  23.812   3.263
15268W        W87583  15.194  17.169   2.147
15269W        W87584  29.630  11.670  13.443
15270W        W87585  40.899   3.431  13.390
15271W        W87586  38.778  27.284  12.446
15272W        W87587  11.728   4.393   1.491
15273W        W87588  38.949  12.850  13.528
15274W        W87589  10.467  18.990  13.031
15275W        W87590  31.881   8.499   2.240
15276W        W87591  14.861  29.135  14.917
15277W        W87592  25.055  25.459   3.641
15278W        W87593  37.565  17.759   1.235
15279W        W87594  39.460   8.916   0.810
15280W        W87595  15.801   2.927  13.029
15281W        W87596   9.676  16.910   5.205
15282W        W87597  23.626  31.484   2.152
15283W        W87598   9.314  31.872   4.511
15284W        W87599  10.395  36.982   0.812
15285W        W87600  44.428   1.743  11.686
15286W        W87601  26.898  26.436   0.355
15287W        W87602  44.753  22.273  14.205
15288W        W87603  20.185  20.330   0.749
15289W        W87604  11.158  18.071   1.954
15290W        W87605  32.958  10.888  12.001
15291W        W87606   8.408  20.616   4.574
15292W        W87607   6.391  19.506   2.907
15293W        W87608   9.316   3.655  12.025
15294W        W87609  30.460  28.219   4.581
15295W        W87610  26.166  22.993   1.380
15296W        W87611  21.616   6.876  14.081
15297W        W87612  23.580   7.733   0.774
15298W        W87613  36.996   4.248  13.004
15299W        W87614  27.220  30.135   0.075
15300W        W87615  18.928  23.006  12.431
15301W        W87616  34.902  33.631   3.659
15302W        W87617   5.146   0.374   0.924
15303W        W87618  37.160  36.905   3.435
15304W        W87619  38.266  26.857  14.370
15305W        W87620  22.127  41.307  12.939
15306W        W87621  34.412  20.280  14.533
15307W        W87622  14.815  22.067  11.952
15308W        W87623   5.099  40.957   2.285
15309W        W87624  29.970  44.678  12.574
15310W        W87625  40.086  40.585  14.337
15311W        W87626  21.314   6.086  11.500
15312W        W87627  27.016   3.700   4.417
15313W        W87628  40.281  31.732   2.354
15314W        W87629  32.467  35.103   2.286
15315W        W87630  12.216   0.549   3.192
15316W        W87631   0.707  26.443  12.557
15317W        W87632  10.267  14.698   2.679
15318W        W87633  41.613  27.894   1.858
15319W        W87634   8.128  37.331   1.849
15320W        W87635   1.451  13.978  14.439
15321W        W87636  18.022  20.990  14.395
15322W        W87637  31.862  14.669   3.001
15323W        W87638  39.001  10.685   5.101
15324W        W87639   2.235  11.045   1.694
15325W        W87640   4.274   6.183  11.392
15326W        W87641   6.476  30.058   4.707
15327W        W87642   7.874   6.426   2.515
15328W        W87643  10.855  39.482   2.164
15329W        W87644  32.522  20.168  10.823
15330W        W87645  28.859  14.905   1.845
15331W        W87646  35.952  39.815  13.495
15332W        W87647  31.886  39.405  13.306
15333W        W87648   6.715  25.627   4.710
15334W        W87649   1.500  33.173   2.374
15335W        W87650  22.214  36.516  13.637
15336W        W87651  25.976  15.903   0.676
15337W        W87652  22.806   6.501   0.955
15338W        W87653  32.554  19.276  11.423
15339W        W87654   3.010   7.957   3.118
15340W        W87655  30.465  17.075  10.801
15341W        W87656  25.594  17.089  13.390
15342W        W87657  21.626  22.987  13.993
15343W        W87658   4.205  13.345  13.992
15344W        W87659  36.430   6.410   4.239
15345W        W87660  10.236  35.861   3.766
15346W        W87661  38.950  22.273   4.896
15347W        W87662   9.704  15.244  11.452
15348W        W87663  38.551  41.905  14.442
15349W        W87664   1.668  17.255  10.759
15350W        W87665   6.078   6.656   3.376
15351W        W87666   5.718  41.305  13.855
15352W        W87667   5.144  41.082  14.878
15353W        W87668   9.355  37.517   4.354
15354W        W87669   1.993  41.226  13.239
15355W        W87670  27.595   6.606   9.861
15356W        W87671   3.246  32.641  14.867
15357W        W87672  40.963  37.794  10.591
15358W        W87673  18.207   0.482   0.361
15359W        W87674  40.585  37.405   1.657
15360W        W87675  44.305   5.403   4.667
15361W        W87676   8.004  29.490  11.367
15362W        W87677  30.918   5.299   2.190
15363W        W87678  44.869  20.082  14.334
15364W        W87679  12.141  44.611  11.053
15365W        W87680  31.064  21.811  10.442
15366W        W87681  34.658   2.048   2.921
15367W        W87682  40.053  37.373   1.376
15368W        W87683   7.693  31.580   3.321
15369W        W87684  42.960  20.604   2.435
15370W        W87685  19.421  40.084   5.512
15371W        W87686  44.011  31.152  12.093
15372W        W87687  10.559  41.257  10.653
15373W        W87688  33.569  30.227   3.316
15374W        W87689   0.831   7.460   4.941
15375W        W87690  30.970  31.045  13.955
15376W        W87691   1.584  41.616   4.880
15377W        W87692  28.710  41.222  12.695
15378W        W87693   6.321   9.905  10.798
15379W        W87694   2.815  38.884   2.219
15380W        W87695  16.317  42.435  12.449
15381W        W87696  41.037  37.650  14.142
15382W        W87697  42.446  21.990  13.423
15383W        W87698  38.355   3.389   2.640
15384W        W87699  33.019  18.056   4.276
15385W        W87700  11.368  22.545   1.313
15386W        W87701  25.429  43.963  10.423
15387W        W87702   1.500  38.507  14.928
15388W        W87703  17.299  26.190   0.793
15389W        W87704   5.705   1.789  12.803
15390W        W87705   0.240  10.622   3.619
15391W        W87706   5.682  28.093   3.321
15392W        W87707  44.182  26.620  13.981
15393W        W87708  23.725  27.306   3.370
15394W        W87709  43.027  31.364   0.450
15395W        W87710  22.014  25.402   0.669
15396W        W87711  29.540  10.627  13.372
15397W        W87712  12.227   5.948   3.193
15398W        W87713  26.523  41.539  14.489
15399W        W87714  36.052  19.181   2.079
15400W        W87715  43.674  41.864  11.246
15401W        W87716  31.576  16.127  13.350
15402W        W87717  37.883   3.023   1.920
15403W        W87718  34.531  29.447  13.918
15404W        W87719   1.358  32.676   3.344
15405W        W87720  22.809  17.529  14.898
15406W        W87721  30.978  24.682  13.918
15407W        W87722  44.788  12.130  11.115
15408W        W87723  27.394  10.890  14.161
15409W        W87724  26.192  38.909   0.482
15410W        W87725  33.598  10.811  10.678
15411W        W87726  32.558   1.684  10.735
15412W        W87727  14.539  35.343  10.730
15413W        W87728  39.519   1.738  14.373
15414W        W87729  38.422  44.408   3.714
15415W        W87730   9.842   9.720  11.126
15416W        W87731  26.741  38.801  11.661
15417W        W87732   6.509  16.068  13.366
15418W        W87733  32.932   0.533   4.818
15419W        W87734  20.595  16.166   1.366
15420W        W87735  26.551  38.526  13.048
15421W        W87736  26.058  23.779  10.309
15422W        W87737  43.638  23.210  10.481
15423W        W87738  21.965  40.584  12.173
15424W        W87739  15.286  29.093   0.245
15425W        W87740  14.714  13.359   4.952
15426W        W87741  28.104  39.381   0.751
15427W        W87742   7.387  40.151   4.184
15428W        W87743  29.012  24.203   0.278
15429W        W87744  44.116   2.005   1.902
15430W        W87745  44.607   5.810   3.888
15431W        W87746  20.758   1.516  13.438
15432W        W87747  35.272  36.991   2.828
15433W        W87748  27.554   1.282  14.410
15434W        W87749  42.363  35.081   1.207
15435W        W87750  17.804  27.164   4.780
15436W        W87751  44.964   8.318   1.943
15437W        W87752  22.475  44.758  13.837
15438W        W87753  27.038  15.300   0.917
15439W        W87754  42.298  24.177   4.455
15440W        W87755  14.874  15.548  12.189
15441W        W87756  23.349   6.500  10.620
15442W        W87757  23.869  23.630   3.404
15443W        W87758  12.823  28.588  10.459
15444W        W87759  41.305  43.858   3.759
15445W        W87760  25.577  40.994   0.453
15446W        W87761  38.749  13.738   1.323
15447W        W87762  42.809  28.643  13.566
15448W        W87763  16.134   0.406  12.197
15449W        W87764  42.381  20.886  14.545
15450W        W87765  30.525  24.771  12.809
15451W        W87766  22.051   8.453  12.339
15452W        W87767   8.181   3.276   2.360
15453W        W87768  42.897  41.903   1.734
15454W        W87769  35.990   6.396  10.749
15455W        W87770  37.443  41.524  12.688
15456W        W87771   8.918  44.294  13.465
15457W        W87772  44.288   7.897   3.782
15458W        W87773  40.968  29.178   0.251
15459W        W87774  16.796  15.395  10.994
15460W        W87775  37.927   6.504   0.044
15461W        W87776  39.919   7.246  12.566
15462W        W87777  13.957  11.129  14.178
15463W        W87778  23.546   9.605   4.331
15464W        W87779  40.586  34.557  11.710
15465W        W87780  35.530  16.150  11.504
15466W        W87781  41.370  21.127   0.319
15467W        W87782  41.672  23.094   4.522
15468W        W87783  39.902  40.391  10.347
15469W        W87784  23.144  31.238  12.909
15470W        W87785  37.083  23.319  14.949
15471W        W87786  20.531  15.392   3.652
15472W        W87787  34.903  29.075  12.615
15473W        W87788  22.899  11.713  13.972
15474W        W87789  43.154   1.755   3.785
15475W        W87790  40.319  19.762  14.532
15476W        W87791  12.327  24.938  11.953
15477W        W87792  39.245  18.268  12.626
15478W        W87793  16.063   6.675   3.196
15479W        W87794  28.554  35.283   2.246
15480W        W87795  10.332  31.323   3.717
15481W        W87796  10.851  11.678   2.702
15482W        W87797  40.566   8.422  13.533
15483W        W87798  18.657  14.258  11.152
15484W        W87799  10.010   4.280   2.186
15485W        W87800   1.949  33.345   2.090
15486W        W87801   4.138  27.074   3.434
15487W        W87802  36.378  10.222   3.575
15488W        W87803  42.231  17.261  12.479
15489W        W87804  12.805  19.128  14.944
15490W        W87805  31.503   9.885  11.521
15491W        W87806  21.525  10.907  10.652
15492W        W87807  21.426  44.286  14.266
15493W        W87808  34.557   9.690  10.842
15494W        W87809  34.141  37.501   4.027
15495W        W87810  38.790   6.846   2.227
15496W        W87811  23.625  42.939  13.299
15497W        W87812  32.975  42.808   3.107
15498W        W87813  22.606  27.839   2.708
15499W        W87814  28.136   5.775   5.304
15500W        W87815  39.776  31.073   1.375
15501W        W87816  22.778  13.097   4.219
15502W        W87817  18.788  34.686  13.876
15503W        W87818   8.337   7.153  10.580
15504W        W87819  30.898  25.956  11.896
15505W        W87820   0.833   0.156   1.199
15506W        W87821   5.941  30.495  12.241
15507W        W87822  23.580   8.686  11.198
15508W        W87823  43.001  42.954   1.842
15509W        W87824  14.037  38.102   0.296
15510W        W87825  41.786  11.730  10.207
15511W        W87826   9.702   8.719   4.776
15512W        W87827  43.399  36.370   0.268
15513W        W87828  16.175  12.109  14.575
15514W        W87829  17.304  30.892   5.249
15515W        W87830   8.363  42.423  11.588
15516W        W87831  26.766   2.824   0.780
15517W        W87832  10.598   9.163  13.764
15518W        W87833  37.888  34.208   3.717
15519W        W87834   2.273  26.649   0.745
15520W        W87835   1.011  39.836   3.640
15521W        W87836  34.032  41.273   4.033
15522W        W87837  25.494  38.392  12.833
15523W        W87838   3.899   2.409  11.556
15524W        W87839  31.495  28.564  14.792
15525W        W87840  26.403  26.171   3.032
15526W        W87841  28.588  11.713  14.960
15527W        W87842  13.169   0.948  11.957
15528W        W87843  34.553  26.489   3.671
15529W        W87844  37.759  26.522   0.040
15530W        W87845  42.805  14.559   3.658
15531W        W87846  30.435   9.649  10.750
15532W        W87847  23.881  25.631  14.741
15533W        W87848  29.960  14.875  14.725
15534W        W87849  22.585  26.185  11.678
15535W        W87850  22.593  19.131  11.115
15536W        W87851  17.599   6.232   4.044
15537W        W87852   4.646  34.420  12.944
15538W        W87853  40.920  40.738  14.025
15539W        W87854  29.502  15.592  14.712
15540W        W87855  15.741  24.722   1.591
15541W        W87856  26.785  32.177  10.203
15542W        W87857  35.421  19.243  13.048
15543W        W87858  40.960  29.038  14.280
15544W        W87859  44.522   1.432  14.298
15545W        W87860   6.355  35.119  11.525
15546W        W87861  34.637  28.020   3.429
15547W        W87862  11.058   8.740   2.303
15548W        W87863  10.863  25.862  14.067
15549W        W87864  32.036   0.094  14.488
15550W        W87865  43.345  16.294  12.102
15551W        W87866  39.929   3.728   1.436
15552W        W87867  44.671  11.622  10.749
15553W        W87868  30.981  29.281  11.079
15554W        W87869  21.975  43.836  13.545
15555W        W87870  42.550   2.883  12.399
15556W        W87871   9.628  28.819   1.739
15557W        W87872  32.087  14.984  12.098
15558W        W87873  13.828  21.518  12.433
15559W        W87874  41.191  16.049  14.732
15560W        W87875  41.720  18.991   4.414
15561W        W87876  13.735  20.284   1.210
15562W        W87877  28.256  29.144  13.499
15563W        W87878  37.585  41.915  10.873
15564W        W87879  12.167  35.872   0.197
15565W        W87880  33.190  27.523  13.339
15566W        W87881  21.715   4.495   3.379
15567W        W87882  32.934   6.460   0.889
15568W        W87883  26.283  43.750   4.262
15569W        W87884   6.378   0.697  10.299
15570W        W87885  36.282  44.458   0.518
15571W        W87886   3.632  33.904   0.262
15572W        W87887  12.716  21.718  11.885
15573W        W87888   6.881  35.132   3.804
15574W        W87889   4.461   1.399   3.702
15575W        W87890   4.283  40.696   1.867
15576W        W87891  28.697  34.470   2.873
15577W        W87892   3.701  39.934   0.502
15578W        W87893  15.803  38.891   5.521
15579W        W87894  35.332  43.739  14.775
15580W        W87895  24.602  14.802   1.903
15581W        W87896  26.622  41.988  12.687
15582W        W87897   3.639  29.529   0.881
15583W        W87898   7.298  23.117   3.284
15584W        W87899   6.520  37.388  11.260
15585W        W87900  27.140  37.393   2.062
15586W        W87901  41.757  21.565   0.915
15587W        W87902  25.213  27.598   1.606
15588W        W87903  25.101  33.634  11.893
15589W        W87904  26.929  32.159   2.373
15590W        W87905  16.226  35.655   0.986
15591W        W87906  17.712  38.873   2.709
15592W        W87907  41.055   9.246   4.357
15593W        W87908  25.808  41.255  10.321
15594W        W87909  16.580  33.376   3.431
15595W        W87910  20.958   7.178   2.272
15596W        W87911   6.152  29.512  11.936
15597W        W87912  10.608  24.090  13.304
15598W        W87913   1.321  24.142   3.282
15599W        W87914  16.342   4.663  14.022
15600W        W87915  21.408  13.073  11.616
15601W        W87916  31.885  44.088  14.352
15602W        W87917  13.438  14.346  13.350
15603W        W87918  23.211   2.764  14.401
15604W        W87919  38.993   7.262  10.735
15605W        W87920  13.278  13.141   2.712
15606W        W87921  38.268   3.688  12.408
15607W        W87922  32.473  27.550   3.427
15608W        W87923  22.975  33.912  11.138
15609W        W87924   0.069  18.185  12.017
15610W        W87925  33.904  39.439  11.852
15611W        W87926  41.826  21.588  14.451
15612W        W87927  27.956  28.520   0.329
15613W        W87928  20.127   6.229   4.577
15614W        W87929  30.665  32.897  13.988
15615W        W87930   1.279  28.458   4.591
15616W        W87931  15.740  18.863  13.773
15617W        W87932  15.635  25.312  11.055
15618W        W87933  34.921  34.530  14.958
15619W        W87934  19.868  11.125   0.460
15620W        W87935  19.752  27.403   4.174
15621W        W87936  40.865   7.305  12.834
15622W        W87937  30.442  27.372   3.166
15623W        W87938  37.172  36.834   2.412
15624W        W87939  23.580  44.132  11.245
15625W        W87940  37.481  18.734   0.337
15626W        W87941  42.730  43.583   2.898
15627W        W87942  10.291  24.724   1.695
15628W        W87943  33.439  17.267   1.908
15629W        W87944  16.832  30.611   5.138
15630W        W87945  38.873  43.209   0.653
15631W        W87946  41.787   0.387  11.113
15632W        W87947  35.107  28.175  12.878
15633W        W87948  38.989  15.253   0.708
15634W        W87949  23.724  22.476   4.109
15635W        W87950  32.844   4.145  11.342
15636W        W87951  30.091  14.203   0.915
15637W        W87952   6.796  40.599   3.583
15638W        W87953  42.900  11.784  12.495
15639W        W87954  36.664  43.342  11.222
15640W        W87955  41.743  29.875   2.696
15641W        W87956   8.498  33.100   2.330
15642W        W87957  13.685  25.213   3.915
15643W        W87958  25.971   5.262   1.824
15644W        W87959  29.175  33.092  13.963
15645W        W87960  32.425  44.336  12.866
15646W        W87961  38.355  27.082   0.893
15647W        W87962  29.491  28.109   4.165
15648W        W87963  25.499  35.800   2.193
15649W        W87964   0.759  27.678   2.227
15650W        W87965  18.739  22.632   1.221
15651W        W87966  37.392  22.059   2.512
15652W        W87967  32.572  17.323   3.362
15653W        W87968   0.882   9.501   2.113
15654W        W87969  42.880  43.818  11.964
15655W        W87970  35.861  17.894  13.426
15656W        W87971  15.758   5.779   3.413
15657W        W87972  12.261  25.294  12.987
15658W        W87973  39.282  35.898  13.411
15659W        W87974  20.212   2.473  13.127
15660W        W87975  16.004   3.393   0.292
15661W        W87976  43.234  37.851  11.450
15662W        W87977  38.166  25.412  14.465
15663W        W87978  27.369  15.713  12.646
15664W        W87979  41.574   0.749   3.865
15665W        W87980   0.614  25.572   1.075
15666W        W87981  18.566  11.287  10.526
15667W        W87982  11.201  43.709  10.934
15668W        W87983  15.350  26.036   4.698
15669W        W87984  33.153  10.688  12.461
15670W        W87985   8.574  40.392  13.493
15671W        W87986  10.669  16.126  10.636
15672W        W87987  30.148  42.850   2.197
15673W        W87988  13.003  29.856  12.414
15674W        W87989  16.230   5.614   3.296
15675W        W87990  19.612   1.361  14.013
15676W        W87991  16.062  12.394   3.655
15677W        W87992  13.743  11.806   4.596
15678W        W87993  41.712  12.077   3.284
15679W        W87994   4.802  33.696   4.536
15680W        W87995  28.246  18.600   1.208
15681W        W87996  21.162   4.951  14.922
15682W        W87997   6.358  20.248   1.917
15683W        W87998  38.371   3.670  11.061
15684W        W87999  30.957   3.901   3.130
15685W        W88000  38.311  34.951   4.110
15686W        W88001   7.441  13.182   4.883
15687W        W88002  20.719  11.687   3.813
15688W        W88003  11.370  29.984  11.450
15689W        W88004  44.119   5.861   0.288
15690W        W88005  33.869  20.692   1.242
15691W        W88006  34.583   7.907   4.061
15692W        W88007  42.166  25.549  14.216
15693W        W88008   4.326   0.659  12.996
15694W        W88009  38.187  14.351   4.178
15695W        W88010  29.209  35.764  12.602
15696W        W88011  25.678  10.865  13.868
15697W        W88012  15.722  34.322  13.049
15698W        W88013  20.652  13.521   2.028
15699W        W88014  42.632  37.522   4.576
15700W        W88015  32.543  38.792   2.927
15701W        W88016  39.272  27.918   0.905
15702W        W88017  18.842   9.215   4.319
15703W        W88018   3.885  37.027   1.359
15704W        W88019  44.114  14.002  10.769
15705W        W88020  33.432  22.264   3.297
15706W        W88021  39.465  22.016  12.568
15707W        W88022  11.010  21.148   1.322
15708W        W88023  15.832  41.883  14.319
15709W        W88024   4.552  13.389   3.987
15710W        W88025  40.422   5.458   4.269
15711W        W88026  11.343  40.118  13.918
15712W        W88027  16.105  29.890   5.275
15713W        W88028  26.241  32.591   0.744
15714W        W88029   8.795   2.660   3.906
15715W        W88030   3.810   7.500   0.373
15716W        W88031  23.904   9.486  12.865
15717W        W88032  18.158   4.385  11.995
15718W        W88033   9.330  44.754   3.505
15719W        W88034  40.040  36.752   2.635
15720W        W88035   5.139  15.567   1.037
15721W        W88036  36.534  39.000  10.816
15722W        W88037  19.209  10.550  12.544
15723W        W88038  44.771   3.413  12.104
15724W        W88039  12.113   5.605   0.857
15725W        W88040   7.233  25.752  10.809
15726W        W88041  14.795  14.968   3.785
15727W        W88042   4.876   2.476  13.895
15728W        W88043  10.686  40.157  12.928
15729W        W88044   7.326  16.080   1.361
15730W        W88045  25.753  34.325   5.565
15731W        W88046  18.226   7.239  10.318
15732W        W88047  12.910  27.436  13.039
15733W        W88048  27.521  40.052   3.083
15734W        W88049   0.478  12.641  14.456
15735W        W88050  36.179  40.596  13.310
15736W        W88051  39.421   2.760   0.474
15737W        W88052  22.980  11.436  14.865
15738W        W88053  25.386  24.625   2.794
15739W        W88054   5.451  25.630   3.864
15740W        W88055  38.267   5.229  11.658
15741W        W88056   9.863   3.868  14.516
15742W        W88057   7.010  20.911  12.463
15743W        W88058  38.637  22.607  10.968
15744W        W88059  10.081  14.048   0.865
15745W        W88060  44.336   4.305  13.801
15746W        W88061  44.026  41.456   1.268
15747W        W88062  36.339  44.309  13.373
15748W        W88063  25.291  39.010  13.958
15749W        W88064  17.685  18.824  14.888
15750W        W88065   2.210  20.720  14.423
15751W        W88066  38.554  30.509   4.937
15752W        W88067  12.728  42.016   2.737
15753W        W88068   4.755   3.821   2.094
15754W        W88069  30.175  37.452  13.390
15755W        W88070  24.278   4.721  12.882
15756W        W88071   3.254  16.013   4.570
15757W        W88072   8.678  38.460   3.652
15758W        W88073  28.746  34.910  14.363
15759W        W88074  12.082  36.362  10.360
15760W        W88075  18.335   5.302   3.689
15761W        W88076  29.980  26.079   0.649
15762W        W88077  10.593   3.477  10.419
15763W        W88078   7.190   5.923  14.746
15764W        W88079   5.247  20.807  11.032
15765W        W88080  22.175  36.097  14.838
15766W        W88081  16.746  24.503   4.738
15767W        W88082  19.173   7.898   1.178
15768W        W88083  17.223   6.607   4.016
15769W        W88084  30.989  28.192  10.802
15770W        W88085  35.698  25.107  12.429
15771W        W88086  11.292   9.610  13.232
15772W        W88087   6.431  30.530   2.658
15773W        W88088   2.281  40.800  13.079
15774W        W88089  12.166  15.527   4.690
15775W        W88090  37.201  15.218   2.407
15776W        W88091  33.521  43.892   4.431
15777W        W88092   4.349   1.561  11.572
15778W        W88093  36.474  35.916  13.847
15779W        W88094  34.479   0.348   3.259
15780W        W88095  29.959   3.445   1.733
15781W        W88096  10.618  13.720  13.434
15782W        W88097   9.352  42.710  12.389
15783W        W88098  27.440   6.269   5.686
15784W        W88099   2.210  33.320  13.764
15785W        W88100  18.104  37.605   1.489
15786W        W88101  27.884  38.401  13.746
15787W        W88102  11.642  23.960  12.044
15788W        W88103  35.334  10.768  12.959
15789W        W88104  23.154  29.766   1.833
15790W        W88105  10.840  19.282  13.445
15791W        W88106   4.860   6.673   2.760
15792W        W88107  21.191  18.557  12.572
15793W        W88108  29.147  42.257  11.389
15794W        W88109  37.939  13.962   0.067
15795W        W88110  44.288   6.695  12.838
15796W        W88111   6.868  39.314  12.477
15797W        W88112  26.125  43.028  11.536
15798W        W88113  31.190  24.181  12.207
15799W        W88114  39.478   5.996  11.503
15800W        W88115  42.250  15.758  12.466
15801W        W88116  25.746   2.073   0.207
15802W        W88117  29.151  39.046   1.905
15803W        W88118  42.514   8.234  12.448
15804W        W88119  29.606  41.492  10.286
15805W        W88120   0.267  10.453   2.384
15806W        W88121   6.814   8.676  10.585
15807W        W88122  31.053   1.386  11.580
15808W        W88123   8.116  24.653   4.554
15809W        W88124  30.113  21.753   3.648
15810W        W88125  29.082  10.570  13.596
15811W        W88126  34.963   3.317  10.459
15812W        W88127  12.259   2.262   4.761
15813W        W88128  12.080  40.410   3.703
15814W        W88129  43.967  44.238   4.165
15815W        W88130  11.282  10.082  13.024
15816W        W88131  14.813   9.350  10.980
15817W        W88132  17.249  20.286  14.392
15818W        W88133  18.694  43.845   3.310
15819W        W88134  32.061  43.335  11.083
15820W        W88135  17.096  30.441   1.885
15821W        W88136  42.238   6.850  13.722
15822W        W88137   3.391  11.216   4.441
15823W        W88138  31.447  29.485  10.717
15824W        W88139  39.156  21.220  14.438
15825W        W88140  37.605   4.741  13.355
15826W        W88141  30.071  32.680   2.622
15827W        W88142  22.262  16.239  11.776
15828W        W88143   1.044  26.058  10.681
15829W        W88144  40.419  29.441   0.890
15830W        W88145  35.455  42.373  13.088
15831W        W88146  15.726  19.854  10.520
15832W        W88147   0.921  21.553   4.395
15833W        W88148   9.686  36.003   1.212
15834W        W88149  27.627  40.325   4.609
15835W        W88150  21.336   5.430  11.172
15836W        W88151  16.019  44.187  10.310
15837W        W88152  40.723  18.465   4.765
15838W        W88153  23.340  33.129   0.406
15839W        W88154  34.849  13.910  12.941
15840W        W88155  30.944   8.794  14.354
15841W        W88156  28.217   4.439   3.068
15842W        W88157  38.403   0.786  13.980
15843W        W88158  20.406  42.955   3.866
15844W        W88159  34.431  25.400  11.253
15845W        W88160  34.086   1.712  10.652
15846W        W88161   5.418   8.474   1.898
15847W        W88162  11.337  12.416   2.898
15848W        W88163  16.506  32.461  11.071
15849W        W88164  31.182  21.791  14.420
15850W        W88165  21.595  33.425  12.434
15851W        W88166   3.022  25.916  11.932
15852W        W88167  16.305  20.215   3.216
15853W        W88168  25.523  27.733  13.963
15854W        W88169  14.271   0.817   0.339
15855W        W88170  19.528   5.600  11.628
15856W        W88171   2.490  30.708   4.050
15857W        W88172  21.220  11.279  12.654
15858W        W88173  31.326  26.502  13.919
15859W        W88174  16.744  29.583  11.113
15860W        W88175   0.416  42.454   0.779
15861W        W88176  43.482  32.332  13.563
15862W        W88177  37.644  34.651  10.933
15863W        W88178  24.844  16.758   2.224
15864W        W88179  20.187  25.994  14.247
15865W        W88180  38.128  41.291   1.784
15866W        W88181  40.773  10.409  14.493
15867W        W88182  42.072  28.089  12.472
15868W        W88183  30.927   9.131  12.515
15869W        W88184  10.379  27.247   2.055
15870W        W88185   8.338  33.870   1.385
15871W        W88186   7.631  29.066   2.499
15872W        W88187  39.785  34.452   2.715
15873W        W88188  29.107   5.869   2.830
15874W        W88189  14.891   1.695  14.555
15875W        W88190  38.324  16.259  13.834
15876W        W88191  38.322  42.307   1.457
15877W        W88192  33.954  39.604   4.582
15878W        W88193   2.340  27.746   4.091
15879W        W88194  28.471   8.995  12.503
15880W        W88195  35.340  14.211   0.372
15881W        W88196  37.457   2.671   3.104
15882W        W88197  20.762  40.806   4.178
15883W        W88198  37.800  29.184   3.158
15884W        W88199  18.226  14.777   3.395
15885W        W88200   7.771  13.709   1.360
15886W        W88201  30.345   5.561  12.623
15887W        W88202  27.287  33.734  11.929
15888W        W88203  27.093  11.106   1.888
15889W        W88204   6.233  31.611   1.146
15890W        W88205   2.008  10.834   4.069
15891W        W88206  10.633   2.252  13.971
15892W        W88207  13.285  10.414  13.412
15893W        W88208  10.128   0.458   0.537
15894W        W88209  35.629   6.291   0.669
15895W        W88210  19.305  21.088   4.613
15896W        W88211  25.667  41.789   1.801
15897W        W88212  19.650   9.698   1.341
15898W        W88213  21.650   5.892   0.764
15899W        W88214  15.260  23.636   3.470
15900W        W88215  13.753  17.354  13.802
15901W        W88216  13.272  17.316   3.152
15902W        W88217  42.460  28.472   1.678
15903W        W88218  32.582  39.727   2.685
15904W        W88219  15.576  41.411  14.058
15905W        W88220  11.986  14.219  13.495
15906W        W88221  14.742  15.760   0.417
15907W        W88222  30.869  37.712  12.476
15908W        W88223   6.276  41.501   0.880
15909W        W88224  19.649   0.837   0.663
15910W        W88225  37.038   4.486  11.646
15911W        W88226  40.613   3.292   3.952
15912W        W88227  39.816  39.243   4.130
15913W        W88228  32.860  33.849   4.850
15914W        W88229   5.271   6.381   4.781
15915W        W88230   2.770   7.139   1.751
15916W        W88231  30.296  24.521  12.428
15917W        W88232  25.863  28.107  11.604
15918W        W88233  43.433  25.004   4.021
15919W        W88234   9.136   7.238  13.429
15920W        W88235  39.764  29.054  11.929
15921W        W88236  35.896  12.626  11.088
15922W        W88237  18.846   3.482   0.767
15923W        W88238  30.150  25.126  11.969
15924W        W88239  27.506  11.177  11.625
15925W        W88240  17.275  40.058   3.600
15926W        W88241  23.224   7.532  12.988
15927W        W88242  27.246  15.741   1.860
15928W        W88243  20.100  43.989  14.446
15929W        W88244   4.261  11.649  13.098
15930W        W88245  44.459  18.619   4.193
15931W        W88246  29.891   2.986   2.705
15932W        W88247  34.554  33.819  12.604
15933W        W88248   3.759  35.623   1.926
15934W        W88249  25.455  44.505  14.350
15935W        W88250  44.469  12.469  13.125
15936W        W88251  30.108   7.694   0.667
15937W        W88252  44.784  14.756  12.110
15938W        W88253   6.768   5.425  10.748
15939W        W88254  38.603   0.532   1.662
15940W        W88255  38.009  26.961   0.147
15941W        W88256  33.997  39.504   2.283
15942W        W88257  28.110  31.539   4.205
15943W        W88258  13.799  43.307  12.579
15944W        W88259  21.610  17.197   3.224
15945W        W88260  24.457  28.228   2.897
15946W        W88261  31.706  28.699  12.001
15947W        W88262   4.557  43.987   2.673
15948W        W88263  17.765   9.839   3.701
15949W        W88264  16.288  29.812  12.489
15950W        W88265  22.417   3.011  11.955
15951W        W88266  41.083   6.452   2.352
15952W        W88267  37.333  10.921   0.622
15953W        W88268  30.652   4.004  11.139
15954W        W88269  36.400  33.690   0.870
15955W        W88270  10.809  31.114   3.730
15956W        W88271  43.112  18.109  11.960
15957W        W88272  11.196  11.608   3.356
15958W        W88273   9.310  42.495  13.100
15959W        W88274  20.075  20.211   4.653
15960W        W88275  39.606   3.503   3.211
15961W        W88276  44.367   6.422  14.446
15962W        W88277   6.265  21.179   4.121
15963W        W88278   0.349  44.280   1.699
15964W        W88279  16.041  44.476   2.740
15965W        W88280  20.117  29.700   4.543
15966W        W88281  21.534   8.594   2.861
15967W        W88282  40.480  25.979   0.307
15968W        W88283  27.860  16.752   3.332
15969W        W88284  30.486  26.925   4.168
15970W        W88285   0.322  35.599   2.700
15971W        W88286  17.596  13.055   4.120
15972W        W88287   2.782  10.853  12.785
15973W        W88288  41.321  16.268  10.708
15974W        W88289   4.269  24.131  10.638
15975W        W88290   8.356   9.916  13.986
15976W        W88291  10.097  44.783  11.530
15977W        W88292   0.812  16.022   1.888
15978W        W88293  35.912  24.806   0.738
15979W        W88294  43.218   5.652   2.761
15980W        W88295  38.153   5.081  12.499
15981W        W88296  37.383  37.807  10.746
15982W        W88297  15.710  27.977  14.459
15983W        W88298   6.056   1.470   3.164
15984W        W88299   1.314  27.486   1.439
15985W        W88300  10.895   6.291  12.121
15986W        W88301  18.461  36.367  10.943
15987W        W88302  29.569   8.573   3.355
15988W        W88303  27.455   3.899   5.098
15989W        W88304  14.391  39.462  14.457
15990W        W88305   4.239  23.263  13.757
15991W        W88306   1.878   9.479  11.152
15992W        W88307  18.149   2.337  14.382
15993W        W88308  29.338  12.198   4.871
15994W        W88309  28.278  26.604   4.334
15995W        W88310   9.608  32.602   0.784
15996W        W88311  23.932  16.719  13.865
15997W        W88312  43.526  13.915  10.637
15998W        W88313  27.851   1.990  13.958
15999W        W88314  37.471  21.671  11.169
16000W        W88315  38.960   1.408   3.401
16001W        W88316  22.537  20.534  10.876
16002W        W88317  11.643  11.342   2.184
16003W        W88318   1.391  17.656  14.289
16004W        W88319  37.090   6.405   4.546
16005W        W88320  10.710   9.286   3.332
16006W        W88321  38.879   5.779  10.051
16007W        W88322   2.332  42.753   1.274
16008W        W88323  16.199  42.040   1.198
16009W        W88324  12.199   0.931  14.865
16010W        W88325  27.888   2.419  11.123
16011W        W88326   6.769  26.535   1.723
16012W        W88327   4.980  12.745  12.928
16013W        W88328  41.642  12.188  14.317
16014W        W88329  40.832  16.609   1.854
16015W        W88330   2.339   2.241   4.170
16016W        W88331   3.296   7.677   0.314
16017W        W88332   4.484  32.868   1.220
16018W        W88333   5.291  32.134  13.536
16019W        W88334   0.383  37.249  10.742
16020W        W88335  41.737  29.138   0.774
16021W        W88336  31.462  36.144  12.086
16022W        W88337  32.383  22.619   2.814
16023W        W88338   6.331  11.208   0.974
16024W        W88339  36.306  34.262   1.804
16025W        W88340   0.843  37.629   2.913
16026W        W88341  33.164  18.047  13.366
16027W        W88342   5.463  26.649   1.993
16028W        W88343  40.472  29.469  14.933
16029W        W88344  21.372  11.327   4.819
16030W        W88345  38.404  32.594  13.363
16031W        W88346  34.502  24.778  12.112
16032W        W88347  19.237  16.744  14.496
16033W        W88348  33.959  30.054  11.295
16034W        W88349  31.343  39.394  11.641
16035W        W88350   8.186  36.496   4.197
16036W        W88351   4.257  18.889   3.121
16037W        W88352  17.833  13.060   1.495
16038W        W88353  11.128  40.480  13.569
16039W        W88354  33.007  16.868  11.575
16040W        W88355  26.076  23.995  11.600
16041W        W88356  37.563   5.294   2.282
16042W        W88357  35.534  34.986  12.060
16043W        W88358  10.257   3.354  11.858
16044W        W88359  34.166  11.661  14.698
16045W        W88360  23.211  31.658  13.784
16046W        W88361  25.487  34.105   2.872
16047W        W88362  35.068  40.660  14.017
16048W        W88363  31.911  27.998   2.257
16049W        W88364  29.062  22.994  13.994
16050W        W88365  30.089   2.408  13.741
16051W        W88366  25.512   0.117  11.019
16052W        W88367   4.914  16.961  13.450
16053W        W88368  37.814   5.446  13.389
16054W        W88369  17.862   7.790  14.286
16055W        W88370  11.292  17.552  11.644
16056W        W88371   0.811  28.901  10.576
16057W        W88372  40.859   4.456   3.106
16058W        W88373   3.990  19.140  14.049
16059W        W88374  11.621  37.754   1.433
16060W        W88375  27.428   1.232   0.308
16061W        W88376  37.885  19.577  13.500
16062W        W88377   2.068  34.830   3.892
16063W        W88378  22.054  30.577   0.365
16064W        W88379  38.010  26.835  12.794
16065W        W88380  29.360  12.532   4.086
16066W        W88381  23.466  33.609   2.775
16067W        W88382  43.699  30.904   3.769
16068W        W88383  21.769   1.922  14.108
16069W        W88384   9.639  18.735  10.640
16070W        W88385  16.512  22.512  13.945
16071W        W88386   8.782  23.542  11.570
16072W        W88387  33.403  11.649  11.083
16073W        W88388   3.858  16.045  12.087
16074W        W88389  41.617  30.255  14.737
16075W        W88390  43.658   3.985   3.352
16076W        W88391  20.248  33.852  11.249
16077W        W88392   9.325  13.295  14.511
16078W        W88393   7.629  44.390  12.179
16079W        W88394  31.088   7.856   1.157
16080W        W88395  40.301  29.211  14.010
16081W        W88396  41.478   3.871  10.560
16082W        W88397  16.025   7.672  12.628
16083W        W88398   2.785  44.218  13.561
16084W        W88399  16.782  38.901  12.904
16085W        W88400  40.721  22.828   2.757
16086W        W88401  31.318  24.617  12.496
16087W        W88402  38.852  42.362   1.421
16088W        W88403  42.071  35.884  11.734
16089W        W88404   4.030  32.428  12.272
16090W        W88405  10.791  38.854  13.473
16091W        W88406   7.738  20.023   3.478
16092W        W88407  18.804  21.513   3.770
16093W        W88408  26.757   5.317   1.239
16094W        W88409  18.605  17.826   0.814
16095W        W88410  24.010  42.387   1.315
16096W        W88411   0.041   9.783  11.539
16097W        W88412  24.254  19.682  13.426
16098W        W88413   0.943  38.318  11.109
16099W        W88414  29.273   7.215  11.346
16100W        W88415  13.856   3.971   0.907
16101W        W88416  42.498  36.609   3.755
16102W        W88417  43.786  22.227   2.170
16103W        W88418   4.982   4.927   4.689
16104W        W88419   5.574  40.530  11.153
16105W        W88420  10.799  13.986   3.146
16106W        W88421  10.313  32.787  12.993
16107W        W88422  15.532   2.731  11.556
16108W        W88423  25.072   6.337   3.379
16109W        W88424   8.997   5.717   3.834
16110W        W88425  33.544  24.656  10.699
16111W        W88426  17.677   7.172   2.459
16112W        W88427  31.870  15.089  10.475
16113W        W88428  29.224  40.895  13.848
16114W        W88429   9.332   2.932   3.764
16115W        W88430  18.980  34.524   2.250
16116W        W88431  16.711  17.305  10.824
16117W        W88432  11.347  37.262  14.109
16118W        W88433  36.346  25.567   0.951
16119W        W88434  22.792  11.192   3.143
16120W        W88435  17.727  30.599   5.077
16121W        W88436  40.465  30.842  13.011
16122W        W88437  44.698  15.533   9.840
16123W        W88438  31.520  11.236   4.535
16124W        W88439  10.225  12.316  11.136
16125W        W88440  26.002  27.005   4.553
16126W        W88441  13.971   9.068  14.245
16127W        W88442  20.323  37.676   3.341
16128W        W88443  15.242  21.931  13.582
16129W        W88444  22.553  15.915   0.704
16130W        W88445   0.013  44.260   4.801
16131W        W88446  33.940  36.989  13.272
16132W        W88447   6.359  10.012   3.130
16133W        W88448  27.479  26.289  11.121
16134W        W88449  31.102  29.189   2.235
16135W        W88450   7.248  41.855   1.831
16136W        W88451   9.819   1.716  11.379
16137W        W88452   3.343   8.037  14.900
16138W        W88453  44.983  24.120   3.673
16139W        W88454  22.439  27.103   0.601
16140W        W88455  10.826  11.216  14.790
16141W        W88456  17.964  19.196  10.359
16142W        W88457  37.181  25.132  10.622
16143W        W88458   5.493  22.953   1.883
16144W        W88459   9.267  22.279  10.597
16145W        W88460  28.266  37.713  10.744
16146W        W88461  34.152  20.050  14.145
16147W        W88462  10.730  24.074  12.042
16148W        W88463  17.227  21.716  12.573
16149W        W88464  19.265   4.976   3.621
16150W        W88465   4.420  17.090  13.453
16151W        W88466  42.588  28.124  12.493
16152W        W88467   0.673  11.411  10.646
16153W        W88468  17.508  36.627  11.155
16154W        W88469  42.570  15.483   2.235
16155W        W88470   4.696  39.993  11.631
16156W        W88471  40.951  26.535   3.314
16157W        W88472  39.978  20.225   1.156
16158W        W88473  14.946  25.944   0.424
16159W        W88474  15.786  38.463  12.595
16160W        W88475  42.056  40.465   1.378
16161W        W88476   3.229  41.505  14.022
16162W        W88477  25.032  41.212   1.462
16163W        W88478  37.119   2.726  12.466
16164W        W88479  14.101  19.197  12.775
16165W        W88480  35.934  29.286   3.432
16166W        W88481  32.517  16.185   2.351
16167W        W88482   2.862  34.825   2.637
16168W        W88483   6.438  42.030  10.765
16169W        W88484  38.044  43.056  14.123
16170W        W88485  35.529  44.345   2.895
16171W        W88486  32.531  20.692   3.515
16172W        W88487  18.825  27.004   4.563
16173W        W88488   1.690  44.388   0.970
16174W        W88489  32.619  44.845   0.860
16175W        W88490  31.401   0.388   2.035
16176W        W88491  38.565   5.730  14.960
16177W        W88492  21.167  19.123   1.525
16178W        W88493   5.935  18.157  14.123
16179W        W88494   7.560  10.261  14.872
16180W        W88495  13.077  34.406  14.556
16181W        W88496  30.527  31.089   3.907
16182W        W88497   8.872  41.977   4.413
16183W        W88498  21.762  33.351   3.245
16184W        W88499   4.888  28.496   2.058
16185W        W88500  41.730  32.171   2.298
16186W        W88501  31.488   1.242  13.278
16187W        W88502   2.982  25.976   3.730
16188W        W88503  17.604  18.153  11.131
16189W        W88504  21.499   9.732   1.169
16190W        W88505   7.992  43.328   3.814
16191W        W88506  44.751   8.044  11.899
16192W        W88507  37.608  28.508  13.453
16193W        W88508   4.329  14.938   1.827
16194W        W88509  15.046  23.609  11.656
16195W        W88510  25.569  39.471  10.600
16196W        W88511   7.981  42.010  12.515
16197W        W88512  18.325  30.944  13.175
16198W        W88513   8.123  41.521  12.715
16199W        W88514  28.128   7.915  13.353
16200W        W88515   5.362  14.730  12.003
16201W        W88516   2.189  37.756   0.925
16202W        W88517  22.494   3.425   4.562
16203W        W88518  31.810   0.964   5.038
16204W        W88519  33.951  25.216   3.839
16205W        W88520  11.793  37.457   4.279
16206W        W88521  43.914   2.975   1.868
16207W        W88522  24.132  21.729  11.589
16208W        W88523  14.258  19.731   1.883
16209W        W88524  14.319  22.241  10.714
16210W        W88525  24.936   1.866   3.879
16211W        W88526  41.775  25.015   2.322
16212W        W88527  23.266  18.657   4.174
16213W        W88528  28.270   2.191  13.385
16214W        W88529   0.887  33.350   3.309
16215W        W88530  25.642   8.720   2.268
16216W        W88531  34.045  17.811   3.206
16217W        W88532  15.696  22.118  12.868
16218W        W88533   9.237  10.641   0.471
16219W        W88534  39.300  18.016   1.779
16220W        W88535  36.547  41.319   4.573
16221W        W88536  14.111  24.068  11.062
16222W        W88537  16.854  44.417   4.261
16223W        W88538   4.009  28.047  11.552
16224W        W88539  32.440  11.892  13.092
16225W        W88540   0.342   3.042   0.923
16226W        W88541  35.233  40.494  13.014
16227W        W88542   5.216  22.274  14.443
16228W        W88543  44.981   2.159   4.874
16229W        W88544  14.623  25.357   4.887
16230W        W88545  30.927  16.673  13.865
16231W        W88546  38.015  42.574  12.874
16232W        W88547  44.746  36.521  10.782
16233W        W88548  44.447  39.677   0.710
16234W        W88549  36.601  24.117  13.292
16235W        W88550  30.939  25.034  11.762
16236W        W88551   1.488  41.632   3.411
16237W        W88552  27.790  38.823  11.360
16238W        W88553  33.549   3.967  12.775
16239W        W88554   1.352  10.130  12.437
16240W        W88555  40.310  20.354   2.308
16241W        W88556  28.534  43.011   1.335
16242W        W88557  27.105   3.665  13.427
16243W        W88558  37.434   0.381  12.827
16244W        W88559   4.004   8.748   4.152
16245W        W88560   1.953  22.633   3.511
16246W        W88561   2.329  16.033   3.903
16247W        W88562   1.308  31.549  12.047
16248W        W88563   1.329  20.166  11.674
16249W        W88564  10.951  37.109  12.421
16250W        W88565  20.544  42.519   3.144
16251W        W88566   9.219   1.877  14.488
16252W        W88567  18.732  44.522   0.841
16253W        W88568  16.175   2.918  11.084
16254W        W88569  10.208  35.522   3.315
16255W        W88570  34.600   5.620   3.682
16256W        W88571   0.968   7.301  11.888
16257W        W88572  26.474   4.895   2.799
16258W        W88573   2.175  20.609   1.321
16259W        W88574  39.490   1.186   4.355
16260W        W88575  20.492  11.624  11.134
16261W        W88576  34.904   5.445  10.969
16262W        W88577  16.840  19.798   4.995
16263W        W88578  16.093  19.194   3.126
16264W        W88579  11.101  19.732   4.371
16265W        W88580  42.184  16.753   3.711
16266W        W88581  41.362  35.966  13.379
16267W        W88582   9.858  39.913   3.374
16268W        W88583  32.596  28.975  13.844
16269W        W88584  25.895   9.440  12.006
16270W        W88585   3.968   4.446  13.892
16271W        W88586  40.892  24.925  13.410
16272W        W88587  28.770  27.753   0.401
16273W        W88588  24.207  23.153  11.513
16274W        W88589  28.402  18.051   3.313
16275W        W88590  39.230   9.310   0.497
16276W        W88591  16.825  27.866   5.034
16277W        W88592  43.517  21.784  11.523
16278W        W88593   1.264   0.968  13.376
16279W        W88594  30.387  31.751   2.664
16280W        W88595  42.551  22.095  10.791
16281W        W88596  22.073  14.062   2.666
16282W        W88597  38.019  16.780  14.010
16283W        W88598  29.526   3.959  14.447
16284W        W88599  16.757   1.259   3.761
16285W        W88600  24.810   6.531   2.967
16286W        W88601   1.483  34.153  11.194
16287W        W88602   5.326  23.031  10.447
16288W        W88603  36.977  40.819  12.326
16289W        W88604   5.461  35.647  13.851
16290W        W88605  20.251  43.625   0.754
16291W        W88606  27.097  10.315  12.571
16292W        W88607  27.128  32.792  12.997
16293W        W88608  31.023  27.088  13.931
16294W        W88609  17.739  22.593   3.846
16295W        W88610  28.532  34.016   0.259
16296W        W88611  33.901   3.771  14.324
16297W        W88612  14.822   8.241  14.429
16298W        W88613  13.974  28.191  13.658
16299W        W88614  42.861  23.204  14.262
16300W        W88615  25.402  26.479   3.231
16301W        W88616  44.222  23.123   0.324
16302W        W88617  26.928   0.394  13.101
16303W        W88618  34.948   1.220   1.220
16304W        W88619  44.367  18.570  12.618
16305W        W88620   4.716  16.500   3.307
16306W        W88621  15.673   9.308   3.385
16307W        W88622  38.605   7.183   0.141
16308W        W88623  19.793  35.990  12.027
16309W        W88624  42.804  20.587  11.573
16310W        W88625  40.872  10.124  14.925
16311W        W88626  19.211  37.271   0.777
16312W        W88627  20.999  24.667   4.263
16313W        W88628  30.315  19.354  11.099
16314W        W88629  24.684  13.386  11.212
16315W        W88630  27.102  40.879   1.962
16316W        W88631  41.139  39.448  14.453
16317W        W88632  33.863  43.369   1.345
16318W        W88633  40.989  43.394   4.556
16319W        W88634  16.105  35.895   3.709
16320W        W88635   2.393  13.867  14.012
16321W        W88636  21.625  22.010  12.329
16322W        W88637  13.826  29.491  13.473
16323W        W88638  35.177   9.674   2.639
16324W        W88639  22.247  24.972   4.687
16325W        W88640  24.571  18.702   2.228
16326W        W88641   6.740  26.653  13.027
16327W        W88642   4.780  25.765  14.921
16328W        W88643  26.609  18.395  10.809
16329W        W88644  35.241   0.356  11.122
16330W        W88645   9.256   6.617  10.859
16331W        W88646   0.898  31.898  12.090
16332W        W88647  42.532  28.943   1.159
16333W        W88648   3.004  44.095  10.065
16334W        W88649  43.511  35.376  14.309
16335W        W88650  19.594   5.634  12.836
16336W        W88651  34.013  20.542  14.221
16337W        W88652   9.619  34.987   4.446
16338W        W88653  42.275   1.966   3.634
16339W        W88654  28.011   0.874   4.128
16340W        W88655  13.260  20.106   1.446
16341W        W88656  25.657  29.737  11.266
16342W        W88657  21.244   8.879   1.394
16343W        W88658  13.714  40.979   0.734
16344W        W88659  11.838  41.627  13.027
16345W        W88660  16.511  33.646  14.831
16346W        W88661  42.217  16.200   4.280
16347W        W88662  14.858  22.553   2.111
16348W        W88663  25.899   4.775  10.180
16349W        W88664   4.354   1.167  13.095
16350W        W88665  31.441   2.211   0.967
16351W        W88666  42.102  13.168  12.002
16352W        W88667  42.259  37.965   3.904
16353W        W88668   3.171  44.848   1.759
16354W        W88669  22.255  19.150  10.658
16355W        W88670  34.152  28.568   0.252
16356W        W88671  18.076  19.605   3.691
16357W        W88672  43.477  37.055  11.144
16358W        W88673  31.591  37.043   4.875
16359W        W88674  21.479  21.940   1.953
16360W        W88675  26.150  15.648  12.091
16361W        W88676   4.885  22.008   0.299
16362W        W88677  44.186  19.352  10.493
16363W        W88678   5.413  31.078   3.632
16364W        W88679  23.878   2.928  13.386
16365W        W88680  26.739   6.738   0.064
16366W        W88681  29.297  20.128  11.960
16367W        W88682  44.400  40.251   4.126
16368W        W88683  12.742  37.932   3.570
16369W        W88684   2.836  37.362   3.126
16370W        W88685   0.035   8.952  11.938
16371W        W88686  29.169  21.103  12.861
16372W        W88687  27.984  26.966  10.637
16373W        W88688  42.756  40.484   4.760
16374W        W88689   9.660  27.915  11.896
16375W        W88690  23.659  31.125  14.867
16376W        W88691  11.071  30.604   1.493
16377W        W88692  34.472  41.307  11.185
16378W        W88693  33.101  16.770   2.652
16379W        W88694  33.992   0.768   4.279
16380W        W88695  41.313   9.736   3.855
16381W        W88696  39.385   5.457   1.823
16382W        W88697  11.776   8.328   4.870
16383W        W88698   7.774  22.124  12.505
16384W        W88699   7.625  39.503   1.970
16385W        W88700  34.750  17.312  12.132
16386W        W88701  27.024  14.814  13.555
16387W        W88702  21.931  26.036   2.925
16388W        W88703  35.092  17.843   0.345
16389W        W88704  38.011   1.435  14.132
16390W        W88705   4.362  35.431   3.764
16391W        W88706  20.648   5.929  14.075
16392W        W88707  41.917  16.369  13.617
16393W        W88708  41.254  29.978   3.251
16394W        W88709  14.037  13.229   4.052
16395W        W88710  18.805  26.183   1.125
16396W        W88711  29.055  20.134  11.489
16397W        W88712  10.882  44.869  12.887
16398W        W88713  28.606  35.491  12.164
16399W        W88714  19.506  30.183  14.265
16400W        W88715   7.926  15.068  13.509
16401W        W88716  12.162   9.182  14.479
16402W        W88717  22.977  21.397  12.626
16403W        W88718  43.749  18.444   1.211
16404W        W88719   6.637  42.515   4.711
16405W        W88720  15.772  32.381   0.432
16406W        W88721  29.393  18.116  14.971
16407W        W88722  30.444  23.529  14.761
16408W        W88723   5.038  40.959  12.948
16409W        W88724  32.402   8.834   3.576
16410W        W88725  24.167  41.733  13.905
16411W        W88726  30.242  34.097  13.874
16412W        W88727  39.556  17.745   2.166
16413W        W88728  13.556   1.327  14.492
16414W        W88729   9.313  29.773   3.864
16415W        W88730  23.809  26.537   1.157
16416W        W88731  19.583  13.236   1.213
16417W        W88732  36.002  30.626  13.463
16418W        W88733  37.911   0.009   2.297
16419W        W88734   9.598  18.542   0.175
16420W        W88735   6.349   5.287   3.728
16421W        W88736  41.013   9.374   2.661
16422W        W88737  27.620  38.458  12.022
16423W        W88738  18.717   3.783   0.338
16424W        W88739  17.721  41.709   4.353
16425W        W88740  42.074  34.775  13.467
16426W        W88741  19.295  35.990   4.828
16427W        W88742  43.769  11.699   2.767
16428W        W88743   0.119  25.617  14.335
16429W        W88744  17.663  37.133   3.592
16430W        W88745   4.772   7.682  14.073
16431W        W88746  38.602   3.736   2.998
16432W        W88747  40.360  28.365  12.801
16433W        W88748  18.821  10.227   1.326
16434W        W88749  23.735  26.567   1.697
16435W        W88750  28.396   2.266   1.358
16436W        W88751  36.323   7.818  14.278
16437W        W88752   6.341  42.288  14.523
16438W        W88753  28.487  41.251   1.943
16439W        W88754  11.881  39.952  13.410
16440W        W88755  31.582   0.390  12.882
16441W        W88756  38.983  18.052   0.612
16442W        W88757   4.436  19.186  12.790
16443W        W88758  27.912  14.568  12.484
16444W        W88759  33.358  42.686  12.572
16445W        W88760   3.669  14.647  11.589
16446W        W88761  43.268   4.050   0.736
16447W        W88762  37.660  23.503  13.294
16448W        W88763   9.444   4.242  12.951
16449W        W88764  35.898  21.505  11.142
16450W        W88765  41.879  16.765  13.265
16451W        W88766   3.270  44.532   2.396
16452W        W88767  23.396   5.052  12.052
16453W        W88768  39.181  14.894  11.910
16454W        W88769  28.662   5.302  14.378
16455W        W88770  25.556  12.714   0.396
16456W        W88771  23.108   1.358  12.072
16457W        W88772   0.424  20.615   2.994
16458W        W88773  40.970   5.722  11.529
16459W        W88774   4.319  33.418  13.728
16460W        W88775  13.020  42.897   0.067
16461W        W88776  18.179  19.522  11.177
16462W        W88777  28.493  15.533   0.754
16463W        W88778  16.652  11.417  11.650
16464W        W88779  24.311  19.598   0.472
16465W        W88780  32.628  42.407  12.046
16466W        W88781   6.747  34.414   0.474
16467W        W88782  31.574   8.357  12.821
16468W        W88783  21.596  18.589  13.518
16469W        W88784  30.657   5.781  13.594
16470W        W88785  24.187   0.272   3.699
16471W        W88786  32.054   9.324  13.340
16472W        W88787  23.197   6.711   3.293
16473W        W88788  44.388  24.396  10.667
16474W        W88789  30.281  12.977   0.957
16475W        W88790  19.027  19.558   0.310
16476W        W88791  44.925  40.538  12.142
16477W        W88792  26.537  10.799  11.070
16478W        W88793  37.016  32.552   4.097
16479W        W88794  17.087  37.805   2.374
16480W        W88795  43.597   8.647   2.573
16481W        W88796  19.617  20.181   3.167
16482W        W88797   2.441  30.639   3.527
16483W        W88798  23.714  22.035   0.773
16484W        W88799  21.222   0.776   3.660
16485W        W88800  17.800  15.364  11.202
16486W        W88801  41.068  37.585   1.659
16487W        W88802   8.463  37.090   3.731
16488W        W88803  11.770  19.037  13.010
16489W        W88804   8.330  18.243   3.707
16490W        W88805   1.357  15.956  13.342
16491W        W88806  11.311  23.783  13.942
16492W        W88807  16.022  20.139   2.760
16493W        W88808  26.015  39.496  13.808
16494W        W88809  12.729  17.750   0.172
16495W        W88810  21.266   5.341   3.152
16496W        W88811  23.902  29.734  12.907
16497W        W88812  42.368   0.497   4.835
16498W        W88813  29.529   5.265   1.325
16499W        W88814  22.065  43.885   1.951
16500W        W88815  39.429  16.704  14.078
16501W        W88816  32.051   8.063   3.332
16502W        W88817  38.396  10.647   0.297
16503W        W88818  11.956  35.360  11.623
16504W        W88819  17.720  38.582  13.448
16505W        W88820  42.815  40.060  10.705
16506W        W88821  34.567  44.174  11.877
16507W        W88822  28.602  40.546   1.161
16508W        W88823  40.989  34.932  12.037
16509W        W88824   3.778  31.930  14.991
16510W        W88825   0.852  22.479  12.845
16511W        W88826  25.465  29.592   1.275
16512W        W88827  24.237  26.597   1.826
16513W        W88828   6.189  24.660  14.895
16514W        W88829  40.014  14.263   3.775
16515W        W88830  17.074  20.643   2.898
16516W        W88831  16.707   6.511   1.155
16517W        W88832  21.670  37.811   1.446
16518W        W88833  26.491  28.319   4.475
16519W        W88834  24.204   1.865  14.338
16520W        W88835  22.225  24.135   2.275
16521W        W88836  13.751  28.079  12.063
16522W        W88837  29.226  12.267   1.901
16523W        W88838  32.638   9.614  14.403
16524W        W88839  44.876  10.213  11.250
16525W        W88840  41.877  21.502   1.764
16526W        W88841  30.576  33.411   3.767
16527W        W88842  12.624  44.069  11.056
16528W        W88843  36.585  29.673  12.137
16529W        W88844  19.498  29.920   2.272
16530W        W88845  42.261   0.907   1.459
16531W        W88846  25.430  32.083   2.386
16532W        W88847  40.263  24.135   2.811
16533W        W88848  35.887  25.915  11.961
16534W        W88849  29.065   4.281   3.787
16535W        W88850  27.589  30.171   0.412
16536W        W88851  42.726  43.937   0.901
16537W        W88852  24.953  35.310   1.434
16538W        W88853  37.591  23.983   9.874
16539W        W88854  20.830   0.154   4.219
16540W        W88855  42.475  38.362   4.140
16541W        W88856  43.199  12.782  13.978
16542W        W88857  34.033  12.543  13.596
16543W        W88858   5.150  41.089  13.437
16544W        W88859  33.491   5.331  11.629
16545W        W88860  15.953  18.279   0.400
16546W        W88861  43.506  44.000  13.845
16547W        W88862  15.292   0.801  13.462
16548W        W88863  38.615  16.875  13.020
16549W        W88864  23.433  21.451   4.090
16550W        W88865   5.852  38.221  12.978
16551W        W88866  28.828  17.359  11.213
16552W        W88867  32.602  14.291   2.955
16553W        W88868  42.814  36.432   0.971
16554W        W88869  42.740  31.001  12.821
16555W        W88870  12.156  12.304   4.148
16556W        W88871  29.324  20.541  12.266
16557W        W88872   1.236  28.211  14.998
16558W        W88873  10.271  22.297  13.992
16559W        W88874  43.175   1.827   0.740
16560W        W88875  44.409  44.735  12.388
16561W        W88876  33.694  37.493  11.213
16562W        W88877  16.189   4.779  10.802
16563W        W88878  27.467   8.665  14.325
16564W        W88879  13.801  19.558   3.793
16565W        W88880   2.831  32.955   0.580
16566W        W88881   7.863  25.104   4.609
16567W        W88882   6.945  40.527   1.815
16568W        W88883   3.216   8.189   0.414
16569W        W88884   1.249  43.548   1.787
16570W        W88885  13.811  14.637   2.950
16571W        W88886   0.955  19.155  10.693
16572W        W88887  22.597  31.980   3.003
16573W        W88888   5.710  24.471   1.692
16574W        W88889  14.351  44.879  13.837
16575W        W88890  18.203   7.736  10.165
16576W        W88891   6.213  40.828  11.950
16577W        W88892   3.726  23.262  11.967
16578W        W88893  25.529   7.168  10.888
16579W        W88894  27.079  21.079  11.762
16580W        W88895  16.327   3.326   4.137
16581W        W88896  21.515   6.654  11.558
16582W        W88897  12.077  34.808  11.000
16583W        W88898  33.619  17.090  14.392
16584W        W88899  13.719  29.994  13.546
16585W        W88900   8.799  36.000   3.158
16586W        W88901  44.997   3.905  12.883
16587W        W88902  23.122  38.815   0.280
16588W        W88903  43.963  34.522   0.302
16589W        W88904   0.214  44.842  12.091
16590W        W88905  36.686   1.949   1.218
16591W        W88906  28.574  36.026  10.686
16592W        W88907  32.748  18.307  13.943
16593W        W88908  39.440  28.741  10.563
16594W        W88909  42.015  36.467   3.923
16595W        W88910   9.318  14.013  13.829
16596W        W88911  28.558  40.977   1.480
16597W        W88912  13.822  37.611   4.965
16598W        W88913   2.783  13.311   1.177
16599W        W88914  35.159  14.241  14.461
16600W        W88915  10.259  31.465  12.008
16601W        W88916  37.823  43.388   3.181
16602W        W88917  13.723  23.522  12.959
16603W        W88918   0.003  18.742  13.356
16604W        W88919  32.553   8.933   0.057
16605W        W88920  17.066  20.646   3.814
16606W        W88921  15.266  11.175   0.549
16607W        W88922  17.680  21.461  11.533
16608W        W88923  44.578  35.140   0.331
16609W        W88924  12.790  23.619   4.644
16610W        W88925   2.820   5.150   2.715
16611W        W88926  26.247  27.491  12.104
16612W        W88927  28.942  29.408  11.409
16613W        W88928   4.963  16.108   3.526
16614W        W88929   8.725  31.661   2.575
16615W        W88930  30.188  38.831   1.380
16616W        W88931   2.874  14.702  12.437
16617W        W88932  22.474  44.433  12.531
16618W        W88933   0.945  35.831  12.429
16619W        W88934  16.695  19.228  11.498
16620W        W88935  20.423  33.007   2.694
16621W        W88936   7.443   1.450   4.654
16622W        W88937  20.944  35.924   0.422
16623W        W88938  38.764  14.782   4.895
16624W        W88939  33.994   3.732  13.801
16625W        W88940   5.745   8.180   3.306
16626W        W88941   9.642  39.305   1.860
16627W        W88942  41.414  15.240   2.368
16628W        W88943  32.089  14.791  11.598
16629W        W88944   0.771  35.536  12.932
16630W        W88945   5.815  22.673   1.235
16631W        W88946   5.235  24.739  10.690
16632W        W88947  34.475  33.480   3.402
16633W        W88948  40.927  22.300   0.192
16634W        W88949   2.978  19.078  10.718
16635W        W88950  39.441  44.273   4.400
16636W        W88951  34.463  27.602  12.556
16637W        W88952  16.185  39.315   3.061
16638W        W88953  14.299  20.607  13.008
16639W        W88954  12.755   1.264  11.378
16640W        W88955  20.419  41.437  14.405
16641W        W88956  32.392  14.573  12.020
16642W        W88957  22.827  21.033  12.011
16643W        W88958   3.329  24.377  12.911
16644W        W88959  14.862  21.799   0.544
16645W        W88960  43.249   1.954  12.956
16646W        W88961  18.235  30.573   3.333
16647W        W88962  43.287  10.502   0.248
16648W        W88963  37.951  32.994   4.059
16649W        W88964   0.335  39.556   1.784
16650W        W88965  22.099   6.287  13.836
16651W        W88966  14.383   9.051   4.561
16652W        W88967  41.907  43.114   4.167
16653W        W88968  40.590  22.665   1.468
16654W        W88969  17.216  11.708  10.684
16655W        W88970  34.390  37.410  11.517
16656W        W88971  30.473  20.794   1.777
16657W        W88972   2.320   2.882  13.099
16658W        W88973  36.978   3.168   0.992
16659W        W88974  22.060  38.452   3.502
16660W        W88975  39.450  23.548  13.460
16661W        W88976  38.200   3.443  13.393
16662W        W88977  27.169   5.726   3.693
16663W        W88978  17.269  39.523   3.667
16664W        W88979  34.020   8.956  12.952
16665W        W88980  13.632  20.091  14.741
16666W        W88981  41.352  20.781  12.626
16667W        W88982   2.852  27.309   3.350
16668W        W88983  23.330  29.461  14.402
16669W        W88984   8.137  25.536   4.676
16670W        W88985  44.044  40.594   2.754
16671W        W88986   0.836  40.824   0.886
16672W        W88987   0.375  19.225   0.871
16673W        W88988  31.088  36.009   1.072
16674W        W88989  25.012  28.861   3.234
16675W        W88990   3.879  38.348   1.498
16676W        W88991  32.012  33.214   0.771
16677W        W88992  37.321  18.418   3.202
16678W        W88993  27.800   1.937   2.701
16679W        W88994   9.790  15.249  13.819
16680W        W88995   9.454  41.772   1.705
16681W        W88996  18.143  43.016   4.089
16682W        W88997  30.203  28.935   1.811
16683W        W88998  39.838  35.877   3.103
16684W        W88999   2.200  22.617   1.834
16685W        W89000  37.467  31.653   3.188
16686W        W89001  29.900  13.812   4.133
16687W        W89002  40.059   7.728  14.717
16688W        W89003  17.395   6.783   1.841
16689W        W89004  11.965  41.725   0.188
16690W        W89005  18.326  25.167  11.000
16691W        W89006  29.250  11.653  13.985
16692W        W89007  44.728   6.402  14.959
16693W        W89008  15.760  20.016  14.875
16694W        W89009  38.343  11.910   4.566
16695W        W89010  37.511  18.338  14.381
16696W        W89011   0.104  17.082   1.481
16697W        W89012  43.573  42.677  10.197
16698W        W89013  30.707  38.280   2.878
16699W        W89014  25.732  19.076  11.232
16700W        W89015  34.675  26.670  12.986
16701W        W89016  18.349  27.637  11.098
16702W        W89017  38.568  38.993   2.146
16703W        W89018  31.818  20.525   0.778
16704W        W89019   6.596  39.208  14.555
16705W        W89020  28.127   6.444  12.486
16706W        W89021  40.744  22.723  11.585
16707W        W89022   6.930  37.977  10.596
16708W        W89023  12.997  26.198   4.077
16709W        W89024  19.268  29.863   1.017
16710W        W89025  40.943  43.480  11.601
16711W        W89026  14.261   6.156   2.300
16712W        W89027  37.970  39.124  12.900
16713W        W89028   4.669  27.657  10.127
16714W        W89029  37.047  42.827   1.336
16715W        W89030  12.326  21.498  11.117
16716W        W89031   1.411  19.976  14.415
16717W        W89032  27.118  30.035  13.604
16718W        W89033  32.433  35.529   0.998
16719W        W89034   1.912   5.782   4.028
16720W        W89035  22.655  14.566  11.665
16721W        W89036  35.398  35.354  13.469
16722W        W89037  27.241  28.693   4.301
16723W        W89038  17.243   0.969  11.673
16724W        W89039  36.845  31.249   1.875
16725W        W89040  42.504  14.083  13.875
16726W        W89041  33.052  12.279  13.365
16727W        W89042  35.384   8.157   4.531
16728W        W89043   4.010   8.511   9.949
16729W        W89044   8.810   9.880   1.250
16730W        W89045   2.887  23.198   2.358
16731W        W89046  22.057   9.237   3.644
16732W        W89047  25.586  28.289  13.033
16733W        W89048  23.102   4.186   0.470
16734W        W89049   9.838   4.113   4.074
16735W        W89050  42.684  25.484   4.984
16736W        W89051   0.825  13.362   2.326
16737W        W89052  41.213   5.211   0.851
16738W        W89053  11.279  43.768   2.006
16739W        W89054  24.920  12.599  11.888
16740W        W89055  42.676   4.044   3.392
16741W        W89056  14.294  31.148   1.699
16742W        W89057  26.225   0.897  11.607
16743W        W89058  18.553  11.114  11.432
16744W        W89059  29.020  26.871  14.421
16745W        W89060  43.341  10.364  12.117
16746W        W89061  36.837  40.393   2.100
16747W        W89062   3.013  30.268   2.739
16748W        W89063  41.963   8.586  13.258
16749W        W89064  25.213  28.613   2.763
16750W        W89065  22.492   0.973  12.663
16751W        W89066  34.338   0.487  11.571
16752W        W89067  12.547  41.938   1.071
16753W        W89068  22.195  36.833   2.260
16754W        W89069  29.512   9.920   4.323
16755W        W89070   2.753  14.181  14.925
16756W        W89071  18.715  11.440   5.433
16757W        W89072  43.804   1.875   2.304
16758W        W89073  39.582  31.999   0.663
16759W        W89074  44.452  20.271  10.784
16760W        W89075  40.039  18.788   1.341
16761W        W89076  19.476   5.681  10.799
16762W        W89077  23.127  13.894   3.280
16763W        W89078  38.113   0.769  12.591
16764W        W89079  31.071   6.190  10.497
16765W        W89080  16.297   1.239   3.070
16766W        W89081  21.550   5.501  12.006
16767W        W89082  44.164   5.510   0.654
16768W        W89083  40.642  21.096  14.702
16769W        W89084  41.325  10.361   1.831
16770W        W89085  34.803  25.526   2.839
16771W        W89086  40.871  10.694   1.866
16772W        W89087  43.008  44.729   5.198
16773W        W89088   3.741  11.626  12.946
16774W        W89089   5.231  17.389   3.238
16775W        W89090  41.122   6.732   3.194
16776W        W89091  35.823  27.517   0.255
16777W        W89092  37.108  18.665  11.829
16778W        W89093  21.481  17.591   0.393
16779W        W89094   4.239  40.757   2.414
16780W        W89095  23.476  43.557  11.409
16781W        W89096  23.065  13.924  13.595
16782W        W89097  30.642  40.524  11.169
16783W        W89098  17.981  40.375   4.013
16784W        W89099  38.937  23.464   3.809
16785W        W89100   1.787  10.714  14.367
16786W        W89101  42.809  18.854   4.688
16787W        W89102  23.124  18.136   4.581
16788W        W89103  29.573  13.586  10.395
16789W        W89104  14.822  36.501   1.800
16790W        W89105  42.609  42.301  11.648
16791W        W89106  30.607  25.006   2.333
16792W        W89107  34.399  39.887   2.862
16793W        W89108   1.020  12.343   3.643
16794W        W89109  12.402  43.508  13.795
16795W        W89110  33.327   9.912  12.686
16796W        W89111   2.208  18.163  10.657
16797W        W89112  33.534  33.903   0.488
16798W        W89113  11.298   4.904  13.507
16799W        W89114  42.585  34.733   2.569
16800W        W89115  36.828  20.473  11.868
16801W        W89116  34.118  16.554  14.452
16802W        W89117  23.915  24.040  13.817
16803W        W89118  32.319  17.333  14.156
16804W        W89119  10.230  40.553   0.465
16805W        W89120  24.608  27.911  12.512
16806W        W89121  17.844  28.621  11.045
16807W        W89122  44.836   7.213   2.973
16808W        W89123  38.448  23.204   0.462
16809W        W89124  16.299  18.861   4.073
16810W        W89125  11.829  30.483   4.846
16811W        W89126   2.310   4.828   4.282
16812W        W89127   2.351  25.776  12.030
16813W        W89128  37.517  17.061  11.616
16814W        W89129   0.726  22.607  14.321
16815W        W89130   0.926  13.757   3.655
16816W        W89131  21.104  18.513   4.542
16817W        W89132  12.192   2.772  12.472
16818W        W89133  35.547  35.010  13.020
16819W        W89134   2.960  30.444  10.918
16820W        W89135  19.313   4.379   2.768
16821W        W89136  24.723  44.888   1.747
16822W        W89137   3.541  43.904   0.219
16823W        W89138  42.916  19.657  11.919
16824W        W89139  42.106  20.458  11.099
16825W        W89140  10.222  23.577  10.595
16826W        W89141  24.743   4.999   3.324
16827W        W89142  38.553  15.598   3.337
16828W        W89143  42.677  17.963  11.164
16829W        W89144  36.154  19.418   3.891
16830W        W89145  22.008  27.380  10.768
16831W        W89146  35.083   3.632   4.087
16832W        W89147  32.563  30.393   1.779
16833W        W89148  40.844  20.743  12.609
16834W        W89149  32.386   4.788  12.533
16835W        W89150  17.047   2.817   0.631
16836W        W89151  33.406  35.699   4.263
16837W        W89152  40.565   9.237  10.553
16838W        W89153  43.469  11.646   3.197
16839W        W89154  44.809  37.065  12.332
16840W        W89155  26.203  18.610   3.385
16841W        W89156  27.908  22.243   4.613
16842W        W89157  27.319  14.904  12.937
16843W        W89158  40.740  21.204   3.475
16844W        W89159  19.227  22.067  14.978
16845W        W89160  40.973  23.687  11.624
16846W        W89161  34.302  20.234   2.379
16847W        W89162  14.174  36.472   1.382
16848W        W89163  35.634  28.209   1.448
16849W        W89164  12.347  40.078  14.508
16850W        W89165   1.772  15.768  14.035
16851W        W89166   0.242  34.824  13.457
16852W        W89167  30.411  15.422   4.590
16853W        W89168  15.354  20.473  12.326
16854W        W89169  23.099  18.683   1.793
16855W        W89170  12.123  14.114   1.701
16856W        W89171   9.364  24.513   0.280
16857W        W89172  11.629  16.793  10.104
16858W        W89173  29.706   9.557  13.779
16859W        W89174  39.364  21.290  13.641
16860W        W89175  44.156  24.025   0.309
16861W        W89176  33.650  28.435   1.483
16862W        W89177  44.012  28.439   0.007
16863W        W89178   2.917  18.075  14.859
16864W        W89179   5.173  23.095   0.047
16865W        W89180  31.135  31.812  11.880
16866W        W89181  41.044  21.295  14.966
16867W        W89182  36.799   6.118   1.948
16868W        W89183  17.028   6.293  12.006
16869W        W89184   7.164  12.703  13.178
16870W        W89185  31.924  15.140  13.108
16871W        W89186  28.054  34.555   1.299
16872W        W89187  28.048  34.050   1.369
16873W        W89188  23.046  40.751   3.734
16874W        W89189  26.184  12.698  12.007
16875W        W89190  39.760  41.374   1.632
16876W        W89191   0.256  17.393   1.889
16877W        W89192  30.128  39.631  12.868
16878W        W89193   6.375   5.381  14.008
16879W        W89194   9.735  19.967   0.224
16880W        W89195  17.490  43.038   2.917
16881W        W89196   6.875  39.213  11.711
16882W        W89197  19.038  40.242   2.756
16883W        W89198  19.374  42.476  10.819
16884W        W89199  19.638  34.687   1.782
16885W        W89200  41.106  38.418  11.191
16886W        W89201  28.518   6.570   4.966
16887W        W89202  33.941   7.414  11.979
16888W        W89203  41.772  22.076   0.829
16889W        W89204  43.410  41.041   4.246
16890W        W89205  41.765   6.303   4.742
16891W        W89206  23.538  36.341  13.285
16892W        W89207  15.290   8.384   3.032
16893W        W89208  15.388   7.838   2.616
16894W        W89209   2.861  31.794  14.824
16895W        W89210   9.332  16.296   4.019
16896W        W89211  19.978  33.206   1.746
16897W        W89212   7.748  12.355   0.260
16898W        W89213  31.455  43.507   1.660
16899W        W89214  33.119  28.073  13.753
16900W        W89215   0.256  27.009  12.003
16901W        W89216  31.543   9.691  13.997
16902W        W89217  22.271  10.186   1.142
16903W        W89218   7.710  24.275  12.483
16904W        W89219   9.941  38.527   2.218
16905W        W89220  29.921  20.996   4.229
16906W        W89221  39.470  34.680   3.362
16907W        W89222   7.441  30.608  11.603
16908W        W89223  27.952  38.959   2.334
16909W        W89224  36.592  27.892  12.319
16910W        W89225  43.453  39.853  14.248
16911W        W89226  27.298  30.144   3.050
16912W        W89227  16.154  20.875  11.512
16913W        W89228   1.562  15.547  14.442
16914W        W89229  32.071   4.875  10.379
16915W        W89230  29.492  29.647   1.775
16916W        W89231  22.281  35.009   3.197
16917W        W89232  33.998  22.206   4.725
16918W        W89233   6.244  36.070   1.212
16919W        W89234  26.149  28.853  11.223
16920W        W89235   1.267  31.949  11.720
16921W        W89236  38.272  20.340  12.077
16922W        W89237  10.872  41.426   3.624
16923W        W89238  27.595  25.897   2.210
16924W        W89239   6.947  16.528  14.959
16925W        W89240   1.856  25.810  14.798
16926W        W89241  27.087  18.065   4.361
16927W        W89242  10.592   0.406  13.593
16928W        W89243  36.961  33.617   4.079
16929W        W89244  43.432  43.027   1.494
16930W        W89245  13.068  22.035  13.832
16931W        W89246  34.946  29.632   0.345
16932W        W89247  19.719  17.653  13.530
16933W        W89248   2.472   1.559   1.859
16934W        W89249  31.390  42.258   4.368
16935W        W89250  32.928   5.291  11.031
16936W        W89251  12.419  31.066   1.913
16937W        W89252  38.375  44.376  11.983
16938W        W89253  36.152  32.955  13.916
16939W        W89254  27.937  12.328  13.295
16940W        W89255  29.064  19.229   0.903
16941W        W89256  28.531  31.157  10.689
16942W        W89257  21.766  30.162  13.388
16943W        W89258  15.805  14.150  13.441
16944W        W89259  12.107  27.015  12.565
16945W        W89260  42.404  12.799  14.413
16946W        W89261  19.186  42.756  12.573
16947W        W89262  43.903  39.845   0.970
16948W        W89263  44.467  34.986   4.557
16949W        W89264  44.270  44.508   2.698
16950W        W89265  36.547  29.672   1.933
16951W        W89266  27.612  40.030  12.979
16952W        W89267  14.722  36.974  12.527
16953W        W89268  40.093  24.029   1.274
16954W        W89269  40.530  29.363   3.420
16955W        W89270   9.405   4.874   2.392
16956W        W89271  11.468  31.534   1.970
16957W        W89272  21.977  13.852   4.073
16958W        W89273  30.876  30.026  11.489
16959W        W89274  24.041  23.932   3.807
16960W        W89275  18.058   0.866   3.159
16961W        W89276  19.069   6.557   1.216
16962W        W89277  42.271  18.710  10.766
16963W        W89278   0.946  26.730  12.206
16964W        W89279  18.631  30.716  13.868
16965W        W89280  26.489  40.482  12.336
16966W        W89281  22.336  36.827   2.760
16967W        W89282  11.182  22.234   3.749
16968W        W89283  36.922  40.008  12.878
16969W        W89284  26.725   7.196  11.846
16970W        W89285  14.391  36.355  14.847
16971W        W89286  42.738   1.419  12.321
16972W        W89287  31.664  19.686   3.670
16973W        W89288  23.310  41.613   1.807
16974W        W89289  35.401  40.917   0.109
16975W        W89290  38.489  36.016   2.617
16976W        W89291  18.273  41.566   3.252
16977W        W89292   3.378   9.399  14.516
16978W        W89293   0.040   7.836  14.772
16979W        W89294  43.699   7.314   2.918
16980W        W89295  23.012  20.724   2.722
16981W        W89296  10.461  41.756   3.669
16982W        W89297  29.574  15.593   0.249
16983W        W89298  36.765  15.622   4.095
16984W        W89299  42.922   5.726  14.278
16985W        W89300  32.498  44.087  11.101
16986W        W89301   0.648  21.181  13.336
16987W        W89302  12.378  34.842   0.326
16988W        W89303   7.877   1.466   3.731
16989W        W89304  17.864  43.978  12.131
16990W        W89305   4.352   5.327  11.559
16991W        W89306  24.002  31.049   2.904
16992W        W89307  23.064  20.978   2.240
16993W        W89308   5.295  12.210  12.720
16994W        W89309  24.141  23.662   1.262
16995W        W89310  32.677  38.761  10.833
16996W        W89311  26.038   0.261   4.423
16997W        W89312  33.882  29.996  10.286
16998W        W89313  19.116  39.629   3.269
16999W        W89314  39.543  35.878  11.937
17000W        W89315  38.447  42.350  14.154
17001W        W89316  33.691  38.023  11.458
17002W        W89317  16.278  40.318   3.230
17003W        W89318  36.636  21.223   0.107
17004W        W89319  12.856  29.641  14.860
17005W        W89320  27.445  22.771   3.823
17006W        W89321   3.493  44.897   2.711
17007W        W89322  37.481  23.520  10.723
17008W        W89323  42.951  21.151  11.965
17009W        W89324  21.199  18.099  11.663
17010W        W89325  19.173  37.329   2.249
17011W        W89326   4.934  35.960  13.550
17012W        W89327  18.351  18.947  14.377
17013W        W89328  17.590  32.040  14.592
17014W        W89329  18.093  20.729   2.619
17015W        W89330   0.523   5.303  14.951
17016W        W89331   2.781  18.614   4.071
17017W        W89332  17.273   7.763  10.266
17018W        W89333  24.871  13.875   3.720
17019W        W89334  28.186  35.452  13.314
17020W        W89335  33.601  32.094   3.397
17021W        W89336  11.624   0.325   4.740
17022W        W89337  10.629  41.384  14.247
17023W        W89338  15.040  22.062   1.921
17024W        W89339  13.018  10.172  12.035
17025W        W89340  36.988  13.789  12.314
17026W        W89341   8.566   4.109   1.904
17027W        W89342  10.390  34.622   0.030
17028W        W89343  18.662   0.894   3.397
17029W        W89344   0.579  19.224   1.951
17030W        W89345  13.073   2.123  14.917
17031W        W89346  31.492  36.498  13.530
17032W        W89347  26.219  32.271  11.991
17033W        W89348  13.376  42.081  13.393
17034W        W89349  18.004   5.319  10.973
17035W        W89350  27.182  25.787   1.149
17036W        W89351  21.718  29.610  12.492
17037W        W89352  38.319   1.821   2.351
17038W        W89353  17.546  30.014  14.870
17039W        W89354  42.880  10.369  12.883
17040W        W89355  40.307  34.100   2.353
17041W        W89356  23.564  22.128   9.846
17042W        W89357  40.163  19.796   4.746
17043W        W89358  44.398   5.473   1.133
17044W        W89359  33.297  37.472  14.654
17045W        W89360  43.561  10.324  14.263
17046W        W89361  13.266  27.050   1.135
17047W        W89362   7.771  37.680  11.124
17048W        W89363  29.347  44.150  14.961
17049W        W89364  41.415  24.993   4.266
17050W        W89365  27.924  30.875  14.071
17051W        W89366  17.777   4.441  10.643
17052W        W89367  14.373  19.741   4.102
17053W        W89368   0.048  36.601  13.907
17054W        W89369  26.497  32.001   3.596
17055W        W89370  22.230  13.813   4.523
17056W        W89371   2.413  37.533   4.133
17057W        W89372  27.670  41.895  10.732
17058W        W89373  40.550  21.628  12.082
17059W        W89374  18.605  32.343  12.646
17060W        W89375  26.558  10.586   2.594
17061W        W89376  13.841   4.862  10.687
17062W        W89377  33.817  30.623   1.290
17063W        W89378  35.851  24.488   1.124
17064W        W89379   0.050  28.557  14.358
17065W        W89380  16.840  20.705   2.074
17066W        W89381  36.967  40.323  14.529
17067W        W89382   0.863   4.237  14.110
17068W        W89383   8.636   3.292   2.734
17069W        W89384  10.848  20.014   5.066
17070W        W89385   5.898  11.801  12.913
17071W        W89386  36.010  34.073  11.936
17072W        W89387  31.138  18.104   4.160
17073W        W89388  23.695  29.612   0.428
17074W        W89389  23.785  10.782   2.321
17075W        W89390  44.849  24.145  10.677
17076W        W89391  35.935  22.529   3.542
17077W        W89392  43.072  28.738   3.313
17078W        W89393  23.296  44.869  14.878
17079W        W89394  19.000   1.526  14.745
17080W        W89395   0.807  42.402  14.985
17081W        W89396  18.698  42.011  12.520
17082W        W89397  13.746  26.910  14.920
17083W        W89398  17.289  38.387   5.105
17084W        W89399   2.434  34.870  11.481
17085W        W89400  13.809  26.919   3.308
17086W        W89401  10.297  37.875  10.726
17087W        W89402  14.334   8.672  10.554
17088W        W89403  13.679  42.607  13.884
17089W        W89404   4.834  10.358   4.237
17090W        W89405  44.866  31.706   3.239
17091W        W89406   9.189  31.371  12.123
17092W        W89407  28.566  24.521   3.802
17093W        W89408   3.501  18.355  11.905
17094W        W89409  30.062   0.569   2.774
17095W        W89410  27.418  11.689  14.369
17096W        W89411   3.904  12.410  10.265
17097W        W89412  13.210  36.787  11.046
17098W        W89413  20.240  28.138   0.244
17099W        W89414  43.719  11.577   4.501
17100W        W89415  43.497  32.251  12.475
17101W        W89416   7.310  14.270  11.175
17102W        W89417   2.302  34.575   4.655
17103W        W89418   6.462  10.868   2.720
17104W        W89419   0.772  22.159   0.320
17105W        W89420  29.162  14.163   3.056
17106W        W89421  32.297   7.687  14.731
17107W        W89422  35.412  16.200   4.265
17108W        W89423  38.925  35.365  10.963
17109W        W89424  11.418  35.120   4.482
17110W        W89425  18.499  37.566  11.087
17111W        W89426  34.627  27.883  12.982
17112W        W89427   5.312   2.383   1.247
17113W        W89428  38.280  22.243   2.808
17114W        W89429  26.451  32.104   0.879
17115W        W89430   5.755  21.844  14.872
17116W        W89431  21.201  21.350  10.256
17117W        W89432   2.509  15.189   2.070
17118W        W89433   3.683   8.714  10.988
17119W        W89434  27.102  41.178  13.122
17120W        W89435   9.346   5.372   2.291
17121W        W89436  11.650  44.897  11.140
17122W        W89437  31.954  20.026  12.421
17123W        W89438  11.957  38.041   2.817
17124W        W89439  32.701  38.569  12.004
17125W        W89440   9.737  35.837   3.621
17126W        W89441   4.722  41.982   2.015
17127W        W89442   9.201   9.665   4.052
17128W        W89443  40.872   9.649   4.122
17129W        W89444  11.072   4.427   0.862
17130W        W89445  13.169  32.159   4.573
17131W        W89446   2.921  21.783   0.016
17132W        W89447  21.710  31.838  14.779
17133W        W89448  22.609   0.205   4.999
17134W        W89449  28.697  36.354   2.903
17135W        W89450  35.653  17.729   1.172
17136W        W89451   8.252   8.208  14.421
17137W        W89452  36.823   6.656  13.970
17138W        W89453   3.645  27.830   1.904
17139W        W89454  44.761  10.679   4.648
17140W        W89455  30.661  41.765   4.643
17141W        W89456  10.097  15.265   1.925
17142W        W89457  22.213  23.863  12.949
17143W        W89458  10.403  17.162   2.866
17144W        W89459   0.915  18.768   1.302
17145W        W89460  16.077  18.509  12.487
17146W        W89461   5.365  32.049   3.530
17147W        W89462   4.223  44.388  12.496
17148W        W89463   6.435  17.385  14.588
17149W        W89464  21.163  20.594   2.708
17150W        W89465  13.705   0.650  13.999
17151W        W89466  16.312  44.935   2.716
17152W        W89467  34.912  35.400  12.541
17153W        W89468  24.268  13.357   2.749
17154W        W89469  40.780  29.205  11.077
17155W        W89470  21.134  44.818   4.962
17156W        W89471  43.899  15.078   4.705
17157W        W89472  28.540  35.643   1.401
17158W        W89473   9.174  42.816   4.170
17159W        W89474  32.576  13.935   0.470
17160W        W89475  21.639   7.724   0.868
17161W        W89476   8.143  10.237   3.209
17162W        W89477  11.919  28.765   0.844
17163W        W89478   4.789  14.246  14.913
17164W        W89479  15.049  30.234  14.314
17165W        W89480  44.682  18.462   3.195
17166W        W89481  42.204  21.793   4.400
17167W        W89482  43.890  12.329  14.862
17168W        W89483   9.221  16.790   4.159
17169W        W89484   5.394  10.423   0.210
17170W        W89485  27.270  42.436  11.246
17171W        W89486  33.454  17.225  11.646
17172W        W89487  42.271   6.740  14.696
17173W        W89488  30.932  12.203  13.577
17174W        W89489   2.203  30.047  10.784
17175W        W89490   2.889  10.152  14.285
17176W        W89491  33.072  33.456  14.728
17177W        W89492  26.553  44.762   2.829
17178W        W89493  27.868  33.140  11.508
17179W        W89494  29.691   8.382  10.726
17180W        W89495  24.337  41.282   2.157
17181W        W89496  32.100  25.916  12.960
17182W        W89497  36.282  19.547  14.287
17183W        W89498   2.292  35.621  10.477
17184W        W89499  23.300  19.040   0.903
17185W        W89500   8.146   9.293  11.544
17186W        W89501  34.520   8.185   3.259
17187W        W89502  39.602  37.112   2.729
17188W        W89503  25.842  32.685   5.422
17189W        W89504  24.263   5.315   4.432
17190W        W89505  32.047  22.171   0.745
17191W        W89506  25.469  33.982   4.821
17192W        W89507  10.269   4.756   3.763
17193W        W89508   7.289  33.319  10.340
17194W        W89509  26.519   6.740  11.963
17195W        W89510  40.043  23.083   0.896
17196W        W89511   5.194   5.725  14.884
17197W        W89512  38.574  40.092  10.886
17198W        W89513  35.457   4.030  11.297
17199W        W89514  33.133  11.979  12.058
17200W        W89515  44.859  15.267   3.294
17201W        W89516   1.233  21.223  13.316
17202W        W89517  10.875  36.376   1.432
17203W        W89518  18.994  33.368   1.721
17204W        W89519  19.235  19.412  12.464
17205W        W89520  43.434  34.984   0.362
17206W        W89521  10.927  17.973  14.722
17207W        W89522  31.435   2.702   4.259
17208W        W89523  30.124  29.525   4.138
17209W        W89524  29.093   0.461   3.598
17210W        W89525  43.556  37.663  11.807
17211W        W89526  16.554  26.753   3.742
17212W        W89527  25.636  37.660  14.378
17213W        W89528   7.615  25.073  12.973
17214W        W89529  44.838  39.907   1.032
17215W        W89530  12.613  21.082  11.137
17216W        W89531  26.857  39.776  13.457
17217W        W89532   6.399   5.849  14.329
17218W        W89533  21.023  15.831  13.308
17219W        W89534   6.821   6.904   3.881
17220W        W89535   0.577  28.025  11.632
17221W        W89536  14.598  39.937  13.364
17222W        W89537  23.563  19.249  11.042
17223W        W89538  32.293  44.948  11.636
17224W        W89539  40.265  24.089   0.713
17225W        W89540   5.369   2.060  13.101
17226W        W89541  31.541   9.188   4.644
17227W        W89542  22.381  12.830   2.960
17228W        W89543  43.407  20.824   2.316
17229W        W89544  19.519  11.695  13.542
17230W        W89545  39.810  29.480   2.934
17231W        W89546   6.820  24.443   0.790
17232W        W89547  21.007  30.029  14.425
17233W        W89548  20.005  30.196   3.668
17234W        W89549  38.869  11.929  12.605
17235W        W89550  40.999  22.701  14.861
17236W        W89551   7.390  26.023  12.562
17237W        W89552  10.844   2.379   1.141
17238W        W89553  40.397  20.059   4.157
17239W        W89554  25.039   8.943  13.897
17240W        W89555  25.310   8.186  11.804
17241W        W89556   6.133   4.438   0.283
17242W        W89557  33.412  42.097  13.871
17243W        W89558  28.236  26.500   4.877
17244W        W89559  23.697   1.526   2.832
17245W        W89560  30.885  39.774  13.982
17246W        W89561   4.341   2.429  11.030
17247W        W89562  22.995  25.303   2.731
17248W        W89563  22.964  16.895   3.724
17249W        W89564  12.347  40.924  13.635
17250W        W89565   8.719  18.570   3.658
17251W        W89566  24.110  25.469  14.315
17252W        W89567  42.904  18.335  11.503
17253W        W89568   4.689  42.050  10.312
17254W        W89569  26.954   2.352  13.018
17255W        W89570  23.579  27.609  14.386
17256W        W89571  31.391  14.203   4.637
17257W        W89572  33.438   0.125  14.433
17258W        W89573  29.527  44.034  14.148
17259W        W89574  24.863  44.553   3.741
17260W        W89575   6.152   2.169   2.556
17261W        W89576  31.326  22.515  10.755
17262W        W89577  14.483  13.565   3.355
17263W        W89578  17.129  25.420  11.848
17264W        W89579  32.880  28.231   3.654
17265W        W89580  42.335  13.210  11.070
17266W        W89581  33.086  25.083  11.748
17267W        W89582  33.692  28.052   2.718
17268W        W89583  33.455  39.337   4.588
17269W        W89584   4.335  42.967  14.732
17270W        W89585  41.886  35.443  12.870
17271W        W89586  18.241   4.869   4.599
17272W        W89587   4.940  24.115   1.095
17273W        W89588  21.424   0.026   0.281
17274W        W89589   0.777  42.052   2.395
17275W        W89590  20.773  31.774   2.298
17276W        W89591   4.511  44.189   3.149
17277W        W89592  17.157  20.470  12.876
17278W        W89593   3.375   9.618  11.141
17279W        W89594  15.510  44.519   2.771
17280W        W89595   2.319  14.667  12.448
17281W        W89596  36.988  10.122   3.041
17282W        W89597  33.487   0.441  14.835
17283W        W89598  42.293  21.728  13.954
17284W        W89599  44.724  22.647  14.571
17285W        W89600  41.417  43.818   2.441
17286W        W89601   6.910  39.000   1.850
17287W        W89602  19.049  14.243  10.371
17288W        W89603  12.641  40.358  14.856
17289W        W89604  26.567  34.724  14.584
17290W        W89605   3.485  42.918   4.278
17291W        W89606  21.917  34.202   0.812
17292W        W89607   8.653   3.655   3.651
17293W        W89608  17.347   4.295   4.163
17294W        W89609  37.891  12.232  11.125
17295W        W89610  39.845  31.389   2.332
17296W        W89611  38.939  31.556  12.888
17297W        W89612  34.573  41.970  13.239
17298W        W89613  30.431  21.109   2.519
17299W        W89614  26.894  37.528  11.692
17300W        W89615  14.847   4.730  14.409
17301W        W89616  11.711  28.733   4.172
17302W        W89617  24.034  42.544   4.185
17303W        W89618  12.759  11.180  13.436
17304W        W89619  11.503  37.533   1.887
17305W        W89620   1.069  37.778   2.451
17306W        W89621  17.262  11.811  11.694
17307W        W89622  35.892  25.397   2.259
17308W        W89623  31.638   2.760  10.695
17309W        W89624  19.164  33.550   1.194
17310W        W89625  31.375  16.799  14.074
17311W        W89626   0.510  11.308   4.630
17312W        W89627  35.725   2.409   2.264
17313W        W89628   1.932  37.295  11.851
17314W        W89629   6.713  39.545   1.863
17315W        W89630  31.692  24.007  14.973
17316W        W89631  14.402  10.405  11.553
17317W        W89632   5.820   1.292   2.407
17318W        W89633  25.530   9.635   1.445
17319W        W89634  41.783   0.351   3.187
17320W        W89635   2.430   8.160   1.886
17321W        W89636  32.479   2.430   1.873
17322W        W89637   2.284  35.570  12.451
17323W        W89638   3.459  23.385  10.689
17324W        W89639   9.400  38.361   3.795
17325W        W89640   9.896  10.380   0.210
17326W        W89641  23.017  20.274  14.028
17327W        W89642   8.960  37.572   9.943
17328W        W89643  17.302  25.017  13.863
17329W        W89644  32.931  23.279   2.322
17330W        W89645  34.739   4.202  13.899
17331W        W89646  14.802  39.854  14.858
17332W        W89647   2.265  13.294   3.299
17333W        W89648   9.180   2.375  14.760
17334W        W89649   2.511  12.118   3.807
17335W        W89650  32.358  30.526   5.414
17336W        W89651  37.365  29.551   0.956
17337W        W89652  12.708  15.527  12.178
17338W        W89653  34.692  23.745   2.694
17339W        W89654   3.455  23.999   4.211
17340W        W89655  27.415  37.516  11.664
17341W        W89656  32.402  35.300   3.728
17342W        W89657  22.586  44.532  10.754
17343W        W89658  14.745  21.305   1.263
17344W        W89659  16.504  42.884   0.167
17345W        W89660  14.322  37.384   0.908
17346W        W89661  23.609  19.546   0.916
17347W        W89662  17.230  37.069  11.194
17348W        W89663  34.582  20.130  12.061
17349W        W89664  33.984  42.800   0.312
17350W        W89665  18.839  10.807  14.370
17351W        W89666  32.784  26.457  12.781
17352W        W89667  42.842  20.121  13.530
17353W        W89668  21.999  35.242   4.154
17354W        W89669   3.051  10.028  11.115
17355W        W89670  32.088   2.191   3.583
17356W        W89671  13.326  40.998   1.554
17357W        W89672  29.127   8.971   1.692
17358W        W89673  35.554  44.862  12.607
17359W        W89674  10.119  30.936  11.136
17360W        W89675   1.680   9.208  12.055
17361W        W89676  18.313  18.631   1.412
17362W        W89677  39.448  41.097   3.808
17363W        W89678   5.158  41.456  13.041
17364W        W89679  43.127  26.942   4.494
17365W        W89680  28.927  31.693   5.009
17366W        W89681  36.102  18.928  14.933
17367W        W89682  12.280  11.699   1.228
17368W        W89683  39.143  20.706  14.306
17369W        W89684  23.599  23.193   4.593
17370W        W89685  41.680  38.153   4.973
17371W        W89686  41.943  33.004  12.712
17372W        W89687  41.362  43.634  12.894
17373W        W89688  35.338  39.985   3.791
17374W        W89689   5.993  11.096  12.346
17375W        W89690  14.177  24.166   2.170
17376W        W89691  40.541  37.713  12.998
17377W        W89692  28.240  17.798  12.392
17378W        W89693  42.254  28.633  11.269
17379W        W89694  21.985  26.681   2.398
17380W        W89695   6.640  25.108   0.910
17381W        W89696  35.529  22.818   1.796
17382W        W89697   9.889  25.499   1.525
17383W        W89698  14.391  10.822   2.298
17384W        W89699  12.225  13.625   4.903
17385W        W89700   2.942   5.676  12.513
17386W        W89701  40.274  30.624  12.568
17387W        W89702  15.539  15.245   0.367
17388W        W89703  15.988   3.699   2.612
17389W        W89704  36.513  13.273  11.263
17390W        W89705  39.341  22.991  14.546
17391W        W89706  40.799  41.326  14.876
17392W        W89707   4.852  21.943  14.623
17393W        W89708  15.504  31.450   4.161
17394W        W89709  19.127   6.875   3.687
17395W        W89710  37.570  25.910   4.679
17396W        W89711  24.736  18.593  13.427
17397W        W89712   6.211  36.481  10.726
17398W        W89713   7.800   0.272  12.055
17399W        W89714  42.748  12.899  12.511
17400W        W89715   4.742   1.876   1.683
17401W        W89716   7.394  32.160  14.316
17402W        W89717   0.200  31.585  14.406
17403W        W89718   7.184  30.837   3.338
17404W        W89719  33.160   8.301  11.864
17405W        W89720   7.064  14.256  12.478
17406W        W89721  32.551  24.490  10.717
17407W        W89722  11.263   4.502   1.787
17408W        W89723  18.195  34.871  12.997
17409W        W89724  24.537  26.045   0.426
17410W        W89725  34.584  38.624   3.325
17411W        W89726  33.895  22.776   2.351
17412W        W89727  18.236  33.827   2.404
17413W        W89728   7.790  40.917   2.265
17414W        W89729  12.719  34.752  13.449
17415W        W89730  29.168  10.175  10.949
17416W        W89731   0.290   9.327  12.210
17417W        W89732  21.193   3.126   4.146
17418W        W89733  14.623  16.970   0.624
17419W        W89734  26.268  12.376   2.264
17420W        W89735   3.740  44.857  13.070
17421W        W89736   4.441   0.789   4.107
17422W        W89737   6.146  23.667  10.490
17423W        W89738  22.052  19.894   4.643
17424W        W89739   4.831   4.004   4.557
17425W        W89740  43.841  42.105  14.457
17426W        W89741   7.301  24.736   1.873
17427W        W89742  23.693  20.758  11.135
17428W        W89743  14.043  43.645   4.760
17429W        W89744  11.111   8.096  11.340
17430W        W89745  15.543   2.646   1.855
17431W        W89746  22.447  19.211  14.009
17432W        W89747  32.059  27.670  12.672
17433W        W89748  36.447  25.000   5.119
17434W        W89749  18.512   4.004   3.307
17435W        W89750  21.771  31.167  12.496
17436W        W89751  38.969  16.168   0.701
17437W        W89752  30.405  37.354   4.651
17438W        W89753  37.120  27.250  13.931
17439W        W89754  28.098  13.600  13.005
17440W        W89755  22.452  38.072   4.148
17441W        W89756  43.652  15.271  10.343
17442W        W89757  26.118  18.268  11.361
17443W        W89758  32.691   8.213  12.031
17444W        W89759   3.413  24.913  13.861
17445W        W89760  31.211  14.753  13.001
17446W        W89761  22.648   0.498   4.486
17447W        W89762  11.199  19.663   4.867
17448W        W89763   9.654  21.828   4.383
17449W        W89764  13.313  38.139   2.094
17450W        W89765  40.338  42.061  13.848
17451W        W89766   0.352  16.306  14.105
17452W        W89767  12.892   0.815  13.734
17453W        W89768   8.139  37.287  11.067
17454W        W89769  30.097  14.667   3.276
17455W        W89770  30.070   6.830   1.211
17456W        W89771   7.669  33.013  10.584
17457W        W89772   2.289   2.668  11.408
17458W        W89773   8.284  18.581  10.620
17459W        W89774  24.199  18.513   0.261
17460W        W89775  23.173  36.382   2.478
17461W        W89776  32.220  38.590  13.417
17462W        W89777  41.189  19.726  11.624
17463W        W89778  43.389  40.394  14.386
17464W        W89779  24.359   6.377   3.146
17465W        W89780  33.306  11.234   0.824
17466W        W89781  40.084  18.774   0.804
17467W        W89782  22.111   5.398  11.386
17468W        W89783  25.473  19.994  13.698
17469W        W89784  34.998   9.140   3.291
17470W        W89785  34.611   5.181  14.312
17471W        W89786  28.894   6.165  14.946
17472W        W89787  33.590  44.706  11.060
17473W        W89788  15.033  35.965  14.947
17474W        W89789   7.850  27.043   0.771
17475W        W89790  12.642   8.754   4.457
17476W        W89791  29.910  16.779   0.788
17477W        W89792  25.201  19.027   2.757
17478W        W89793  14.646   6.739  10.670
17479W        W89794  24.418  43.472   2.697
17480W        W89795  28.037   0.894  13.467
17481W        W89796  42.897  22.634  12.053
17482W        W89797  37.917  39.831  14.487
17483W        W89798  15.285  12.685  10.475
17484W        W89799  21.315  31.396  12.459
17485W        W89800  19.738  21.086   2.615
17486W        W89801  10.359  23.225   4.120
17487W        W89802   8.911  39.685   1.424
17488W        W89803   5.810  24.449   0.783
17489W        W89804   3.260  30.977  12.899
17490W        W89805   1.722   4.451  10.659
17491W        W89806  35.126   6.809  10.767
17492W        W89807  10.241  17.177   0.081
17493W        W89808   0.874  11.912   2.859
17494W        W89809  27.203  19.820  11.835
17495W        W89810  29.523  39.572   2.288
17496W        W89811  40.436  22.451  12.398
17497W        W89812  33.187  14.015   1.150
17498W        W89813  30.640  27.158  12.320
17499W        W89814   2.916  14.251   4.317
17500W        W89815   6.694  17.080  14.060
17501W        W89816  40.427  43.538   3.279
17502W        W89817  34.622  28.237  14.336
17503W        W89818  14.225  12.148   4.611
17504W        W89819   6.667  18.641   3.317
17505W        W89820   2.350  13.170  11.206
17506W        W89821  16.723  12.244  14.753
17507W        W89822  19.956  31.896   3.898
17508W        W89823  24.682  35.069  10.455
17509W        W89824  20.613  31.964  12.571
17510W        W89825  18.220  36.996   3.225
17511W        W89826  42.253  42.363  14.302
17512W        W89827   8.188  44.328   0.938
17513W        W89828  27.263  14.653   4.540
17514W        W89829   1.583  27.225  12.920
17515W        W89830  28.766  42.254  11.029
17516W        W89831  36.377  19.161  10.846
17517W        W89832  43.303  11.513   4.112
17518W        W89833  11.347  27.639   3.282
17519W        W89834   3.427  10.336   2.274
17520W        W89835  12.379  29.078  13.619
17521W        W89836  18.685  19.197   0.508
17522W        W89837  39.352   4.863  14.040
17523W        W89838   9.654  22.735   1.727
17524W        W89839  10.518  38.839   2.666
17525W        W89840  12.018  10.512   2.280
17526W        W89841  22.995  18.912  10.118
17527W        W89842  37.856   9.824   1.734
17528W        W89843  34.613  30.846  12.361
17529W        W89844  29.919  24.559   3.959
17530W        W89845  14.695   3.193  12.226
17531W        W89846  38.568  31.958   2.722
17532W        W89847  25.710  22.790   1.575
17533W        W89848  44.536   2.890   2.444
17534W        W89849   2.270  29.172   3.229
17535W        W89850   4.927  35.532  13.859
17536W        W89851  15.294  21.556   0.698
17537W        W89852  19.960  27.637   0.044
17538W        W89853  16.128  41.658  12.953
17539W        W89854  15.159  13.985   1.720
17540W        W89855  14.261  33.820   3.607
17541W        W89856  26.602   5.439  12.156
17542W        W89857  14.856  10.914   2.463
17543W        W89858  14.672  39.711  10.245
17544W        W89859  40.665   0.585  13.241
17545W        W89860  25.002  15.344  14.338
17546W        W89861  26.551  22.599   4.673
17547W        W89862  19.314   8.595  11.448
17548W        W89863  35.967  13.045   3.824
17549W        W89864  41.909  22.755   0.165
17550W        W89865  13.951   8.420   1.958
17551W        W89866  24.504   4.404   0.042
17552W        W89867   4.826  19.686   0.861
17553W        W89868  33.952   8.371  13.883
17554W        W89869  17.492  12.803  11.098
17555W        W89870  27.634  19.099   2.917
17556W        W89871  43.991  14.341  13.323
17557W        W89872   6.514   8.631  14.265
17558W        W89873  30.500   3.751  14.059
17559W        W89874  33.058  14.584  10.715
17560W        W89875  44.404   7.966  10.685
17561W        W89876  42.836   6.111   4.105
17562W        W89877  44.837   6.052  10.702
17563W        W89878  22.983  14.399   1.673
17564W        W89879   5.901   7.656  12.713
17565W        W89880   6.784  19.935  11.604
17566W        W89881  40.141  16.354  13.333
17567W        W89882   4.778  32.592  11.655
17568W        W89883  44.442  40.858   1.396
17569W        W89884  16.002  15.039   1.631
17570W        W89885   7.504  11.178   2.964
17571W        W89886  12.209  26.935   4.201
17572W        W89887  35.001  35.381  13.844
17573W        W89888  37.660   3.882  14.934
17574W        W89889  11.244   0.129  10.919
17575W        W89890  11.680  44.420  10.369
17576W        W89891  11.379  21.406   4.035
17577W        W89892   1.822  42.077  13.819
17578W        W89893  34.608  25.007   3.488
17579W        W89894  29.672  33.504   2.575
17580W        W89895  39.475  10.999  11.617
17581W        W89896  18.886  39.183  10.117
17582W        W89897  25.330  28.102   2.680
17583W        W89898  10.861  43.925   0.654
17584W        W89899  28.918  30.168   2.144
17585W        W89900  33.447  30.608   2.827
17586W        W89901  24.192   4.194  14.075
17587W        W89902  39.544  10.687   1.019
17588W        W89903  35.109  41.367  14.398
17589W        W89904  26.151  10.349   3.144
17590W        W89905  43.070  36.476   2.376
17591W        W89906   0.924   5.869   2.581
17592W        W89907  34.796  39.466  12.429
17593W        W89908  33.883  34.530   2.161
17594W        W89909  16.530   2.855   1.359
17595W        W89910  18.518  27.898  14.964
17596W        W89911   7.502  32.369   1.813
17597W        W89912  11.713  30.690  13.775
17598W        W89913  41.798  15.285   4.110
17599W        W89914  16.536   5.223   3.176
17600W        W89915  30.656  17.931   0.185
17601W        W89916  25.525   4.482   4.977
17602W        W89917  14.920  36.883  11.198
17603W        W89918   2.941  14.372  10.759
17604W        W89919   0.126  24.293  12.379
17605W        W89920  17.342  35.930  14.401
17606W        W89921   4.256  27.230  13.536
17607W        W89922  30.065  31.247   1.256
17608W        W89923  23.172  29.549   0.371
17609W        W89924  12.974   7.874   4.996
17610W        W89925  32.450  19.285   0.118
17611W        W89926  18.650  30.954   1.224
17612W        W89927  15.795  27.003   4.661
17613W        W89928  20.484  23.253   2.227
17614W        W89929  38.387  43.373  11.930
17615W        W89930  35.912  19.979   1.032
17616W        W89931  23.548  14.188   4.882
17617W        W89932  30.193  23.951  14.946
17618W        W89933  17.248  12.569   0.875
17619W        W89934  36.609   6.257  11.724
17620W        W89935  12.279  12.179  11.437
17621W        W89936  43.436  30.194   2.460
17622W        W89937  39.371  40.098   2.429
17623W        W89938  31.989  35.263  13.639
17624W        W89939   5.312  14.886   3.416
17625W        W89940   7.642  33.966   0.476
17626W        W89941  17.491  10.390   2.741
17627W        W89942   9.742  12.591   4.292
17628W        W89943  18.749  43.033  12.443
17629W        W89944  43.097   5.964   3.688
17630W        W89945  19.760  10.613   2.734
17631W        W89946  12.927  25.624  11.163
17632W        W89947   0.826   7.627   0.619
17633W        W89948  19.318  15.975  11.278
17634W        W89949  19.096  20.639   3.812
17635W        W89950  32.705  16.907   0.877
17636W        W89951  19.201   4.391   4.478
17637W        W89952  22.994   5.383  13.856
17638W        W89953  18.678  26.396   0.237
17639W        W89954  15.357  29.894  10.720
17640W        W89955   1.709  32.377   1.904
17641W        W89956  15.957  33.908  11.450
17642W        W89957  35.850   2.208   4.523
17643W        W89958   0.891  43.001  10.302
17644W        W89959  17.807  41.843   5.264
17645W        W89960   4.855   5.687   0.294
17646W        W89961  30.331  34.580   1.886
17647W        W89962  27.399  44.702  11.069
17648W        W89963  35.995  22.737  10.752
17649W        W89964  14.661   6.697  12.513
17650W        W89965  25.569   8.195   2.639
17651W        W89966  40.972  36.566  13.920
17652W        W89967  10.657  37.843   0.337
17653W        W89968   8.182  21.207  14.279
17654W        W89969   7.842  40.204   2.803
17655W        W89970   3.132  37.823  13.963
17656W        W89971  18.603  36.519   1.689
17657W        W89972  42.429  44.875  10.321
17658W        W89973  25.256  15.592   5.167
17659W        W89974  15.099  27.062  13.539
17660W        W89975  23.686  38.115   2.263
17661W        W89976  17.178  38.090  12.998
17662W        W89977   5.906  15.036  11.135
17663W        W89978  25.085  42.314  10.962
17664W        W89979   6.208  39.447   3.800
17665W        W89980  29.588  37.934  11.811
17666W        W89981  37.198  27.911  11.519
17667W        W89982  40.071   2.315   1.239
17668W        W89983   1.451   7.242   0.386
17669W        W89984  27.105  35.621  10.485
17670W        W89985  43.037  24.581   2.896
17671W        W89986  13.514  32.458  12.148
17672W        W89987   2.223   0.482  11.118
17673W        W89988   8.893  43.223  11.771
17674W        W89989  29.507  15.002   0.914
17675W        W89990  17.035  26.586   1.896
17676W        W89991  30.146  18.256   0.638
17677W        W89992   5.661   0.493   0.907
17678W        W89993  30.169   3.335   4.341
17679W        W89994  42.780   5.890  13.802
17680W        W89995  20.740   7.320  14.110
17681W        W89996  43.297  29.949   3.696
17682W        W89997  10.293  15.677   0.880
17683W        W89998  11.656  36.311  11.394
17684W        W89999   0.078   5.910  14.303
17685W        W90000  31.682  29.416  13.530
17686W        W90001  27.392  37.849   2.878
17687W        W90002  32.052   7.268  12.495
17688W        W90003  11.841   8.423   1.242
17689W        W90004  41.347  34.115   2.340
17690W        W90005  39.138  23.390   5.540
17691W        W90006  39.061  41.390   4.877
17692W        W90007   6.526  41.842  13.844
17693W        W90008  43.454  43.306  12.628
17694W        W90009  25.544  31.294  10.703
17695W        W90010  36.898   7.060  10.841
17696W        W90011  29.149   4.829   1.858
17697W        W90012  23.015  14.429  13.840
17698W        W90013  32.114  36.117   3.300
17699W        W90014  32.908   0.408   0.371
17700W        W90015  42.555  26.008   0.448
17701W        W90016   7.601  14.158  12.451
17702W        W90017   3.729   9.661  10.771
17703W        W90018  26.943   6.205   3.647
17704W        W90019  18.021   9.613   4.144
17705W        W90020   1.517   9.882   0.828
17706W        W90021  10.627  40.974  12.456
17707W        W90022  19.653  41.801   4.475
17708W        W90023  22.533  22.471  10.020
17709W        W90024  29.951  36.641   0.951
17710W        W90025   7.977  18.217   0.148
17711W        W90026  30.243   7.915   0.117
17712W        W90027  26.377  34.151  13.941
17713W        W90028  10.105  31.943  12.010
17714W        W90029  18.829  25.490  14.461
17715W        W90030  20.255  12.250  12.463
17716W        W90031  36.764  20.927  11.145
17717W        W90032  11.155  28.123  11.429
17718W        W90033   0.079  32.155   1.084
17719W        W90034  17.529  33.663   0.475
17720W        W90035  15.598  32.116   1.017
17721W        W90036  10.083  27.613   0.829
17722W        W90037  35.894  27.481  10.704
17723W        W90038  33.637   4.434  11.505
17724W        W90039   4.392  19.799   4.565
17725W        W90040  20.970  25.643  12.852
17726W        W90041   2.434  22.576  10.248
17727W        W90042  22.429  23.996   0.933
17728W        W90043  41.600   5.062  11.663
17729W        W90044  30.686  23.379   4.859
17730W        W90045  39.538  26.962  12.357
17731W        W90046  44.548  23.042   4.068
17732W        W90047  16.746  34.563   1.213
17733W        W90048  38.877   5.313  14.302
17734W        W90049   9.461  24.821  12.134
17735W        W90050  38.269  15.293   4.194
17736W        W90051   6.670  18.013  13.457
17737W        W90052  26.007  34.099   1.163
17738W        W90053   0.861  16.057  11.714
17739W        W90054   0.711  17.050  10.652
17740W        W90055   4.971  24.766   3.731
17741W        W90056  40.549  15.993  11.944
17742W        W90057  37.615  11.084  14.813
17743W        W90058  10.153  11.285  12.948
17744W        W90059  37.471  34.793   4.152
17745W        W90060  23.901  14.310   1.355
17746W        W90061  34.826  36.084  13.212
17747W        W90062   2.212  22.009   1.304
17748W        W90063  21.019  31.086   3.731
17749W        W90064  15.869   1.127  11.224
17750W        W90065   7.191  35.007  12.129
17751W        W90066  41.360  12.366  11.743
17752W        W90067  41.915  24.986   5.215
17753W        W90068  31.064  27.466   3.737
17754W        W90069   3.554  21.006  14.259
17755W        W90070  10.129  10.372  14.397
17756W        W90071  14.403  17.873  14.354
17757W        W90072  23.334  19.100  12.464
17758W        W90073  21.411   4.347   4.694
17759W        W90074  43.052   3.370  11.542
17760W        W90075   1.534  40.380   2.615
17761W        W90076   7.287  39.880  10.758
17762W        W90077  34.446  11.126  11.662
17763W        W90078  43.015  40.778   0.774
17764W        W90079  25.029  18.019   1.160
17765W        W90080  35.347   7.496   0.133
17766W        W90081  14.432  16.198   1.687
17767W        W90082  30.647   8.480   0.827
17768W        W90083   9.291  11.825  11.547
17769W        W90084  25.505   3.357   0.948
17770W        W90085  37.782  33.483  13.141
17771W        W90086  43.225  30.237  12.514
17772W        W90087  35.210  19.771  11.160
17773W        W90088  12.704  44.366   2.164
17774W        W90089  32.382  34.013   0.209
17775W        W90090  32.617  38.419   4.248
17776W        W90091   9.908   5.299  13.529
17777W        W90092  23.150  18.101  13.139
17778W        W90093  11.170  27.572  14.482
17779W        W90094   2.355  16.567   2.278
17780W        W90095  12.870  13.728   1.453
17781W        W90096  42.911  32.958  10.664
17782W        W90097  11.350  35.239   1.944
17783W        W90098  22.521  41.874   5.357
17784W        W90099  36.061  22.003  12.008
17785W        W90100   7.022  25.304   1.232
17786W        W90101  44.955  24.737   4.910
17787W        W90102  37.558  34.314  12.423
17788W        W90103  19.574  20.977  13.072
17789W        W90104   0.969   7.910  14.287
17790W        W90105   9.972   4.547  12.816
17791W        W90106  11.271  37.751   3.563
17792W        W90107  14.031  38.279   1.934
17793W        W90108   1.303  29.290  10.834
17794W        W90109  19.131  37.383  13.896
17795W        W90110  22.619  16.170  13.606
17796W        W90111  12.397   0.893  13.840
17797W        W90112  16.787  19.103  13.392
17798W        W90113  17.744  31.970   4.661
17799W        W90114   6.446   4.685   2.495
17800W        W90115   0.325  42.962   2.649
17801W        W90116  17.195   2.863  13.053
17802W        W90117  31.592  13.258   1.717
17803W        W90118  29.202  26.918  14.961
17804W        W90119  24.462   6.706   1.414
17805W        W90120  37.022   6.457   2.798
17806W        W90121  13.784  11.348   4.878
17807W        W90122  37.376  31.849  11.611
17808W        W90123  12.594   7.244  12.120
17809W        W90124  36.366  14.287  10.114
17810W        W90125  33.176  10.739   2.875
17811W        W90126  35.076  43.322   3.753
17812W        W90127  38.072  42.331   4.168
17813W        W90128  31.789   2.579  12.796
17814W        W90129  36.980  36.315  11.516
17815W        W90130  25.672  19.124  12.985
17816W        W90131  41.331   8.395   2.783
17817W        W90132  16.819  18.358  12.390
17818W        W90133  33.068  36.380   4.327
17819W        W90134   9.434   6.756   0.528
17820W        W90135  23.566  34.533   4.567
17821W        W90136  16.093  25.059  11.151
17822W        W90137  22.686   7.167  10.738
17823W        W90138  21.200  33.121  11.947
17824W        W90139  35.162  19.544   2.723
17825W        W90140  16.743  44.366   1.558
17826W        W90141  21.993  24.508  11.245
17827W        W90142  24.846  15.874  13.476
17828W        W90143  21.702   5.889  13.851
17829W        W90144  36.241  28.073  12.628
17830W        W90145   0.359  12.703   5.469
17831W        W90146   3.866   8.326  12.188
17832W        W90147  10.247  22.005   0.753
17833W        W90148  26.125   4.442   4.647
17834W        W90149  27.504  11.404  10.666
17835W        W90150  43.885  32.316   2.721
17836W        W90151  24.752  27.943   3.410
17837W        W90152  36.147  25.444   0.339
17838W        W90153  39.265  38.983  13.626
17839W        W90154  10.818   5.399   1.766
17840W        W90155  28.558  14.346  14.275
17841W        W90156  37.359   8.689  11.862
17842W        W90157  16.895  32.567   4.530
17843W        W90158  37.418  42.904   4.619
17844W        W90159  16.256  11.239  10.364
17845W        W90160   0.996   0.352   1.771
17846W        W90161  14.508   0.273   3.338
17847W        W90162  34.534  44.720   0.745
17848W        W90163  39.521  33.119  10.756
17849W        W90164   8.735  19.016   3.927
17850W        W90165  15.055   5.192  14.364
17851W        W90166   9.753  15.620  14.657
17852W        W90167  39.628   4.823   4.139
17853W        W90168  30.651  30.649  13.927
17854W        W90169  32.826  39.900   3.608
17855W        W90170  43.548  30.062  14.892
17856W        W90171  40.086   2.565   0.779
17857W        W90172  26.002   4.435   2.248
17858W        W90173  18.766   6.903  11.017
17859W        W90174  41.490  29.395  12.144
17860W        W90175   2.460   6.723   4.992
17861W        W90176  18.664  38.932  11.599
17862W        W90177  37.317  28.609  13.878
17863W        W90178  25.672   6.628   3.734
17864W        W90179  10.711  43.945   4.231
17865W        W90180  38.770  19.677   3.149
17866W        W90181  38.464  22.489   1.281
17867W        W90182   8.567  17.802  10.288
17868W        W90183  36.484  10.673  14.258
17869W        W90184  13.187  25.609   0.694
17870W        W90185  21.909   7.912   3.510
17871W        W90186   0.624  11.878   3.326
17872W        W90187  19.087   4.322   3.995
17873W        W90188  28.191  24.529  11.110
17874W        W90189  12.725  20.759  13.470
17875W        W90190   3.414  43.014   1.381
17876W        W90191  35.504  12.104   2.476
17877W        W90192  11.551  42.486  11.534
17878W        W90193  24.711  37.454   0.932
17879W        W90194  21.035  38.681   4.057
17880W        W90195   7.257  26.849   2.395
17881W        W90196  16.181   2.289  11.947
17882W        W90197  25.391  40.962  10.755
17883W        W90198   7.323  24.127  14.736
17884W        W90199   9.784   6.681   3.204
17885W        W90200  41.985   1.709  10.404
17886W        W90201  20.677  15.478  12.061
17887W        W90202  25.220  29.425  14.339
17888W        W90203   3.405  16.724  10.139
17889W        W90204  33.500  42.648  11.463
17890W        W90205  13.866   6.506   1.751
17891W        W90206  23.672  37.094   4.202
17892W        W90207  29.281   7.992  12.958
17893W        W90208  39.556  28.714   2.711
17894W        W90209  41.670  44.063  12.594
17895W        W90210  12.370  16.702   0.719
17896W        W90211  32.885  12.829  10.946
17897W        W90212  19.063  19.061   4.911
17898W        W90213  34.438   5.526   0.677
17899W        W90214  14.860  33.495  12.808
17900W        W90215  18.359  36.847   0.325
17901W        W90216  13.811  37.885  12.036
17902W        W90217  13.120   1.765   4.316
17903W        W90218   3.979  17.492   0.970
17904W        W90219  43.989  42.018  11.666
17905W        W90220  19.391  43.869  11.920
17906W        W90221  12.830  17.215   0.189
17907W        W90222  14.748  31.822   3.171
17908W        W90223  15.587  16.727  12.754
17909W        W90224  25.224  14.138  11.938
17910W        W90225  11.960  36.844  12.432
17911W        W90226  35.948  15.139   3.619
17912W        W90227   6.876  10.825   1.263
17913W        W90228  37.085   0.271  14.929
17914W        W90229   1.732  23.602  12.126
17915W        W90230  40.089   3.551   2.712
17916W        W90231  17.322  22.930   1.383
17917W        W90232  44.750  35.116  10.780
17918W        W90233  19.681  30.249  10.981
17919W        W90234  17.334   9.520  11.966
17920W        W90235   0.926  35.689  10.697
17921W        W90236   7.793  42.538  11.664
17922W        W90237  38.833  31.083   1.491
17923W        W90238  25.119  40.821   3.736
17924W        W90239   9.701  18.662   9.727
17925W        W90240  37.355   8.560  11.385
17926W        W90241   2.393   5.603   1.385
17927W        W90242  31.512   6.581  12.171
17928W        W90243  35.903  12.514   3.877
17929W        W90244   3.897  17.065   4.114
17930W        W90245  38.398  28.680  13.946
17931W        W90246  35.003  41.783   4.619
17932W        W90247   2.968  16.017   3.384
17933W        W90248  24.628   2.139  14.426
17934W        W90249   9.828  31.055   0.689
17935W        W90250   3.365  10.915  14.927
17936W        W90251  37.809   7.885   2.245
17937W        W90252  39.522  27.515  13.086
17938W        W90253  35.181  32.132  12.056
17939W        W90254  34.794   8.663  13.776
17940W        W90255  23.072  32.296   3.225
17941W        W90256   8.655  17.851   1.741
17942W        W90257  41.276  40.741  14.390
17943W        W90258  14.956  22.792   3.851
17944W        W90259   6.309  39.898   3.547
17945W        W90260   4.723   7.693   1.416
17946W        W90261   8.690  40.831   4.585
17947W        W90262   8.427  14.070   1.240
17948W        W90263  43.417  25.796   1.898
17949W        W90264  28.258  43.728  13.003
17950W        W90265  16.256   8.250  11.056
17951W        W90266  25.137   9.171  10.312
17952W        W90267  31.406   1.559  13.739
17953W        W90268  30.582  32.181  13.421
17954W        W90269  33.880  31.136   1.328
17955W        W90270  20.801  41.889   1.965
17956W        W90271   9.129  44.490  13.013
17957W        W90272   5.170  31.279   3.233
17958W        W90273  19.788  20.511  13.034
17959W        W90274  33.802  34.207   1.336
17960W        W90275   1.631  39.001   4.735
17961W        W90276  27.109   9.292  12.652
17962W        W90277  25.762   5.620   0.941
17963W        W90278   4.005  21.133   3.758
17964W        W90279  23.273  23.593   4.652
17965W        W90280  33.484  29.239  10.996
17966W        W90281   0.322   9.327  11.714
17967W        W90282  24.501  25.103  12.622
17968W        W90283  25.234  15.726  12.538
17969W        W90284  10.585  14.352   2.272
17970W        W90285  43.928  32.728   0.791
17971W        W90286  23.770  20.456   2.694
17972W        W90287  38.594  14.726  13.975
17973W        W90288   1.394   2.180  10.664
17974W        W90289  10.832  37.709   1.786
17975W        W90290  22.147  12.925  12.467
17976W        W90291  15.254  32.590  12.773
17977W        W90292  35.788  29.984   2.278
17978W        W90293   1.931  35.988   3.079
17979W        W90294  44.947  35.516   1.099
17980W        W90295  22.059  13.209   3.119
17981W        W90296   1.620  24.689   2.803
17982W        W90297  41.669  28.577   0.345
17983W        W90298  36.995  14.645   4.305
17984W        W90299  34.156  18.128  11.367
17985W        W90300  38.384  14.556  11.687
17986W        W90301  16.559  20.754  14.035
17987W        W90302  42.258  28.560  12.636
17988W        W90303  22.547  30.179  11.194
17989W        W90304  14.542  14.685   1.050
17990W        W90305  10.332   4.382   5.199
17991W        W90306  26.227   2.400   1.254
17992W        W90307   7.927  33.466  10.688
17993W        W90308  40.786  35.427   4.207
17994W        W90309   4.766  36.442  10.726
17995W        W90310  40.632  39.345  14.408
17996W        W90311  23.648  31.711   0.532
17997W        W90312  29.159   5.700  10.568
17998W        W90313  35.399  18.146   3.478
17999W        W90314  16.605  29.993  14.994
18000W        W90315  42.229   8.157   1.753
18001W        W90316   5.349  35.313  10.798
18002W        W90317   1.958  12.224  12.126
18003W        W90318  43.967   2.202   2.687
18004W        W90319  38.484  30.700  12.948
18005W        W90320  42.533   9.835   4.778
18006W        W90321  38.539   6.777   3.110
18007W        W90322  29.542  30.669   0.451
18008W        W90323  38.477  43.992   2.139
18009W        W90324  37.290  12.808   2.534
18010W        W90325  31.095  31.493  12.709
18011W        W90326  44.973  10.217   2.736
18012W        W90327   1.995  12.667   2.241
18013W        W90328  22.517  16.048  12.179
18014W        W90329  39.649  16.214  13.456
18015W        W90330  20.961  19.028  14.072
18016W        W90331   4.274  19.393   3.154
18017W        W90332  27.122   5.479   2.223
18018W        W90333  32.160  29.512  13.374
18019W        W90334  38.867  28.937  13.863
18020W        W90335   8.673  30.621  14.765
18021W        W90336  12.069  23.221  10.578
18022W        W90337   2.215   7.580  13.396
18023W        W90338  30.112  33.082   4.403
18024W        W90339  11.730   5.109  11.368
18025W        W90340  22.223  30.443  13.369
18026W        W90341   5.216  37.337   2.684
18027W        W90342  42.865   9.205  11.592
18028W        W90343   0.372   6.743   4.566
18029W        W90344  27.753  30.740  13.612
18030W        W90345   3.215  10.693  13.462
18031W        W90346  33.022  24.207  13.710
18032W        W90347  23.131  28.926  13.277
18033W        W90348   7.329   9.238  14.303
18034W        W90349  19.122  27.435  13.850
18035W        W90350   5.915  43.544   1.851
18036W        W90351  23.476   9.862  14.461
18037W        W90352  43.314  26.979   2.859
18038W        W90353  41.462  36.911  11.122
18039W        W90354   4.139   6.239   0.229
18040W        W90355  22.411  23.707  14.812
18041W        W90356   2.329  37.286   4.882
18042W        W90357  39.100  37.104   2.597
18043W        W90358   2.324  15.341  11.194
18044W        W90359  35.260  15.136   4.142
18045W        W90360  27.394  22.175  14.090
18046W        W90361  44.929   5.406   2.908
18047W        W90362   9.948   0.738   2.689
18048W        W90363  18.114  33.093   1.987
18049W        W90364  23.685   7.220   1.305
18050W        W90365  21.662   3.664   2.262
18051W        W90366   4.453  19.089  14.315
18052W        W90367  17.701  16.152   3.659
18053W        W90368  16.264  26.602   3.320
18054W        W90369  29.073  36.403  11.817
18055W        W90370   4.841  12.705   3.677
18056W        W90371  11.526  41.592  11.578
18057W        W90372   6.195   0.192  12.648
18058W        W90373  41.381  23.557  14.997
18059W        W90374  15.130  18.518  14.477
18060W        W90375   9.414  22.167  14.927
18061W        W90376  15.131   0.397  13.166
18062W        W90377   3.567  39.477   0.749
18063W        W90378  44.705  17.590  14.747
18064W        W90379  43.526  21.291   0.465
18065W        W90380  33.789  28.945   1.609
18066W        W90381  44.643   2.502   4.684
18067W        W90382   9.620   5.824   2.336
18068W        W90383  13.280  20.473   4.799
18069W        W90384  12.731   8.991  13.707
18070W        W90385  40.453   3.672   0.975
18071W        W90386  27.515  17.060   3.119
18072W        W90387  15.148  44.345   2.367
18073W        W90388  30.609  19.298   2.049
18074W        W90389   2.832  17.353  12.501
18075W        W90390  41.803  39.615  10.812
18076W        W90391  40.003  15.319   1.681
18077W        W90392   9.507  43.531   3.610
18078W        W90393  38.636  23.474  14.737
18079W        W90394   0.263   5.422  12.674
18080W        W90395  11.633  24.581  13.391
18081W        W90396  33.435  26.734   3.222
18082W        W90397  36.566  29.103  10.755
18083W        W90398  20.683  10.194   2.879
18084W        W90399  14.908   7.657   2.739
18085W        W90400  40.007  36.353   1.342
18086W        W90401  11.551  20.989  10.023
18087W        W90402   8.887   2.694  10.980
18088W        W90403  25.336  31.320   4.116
18089W        W90404  19.305   5.758  14.743
18090W        W90405   8.159  25.667   0.235
18091W        W90406  38.082  31.858  13.866
18092W        W90407  10.101  44.336  14.302
18093W        W90408  44.927  29.702   0.315
18094W        W90409  13.445   1.985   0.659
18095W        W90410  36.160  34.208   4.660
18096W        W90411  12.734  19.804   2.382
18097W        W90412  34.946   1.693   4.609
18098W        W90413   7.947   1.049  10.570
18099W        W90414  44.310   7.718   0.352
18100W        W90415  41.562   1.290  14.495
18101W        W90416   4.005  14.995   0.505
18102W        W90417   4.885  17.222  13.912
18103W        W90418  27.642  14.154  13.301
18104W        W90419  24.104  19.699  11.517
18105W        W90420  39.419  10.444  13.875
18106W        W90421   1.131  44.532  13.076
18107W        W90422  33.620  44.951   0.709
18108W        W90423  13.639  36.133   0.301
18109W        W90424  26.529  36.786  12.133
18110W        W90425  40.766  25.219  10.688
18111W        W90426  16.235  37.191   2.706
18112W        W90427  28.217  13.363  11.688
18113W        W90428  21.574  18.460   1.945
18114W        W90429  29.207  39.743   1.408
18115W        W90430  40.218  34.329  11.422
18116W        W90431   7.614  16.549  14.260
18117W        W90432  39.291  43.945  11.145
18118W        W90433  16.673  43.800  14.918
18119W        W90434   9.417  33.076   0.688
18120W        W90435  42.404  21.913   3.102
18121W        W90436  19.730  38.853   2.641
18122W        W90437  27.382  34.589   3.095
18123W        W90438   9.304  19.269  11.859
18124W        W90439  32.652  11.199  10.579
18125W        W90440  37.246  32.437   0.239
18126W        W90441  22.499  15.781   1.862
18127W        W90442  19.206  20.302  12.442
18128W        W90443   2.378  42.580   1.745
18129W        W90444  14.041  40.307   2.646
18130W        W90445  35.790   1.522   1.328
18131W        W90446  21.620  38.285   2.789
18132W        W90447  42.744  44.385   1.870
18133W        W90448  28.320  42.312   0.285
18134W        W90449  19.150  25.230   3.425
18135W        W90450  44.541  17.639  11.045
18136W        W90451  33.072  19.770   1.967
18137W        W90452  34.532  39.301   2.319
18138W        W90453  18.253  25.370  14.906
18139W        W90454   2.520  23.060  13.718
18140W        W90455  24.018   7.312  10.916
18141W        W90456  38.425  28.820   3.888
18142W        W90457  35.579  21.351   4.093
18143W        W90458  20.276  16.723  12.871
18144W        W90459   7.422  42.539   0.009
18145W        W90460  14.992  38.339   0.477
18146W        W90461   3.321  16.300   3.052
18147W        W90462  19.715   8.395   5.144
18148W        W90463  30.443  43.528  13.717
18149W        W90464  44.446  19.920  12.092
18150W        W90465  44.178  40.737  11.068
18151W        W90466  33.810  40.230  11.375
18152W        W90467  18.685  11.162  14.948
18153W        W90468  43.654   9.953  10.230
18154W        W90469  33.259  36.355   3.043
18155W        W90470  39.836   7.713   0.693
18156W        W90471  39.628  22.116  10.585
18157W        W90472  39.881   1.441   1.707
18158W        W90473  24.672  28.263   3.795
18159W        W90474  27.412  22.010   2.026
18160W        W90475  42.743  35.027  10.376
18161W        W90476  14.753  38.334  13.080
18162W        W90477  28.916   2.299  10.771
18163W        W90478  37.809  32.294  10.401
18164W        W90479   7.834  13.664  12.452
18165W        W90480  24.831  39.431  11.325
18166W        W90481  10.787   8.188  12.455
18167W        W90482  44.411  27.671  10.813
18168W        W90483  10.450  15.667  10.642
18169W        W90484  42.958   6.016  14.705
18170W        W90485  20.249   3.801   2.222
18171W        W90486  23.940  31.030  10.552
18172W        W90487  12.781   2.275  12.005
18173W        W90488   6.817  32.811  13.465
18174W        W90489   3.740  27.147   3.114
18175W        W90490  23.544  40.086   1.304
18176W        W90491  16.870  10.510   5.254
18177W        W90492  28.159  14.413   5.090
18178W        W90493  20.414   0.664  13.462
18179W        W90494  17.240  36.360  14.961
18180W        W90495  26.249  14.544   0.357
18181W        W90496  34.940  43.011   0.385
18182W        W90497  33.129  18.249   2.867
18183W        W90498  10.338  43.504   1.752
18184W        W90499  41.972   5.266   3.407
18185W        W90500  12.908  23.158   0.546
18186W        W90501   5.683  17.010  10.544
18187W        W90502  33.167   5.312   3.207
18188W        W90503   4.276   7.286   4.458
18189W        W90504   2.887  21.195  11.560
18190W        W90505  27.078  43.146  14.762
18191W        W90506  28.379  10.916   4.168
18192W        W90507  31.605  43.514  13.576
18193W        W90508  42.713  17.083  12.426
18194W        W90509  42.383  33.591   3.124
18195W        W90510  32.573   7.169  12.052
18196W        W90511  15.682  19.988   3.728
18197W        W90512  10.299  28.559  11.891
18198W        W90513  38.029  43.376   0.841
18199W        W90514   9.933   7.428   0.795
18200W        W90515  23.466  32.446   0.922
18201W        W90516  43.558  22.987   4.295
18202W        W90517  15.035  28.373   0.736
18203W        W90518   7.059   2.393   0.670
18204W        W90519  10.823  24.751  14.403
18205W        W90520  12.264  37.296   4.496
18206W        W90521   5.352  40.444   1.008
18207W        W90522  22.579  16.178   3.772
18208W        W90523  16.875  14.000   4.100
18209W        W90524   1.116  25.430   1.079
18210W        W90525   9.257  17.361   2.215
18211W        W90526  41.389  28.497  11.108
18212W        W90527  23.350  30.720   1.675
18213W        W90528  28.851  22.036   2.185
18214W        W90529  42.971   7.758  14.986
18215W        W90530  24.605  31.102  14.847
18216W        W90531  20.581  24.473   0.485
18217W        W90532  39.791  43.398  14.045
18218W        W90533  44.463  39.589  13.449
18219W        W90534  29.116  33.623  14.230
18220W        W90535  26.647  42.315  11.963
18221W        W90536   2.236  20.753   3.382
18222W        W90537  28.917  20.596   3.796
18223W        W90538  28.655  10.212  13.043
18224W        W90539  42.344  34.954  11.640
18225W        W90540   2.210  12.581   0.201
18226W        W90541  39.545  39.319  11.165
18227W        W90542  21.585  41.171   2.796
18228W        W90543  40.876  32.660  13.234
18229W        W90544  20.090  13.277   3.818
18230W        W90545  42.468  15.461   0.152
18231W        W90546  28.739  10.280   2.140
18232W        W90547  32.325   2.917   3.261
18233W        W90548  27.704  34.088   2.274
18234W        W90549  42.540  28.261  11.051
18235W        W90550   9.670   2.267   1.480
18236W        W90551   0.011  13.881   3.225
18237W        W90552  37.311  23.291  12.989
18238W        W90553  13.744  27.919   3.279
18239W        W90554   6.655  21.683  13.442
18240W        W90555  39.780  42.366  14.404
18241W        W90556   6.509  38.424  15.000
18242W        W90557  16.654   9.188   2.841
18243W        W90558   4.926  39.495  14.472
18244W        W90559  33.542  14.781   1.845
18245W        W90560   4.307   2.243  13.926
18246W        W90561   9.564  16.598  11.130
18247W        W90562  31.833   6.744  11.750
18248W        W90563  34.085  40.000  10.586
18249W        W90564  15.240   4.423   0.884
18250W        W90565  40.456  12.729  11.754
18251W        W90566   9.924   1.491   2.501
18252W        W90567   6.866   0.307   4.074
18253W        W90568  30.798  19.608  12.992
18254W        W90569  19.240  16.045  13.292
18255W        W90570  35.896  18.612   3.248
18256W        W90571   4.200  23.989  13.013
18257W        W90572  17.543   7.134   3.207
18258W        W90573  34.311  42.834   2.732
18259W        W90574  31.143  44.340   4.077
18260W        W90575  30.017  35.465   1.696
18261W        W90576  27.436  30.198   2.487
18262W        W90577  14.244  26.153  11.159
18263W        W90578   6.259   7.865   4.745
18264W        W90579   7.814   8.351   0.001
18265W        W90580  20.546  29.373  12.970
18266W        W90581  20.149  26.956  14.475
18267W        W90582  28.756  17.929  13.548
18268W        W90583  17.824  44.202   2.204
18269W        W90584   6.759   0.817  10.663
18270W        W90585  44.744  19.732   4.051
18271W        W90586  16.912  14.055   2.702
18272W        W90587   2.297  39.910   2.351
18273W        W90588   5.369   9.636   4.141
18274W        W90589  29.188  18.323   0.798
18275W        W90590  12.715  11.181   3.279
18276W        W90591  20.030  14.339  12.528
18277W        W90592  24.652  41.286  13.287
18278W        W90593   1.807  31.961  10.936
18279W        W90594  33.363  38.280   3.554
18280W        W90595  23.962  17.129  12.440
18281W        W90596  15.263  28.509   2.722
18282W        W90597  19.122  31.369  12.949
18283W        W90598  24.545  41.210  14.357
18284W        W90599  22.686  24.448   0.920
18285W        W90600  30.438  13.325   3.154
18286W        W90601   8.218  16.370   3.299
18287W        W90602   9.439  14.193  13.014
18288W        W90603  23.104  16.277  11.591
18289W        W90604  39.959  42.294  11.658
18290W        W90605  11.010   5.461   0.018
18291W        W90606   0.321  38.894   2.168
18292W        W90607  21.522  39.859   1.152
18293W        W90608  13.002  38.201   1.681
18294W        W90609  36.859  43.041   3.179
18295W        W90610  40.117  44.256  14.285
18296W        W90611  28.490  35.223   3.804
18297W        W90612  36.579  24.207   1.947
18298W        W90613  19.528  35.516   4.786
18299W        W90614  28.002  12.564   0.181
18300W        W90615  35.568  29.974  13.053
18301W        W90616  28.428  34.887  14.784
18302W        W90617  43.671  20.236   3.310
18303W        W90618   7.343  37.085  14.051
18304W        W90619  44.896   5.417   1.763
18305W        W90620  10.234  42.549  12.972
18306W        W90621   6.525  35.812   3.643
18307W        W90622  11.223  15.291  11.082
18308W        W90623  22.086   5.801   2.604
18309W        W90624  10.747  18.772  14.333
18310W        W90625  17.530  26.653   0.024
18311W        W90626  15.742  43.459  10.697
18312W        W90627  12.687  26.196  12.337
18313W        W90628  41.840  10.800  14.826
18314W        W90629  28.989  23.647  13.726
18315W        W90630  17.923  11.892   4.796
18316W        W90631  42.034  15.761   1.417
18317W        W90632  26.390  31.424  14.018
18318W        W90633  33.422   2.727  13.500
18319W        W90634  43.481   1.656  12.609
18320W        W90635  12.900   7.750   3.601
18321W        W90636  22.361   8.767  13.460
18322W        W90637  30.175  28.949   2.802
18323W        W90638  41.014  35.879   4.126
18324W        W90639   3.833  13.869  10.548
18325W        W90640  25.105  14.402   0.696
18326W        W90641  44.079   3.602   4.127
18327W        W90642   3.201  28.880  14.356
18328W        W90643  39.637  37.423   1.704
18329W        W90644  22.929  10.803  14.489
18330W        W90645   2.223  12.183  14.430
18331W        W90646   6.612   5.227  12.111
18332W        W90647   5.903  10.419  12.994
18333W        W90648  44.289  15.748   0.922
18334W        W90649  26.041  17.881  11.668
18335W        W90650  25.024  37.200  11.569
18336W        W90651  17.074  10.427  13.432
18337W        W90652  43.289   6.892  14.755
18338W        W90653  12.419  21.091  14.954
18339W        W90654  14.911  12.596  10.123
18340W        W90655  18.463   1.838   2.311
18341W        W90656  20.228   8.723   2.341
18342W        W90657  44.535  26.368  10.282
18343W        W90658   2.966  43.553  12.205
18344W        W90659  35.014  16.914   4.523
18345W        W90660   1.395  19.445  11.203
18346W        W90661  27.370   6.424  11.966
18347W        W90662  17.197  34.513  10.328
18348W        W90663  26.011   1.289  12.114
18349W        W90664  43.396  29.525  10.166
18350W        W90665  12.664   3.488   1.395
18351W        W90666   8.601  16.595  10.115
18352W        W90667   2.456  24.234  14.517
18353W        W90668  44.506  17.208  13.077
18354W        W90669  18.732  22.533  10.818
18355W        W90670  32.071  35.229  10.498
18356W        W90671   7.185  18.458   3.175
18357W        W90672  34.594  29.937   0.888
18358W        W90673  30.929  20.970  14.681
18359W        W90674  17.007   6.337   0.702
18360W        W90675  37.273  33.877  12.318
18361W        W90676  25.572  42.769  14.965
18362W        W90677   8.448  20.536  10.567
18363W        W90678   1.320  41.443  12.469
18364W        W90679  10.741  15.687  14.946
18365W        W90680  30.226  31.192  12.119
18366W        W90681   2.955  42.763   4.935
18367W        W90682  36.515  20.943   1.622
18368W        W90683  15.795  19.077   1.660
18369W        W90684  33.267  44.350   3.656
18370W        W90685  43.312  39.352   0.869
18371W        W90686   6.929   8.455  12.349
18372W        W90687   8.206  44.080  13.165
18373W        W90688   0.294  39.079  12.060
18374W        W90689   4.050  10.900   0.433
18375W        W90690  26.554  39.819   1.258
18376W        W90691  20.646  10.930  10.109
18377W        W90692  16.217  38.936   1.704
18378W        W90693  19.502  16.750   0.865
18379W        W90694  11.741  42.618   0.116
18380W        W90695   0.812  35.142   4.194
18381W        W90696  11.620  12.071  13.542
18382W        W90697  12.544  18.007   9.742
18383W        W90698  39.065  29.011  11.509
18384W        W90699   4.818  32.651  11.030
18385W        W90700  44.686  43.068   1.656
18386W        W90701  12.760   6.646   2.748
18387W        W90702   6.174  38.050  13.386
18388W        W90703  35.441  43.925  12.912
18389W        W90704   3.963   6.307   0.703
18390W        W90705   1.492   2.672  13.926
18391W        W90706   4.945   9.390   0.367
18392W        W90707  13.318  13.298  11.545
18393W        W90708  38.527   3.024   0.277
18394W        W90709  34.545  37.063  12.939
18395W        W90710  13.517  36.412   0.772
18396W        W90711  17.323  19.513   3.067
18397W        W90712  14.889  15.192  13.961
18398W        W90713  34.919  13.697   4.228
18399W        W90714  24.235  26.958  10.752
18400W        W90715  20.156  25.729   4.258
18401W        W90716  36.459  29.868   0.050
18402W        W90717  41.204   9.369   1.704
18403W        W90718  19.611  31.322  12.753
18404W        W90719  40.455  11.720   0.327
18405W        W90720  39.348   9.216  13.566
18406W        W90721  15.639   0.410  13.954
18407W        W90722  35.471  10.118   0.371
18408W        W90723   7.577   4.938   0.845
18409W        W90724  16.474  19.783  12.451
18410W        W90725   1.241   2.918  14.892
18411W        W90726  19.823   5.752   4.752
18412W        W90727  16.754  25.989   2.932
18413W        W90728   2.422  25.678   0.515
18414W        W90729   4.938   4.968   0.960
18415W        W90730  35.938   7.025   0.677
18416W        W90731   5.455  32.187   2.122
18417W        W90732   6.422   9.859   3.709
18418W        W90733  29.110   9.693   3.383
18419W        W90734  31.050  36.839   0.531
18420W        W90735  36.615  16.085   1.460
18421W        W90736  22.508   1.438  11.363
18422W        W90737  41.069  34.069  10.713
18423W        W90738  30.695  18.378   1.846
18424W        W90739  44.475  43.000   2.884
18425W        W90740  25.789  23.728   5.031
18426W        W90741  34.417   0.041  10.694
18427W        W90742  30.541  24.299  14.508
18428W        W90743  19.765  30.763  13.535
18429W        W90744   5.512  16.996   2.422
18430W        W90745   8.687  40.230  11.524
18431W        W90746  11.786   9.693  13.923
18432W        W90747  10.278  37.815  11.740
18433W        W90748  27.599  29.370   0.861
18434W        W90749  17.341  41.358  10.416
18435W        W90750  31.402  41.809  14.896
18436W        W90751  28.578  19.930  12.237
18437W        W90752  13.849  31.074   1.929
18438W        W90753   4.973  19.148   1.225
18439W        W90754   5.466  30.098  12.896
18440W        W90755  11.759   7.596   1.739
18441W        W90756  10.797  31.966   0.741
18442W        W90757   7.606  39.097   4.059
18443W        W90758   8.884  30.080   3.776
18444W        W90759  16.156  36.229  10.589
18445W        W90760  41.477  38.599  14.628
18446W        W90761  40.240  29.341   0.396
18447W        W90762   9.877  23.640  11.849
18448W        W90763   3.251   7.716  10.624
18449W        W90764  20.657  22.217   3.131
18450W        W90765  21.407  14.709  11.909
18451W        W90766   2.766  38.940  10.693
18452W        W90767   7.106  28.178  12.955
18453W        W90768  41.251  16.914  14.573
18454W        W90769   4.289  22.406  13.508
18455W        W90770   1.353  31.732   1.329
18456W        W90771  23.092  11.168  10.685
18457W        W90772   8.131  36.035  13.272
18458W        W90773   1.104  28.145  13.467
18459W        W90774  21.092  26.636  12.979
18460W        W90775  23.602  37.076   2.328
18461W        W90776  35.350   4.667  10.656
18462W        W90777  35.232  12.342   0.168
18463W        W90778   8.974  38.713  14.918
18464W        W90779  10.904   3.343   3.702
18465W        W90780   3.483   4.396  14.865
18466W        W90781  14.317  15.392   4.106
18467W        W90782  15.857  13.413  10.703
18468W        W90783   0.310   1.675  10.645
18469W        W90784  22.497  22.637  14.297
18470W        W90785  14.783  13.570   0.330
18471W        W90786  18.721  23.464  13.623
18472W        W90787  24.810  41.939  10.545
18473W        W90788   4.207   2.903  14.309
18474W        W90789   3.859  28.558  13.824
18475W        W90790   5.407  36.972   0.491
18476W        W90791  40.039  36.545   4.566
18477W        W90792  19.625  22.681  11.194
18478W        W90793  14.014   4.697  11.141
18479W        W90794  33.480   0.956  13.766
18480W        W90795  27.066  15.690  11.171
18481W        W90796  13.066   2.456  12.423
18482W        W90797  11.432  42.360   0.626
18483W        W90798  10.794  38.508  12.886
18484W        W90799   2.490   5.096  11.059
18485W        W90800  32.395  26.593  12.447
18486W        W90801  18.173  14.081   3.687
18487W        W90802  28.213   6.288   4.487
18488W        W90803  12.525  43.218   3.217
18489W        W90804   0.384  27.357   2.441
18490W        W90805   1.543   3.490   2.648
18491W        W90806  29.423  38.520  13.921
18492W        W90807  38.168  33.004  14.387
18493W        W90808  32.669  42.798   2.216
18494W        W90809  21.521  31.941  11.315
18495W        W90810  37.453  31.537   1.306
18496W        W90811   6.919  32.660  11.026
18497W        W90812  18.879  38.131  14.917
18498W        W90813  43.825  10.445   1.217
18499W        W90814   3.949  44.237  11.832
18500W        W90815  15.766  11.473  10.310
18501W        W90816  40.040  11.362   0.987
18502W        W90817  19.403  36.416   3.862
18503W        W90818   0.923  25.251  12.175
18504W        W90819  39.215  17.134   3.159
18505W        W90820  36.289  28.067   0.949
18506W        W90821   0.105  17.472  13.665
18507W        W90822  13.573  34.601  14.522
18508W        W90823   9.104  14.580  12.949
18509W        W90824  42.868  13.243   1.079
18510W        W90825  16.815  22.966   3.470
18511W        W90826  34.911  14.189   4.052
18512W        W90827  29.261  38.764  12.150
18513W        W90828  21.233   9.512  11.238
18514W        W90829   0.730  12.124   0.341
18515W        W90830   1.650  18.777   0.919
18516W        W90831  11.169  44.170   2.342
18517W        W90832  28.410  18.527   1.870
18518W        W90833  24.081  12.499   4.382
18519W        W90834  16.721   8.203  12.882
18520W        W90835   4.652  27.567  13.335
18521W        W90836   2.439  36.915  11.773
18522W        W90837  15.354   8.585  10.614
18523W        W90838  40.678  24.174  14.699
18524W        W90839  16.944  17.923   0.303
18525W        W90840  13.185   3.938   2.745
18526W        W90841  19.091  38.901  14.414
18527W        W90842  23.620   9.981  10.133
18528W        W90843  31.183  17.179  13.419
18529W        W90844  29.376  40.423  13.111
18530W        W90845  17.821   9.698  11.973
18531W        W90846  38.164  11.357  11.592
18532W        W90847  29.438   5.357   0.064
18533W        W90848  28.420  37.481  11.564
18534W        W90849  21.670  18.372  12.374
18535W        W90850   5.688  41.391  13.010
18536W        W90851  41.478  14.677  13.985
18537W        W90852  31.942   6.423  12.965
18538W        W90853   1.396  27.572   4.473
18539W        W90854  40.541   4.681  12.253
18540W        W90855  39.508  44.532  12.461
18541W        W90856  30.428  33.335  14.123
18542W        W90857  31.454  25.304   2.866
18543W        W90858  28.047   3.701  11.902
18544W        W90859  29.494  10.389  10.618
18545W        W90860  41.609  44.860  11.974
18546W        W90861  38.338  34.772  13.558
18547W        W90862  14.326  11.835   3.744
18548W        W90863  16.725  42.872  11.747
18549W        W90864  19.464  28.556   4.060
18550W        W90865  10.321  40.077   0.234
18551W        W90866   3.078   9.563   1.708
18552W        W90867  16.150   1.477  11.631
18553W        W90868   1.314   0.726   3.636
18554W        W90869   7.647  38.909   3.187
18555W        W90870  18.851   3.331   2.846
18556W        W90871  27.910  35.832   2.937
18557W        W90872  30.009   3.722  12.738
18558W        W90873   8.764  40.322   3.667
18559W        W90874   2.853   6.361   3.952
18560W        W90875  23.253  12.228   1.907
18561W        W90876  11.044  27.457   3.728
18562W        W90877  20.542   6.353  13.801
18563W        W90878  37.864  12.428  14.809
18564W        W90879  17.306  44.488   4.043
18565W        W90880  43.100   3.771   3.239
18566W        W90881  21.605  16.624  12.499
18567W        W90882  27.992  20.166  13.544
18568W        W90883  35.956  17.653   3.424
18569W        W90884  20.077   0.729   2.239
18570W        W90885   4.319   1.559  14.241
18571W        W90886   8.028  29.048  11.146
18572W        W90887  27.134  25.639   2.144
18573W        W90888  18.820  36.369  10.553
18574W        W90889  33.622  36.831   2.311
18575W        W90890   2.346   0.281   0.051
18576W        W90891  22.789   4.870  11.178
18577W        W90892  19.628  25.029   3.306
18578W        W90893   1.446  20.772  13.472
18579W        W90894  16.267  29.070  11.947
18580W        W90895  17.495   0.666   3.785
18581W        W90896  14.098  43.521   4.232
18582W        W90897  43.004  43.826  13.884
18583W        W90898  12.082  19.188   1.219
18584W        W90899   6.445   4.940  12.502
18585W        W90900  10.778  37.640   3.626
18586W        W90901   3.428  41.800   1.840
18587W        W90902  36.902  40.548   3.095
18588W        W90903  17.969   7.795  11.983
18589W        W90904   4.915  23.864   3.497
18590W        W90905  27.273  13.133   1.744
18591W        W90906  28.684  35.061   0.769
18592W        W90907  13.128  36.545  14.419
18593W        W90908  13.188  32.970   3.868
18594W        W90909  16.101  23.232   0.841
18595W        W90910  42.800  16.564   4.552
18596W        W90911   8.208   9.847   0.968
18597W        W90912  12.626  24.539   2.728
18598W        W90913  10.236  37.988  11.223
18599W        W90914  35.079  40.349  13.535
18600W        W90915  20.735   5.818   3.117
18601W        W90916  13.037  42.398  12.004
18602W        W90917  20.088   2.284   0.872
18603W        W90918  27.106  14.800  14.581
18604W        W90919  28.111  35.600  12.363
18605W        W90920  26.640  18.689   4.747
18606W        W90921   6.724  14.693   2.892
18607W        W90922  24.121  15.674  12.448
18608W        W90923   5.506  29.912  14.787
18609W        W90924  35.396  36.325   0.931
18610W        W90925  34.649  40.551  13.731
18611W        W90926  39.529   8.822  13.848
18612W        W90927   4.196  37.856   3.911
18613W        W90928  16.201  39.346   2.298
18614W        W90929  16.538   7.568  12.023
18615W        W90930  19.346   3.246   1.624
18616W        W90931  31.021  33.696  13.459
18617W        W90932  10.091  30.638   0.005
18618W        W90933  33.103  18.593  14.370
18619W        W90934   1.951  17.605  11.065
18620W        W90935  24.927  18.283  12.557
18621W        W90936   7.866  39.122   3.612
18622W        W90937  35.788   1.003   1.304
18623W        W90938  10.076  34.837   4.653
18624W        W90939  30.965  41.125  12.993
18625W        W90940  37.085  20.066   2.900
18626W        W90941  28.514  43.232  11.909
18627W        W90942  21.250  36.518   0.244
18628W        W90943  21.067  11.607   0.910
18629W        W90944  26.417   0.767   0.442
18630W        W90945  12.785  11.162   4.231
18631W        W90946  15.725   8.103  12.500
18632W        W90947   7.690  41.923   0.010
18633W        W90948  34.446  42.015   3.644
18634W        W90949   3.929  31.445  12.465
18635W        W90950  20.972  36.777  12.498
18636W        W90951  23.041  24.984   3.615
18637W        W90952  12.282  38.549  12.198
18638W        W90953   1.049  31.162  14.916
18639W        W90954   4.698   1.461  12.856
18640W        W90955   0.741  40.348  10.733
18641W        W90956  14.127  23.203   2.102
18642W        W90957  42.823  29.894   0.325
18643W        W90958   0.346  39.194   3.537
18644W        W90959   5.984  19.703  11.982
18645W        W90960  11.916  15.185   3.669
18646W        W90961  10.314   6.832  12.934
18647W        W90962   9.062  14.541  11.110
18648W        W90963  27.937   6.453  13.711
18649W        W90964  26.689  25.492   0.344
18650W        W90965  10.580   5.207   0.375
18651W        W90966  29.760   4.063   0.781
18652W        W90967  10.903  19.538  10.669
18653W        W90968  39.511  29.257  10.630
18654W        W90969  25.567   3.028  14.261
18655W        W90970  17.053   2.494   2.885
18656W        W90971  10.468  10.714   1.606
18657W        W90972  26.047   2.385  14.551
18658W        W90973   0.595  23.263   2.105
18659W        W90974  32.060  15.346   2.435
18660W        W90975  29.597  40.069   1.301
18661W        W90976  37.971  23.491   0.809
18662W        W90977   1.018  39.452  14.898
18663W        W90978  20.051   4.960  13.101
18664W        W90979  43.805  20.989   0.805
18665W        W90980  38.595  22.236   0.626
18666W        W90981   8.629  25.406   4.673
18667W        W90982  38.106  15.537   3.680
18668W        W90983  29.636   7.738   0.909
18669W        W90984  39.280  24.105  10.793
18670W        W90985   8.984  33.611  10.862
18671W        W90986  40.484  32.094  12.635
18672W        W90987  22.984   5.866   3.109
18673W        W90988  13.737   0.837  14.475
18674W        W90989  21.281  29.896   3.325
18675W        W90990  26.405  21.530   2.319
18676W        W90991  10.423  24.541  12.929
18677W        W90992  12.239  31.423  12.096
18678W        W90993  19.786  28.048  13.902
18679W        W90994  32.762  44.521  10.182
18680W        W90995   1.821   4.775  14.880
18681W        W90996  23.749   0.683  13.746
18682W        W90997  21.346  40.951   0.994
18683W        W90998   2.967   2.426  13.967
18684W        W90999   0.081  15.021   2.466
18685W        W91000  17.114  23.218  14.922
18686W        W91001  31.924   8.381   1.242
18687W        W91002  41.194  10.805  13.388
18688W        W91003  18.790  17.001   2.727
18689W        W91004  19.107  20.479  13.622
18690W        W91005  44.460   9.581  14.817
18691W        W91006  16.284  31.176  13.095
18692W        W91007  12.315  41.420  13.829
18693W        W91008  17.540  41.469   3.602
18694W        W91009  36.135  12.455   2.872
18695W        W91010  20.679  11.133  11.299
18696W        W91011  37.368  23.701   1.885
18697W        W91012   6.397   3.993  14.008
18698W        W91013  28.713  44.335   0.281
18699W        W91014   4.930  10.278  14.017
18700W        W91015  36.810   6.746   0.806
18701W        W91016  25.719  36.788   1.956
18702W        W91017  44.358  21.988  12.073
18703W        W91018   1.293  39.746   3.233
18704W        W91019  29.912  28.575   0.470
18705W        W91020  12.444  35.264  14.380
18706W        W91021  24.671  39.327   1.758
18707W        W91022  24.731   8.744   2.375
18708W        W91023  35.973  21.343  14.878
18709W        W91024  22.797  27.498   0.210
18710W        W91025   4.684   1.774   3.404
18711W        W91026   6.935  17.252   2.329
18712W        W91027  15.353  38.796  11.898
18713W        W91028  18.577  19.170  11.180
18714W        W91029  12.751   8.962   1.325
18715W        W91030   4.334  24.137  14.851
18716W        W91031  18.092  31.661  14.968
18717W        W91032  41.887   7.242  13.811
18718W        W91033  16.075  35.035  11.591
18719W        W91034   3.273  32.456  12.966
18720W        W91035   9.137  18.070   4.276
18721W        W91036  11.506  10.719  13.244
18722W        W91037  13.359  44.667   1.439
18723W        W91038  41.368  38.563   1.949
18724W        W91039  29.232  39.970  10.978
18725W        W91040  21.732  34.014   2.698
18726W        W91041  18.566  43.389  11.215
18727W        W91042  16.485  34.431  11.050
18728W        W91043  42.022   0.318  14.096
18729W        W91044  23.724  32.103   4.896
18730W        W91045  40.894   5.358   4.461
18731W        W91046  26.536   1.907  13.437
18732W        W91047  29.754  22.364   4.102
18733W        W91048  10.732   8.694   1.858
18734W        W91049  20.937   8.870   1.801
18735W        W91050  16.358  36.031   4.138
18736W        W91051   0.013  40.039  12.854
18737W        W91052   1.986  37.033  14.486
18738W        W91053  30.561   7.846  11.204
18739W        W91054  38.478  29.588  12.789
18740W        W91055  32.369  13.231  11.546
18741W        W91056   7.274  27.973  13.440
18742W        W91057  42.299  25.444   4.280
18743W        W91058  43.443   3.443  11.998
18744W        W91059  44.387  18.191  10.179
18745W        W91060   5.921   8.992   0.413
18746W        W91061  44.937  10.372  14.959
18747W        W91062  44.222  22.542  14.472
18748W        W91063  29.782  26.326  11.350
18749W        W91064  24.656  30.050  11.922
18750W        W91065   4.345  37.016   1.603
18751W        W91066  13.721  28.649   1.061
18752W        W91067   0.304  15.010   2.930
18753W        W91068  29.502   7.469  14.176
18754W        W91069  27.473  33.755  14.861
18755W        W91070  32.450  43.273  10.746
18756W        W91071   4.176  40.818  13.214
18757W        W91072   1.344  24.949  12.004
18758W        W91073  20.599  14.107   3.652
18759W        W91074  40.769  35.612  14.467
18760W        W91075   6.135  31.398  12.040
18761W        W91076  40.445  21.532   0.493
18762W        W91077  29.590  19.736   4.590
18763W        W91078   9.401  36.314  12.916
18764W        W91079  26.614  43.711   2.816
18765W        W91080   6.273  33.866  10.455
18766W        W91081  29.300  11.721  10.309
18767W        W91082  32.435  41.056   0.831
18768W        W91083  24.414  20.141  10.722
18769W        W91084  41.950  18.365   2.461
18770W        W91085  38.478   1.824   3.269
18771W        W91086  17.174   0.322   3.557
18772W        W91087  42.984   6.972  11.394
18773W        W91088  37.382  24.333  13.030
18774W        W91089   8.514  32.576   4.930
18775W        W91090  12.681  14.348  14.040
18776W        W91091  27.717  37.475   0.114
18777W        W91092  11.080   4.725  11.161
18778W        W91093  15.010  26.396  12.374
18779W        W91094  44.400  24.692   0.724
18780W        W91095  24.067  11.023  12.175
18781W        W91096  21.552  26.478   2.215
18782W        W91097  13.545  27.225   2.888
18783W        W91098  25.702   0.247  13.830
18784W        W91099   1.268   4.216  14.447
18785W        W91100  17.556  43.767   2.385
18786W        W91101   1.743  18.690  12.889
18787W        W91102  40.991   7.679  10.721
18788W        W91103  20.290  35.075   4.587
18789W        W91104  16.676  14.298   4.621
18790W        W91105  10.583  18.803   4.612
18791W        W91106  34.613  37.212  14.981
18792W        W91107  40.376  43.945   1.342
18793W        W91108  31.447   0.809   1.177
18794W        W91109  28.150  36.841   2.298
18795W        W91110  28.948  23.722  10.700
18796W        W91111  42.564  24.003   2.210
18797W        W91112  25.167  40.706   2.857
18798W        W91113  17.211  41.546   9.916
18799W        W91114   3.114  15.632   2.668
18800W        W91115  14.183  42.883  12.753
18801W        W91116  13.647  18.748   0.110
18802W        W91117   0.286   8.864   4.238
18803W        W91118  35.086  28.428   2.247
18804W        W91119  29.100  36.845   1.573
18805W        W91120  23.153  42.754   0.374
18806W        W91121  15.871  31.159   1.833
18807W        W91122  27.522   4.280  13.805
18808W        W91123  20.529  38.528   0.766
18809W        W91124  18.697   4.467   4.287
18810W        W91125  14.282   8.845   0.400
18811W        W91126  30.101  43.377   2.362
18812W        W91127  39.027   6.317  14.682
18813W        W91128  33.561  13.688   4.598
18814W        W91129  17.088  12.274  11.902
18815W        W91130  16.612   6.298   2.588
18816W        W91131  43.948   7.379  14.512
18817W        W91132  44.288   3.236   3.747
18818W        W91133  12.698   1.769   3.081
18819W        W91134  41.404  17.171  12.924
18820W        W91135  16.127  16.126  14.530
18821W        W91136  32.126   5.375   4.603
18822W        W91137  39.360   3.904   4.553
18823W        W91138  32.154  34.417   3.790
18824W        W91139  33.651  24.854   0.516
18825W        W91140  19.086  23.109  13.511
18826W        W91141  39.460  25.126   3.157
18827W        W91142  20.214  17.904  11.138
18828W        W91143   1.229  27.694   0.017
18829W        W91144   1.818   0.387  11.512
18830W        W91145  30.189   3.421   2.634
18831W        W91146  20.073  27.509  10.778
18832W        W91147   8.687  11.775  10.743
18833W        W91148  20.981   6.928  12.534
18834W        W91149   8.852  24.511   0.318
18835W        W91150   5.732  40.210   2.330
18836W        W91151  43.775  27.918   4.755
18837W        W91152  15.817  15.556   2.733
18838W        W91153   0.688  19.033   4.583
18839W        W91154  21.814  35.381   0.718
18840W        W91155  23.170   9.895   4.151
18841W        W91156   9.777  25.676   1.031
18842W        W91157  35.424  40.773   2.839
18843W        W91158   0.271   1.825  12.833
18844W        W91159  42.883  37.977  10.767
18845W        W91160  41.839   0.996   2.210
18846W        W91161  20.878   7.421   4.065
18847W        W91162  18.617   1.529   4.200
18848W        W91163  17.587  39.624  14.280
18849W        W91164  17.011   5.264  12.859
18850W        W91165  12.582  36.520   1.153
18851W        W91166  39.905  18.292  12.835
18852W        W91167  28.611  31.083   3.718
18853W        W91168  14.049  33.426   0.669
18854W        W91169  21.158  26.537   1.823
18855W        W91170  25.978  34.573  11.035
18856W        W91171   4.776   9.203   4.080
18857W        W91172  29.599   6.433   3.747
18858W        W91173  29.320  25.416  12.046
18859W        W91174  13.333  32.484  11.206
18860W        W91175   2.273  33.912   2.756
18861W        W91176  28.999   6.936   4.258
18862W        W91177   8.310  10.416   2.749
18863W        W91178  26.683  24.480   1.892
18864W        W91179  15.880  25.723  11.257
18865W        W91180  20.468   5.643  11.363
18866W        W91181  27.737  13.664   3.889
18867W        W91182  41.945  11.620  13.983
18868W        W91183  24.490  43.314  11.486
18869W        W91184  21.516  24.955   1.475
18870W        W91185  19.207  24.470   4.600
18871W        W91186   6.854  40.924  12.469
18872W        W91187  11.594   7.346  11.147
18873W        W91188  22.837  35.919   9.873
18874W        W91189  20.159  33.149  10.628
18875W        W91190  35.811  39.515  12.577
18876W        W91191  23.664   7.768  14.846
18877W        W91192   7.092   3.599  10.712
18878W        W91193  28.547  39.927  12.071
18879W        W91194  10.720  39.971   4.385
18880W        W91195  36.862   5.436  11.943
18881W        W91196  42.477   8.617  12.088
18882W        W91197   7.933   3.713   4.797
18883W        W91198  17.568  28.939  13.871
18884W        W91199  10.670  16.618  11.969
18885W        W91200   1.813   0.787  14.336
18886W        W91201  35.820   1.319  10.435
18887W        W91202  19.756  28.297  10.728
18888W        W91203  29.174  32.463   0.644
18889W        W91204  35.974   8.202   3.306
18890W        W91205  24.404   1.783  13.387
18891W        W91206  21.786  18.471  10.979
18892W        W91207  29.950  24.497   4.457
18893W        W91208   0.845  34.175   1.717
18894W        W91209  33.945  33.898   0.892
18895W        W91210  35.795   0.978  13.916
18896W        W91211  20.493  12.177   0.522
18897W        W91212  41.628  27.133  12.288
18898W        W91213  30.356  26.163  14.644
18899W        W91214   7.385  30.152   1.787
18900W        W91215  44.423  15.613   4.258
18901W        W91216  30.406   8.966  12.517
18902W        W91217   7.320  10.879  12.080
18903W        W91218   2.815  28.174  10.701
18904W        W91219  31.892  14.381   1.505
18905W        W91220  24.668   6.626   0.918
18906W        W91221  15.616  28.132   5.217
18907W        W91222   0.984  34.345  12.344
18908W        W91223  34.071  30.063   3.234
18909W        W91224  34.109  33.993  10.798
18910W        W91225  15.140  34.425  13.303
18911W        W91226  11.057  31.336  10.622
18912W        W91227  21.455  29.552   3.769
18913W        W91228   1.742  17.334  14.068
18914W        W91229   8.808  20.165   4.343
18915W        W91230  15.076  11.918   4.265
18916W        W91231  30.998  15.043   0.458
18917W        W91232  34.308  44.783  14.562
18918W        W91233  28.800  34.036   9.648
18919W        W91234  22.588  13.132   0.788
18920W        W91235  20.053  41.478  12.555
18921W        W91236  40.971  23.901   3.170
18922W        W91237  34.471  24.913  11.109
18923W        W91238  33.455  14.202   4.772
18924W        W91239  28.048  16.135   3.652
18925W        W91240  25.954  38.306   1.853
18926W        W91241   1.821  33.651   2.476
18927W        W91242  39.072  23.432  14.456
18928W        W91243  36.791  11.791  11.529
18929W        W91244  32.943  39.188   3.174
18930W        W91245  27.699  14.663   4.884
18931W        W91246  31.552  28.465   4.151
18932W        W91247  10.922  37.034  11.520
18933W        W91248  41.580   7.133  13.370
18934W        W91249   7.118  37.551  12.855
18935W        W91250  42.301  32.563  12.035
18936W        W91251  39.544  23.637  10.639
18937W        W91252   8.778  37.053   0.041
18938W        W91253   3.410  16.725   0.068
18939W        W91254  11.350  42.256  12.656
18940W        W91255  31.464  19.479   4.097
18941W        W91256  19.684  35.580  12.330
18942W        W91257  25.537   5.674  11.298
18943W        W91258  26.494   6.265  14.802
18944W        W91259  21.205   7.715   0.276
18945W        W91260  22.246  30.928  11.657
18946W        W91261   7.970  24.274  10.625
18947W        W91262  21.957  16.536   1.933
18948W        W91263   2.720  28.928   3.217
18949W        W91264  20.564  16.812  10.743
18950W        W91265   8.683  21.817   2.798
18951W        W91266   6.390  11.265   4.041
18952W        W91267  27.929   2.567   1.374
18953W        W91268  16.358  44.547  11.421
18954W        W91269  34.045  36.608   1.332
18955W        W91270  33.426  11.215  13.159
18956W        W91271  31.371   9.200   1.303
18957W        W91272  35.411   1.185  11.299
18958W        W91273  18.246  34.764   3.760
18959W        W91274  26.528  11.575  10.625
18960W        W91275  10.690   2.360  10.925
18961W        W91276  13.430  15.162  12.804
18962W        W91277  25.452   5.033   2.693
18963W        W91278  31.566  26.524   5.371
18964W        W91279  26.758  37.842  14.369
18965W        W91280  24.709   8.507  10.550
18966W        W91281  30.510  38.025  11.819
18967W        W91282  40.913  16.111   1.824
18968W        W91283  35.562  11.549  12.596
18969W        W91284  26.200  39.204  13.400
18970W        W91285  29.561   6.843   3.388
18971W        W91286  21.976   9.262   2.327
18972W        W91287   7.082  43.026  10.714
18973W        W91288  31.514  29.267  11.160
18974W        W91289   0.549  25.166   1.372
18975W        W91290  37.822  19.051  10.593
18976W        W91291  21.172  25.914   0.839
18977W        W91292  38.908  13.882  10.630
18978W        W91293  29.591  27.142   3.134
18979W        W91294  10.714   6.860   5.067
18980W        W91295  26.432   8.383  13.070
18981W        W91296  33.596   2.048   0.953
18982W        W91297   2.197  17.476  11.641
18983W        W91298   9.852  19.135   1.731
18984W        W91299  40.769  17.038  14.020
18985W        W91300   1.502   2.970  13.472
18986W        W91301  34.562  19.216  14.099
18987W        W91302   6.285  17.781   4.606
18988W        W91303  14.266   7.730  11.388
18989W        W91304  17.368  31.062  13.121
18990W        W91305  13.445  35.910   0.886
18991W        W91306   2.286  30.955  12.067
18992W        W91307  43.210  29.435  13.497
18993W        W91308  20.160  40.552   1.386
18994W        W91309   0.302  22.099  13.670
18995W        W91310  41.313  30.394  11.261
18996W        W91311  30.953  31.063   1.883
18997W        W91312  40.400   1.157   0.894
18998W        W91313  22.307  19.027  12.567
18999W        W91314  41.746  23.608  13.837
19000W        W91315  13.574  32.955  12.973
19001W        W91316   9.000   7.739   3.286
19002W        W91317   2.490   8.818   3.131
19003W        W91318  23.243  13.106   0.336
19004W        W91319   5.110  41.871  12.642
19005W        W91320   0.381  14.090  13.513
19006W        W91321  44.895   9.900  10.089
19007W        W91322  10.876  43.942   3.724
19008W        W91323  37.334   0.274   4.158
19009W        W91324  23.124  43.263   2.559
19010W        W91325   4.305  17.343  11.003
19011W        W91326  34.974  21.531  10.731
19012W        W91327   8.380  35.913   4.899
19013W        W91328  36.490  15.370  12.068
19014W        W91329  30.124  44.105  12.031
19015W        W91330  26.299  35.393   2.922
19016W        W91331  37.442  11.283   0.252
19017W        W91332   0.576  17.068   0.573
19018W        W91333  36.979  16.983   4.585
19019W        W91334  21.298  35.810   1.959
19020W        W91335  28.100  31.041   4.365
19021W        W91336   2.970  34.958   4.083
19022W        W91337  18.725  17.497  14.303
19023W        W91338   8.965   9.214  12.140
19024W        W91339  21.713  28.520   0.547
19025W        W91340  31.960  12.519   2.150
19026W        W91341  31.656  20.449   4.372
19027W        W91342  17.838  29.384  13.992
19028W        W91343  34.197  21.454   5.138
19029W        W91344   9.276  22.277   1.435
19030W        W91345  19.073   5.822  11.536
19031W        W91346   6.993  28.144   3.779
19032W        W91347  13.382   7.674  12.952
19033W        W91348   6.468  16.098  11.004
19034W        W91349  33.483  15.523  14.460
19035W        W91350  39.419  31.073   2.286
19036W        W91351  15.889  38.798   1.146
19037W        W91352   1.954  37.445   3.914
19038W        W91353   0.316  28.057  12.065
19039W        W91354   2.332  17.562  14.403
19040W        W91355  35.100  36.370   1.794
19041W        W91356  23.038  22.730   9.601
19042W        W91357  22.131  26.415  11.567
19043W        W91358  11.929  19.168   4.663
19044W        W91359  18.356  33.130  14.020
19045W        W91360  42.481  30.897   4.268
19046W        W91361   0.886   8.433   5.006
19047W        W91362   5.006   7.717   0.948
19048W        W91363  25.755  34.083  11.166
19049W        W91364  37.920  31.086  14.367
19050W        W91365  14.693   9.053   4.987
19051W        W91366  17.766  10.609  11.937
19052W        W91367  11.920  16.229   1.850
19053W        W91368   8.311  40.003   2.093
19054W        W91369  11.734  24.050  14.062
19055W        W91370  30.229  19.599  11.540
19056W        W91371   9.165  20.011   1.469
19057W        W91372  28.247   8.980   2.245
19058W        W91373  23.529  32.035   3.397
19059W        W91374   3.216  31.571  11.526
19060W        W91375   9.711  26.704  11.729
19061W        W91376  11.855  43.876  13.132
19062W        W91377  19.136   7.329   3.451
19063W        W91378  17.861  36.118   2.797
19064W        W91379   4.766  19.634  12.428
19065W        W91380  37.225  10.856   3.305
19066W        W91381  25.940   1.912   3.437
19067W        W91382   1.380  28.479   0.409
19068W        W91383   5.630  22.495   0.769
19069W        W91384  26.357  24.316  10.840
19070W        W91385  41.514  41.390  13.764
19071W        W91386  16.802  38.450  10.646
19072W        W91387  24.556   3.820  13.925
19073W        W91388  43.495   5.176   1.743
19074W        W91389  38.875  44.608   3.835
19075W        W91390  25.769  33.838  14.601
19076W        W91391  29.587   3.785   2.302
19077W        W91392  21.025   2.446  13.162
19078W        W91393   0.459  32.430  14.358
19079W        W91394  12.081  18.286  13.973
19080W        W91395  24.816  40.736  13.179
19081W        W91396   6.307  21.126   0.779
19082W        W91397  17.730  29.671   0.923
19083W        W91398  35.658  36.016   3.336
19084W        W91399  10.372  22.240   0.308
19085W        W91400  30.656   9.188   3.703
19086W        W91401   4.702  37.487  10.733
19087W        W91402  25.715   5.200   4.493
19088W        W91403  12.701  38.797   2.936
19089W        W91404  21.078   1.835   2.402
19090W        W91405  25.564  21.826   0.581
19091W        W91406  44.176  18.048   2.246
19092W        W91407  44.951  42.399  13.320
19093W        W91408  23.562  44.925  14.439
19094W        W91409  18.079  21.784  13.482
19095W        W91410   0.945   3.691   4.282
19096W        W91411  10.364  22.035   2.772
19097W        W91412   9.659  36.571  10.811
19098W        W91413   4.259  26.228   4.149
19099W        W91414  43.598  43.960   0.717
19100W        W91415  36.407   8.784  10.621
19101W        W91416  15.098  35.481  10.780
19102W        W91417  14.785  35.646   0.367
19103W        W91418   1.295  34.394   4.053
19104W        W91419  43.605   7.182   0.297
19105W        W91420  26.658  36.298   2.502
19106W        W91421  13.586  15.580   2.273
19107W        W91422   7.747  23.456  13.932
19108W        W91423  13.714  33.902  14.828
19109W        W91424  21.524  13.071  13.847
19110W        W91425  21.481  13.590   3.779
19111W        W91426  18.840  19.754   2.989
19112W        W91427  36.791   2.321  12.358
19113W        W91428  29.864   7.468  12.911
19114W        W91429  16.604  34.604  13.299
19115W        W91430  37.946  40.884   2.591
19116W        W91431  25.811  10.178   4.639
19117W        W91432  14.763  32.196   0.284
19118W        W91433  30.911  44.007   3.236
19119W        W91434  36.403  29.553   3.662
19120W        W91435  36.091  35.633  13.174
19121W        W91436   6.132  29.433   3.738
19122W        W91437   1.250  30.684  11.133
19123W        W91438  36.824   9.069   2.530
19124W        W91439  42.433  18.848  14.300
19125W        W91440  12.876  16.602   0.715
19126W        W91441  41.950  41.116  11.671
19127W        W91442   0.030  32.781  14.324
19128W        W91443  28.663  10.674   3.593
19129W        W91444  23.521  18.246  12.302
19130W        W91445   1.228  31.604   2.195
19131W        W91446   1.590  23.443   3.943
19132W        W91447  41.799  36.997  10.729
19133W        W91448  12.767  29.562  12.751
19134W        W91449   1.183  39.357   1.279
19135W        W91450  20.535  17.354  14.825
19136W        W91451   4.365  32.975  13.472
19137W        W91452  28.017   0.145  12.013
19138W        W91453  31.236   0.217  11.545
19139W        W91454  28.407  29.984   4.561
19140W        W91455  37.457  28.144  14.232
19141W        W91456  41.022  13.763   3.212
19142W        W91457  40.299   8.771   5.036
19143W        W91458   9.646  34.069  14.888
19144W        W91459  21.755  37.597   2.412
19145W        W91460  20.088  42.105   4.616
19146W        W91461  24.618  28.501   1.534
19147W        W91462   0.777  38.020   2.062
19148W        W91463  26.579   4.779  13.440
19149W        W91464  24.639  19.790  11.523
19150W        W91465  12.129  15.722  14.472
19151W        W91466  24.288  29.967  10.956
19152W        W91467   6.027  32.112   1.207
19153W        W91468  10.880  25.444  13.758
19154W        W91469  41.992  23.195   1.533
19155W        W91470  40.671  25.349  13.280
19156W        W91471  18.073  15.295  14.204
19157W        W91472  20.638  43.703   0.291
19158W        W91473  26.187  15.895   3.667
19159W        W91474  30.926  33.977  11.829
19160W        W91475  13.416  37.606   0.211
19161W        W91476  42.996  42.324   1.399
19162W        W91477  39.289   7.288   1.424
19163W        W91478  35.908  15.490  12.534
19164W        W91479  20.333  17.122  13.485
19165W        W91480  27.676  40.405   5.115
19166W        W91481  42.443  27.987   3.708
19167W        W91482  14.469  33.726   0.869
19168W        W91483  13.583  28.080  12.562
19169W        W91484  20.687  31.940  10.825
19170W        W91485  28.502  28.039   2.362
19171W        W91486  16.101  32.162  11.244
19172W        W91487  29.573  39.019  13.906
19173W        W91488  34.906  33.948  14.840
19174W        W91489  43.502  43.591   3.533
19175W        W91490  33.946  16.394  13.988
19176W        W91491  33.173  25.871   3.719
19177W        W91492  21.485  27.183  14.504
19178W        W91493  24.181   6.472   2.307
19179W        W91494  15.592   9.946   0.017
19180W        W91495  13.062  29.069  10.987
19181W        W91496  27.473  16.915  13.801
19182W        W91497  17.507  25.153  12.072
19183W        W91498  12.930  42.908   4.601
19184W        W91499  22.807  15.576   2.240
19185W        W91500  37.497  10.662   2.414
19186W        W91501  11.167  29.524  11.144
19187W        W91502   7.385  38.900   3.642
19188W        W91503   3.117  43.644  13.952
19189W        W91504  25.075  40.853   4.594
19190W        W91505  33.439  10.697  11.921
19191W        W91506  19.291  20.363   2.582
19192W        W91507  22.553  13.703  14.308
19193W        W91508  32.870  20.801   2.562
19194W        W91509  11.762   1.475  13.828
19195W        W91510  29.649   5.476  12.146
19196W        W91511  19.130   4.217  13.934
19197W        W91512  29.129  14.215  10.081
19198W        W91513  31.371  27.587   2.861
19199W        W91514  24.574  30.600  14.615
19200W        W91515  36.811  33.443  13.647
19201W        W91516  20.776  11.564  11.557
19202W        W91517  32.653  30.948  13.454
19203W        W91518  17.711  15.197   1.097
19204W        W91519  31.028  25.509  11.618
19205W        W91520  14.779  28.110  10.725
19206W        W91521  44.816  34.836   2.818
19207W        W91522  30.443  29.596   1.712
19208W        W91523  34.469  41.958  14.595
19209W        W91524  18.109   9.378  11.665
19210W        W91525  34.618   7.097  14.381
19211W        W91526   7.176  31.920   0.043
19212W        W91527   8.083   7.518  14.882
19213W        W91528  43.429  22.644   1.919
19214W        W91529   8.802   1.527  13.009
19215W        W91530  29.266  30.491   2.362
19216W        W91531  21.305  35.118   3.309
19217W        W91532  35.886  38.945  11.989
19218W        W91533  13.005  38.941  10.654
19219W        W91534  10.094  24.545   4.903
19220W        W91535  12.539  12.368  12.343
19221W        W91536   1.714  31.396   2.225
19222W        W91537   0.935  13.223  14.997
19223W        W91538  10.686   0.991   2.294
19224W        W91539  24.281  30.478   0.349
19225W        W91540  40.465   9.665  13.146
19226W        W91541   3.697  41.365  10.631
19227W        W91542   2.238  44.486   0.934
19228W        W91543  25.699  31.356  14.509
19229W        W91544  21.147  22.101   3.269
19230W        W91545  31.861  23.543  12.922
19231W        W91546   7.459  33.862   3.603
19232W        W91547   3.832   2.858  12.490
19233W        W91548  40.572  34.033   2.805
19234W        W91549  21.033  36.204   5.068
19235W        W91550  21.009  38.284   0.835
19236W        W91551   4.199  10.896  12.477
19237W        W91552  17.734  31.045  12.081
19238W        W91553  42.976  28.309   4.933
19239W        W91554   8.302  23.196   2.431
19240W        W91555  12.299  42.769  12.480
19241W        W91556  42.561   3.425  13.608
19242W        W91557  37.343  44.550  14.382
19243W        W91558   8.121  36.385   1.917
19244W        W91559  31.923   7.169   4.104
19245W        W91560  34.855  41.704   3.745
19246W        W91561  32.798  44.214  13.301
19247W        W91562  43.904  39.963   1.489
19248W        W91563  18.751   8.611   0.209
19249W        W91564  16.516   7.157  10.649
19250W        W91565  27.069  36.849   4.581
19251W        W91566  20.505  18.509  12.511
19252W        W91567   5.273  31.618  13.578
19253W        W91568  11.659  22.338  11.678
19254W        W91569  17.678  19.614  13.574
19255W        W91570  39.893  42.428   2.685
19256W        W91571  18.967   3.430  10.710
19257W        W91572  41.799  15.209   3.133
19258W        W91573  32.599  38.606  12.509
19259W        W91574  40.359  20.018  11.612
19260W        W91575  24.642  20.137  14.909
19261W        W91576  16.633  22.942  13.158
19262W        W91577  35.906   4.615  14.272
19263W        W91578  15.176  20.058   1.074
19264W        W91579   6.986  42.056   1.379
19265W        W91580  29.297   9.530   1.493
19266W        W91581   0.298  16.521   2.774
19267W        W91582   9.697  39.046   3.060
19268W        W91583  38.782   2.679  10.241
19269W        W91584  25.866  16.862   3.738
19270W        W91585  43.175  40.133  13.358
19271W        W91586  20.195  35.159   0.323
19272W        W91587  23.971  43.723   2.569
19273W        W91588  43.088  35.996  14.411
19274W        W91589  26.418  17.668  14.414
19275W        W91590  11.637  16.016   1.464
19276W        W91591  35.545  16.484  14.362
19277W        W91592  41.052  24.479  11.926
19278W        W91593  14.100   7.232  11.542
19279W        W91594  43.798  34.375  10.773
19280W        W91595  35.160  13.375   0.839
19281W        W91596   4.614  27.247  14.936
19282W        W91597  38.945  38.347   3.119
19283W        W91598  23.620  41.113  13.344
19284W        W91599  40.784  32.229  11.083
19285W        W91600  31.902  31.394   1.343
19286W        W91601  36.467  28.128   3.690
19287W        W91602  33.010  36.228  10.766
19288W        W91603  42.208  31.475  14.345
19289W        W91604  15.661  14.639  11.568
19290W        W91605  34.553  40.585   1.772
19291W        W91606  30.845   8.431  12.049
19292W        W91607  15.216  17.800   4.099
19293W        W91608  26.043  17.348  13.357
19294W        W91609  17.773  36.507  13.456
19295W        W91610   2.896  19.552   3.290
19296W        W91611  40.557   4.058   4.764
19297W        W91612  33.439  23.306   5.156
19298W        W91613  36.533   9.639   2.851
19299W        W91614  10.273  26.125  13.283
19300W        W91615  35.583  31.352   4.837
19301W        W91616  41.234  26.219  10.845
19302W        W91617  13.657  21.655   0.871
19303W        W91618  41.170   9.223  12.858
19304W        W91619  37.858   5.351  14.985
19305W        W91620  40.475  36.525  10.496
19306W        W91621  30.671   4.690  14.840
19307W        W91622   0.174  17.881   4.051
19308W        W91623  16.886  11.963  10.980
19309W        W91624  28.577   9.204   4.645
19310W        W91625  18.800  37.890   4.269
19311W        W91626  44.774   3.759   0.995
19312W        W91627  42.431   8.993  13.399
19313W        W91628  33.069  16.328   1.720
19314W        W91629  44.225  41.842  11.225
19315W        W91630  22.079   4.421   3.744
19316W        W91631   7.932  23.417   4.367
19317W        W91632  16.155  19.750   3.774
19318W        W91633  39.534  17.099  12.056
19319W        W91634   9.682  41.046   2.829
19320W        W91635  12.603  13.793   3.824
19321W        W91636  43.359  30.653  10.370
19322W        W91637  26.628  25.793   3.310
19323W        W91638  40.018  12.543  11.554
19324W        W91639   8.817   7.557   4.093
19325W        W91640  33.648  29.103   4.283
19326W        W91641  39.069  15.684   3.207
19327W        W91642  28.018  29.953   0.559
19328W        W91643   4.331  30.627   0.027
19329W        W91644  26.260  24.009  12.077
19330W        W91645   3.269  15.413   0.946
19331W        W91646   2.006  11.218  13.047
19332W        W91647  21.454  38.010   0.959
19333W        W91648  31.174  19.046   1.478
19334W        W91649  16.068  43.309   2.138
19335W        W91650  19.473  35.171   1.883
19336W        W91651   6.237   3.044  14.148
19337W        W91652  22.565  21.998   4.199
19338W        W91653   5.880   4.993  11.596
19339W        W91654   9.256  23.559   3.151
19340W        W91655  39.475  44.248   2.624
19341W        W91656  34.763  22.451   4.174
19342W        W91657  27.222  15.467   3.282
19343W        W91658  21.995   3.311  11.695
19344W        W91659  35.471  36.538  12.376
19345W        W91660  14.487  25.699   3.297
19346W        W91661  42.055   8.421   3.220
19347W        W91662  15.020  17.085  12.185
19348W        W91663  20.784  25.135   1.869
19349W        W91664   8.842  34.453  11.753
19350W        W91665  41.879  33.351  14.985
19351W        W91666  15.081  31.935  13.818
19352W        W91667  41.983  25.623  12.201
19353W        W91668  35.855  13.324  13.432
19354W        W91669  14.657  10.386  14.965
19355W        W91670  27.685  22.139   0.708
19356W        W91671   4.717   0.760  12.577
19357W        W91672  24.662  11.060   1.640
19358W        W91673   6.637  16.830   2.354
19359W        W91674  21.883  17.435   0.925
19360W        W91675   0.718   6.381   1.175
19361W        W91676  42.535  31.062  14.288
19362W        W91677  37.219  40.525  13.734
19363W        W91678   6.534   4.679  11.104
19364W        W91679  36.653  38.382   0.011
19365W        W91680   7.429  24.467   4.936
19366W        W91681  19.173  41.521  12.070
19367W        W91682  23.730  44.196  13.822
19368W        W91683  13.543  18.745   1.377
19369W        W91684   8.642  11.709   4.052
19370W        W91685  10.190  29.751   5.026
19371W        W91686  44.363  15.077   0.373
19372W        W91687  44.209  17.104  13.923
19373W        W91688  29.502   8.218   0.735
19374W        W91689   2.116   0.507   1.057
19375W        W91690  16.893  10.922  12.022
19376W        W91691  25.472  36.416  11.617
19377W        W91692  15.680  30.934   1.382
19378W        W91693   6.762  13.096  12.482
19379W        W91694  17.155  43.088  11.970
19380W        W91695  10.748  22.764   2.794
19381W        W91696  31.144   6.481   0.228
19382W        W91697  39.155  21.198  11.180
19383W        W91698   6.911  14.194   0.878
19384W        W91699   8.315   0.264  13.987
19385W        W91700  43.290   7.721   3.616
19386W        W91701  20.383  11.016   2.261
19387W        W91702  12.088   3.267  14.440
19388W        W91703  26.624  30.804  14.540
19389W        W91704  32.136  16.079  12.582
19390W        W91705  15.770   8.190   1.903
19391W        W91706  20.242   3.646   0.390
19392W        W91707  32.633  43.213  14.964
19393W        W91708   1.316  30.882   0.319
19394W        W91709  19.538  11.782   2.698
19395W        W91710  13.942   0.663   0.759
19396W        W91711  25.949   2.197  12.996
19397W        W91712  11.867   2.451  13.011
19398W        W91713  21.234  31.978  14.883
19399W        W91714  36.890  41.460  12.979
19400W        W91715  37.335  22.729  11.098
19401W        W91716  44.914  27.390   2.212
19402W        W91717  35.725  16.320   1.243
19403W        W91718  30.090   6.829   3.449
19404W        W91719   7.803  44.116   3.192
19405W        W91720   6.163  19.628   3.350
19406W        W91721  32.343  44.441   4.617
19407W        W91722  34.806  21.663   2.468
19408W        W91723  13.342  39.313   3.724
19409W        W91724  13.637  27.573  14.287
19410W        W91725  29.434  32.257   1.826
19411W        W91726   0.874  38.524   3.243
19412W        W91727  32.074  19.279  14.736
19413W        W91728  33.131  26.110  13.035
19414W        W91729  42.764   9.119  10.805
19415W        W91730   7.175   0.337  10.726
19416W        W91731   3.420  21.075  11.626
19417W        W91732  12.730  19.487   3.718
19418W        W91733  36.983   7.966  12.072
19419W        W91734  25.764  36.714   0.375
19420W        W91735  21.561  16.824   4.565
19421W        W91736   6.311   2.513  12.019
19422W        W91737  27.525   2.355  12.058
19423W        W91738  32.069  34.827  12.116
19424W        W91739   5.918  20.076   1.707
19425W        W91740   8.871   3.845   2.787
19426W        W91741  27.031  12.310   2.718
19427W        W91742  33.339  28.074   0.470
19428W        W91743   4.636  40.361  12.413
19429W        W91744  17.729   5.903   1.895
19430W        W91745   1.017   0.500  13.413
19431W        W91746  38.856  22.290  12.423
19432W        W91747  13.341   2.287   3.259
19433W        W91748  19.216  14.591  12.762
19434W        W91749  35.368  22.508   0.508
19435W        W91750   6.237  41.996  13.440
19436W        W91751  26.432  17.827   2.668
19437W        W91752  11.139   9.779  11.645
19438W        W91753  32.089   6.971   0.404
19439W        W91754  38.472  20.995  13.874
19440W        W91755  22.507  20.265   1.958
19441W        W91756  18.500  30.548  12.829
19442W        W91757  22.611   9.762   0.329
19443W        W91758   5.244  39.323   4.118
19444W        W91759   8.713  14.246   3.709
19445W        W91760  38.425  44.847   1.143
19446W        W91761  39.361  27.813   4.858
19447W        W91762   7.800  13.448  11.022
19448W        W91763  14.776  34.895   2.765
19449W        W91764  16.218   2.197   0.870
19450W        W91765  17.504  20.703  11.904
19451W        W91766  21.778  19.843  10.260
19452W        W91767  36.522  27.144   2.240
19453W        W91768  30.003  36.411   3.410
19454W        W91769   7.153  24.253   3.268
19455W        W91770  21.159  16.772  14.383
19456W        W91771  15.642  39.345  12.104
19457W        W91772  28.990  14.227   4.496
19458W        W91773  40.362  39.850  12.582
19459W        W91774   8.760  21.154   0.481
19460W        W91775  41.398  22.234  14.243
19461W        W91776  26.709  19.177   4.615
19462W        W91777  32.352  35.570   3.230
19463W        W91778  25.384  25.092  11.092
19464W        W91779  25.986  20.043  13.594
19465W        W91780   4.648   0.909   2.722
19466W        W91781  11.289  22.619   2.620
19467W        W91782   2.771  21.550  11.941
19468W        W91783   7.094  16.528  12.307
19469W        W91784   7.847  34.658  13.849
19470W        W91785  14.139  42.227   0.636
19471W        W91786  16.186   5.955   3.664
19472W        W91787   8.349  28.494   2.702
19473W        W91788  37.519   4.391   0.767
19474W        W91789  17.072  11.223   1.975
19475W        W91790  32.092  16.163  14.234
19476W        W91791   1.941   6.629   2.997
19477W        W91792  38.109   6.987  14.213
19478W        W91793  19.391   0.336   0.726
19479W        W91794   4.275  34.053  10.549
19480W        W91795   4.284  34.358  10.984
19481W        W91796  28.048   2.312  14.748
19482W        W91797  43.889   3.196  11.035
19483W        W91798  30.858  20.738   1.064
19484W        W91799   1.340  12.073   1.232
19485W        W91800  39.428  19.580   0.958
19486W        W91801  24.218   1.657   3.220
19487W        W91802  27.114   4.938   0.326
19488W        W91803   5.285  14.532   1.972
19489W        W91804  34.392  41.384  12.085
19490W        W91805  10.903  44.529   2.057
19491W        W91806  21.037   1.167   0.160
19492W        W91807  44.248  26.167   0.860
19493W        W91808  30.723  26.682   2.673
19494W        W91809   2.951  18.054  11.787
19495W        W91810   0.465  10.529  10.623
19496W        W91811  18.105  26.417  12.780
19497W        W91812   8.460  39.435  10.904
19498W        W91813  38.934  29.080  11.991
19499W        W91814  32.474  19.806   0.493
19500W        W91815  32.332  11.245  14.121
19501W        W91816  37.386  28.542   4.598
19502W        W91817   9.186  31.024   2.443
19503W        W91818   9.841  40.851   1.084
19504W        W91819  23.317  39.353  11.072
19505W        W91820   9.062  13.091   2.883
19506W        W91821   3.260  44.877   4.097
19507W        W91822  38.443  24.972  14.345
19508W        W91823  10.885  23.934  13.697
19509W        W91824   5.834   5.878  13.466
19510W        W91825  36.530  35.365  13.226
19511W        W91826  15.049  43.816   3.301
19512W        W91827  28.257  36.246  11.648
19513W        W91828  23.559   6.883   0.358
19514W        W91829  37.761  31.141   4.180
19515W        W91830  35.682  41.464  12.410
19516W        W91831  44.615  13.156   0.470
19517W        W91832  22.481  43.060   4.560
19518W        W91833  24.345  35.935   2.634
19519W        W91834  16.326  28.461  11.083
19520W        W91835  18.153   2.970   4.437
19521W        W91836   6.432  23.039  11.656
19522W        W91837  16.557  41.586  11.123
19523W        W91838  15.081  10.285  12.625
19524W        W91839  14.615  28.109   4.281
19525W        W91840  24.969  39.952  14.282
19526W        W91841  12.712  37.953  12.500
19527W        W91842  10.888  40.990  13.315
19528W        W91843  27.216  41.849  12.040
19529W        W91844  11.894  21.180   5.125
19530W        W91845  25.432  34.545  13.900
19531W        W91846   4.781  18.090   1.259
19532W        W91847  39.885  20.820   2.828
19533W        W91848  17.658  16.026   1.754
19534W        W91849  41.460  41.345   2.935
19535W        W91850   4.225  21.786   2.299
19536W        W91851  18.860  33.037   4.688
19537W        W91852   8.453  27.583  13.676
19538W        W91853  13.081  44.666   4.560
19539W        W91854  34.887   0.386  14.981
19540W        W91855   5.424   8.818   1.409
19541W        W91856   4.210  10.590   3.630
19542W        W91857  13.834  29.084  12.717
19543W        W91858  33.600  31.582  10.268
19544W        W91859  15.312  27.952   0.812
19545W        W91860  34.514  29.354   0.525
19546W        W91861   2.366   1.291   2.667
19547W        W91862  20.594   9.673  11.877
19548W        W91863  10.683  16.756   2.183
19549W        W91864   3.810  31.474   1.247
19550W        W91865  34.997  35.638  11.629
19551W        W91866  10.168   9.066  10.842
19552W        W91867  16.696   0.457  12.851
19553W        W91868   2.430  16.803  12.868
19554W        W91869  20.329  25.672  11.084
19555W        W91870  18.185   3.184  10.272
19556W        W91871  24.203   5.967   2.211
19557W        W91872  29.145  33.231  11.006
19558W        W91873   3.797   3.468   1.754
19559W        W91874  37.807  43.264  14.539
19560W        W91875  38.369  24.472   1.770
19561W        W91876  13.225  13.295  14.906
19562W        W91877  21.755   8.304  14.561
19563W        W91878  30.133  21.792  11.065
19564W        W91879   9.376  23.230  12.437
19565W        W91880  15.710  10.181  10.246
19566W        W91881   8.866  44.107   1.275
19567W        W91882  40.741   0.756   4.589
19568W        W91883   5.719  30.949   0.531
19569W        W91884  28.947   7.851   0.298
19570W        W91885  29.442  28.513  13.753
19571W        W91886  33.835  44.245  11.086
19572W        W91887  36.441  23.556  14.101
19573W        W91888   8.296  11.130  12.586
19574W        W91889   5.361  12.744  11.012
19575W        W91890   1.224  25.058  13.435
19576W        W91891  31.125  10.592   1.404
19577W        W91892  39.017  25.191  14.993
19578W        W91893   6.016  29.563   0.780
19579W        W91894   3.378  35.784  12.998
19580W        W91895  22.668   1.986   1.266
19581W        W91896  31.465  25.986  12.450
19582W        W91897  17.750  43.224  11.637
19583W        W91898  33.106  16.119  11.066
19584W        W91899   1.973  17.161  13.592
19585W        W91900   1.321  28.479   3.321
19586W        W91901  28.706  15.472   1.726
19587W        W91902  39.892   5.258  11.210
19588W        W91903  42.338  16.959   0.353
19589W        W91904  24.554   4.736  11.930
19590W        W91905  25.644   1.565  14.369
19591W        W91906  15.278  37.460  12.188
19592W        W91907   0.501  17.842   3.211
19593W        W91908  17.114  28.061   1.234
19594W        W91909   4.749  10.822  10.016
19595W        W91910  36.091  25.548  13.130
19596W        W91911  13.616  25.180   4.762
19597W        W91912  29.627  13.126  10.144
19598W        W91913  25.014  18.792   4.221
19599W        W91914   2.741  39.423   3.158
19600W        W91915  30.552   8.494   4.201
19601W        W91916   5.291  22.514  13.447
19602W        W91917  18.046  30.950  10.658
19603W        W91918  37.328   8.933  12.319
19604W        W91919  29.109  16.060  14.038
19605W        W91920   5.170  13.696   3.792
19606W        W91921  22.576  19.793   2.668
19607W        W91922  29.246  33.811  12.386
19608W        W91923  15.981  38.757  14.904
19609W        W91924  44.848  28.472  11.086
19610W        W91925   4.899   7.462  13.327
19611W        W91926  31.792   3.050   3.647
19612W        W91927   6.142  23.256  12.018
19613W        W91928   8.220   3.188  11.383
19614W        W91929  37.571  38.797   2.311
19615W        W91930  15.286  27.035   3.750
19616W        W91931  29.941  27.469  11.681
19617W        W91932  19.522  22.177  12.552
19618W        W91933  38.561   7.260   2.439
19619W        W91934  18.367  32.730  13.346
19620W        W91935  18.051  19.051  13.967
19621W        W91936  29.180  11.274   2.845
19622W        W91937   8.851   9.086   1.743
19623W        W91938   9.814   6.663   1.287
19624W        W91939  18.950  21.465   4.545
19625W        W91940  18.883  23.279  11.995
19626W        W91941  41.529  27.708   0.987
19627W        W91942  42.048   3.509  12.322
19628W        W91943  42.346  38.815  11.045
19629W        W91944  28.765  36.856   3.105
19630W        W91945  36.111  29.474  12.098
19631W        W91946  14.624  26.574   2.758
19632W        W91947  25.582  12.157  14.358
19633W        W91948  29.034  27.891   2.508
19634W        W91949  30.702  44.380   0.322
19635W        W91950  44.186  10.762   0.303
19636W        W91951  17.674   1.389  14.256
19637W        W91952  28.153  26.716  14.855
19638W        W91953  24.123  33.573   0.974
19639W        W91954  44.802  29.108   4.131
19640W        W91955  22.987  15.873  14.339
19641W        W91956   0.506  19.052  12.319
19642W        W91957  28.343  14.193   2.527
19643W        W91958   0.038   2.237  14.876
19644W        W91959  19.083  37.745  11.620
19645W        W91960  13.461  44.939  10.654
19646W        W91961  15.035  22.692  14.013
19647W        W91962  37.716  27.994  11.462
19648W        W91963  43.238   1.865  11.042
19649W        W91964  33.647   9.575  11.221
19650W        W91965  23.603  30.405  12.528
19651W        W91966  41.037   4.799   0.554
19652W        W91967  15.021   8.666   3.361
19653W        W91968   6.213  26.982   0.305
19654W        W91969  33.470  22.036  11.153
19655W        W91970   2.479  31.398   2.685
19656W        W91971  27.783  25.331   2.694
19657W        W91972   0.467  14.637   0.388
19658W        W91973  22.971  34.333  13.360
19659W        W91974  21.603  24.233  14.743
19660W        W91975  20.721  29.264  14.955
19661W        W91976  36.063   7.574   0.688
19662W        W91977   1.655  29.003  13.052
19663W        W91978  28.154   7.506   2.329
19664W        W91979  34.689  32.919  10.730
19665W        W91980  39.649  26.048   5.022
19666W        W91981  41.494   3.243  14.017
19667W        W91982  10.691  42.591   2.856
19668W        W91983  21.140  13.228   1.876
19669W        W91984   8.941  36.286   1.320
19670W        W91985  20.628  26.763  14.350
19671W        W91986  32.590  10.159   1.936
19672W        W91987  28.128  17.761  10.656
19673W        W91988   1.440  14.124   4.189
19674W        W91989  10.054   1.324   4.582
19675W        W91990  39.999  32.019  10.569
19676W        W91991  23.654   7.914  12.939
19677W        W91992  22.687  28.482   4.289
19678W        W91993  30.233  36.520  11.087
19679W        W91994  17.263  31.583   4.056
19680W        W91995  38.988   6.362   2.218
19681W        W91996  40.933  15.039  12.841
19682W        W91997  20.581  33.048   0.874
19683W        W91998  37.357   2.263   3.826
19684W        W91999  32.012  24.533  12.104
19685W        W92000  14.287  40.260  14.169
19686W        W92001  40.325   8.106   1.720
19687W        W92002  25.240  37.401   3.043
19688W        W92003  35.640   9.635   0.482
19689W        W92004  43.879  10.095   4.463
19690W        W92005  37.854  31.165  12.600
19691W        W92006  23.564  11.688   0.378
19692W        W92007  34.381  42.529   0.628
19693W        W92008   8.597  34.410   2.879
19694W        W92009  37.293  31.044   1.691
19695W        W92010  43.985  28.943  10.480
19696W        W92011  26.883  40.227   0.840
19697W        W92012  17.503  27.297  13.881
19698W        W92013  41.401  11.693   3.432
19699W        W92014  39.070  36.780   1.148
19700W        W92015   1.062   9.222  13.328
19701W        W92016  30.613  18.866  13.984
19702W        W92017  41.912  18.669   0.173
19703W        W92018   9.103  20.706   2.423
19704W        W92019   0.001   2.277  12.810
19705W        W92020   5.357  19.075  12.865
19706W        W92021  29.102   1.789  14.930
19707W        W92022  16.655  32.399  14.452
19708W        W92023  13.833  43.538  10.765
19709W        W92024  37.356   9.414  10.471
19710W        W92025  29.023   6.814  13.700
19711W        W92026  26.405  44.940   2.346
19712W        W92027   9.272  15.700   4.106
19713W        W92028  26.432   2.899   4.103
19714W        W92029  35.013  34.944  12.869
19715W        W92030  42.330  28.117  12.003
19716W        W92031   5.402  40.402   2.935
19717W        W92032  26.283   6.878  10.069
19718W        W92033  23.136  17.025   4.195
19719W        W92034  10.995  23.786   4.430
19720W        W92035  19.171  22.413  11.183
19721W        W92036  42.798   2.176  12.152
19722W        W92037   8.834  35.296   0.337
19723W        W92038  31.931  18.163  11.147
19724W        W92039   8.628  30.278  12.367
19725W        W92040  41.867  31.820   2.657
19726W        W92041  25.958   0.806   2.437
19727W        W92042  35.415   7.448  13.222
19728W        W92043  40.520  27.400  11.288
19729W        W92044  38.030  26.747   1.904
19730W        W92045  43.919  10.397   3.110
19731W        W92046   0.811  16.339   1.476
19732W        W92047  36.513  42.928  10.007
19733W        W92048  26.134  40.769   2.822
19734W        W92049   2.930  25.153  12.583
19735W        W92050  37.664  34.807  12.541
19736W        W92051  31.856  37.487  14.908
19737W        W92052  13.333  15.709  11.514
19738W        W92053  29.706   7.183  12.508
19739W        W92054  12.660  28.381   3.135
19740W        W92055  10.751  11.339   0.817
19741W        W92056  26.887   0.433   2.891
19742W        W92057  22.794  11.185   2.330
19743W        W92058  34.020   7.203   4.284
19744W        W92059  34.046  26.228  14.983
19745W        W92060  24.176  35.050  10.577
19746W        W92061  15.634   3.630  13.613
19747W        W92062   1.122  42.406   1.326
19748W        W92063   9.589   7.252   1.774
19749W        W92064   7.316  30.936  11.012
19750W        W92065  18.639  11.333  13.964
19751W        W92066  42.542  22.125  12.512
19752W        W92067   0.304   1.363   0.113
19753W        W92068  14.635  36.041  12.875
19754W        W92069  12.348   5.143   0.665
19755W        W92070   1.315   7.739   0.767
19756W        W92071  16.871  37.868   4.442
19757W        W92072   0.507  20.789   4.790
19758W        W92073  39.923  17.059   4.623
19759W        W92074  15.626  35.130   2.244
19760W        W92075  23.670  19.589   0.055
19761W        W92076  34.417   2.990  14.074
19762W        W92077  31.433  23.128  11.914
19763W        W92078  27.203  11.076  13.326
19764W        W92079   7.731  35.385   1.582
19765W        W92080  43.958  10.325  14.594
19766W        W92081  25.284  21.109  14.435
19767W        W92082  25.165  20.344  10.972
19768W        W92083  11.382  28.122  12.391
19769W        W92084  10.323  44.994   1.403
19770W        W92085  14.607  21.055   3.990
19771W        W92086  15.816  43.028  13.016
19772W        W92087   7.321  40.240  11.511
19773W        W92088  31.489  20.468  14.231
19774W        W92089  44.997  44.210  13.402
19775W        W92090  30.405  20.660   0.816
19776W        W92091  14.740  29.164   3.083
19777W        W92092  29.085  23.916   2.633
19778W        W92093  12.143  23.720   0.348
19779W        W92094  17.640  37.388  12.047
19780W        W92095  19.763  20.594   0.888
19781W        W92096   7.370   9.464   3.640
19782W        W92097  19.119  39.285  13.342
19783W        W92098  13.691   8.261  12.410
19784W        W92099  31.655  42.351   0.712
19785W        W92100   1.782  25.093   1.897
19786W        W92101  28.153  17.592   2.026
19787W        W92102  21.221  34.776  12.328
19788W        W92103  39.961  13.958  13.607
19789W        W92104  44.716   1.725  12.100
19790W        W92105  32.071  37.848   3.715
19791W        W92106   6.466   9.219  12.115
19792W        W92107   0.232   7.033   2.371
19793W        W92108  24.693  28.092  14.861
19794W        W92109  32.104  29.254   3.611
19795W        W92110  13.538  19.734   0.169
19796W        W92111   7.835  11.692  11.890
19797W        W92112  41.321  10.365  12.275
19798W        W92113   8.495  22.511  12.075
19799W        W92114  32.477   8.408  13.078
19800W        W92115  14.164  43.329   0.344
19801W        W92116  28.433  28.480   4.495
19802W        W92117  15.598  14.528  12.502
19803W        W92118  31.452  27.849   0.525
19804W        W92119  41.065  34.430   3.178
19805W        W92120  34.461  13.602   4.471
19806W        W92121  25.368  15.629   4.633
19807W        W92122  13.431  23.047  13.018
19808W        W92123  14.359  34.328   0.799
19809W        W92124  16.769  11.778   4.737
19810W        W92125  42.096  31.486   3.341
19811W        W92126  15.723  21.708  13.622
19812W        W92127  29.970  25.391  14.448
19813W        W92128   0.400  30.482  12.107
19814W        W92129   2.416  15.127  13.599
19815W        W92130  13.475  11.015  14.365
19816W        W92131  36.466   4.105   0.334
19817W        W92132  32.228   9.943  14.391
19818W        W92133  24.801  21.420   9.656
19819W        W92134  14.194  38.027   4.278
19820W        W92135  17.684  11.352  11.143
19821W        W92136  32.740   3.002  10.990
19822W        W92137  11.303  19.304  10.992
19823W        W92138  35.237  17.643  14.853
19824W        W92139  37.151  20.506  11.451
19825W        W92140  39.946   3.535  14.448
19826W        W92141   1.729  33.124  14.799
19827W        W92142  32.873  30.913  13.952
19828W        W92143  36.886  42.719  10.616
19829W        W92144  27.326  18.226   5.290
19830W        W92145  10.822  11.698   0.407
19831W        W92146  18.017  29.073  10.939
19832W        W92147  23.575   8.199  13.357
19833W        W92148  29.060   4.888  14.387
19834W        W92149  36.124  17.758  12.485
19835W        W92150   0.407   4.312  13.313
19836W        W92151  34.865  25.559  10.599
19837W        W92152   9.187  25.176   3.725
19838W        W92153  42.325  35.581  12.575
19839W        W92154  33.179  28.584   0.432
19840W        W92155  28.090  29.366  10.937
19841W        W92156  10.462   1.274  10.871
19842W        W92157   4.610   2.844   4.223
19843W        W92158  32.538  18.578   1.277
19844W        W92159  12.726  41.703   4.830
19845W        W92160  11.619  40.039  10.683
19846W        W92161  11.718  17.469   4.157
19847W        W92162  26.976  33.183   0.275
19848W        W92163  16.282  24.113  12.335
19849W        W92164  29.424  39.263   0.889
19850W        W92165   6.432   8.274  12.018
19851W        W92166   2.958  26.519  14.489
19852W        W92167   5.707  37.267   4.160
19853W        W92168  43.462  31.742   1.374
19854W        W92169  19.268  20.872   2.479
19855W        W92170  39.938  28.908  10.592
19856W        W92171  16.794   7.114  12.210
19857W        W92172   6.856   0.410   1.446
19858W        W92173  14.134  22.647  14.139
19859W        W92174  42.098   2.722  12.618
19860W        W92175  35.090  15.712  12.063
19861W        W92176  27.483  31.115   5.032
19862W        W92177  43.066  14.065  11.852
19863W        W92178  32.931  22.457  14.841
19864W        W92179  39.947  32.447   1.242
19865W        W92180  22.227  15.202   4.477
19866W        W92181  13.069   6.199  11.160
19867W        W92182   9.552  16.842  12.946
19868W        W92183   5.908  27.424   1.980
19869W        W92184  31.817  14.343  13.576
19870W        W92185  44.784  24.670  13.102
19871W        W92186  34.517  24.655  13.571
19872W        W92187  29.097  33.025   1.246
19873W        W92188   6.183  35.445  10.502
19874W        W92189  36.204  43.116  11.264
19875W        W92190  43.164   5.873   2.018
19876W        W92191   9.594   4.733  11.224
19877W        W92192   2.838   6.735  12.394
19878W        W92193  43.666   9.724  13.108
19879W        W92194  43.008  20.301  10.743
19880W        W92195  15.706  20.272   1.224
19881W        W92196   3.464  35.783   3.075
19882W        W92197   9.379  21.685   2.210
19883W        W92198  14.234  38.400  12.561
19884W        W92199  23.276  44.942   1.834
19885W        W92200  43.748  21.179  13.704
19886W        W92201  24.552  41.527  11.770
19887W        W92202  23.461  20.707   5.118
19888W        W92203  41.143  15.529  14.480
19889W        W92204   2.395  12.971   2.722
19890W        W92205  27.807  34.217   5.371
19891W        W92206  39.892   6.297   4.808
19892W        W92207  42.997   2.307   4.125
19893W        W92208  43.486  34.707  11.075
19894W        W92209  43.325  14.545   2.865
19895W        W92210   0.966  12.187  13.984
19896W        W92211  39.037  23.516  13.956
19897W        W92212  15.302   0.754   1.258
19898W        W92213  30.607  10.443   0.370
19899W        W92214  26.026   4.972   2.254
19900W        W92215  12.666  25.642  12.986
19901W        W92216   7.001   9.192   1.421
19902W        W92217  12.832  32.761   2.957
19903W        W92218  14.892  10.132   4.505
19904W        W92219  40.490  26.154  11.896
19905W        W92220   6.243  27.475   0.129
19906W        W92221  17.025   8.818   2.642
19907W        W92222  27.756  12.847  12.637
19908W        W92223  43.884  16.616  14.620
19909W        W92224  18.137  21.622   2.690
19910W        W92225  20.231  38.583  11.981
19911W        W92226  30.849  12.328   3.260
19912W        W92227  15.245  29.587   2.641
19913W        W92228  29.147  12.928   4.373
19914W        W92229  22.009  30.849  13.067
19915W        W92230   8.839  20.557  13.408
19916W        W92231  33.131  25.703  11.979
19917W        W92232  36.947  16.354  12.095
19918W        W92233  23.830  39.970   3.757
19919W        W92234  29.151  19.354   4.138
19920W        W92235  33.930   7.874   2.610
19921W        W92236  43.777  34.205   3.907
19922W        W92237  29.981  22.281  11.070
19923W        W92238  40.413  27.644  14.333
19924W        W92239   1.394  40.683  11.627
19925W        W92240  33.944  17.478  11.523
19926W        W92241  15.864   1.342  12.896
19927W        W92242   9.606   9.874   4.786
19928W        W92243  34.900  38.012   1.354
19929W        W92244   9.848  18.491   3.515
19930W        W92245  42.233   8.837  10.440
19931W        W92246  28.065   4.508  11.520
19932W        W92247  38.357   9.635  13.096
19933W        W92248  37.397  39.899   0.156
19934W        W92249  30.182  18.566  13.982
19935W        W92250  37.013   1.696  10.473
19936W        W92251  35.174  11.396   0.261
19937W        W92252   6.818  34.858  14.290
19938W        W92253  14.364   7.690   2.832
19939W        W92254  22.633  21.878   1.502
19940W        W92255  15.225  11.600   0.248
19941W        W92256   5.257  32.523   3.259
19942W        W92257  15.594  32.654  13.503
19943W        W92258  26.683  43.137   9.896
19944W        W92259  18.668   6.811  14.009
19945W        W92260  23.517  24.135   2.654
19946W        W92261  24.054  34.898   4.307
19947W        W92262  26.128  32.026  13.321
19948W        W92263   8.434   3.551   4.847
19949W        W92264  21.529  20.148   4.685
19950W        W92265  17.331  41.990  11.173
19951W        W92266   0.633   8.304   3.200
19952W        W92267  27.189  22.508  12.093
19953W        W92268  30.131  32.192   2.739
19954W        W92269  31.995   2.764   4.301
19955W        W92270   0.670  37.106  14.392
19956W        W92271   5.667  26.586  11.672
19957W        W92272  10.623   4.615  12.589
19958W        W92273  26.975  23.106   4.694
19959W        W92274  38.999   7.474   3.763
19960W        W92275  11.147  38.275  11.195
19961W        W92276  41.288  22.832  12.476
19962W        W92277   0.219  17.148  11.960
19963W        W92278  16.481  32.224  13.178
19964W        W92279  13.002   6.176  13.111
19965W        W92280  18.287   7.136   1.754
19966W        W92281  43.149   8.788   2.390
19967W        W92282  10.152  23.694   3.254
19968W        W92283  26.632  16.612  14.353
19969W        W92284  12.190  31.104  11.598
19970W        W92285  33.092  11.685   4.121
19971W        W92286  23.989  20.382   3.882
19972W        W92287  37.328   9.339   2.712
19973W        W92288  10.235   2.764   0.757
19974W        W92289  10.103  19.161   2.239
19975W        W92290  41.958  29.919  14.384
19976W        W92291  12.442  27.508   1.282
19977W        W92292  15.104  40.383   3.733
19978W        W92293  17.756  29.154   0.865
19979W        W92294  44.029  37.294   0.510
19980W        W92295  40.352  40.498   4.026
19981W        W92296  43.807  33.632   2.355
19982W        W92297  20.690   0.566   3.603
19983W        W92298  12.675  13.310   1.221
19984W        W92299  35.919  41.931  11.890
19985W        W92300  41.684  42.176   3.528
19986W        W92301  11.908  21.068  13.614
19987W        W92302  34.216   4.901  13.596
19988W        W92303   4.287  43.512   4.741
19989W        W92304  43.017  14.289   1.727
19990W        W92305  28.805  22.610   0.925
19991W        W92306  19.278  24.510   2.274
19992W        W92307  27.065  36.798   3.268
19993W        W92308  18.999  42.541  13.038
19994W        W92309   6.299  33.643  14.269
19995W        W92310  42.963  20.569   3.798
19996W        W92311  42.121   6.883   3.045
19997W        W92312  22.991  32.662   1.261
19998W        W92313  20.198  13.305  13.370
19999W        W92314  21.554  11.091  11.167
20000W        W92315   7.857  20.670   4.335
20001W        W92316  24.288  27.096  14.828
20002W        W92317  42.571  13.540   4.090
20003W        W92318   7.226  36.046   1.668
20004W        W92319  24.210  16.814  14.715
20005W        W92320  18.514  29.633  12.893
20006W        W92321   9.568  16.425  10.184
20007W        W92322  10.190   6.399   1.678
20008W        W92323  38.515   2.494   0.274
20009W        W92324  42.960  14.757  10.669
20010W        W92325  29.100  11.812  14.875
20011W        W92326   3.545  44.851  14.517
20012W        W92327  16.223   5.397   0.790
20013W        W92328  37.083  30.510  12.458
20014W        W92329   9.213  14.786   1.108
20015W        W92330  33.717  21.826   3.327
20016W        W92331  12.334  18.027   0.381
20017W        W92332  42.996  25.068   3.629
20018W        W92333   8.286   7.979   1.982
20019W        W92334  25.679  17.756   0.705
20020W        W92335  12.327  30.510   4.615
20021W        W92336  16.815   8.885   3.253
20022W        W92337  14.953   8.232   4.087
20023W        W92338  25.228  28.538  13.623
20024W        W92339  26.671  42.943  13.019
20025W        W92340  21.686  39.586   3.676
20026W        W92341  32.626  29.246   1.550
20027W        W92342   9.781  40.800  12.050
20028W        W92343   7.177  37.837   3.831
20029W        W92344  14.148   6.366   1.309
20030W        W92345  30.416  28.020  13.097
20031W        W92346   8.389   1.723   2.766
20032W        W92347  41.759  29.181   3.277
20033W        W92348  11.817  12.915   3.736
20034W        W92349  21.664  29.550   2.867
20035W        W92350  15.398  36.504  11.676
20036W        W92351  36.279  21.524   4.559
20037W        W92352  39.003  39.410  12.919
20038W        W92353  37.298  14.691  14.474
20039W        W92354  32.850   6.874  11.428
20040W        W92355  42.476  22.485   4.361
20041W        W92356  14.854  25.579   0.904
20042W        W92357  39.226  16.807  12.360
20043W        W92358  32.571  15.499   3.765
20044W        W92359  37.921  24.868  14.398
20045W        W92360  33.694  28.523  12.095
20046W        W92361  32.018  29.641   5.078
20047W        W92362  41.957  32.123  12.409
20048W        W92363   3.956  25.473  13.427
20049W        W92364  43.020  27.194  13.153
20050W        W92365  20.521   0.007   0.429
20051W        W92366   4.216  25.184  11.119
20052W        W92367  24.646  12.548   1.784
20053W        W92368  32.455  32.326   2.269
20054W        W92369  19.146  27.215  14.470
20055W        W92370   9.131  23.669  13.564
20056W        W92371  29.988  12.167  13.546
20057W        W92372  15.201  11.150  14.028
20058W        W92373  15.705  39.723  12.560
20059W        W92374   3.987  18.829   0.404
20060W        W92375  17.019   3.885   2.734
20061W        W92376  13.670   3.190  14.485
20062W        W92377  10.713  18.451  14.779
20063W        W92378   3.524  20.026  12.369
20064W        W92379  16.604  28.041  11.205
20065W        W92380   0.432  27.381   3.014
20066W        W92381  27.860   5.339  13.926
20067W        W92382  23.326  23.442  14.320
20068W        W92383  35.039  36.918   3.504
20069W        W92384   9.354  33.382   3.841
20070W        W92385  44.678  28.656   3.629
20071W        W92386  38.108  30.489  11.513
20072W        W92387  29.019  23.921   3.790
20073W        W92388  34.533  10.960   0.508
20074W        W92389  35.945  38.034  13.102
20075W        W92390  19.625   3.445  10.415
20076W        W92391  33.929  27.150   2.617
20077W        W92392   7.808  35.163  14.919
20078W        W92393  18.089  41.513  11.118
20079W        W92394  26.188  31.947   1.355
20080W        W92395  28.364  40.105   2.961
20081W        W92396  18.539  18.559   1.870
20082W        W92397   0.397   4.012  11.018
20083W        W92398  19.832   5.447  12.424
20084W        W92399   5.304  38.520   3.645
20085W        W92400  20.063  29.724   1.304
20086W        W92401  41.357  38.880  11.236
20087W        W92402  11.829  36.036   2.844
20088W        W92403   7.773   3.182   3.051
20089W        W92404  31.982   3.489   2.246
20090W        W92405  32.046  35.180   4.130
20091W        W92406  14.171  41.306   2.808
20092W        W92407  22.755  25.050   4.602
20093W        W92408  41.390  26.768   0.342
20094W        W92409  36.831  30.629  12.015
20095W        W92410   4.876  31.918  13.309
20096W        W92411   2.176  21.544   2.151
20097W        W92412   6.844   5.593  13.429
20098W        W92413  24.147   7.442  12.658
20099W        W92414  15.118  18.177  12.088
20100W        W92415  32.017   2.232   4.109
20101W        W92416   5.743  42.276   3.314
20102W        W92417  22.304   9.710   2.453
20103W        W92418  40.289   8.952   0.300
20104W        W92419  20.041  42.643  11.868
20105W        W92420  30.928  39.433   2.102
20106W        W92421  38.176  33.947  13.515
20107W        W92422  43.817  22.068  13.566
20108W        W92423  44.823  26.637   3.422
20109W        W92424   4.938  14.367   3.981
20110W        W92425  24.969  28.554  14.965
20111W        W92426  37.873  21.644   0.389
20112W        W92427   6.358  29.165   0.831
20113W        W92428   8.360  43.346   4.226
20114W        W92429  20.974   8.138  14.079
20115W        W92430   8.983  33.572  10.358
20116W        W92431   1.688  18.110   1.285
20117W        W92432   7.436   6.993   4.569
20118W        W92433  10.827  29.162   1.625
20119W        W92434  20.404  36.050   0.375
20120W        W92435  11.219  25.843   3.308
20121W        W92436  27.703  35.721   1.883
20122W        W92437   9.856  26.115  12.452
20123W        W92438  26.130   0.503  14.696
20124W        W92439  34.933  10.112   2.116
20125W        W92440  28.855  30.937   1.680
20126W        W92441  37.255  18.266  13.942
20127W        W92442  34.391  11.630   1.913
20128W        W92443   9.102  11.102   4.633
20129W        W92444  35.352   9.921  14.908
20130W        W92445  35.083  33.474  11.708
20131W        W92446  36.448  33.158   3.951
20132W        W92447   3.894  11.154   1.396
20133W        W92448  36.576  28.531   2.913
20134W        W92449  25.528  19.217  10.776
20135W        W92450  37.152  22.513  10.685
20136W        W92451  15.217  22.944  13.547
20137W        W92452  25.698  34.533   2.583
20138W        W92453  34.021   9.912  13.914
20139W        W92454  23.271  43.116   3.379
20140W        W92455   1.019  26.067  12.767
20141W        W92456  32.075  38.748   0.760
20142W        W92457   9.609  25.429   3.907
20143W        W92458  12.707  23.684   0.458
20144W        W92459  12.686   2.973   1.299
20145W        W92460  20.204  38.821   3.407
20146W        W92461  10.595  14.807  11.208
20147W        W92462   6.316   5.679  10.805
20148W        W92463  40.318  36.615  12.619
20149W        W92464  32.258   1.052  13.433
20150W        W92465  35.673  20.020  11.262
20151W        W92466   9.651  19.208  10.404
20152W        W92467  30.090   7.870   2.196
20153W        W92468  40.627  35.881  11.213
20154W        W92469  23.459  36.501  11.609
20155W        W92470  24.227  38.888   4.094
20156W        W92471  27.936  22.670   3.625
20157W        W92472  34.919  36.869  14.769
20158W        W92473  15.580  13.123  11.571
20159W        W92474  22.660   8.096  11.209
20160W        W92475   0.254   3.522  10.960
20161W        W92476  20.560  41.880   4.631
20162W        W92477  31.066  43.573   0.695
20163W        W92478  38.415  11.446   0.740
20164W        W92479  19.672   7.859   4.504
20165W        W92480  26.718  42.519   0.729
20166W        W92481  17.570  26.280   3.689
20167W        W92482   6.117  25.694  14.814
20168W        W92483  16.870  38.359   2.986
20169W        W92484   6.234  29.631   4.198
20170W        W92485  16.739   6.193  10.630
20171W        W92486   0.362  17.070  12.497
20172W        W92487  44.271  16.686   3.751
20173W        W92488  43.244   6.780  13.868
20174W        W92489  34.959   8.496  14.262
20175W        W92490  14.538  16.048  14.463
20176W        W92491  41.209  16.925   3.761
20177W        W92492  11.733  29.211   1.794
20178W        W92493   9.800  12.873   0.742
20179W        W92494   9.325  39.069  12.454
20180W        W92495  26.473  20.632   3.232
20181W        W92496  40.301  11.170   1.426
20182W        W92497  18.759  18.657  13.790
20183W        W92498  10.147  19.176  13.901
20184W        W92499  42.839  33.386  13.802
20185W        W92500  32.630  39.072   0.442
20186W        W92501  17.003  29.429   2.852
20187W        W92502  29.992  31.047   2.173
20188W        W92503   1.800   6.664  13.986
20189W        W92504  16.432   3.056  12.431
20190W        W92505  20.311  10.697   3.809
20191W        W92506  14.646  22.290  13.873
20192W        W92507   8.641  12.847  13.065
20193W        W92508  38.928   7.465  13.816
20194W        W92509  34.600  21.172   5.014
20195W        W92510  12.618  42.721   2.301
20196W        W92511  30.714  23.816  14.411
20197W        W92512  24.542  30.636  14.096
20198W        W92513  18.518   3.406   3.246
20199W        W92514  35.876  17.671   3.936
20200W        W92515  39.115  39.469   3.652
20201W        W92516  17.776  33.129   4.642
20202W        W92517   2.522  35.121   0.677
20203W        W92518  14.833  23.581  12.588
20204W        W92519   7.689  15.339  10.614
20205W        W92520  41.802  17.281  14.397
20206W        W92521  23.747  14.613   4.705
20207W        W92522   6.264   6.445  12.600
20208W        W92523   3.090   8.156  14.160
20209W        W92524  29.208  40.721   0.383
20210W        W92525  12.058  11.767  14.844
20211W        W92526   5.520   1.746  10.711
20212W        W92527  37.656  17.845   2.394
20213W        W92528  18.313  17.206   2.849
20214W        W92529  28.655  33.082  13.993
20215W        W92530  10.394  19.187   2.689
20216W        W92531  21.068  44.523   1.208
20217W        W92532  26.512  24.988  12.466
20218W        W92533  36.748  41.784  11.093
20219W        W92534   7.904  22.085   3.125
20220W        W92535  10.160  25.996  14.711
20221W        W92536   0.885  42.132   3.656
20222W        W92537  43.968  21.986   1.707
20223W        W92538  38.006  39.539   0.824
20224W        W92539  31.881  43.112  13.422
20225W        W92540  30.928   5.948   0.350
20226W        W92541  24.095  16.608  12.631
20227W        W92542  40.759   2.892  10.616
20228W        W92543  26.694  43.555  10.699
20229W        W92544  19.993  38.080   3.365
20230W        W92545  44.782  27.648   9.851
20231W        W92546   9.737  37.104  12.584
20232W        W92547  41.253   1.120   3.685
20233W        W92548  18.642  34.136   2.368
20234W        W92549  44.183  44.798   4.572
20235W        W92550  13.745  28.580   1.979
20236W        W92551  18.034  15.603  12.635
20237W        W92552  33.100  30.354   3.099
20238W        W92553  17.301  40.530   9.946
20239W        W92554  10.241  44.015  12.976
20240W        W92555   3.405   7.242  14.587
20241W        W92556   9.604  21.334  14.990
20242W        W92557  43.678  43.287   1.894
20243W        W92558  29.670  40.043  13.298
20244W        W92559  18.685  17.899   4.195
20245W        W92560  39.124  33.547   1.415
20246W        W92561  43.500   5.920   4.581
20247W        W92562  23.232  33.403   3.183
20248W        W92563  20.464   1.371   4.897
20249W        W92564  13.276   4.979   0.391
20250W        W92565   4.891   5.150  12.447
20251W        W92566   8.584   5.096  12.995
20252W        W92567  20.763  16.616  12.035
20253W        W92568  21.506  30.202  12.520
20254W        W92569  25.771  33.691   1.413
20255W        W92570   7.828  16.303  14.765
20256W        W92571  25.057  29.207   2.465
20257W        W92572  37.640  29.987   0.823
20258W        W92573  41.589   9.855  12.100
20259W        W92574  31.829  12.677  12.226
20260W        W92575  21.904  42.063  11.167
20261W        W92576  32.856  35.384  12.496
20262W        W92577  11.651  18.140  12.069
20263W        W92578  32.150  19.466   9.977
20264W        W92579  28.915  25.205   3.546
20265W        W92580  20.482  35.572   4.428
20266W        W92581  11.841  10.399   4.568
20267W        W92582   0.716  11.829  14.866
20268W        W92583  43.532  14.398   4.140
20269W        W92584  17.653  32.937   2.167
20270W        W92585   2.412  23.407   2.440
20271W        W92586  43.844   7.022  12.944
20272W        W92587  31.906  31.175  10.634
20273W        W92588  38.128  34.960   0.014
20274W        W92589  25.261   6.910  10.523
20275W        W92590  42.984  19.103   1.964
20276W        W92591  29.029  19.670   3.722
20277W        W92592  42.858   2.345  14.096
20278W        W92593   6.385  17.485  10.278
20279W        W92594  30.797  20.070  10.770
20280W        W92595  24.727  19.788   3.660
20281W        W92596   1.695  22.659  14.642
20282W        W92597  19.458  19.299  11.485
20283W        W92598  20.284  11.328   1.330
20284W        W92599  14.823  36.562   3.686
20285W        W92600   5.513  37.369  13.726
20286W        W92601  24.661  14.543   2.856
20287W        W92602  17.021  32.539   1.433
20288W        W92603  16.300   0.995  11.555
20289W        W92604  16.470  40.967  13.399
20290W        W92605  42.174   3.932  11.103
20291W        W92606  18.238  43.005  11.128
20292W        W92607  42.584  15.284   4.809
20293W        W92608   8.144  43.464   4.677
20294W        W92609  23.884  41.470   0.704
20295W        W92610  41.423   2.300  12.996
20296W        W92611  23.786   9.204   3.674
20297W        W92612  14.240   6.685   0.072
20298W        W92613  12.275  38.016  11.151
20299W        W92614  24.653   4.357   1.517
20300W        W92615   9.500   2.792   0.419
20301W        W92616  44.877  13.872  12.088
20302W        W92617   0.567   4.781   3.345
20303W        W92618   4.426  39.233   3.306
20304W        W92619  43.200   0.520   2.707
20305W        W92620  20.506  26.916   1.105
20306W        W92621  17.213   3.725   0.426
20307W        W92622  16.279  24.200   0.142
20308W        W92623  14.722   9.361   3.523
20309W        W92624  21.923   4.639  14.298
20310W        W92625  14.843  21.750   0.043
20311W        W92626   4.313  32.526  11.112
20312W        W92627   8.821  19.768   0.441
20313W        W92628  35.938  40.922  12.954
20314W        W92629  39.462  41.886  11.111
20315W        W92630  23.615  27.976  10.898
20316W        W92631  25.149  30.698  11.869
20317W        W92632  16.684   0.409  14.917
20318W        W92633  29.422  41.518   1.926
20319W        W92634  29.102  16.112  12.621
20320W        W92635  14.667  38.996   4.352
20321W        W92636  40.752  28.352  12.453
20322W        W92637  37.623   9.314   2.276
20323W        W92638   1.648  16.332  11.624
20324W        W92639  40.467  14.885  11.123
20325W        W92640   1.876  17.820  14.295
20326W        W92641  10.342  41.780  10.558
20327W        W92642  42.345  40.963  10.464
20328W        W92643  44.765  13.439  11.860
20329W        W92644   5.909  32.323  13.463
20330W        W92645  38.972   1.951  12.587
20331W        W92646  34.567  17.335  11.288
20332W        W92647   5.917   6.124  12.963
20333W        W92648  24.997  40.314   4.643
20334W        W92649   0.325  25.002   3.571
20335W        W92650   7.255  11.434  13.891
20336W        W92651  23.260   3.196  13.015
20337W        W92652  21.550   1.891   5.030
20338W        W92653  17.590  28.712   3.807
20339W        W92654  16.907  36.698  12.121
20340W        W92655  44.711  18.680  14.357
20341W        W92656   7.736  41.807  11.213
20342W        W92657  23.118  32.011   0.045
20343W        W92658  23.748  27.591  13.396
20344W        W92659  29.008  27.036  12.080
20345W        W92660  30.658  28.461  12.954
20346W        W92661  43.022   2.853   1.848
20347W        W92662  17.668  36.004  12.029
20348W        W92663   3.212  18.113   1.179
20349W        W92664  40.808  26.765   2.356
20350W        W92665  13.636  40.737   1.901
20351W        W92666  21.301  38.547  12.367
20352W        W92667  21.513   1.085   3.335
20353W        W92668  20.892  34.647  11.522
20354W        W92669  28.083  39.376  13.934
20355W        W92670   3.267  40.874  12.710
20356W        W92671  33.865  18.628  13.925
20357W        W92672   1.262  35.357  12.865
20358W        W92673  15.782   1.197   3.675
20359W        W92674  28.167  40.047  11.754
20360W        W92675  25.213  37.343  14.192
20361W        W92676  22.454  24.692   1.349
20362W        W92677  10.687  17.863  11.453
20363W        W92678   9.132  26.558   3.898
20364W        W92679  23.682  36.253  12.035
20365W        W92680   6.777   0.806   4.153
20366W        W92681  39.253  13.641   1.226
20367W        W92682  40.394  31.563  13.842
20368W        W92683  43.285  28.057   1.971
20369W        W92684   1.020  40.060   1.731
20370W        W92685   2.712  12.572   3.259
20371W        W92686  17.208  20.220  10.881
20372W        W92687  40.911  44.498   4.911
20373W        W92688  36.828   2.125  14.982
20374W        W92689  18.814  28.787  10.719
20375W        W92690   2.876  38.800  11.976
20376W        W92691   2.012  24.462  14.644
20377W        W92692  23.072  39.112   1.327
20378W        W92693  37.490  23.060   0.133
20379W        W92694   7.664   4.091  12.473
20380W        W92695  12.588  44.304  12.603
20381W        W92696  43.385  13.264  11.703
20382W        W92697  28.655   4.436  10.697
20383W        W92698  23.492  20.169  13.771
20384W        W92699  32.568  35.089   1.275
20385W        W92700  23.462  32.564   1.437
20386W        W92701  43.401  19.080  13.807
20387W        W92702   2.427  43.866   1.008
20388W        W92703  31.569   6.287  14.426
20389W        W92704  11.131  28.071  10.930
20390W        W92705  43.992  12.406  11.660
20391W        W92706  22.551  14.699  13.880
20392W        W92707  12.246  30.612   1.639
20393W        W92708  19.468  18.852   1.842
20394W        W92709   4.461  32.416  14.453
20395W        W92710  18.725   8.381   9.862
20396W        W92711   0.320   5.310   1.421
20397W        W92712  43.290  29.526   4.821
20398W        W92713  37.511  25.565  13.270
20399W        W92714  42.395  26.976  10.561
20400W        W92715  26.865  20.885   3.546
20401W        W92716  14.765  24.378  12.022
20402W        W92717   6.690  32.993  11.926
20403W        W92718  44.716  37.027   2.283
20404W        W92719  35.784   6.733  12.983
20405W        W92720  27.375   2.537  11.082
20406W        W92721  11.739  44.837   4.566
20407W        W92722  23.017  10.690   3.017
20408W        W92723   2.761  24.499   0.523
20409W        W92724   0.761  27.674  11.953
20410W        W92725  16.027  10.250  11.596
20411W        W92726  28.971  36.206   4.264
20412W        W92727  41.087  35.625   4.605
20413W        W92728  34.394  23.120   0.787
20414W        W92729  43.883   7.296   2.417
20415W        W92730   8.381  30.689   0.968
20416W        W92731  41.439  43.860   3.259
20417W        W92732  36.007   3.235   4.814
20418W        W92733  29.820  10.347  12.554
20419W        W92734  28.496   2.516   2.294
20420W        W92735  42.291   6.886   1.382
20421W        W92736   9.146  36.348  13.917
20422W        W92737  41.342  26.482   3.951
20423W        W92738  24.596  25.527   1.334
20424W        W92739  23.190  33.846  13.428
20425W        W92740  29.295  38.180   1.801
20426W        W92741   2.521  15.382   1.090
20427W        W92742  36.505  17.377  10.715
20428W        W92743   6.727  12.199  11.228
20429W        W92744  36.493  28.639  12.004
20430W        W92745   4.952  10.288  13.502
20431W        W92746   4.252  20.172   2.496
20432W        W92747  30.589   7.655  11.721
20433W        W92748   4.190  40.488  10.577
20434W        W92749  33.609  21.342   3.855
20435W        W92750  34.102  22.543   2.786
20436W        W92751  31.593  25.113  12.749
20437W        W92752  14.952  40.892  13.137
20438W        W92753   7.756   3.028   0.916
20439W        W92754  18.109  25.637   0.854
20440W        W92755  13.162  22.485   0.219
20441W        W92756  31.434   3.368  14.999
20442W        W92757   9.246  39.258   2.749
20443W        W92758  30.065  19.186  14.498
20444W        W92759  15.080  20.313   0.645
20445W        W92760  22.201  33.078   0.269
20446W        W92761  40.160  33.872  14.349
20447W        W92762  38.952  43.737   0.871
20448W        W92763  22.582  30.707   0.290
20449W        W92764   6.470  27.621   4.857
20450W        W92765  35.310  36.002  13.416
20451W        W92766   7.342  26.621  11.041
20452W        W92767  28.867  19.654  12.634
20453W        W92768  18.660  42.499   0.358
20454W        W92769  19.725  38.368   1.290
20455W        W92770  41.782  27.935  10.568
20456W        W92771  16.536  29.233  13.807
20457W        W92772  41.125  22.071  13.800
20458W        W92773  41.461  33.243  11.546
20459W        W92774   9.888  43.337   0.197
20460W        W92775   7.494  21.818   0.788
20461W        W92776   8.081   3.113   0.496
20462W        W92777  20.481  19.569  14.464
20463W        W92778   0.341  11.401  10.208
20464W        W92779   1.751  36.090   5.413
20465W        W92780  29.450  36.073   0.455
20466W        W92781  29.840   0.082   3.580
20467W        W92782   7.764  22.513  13.676
20468W        W92783  44.836  28.487   2.711
20469W        W92784  30.684  20.014   3.711
20470W        W92785  32.838  34.731   3.264
20471W        W92786  33.398  20.561  14.431
20472W        W92787  25.605  23.657  10.573
20473W        W92788  37.995  44.327   1.680
20474W        W92789  23.054   8.820  11.188
20475W        W92790  30.209   0.475  12.499
20476W        W92791  22.483  10.409  12.996
20477W        W92792  29.113  32.124   1.432
20478W        W92793   6.453  30.538   0.451
20479W        W92794  37.567  36.251   0.446
20480W        W92795  44.954  36.506   1.154
20481W        W92796  28.117  12.008  12.852
20482W        W92797  42.470  22.427   3.828
20483W        W92798  22.437  28.599  13.042
20484W        W92799  23.064  40.563  12.112
20485W        W92800  17.251  17.493   2.216
20486W        W92801  31.834  42.071   3.838
20487W        W92802  20.559   5.181   2.055
20488W        W92803   0.157  22.309   2.220
20489W        W92804  23.963  41.543   2.418
20490W        W92805   6.866   2.529  12.528
20491W        W92806  24.721  43.342  13.864
20492W        W92807  40.407  15.139  11.630
20493W        W92808  24.105  44.402   1.972
20494W        W92809  19.071  27.492  11.564
20495W        W92810  44.355  24.685   3.142
20496W        W92811   8.251  24.177   2.474
20497W        W92812  19.884  30.076   2.604
20498W        W92813  13.583  27.932  10.630
20499W        W92814  22.583  26.832   1.833
20500W        W92815  38.229  22.676  11.308
20501W        W92816  25.621   7.748   0.472
20502W        W92817  42.961   9.223   0.787
20503W        W92818  29.586  30.053   2.413
20504W        W92819  25.685  14.498   1.361
20505W        W92820  20.703  42.362  10.750
20506W        W92821  42.374   0.096   3.355
20507W        W92822  32.159  32.885  13.867
20508W        W92823  42.113   1.303   1.751
20509W        W92824  11.947  24.175   3.278
20510W        W92825  34.379  23.887  12.509
20511W        W92826  37.850   2.690   0.478
20512W        W92827  19.528  28.359   5.201
20513W        W92828  37.302  13.535   1.152
20514W        W92829  33.386  30.350   1.222
20515W        W92830   2.783  44.700   4.509
20516W        W92831  41.315  28.278   2.643
20517W        W92832  38.489   9.671  13.579
20518W        W92833   5.375   1.135  13.311
20519W        W92834  26.565  24.849  13.790
20520W        W92835   1.036  10.242  13.300
20521W        W92836  29.477  20.346   4.903
20522W        W92837  28.160  21.788  14.532
20523W        W92838  25.726  14.831  11.182
20524W        W92839   6.339  33.649  12.406
20525W        W92840  30.754  22.155  14.787
20526W        W92841  27.088  43.318  13.321
20527W        W92842  24.794  42.369   4.684
20528W        W92843  22.528  34.369   1.908
20529W        W92844  19.302   9.391   0.984
20530W        W92845  26.180  15.138   1.336
20531W        W92846   0.844   2.990  10.747
20532W        W92847  35.029  29.538   3.214
20533W        W92848  31.337  37.461   4.725
20534W        W92849  12.496  17.978   3.217
20535W        W92850  25.606  39.745  11.052
20536W        W92851  37.762  26.968  14.372
20537W        W92852  18.745  36.113  14.927
20538W        W92853   0.740   2.499  13.670
20539W        W92854   3.730  21.048  12.432
20540W        W92855  11.575  10.304  10.683
20541W        W92856  10.150  39.618   2.996
20542W        W92857   6.236  39.303  10.640
20543W        W92858   2.470  28.939   3.695
20544W        W92859  24.010  29.072   4.081
20545W        W92860  34.523  20.027  12.581
20546W        W92861  42.426   9.505  13.143
20547W        W92862  14.175   6.650   2.369
20548W        W92863  33.532  15.983  11.420
20549W        W92864  20.093  29.176   4.548
20550W        W92865  41.706   1.792   4.116
20551W        W92866  24.512  32.147  14.809
20552W        W92867  20.410  25.557   3.774
20553W        W92868  35.444  33.518   4.212
20554W        W92869  36.996   3.979  14.375
20555W        W92870  37.895  41.949  14.709
20556W        W92871  39.917  41.061   0.239
20557W        W92872  10.867   3.317  12.981
20558W        W92873  34.890  25.523   4.632
20559W        W92874   5.284  44.809  12.959
20560W        W92875   1.952  21.639  14.008
20561W        W92876  27.514  33.522  13.555
20562W        W92877  19.745  32.403   0.883
20563W        W92878  42.323  32.368   0.719
20564W        W92879  23.223  42.217   0.343
20565W        W92880  32.624  37.598   4.117
20566W        W92881  35.959   3.656  14.690
20567W        W92882  25.718  15.528  14.346
20568W        W92883  27.574  21.699  13.982
20569W        W92884  13.687  10.478   2.743
20570W        W92885  16.128   2.065  13.343
20571W        W92886   5.072  20.329  14.414
20572W        W92887   0.297  25.572  12.965
20573W        W92888   4.490  10.844   2.657
20574W        W92889  22.000   8.114  11.931
20575W        W92890  38.565  39.461   0.762
20576W        W92891  37.432  41.953  12.949
20577W        W92892   4.508  13.287  12.097
20578W        W92893   4.982  26.954  10.328
20579W        W92894   0.002   6.833  11.654
20580W        W92895   9.179  27.463  12.984
20581W        W92896  31.927  16.088  11.248
20582W        W92897  28.115   1.413  10.945
20583W        W92898  25.619  22.737   2.783
20584W        W92899  18.609   5.495   3.187
20585W        W92900  44.809  43.703   2.881
20586W        W92901  35.604   3.726   1.730
20587W        W92902  37.045   9.317   0.843
20588W        W92903  24.279  22.575   2.045
20589W        W92904   3.946  42.873  12.050
20590W        W92905  26.769  28.012   4.135
20591W        W92906  42.782   5.853  12.024
20592W        W92907  37.460  44.240  14.791
20593W        W92908  44.726  34.306   2.026
20594W        W92909  17.327  12.431   1.401
20595W        W92910  30.358  32.032  10.562
20596W        W92911  39.649  30.564  14.661
20597W        W92912  23.976  19.548  12.027
20598W        W92913  42.481  41.391   1.358
20599W        W92914  33.768  13.897  11.211
20600W        W92915  16.539   3.467   3.698
20601W        W92916  25.522  44.001   3.294
20602W        W92917  42.052  20.269  14.939
20603W        W92918   6.014  32.629  12.143
20604W        W92919  35.073  44.006   1.364
20605W        W92920  31.071  31.833  13.124
20606W        W92921  14.416   9.869  13.369
20607W        W92922  41.250  36.375   1.758
20608W        W92923   0.504  21.797   4.148
20609W        W92924  11.746  22.904   2.674
20610W        W92925  15.622  15.192  14.489
20611W        W92926  40.439  42.377  12.391
20612W        W92927  40.894  38.150   0.922
20613W        W92928  31.999   0.917  10.825
20614W        W92929  12.732   5.822   3.169
20615W        W92930   8.790  35.783   1.281
20616W        W92931   0.041  31.336  14.857
20617W        W92932  28.728  37.771  12.655
20618W        W92933  17.355  16.145   0.788
20619W        W92934  13.051   1.417   2.891
20620W        W92935  16.488  12.845  11.169
20621W        W92936  31.288   9.175  14.162
20622W        W92937  40.207   8.147   0.875
20623W        W92938  18.523  29.914   5.125
20624W        W92939  22.841  42.958   0.754
20625W        W92940  40.606  34.923  13.853
20626W        W92941  33.502  14.743   0.778
20627W        W92942   6.952  29.455   1.210
20628W        W92943  36.561   7.740  13.786
20629W        W92944  17.366   9.074   4.054
20630W        W92945  13.849   0.649  11.638
20631W        W92946  35.138   3.533   1.856
20632W        W92947  36.836  24.215  10.339
20633W        W92948  41.676  37.238  12.619
20634W        W92949  28.600  13.818   3.368
20635W        W92950  17.334  14.091  12.591
20636W        W92951  23.583  10.128   2.788
20637W        W92952  38.766  15.702   0.502
20638W        W92953  27.968   1.356  10.470
20639W        W92954  35.987  13.953  11.386
20640W        W92955   0.230  40.441   3.703
20641W        W92956  27.795  12.450  13.787
20642W        W92957  21.938  25.429  13.003
20643W        W92958   4.055  11.224  12.859
20644W        W92959   6.776  28.976   4.589
20645W        W92960  40.327  28.496  11.557
20646W        W92961  36.774   7.755   2.958
20647W        W92962  25.151  11.792   1.892
20648W        W92963  13.193  29.846  12.911
20649W        W92964  37.229  41.960  13.835
20650W        W92965   6.798  29.538   2.172
20651W        W92966  21.904  20.322  10.125
20652W        W92967  18.423  21.100  10.251
20653W        W92968  38.920  18.110  14.548
20654W        W92969   1.215  22.000  11.287
20655W        W92970  20.807  34.056  13.500
20656W        W92971  36.075   7.885   0.252
20657W        W92972  16.373  16.539  12.101
20658W        W92973  22.943  20.338  13.527
20659W        W92974   3.790  10.035   0.272
20660W        W92975   0.429  23.225   4.060
20661W        W92976  12.540  24.451  12.498
20662W        W92977  32.850   6.447   4.354
20663W        W92978  39.329  11.107  14.898
20664W        W92979   0.534  36.933  13.024
20665W        W92980  19.257  12.678   2.850
20666W        W92981  28.889   8.747  10.474
20667W        W92982  25.127  13.574  11.093
20668W        W92983   0.485   1.489   4.568
20669W        W92984  43.187  32.574   4.077
20670W        W92985   9.132  17.313  13.617
20671W        W92986  32.859  40.777  12.456
20672W        W92987  21.567  25.097   2.896
20673W        W92988  24.412  14.711  14.851
20674W        W92989  13.225  28.290   3.162
20675W        W92990  27.125  33.161  10.774
20676W        W92991  12.211   7.816  11.540
20677W        W92992   2.596  30.112   1.868
20678W        W92993  43.541  30.615   2.193
20679W        W92994   7.947  39.420  12.425
20680W        W92995  20.579  41.437  11.966
20681W        W92996  27.697  39.648  14.370
20682W        W92997  14.747  28.612   4.194
20683W        W92998  14.018  32.032  13.083
20684W        W92999  25.264   2.154   1.489
20685W        W93000  12.917  39.605   1.738
20686W        W93001  19.341  19.563   2.193
20687W        W93002   0.420   1.313  14.598
20688W        W93003  37.096  38.339  13.640
20689W        W93004  31.093  17.021  12.496
20690W        W93005  38.662  13.718   2.638
20691W        W93006  11.263  28.487   4.161
20692W        W93007  34.331  33.937  14.489
20693W        W93008  36.042  14.372   2.143
20694W        W93009  44.264  32.642  10.744
20695W        W93010  38.525  39.101  11.114
20696W        W93011   7.716  12.633  11.987
20697W        W93012  21.567  43.542  12.854
20698W        W93013  36.544   5.304  13.244
20699W        W93014   2.268  37.096   4.434
20700W        W93015   0.829   4.527  10.693
20701W        W93016  29.583  33.923  11.559
20702W        W93017   7.335  15.399   0.835
20703W        W93018  35.606  22.161   4.663
20704W        W93019  31.125  33.857  13.956
20705W        W93020   0.424  43.325  10.598
20706W        W93021   6.260  36.130   1.727
20707W        W93022  17.717  36.262  12.972
20708W        W93023  38.686   2.944   1.016
20709W        W93024  36.386  30.025   3.374
20710W        W93025  22.787   2.215  13.093
20711W        W93026  33.008  37.815   0.679
20712W        W93027  21.469  36.612  12.502
20713W        W93028  35.414  33.916   0.008
20714W        W93029  44.458  21.482  12.034
20715W        W93030  27.782  33.719  10.213
20716W        W93031  18.629  31.206   4.597
20717W        W93032  21.950  14.749   0.165
20718W        W93033  10.266  36.146   4.224
20719W        W93034  41.680  30.816   2.694
20720W        W93035  27.189  42.368  12.011
20721W        W93036  33.488   7.655   1.873
20722W        W93037  31.148  11.310   0.353
20723W        W93038   3.248  16.530  10.634
20724W        W93039  19.872  40.591   0.487
20725W        W93040  41.292  38.366  13.637
20726W        W93041  35.980   4.749   1.143
20727W        W93042  41.095   9.692  12.041
20728W        W93043  13.031  17.822   2.782
20729W        W93044  20.318  31.473  11.495
20730W        W93045  10.136  42.053  11.555
20731W        W93046  18.061  20.259  13.342
20732W        W93047  37.586  42.286   4.319
20733W        W93048  17.049  21.223  14.200
20734W        W93049  22.831  23.960  11.920
20735W        W93050  30.493  37.313  10.253
20736W        W93051  10.799  13.507  14.651
20737W        W93052   8.213  38.008   0.730
20738W        W93053   9.986  36.095   2.329
20739W        W93054  19.049  18.082   2.185
20740W        W93055  13.019   2.989   3.905
20741W        W93056  16.690   2.192  12.101
20742W        W93057  35.924  40.398   2.083
20743W        W93058  21.591  38.617  13.060
20744W        W93059  10.057   8.245   3.659
20745W        W93060  43.780  14.577  12.037
20746W        W93061  30.868  12.772  12.141
20747W        W93062  26.738  10.329  11.001
20748W        W93063  19.515  21.567  12.190
20749W        W93064  29.650  33.180  11.130
20750W        W93065  43.855   7.903  10.503
20751W        W93066  26.654   3.436  10.251
20752W        W93067   6.293  28.986   2.897
20753W        W93068  31.115   7.980   0.325
20754W        W93069  31.597  35.039  12.079
20755W        W93070  12.200   3.966  12.004
20756W        W93071  11.101  32.625  12.351
20757W        W93072  27.304  28.129  11.524
20758W        W93073  30.414  40.368  10.735
20759W        W93074  35.267  32.922  14.725
20760W        W93075  28.987   5.900   4.312
20761W        W93076   1.341   9.783   1.332
20762W        W93077   1.721  11.765  11.936
20763W        W93078  29.859  26.123  14.793
20764W        W93079  41.296  30.882   0.501
20765W        W93080  20.435  23.426  13.585
20766W        W93081   1.631  17.022   3.657
20767W        W93082  41.946  37.184   0.668
20768W        W93083  26.304  22.993   2.255
20769W        W93084  18.258  31.679  13.888
20770W        W93085  10.069   8.183   0.270
20771W        W93086  19.321  17.528   3.463
20772W        W93087  16.347  22.281  11.003
20773W        W93088  14.639  15.709   9.998
20774W        W93089  40.270  27.628   1.819
20775W        W93090   6.847  34.168   1.408
20776W        W93091   5.605   1.555  14.263
20777W        W93092  23.124  12.756   1.878
20778W        W93093  24.231   7.809   4.188
20779W        W93094  26.148  29.176   2.095
20780W        W93095  28.729  33.744  12.394
20781W        W93096  12.526   6.184   2.648
20782W        W93097  28.426  18.750   4.160
20783W        W93098   9.690  17.061   4.322
20784W        W93099  18.533  18.415   0.008
20785W        W93100  40.520  11.370  13.432
20786W        W93101  17.341  24.957  11.613
20787W        W93102  31.418  44.271  12.641
20788W        W93103   6.282  12.315   3.008
20789W        W93104  12.192  24.543  14.226
20790W        W93105  19.692  19.799   1.837
20791W        W93106   8.008  36.800  11.243
20792W        W93107  34.407  19.234   1.275
20793W        W93108  38.459  29.676  14.297
20794W        W93109   3.286  33.581   3.592
20795W        W93110  10.387  38.081   5.059
20796W        W93111  17.160  40.265   3.140
20797W        W93112  39.376  13.080   2.736
20798W        W93113  26.701  41.999   0.858
20799W        W93114   1.037   0.820  11.565
20800W        W93115   0.261  13.100  11.030
20801W        W93116   3.166  17.035   4.632
20802W        W93117  33.830  13.618  10.740
20803W        W93118  40.508   9.570   3.317
20804W        W93119   1.416  42.353   0.804
20805W        W93120   8.285   6.196   3.379
20806W        W93121  43.190  24.094   2.795
20807W        W93122   3.987  29.906   1.025
20808W        W93123   2.765  23.162  12.178
20809W        W93124  44.695  44.312   3.781
20810W        W93125  38.610   2.717  11.615
20811W        W93126  20.677   2.119   0.306
20812W        W93127  18.171   8.654  12.982
20813W        W93128  23.122   8.693   2.032
20814W        W93129   4.782  26.103  13.749
20815W        W93130   2.866  32.198   2.730
20816W        W93131  28.555  12.241   4.643
20817W        W93132   1.523   2.406   1.803
20818W        W93133   8.674  43.821  14.906
20819W        W93134  14.770  17.294   1.015
20820W        W93135  14.271  32.877   4.333
20821W        W93136  22.004  31.071  13.978
20822W        W93137  32.711   7.770  14.271
20823W        W93138   5.483   5.886   1.782
20824W        W93139  43.711   0.476   2.821
20825W        W93140  26.027  43.357   2.161
20826W        W93141  28.106  13.278   3.922
20827W        W93142  10.111  14.253   2.416
20828W        W93143  43.321  44.965   0.883
20829W        W93144  11.302   2.159   3.099
20830W        W93145  21.699  28.600   3.222
20831W        W93146  27.655  26.408   3.094
20832W        W93147   5.847   5.979  11.347
20833W        W93148  42.327  12.361   0.777
20834W        W93149  34.460  36.773   2.927
20835W        W93150  30.692   1.133   1.018
20836W        W93151   8.306  24.206  11.924
20837W        W93152  29.976   0.934  12.475
20838W        W93153   0.895  26.381  14.506
20839W        W93154  25.375  12.257   0.481
20840W        W93155  35.601  35.132   2.905
20841W        W93156   0.769  16.559   4.540
20842W        W93157  17.596  12.871  13.060
20843W        W93158   8.388  21.041  10.610
20844W        W93159   1.564  37.026   1.882
20845W        W93160  32.822   4.449  13.403
20846W        W93161  12.279  44.763  13.444
20847W        W93162  40.603  22.999   3.613
20848W        W93163  15.684  13.050  14.844
20849W        W93164   3.831  24.281  12.819
20850W        W93165  21.401  21.654   1.116
20851W        W93166  43.674  16.984  12.451
20852W        W93167  26.891  22.057  14.200
20853W        W93168  19.032  18.129  10.574
20854W        W93169  40.835  33.412   1.855
20855W        W93170  31.694  20.583   0.267
20856W        W93171  15.399  14.764  14.303
20857W        W93172  26.432  16.100   4.117
20858W        W93173  12.405  29.670   2.325
20859W        W93174  38.345  14.777  10.736
20860W        W93175  32.433  19.813   5.071
20861W        W93176  42.279  42.229  12.487
20862W        W93177   6.631   9.169   2.955
20863W        W93178  43.898  22.698   4.605
20864W        W93179  42.961  30.073  12.070
20865W        W93180  43.989   0.403   2.366
20866W        W93181   8.332  23.071   0.434
20867W        W93182  24.155  21.593   1.835
20868W        W93183  17.834  37.814  13.936
20869W        W93184  21.111   2.757   3.316
20870W        W93185   7.918  31.712   1.549
20871W        W93186  10.146   9.853   4.710
20872W        W93187  10.376  17.477  11.591
20873W        W93188  26.432  26.565  12.546
20874W        W93189  20.715  32.426   3.598
20875W        W93190   8.061  25.544  11.119
20876W        W93191  19.486  35.886   3.967
20877W        W93192  38.926  10.175   5.003
20878W        W93193  12.886  33.067  14.166
20879W        W93194  25.250  31.046  11.487
20880W        W93195   7.355  38.010  12.237
20881W        W93196  39.318  21.583  14.070
20882W        W93197   2.562   7.404  12.067
20883W        W93198  18.720  35.524  10.356
20884W        W93199  38.300   6.378  10.610
20885W        W93200   4.883  12.155  12.404
20886W        W93201   1.335  21.673  14.681
20887W        W93202  36.544   3.453   1.195
20888W        W93203  40.536  33.007  13.906
20889W        W93204  26.047  32.426   1.633
20890W        W93205  40.297   1.913   2.732
20891W        W93206   3.560  41.545   1.365
20892W        W93207  32.413  34.396  11.602
20893W        W93208  23.715  35.523   3.160
20894W        W93209  24.026  11.269  12.655
20895W        W93210  37.451  30.059   2.168
20896W        W93211  30.765   0.914   3.273
20897W        W93212  29.637   2.195   4.650
20898W        W93213  38.985  42.639  13.183
20899W        W93214  15.179  31.032   1.512
20900W        W93215  11.882  29.154   3.226
20901W        W93216  28.146  34.659  12.314
20902W        W93217  17.090  11.657   3.293
20903W        W93218  37.488  13.360   1.940
20904W        W93219  24.608  23.964  13.503
20905W        W93220  43.286   0.107  12.009
20906W        W93221  35.366  21.409  13.191
20907W        W93222  19.501  15.716  13.570
20908W        W93223   0.930  15.243   2.055
20909W        W93224   0.492  13.861   3.925
20910W        W93225  19.520  11.412   1.889
20911W        W93226   1.216  12.274   4.136
20912W        W93227  28.941  31.100  12.887
20913W        W93228  32.751  42.607  11.152
20914W        W93229   2.300   9.074  11.412
20915W        W93230  19.568  35.543  10.794
20916W        W93231  12.281  33.325   2.407
20917W        W93232  18.230  10.361  10.721
20918W        W93233  19.438  11.908  12.368
20919W        W93234  41.771  32.712   2.320
20920W        W93235  35.128  25.592   1.860
20921W        W93236  30.165  38.856   3.606
20922W        W93237  39.360  13.181   1.848
20923W        W93238  21.967  40.544   4.363
20924W        W93239  10.246   3.363  12.370
20925W        W93240  25.414  12.029   2.846
20926W        W93241  18.532  10.831  10.996
20927W        W93242  10.166   0.258  12.348
20928W        W93243  25.132   5.078  14.930
20929W        W93244  17.262   8.779   0.766
20930W        W93245  22.348  10.536   4.189
20931W        W93246   1.724   0.613  11.072
20932W        W93247   2.227  41.172  11.234
20933W        W93248   4.134  22.597  10.815
20934W        W93249   7.456  38.557   1.296
20935W        W93250   9.626   8.325   3.956
20936W        W93251   2.938  32.155  13.515
20937W        W93252  30.862  34.616  11.001
20938W        W93253  21.396  14.219  12.641
20939W        W93254  34.436   0.748   0.784
20940W        W93255  12.223  42.046  14.565
20941W        W93256  37.109   0.073   1.923
20942W        W93257  27.547  22.611   4.818
20943W        W93258  21.056   2.480   0.281
20944W        W93259  42.098  25.990   1.418
20945W        W93260  10.060  34.315   1.933
20946W        W93261   3.441  24.910   1.497
20947W        W93262  18.683  13.864  13.014
20948W        W93263  22.028  43.395  14.926
20949W        W93264   4.181  11.686   0.817
20950W        W93265  25.756   1.764  13.910
20951W        W93266  19.068   2.950   3.878
20952W        W93267  24.606  15.676   4.045
20953W        W93268   0.337  16.645  12.138
20954W        W93269  17.550  35.178   0.816
20955W        W93270  17.702  13.806   3.665
20956W        W93271   9.701  24.474  12.461
20957W        W93272   8.013   2.803   2.229
20958W        W93273   2.995  12.647  12.948
20959W        W93274   9.137  25.227  13.011
20960W        W93275   7.275  15.574  14.249
20961W        W93276  18.606  22.348   3.334
20962W        W93277  11.186   9.861  10.693
20963W        W93278  18.945   8.379  11.138
20964W        W93279  13.097  27.617  12.172
20965W        W93280  14.012  15.763   3.141
20966W        W93281  19.579  23.825  13.546
20967W        W93282   1.748  22.370   0.077
20968W        W93283  21.333  21.954  14.889
20969W        W93284  35.477  24.471   3.495
20970W        W93285   5.330  35.664   0.270
20971W        W93286  14.325  31.038   4.651
20972W        W93287  22.645  40.500  14.685
20973W        W93288  36.101   0.467  13.588
20974W        W93289  28.323  12.154  11.871
20975W        W93290   3.379  27.845  14.157
20976W        W93291   9.432  21.555   3.599
20977W        W93292   8.928  42.993  12.230
20978W        W93293   9.670  35.657   0.807
20979W        W93294  34.888  31.927  14.973
20980W        W93295  13.943   7.652   4.588
20981W        W93296  44.721  24.187   1.160
20982W        W93297   5.641  31.114  11.998
20983W        W93298  43.666  11.526  11.512
20984W        W93299  13.146  14.556  12.957
20985W        W93300  17.798  18.169  12.477
20986W        W93301  37.765   1.736  14.455
20987W        W93302  27.149  44.397  10.201
20988W        W93303  34.622  43.798   1.451
20989W        W93304  43.061  13.050   4.738
20990W        W93305  12.045   2.442   3.455
20991W        W93306  27.470  43.736   3.964
20992W        W93307   9.900  38.135   3.990
20993W        W93308  37.026  17.103  11.499
20994W        W93309  33.741  29.208   3.222
20995W        W93310  35.934  43.560   3.602
20996W        W93311   0.799  35.904  13.304
20997W        W93312  26.702  13.093   3.057
20998W        W93313  40.414  18.300  14.182
20999W        W93314  25.630  17.574  11.704
21000W        W93315  29.217  26.515   2.694
21001W        W93316  10.642   3.839   0.242
21002W        W93317   4.234   3.782  12.185
21003W        W93318  14.194  20.661  14.363
21004W        W93319   9.606   7.981   3.570
21005W        W93320   0.545   7.663   3.733
21006W        W93321  37.374   2.643   0.287
21007W        W93322  24.781  39.490   2.251
21008W        W93323  27.627  43.054  12.001
21009W        W93324   0.049  40.478  13.175
21010W        W93325   0.077  40.557   0.405
21011W        W93326  35.309   7.918  13.063
21012W        W93327  22.010   3.893  11.917
21013W        W93328  31.041  33.578   3.930
21014W        W93329   2.398   9.368  13.227
21015W        W93330  34.170  42.494  11.951
21016W        W93331  17.115  35.930  11.174
21017W        W93332  14.560  34.881   3.633
21018W        W93333  40.969  30.957  12.868
21019W        W93334  12.245  29.939  10.917
21020W        W93335  11.421   9.901   1.653
21021W        W93336  19.204  12.320  12.165
21022W        W93337  41.839  31.173  13.239
21023W        W93338   3.286   2.787   3.933
21024W        W93339  32.302  34.169   4.219
21025W        W93340  22.139   2.622   1.775
21026W        W93341  23.596  16.098   4.622
21027W        W93342  26.090   5.238  13.920
21028W        W93343  29.190  10.410   2.702
21029W        W93344  19.677   7.140   2.776
21030W        W93345  12.499  18.774  12.056
21031W        W93346  15.616  11.071  12.441
21032W        W93347   8.944  26.971   0.857
21033W        W93348  17.971  15.748  13.420
21034W        W93349   6.155  21.518  13.334
21035W        W93350  28.240   9.134   2.997
21036W        W93351  12.743  20.353  12.131
21037W        W93352  26.144   4.071  14.672
21038W        W93353  32.959   4.515  14.507
21039W        W93354   7.620   8.299   4.555
21040W        W93355  38.111  24.068   4.948
21041W        W93356  20.589   1.000   3.874
21042W        W93357  13.344  35.609   1.751
21043W        W93358   8.931  29.015  11.147
21044W        W93359  38.131  15.903   4.650
21045W        W93360  15.977   6.233  11.092
21046W        W93361   7.310  32.673   0.611
21047W        W93362  37.078  44.894   2.774
21048W        W93363  29.339   4.539  14.980
21049W        W93364  30.578   7.703   2.320
21050W        W93365  41.328   0.917  11.605
21051W        W93366  24.649  25.998  12.331
21052W        W93367  34.960  30.610   3.255
21053W        W93368   4.943  18.317  14.270
21054W        W93369  22.919  34.168  10.709
21055W        W93370   5.531  42.993   4.091
21056W        W93371  33.166  32.728  11.660
21057W        W93372  15.277  31.203   2.562
21058W        W93373  14.149  32.509   2.692
21059W        W93374  21.263  42.166   2.219
21060W        W93375  42.091  40.362   2.265
21061W        W93376   8.159  15.986   0.019
21062W        W93377  14.304   4.054  11.990
21063W        W93378  42.785  27.970   4.150
21064W        W93379  26.307  37.823  11.013
21065W        W93380   2.270   2.272   1.206
21066W        W93381  28.981  29.983  12.095
21067W        W93382   6.859  15.347  14.467
21068W        W93383  26.949  19.802  12.258
21069W        W93384  42.096   0.401  12.576
21070W        W93385  42.047  24.080  13.910
21071W        W93386  33.029   4.652   3.718
21072W        W93387  31.465   3.070   4.617
21073W        W93388   1.553  27.644   3.401
21074W        W93389  34.927  10.323  10.229
21075W        W93390   4.041   7.632   3.740
21076W        W93391  28.545  33.192  10.425
21077W        W93392  31.771  16.073  13.851
21078W        W93393  33.139   2.887   0.894
21079W        W93394  23.121  22.541   4.951
21080W        W93395  25.603  26.271  12.121
21081W        W93396  28.129  27.736  14.786
21082W        W93397  23.645  16.085   1.276
21083W        W93398  35.562  22.740  12.007
21084W        W93399   9.260  31.358  11.168
21085W        W93400  18.996  14.604   4.901
21086W        W93401  28.452   5.374   3.150
21087W        W93402  25.456  10.459  13.619
21088W        W93403  13.784  33.925  11.958
21089W        W93404  16.158   4.173   1.156
21090W        W93405   5.469  14.643   0.047
21091W        W93406  42.500  26.527  13.703
21092W        W93407  12.426  26.694   0.796
21093W        W93408  43.479  16.638   4.183
21094W        W93409  36.131  10.297   0.037
21095W        W93410  35.540  17.155   4.745
21096W        W93411  41.799  16.960  11.055
21097W        W93412  41.708   1.267   4.041
21098W        W93413  28.238  28.395  10.729
21099W        W93414   1.885   0.275   4.336
21100W        W93415  42.850  27.581   2.254
21101W        W93416  16.480   5.983  14.980
21102W        W93417  41.891  20.564   4.763
21103W        W93418  39.057  17.143   3.982
21104W        W93419  11.437  18.628   2.115
21105W        W93420   3.376  44.411   4.297
21106W        W93421  34.943  31.312   1.289
21107W        W93422  38.251  17.353  11.345
21108W        W93423  36.400  13.174   2.412
21109W        W93424  17.275  11.882  12.201
21110W        W93425   6.337  41.157   0.499
21111W        W93426  25.570  32.203   5.535
21112W        W93427  43.845  12.343   2.325
21113W        W93428  31.795  29.093  14.427
21114W        W93429   7.299  34.814  14.609
21115W        W93430  26.086  24.127   0.903
21116W        W93431  43.874  37.297  11.532
21117W        W93432  43.940  42.718   5.091
21118W        W93433  33.093  35.475   3.882
21119W        W93434   8.676  44.561  12.123
21120W        W93435  15.587   6.291  11.480
21121W        W93436  13.851  22.774   1.914
21122W        W93437  29.312  43.194   3.787
21123W        W93438  26.088  27.168  11.721
21124W        W93439  14.836  32.495   4.517
21125W        W93440  39.389   3.228   2.275
21126W        W93441  27.931   5.423  14.832
21127W        W93442  30.233  36.294  13.114
21128W        W93443  29.349  18.972  11.188
21129W        W93444  25.892  14.351  11.210
21130W        W93445   7.355   5.802  11.544
21131W        W93446  19.050  40.125   4.601
21132W        W93447  27.318  10.159   3.659
21133W        W93448  41.861  37.981   3.580
21134W        W93449  39.812   0.969   1.448
21135W        W93450  20.712  16.245   0.482
21136W        W93451   4.679  32.203  12.029
21137W        W93452  26.215   7.164  14.543
21138W        W93453  19.837   8.244   4.194
21139W        W93454  44.396  19.058   2.799
21140W        W93455  15.816  23.233  14.496
21141W        W93456   1.811  35.935  11.584
21142W        W93457  14.664  18.189   0.281
21143W        W93458  17.601   5.944  12.618
21144W        W93459  17.348  22.033  11.084
21145W        W93460  19.923   3.474   0.782
21146W        W93461   9.925   2.965  11.055
21147W        W93462  28.488  36.757  11.158
21148W        W93463  31.863   8.603  11.171
21149W        W93464  21.582   6.001  11.959
21150W        W93465  33.677   4.059   1.005
21151W        W93466  24.060   8.472  11.093
21152W        W93467  41.648  39.573  14.338
21153W        W93468  20.435  23.101   0.869
21154W        W93469   3.711  35.527  14.439
21155W        W93470  12.590  39.443  13.797
21156W        W93471  35.441  38.516  14.574
21157W        W93472  19.668   6.722   3.092
21158W        W93473   3.214  31.477  14.537
21159W        W93474  18.165  30.402   1.848
21160W        W93475  19.667   2.377   2.599
21161W        W93476  28.609  12.722   1.470
21162W        W93477  44.871  27.627  11.564
21163W        W93478   6.522   7.848   0.770
21164W        W93479  36.115  44.193   4.755
21165W        W93480  32.183  34.718   0.541
21166W        W93481  34.880  13.401  14.816
21167W        W93482  12.286   6.434   1.008
21168W        W93483  39.738  35.755  13.733
21169W        W93484  43.078  37.060  12.123
21170W        W93485  12.789  40.947   0.291
21171W        W93486  30.832  11.227   2.823
21172W        W93487  10.404   9.825  13.084
21173W        W93488  24.647  38.789   3.395
21174W        W93489  42.803  27.253   0.885
21175W        W93490  12.608  21.699   2.759
21176W        W93491  21.964  18.150  10.626
21177W        W93492   4.837  38.561   1.420
21178W        W93493   1.329  29.304  14.865
21179W        W93494  33.953   8.961   1.861
21180W        W93495  31.960  26.838  14.708
21181W        W93496  11.756  37.348   2.764
21182W        W93497   4.656  18.628  13.401
21183W        W93498  37.244   9.256  13.943
21184W        W93499   0.843  26.174   4.231
21185W        W93500   1.212  15.793  10.831
21186W        W93501  23.020   1.085   2.141
21187W        W93502   4.328   9.589   4.108
21188W        W93503  16.789  26.955   2.258
21189W        W93504  32.002  32.678  13.380
21190W        W93505  14.368  37.933   1.765
21191W        W93506  23.631  17.794   3.098
21192W        W93507  29.699  26.289   1.811
21193W        W93508  43.372  14.806  13.017
21194W        W93509  25.455   8.281   3.697
21195W        W93510  44.005  29.639   0.721
21196W        W93511  43.478   7.364   5.160
21197W        W93512  29.309  19.825  10.334
21198W        W93513  28.224  41.568  11.217
21199W        W93514  38.944  21.715  14.404
21200W        W93515   2.319  27.359   3.610
21201W        W93516   4.814   3.703  11.204
21202W        W93517  42.462   4.491   3.655
21203W        W93518   5.613  29.880  13.398
21204W        W93519   4.502   1.771   2.114
21205W        W93520   3.338  13.678   4.338
21206W        W93521  22.260  41.958  14.761
21207W        W93522  22.207  17.023  13.975
21208W        W93523  15.607  40.855   0.230
21209W        W93524  23.140   3.700  12.440
21210W        W93525  30.871  23.249  11.142
21211W        W93526   0.902  35.441   4.640
21212W        W93527  42.784  29.207  14.313
21213W        W93528  33.662  13.911  12.452
21214W        W93529  27.767   3.394   0.418
21215W        W93530   2.330  32.505  14.815
21216W        W93531  21.214  28.982  12.877
21217W        W93532  41.272  15.855   0.929
21218W        W93533   5.969  16.832   4.648
21219W        W93534  25.775  42.725   4.628
21220W        W93535  31.939  26.615   0.596
21221W        W93536  36.546  27.355  12.302
21222W        W93537  17.027   5.704   3.813
21223W        W93538  24.179   6.450   1.081
21224W        W93539  14.993  16.024   0.842
21225W        W93540  17.817  12.246  11.181
21226W        W93541  31.529  37.352   0.288
21227W        W93542   5.067   0.078   1.882
21228W        W93543  20.517  24.077  11.364
21229W        W93544  34.347   1.395  13.062
21230W        W93545  21.599  21.449  13.846
21231W        W93546   2.927   9.031  10.758
21232W        W93547   0.336  40.243   3.227
21233W        W93548  37.622  12.045  13.935
21234W        W93549  30.418  15.725  12.417
21235W        W93550   1.278   4.457  11.013
21236W        W93551  44.912  17.628   4.444
21237W        W93552  22.959  35.131   4.080
21238W        W93553  24.956  11.335   1.317
21239W        W93554  18.221  33.985   0.136
21240W        W93555   9.060   3.979  12.442
21241W        W93556   2.401  44.558  11.355
21242W        W93557  30.670  35.707   0.396
21243W        W93558  25.101  43.815  12.145
21244W        W93559   8.720   4.731   4.616
21245W        W93560  16.243  36.850  11.075
21246W        W93561  24.100  27.951  10.695
21247W        W93562   6.259  27.455  14.609
21248W        W93563  40.777  37.788  13.479
21249W        W93564  40.777  21.930  10.729
21250W        W93565  41.050  23.883   5.002
21251W        W93566  31.561  36.841   0.433
21252W        W93567   9.757  24.805   2.483
21253W        W93568   3.961  37.839  10.433
21254W        W93569  26.634  31.269  11.043
21255W        W93570   7.945   1.970   2.976
21256W        W93571  27.693  17.194  12.906
21257W        W93572  16.173  27.730   0.925
21258W        W93573   8.131  15.157  12.315
21259W        W93574  27.533  32.821  14.811
21260W        W93575  42.416  12.783  10.802
21261W        W93576  35.322  30.626  13.841
21262W        W93577   6.554  15.184   2.763
21263W        W93578  33.011   1.775   3.907
21264W        W93579  13.656   8.076   3.838
21265W        W93580  44.696   1.662  11.129
21266W        W93581  31.030  11.224  11.958
21267W        W93582  22.175  26.895  12.884
21268W        W93583  23.733  39.924  11.604
21269W        W93584   5.246  33.614   3.717
21270W        W93585  12.562  42.699   3.289
21271W        W93586  15.459  15.299  10.436
21272W        W93587  42.621   1.617   3.794
21273W        W93588  18.305   7.702   1.061
21274W        W93589  26.088  15.266  13.505
21275W        W93590   9.913  22.013   0.356
21276W        W93591  16.745  25.828  12.358
21277W        W93592  29.561  33.350  14.281
21278W        W93593   3.765  31.457   0.240
21279W        W93594   7.165   9.915  13.908
21280W        W93595   6.829  20.852  11.986
21281W        W93596  38.401  19.878  12.209
21282W        W93597   6.707   1.410   0.499
21283W        W93598  27.504  39.422   4.580
21284W        W93599  27.452   7.306  12.974
21285W        W93600   5.152  29.931   0.227
21286W        W93601   0.748   3.960  11.628
21287W        W93602  23.603  26.940  12.491
21288W        W93603  24.460  25.560  11.741
21289W        W93604  29.369   0.294  14.338
21290W        W93605  24.791  36.487   0.205
21291W        W93606  17.184  44.794  14.048
21292W        W93607   2.986  15.322   2.270
21293W        W93608   2.240  29.668  12.478
21294W        W93609  42.562  20.205   4.580
21295W        W93610  26.452  20.610  14.455
21296W        W93611  36.511  27.158  12.895
21297W        W93612  42.436  43.037  14.839
21298W        W93613  24.811  11.035  11.057
21299W        W93614  38.498   7.726   2.626
21300W        W93615  16.778  27.221  12.325
21301W        W93616  31.885   7.900  14.406
21302W        W93617  41.014  22.789  12.035
21303W        W93618  21.153   3.754  14.854
21304W        W93619  28.204  38.086   0.088
21305W        W93620  29.057  42.558   4.892
21306W        W93621   3.633   6.822   2.165
21307W        W93622  21.661  15.156  14.255
21308W        W93623  35.899  41.587  12.884
21309W        W93624  34.141   9.848  11.735
21310W        W93625  36.731   7.685   0.004
21311W        W93626  14.367   5.411   4.350
21312W        W93627  41.761  29.480   0.324
21313W        W93628  11.736  39.454   1.775
21314W        W93629  24.555  12.089  13.014
21315W        W93630  36.846   5.618   4.081
21316W        W93631   9.966   0.994   0.764
21317W        W93632  13.802   7.449   0.444
21318W        W93633  20.279  39.654  14.436
21319W        W93634   3.302   6.195   2.228
21320W        W93635  44.824  22.129   3.655
21321W        W93636  17.791  31.326  11.589
21322W        W93637  36.636  39.849   4.141
21323W        W93638  35.167  28.418   1.465
21324W        W93639  17.858  23.592  13.366
21325W        W93640  15.179  17.037  12.679
21326W        W93641   6.897  18.449  12.509
21327W        W93642  40.520  27.662   4.440
21328W        W93643  30.222  13.011  14.283
21329W        W93644   6.436  35.463  11.942
21330W        W93645  13.605  38.944  12.243
21331W        W93646  22.704   5.770  14.739
21332W        W93647   6.721  27.374  11.689
21333W        W93648  21.253  21.419  11.607
21334W        W93649  38.339  18.206   1.739
21335W        W93650  26.973  16.305   3.316
21336W        W93651  35.582   9.564   4.339
21337W        W93652  14.755  13.169   1.346
21338W        W93653  35.565   4.297   0.937
21339W        W93654   4.244  24.188   2.350
21340W        W93655  43.986  18.195   2.710
21341W        W93656  34.328  31.299   3.038
21342W        W93657  39.618  27.392   4.666
21343W        W93658   7.669  26.514  13.975
21344W        W93659   1.878  21.198   0.311
21345W        W93660   5.303  27.106   1.258
21346W        W93661  14.584  13.800  13.677
21347W        W93662  12.646   4.279   0.856
21348W        W93663  42.380  20.975   1.548
21349W        W93664  21.008  44.991   0.965
21350W        W93665  32.948  38.806   1.746
21351W        W93666   3.703  19.022   0.787
21352W        W93667  37.583  22.119   0.506
21353W        W93668  35.868  12.613  13.100
21354W        W93669  26.162  30.755   1.010
21355W        W93670  28.021  33.444  10.594
21356W        W93671   4.046   3.832  14.337
21357W        W93672   2.667  29.541   2.398
21358W        W93673   6.717  17.339   4.556
21359W        W93674  14.298   3.070   1.660
21360W        W93675  21.052  31.098   2.738
21361W        W93676  20.186  41.205  10.260
21362W        W93677  29.522  12.580   1.186
21363W        W93678   6.753  27.844  13.456
21364W        W93679  39.702  35.969   4.584
21365W        W93680  44.114  21.719  12.589
21366W        W93681  39.200  29.030   2.942
21367W        W93682   0.384   4.147  11.968
21368W        W93683  33.315  28.301  13.300
21369W        W93684  23.723  43.350   3.706
21370W        W93685  25.210  20.684  10.167
21371W        W93686   1.499  13.345  10.622
21372W        W93687  18.762  42.239   4.897
21373W        W93688   7.027  32.806  11.538
21374W        W93689   2.261  41.525  12.231
21375W        W93690   4.987  42.905   3.198
21376W        W93691  28.575   3.667  12.459
21377W        W93692  21.843  37.392  12.895
21378W        W93693  22.198   2.246   1.324
21379W        W93694  10.672  20.144  11.871
21380W        W93695  24.988  31.501  11.555
21381W        W93696  38.042  35.082  11.512
21382W        W93697  43.650  12.458   4.145
21383W        W93698  26.166  22.744   2.720
21384W        W93699   0.800   5.751  14.810
21385W        W93700  41.993  37.333  14.795
21386W        W93701  32.897   0.754   2.453
21387W        W93702  28.504  42.691  13.759
21388W        W93703  35.507   5.516   2.781
21389W        W93704  20.298  17.292   3.944
21390W        W93705   2.252  21.109   2.467
21391W        W93706  32.436  39.049  11.172
21392W        W93707   5.964  27.670   3.214
21393W        W93708  21.561  31.526   4.957
21394W        W93709  20.528  33.910   2.347
21395W        W93710   9.187   6.932  11.759
21396W        W93711  34.532  10.895  10.734
21397W        W93712  19.343  27.230  13.426
21398W        W93713  19.003  31.132  10.713
21399W        W93714  27.852  27.134  13.454
21400W        W93715  12.448  21.195  11.987
21401W        W93716  44.850  44.269   0.735
21402W        W93717  16.318  38.369  14.806
21403W        W93718  34.069  41.562   2.334
21404W        W93719   4.522  13.635  12.897
21405W        W93720  30.971  34.100  13.121
21406W        W93721   2.010   5.086  13.012
21407W        W93722   3.230  17.050  10.679
21408W        W93723  15.111  30.297  11.886
21409W        W93724  10.562  34.343   1.806
21410W        W93725  27.481  15.696  11.652
21411W        W93726   0.259  36.417  10.968
21412W        W93727  10.851  40.313   1.415
21413W        W93728  43.557  16.983   3.402
21414W        W93729  22.190   1.340  14.694
21415W        W93730  38.817  14.253  13.893
21416W        W93731  29.215  37.399   2.320
21417W        W93732  40.766  44.882   0.801
21418W        W93733  18.987  43.406  13.487
21419W        W93734  39.181  31.561   3.130
21420W        W93735  39.910  12.149   4.042
21421W        W93736  33.492  17.043  12.130
21422W        W93737  35.855  11.316   2.265
21423W        W93738  12.813  35.142  10.227
21424W        W93739  39.640  33.789   4.198
21425W        W93740   5.600   9.599   3.287
21426W        W93741  32.880  39.077   3.689
21427W        W93742  37.037  38.470   1.861
21428W        W93743  26.273   7.426   0.888
21429W        W93744  16.530  36.237   4.628
21430W        W93745  26.386  19.074   3.288
21431W        W93746   0.992   9.389   4.555
21432W        W93747  26.609  24.662   3.316
21433W        W93748   2.293  39.285  11.529
21434W        W93749  35.923  37.344  12.353
21435W        W93750  22.281  37.643   1.764
21436W        W93751   5.010   4.795   2.407
21437W        W93752  14.766  26.201   3.539
21438W        W93753  10.251  15.229  11.113
21439W        W93754  11.754  29.218  12.160
21440W        W93755  14.935  37.455   2.715
21441W        W93756   9.761   3.042   0.789
21442W        W93757  31.962  32.822   4.815
21443W        W93758  13.041  11.764   2.692
21444W        W93759  28.913  34.859  10.685
21445W        W93760  16.064   7.190   1.857
21446W        W93761  22.747  26.502  10.885
21447W        W93762   2.316   5.665   0.270
21448W        W93763  38.565  42.775  13.807
21449W        W93764  21.216  15.432   3.109
21450W        W93765  28.132  23.438  13.850
21451W        W93766  39.068  30.978   1.919
21452W        W93767  25.717  34.264  14.972
21453W        W93768  24.247  44.512  14.971
21454W        W93769  44.813   7.817  12.410
21455W        W93770  41.600   8.280  13.007
21456W        W93771  36.163   0.371  10.717
21457W        W93772  24.993  17.103  12.405
21458W        W93773   7.295  22.675   3.524
21459W        W93774   5.787  31.427   2.437
21460W        W93775  16.129  30.985  13.568
21461W        W93776  40.909  11.648  11.658
21462W        W93777  22.397   7.304   3.982
21463W        W93778  30.121  10.579  14.498
21464W        W93779  23.709  13.838  11.346
21465W        W93780   6.379  12.795   4.111
21466W        W93781  10.099  20.445  14.120
21467W        W93782  38.627   4.206  14.798
21468W        W93783   9.089  10.584  12.562
21469W        W93784   8.721   9.954  13.287
21470W        W93785  44.396  41.270  13.782
21471W        W93786  30.930  21.024  11.520
21472W        W93787  14.292  43.047   4.170
21473W        W93788  11.434  24.191   0.464
21474W        W93789  37.596  38.551   3.689
21475W        W93790  43.489  34.665  14.246
21476W        W93791  28.544   3.684  13.376
21477W        W93792  38.509  35.993   3.134
21478W        W93793  24.989  31.190   0.620
21479W        W93794  10.318  29.544  13.045
21480W        W93795  16.701  40.430   4.489
21481W        W93796   0.910  25.100  10.818
21482W        W93797  44.032   9.675   9.975
21483W        W93798  32.012  34.094  11.503
21484W        W93799   1.283   8.946   4.123
21485W        W93800  28.059  31.530   9.969
21486W        W93801  39.877  29.903  13.408
21487W        W93802  19.107  24.059   4.296
21488W        W93803  23.027  27.892   3.009
21489W        W93804  12.278  26.752  13.377
21490W        W93805  18.501  11.786  14.858
21491W        W93806   4.417   2.449  11.550
21492W        W93807  40.551  22.243  11.542
21493W        W93808  13.826   4.752  14.649
21494W        W93809  18.456  38.928   4.132
21495W        W93810   8.753   0.411  12.098
21496W        W93811  17.813   7.586  12.422
21497W        W93812  19.522  42.749   4.216
21498W        W93813   6.246  14.240  14.983
21499W        W93814   0.973   1.373   4.510
21500W        W93815  35.297  21.761   4.712
21501W        W93816  33.058  36.339   4.859
21502W        W93817  43.877  39.040  11.709
21503W        W93818  31.570  33.008   2.912
21504W        W93819  26.596  16.900   2.250
21505W        W93820  23.346  36.791   2.773
21506W        W93821  29.613   4.418   0.427
21507W        W93822  13.103   0.849  10.003
21508W        W93823  41.408   1.287   3.186
21509W        W93824  18.573  10.063   4.274
21510W        W93825  25.039  24.009   0.816
21511W        W93826  43.329   3.699   3.709
21512W        W93827  34.689  15.002  11.668
21513W        W93828  18.610   2.898  12.610
21514W        W93829   6.598  27.603  12.942
21515W        W93830  41.534  21.316  12.137
21516W        W93831  34.147  36.396   2.785
21517W        W93832  29.472  24.437   0.066
21518W        W93833   8.262  36.336  11.145
21519W        W93834  30.430  32.407   2.363
21520W        W93835  41.707  15.733  10.437
21521W        W93836   8.184  17.288  11.162
21522W        W93837   7.527  30.346   0.763
21523W        W93838   9.735  44.103  13.959
21524W        W93839  10.589  44.461  11.161
21525W        W93840  21.588   6.410  13.804
21526W        W93841  44.341   4.288   2.179
21527W        W93842  44.109  26.771   1.424
21528W        W93843  33.099  40.232   3.298
21529W        W93844  39.043  30.620   1.347
21530W        W93845  30.143  41.911  14.226
21531W        W93846  27.215  35.506   1.702
21532W        W93847  11.018  24.224   4.137
21533W        W93848  18.159  31.744   4.194
21534W        W93849  19.707   8.120  12.658
21535W        W93850  40.950   7.148   4.207
21536W        W93851  18.493  35.875  11.158
21537W        W93852  25.577   7.863  14.975
21538W        W93853  28.810  23.505   2.817
21539W        W93854  12.516  29.524  11.427
21540W        W93855  27.933  43.532   3.686
21541W        W93856  26.107  14.193   1.787
21542W        W93857   2.844   5.366   4.626
21543W        W93858   4.647  11.661  11.256
21544W        W93859  34.121  43.945  12.044
21545W        W93860   0.213  41.458  14.266
21546W        W93861   2.339  41.473   5.276
21547W        W93862  26.103  22.496   1.374
21548W        W93863   5.124  10.229  11.993
21549W        W93864   4.358  17.552   2.776
21550W        W93865  32.833  30.986   2.231
21551W        W93866   2.354   9.470  10.948
21552W        W93867  31.979  39.426   4.161
21553W        W93868   8.201  23.039   2.899
21554W        W93869   1.228  13.445  11.055
21555W        W93870  25.822  28.876   2.875
21556W        W93871  35.847  44.525  13.393
21557W        W93872  34.528  11.795  12.049
21558W        W93873  16.800   4.186   2.327
21559W        W93874  39.000  17.752  11.039
21560W        W93875  31.173  32.147  14.494
21561W        W93876   4.829  44.200  10.933
21562W        W93877  40.094   2.809  14.850
21563W        W93878  44.390  36.914  12.580
21564W        W93879   3.573   6.658  14.771
21565W        W93880  29.940  27.360  14.392
21566W        W93881   9.072  29.092  12.123
21567W        W93882  14.108  25.617  14.304
21568W        W93883  25.579  16.510  10.836
21569W        W93884  44.362  10.114   3.646
21570W        W93885  11.741  18.288  14.849
21571W        W93886  42.811  21.689  14.485
21572W        W93887   5.860   4.720  12.917
21573W        W93888   3.818  18.667   4.080
21574W        W93889  19.252  11.056   1.621
21575W        W93890  18.395  41.094   5.207
21576W        W93891  28.125  35.481  11.876
21577W        W93892  26.191   9.328   4.294
21578W        W93893  27.592   2.899  11.988
21579W        W93894   7.886  36.048  11.438
21580W        W93895   7.916  28.499  10.559
21581W        W93896  24.785  15.761   3.557
21582W        W93897  37.245  36.800   3.969
21583W        W93898  39.036  42.226  11.206
21584W        W93899  12.293  15.860  13.986
21585W        W93900   0.456  20.405  11.445
21586W        W93901  39.030  23.045   5.164
21587W        W93902   7.308  39.590  13.900
21588W        W93903  39.768  24.099  10.654
21589W        W93904  27.003  22.237   2.232
21590W        W93905  29.217  37.117  13.027
21591W        W93906  23.078  12.963   3.206
21592W        W93907  24.745   3.470  10.901
21593W        W93908  13.736   1.658  12.128
21594W        W93909  19.708   1.193   4.927
21595W        W93910   4.854  43.404  11.698
21596W        W93911  12.847  16.461  12.334
21597W        W93912  18.777  35.052   0.295
21598W        W93913   8.088  34.298   0.474
21599W        W93914  44.521  18.460   2.191
21600W        W93915  22.753  36.352   0.900
21601W        W93916  40.979  19.271  12.020
21602W        W93917  17.196  31.617   2.160
21603W        W93918  17.186  40.414   0.252
21604W        W93919  27.658   6.626  11.141
21605W        W93920  30.106  22.483   1.239
21606W        W93921  36.002   3.637  12.611
21607W        W93922  12.203  36.035  10.762
21608W        W93923  14.965  24.234  13.076
21609W        W93924  14.405  30.482   2.935
21610W        W93925  32.000   0.182  13.129
21611W        W93926  26.771  43.429   3.236
21612W        W93927  40.844  31.560  14.151
21613W        W93928  26.027  28.604   1.355
21614W        W93929  10.508   0.458   3.210
21615W        W93930  34.919   9.630   4.578
21616W        W93931  25.813  36.410  12.414
21617W        W93932  32.844  14.668   2.666
21618W        W93933  18.300  41.350  10.671
21619W        W93934  24.209   5.681   4.052
21620W        W93935   0.393  38.054   1.729
21621W        W93936  40.798  43.840   2.960
21622W        W93937  42.613  26.899   4.052
21623W        W93938   8.643  16.005   2.741
21624W        W93939  24.259  27.714   0.452
21625W        W93940  13.814  30.208   1.772
21626W        W93941  42.340  27.507  13.860
21627W        W93942  22.027   8.659  11.879
21628W        W93943   1.510  29.136   1.811
21629W        W93944   6.413  40.763   0.176
21630W        W93945  37.069  23.906   2.258
21631W        W93946  10.744   8.451  14.324
21632W        W93947   9.311  13.069  14.054
21633W        W93948  16.109  29.719   0.126
21634W        W93949  27.720   8.363  13.874
21635W        W93950  11.409   0.288  11.590
21636W        W93951  18.005  29.505   1.999
21637W        W93952   3.037  44.809   3.640
21638W        W93953  24.769   0.436  12.393
21639W        W93954  35.841  30.450   4.070
21640W        W93955  18.331  39.437   1.242
21641W        W93956  40.253   7.419  13.518
21642W        W93957  37.095  35.452  11.583
21643W        W93958  38.005   9.200  14.495
21644W        W93959  14.690  39.686  12.450
21645W        W93960  22.098  17.434   4.094
21646W        W93961  19.981  33.544  11.624
21647W        W93962  12.336  18.854   3.151
21648W        W93963  25.909  26.344   3.158
21649W        W93964  42.780   2.339  10.423
21650W        W93965  14.751  18.537  12.168
21651W        W93966  37.598   0.981  14.274
21652W        W93967   2.901   5.293   3.238
21653W        W93968  39.015   0.008   0.890
21654W        W93969  26.721  43.583  13.623
21655W        W93970  39.397  33.366   3.303
21656W        W93971  38.114   7.536  12.435
21657W        W93972  41.103  27.625   1.327
21658W        W93973  29.821  25.254   3.705
21659W        W93974  33.871   1.709   3.809
21660W        W93975  26.997  28.410   0.181
21661W        W93976   7.286  37.463  11.078
21662W        W93977  41.966  41.516  13.531
21663W        W93978  37.059  17.248   1.884
21664W        W93979   8.164   1.534   3.209
21665W        W93980  21.409   9.855   4.535
21666W        W93981  16.339   2.227   1.881
21667W        W93982  28.463   5.219   4.239
21668W        W93983   2.374  42.976   0.352
21669W        W93984  17.633  25.471  13.817
21670W        W93985   6.893  19.376   3.795
21671W        W93986  38.772  14.702  12.155
21672W        W93987  44.205  33.567   4.382
21673W        W93988  23.453   5.598   1.799
21674W        W93989  15.839   8.524  14.460
21675W        W93990  24.837   7.866   1.714
21676W        W93991  21.902   1.776  12.394
21677W        W93992  31.538  15.984   4.267
21678W        W93993  36.765  32.199  11.099
21679W        W93994  21.490  25.043  14.637
21680W        W93995  15.253  30.590  14.813
21681W        W93996   0.010  16.193   0.500
21682W        W93997  22.314   0.402   0.693
21683W        W93998  18.304  40.798   3.645
21684W        W93999  22.495  29.438  14.742
21685W        W94000  43.880  24.791  14.048
21686W        W94001  10.144  16.003  12.434
21687W        W94002   8.521  13.226  13.425
21688W        W94003  26.747  34.965   0.947
21689W        W94004  13.733  40.575   1.254
21690W        W94005   6.327  38.916   4.615
21691W        W94006  41.402  22.472  11.163
21692W        W94007  44.531  40.879  12.040
21693W        W94008   8.829  22.618  14.292
21694W        W94009  27.729  32.436   1.131
21695W        W94010  35.781  23.878   0.258
21696W        W94011   1.291  39.259   3.612
21697W        W94012  27.194  25.239   1.816
21698W        W94013  21.720  24.992  13.185
21699W        W94014  25.656  17.559  10.765
21700W        W94015  18.757   3.435  13.505
21701W        W94016  34.882  27.631  14.054
21702W        W94017  17.674  18.758   4.493
21703W        W94018  41.359  30.349   1.923
21704W        W94019  41.259  14.432   4.542
21705W        W94020  44.745  22.886  13.354
21706W        W94021  14.211  19.212  12.260
21707W        W94022  18.068  27.414  12.879
21708W        W94023  33.991   8.413  12.950
21709W        W94024  28.122  18.653  13.273
21710W        W94025  21.206  15.994  10.720
21711W        W94026  19.345  30.524  14.818
21712W        W94027  39.069  27.060  14.011
21713W        W94028  42.642  35.089  14.236
21714W        W94029  38.502  13.740  10.902
21715W        W94030  37.794  33.016   2.157
21716W        W94031  10.867   1.853  12.648
21717W        W94032   2.390   4.206   0.939
21718W        W94033  32.360  14.312  11.513
21719W        W94034  35.007  29.698  13.781
21720W        W94035  16.227   3.004  13.346
21721W        W94036  16.995  17.061   2.207
21722W        W94037  26.189  33.500  13.360
21723W        W94038   9.087  40.474   0.757
21724W        W94039  42.584   2.034  13.364
21725W        W94040   2.965  23.277  12.644
21726W        W94041  23.329  17.550  14.785
21727W        W94042  21.318  33.271   1.392
21728W        W94043  34.855  39.829   1.151
21729W        W94044  23.684   8.191   2.642
21730W        W94045  30.351  22.727   3.783
21731W        W94046  42.494  27.620  10.304
21732W        W94047  28.608   8.951  12.010
21733W        W94048  37.435  41.065  14.440
21734W        W94049  15.286  11.664   2.035
21735W        W94050  39.656   0.419   1.390
21736W        W94051  12.170  19.291  11.176
21737W        W94052   0.651   8.645   0.859
21738W        W94053  28.944  40.214  10.635
21739W        W94054  39.176  42.935  14.187
21740W        W94055  26.598   5.058  13.870
21741W        W94056  33.288   4.035   2.240
21742W        W94057  20.466  10.942  10.598
21743W        W94058  19.710  12.057   5.055
21744W        W94059  14.774  20.681  12.114
21745W        W94060  27.261  31.671   0.713
21746W        W94061  21.229  24.594  11.421
21747W        W94062   6.865  23.369   3.306
21748W        W94063   0.450   0.839  14.836
21749W        W94064  20.842  41.421  10.555
21750W        W94065  14.366  15.673   1.790
21751W        W94066  39.432   1.825  12.817
21752W        W94067  38.415  35.593   4.373
21753W        W94068  28.214  32.422  12.014
21754W        W94069  31.009  37.326  13.291
21755W        W94070   3.367  10.020   0.886
21756W        W94071  20.246  10.125   9.861
21757W        W94072  15.189  24.488   3.320
21758W        W94073  41.406  31.034   3.514
21759W        W94074  25.647  36.987   4.453
21760W        W94075  12.243  17.311  14.010
21761W        W94076  42.928   1.887  10.623
21762W        W94077   0.014  25.018   0.509
21763W        W94078  40.570  27.765   1.390
21764W        W94079   0.442  26.494   4.078
21765W        W94080  12.663   4.383  13.126
21766W        W94081   9.636   7.676   1.122
21767W        W94082  27.502   5.672  11.247
21768W        W94083  36.290  34.137   4.160
21769W        W94084  21.716   3.713  12.576
21770W        W94085  17.753   8.695   2.359
21771W        W94086  43.399   9.280  11.552
21772W        W94087  44.295  32.104   0.318
21773W        W94088  44.707  40.897   3.150
21774W        W94089  23.127  20.514  11.153
21775W        W94090  41.247  29.123   3.146
21776W        W94091  26.791  38.117   1.861
21777W        W94092  25.580   7.977  14.472
21778W        W94093  10.051  33.391   2.940
21779W        W94094   7.140  16.104   0.353
21780W        W94095  12.740  21.474   2.075
21781W        W94096  25.498   0.670  11.085
21782W        W94097  21.011  27.035   1.815
21783W        W94098  37.619  27.442  14.168
21784W        W94099  41.059  26.322   1.450
21785W        W94100  20.349  17.249   0.800
21786W        W94101   1.479  19.044  10.619
21787W        W94102  11.444  35.471  14.508
21788W        W94103  30.219  21.172  12.902
21789W        W94104  42.222  32.097   5.004
21790W        W94105  15.157  11.112   4.647
21791W        W94106   7.931   1.450  12.647
21792W        W94107   9.194  37.357   3.404
21793W        W94108  43.692  33.691  12.569
21794W        W94109  22.132   9.314  11.209
21795W        W94110  38.015  26.204  13.203
21796W        W94111  12.857  15.268   1.922
21797W        W94112   7.751   7.395   1.625
21798W        W94113  26.368   2.013  14.750
21799W        W94114  33.010  18.498   0.322
21800W        W94115  39.093   5.673  11.552
21801W        W94116  13.807   3.556   4.222
21802W        W94117  34.573   4.390  10.483
21803W        W94118  30.399  43.873   2.326
21804W        W94119  29.033  12.194  10.509
21805W        W94120  31.903  10.971  11.023
21806W        W94121   1.297  16.068   1.394
21807W        W94122  14.323  37.631  13.031
21808W        W94123  15.698  44.977   4.374
21809W        W94124   1.259  37.899  13.720
21810W        W94125  42.034  31.049   0.935
21811W        W94126  21.532  23.939   3.165
21812W        W94127  43.985  38.501  14.995
21813W        W94128   8.075  25.573   3.196
21814W        W94129   4.687  25.866  12.391
21815W        W94130  35.075  10.715   1.383
21816W        W94131  37.774  20.166  12.142
21817W        W94132  31.855  23.997   2.795
21818W        W94133  10.623  31.113   1.961
21819W        W94134  10.254  33.487  14.444
21820W        W94135  44.838  20.473  12.625
21821W        W94136   5.169  18.295   3.147
21822W        W94137  41.075   2.424  11.604
21823W        W94138  13.129  22.984  13.890
21824W        W94139  41.952   2.685  14.434
21825W        W94140  33.987  32.388   2.755
21826W        W94141  41.318   4.687   2.927
21827W        W94142  39.058  39.921   4.098
21828W        W94143  26.137  38.303  13.818
21829W        W94144  28.218  40.443  13.539
21830W        W94145   1.667  34.832   5.447
21831W        W94146   7.960  32.890   3.644
21832W        W94147  21.315   4.779  12.939
21833W        W94148  37.797   2.067  12.843
21834W        W94149  21.028  33.478   0.913
21835W        W94150  38.726  24.231  13.313
21836W        W94151  42.933  30.740  14.422
21837W        W94152  36.139  30.593  11.606
21838W        W94153  40.978  22.417   0.696
21839W        W94154  13.796  30.856  10.756
21840W        W94155   7.032  30.394   0.864
21841W        W94156  28.951  33.122  13.470
21842W        W94157  15.913   2.420  13.028
21843W        W94158  31.343  26.593  12.966
21844W        W94159  25.363  35.486  14.355
21845W        W94160  35.890  19.462   1.080
21846W        W94161  12.304   5.716   3.662
21847W        W94162  10.854  18.041   4.293
21848W        W94163  43.981  35.818   4.926
21849W        W94164  31.345  34.951  12.533
21850W        W94165   9.387  25.899   4.936
21851W        W94166  18.850  19.211   4.005
21852W        W94167  19.821  10.706   3.688
21853W        W94168  36.869  13.396  13.090
21854W        W94169  15.350  18.179   2.007
21855W        W94170  26.575  39.756   2.174
21856W        W94171  36.277   7.604   2.800
21857W        W94172  40.158  12.972   3.124
21858W        W94173  31.927  41.386  10.333
21859W        W94174   9.471  19.773   3.708
21860W        W94175  15.151  44.679  14.493
21861W        W94176  32.442  40.091  13.322
21862W        W94177  39.996  15.041  12.893
21863W        W94178  32.525  20.600   4.538
21864W        W94179  16.481  16.104  13.489
21865W        W94180  17.196  33.958   2.296
21866W        W94181  35.712   6.190  11.870
21867W        W94182  11.693   2.310  13.474
21868W        W94183  31.835  44.552   4.536
21869W        W94184  19.485  36.832   2.607
21870W        W94185   4.437  21.989  13.879
21871W        W94186  34.055  16.236   4.557
21872W        W94187  42.534  24.161  10.785
21873W        W94188  31.893  27.000   0.244
21874W        W94189   0.358  41.348   2.768
21875W        W94190   3.688  27.976   0.027
21876W        W94191  27.224  13.822   0.020
21877W        W94192  12.741  18.969   0.903
21878W        W94193  32.111  40.974   0.441
21879W        W94194  10.172  16.104   3.616
21880W        W94195  31.278  19.519  11.218
21881W        W94196  28.932  27.804   1.091
21882W        W94197  29.877  19.301   4.917
21883W        W94198   7.797  41.026  10.806
21884W        W94199  22.736  23.787   2.214
21885W        W94200  36.585  25.723  11.486
21886W        W94201  10.400  18.026  14.783
21887W        W94202  35.554   2.903  12.059
21888W        W94203  21.593  22.958  10.410
21889W        W94204  29.592  28.945   0.670
21890W        W94205  17.617  28.137   9.770
21891W        W94206  16.284   3.888   3.556
21892W        W94207  19.715   5.555   4.114
21893W        W94208  28.541   1.519   4.405
21894W        W94209  14.049   8.173  13.965
21895W        W94210  36.480  32.010  14.813
21896W        W94211   2.851  27.531  12.925
21897W        W94212   9.184  10.839   2.674
21898W        W94213  37.309  22.965   2.333
21899W        W94214  35.704  33.865   3.248
21900W        W94215  34.439  40.903  13.414
21901W        W94216  10.041  43.974   0.340
21902W        W94217  32.103   3.337  13.978
21903W        W94218  38.084  39.492  14.869
21904W        W94219   3.664  25.746   4.874
21905W        W94220  11.788  25.405   2.029
21906W        W94221  28.249  36.926  12.504
21907W        W94222  23.741  31.062  14.331
21908W        W94223  17.230  25.385  10.477
21909W        W94224  32.552  35.093  14.265
21910W        W94225  26.616   4.446   3.666
21911W        W94226  38.793  30.861   2.703
21912W        W94227  25.696  31.728   2.112
21913W        W94228  39.980  38.858  13.266
21914W        W94229   3.799  12.226   3.203
21915W        W94230  20.262  17.509   4.426
21916W        W94231   6.341  27.405   4.416
21917W        W94232  14.943  26.167   2.174
21918W        W94233  31.655  24.028  11.988
21919W        W94234  34.449  28.109   4.945
21920W        W94235   6.271  10.853   3.738
21921W        W94236   3.469  19.670   4.350
21922W        W94237   7.411  14.600  12.650
21923W        W94238  14.637  27.725   2.814
21924W        W94239  26.166  20.107  11.544
21925W        W94240  12.375   8.830   1.695
21926W        W94241  27.470  37.401  12.513
21927W        W94242  21.145  14.800   3.813
21928W        W94243  25.266  21.016   5.060
21929W        W94244  23.424  39.020   3.748
21930W        W94245  39.424  11.216   3.231
21931W        W94246  36.877  18.236   0.067
21932W        W94247  29.435  17.301  12.018
21933W        W94248  19.129  44.366  10.715
21934W        W94249  42.384  40.615   3.137
21935W        W94250   2.277  16.294   2.740
21936W        W94251  30.113  36.840  14.432
21937W        W94252  14.566  24.442   2.685
21938W        W94253  20.226  23.986  12.379
21939W        W94254  25.535  32.439   0.756
21940W        W94255  30.540  17.824   1.008
21941W        W94256  32.526  23.489   4.648
21942W        W94257   3.189  36.406  14.346
21943W        W94258   4.930  15.615  11.022
21944W        W94259  18.873  11.303   4.534
21945W        W94260  37.408  14.163   3.087
21946W        W94261  38.495  42.837  14.319
21947W        W94262  44.368  42.767   1.958
21948W        W94263  23.981  22.872   2.390
21949W        W94264  19.312   8.892  10.297
21950W        W94265   4.254  21.755   3.678
21951W        W94266   5.327  25.265   2.455
21952W        W94267  35.268   8.916   1.874
21953W        W94268   5.272  34.816  10.696
21954W        W94269  28.389  23.679  12.542
21955W        W94270  41.152  30.175  11.880
21956W        W94271  30.598  40.682   0.434
21957W        W94272  24.114   9.849   2.674
21958W        W94273  20.665  30.202  11.677
21959W        W94274  35.612  32.973  13.929
21960W        W94275   6.788   4.476  12.520
21961W        W94276  25.103   8.430  10.892
21962W        W94277  38.827  22.591  13.918
21963W        W94278  27.180   3.869  11.499
21964W        W94279   1.946   9.258  13.468
21965W        W94280   8.113  32.977  12.954
21966W        W94281   6.170  27.334  11.646
21967W        W94282   4.810   3.537  14.282
21968W        W94283  41.926   3.927  13.553
21969W        W94284  23.996   1.002  11.179
21970W        W94285  35.461  10.624  13.451
21971W        W94286  35.859  38.770  14.920
21972W        W94287  14.986  26.358   3.055
21973W        W94288  41.434  39.481   1.729
21974W        W94289   4.376  16.811  11.122
21975W        W94290  25.420   5.365  13.086
21976W        W94291  35.915  10.565   1.945
21977W        W94292  42.976  42.630  13.066
21978W        W94293   2.764  13.795   2.916
21979W        W94294   3.422  13.822  11.137
21980W        W94295   3.672  32.595  13.998
21981W        W94296  40.966  12.167   2.704
21982W        W94297  38.053  27.546  13.772
21983W        W94298   5.263   3.918   3.843
21984W        W94299  44.675  35.628   3.362
21985W        W94300  42.831  17.372  11.519
21986W        W94301  43.903  31.468   4.564
21987W        W94302   2.901   5.669   4.207
21988W        W94303  11.085   6.248  14.927
21989W        W94304  29.170   4.818   3.717
21990W        W94305  24.295   4.511   4.603
21991W        W94306   7.641  43.420   2.639
21992W        W94307  26.466   5.253   2.180
21993W        W94308   6.451  14.175   3.615
21994W        W94309  21.562  39.586   0.710
21995W        W94310   9.849   7.027  12.710
21996W        W94311  18.891  17.091   4.065
21997W        W94312  40.196  27.323   1.418
21998W        W94313  19.989   2.070   4.516
21999W        W94314  14.664  37.858  11.046
22000W        W94315   2.272  10.828  12.819
22001W        W94316   1.317  14.458   2.803
22002W        W94317  34.709  11.730   2.922
22003W        W94318  15.137   1.834   1.688
22004W        W94319  15.196  11.387  13.383
22005W        W94320  42.100  36.405  13.896
22006W        W94321  16.296  15.672  11.643
22007W        W94322  16.675  22.256   1.736
22008W        W94323  15.149   1.230   0.343
22009W        W94324   8.375   2.339  14.343
22010W        W94325   6.596  44.191  13.030
22011W        W94326  18.624  44.396   4.352
22012W        W94327   6.548  28.548   3.094
22013W        W94328  21.227  42.399  13.097
22014W        W94329  11.232   3.225  12.099
22015W        W94330  36.438  12.814  13.936
22016W        W94331  18.329  30.053   9.888
22017W        W94332  13.777  20.322  14.281
22018W        W94333  36.067   6.120  14.541
22019W        W94334  18.237  28.346  13.362
22020W        W94335   0.829  11.245   0.505
22021W        W94336  38.886  30.398  14.071
22022W        W94337  24.939  10.207   1.500
22023W        W94338   7.763  33.130  11.993
22024W        W94339  11.841  32.149   2.952
22025W        W94340  12.645  22.724  14.348
22026W        W94341  37.822  17.043  11.197
22027W        W94342  19.129  35.331  10.600
22028W        W94343  43.497  37.882   0.675
22029W        W94344   6.983  40.123  12.138
22030W        W94345  22.513  18.617   0.428
22031W        W94346  43.039  43.575  12.843
22032W        W94347  13.737   4.443   1.726
22033W        W94348  43.962  29.101  13.469
22034W        W94349   8.409   8.781  11.521
22035W        W94350  20.179   9.044  10.864
22036W        W94351  14.930  29.177   2.599
22037W        W94352  24.961  18.013  14.417
22038W        W94353  20.090  32.443  11.081
22039W        W94354  27.133  17.006  11.618
22040W        W94355  18.506  31.077   2.542
22041W        W94356  29.653  25.906  13.943
22042W        W94357  37.780  18.230   3.131
22043W        W94358  19.586   2.156   0.791
22044W        W94359  11.196  22.219  11.883
22045W        W94360   6.209  31.492   0.175
22046W        W94361   9.167  20.323   1.878
22047W        W94362   1.212  25.550  10.752
22048W        W94363   8.625  23.598   1.892
22049W        W94364  31.964  34.587   1.127
22050W        W94365  15.344  37.942   4.768
22051W        W94366   4.946  17.519  10.622
22052W        W94367  15.397  18.778   4.640
22053W        W94368  28.600  35.837   0.074
22054W        W94369  39.337  30.543  12.008
22055W        W94370  30.856   5.691  12.628
22056W        W94371  34.181  26.055   3.338
22057W        W94372  38.523  30.677   1.327
22058W        W94373  18.850  32.110   0.156
22059W        W94374   9.728  29.468  14.760
22060W        W94375   2.472  19.098  12.534
22061W        W94376  34.628  35.648  14.090
22062W        W94377  34.091  42.079  13.101
22063W        W94378  21.721  37.946  13.745
22064W        W94379  43.242  36.932  12.964
22065W        W94380   7.931  39.495   2.376
22066W        W94381  42.916  22.471  14.764
22067W        W94382  31.630   6.231   0.981
22068W        W94383  32.410   0.939   4.256
22069W        W94384   3.858  35.371   3.671
22070W        W94385  20.069  13.497  13.852
22071W        W94386  42.311  18.366   0.359
22072W        W94387  35.826   4.361   0.260
22073W        W94388  36.973  31.556   3.253
22074W        W94389  26.229   9.267   2.840
22075W        W94390  17.157  29.893  12.537
22076W        W94391  20.606   4.678  10.589
22077W        W94392   3.930  16.111   2.233
22078W        W94393   9.610   3.905  13.305
22079W        W94394  30.445  25.479  10.730
22080W        W94395  21.103   0.188  12.571
22081W        W94396   5.996   6.853  11.405
22082W        W94397  24.698  11.594   4.135
22083W        W94398  16.008  12.427  13.564
22084W        W94399  21.679  34.871   4.309
22085W        W94400  26.263   6.439  12.835
22086W        W94401  18.764  15.174  11.660
22087W        W94402   0.430  36.907   5.017
22088W        W94403  12.288  29.028   0.560
22089W        W94404  29.440   8.233  13.436
22090W        W94405  12.168  17.183   4.063
22091W        W94406  26.483  21.641  13.836
22092W        W94407  27.335  44.935  12.485
22093W        W94408   9.419   4.944   4.129
22094W        W94409   6.628  30.278   2.255
22095W        W94410  27.936  18.537   1.624
22096W        W94411   0.251  11.759   4.548
22097W        W94412  29.424  36.709  13.252
22098W        W94413  17.729  12.678  11.532
22099W        W94414  11.333  30.415  13.170
22100W        W94415  20.360  25.215   4.136
22101W        W94416  37.853  31.585  11.840
22102W        W94417  41.086  20.067  12.928
22103W        W94418  44.073  14.327   1.739
22104W        W94419  10.574  38.050   3.391
22105W        W94420  14.624   7.499  12.850
22106W        W94421   1.277   5.743   3.818
22107W        W94422  32.191  44.239   3.220
22108W        W94423   5.213  39.909  12.073
22109W        W94424   8.733   5.383  14.244
22110W        W94425   8.771  36.584   3.079
22111W        W94426  26.111  42.486   2.414
22112W        W94427  41.391  42.574  14.339
22113W        W94428   6.505  39.284  12.088
22114W        W94429  33.547  44.462  13.773
22115W        W94430   7.686  30.133   1.286
22116W        W94431   5.393  35.592   4.654
22117W        W94432  21.934  12.761   3.868
22118W        W94433  42.247  30.197  14.009
22119W        W94434  27.743  18.348  12.107
22120W        W94435  16.585   8.401   2.382
22121W        W94436  20.106  22.691   1.017
22122W        W94437   0.495  26.959   4.342
22123W        W94438  14.793  43.010  10.674
22124W        W94439  35.395  20.793  10.912
22125W        W94440  16.578   0.289   2.948
22126W        W94441  11.812  15.280   2.677
22127W        W94442  26.606  38.981   4.880
22128W        W94443   2.767   4.999   0.947
22129W        W94444  38.873  24.523   2.902
22130W        W94445  12.606  10.159   3.211
22131W        W94446  13.861  28.913   0.179
22132W        W94447  28.499  29.612  10.676
22133W        W94448   3.442  22.311  14.659
22134W        W94449  34.575  17.887   0.420
22135W        W94450  26.954  19.157  14.519
22136W        W94451  39.277  41.424   4.348
22137W        W94452  15.885  10.609   1.928
22138W        W94453  35.051  28.671   0.935
22139W        W94454  42.389   3.955   3.838
22140W        W94455  35.869  20.650   1.659
22141W        W94456  13.555   3.660   3.325
22142W        W94457  13.095  34.208  12.394
22143W        W94458  33.209  31.822  13.863
22144W        W94459   7.714   7.295  14.502
22145W        W94460   1.248  42.757   2.345
22146W        W94461  14.577  10.782   2.883
22147W        W94462  18.937  21.303   2.474
22148W        W94463  16.335  11.377   2.747
22149W        W94464  23.278  42.402  11.109
22150W        W94465  28.429  30.658   4.714
22151W        W94466   6.658  28.633  13.816
22152W        W94467  17.197  30.052   3.661
22153W        W94468  43.661  17.271  12.024
22154W        W94469   9.926   7.724  13.463
22155W        W94470   6.746  23.412  11.860
22156W        W94471  29.917  17.687   1.705
22157W        W94472   1.267  27.920   1.179
22158W        W94473   5.021   5.204  12.937
22159W        W94474  32.574  26.407   1.914
22160W        W94475   0.361   9.908  10.271
22161W        W94476  40.750   6.679  14.493
22162W        W94477  26.219  26.433  14.532
22163W        W94478   6.318  41.081  11.126
22164W        W94479  13.611  40.732  11.118
22165W        W94480  10.367   8.483  12.603
22166W        W94481  26.734   2.862  14.843
22167W        W94482  18.511  28.893   1.413
22168W        W94483  35.884  30.386   0.990
22169W        W94484  33.859   6.736   2.208
22170W        W94485  12.826   0.374   3.893
22171W        W94486  27.097  11.835   2.934
22172W        W94487  11.038   2.158  13.073
22173W        W94488  19.660  12.370  11.427
22174W        W94489  11.877  35.153   1.733
22175W        W94490  36.119  35.676   1.860
22176W        W94491  35.064  24.211   1.817
22177W        W94492  24.086  39.880   5.506
22178W        W94493  22.249  28.945  14.718
22179W        W94494   8.953  43.869   0.812
22180W        W94495  28.676  43.696  12.693
22181W        W94496  19.494  26.739  10.819
22182W        W94497  12.936  17.278  14.645
22183W        W94498  43.769  26.015   2.750
22184W        W94499  36.465   6.648   3.779
22185W        W94500  16.293  43.309   0.905
22186W        W94501  18.744  28.821  11.556
22187W        W94502  16.379  16.186   0.876
22188W        W94503  36.598  16.365   4.135
22189W        W94504  36.305  42.572  12.511
22190W        W94505  43.290  34.095   4.083
22191W        W94506  31.645  39.954  13.552
22192W        W94507  40.620  43.479   1.356
22193W        W94508  20.280  12.812   1.194
22194W        W94509  43.905  40.481  14.850
22195W        W94510  38.544  26.379   1.275
22196W        W94511  22.705  29.155  12.047
22197W        W94512  35.260  33.757   2.819
22198W        W94513  41.824  35.077   1.271
22199W        W94514  24.425  25.257   3.076
22200W        W94515  30.142  31.405  11.244
22201W        W94516  21.147   1.330   2.205
22202W        W94517  13.261  44.132   4.651
22203W        W94518  36.483   8.724  11.931
22204W        W94519  38.801  33.237   3.633
22205W        W94520   9.937   0.183  11.258
22206W        W94521  29.358  37.812   2.796
22207W        W94522  10.343   0.499   0.052
22208W        W94523  16.174   8.763   0.261
22209W        W94524  40.462   1.206  14.325
22210W        W94525  22.438  42.012   4.589
22211W        W94526   6.191  10.734   2.312
22212W        W94527  24.268   2.852  13.719
22213W        W94528  40.105   3.025  11.484
22214W        W94529  16.797  38.276   1.467
22215W        W94530  31.660  18.250  10.724
22216W        W94531  26.562  30.340  14.302
22217W        W94532  32.413   2.905   2.104
22218W        W94533   7.734  11.682  12.399
22219W        W94534  24.600  36.003  14.302
22220W        W94535  17.043  16.128   2.709
22221W        W94536  33.401  30.995   1.943
22222W        W94537  27.392   1.984   3.973
22223W        W94538  14.978  19.621  14.032
22224W        W94539  39.017  34.482   2.237
22225W        W94540   0.793  24.920  10.344
22226W        W94541  25.583  21.695  14.058
22227W        W94542  21.666  14.023   0.020
22228W        W94543  41.973   3.811  10.645
22229W        W94544  30.878  41.407  12.124
22230W        W94545  13.520  24.612  14.873
22231W        W94546   7.214  39.682  12.329
22232W        W94547  28.483  25.827   3.218
22233W        W94548   8.594  39.364   0.462
22234W        W94549   0.401  38.807   3.165
22235W        W94550  19.161   0.942   0.859
22236W        W94551   8.299   8.912  13.854
22237W        W94552  13.072  20.960  11.332
22238W        W94553  36.027  26.632  14.355
22239W        W94554  21.516   1.913   2.119
22240W        W94555  11.092  41.729   4.384
22241W        W94556  43.084  44.434  12.628
22242W        W94557   8.137  31.558  14.446
22243W        W94558  15.288  29.083  11.316
22244W        W94559   9.834  38.777  10.770
22245W        W94560  21.517  23.446  12.498
22246W        W94561  14.686  12.595   3.142
22247W        W94562  31.232  34.180  13.562
22248W        W94563  40.046   6.123   3.858
22249W        W94564  31.536  19.234  13.329
22250W        W94565  42.822  11.678  13.503
22251W        W94566  34.579  32.145   4.525
22252W        W94567  26.374   0.748  13.686
22253W        W94568   9.629  13.845   1.896
22254W        W94569  35.163   0.732  14.693
22255W        W94570  17.239  10.659  12.969
22256W        W94571   9.843  23.142  12.075
22257W        W94572  17.303  32.886   4.638
22258W        W94573   2.019  39.479   2.380
22259W        W94574  29.318  22.287  11.572
22260W        W94575  12.036  42.518   4.685
22261W        W94576  17.713  36.613   3.683
22262W        W94577   7.099   8.377   4.761
22263W        W94578  10.258  27.868  14.654
22264W        W94579  40.348  18.801  14.059
22265W        W94580  16.228   3.729   4.522
22266W        W94581   7.848  16.047  13.374
22267W        W94582  23.529  23.666   3.799
22268W        W94583  16.562  40.375  13.902
22269W        W94584  20.129  36.663  13.310
22270W        W94585  21.671  22.537  10.131
22271W        W94586   6.408  23.150   3.282
22272W        W94587  18.346  17.093  13.432
22273W        W94588  44.903  24.795  13.610
22274W        W94589  36.418  19.987  14.517
22275W        W94590  24.313  34.645  13.174
22276W        W94591  22.483   5.467  11.932
22277W        W94592  25.224  43.422  13.817
22278W        W94593  15.482  16.765  14.819
22279W        W94594  30.189  11.042  12.253
22280W        W94595  26.219  26.160   4.052
22281W        W94596   3.399  29.591  14.459
22282W        W94597  22.206  21.288  10.150
22283W        W94598  31.203  17.293   3.199
22284W        W94599  14.704   9.891  14.010
22285W        W94600  16.175  33.483  12.199
22286W        W94601  10.603  32.907  14.912
22287W        W94602   0.540  19.588   3.153
22288W        W94603  43.814   1.708   2.804
22289W        W94604  35.128  43.279   0.780
22290W        W94605  30.360  17.290   0.861
22291W        W94606  17.098  37.393   1.581
22292W        W94607  14.092  42.847  10.932
22293W        W94608   6.176  44.310  14.523
22294W        W94609  41.492   1.004  10.715
22295W        W94610  37.501  42.411  14.042
22296W        W94611  12.133  18.190   4.638
22297W        W94612   4.953   1.672  12.156
22298W        W94613  29.433  34.121  12.016
22299W        W94614  18.119  12.102  12.975
22300W        W94615   8.254   0.417   2.625
22301W        W94616  43.209  33.175   0.474
22302W        W94617   9.284  12.627   2.868
22303W        W94618   5.897  44.571   1.727
22304W        W94619  22.818  33.029   0.393
22305W        W94620  19.255  29.409   3.606
22306W        W94621  14.608  37.853   2.748
22307W        W94622  14.263  41.710  12.814
22308W        W94623  43.122  11.683   5.531
22309W        W94624  40.943  36.387  10.696
22310W        W94625   0.757  25.691   3.210
22311W        W94626  40.039   3.927  11.652
22312W        W94627  16.078  18.060   0.849
22313W        W94628  19.288  27.728  11.151
22314W        W94629  25.307  25.612   4.078
22315W        W94630   0.006  34.520  10.144
22316W        W94631  20.543  13.417  11.284
22317W        W94632  16.165   6.383  14.987
22318W        W94633   8.834  19.062  14.351
22319W        W94634  33.443  33.339   1.431
22320W        W94635   0.538  41.946  13.402
22321W        W94636  40.557  35.390   1.286
22322W        W94637  14.277  41.883  11.073
22323W        W94638  14.225  32.346   3.641
22324W        W94639  43.460  26.246  11.234
22325W        W94640  31.219  26.054  10.911
22326W        W94641  26.564  12.329  13.754
22327W        W94642   4.293  25.470   3.671
22328W        W94643  19.377  30.616  11.395
22329W        W94644  24.969  28.094   1.670
22330W        W94645  39.582   9.414   0.865
22331W        W94646  12.487  19.695   4.141
22332W        W94647  36.417  15.984  13.883
22333W        W94648  30.637  19.353  12.426
22334W        W94649  20.325   5.925   0.300
22335W        W94650  41.544  19.504  14.813
22336W        W94651  33.087  17.560   4.134
22337W        W94652   4.288  21.269  12.727
22338W        W94653  31.667  24.220   1.450
22339W        W94654   3.343  14.903  12.612
22340W        W94655  35.844  16.090   4.015
22341W        W94656  38.540  24.127   1.369
22342W        W94657   3.821   1.644  11.089
22343W        W94658   9.802  23.696  11.348
22344W        W94659  39.225   7.960   1.099
22345W        W94660  13.182  28.340  14.327
22346W        W94661   7.795   5.216   2.600
22347W        W94662  18.741  40.031   0.048
22348W        W94663   6.801  43.854   1.647
22349W        W94664  43.890  18.023  11.436
22350W        W94665  39.906  37.509  12.323
22351W        W94666  16.302  11.808  11.605
22352W        W94667  27.111  25.748   4.562
22353W        W94668   6.203  31.542   4.768
22354W        W94669  19.438  28.686   5.578
22355W        W94670  40.438   6.416   4.025
22356W        W94671   5.884  42.232  12.198
22357W        W94672   9.194   7.116  10.724
22358W        W94673  27.419  28.473  11.098
22359W        W94674  17.974  20.630  12.146
22360W        W94675   9.819  43.793  12.053
22361W        W94676  26.431  19.742  12.203
22362W        W94677  40.937  39.416  13.996
22363W        W94678  13.083   8.186   2.768
22364W        W94679   4.679  42.900  12.602
22365W        W94680   8.068   9.019   2.136
22366W        W94681  17.120  32.582   3.303
22367W        W94682  42.816  33.157   2.388
22368W        W94683  26.633  40.344   1.306
22369W        W94684   2.027  28.168   0.886
22370W        W94685   5.516  30.718   0.957
22371W        W94686  28.944  38.829  14.741
22372W        W94687  23.232  26.496  10.674
22373W        W94688  27.644   4.509  11.965
22374W        W94689  26.698   4.271  13.198
22375W        W94690  35.474   2.412  11.627
22376W        W94691   8.673  26.539   4.142
22377W        W94692  32.998  30.180   0.323
22378W        W94693  10.900   9.652   3.646
22379W        W94694  35.370  13.523  14.884
22380W        W94695   8.744  43.414   4.587
22381W        W94696  19.204  27.711  14.324
22382W        W94697  34.494   4.736  14.547
22383W        W94698  11.690   8.949  12.036
22384W        W94699  32.174  15.187   4.351
22385W        W94700  28.118  19.168  11.613
22386W        W94701  29.410   5.361  13.267
22387W        W94702  36.413  28.670  13.009
22388W        W94703  38.556   5.864  12.420
22389W        W94704  36.146  16.344   4.367
22390W        W94705  28.498  37.382  12.403
22391W        W94706   1.164   1.750  10.868
22392W        W94707  17.728  41.670  10.284
22393W        W94708  15.324  11.389  11.628
22394W        W94709  30.283   6.741   4.011
22395W        W94710  12.069  38.034  11.631
22396W        W94711   1.003  18.548   2.215
22397W        W94712   4.231  25.651  11.451
22398W        W94713   7.378  44.961   2.224
22399W        W94714   1.231  35.418   4.218
22400W        W94715  24.157  31.993  10.093
22401W        W94716  29.180  32.936   3.849
22402W        W94717   4.240  14.626  11.605
22403W        W94718   0.698  17.290  11.755
22404W        W94719   9.203   7.646  10.661
22405W        W94720  30.185  44.479   1.337
22406W        W94721  42.573  10.802   1.401
22407W        W94722  39.252  10.229   3.762
22408W        W94723  36.369  21.068  10.822
22409W        W94724  35.634  11.581  14.790
22410W        W94725  10.830  40.363   2.946
22411W        W94726  12.179  42.142   1.829
22412W        W94727  24.908  21.980   2.218
22413W        W94728   1.441  42.091   2.797
22414W        W94729  41.509   4.291   1.711
22415W        W94730  23.706  15.302   3.293
22416W        W94731  30.441  38.833  13.825
22417W        W94732  22.541  23.746   3.664
22418W        W94733  29.765  38.059  13.366
22419W        W94734  26.546   9.158  13.848
22420W        W94735  24.449   6.832  14.684
22421W        W94736  29.842  41.407  11.259
22422W        W94737  40.802  11.152   1.631
22423W        W94738  17.531  14.631   0.735
22424W        W94739  30.219  25.457  11.192
22425W        W94740   4.763  31.781   3.870
22426W        W94741  37.088  12.204  11.562
22427W        W94742  15.289  42.353   4.624
22428W        W94743  36.435  20.270   4.192
22429W        W94744  36.546  12.143  10.722
22430W        W94745   8.398  38.936   2.665
22431W        W94746   9.179  43.101   1.277
22432W        W94747  18.284   4.354   0.064
22433W        W94748   8.726  11.375   3.663
22434W        W94749  44.779  39.099   0.331
22435W        W94750   8.352  34.915   1.480
22436W        W94751  23.234  36.450   1.093
22437W        W94752  34.916  25.343  11.494
22438W        W94753  25.221  25.593  11.104
22439W        W94754  10.046  21.109   4.057
22440W        W94755  20.264   2.321   2.857
22441W        W94756  25.946   0.015   3.660
22442W        W94757  42.982  33.412   4.508
22443W        W94758   8.734  22.483   3.687
22444W        W94759  34.981  21.518   2.951
22445W        W94760  14.177  36.084  12.566
22446W        W94761   4.476   3.299  10.971
22447W        W94762  12.667  13.680  14.239
22448W        W94763  24.124   8.183  13.288
22449W        W94764  26.443   5.787   0.518
22450W        W94765  23.203  28.231   4.377
22451W        W94766   8.415   4.226  13.829
22452W        W94767  31.503   6.876   3.989
22453W        W94768  27.817  26.108  11.504
22454W        W94769  37.828   3.466   3.306
22455W        W94770  22.127  11.605   1.922
22456W        W94771  10.283  11.865   3.830
22457W        W94772   7.515  44.578  13.953
22458W        W94773   7.447  38.909   4.525
22459W        W94774   6.477  41.807   2.739
22460W        W94775  11.389  34.562   4.493
22461W        W94776  18.537  29.939   3.781
22462W        W94777   3.861  35.923  13.500
22463W        W94778  43.221  30.333  11.148
22464W        W94779  43.019  30.684   2.229
22465W        W94780  22.763  31.573   2.713
22466W        W94781  11.560  20.511   3.461
22467W        W94782  38.868  39.584  13.375
22468W        W94783  43.404  32.136  11.158
22469W        W94784  23.018  10.674   0.467
22470W        W94785  39.414   0.478   1.855
22471W        W94786  35.857  14.688   4.683
22472W        W94787  11.868  12.593   1.640
22473W        W94788   9.861  37.973  12.035
22474W        W94789  17.034  40.458   2.684
22475W        W94790  37.154  25.671   2.777
22476W        W94791  11.534  44.453   1.321
22477W        W94792  38.356  15.530   2.859
22478W        W94793  30.330  21.307  11.085
22479W        W94794  33.099  33.902  12.926
22480W        W94795  10.925  33.953   0.345
22481W        W94796  10.705   7.932  14.282
22482W        W94797  14.258   3.416  12.078
22483W        W94798  13.080  29.754   4.014
22484W        W94799   2.896  27.645  13.977
22485W        W94800   5.948  43.451  13.402
22486W        W94801  17.099  41.020  14.455
22487W        W94802  13.687  29.872   0.062
22488W        W94803  39.404  23.024  10.127
22489W        W94804   6.899  13.542  10.908
22490W        W94805  35.785  30.899   0.896
22491W        W94806  33.995  24.509   3.316
22492W        W94807  35.187   7.013   0.316
22493W        W94808   6.401  16.085   2.212
22494W        W94809   3.700  21.857  11.675
22495W        W94810  36.384  24.931  14.396
22496W        W94811  24.405   0.227   3.226
22497W        W94812  20.811   7.903   0.575
22498W        W94813  31.652  17.263   2.332
22499W        W94814  39.886  23.085   3.152
22500W        W94815  29.860  43.368   2.854
22501W        W94816  20.450  26.176   1.494
22502W        W94817  10.391  19.790   0.787
22503W        W94818  16.677  14.606  14.036
22504W        W94819  25.816  24.179  10.642
22505W        W94820  11.818  21.379  11.333
22506W        W94821   2.412  41.429   3.299
22507W        W94822  38.046   5.348  12.941
22508W        W94823  12.834  37.418   3.795
22509W        W94824   2.024   7.613   3.220
22510W        W94825   1.484  44.179   0.563
22511W        W94826  26.575  12.584   1.608
22512W        W94827  30.560  26.727  13.497
22513W        W94828   8.773  24.203   1.257
22514W        W94829  33.127   4.104  13.053
22515W        W94830  44.056  40.291   2.321
22516W        W94831  37.727  19.775  13.034
22517W        W94832  16.343  10.801  13.830
22518W        W94833  29.734  36.004  11.596
22519W        W94834   3.081   9.547  12.935
22520W        W94835  31.652  14.408   0.254
22521W        W94836  23.787  27.777   0.249
22522W        W94837   1.510  31.809   3.776
22523W        W94838  22.277  31.196   4.161
22524W        W94839  37.913   1.438   1.326
22525W        W94840  30.325  43.425   0.425
22526W        W94841  22.613  24.616   4.834
22527W        W94842  38.761  20.052   0.283
22528W        W94843   0.724  10.279  10.259
22529W        W94844   8.235  38.812   0.335
22530W        W94845  27.028  24.800  11.631
22531W        W94846   3.417  15.170  13.327
22532W        W94847  40.975   9.694  14.032
22533W        W94848  43.821  19.581  14.871
22534W        W94849  11.501   9.261  13.974
22535W        W94850  27.551  17.168  14.936
22536W        W94851  26.884  22.220  12.422
22537W        W94852  42.442  11.295   2.444
22538W        W94853  10.479  10.910   4.029
22539W        W94854  17.780  42.104  12.651
22540W        W94855  21.122  31.537   3.301
22541W        W94856  35.770  34.930   1.231
22542W        W94857  31.179  25.725   3.578
22543W        W94858  43.929  24.623   3.408
22544W        W94859  12.603  37.899   0.482
22545W        W94860  37.434  14.622   3.620
22546W        W94861  12.239  22.742   1.423
22547W        W94862  39.801  18.535  11.880
22548W        W94863  37.538  17.915  11.499
22549W        W94864  14.085  31.864  12.343
22550W        W94865  37.480  14.344   2.134
22551W        W94866  36.389  36.093  12.480
22552W        W94867  31.292   7.552   5.123
22553W        W94868  41.356  28.198  10.674
22554W        W94869  30.860  30.124   0.522
22555W        W94870  39.130  32.537  14.864
22556W        W94871  13.568  25.433   3.467
22557W        W94872  20.941   3.804   1.515
22558W        W94873  22.167  18.601  14.379
22559W        W94874  10.913  43.510   2.908
22560W        W94875  39.874  16.381  11.121
22561W        W94876  28.046  35.489   3.731
22562W        W94877  17.176   7.726   3.185
22563W        W94878  18.272  15.086  11.429
22564W        W94879   5.847  10.110  12.484
22565W        W94880  31.917  22.500   2.626
22566W        W94881  26.510  41.034  14.521
22567W        W94882  12.608  37.502  12.798
22568W        W94883  43.430  22.651  10.225
22569W        W94884  13.603  25.288  12.719
22570W        W94885  26.919   1.088   0.290
22571W        W94886  31.338   9.781   3.327
22572W        W94887  38.331  30.124  11.206
22573W        W94888   1.436  18.302   0.836
22574W        W94889  39.518   7.769   1.473
22575W        W94890   6.188  15.235   2.394
22576W        W94891  28.957   0.285   4.054
22577W        W94892  38.990  29.398   2.645
22578W        W94893  11.178  16.392  13.738
22579W        W94894  42.507  10.413   4.118
22580W        W94895  43.428  29.460   3.824
22581W        W94896  32.151  16.565  14.525
22582W        W94897   6.317  25.707  10.804
22583W        W94898  39.494  38.402   3.122
22584W        W94899  41.015  32.598   2.815
22585W        W94900  43.909  27.435   4.641
22586W        W94901  26.631  43.955  13.970
22587W        W94902  15.458  34.658  11.239
22588W        W94903  38.819  13.825  14.594
22589W        W94904  25.760  41.012  12.514
22590W        W94905  32.832  42.940  14.541
22591W        W94906  33.475   8.428  13.481
22592W        W94907  41.051  14.095  13.587
22593W        W94908  15.315   4.114   2.678
22594W        W94909   9.344  36.892  11.495
22595W        W94910  15.403   1.409   3.386
22596W        W94911  31.113  13.362  10.742
22597W        W94912  37.456  18.989  11.697
22598W        W94913  19.079  34.218  11.328
22599W        W94914  44.728  25.556  11.908
22600W        W94915   3.731  32.127   1.799
22601W        W94916  29.804  39.086  10.689
22602W        W94917  32.640  12.126   3.888
22603W        W94918  11.685   6.965  10.418
22604W        W94919  14.062   2.751  10.717
22605W        W94920  19.157  33.034   1.353
22606W        W94921   4.074  20.706   1.344
22607W        W94922   3.421  18.101  14.784
22608W        W94923  19.622  43.308   1.940
22609W        W94924  44.404  15.590  10.716
22610W        W94925  17.802  39.324  12.976
22611W        W94926  15.953   8.602  12.504
22612W        W94927   6.190   2.484   4.355
22613W        W94928  27.896  16.787  14.906
22614W        W94929  12.723  27.532  13.542
22615W        W94930   1.239  13.520   0.926
22616W        W94931  11.753  35.310  12.095
22617W        W94932   9.970   1.728  12.370
22618W        W94933   1.005  12.870   2.376
22619W        W94934  41.237   3.841   1.825
22620W        W94935  43.800  14.318   3.581
22621W        W94936   2.581  37.259   3.593
22622W        W94937  18.225  31.292   2.915
22623W        W94938  44.266  13.276   0.857
22624W        W94939  28.208  44.627  12.661
22625W        W94940  22.734  16.673  13.326
22626W        W94941  30.704  12.262   1.974
22627W        W94942  33.072  13.372   4.631
22628W        W94943  13.253  36.014  13.571
22629W        W94944  23.145  42.917  11.014
22630W        W94945  25.182  39.433  10.950
22631W        W94946  11.267  40.575   2.181
22632W        W94947  15.847  26.407   2.423
22633W        W94948   6.447   6.628  11.198
22634W        W94949  40.949  27.890  10.673
22635W        W94950  19.039  29.158   2.203
22636W        W94951   9.727   7.422  14.458
22637W        W94952  12.290  13.986  14.006
22638W        W94953  28.088  19.360  12.135
22639W        W94954   2.484  28.982   2.091
22640W        W94955  35.234  26.148   0.515
22641W        W94956  36.699   3.314  11.261
22642W        W94957  22.203  40.664  10.748
22643W        W94958  29.417  18.766  12.057
22644W        W94959   3.928  10.247   2.455
22645W        W94960  31.158  21.138   4.606
22646W        W94961  30.676   0.946   1.773
22647W        W94962  41.908  33.826  12.004
22648W        W94963   6.741   5.827   1.679
22649W        W94964  24.972  35.866   0.065
22650W        W94965   4.688  15.257   3.101
22651W        W94966   7.874  29.170   1.450
22652W        W94967  43.479  30.203  10.689
22653W        W94968  18.008  19.987   1.188
22654W        W94969  36.512  11.192  14.499
22655W        W94970  10.926  42.757  13.961
22656W        W94971  43.436  17.503   2.058
22657W        W94972  18.022  28.057  14.986
22658W        W94973  18.166  38.317   2.764
22659W        W94974  43.275  28.092  14.894
22660W        W94975  22.323  13.317   0.365
22661W        W94976   0.697  40.113   4.601
22662W        W94977  44.024  30.492   2.344
22663W        W94978  43.452  19.988  10.699
22664W        W94979  41.455  35.648  10.521
22665W        W94980  34.369  10.252  11.991
22666W        W94981   6.934  33.931   3.599
22667W        W94982   8.994  18.357  13.904
22668W        W94983   6.301   7.940  12.909
22669W        W94984  27.100  37.402  14.312
22670W        W94985  19.540  16.086  12.039
22671W        W94986  18.265  35.461  11.649
22672W        W94987  22.431  14.725  13.393
22673W        W94988  18.590  41.048   4.429
22674W        W94989  37.794  20.097  13.445
22675W        W94990   0.122  19.302   3.306
22676W        W94991  25.697   5.099   3.593
22677W        W94992  33.857  16.424   4.105
22678W        W94993  36.846   3.412   9.901
22679W        W94994  15.380   7.757   0.034
22680W        W94995  30.861  29.137  11.985
22681W        W94996  24.271   7.981  11.054
22682W        W94997  18.315   8.423  13.545
22683W        W94998  14.630   5.414  10.518
22684W        W94999   2.475   9.631   2.889
22685W        W95000  21.445  17.126  11.611
22686W        W95001  39.779  10.977   0.319
22687W        W95002  42.703  40.489  11.255
22688W        W95003  24.982  29.884  13.464
22689W        W95004  41.916  13.211  12.492
22690W        W95005  37.395   9.805   4.759
22691W        W95006  11.845  23.972   0.792
22692W        W95007  27.212  25.795  11.350
22693W        W95008  26.418  16.419  13.047
22694W        W95009  33.061  19.244  11.169
22695W        W95010  35.098  22.129   0.294
22696W        W95011  18.199  17.582   4.134
22697W        W95012  26.731  32.742  10.765
22698W        W95013  21.544  33.191   3.677
22699W        W95014  11.735  44.009   0.306
22700W        W95015  30.341  23.812  13.063
22701W        W95016  12.620   0.039   4.647
22702W        W95017  38.009  25.769   2.976
22703W        W95018  41.268  14.258   3.258
22704W        W95019   8.856  42.212  11.595
22705W        W95020  41.432   0.683   4.584
22706W        W95021   1.987  34.619   2.240
22707W        W95022  41.930   4.975   4.305
22708W        W95023  23.135  31.635   2.147
22709W        W95024  40.853  37.864   0.284
22710W        W95025  30.609  32.171  11.004
22711W        W95026  43.844  32.385   1.843
22712W        W95027  25.464  33.045   5.275
22713W        W95028   3.909  30.976   4.652
22714W        W95029  12.696  16.608   2.142
22715W        W95030  35.946  28.419   0.185
22716W        W95031  24.970  41.378   4.615
22717W        W95032  23.927  26.765  12.872
22718W        W95033   0.513  26.530  12.034
22719W        W95034  29.355   5.441   3.552
22720W        W95035  43.780  36.900  13.428
22721W        W95036  43.545  17.339   1.145
22722W        W95037  22.997  20.247  11.580
22723W        W95038  29.920  30.943  11.273
22724W        W95039   0.669  22.605  13.302
22725W        W95040   7.101  36.777   0.410
22726W        W95041  28.882  43.098  14.872
22727W        W95042  18.518  16.564   2.734
22728W        W95043  32.425   2.400   2.904
22729W        W95044   8.877  12.684  11.665
22730W        W95045   8.739  29.863  14.364
22731W        W95046  14.049  40.272  12.320
22732W        W95047  44.004  31.698   0.609
22733W        W95048  29.729  40.080  10.989
22734W        W95049  38.050  32.071  11.980
22735W        W95050  11.099  39.755   0.703
22736W        W95051  18.041   1.455  11.165
22737W        W95052  27.777  41.617   0.197
22738W        W95053  13.843  42.286   2.351
22739W        W95054  31.512  30.365  13.875
22740W        W95055   0.226   7.461  10.713
22741W        W95056  37.328  33.476  13.500
22742W        W95057   5.691  16.018  10.739
22743W        W95058  43.936   1.309  13.413
22744W        W95059  40.860   2.925  13.471
22745W        W95060   6.786  35.578   3.196
22746W        W95061  35.093  20.890   3.793
22747W        W95062  10.941  43.681   2.398
22748W        W95063  20.710  25.470  12.403
22749W        W95064  33.889  37.144  10.671
22750W        W95065  43.021   0.235  14.404
22751W        W95066  36.812   0.356  11.261
22752W        W95067  32.477  34.644   0.977
22753W        W95068  13.364  10.275  13.923
22754W        W95069  25.753  13.301  12.112
22755W        W95070  26.597   7.629   0.511
22756W        W95071  24.464  38.150  12.672
22757W        W95072  42.288  23.827   3.281
22758W        W95073  35.128  17.178   0.050
22759W        W95074  30.155   5.327   3.198
22760W        W95075  35.688   2.877  11.573
22761W        W95076  31.753  39.265  10.686
22762W        W95077   2.401  38.064   4.263
22763W        W95078  13.889  24.334   0.452
22764W        W95079  29.051  36.347  12.783
22765W        W95080   6.735  27.528  13.875
22766W        W95081  37.411  43.008  13.282
22767W        W95082  25.389   3.354   2.429
22768W        W95083  22.765  36.399  11.194
22769W        W95084  14.235   7.771  10.894
22770W        W95085  35.532   9.433   0.973
22771W        W95086  38.967  16.155   1.753
22772W        W95087  40.128  36.040  14.733
22773W        W95088   2.361  18.347  11.102
22774W        W95089  25.990   4.969  12.404
22775W        W95090  27.041   6.285   2.148
22776W        W95091  25.930  24.890   1.257
22777W        W95092   3.873  11.258  11.584
22778W        W95093  11.762  14.396   3.109
22779W        W95094  42.281  29.035  13.020
22780W        W95095  31.628  26.367   4.896
22781W        W95096  35.051  30.457  12.493
22782W        W95097  13.146  25.041  12.521
22783W        W95098  36.480  22.492  10.927
22784W        W95099  28.405  15.596   2.836
22785W        W95100  41.922  32.415  10.634
22786W        W95101  19.745   5.891  14.968
22787W        W95102  10.619  39.644  13.070
22788W        W95103  40.266  36.041   4.719
22789W        W95104  24.146  22.336  14.229
22790W        W95105  12.334  21.092  13.335
22791W        W95106  41.987   2.608   4.310
22792W        W95107  43.956   7.558   1.926
22793W        W95108  13.247  34.635   0.421
22794W        W95109  14.671  22.358   3.743
22795W        W95110  19.565  20.724   4.869
22796W        W95111  35.441  20.169   1.001
22797W        W95112  13.640  29.118   1.257
22798W        W95113  13.361  35.673  11.959
22799W        W95114  10.317   0.518   1.419
22800W        W95115   7.618  36.506  11.133
22801W        W95116  21.202  30.959  11.578
22802W        W95117  43.466   6.700   1.852
22803W        W95118   3.422  32.561   3.763
22804W        W95119   0.462  29.505  14.404
22805W        W95120  31.997  40.743  13.991
22806W        W95121  13.861  38.443  11.385
22807W        W95122  44.821   3.258   0.745
22808W        W95123  19.621  17.802   1.871
22809W        W95124   6.531   9.294   3.782
22810W        W95125  29.403  40.861  14.490
22811W        W95126  14.168  22.989  11.188
22812W        W95127  35.372  29.456  14.420
22813W        W95128  15.226  41.578   1.394
22814W        W95129  36.111   5.908  13.555
22815W        W95130  35.594  38.381  12.064
22816W        W95131   9.770  12.924  11.499
22817W        W95132  44.519   2.297  12.987
22818W        W95133  40.829  11.243  13.980
22819W        W95134   1.366  32.954   5.214
22820W        W95135  16.236  24.100   1.164
22821W        W95136  39.568  39.796   4.879
22822W        W95137  13.569   4.340   2.195
22823W        W95138  35.838  24.969  14.370
22824W        W95139   3.172  24.468  13.899
22825W        W95140  10.606   3.259  14.748
22826W        W95141  27.628  29.626  12.151
22827W        W95142  27.215  34.657  11.982
22828W        W95143  23.687  42.023   0.748
22829W        W95144  24.356  19.432   3.641
22830W        W95145  27.145   8.017   4.548
22831W        W95146  18.668  38.153  11.028
22832W        W95147  37.065  43.651  12.207
22833W        W95148  41.721   6.404  11.461
22834W        W95149  23.514  27.922   0.694
22835W        W95150  35.070  11.774   2.397
22836W        W95151  33.380  37.587  12.957
22837W        W95152  28.640  14.282   2.116
22838W        W95153  30.720  12.427  13.158
22839W        W95154   2.392   1.038   1.890
22840W        W95155   7.083  36.114  13.355
22841W        W95156  42.812   4.973  14.714
22842W        W95157   4.121  33.842  12.259
22843W        W95158  31.950  19.263   0.256
22844W        W95159  42.973  37.008  14.775
22845W        W95160  23.646  19.146  12.876
22846W        W95161  36.541  29.877  11.662
22847W        W95162  42.469  15.408   0.666
22848W        W95163  43.885  33.581  14.057
22849W        W95164  14.526   4.756   2.972
22850W        W95165  23.504  36.039   2.223
22851W        W95166  21.869  31.442   1.333
22852W        W95167  29.711  11.177   4.254
22853W        W95168  31.896  40.358  12.469
22854W        W95169  14.292  37.478   2.952
22855W        W95170  41.462  32.160  10.555
22856W        W95171  14.148  26.482   2.592
22857W        W95172  11.312   3.893   0.912
22858W        W95173  40.467  29.414   3.916
22859W        W95174  11.414  21.752   3.095
22860W        W95175  38.070  19.612  13.986
22861W        W95176  35.971  10.902   3.746
22862W        W95177  38.606   1.262  11.148
22863W        W95178  24.595  42.220  13.124
22864W        W95179  24.266  14.305  14.380
22865W        W95180  26.366  41.037   3.234
22866W        W95181  34.004  31.366  11.310
22867W        W95182  27.455   9.973   1.508
22868W        W95183   3.692  32.638   1.758
22869W        W95184  16.504  41.052   4.288
22870W        W95185  22.654  44.363  14.462
22871W        W95186   4.342   8.912  14.443
22872W        W95187  29.450  34.938  12.600
22873W        W95188  28.618  34.543  10.402
22874W        W95189   5.659  25.399  14.787
22875W        W95190  20.874  40.785  10.934
22876W        W95191  21.327  22.477  14.884
22877W        W95192  29.009  32.518   1.125
22878W        W95193  34.784  16.695  11.098
22879W        W95194  15.858  34.138  14.503
22880W        W95195  39.350  43.400  12.080
22881W        W95196  24.573  40.594   0.466
22882W        W95197  19.448  20.935  10.244
22883W        W95198  32.131  33.015   1.249
22884W        W95199  11.383   4.779   2.907
22885W        W95200   9.547  31.177   2.776
22886W        W95201  15.158   1.407  11.748
22887W        W95202   3.330  10.137  13.980
22888W        W95203  38.582  22.975   1.888
22889W        W95204  15.499   1.178  12.534
22890W        W95205  20.734  18.783   3.286
22891W        W95206  24.120   5.404  13.477
22892W        W95207   1.227   5.835   2.158
22893W        W95208  30.037  30.225   1.120
22894W        W95209  43.362  23.599  10.672
22895W        W95210  35.766  15.184   5.044
22896W        W95211  35.568  14.409  13.147
22897W        W95212  11.195  14.924   3.646
22898W        W95213  17.963  27.097  14.076
22899W        W95214   5.186  34.648  13.932
22900W        W95215  14.791  35.338   3.743
22901W        W95216  24.090  28.923  14.263
22902W        W95217   8.575  30.027  11.636
22903W        W95218   7.070  17.971  12.614
22904W        W95219  26.635  40.373  14.901
22905W        W95220  18.025   1.696   4.930
22906W        W95221  10.638  23.938  11.306
22907W        W95222  30.961  38.872   3.201
22908W        W95223   5.976  21.124   3.682
22909W        W95224   4.474  38.875   4.179
22910W        W95225   2.037  13.585   3.868
22911W        W95226  38.598   6.876   1.166
22912W        W95227   5.665  36.351  10.624
22913W        W95228  42.099  22.609   3.279
22914W        W95229   9.396  33.915   3.753
22915W        W95230   9.644  32.143  12.223
22916W        W95231   3.997  30.119   3.874
22917W        W95232  40.999   4.275  12.525
22918W        W95233  24.289  13.395  14.392
22919W        W95234   9.156  26.465   2.860
22920W        W95235   9.107  39.010  13.335
22921W        W95236  24.618  33.894   4.075
22922W        W95237  36.936  40.286   4.147
22923W        W95238  17.979  36.760   4.514
22924W        W95239  30.617  42.485   1.942
22925W        W95240  38.991  31.866   1.491
22926W        W95241  12.121  11.111  12.620
22927W        W95242  28.093  43.314  11.612
22928W        W95243   7.922   5.782  10.642
22929W        W95244   0.067  10.915   2.378
22930W        W95245  25.182  24.409  12.355
22931W        W95246  44.413  21.343  13.927
22932W        W95247  29.117  27.364   0.881
22933W        W95248  17.044  11.548   0.907
22934W        W95249   7.913  15.020   1.404
22935W        W95250  16.687  14.724   4.933
22936W        W95251  17.651   7.294  14.074
22937W        W95252   9.234  38.584  10.464
22938W        W95253  21.289  44.976  12.146
22939W        W95254  19.191  33.595  14.320
22940W        W95255  33.153   2.867   3.525
22941W        W95256   3.230   7.284   0.674
22942W        W95257  15.319  18.653  14.981
22943W        W95258  23.088   6.171  14.832
22944W        W95259  40.354  31.508   0.804
22945W        W95260  18.109   1.084  11.922
22946W        W95261  11.238  26.705   4.940
22947W        W95262   0.688  27.682   4.548
22948W        W95263  36.462  24.334  12.832
22949W        W95264  10.035   4.719  11.527
22950W        W95265  29.468   3.485  12.649
22951W        W95266  12.214  20.089  11.509
22952W        W95267   3.402  38.758   3.749
22953W        W95268  32.549  35.789   0.011
22954W        W95269   6.221  21.554  12.446
22955W        W95270  32.327  22.488  10.634
22956W        W95271  29.689  20.119   0.952
22957W        W95272  23.733  29.396  11.659
22958W        W95273   2.129   7.479   4.873
22959W        W95274  32.595  18.294   4.468
22960W        W95275   2.676  20.741   1.211
22961W        W95276  32.962   3.267  14.641
22962W        W95277   7.117  42.882  14.772
22963W        W95278  11.884  14.998   0.511
22964W        W95279  28.559  38.241  12.539
22965W        W95280  26.878  20.630  11.089
22966W        W95281  19.091  10.460  11.602
22967W        W95282  18.127  23.779   0.886
22968W        W95283  16.061  13.669  13.456
22969W        W95284  18.206  19.937   0.207
22970W        W95285  31.563   2.459   0.044
22971W        W95286   3.171  14.785  11.441
22972W        W95287   6.328   3.425  11.846
22973W        W95288  35.559  26.560   2.796
22974W        W95289  42.119  19.037   0.928
22975W        W95290  29.021  29.206   4.621
22976W        W95291  14.404  14.705   1.688
22977W        W95292  30.664  35.895  11.968
22978W        W95293  33.097  19.314   2.899
22979W        W95294  32.310  35.293  11.361
22980W        W95295  25.183  32.653   3.801
22981W        W95296  28.621   2.987   0.849
22982W        W95297  18.090   8.305  11.982
22983W        W95298  41.424  32.812   0.552
22984W        W95299   7.341   3.844   4.066
22985W        W95300  40.468   8.921  11.417
22986W        W95301  27.484  43.279   1.057
22987W        W95302  18.315  39.462   4.756
22988W        W95303  21.604  20.835  10.463
22989W        W95304  18.249  42.273  12.527
22990W        W95305  13.628   8.578   4.525
22991W        W95306  11.659  41.762  10.888
22992W        W95307   1.259  31.280   3.672
22993W        W95308  34.109  19.967   0.132
22994W        W95309  20.908   9.179   4.047
22995W        W95310  16.138  39.253  14.898
22996W        W95311  37.564  29.057  10.803
22997W        W95312  44.506   1.471   4.431
22998W        W95313  39.736  38.896  14.252
22999W        W95314  10.802   0.758  11.568
23000W        W95315  18.959  27.222   0.402
23001W        W95316  28.126   5.385  11.360
23002W        W95317  29.572  42.430   1.926
23003W        W95318  28.740   2.750   1.905
23004W        W95319   5.706  39.916  11.367
23005W        W95320  25.631  22.692  13.045
23006W        W95321  31.565  38.943  11.458
23007W        W95322   7.619  11.653   9.766
23008W        W95323  29.915   0.585   3.709
23009W        W95324  43.259  11.653   9.656
23010W        W95325  29.267  25.227   4.614
23011W        W95326  28.466  26.931  10.413
23012W        W95327  26.243   7.137  13.303
23013W        W95328  12.928  35.334   1.852
23014W        W95329  10.797   1.691  14.869
23015W        W95330  11.854  30.197   3.958
23016W        W95331  43.017  25.631  13.610
23017W        W95332  13.567  37.812  12.495
23018W        W95333   1.334  13.248  13.146
23019W        W95334  15.926  38.527   2.688
23020W        W95335  36.575  44.050   3.220
23021W        W95336  21.022  25.412   0.938
23022W        W95337  43.526  16.512   3.214
23023W        W95338  38.128   9.374   0.849
23024W        W95339   4.269   6.453   4.307
23025W        W95340  39.109  22.954   1.921
23026W        W95341  25.770  33.369   9.974
23027W        W95342  23.526  21.640  14.361
23028W        W95343  28.661  15.346   1.209
23029W        W95344  31.450  33.388  13.439
23030W        W95345   4.934  21.355   4.971
23031W        W95346  40.884  37.165  13.977
23032W        W95347  39.743  21.093  13.078
23033W        W95348  29.524   9.636   0.509
23034W        W95349  14.550  36.854  13.902
23035W        W95350  31.564  30.530  12.079
23036W        W95351   4.230  36.898  12.953
23037W        W95352   6.295  18.397   0.687
23038W        W95353   3.904  26.223  14.705
23039W        W95354   4.818   1.523  13.836
23040W        W95355   0.005  31.454   2.743
23041W        W95356   2.469  19.886  12.942
23042W        W95357  25.942  38.029   0.682
23043W        W95358   0.963  31.916  10.373
23044W        W95359  14.288  41.621   2.401
23045W        W95360  30.963  39.368   3.067
23046W        W95361  34.349   5.064  12.594
23047W        W95362  18.039   7.359   0.384
23048W        W95363  36.800  27.933  10.175
23049W        W95364  36.453  35.025  11.196
23050W        W95365  31.059   9.350  12.937
23051W        W95366  39.134  11.118   2.465
23052W        W95367  37.487   2.178   2.949
23053W        W95368  44.178   6.859   3.655
23054W        W95369  37.845  35.011   3.889
23055W        W95370   3.785  38.472   0.990
23056W        W95371  23.895  11.294   0.397
23057W        W95372  41.280   5.645  12.418
23058W        W95373  31.027  27.400   4.595
23059W        W95374  24.138   7.183  13.139
23060W        W95375  26.062   1.803  12.197
23061W        W95376  12.597  35.215   0.695
23062W        W95377  38.819  23.346  10.236
23063W        W95378  25.592  28.281   3.736
23064W        W95379  16.822  23.033  14.521
23065W        W95380  33.967  29.529  11.241
23066W        W95381  16.797  36.221  12.002
23067W        W95382  20.547  28.547   2.176
23068W        W95383  19.315  34.292   1.727
23069W        W95384   5.389  25.502   2.911
23070W        W95385   1.965   7.689  14.888
23071W        W95386   8.864  40.835  14.498
23072W        W95387  19.014  28.819  13.866
23073W        W95388  13.717  34.104   0.311
23074W        W95389  11.791  13.321   3.344
23075W        W95390  33.572  17.417   5.160
23076W        W95391  44.395  27.692   1.007
23077W        W95392   8.259  33.237   0.553
23078W        W95393  18.633  31.498  12.927
23079W        W95394  11.659  40.311   2.369
23080W        W95395   8.259  13.880   0.797
23081W        W95396  41.698  39.062   2.738
23082W        W95397  39.760  37.450   0.418
23083W        W95398  28.874  29.112  13.071
23084W        W95399  32.565  16.034  11.731
23085W        W95400  33.565  24.957  12.055
23086W        W95401   5.801  42.010  14.290
23087W        W95402  14.780  18.352   0.789
23088W        W95403   1.272  34.456   3.543
23089W        W95404  35.494  26.866   2.301
23090W        W95405  40.238   2.308   2.381
23091W        W95406  33.089  39.579   2.658
23092W        W95407  41.112  26.773  10.855
23093W        W95408  34.186  18.731  14.415
23094W        W95409  12.129  16.684  13.027
23095W        W95410  14.584  33.828  12.474
23096W        W95411   7.473  26.260  10.681
23097W        W95412  16.029  12.777   0.852
23098W        W95413  44.029  38.088   2.868
23099W        W95414  26.148  28.475   2.885
23100W        W95415  10.720  20.953  13.747
23101W        W95416  33.612  38.948   3.037
23102W        W95417  41.032  41.599  14.274
23103W        W95418  29.461  39.776  11.792
23104W        W95419   5.146  23.973  10.069
23105W        W95420  21.693   2.349   1.859
23106W        W95421  35.110  27.093   1.376
23107W        W95422  41.922  20.266  13.530
23108W        W95423  31.502  34.890   1.139
23109W        W95424  39.993  16.395   3.235
23110W        W95425   8.098  16.119   0.525
23111W        W95426   1.698  36.361  13.350
23112W        W95427  27.127  19.291   3.823
23113W        W95428  22.044  43.533   4.227
23114W        W95429  28.256  24.162   0.293
23115W        W95430  10.842  34.546   2.223
23116W        W95431  13.530  11.632  10.658
23117W        W95432  37.563   8.936   3.659
23118W        W95433  41.931  11.522   0.431
23119W        W95434   4.715  20.025   3.573
23120W        W95435  38.614  44.068   0.635
23121W        W95436   3.503   8.839   4.221
23122W        W95437  14.471  34.968   4.945
23123W        W95438  24.266  32.081  11.911
23124W        W95439  16.146  22.199   1.939
23125W        W95440  16.003  37.582   1.870
23126W        W95441  16.787  31.499   4.811
23127W        W95442  16.018  22.444  14.122
23128W        W95443  44.820  36.137  12.545
23129W        W95444   1.929  39.928   3.444
23130W        W95445  29.882   1.789   3.203
23131W        W95446   2.387  20.793  13.039
23132W        W95447  24.526  37.031  11.496
23133W        W95448   6.227  29.603  13.991
23134W        W95449  27.109  34.427   0.002
23135W        W95450  30.074  15.827  10.254
23136W        W95451   9.984   8.595  10.209
23137W        W95452  17.756   6.411  10.580
23138W        W95453  36.303  21.073   3.043
23139W        W95454  33.438  42.834   3.339
23140W        W95455   4.797  44.777  14.111
23141W        W95456  19.200  42.049   1.985
23142W        W95457  26.065  29.618  14.005
23143W        W95458  14.798  39.956   3.069
23144W        W95459  39.312  29.875  11.198
23145W        W95460   5.406   9.365  12.282
23146W        W95461  26.256  31.826  11.114
23147W        W95462  43.321  44.535  13.838
23148W        W95463  14.900   3.495  13.112
23149W        W95464  31.562  34.397  11.409
23150W        W95465  26.839  40.453   3.601
23151W        W95466  39.054  20.474  13.364
23152W        W95467  21.169  39.718  13.063
23153W        W95468  43.768   6.775   1.376
23154W        W95469  25.575   0.012  14.291
23155W        W95470  34.376  23.109  11.189
23156W        W95471   8.206  41.310  13.175
23157W        W95472  28.594  40.198  14.861
23158W        W95473  29.604  17.299  13.491
23159W        W95474   3.187   3.825  13.980
23160W        W95475  18.400   7.220  12.930
23161W        W95476  29.916  40.562  11.647
23162W        W95477   7.881  28.156   4.056
23163W        W95478  35.543  28.541   0.469
23164W        W95479  18.728  24.684   4.481
23165W        W95480  22.168  37.899  10.632
23166W        W95481  12.686  20.624   0.811
23167W        W95482  39.322  13.576  10.695
23168W        W95483  30.517  30.979   2.179
23169W        W95484  13.189  42.400  12.519
23170W        W95485  40.084  35.835   2.648
23171W        W95486   6.688   2.116  11.026
23172W        W95487  36.805  13.097  13.554
23173W        W95488  25.595  26.099  10.764
23174W        W95489   9.291  11.949   0.781
23175W        W95490  14.167  10.944  12.426
23176W        W95491  26.449  43.572  11.146
23177W        W95492  24.532  26.966  12.673
23178W        W95493   9.683  17.715   3.525
23179W        W95494  41.944  28.026   3.880
23180W        W95495  43.452  22.932   0.905
23181W        W95496  23.051  10.442  14.987
23182W        W95497  44.299  13.276   3.992
23183W        W95498  42.316  40.285   2.726
23184W        W95499   5.347  33.641   0.462
23185W        W95500  37.090  42.757   2.181
23186W        W95501   9.245   3.537  11.486
23187W        W95502  11.843  36.617   0.449
23188W        W95503  41.930  14.854   1.179
23189W        W95504   5.353  33.158  14.360
23190W        W95505  41.320  14.792  11.585
23191W        W95506  26.228  36.556  14.754
23192W        W95507  42.620  13.121  11.956
23193W        W95508  32.300  27.666  10.772
23194W        W95509   4.365  34.237   2.789
23195W        W95510  41.808  35.570   3.173
23196W        W95511  24.060  31.845  14.813
23197W        W95512  36.279   4.746   3.433
23198W        W95513  26.209  18.181   4.239
23199W        W95514   9.702   7.882   4.605
23200W        W95515  31.773  44.895  13.529
23201W        W95516  40.198  32.272  11.032
23202W        W95517  27.628  44.288   2.333
23203W        W95518  21.577  41.291   1.435
23204W        W95519   4.672  15.798   1.025
23205W        W95520  30.260  20.310  12.293
23206W        W95521  10.853   3.236  13.907
23207W        W95522  14.177   6.290  10.232
23208W        W95523  23.356  17.968  11.138
23209W        W95524  11.176  31.646   0.011
23210W        W95525   3.715  29.035   0.734
23211W        W95526  32.017   1.003  12.572
23212W        W95527  27.076  44.734   4.694
23213W        W95528  11.069  22.660   2.140
23214W        W95529  35.058  20.545   4.218
23215W        W95530  23.817   3.224  12.519
23216W        W95531  18.509  21.532  11.960
23217W        W95532  30.820  26.593  13.944
23218W        W95533  36.726   4.105   0.783
23219W        W95534  42.566  20.235  12.953
23220W        W95535  13.269  37.568  12.131
23221W        W95536   2.630  43.844  13.933
23222W        W95537  22.429  31.473  13.531
23223W        W95538  44.140  33.602   4.902
23224W        W95539  43.526   0.728  10.842
23225W        W95540  18.826  24.126  14.040
23226W        W95541   9.826   6.845  14.768
23227W        W95542  40.052  36.029   1.760
23228W        W95543  36.693  27.569  13.865
23229W        W95544   8.201  44.979   0.373
23230W        W95545  21.799  18.400   3.703
23231W        W95546  33.829   4.427   1.926
23232W        W95547   4.662  36.093  13.116
23233W        W95548  25.550  41.488   4.069
23234W        W95549  23.027  44.311   4.443
23235W        W95550  33.084  14.310  14.734
23236W        W95551  37.415   6.387  10.667
23237W        W95552  28.764  11.832  14.003
23238W        W95553  38.546  32.527   4.693
23239W        W95554  39.413  43.246  14.541
23240W        W95555  33.197  14.310   4.158
23241W        W95556  37.083  16.718   1.820
23242W        W95557  41.395  38.328  14.140
23243W        W95558  38.552  10.926  10.722
23244W        W95559  43.835   7.200   3.798
23245W        W95560  24.084  15.529   0.285
23246W        W95561   6.416  23.923  14.532
23247W        W95562  40.770   8.636  13.064
23248W        W95563   5.713  35.731  14.384
23249W        W95564   2.019  28.085   2.701
23250W        W95565   6.150  24.144  14.887
23251W        W95566  24.987  17.235   0.945
23252W        W95567  10.342   5.271   3.746
23253W        W95568  29.542  40.621   2.218
23254W        W95569  25.476  41.522  11.466
23255W        W95570  19.093   7.800  13.904
23256W        W95571   9.342  23.060  14.192
23257W        W95572  22.946   8.929   1.079
23258W        W95573  43.236  10.799  13.459
23259W        W95574  31.869  40.130   3.401
23260W        W95575  32.898  12.896   0.195
23261W        W95576  27.611  11.426   1.283
23262W        W95577  18.242  19.682  12.534
23263W        W95578  36.835  13.490   3.371
23264W        W95579  18.284  41.606   2.306
23265W        W95580   2.508   1.769   2.330
23266W        W95581   4.220  20.815  12.473
23267W        W95582   2.266  18.652   1.789
23268W        W95583  12.043  15.930   9.900
23269W        W95584  33.755   4.177  13.925
23270W        W95585  23.141  35.884   3.679
23271W        W95586  26.496  14.032  12.531
23272W        W95587  27.665  31.905   4.765
23273W        W95588  38.457  42.132   2.619
23274W        W95589  35.328  42.983  11.013
23275W        W95590  37.277  21.986  12.415
23276W        W95591  17.949  40.138   0.671
23277W        W95592  29.042  41.804  11.137
23278W        W95593  35.999  17.849   2.424
23279W        W95594   1.833  44.044  14.806
23280W        W95595   1.732  18.546   0.444
23281W        W95596  29.012  13.682  11.689
23282W        W95597   3.973  32.956  12.323
23283W        W95598  36.637  32.369   1.288
23284W        W95599   1.680  39.918   0.212
23285W        W95600  36.102   3.789  11.763
23286W        W95601   7.022  25.134   4.060
23287W        W95602  20.415  28.515   4.405
23288W        W95603  19.124  38.731  11.474
23289W        W95604  35.469  43.414   3.423
23290W        W95605  44.958  14.482   0.248
23291W        W95606  25.954  32.579   4.507
23292W        W95607  24.766  17.576  12.535
23293W        W95608  17.726  21.871  12.950
23294W        W95609  11.690   1.339  12.537
23295W        W95610  29.151  34.911   3.765
23296W        W95611  24.545   3.875   4.218
23297W        W95612  36.384  25.543   1.484
23298W        W95613  37.838  37.969  14.517
23299W        W95614  35.487  28.474  12.582
23300W        W95615  18.313  15.639   2.786
23301W        W95616  14.320  24.483   4.552
23302W        W95617  11.202   9.687  14.796
23303W        W95618  37.520   4.221   4.507
23304W        W95619  22.966  22.754  11.511
23305W        W95620   4.397  24.890  10.192
23306W        W95621   0.825  30.049   2.891
23307W        W95622  10.626  16.230  12.944
23308W        W95623   9.664  43.390  12.862
23309W        W95624  19.138  24.700   4.118
23310W        W95625  27.118  15.006  12.163
23311W        W95626  39.996  41.803   1.419
23312W        W95627  13.520  33.635  11.609
23313W        W95628  12.097  39.483  13.277
23314W        W95629   8.275  16.556  13.425
23315W        W95630  29.216   1.526  13.497
23316W        W95631  44.200   0.340   4.484
23317W        W95632  42.557   7.695   1.798
23318W        W95633  14.843  36.371  13.988
23319W        W95634  34.771  12.458   1.122
23320W        W95635   1.763  34.611   4.252
23321W        W95636  35.284  16.061  11.063
23322W        W95637  13.189  31.644   4.410
23323W        W95638   7.671  16.516  11.234
23324W        W95639  33.130   7.288   2.267
23325W        W95640   6.602   6.238   1.365
23326W        W95641  33.658  12.457   2.314
23327W        W95642  32.418   6.356   3.030
23328W        W95643   3.499  26.265  11.497
23329W        W95644  13.595   6.676   0.200
23330W        W95645  43.801  25.895  11.099
23331W        W95646  26.321  30.979   2.262
23332W        W95647   4.096  30.489  10.019
23333W        W95648  38.292  33.371  11.934
23334W        W95649  24.708  21.970  13.538
23335W        W95650   4.890  33.348   0.558
23336W        W95651   1.956  27.546   0.341
23337W        W95652  22.958  30.026   1.417
23338W        W95653  35.893  33.519  10.553
23339W        W95654  44.401  12.253  11.410
23340W        W95655  27.624  27.065  11.834
23341W        W95656   1.744  13.996   2.206
23342W        W95657  18.525  44.067  10.593
23343W        W95658  17.053  15.418  12.496
23344W        W95659  34.786   9.927   0.879
23345W        W95660  11.838  11.906  11.463
23346W        W95661   2.026  32.157  13.291
23347W        W95662  20.066  27.634  12.096
23348W        W95663  28.325   6.237   3.166
23349W        W95664  20.852  15.869  12.397
23350W        W95665  34.562  25.517   3.324
23351W        W95666  34.829   0.100  12.825
23352W        W95667   4.708  37.083   4.140
23353W        W95668   2.638   1.140   4.051
23354W        W95669  25.385  37.943  13.062
23355W        W95670  44.489  12.233  10.707
23356W        W95671   4.430  13.759  11.395
23357W        W95672  28.429  44.128  12.121
23358W        W95673  37.721  18.688   3.385
23359W        W95674  24.010   9.746   4.551
23360W        W95675  33.211  10.836  14.423
23361W        W95676   7.372  15.485   1.784
23362W        W95677  38.347  24.601   4.594
23363W        W95678  16.736   6.657  13.790
23364W        W95679   6.752  14.745   2.017
23365W        W95680   2.966  33.145   1.516
23366W        W95681  33.707  33.077   2.347
23367W        W95682   0.876   1.355   1.916
23368W        W95683   6.601   9.742  12.423
23369W        W95684  12.721  27.615  14.428
23370W        W95685  23.483  32.319  12.465
23371W        W95686  43.263  26.096   2.766
23372W        W95687  36.172  21.292   0.763
23373W        W95688   6.731  34.187   0.017
23374W        W95689  29.159  26.542  12.003
23375W        W95690   7.358   8.704  10.554
23376W        W95691  38.520  36.008   1.646
23377W        W95692  43.451  39.314  12.926
23378W        W95693   6.716  12.766  12.086
23379W        W95694  26.336   6.309   5.310
23380W        W95695  40.423   7.171   2.845
23381W        W95696  35.533  23.253  12.095
23382W        W95697  18.611  21.328   2.044
23383W        W95698  32.504  10.486   2.328
23384W        W95699   2.300  11.784  13.831
23385W        W95700  14.431  17.609   3.623
23386W        W95701  35.800  16.331   3.536
23387W        W95702  42.845  27.468   4.316
23388W        W95703  20.906  43.256  13.598
23389W        W95704  11.585   7.434  12.178
23390W        W95705   6.387   4.906  14.967
23391W        W95706  21.851   4.935   4.183
23392W        W95707  17.699   6.747   3.840
23393W        W95708  38.597  15.652  14.420
23394W        W95709  29.900  41.846  14.810
23395W        W95710  42.091  29.640   4.172
23396W        W95711  14.377  35.447  13.873
23397W        W95712  36.345  22.174   0.745
23398W        W95713  13.557  34.919   3.555
23399W        W95714   3.827  40.402  14.708
23400W        W95715  37.439  41.531  11.204
23401W        W95716  35.327  44.924   1.142
23402W        W95717  10.852  24.045  14.191
23403W        W95718   3.866  32.401  11.395
23404W        W95719   2.298  44.229  14.945
23405W        W95720  36.496   8.297  10.788
23406W        W95721  10.447  42.855   2.353
23407W        W95722   7.976  31.505  14.945
23408W        W95723  32.682  27.777  12.061
23409W        W95724   8.898  28.247   2.500
23410W        W95725  19.161  17.822   0.286
23411W        W95726  38.852  23.077  13.061
23412W        W95727   6.810  21.606  11.698
23413W        W95728  31.601  37.757  12.777
23414W        W95729  12.321   2.816  13.537
23415W        W95730   6.786   9.410   4.234
23416W        W95731   7.163  33.887  12.015
23417W        W95732  36.117   1.959  11.034
23418W        W95733  17.687  10.744   2.430
23419W        W95734  19.175  18.498   3.774
23420W        W95735  12.532   8.819  14.495
23421W        W95736  16.142  28.385  13.948
23422W        W95737  44.290  35.869  12.518
23423W        W95738   6.016  25.115   4.122
23424W        W95739  42.592  39.340   3.695
23425W        W95740  11.507  29.020  13.328
23426W        W95741   7.066  31.461   4.661
23427W        W95742  12.713  18.054   3.698
23428W        W95743  25.138  34.959  13.009
23429W        W95744   5.497  14.066   1.897
23430W        W95745  20.089  14.857  12.385
23431W        W95746  13.839  41.280   2.395
23432W        W95747  26.742  30.792   0.950
23433W        W95748  40.336  12.147  12.456
23434W        W95749  30.624   6.591   4.440
23435W        W95750  11.613   2.939   1.839
23436W        W95751  10.670  44.215   1.042
23437W        W95752   8.339   9.642   1.461
23438W        W95753  10.405  28.845  13.951
23439W        W95754  18.872   3.755  13.910
23440W        W95755  37.185  42.874  13.983
23441W        W95756  23.064   5.023   3.196
23442W        W95757  28.484  18.095   0.452
23443W        W95758   5.355  14.767   1.545
23444W        W95759   6.209  17.319   0.084
23445W        W95760   2.116  37.961  13.923
23446W        W95761  35.336  15.964   1.338
23447W        W95762  12.628  13.094   2.215
23448W        W95763  32.820  17.716   0.512
23449W        W95764  41.140  34.896   1.807
23450W        W95765  18.178  27.353  12.373
23451W        W95766  20.856  29.683   5.029
23452W        W95767  43.310  44.618   4.782
23453W        W95768  24.595   1.284  12.474
23454W        W95769   7.743  28.140  12.096
23455W        W95770  40.185  17.328  14.131
23456W        W95771  40.794  15.615   1.764
23457W        W95772  43.786  18.326   0.350
23458W        W95773  19.363  42.471  14.428
23459W        W95774  35.102  39.049  10.166
23460W        W95775  28.712  42.646  10.702
23461W        W95776  22.174  24.114  10.633
23462W        W95777  24.206  39.731   0.424
23463W        W95778   7.927  16.832  14.800
23464W        W95779  41.995  21.342   4.100
23465W        W95780  33.910  11.763   0.509
23466W        W95781  15.662  36.325  10.470
23467W        W95782  26.745   8.925  11.113
23468W        W95783  12.720  19.260  10.692
23469W        W95784   4.376  15.550  13.354
23470W        W95785  12.342  35.021   3.419
23471W        W95786  41.931  17.487   4.128
23472W        W95787  29.367  11.578  12.996
23473W        W95788   5.829   0.071  14.417
23474W        W95789  33.460  32.273   2.942
23475W        W95790  13.399  27.654  11.756
23476W        W95791  28.042   3.339  12.266
23477W        W95792  19.177  22.610  13.425
23478W        W95793  38.371  41.538   4.200
23479W        W95794   5.964  22.949   1.665
23480W        W95795  37.663  30.384   4.894
23481W        W95796  36.354  18.157   4.626
23482W        W95797  33.888  23.729   3.631
23483W        W95798  16.330  19.705  10.900
23484W        W95799  18.133  22.760   0.450
23485W        W95800   4.762  14.856  10.596
23486W        W95801   7.699  19.107   0.662
23487W        W95802  39.037  33.818   0.552
23488W        W95803   6.103  28.070   1.371
23489W        W95804  13.129  33.928   0.873
23490W        W95805  22.062  44.450  10.692
23491W        W95806  42.724  27.533   2.793
23492W        W95807  42.595  18.749   3.310
23493W        W95808  17.485  42.024   2.299
23494W        W95809  31.122   2.628   0.320
23495W        W95810  26.177  39.082  12.031
23496W        W95811  21.127  27.617  10.686
23497W        W95812  10.394  30.956  12.015
23498W        W95813  41.740  28.074   2.382
23499W        W95814  28.688  22.284   4.044
23500W        W95815   7.893  30.124   1.769
23501W        W95816  22.151  35.576  10.609
23502W        W95817  11.438   7.453  12.715
23503W        W95818  37.822   9.423   0.421
23504W        W95819  39.882  42.946   2.825
23505W        W95820   4.027  40.265  14.248
23506W        W95821  30.144   3.995  11.040
23507W        W95822  16.840  22.675  13.547
23508W        W95823  21.971  36.430  14.502
23509W        W95824  10.694  29.406   0.754
23510W        W95825  42.129  43.546  12.478
23511W        W95826  12.086  12.153  11.911
23512W        W95827  20.242  24.213   2.109
23513W        W95828  19.613  38.967   0.614
23514W        W95829  12.026  11.355   0.938
23515W        W95830  29.545   5.685   0.457
23516W        W95831  18.545  15.783   1.907
23517W        W95832  41.769  20.337  12.340
23518W        W95833  21.492  31.467   1.728
23519W        W95834  22.518  11.353  13.922
23520W        W95835  12.269   3.401   2.179
23521W        W95836  38.495  25.170  13.280
23522W        W95837  43.968  20.295  11.579
23523W        W95838  19.364  26.397  10.157
23524W        W95839  20.577   1.783  11.584
23525W        W95840  31.023  44.092  14.508
23526W        W95841  39.521  40.784   1.865
23527W        W95842  28.979  12.417  11.984
23528W        W95843   2.773  14.554  14.577
23529W        W95844  24.951   0.932  12.394
23530W        W95845   8.867  24.581  10.883
23531W        W95846  42.094   7.233  14.810
23532W        W95847  21.146   5.145  13.867
23533W        W95848  37.043  30.422   0.262
23534W        W95849  36.390  27.115   0.021
23535W        W95850  18.591  42.786  11.444
23536W        W95851  40.242  19.298   1.410
23537W        W95852   9.620  43.385   2.239
23538W        W95853  21.241  41.124   2.406
23539W        W95854  31.454  32.440  10.455
23540W        W95855  41.292  13.973   0.338
23541W        W95856  41.991  28.997   0.323
23542W        W95857  19.930  15.195   0.901
23543W        W95858  39.099  15.865  14.412
23544W        W95859  14.572  33.546   1.817
23545W        W95860  27.683   9.177   4.177
23546W        W95861  38.294  36.133   1.195
23547W        W95862  41.340  44.982  12.550
23548W        W95863   4.822  25.114   4.817
23549W        W95864   0.145  42.865  14.385
23550W        W95865   9.237  27.864  11.193
23551W        W95866  11.324  29.984  10.404
23552W        W95867  23.246   3.254   0.362
23553W        W95868   6.359  24.436   4.957
23554W        W95869  30.548   6.952   3.617
23555W        W95870  38.039  15.828   3.232
23556W        W95871  19.993  13.336  14.945
23557W        W95872  14.458  40.899  10.782
23558W        W95873  22.782  42.430  13.569
23559W        W95874  20.571   0.947   0.796
23560W        W95875  41.953  29.303   3.800
23561W        W95876  23.767  22.194  13.883
23562W        W95877  12.198  10.961  11.191
23563W        W95878  13.895  21.531   3.025
23564W        W95879  22.063  44.896   3.719
23565W        W95880  14.645  16.031   3.611
23566W        W95881  13.126  30.916  13.837
23567W        W95882  33.733   9.948   0.277
23568W        W95883   2.588  18.237   3.208
23569W        W95884  16.681  24.821  14.319
23570W        W95885  31.800  39.604   2.493
23571W        W95886  34.797   4.811   0.957
23572W        W95887   3.274  16.658  12.473
23573W        W95888  24.575  18.068   0.900
23574W        W95889  24.915  37.464   3.460
23575W        W95890  35.888  35.964   2.337
23576W        W95891  28.641  19.177  12.633
23577W        W95892  23.768  24.110  10.686
23578W        W95893  24.229  15.510   2.334
23579W        W95894  24.120  36.137   0.797
23580W        W95895  14.224  31.873   3.369
23581W        W95896   4.275  44.988   0.069
23582W        W95897  28.670  20.675   0.040
23583W        W95898  36.419  31.902  10.857
23584W        W95899  11.622   3.928  13.814
23585W        W95900   4.503   4.360   3.138
23586W        W95901  13.400   8.266  11.974
23587W        W95902  18.631  39.864   0.529
23588W        W95903  24.146   9.252   0.987
23589W        W95904  33.187  12.382  12.853
23590W        W95905  42.275   8.330   0.341
23591W        W95906   4.584  33.612  11.977
23592W        W95907   0.867  15.550  13.943
23593W        W95908  29.724   1.733   2.263
23594W        W95909  21.189  42.818  10.985
23595W        W95910  10.902  19.985  12.839
23596W        W95911  35.517  14.137   2.864
23597W        W95912  22.130  40.277  10.400
23598W        W95913  25.046  35.433   0.369
23599W        W95914   9.316   8.276   4.368
23600W        W95915  19.012   7.374   2.103
23601W        W95916  20.843  40.017   1.860
23602W        W95917   8.893  13.168  13.791
23603W        W95918  16.748  21.551  11.572
23604W        W95919  40.576   6.154  11.141
23605W        W95920  14.666   7.504  12.120
23606W        W95921   0.291  44.792   3.389
23607W        W95922  31.152  12.039   1.854
23608W        W95923  30.892  38.474  12.994
23609W        W95924  14.828  34.140   0.865
23610W        W95925  28.551   3.673   4.084
23611W        W95926  30.649   4.997   0.278
23612W        W95927   8.493  21.580   0.372
23613W        W95928  34.920  15.495   3.998
23614W        W95929   1.840  14.631  10.710
23615W        W95930   6.328  14.348  13.771
23616W        W95931  17.244  15.419   4.142
23617W        W95932  31.106  34.508  12.795
23618W        W95933  29.433  42.566   1.205
23619W        W95934  43.848  27.724  14.078
23620W        W95935  27.130  37.045  10.662
23621W        W95936  36.849  20.171   1.916
23622W        W95937  32.403   6.570   2.202
23623W        W95938  28.213  29.937  13.022
23624W        W95939  32.531  26.476   2.936
23625W        W95940  27.532  36.345   4.498
23626W        W95941  25.220  44.139   2.858
23627W        W95942  42.686   1.173   1.294
23628W        W95943  31.513   8.649   0.439
23629W        W95944  32.081  37.892  12.881
23630W        W95945  20.145   4.806   1.458
23631W        W95946  30.615  33.102   4.679
23632W        W95947  26.317  11.323  13.058
23633W        W95948  28.421  28.190   3.700
23634W        W95949   7.304  21.371  12.474
23635W        W95950  11.212   4.711   1.297
23636W        W95951   4.711  16.635  12.097
23637W        W95952   2.627  27.987   1.634
23638W        W95953  29.700  24.198   2.281
23639W        W95954  43.428  33.115   2.844
23640W        W95955  25.991  22.475  13.926
23641W        W95956  41.459  21.846   2.257
23642W        W95957  39.904   1.284   3.299
23643W        W95958  15.705   4.861  10.557
23644W        W95959  43.891   8.252   3.709
23645W        W95960  36.647  14.769   3.030
23646W        W95961  34.126  27.060  10.936
23647W        W95962  22.025  22.979   4.489
23648W        W95963  28.071  39.899   0.747
23649W        W95964   4.899  44.272   0.345
23650W        W95965  26.221  35.987   0.859
23651W        W95966   2.401  36.943   0.425
23652W        W95967  32.453  43.324  14.447
23653W        W95968   0.611   8.695   3.895
23654W        W95969  21.643   8.826   1.058
23655W        W95970   3.733   3.916  13.285
23656W        W95971  26.960  40.233   2.743
23657W        W95972  26.688  40.069  14.075
23658W        W95973  42.533  25.204  13.962
23659W        W95974   6.004   9.365  14.269
23660W        W95975  44.490  22.899   0.700
23661W        W95976  11.848  15.513   0.739
23662W        W95977  26.460   4.280   5.008
23663W        W95978   0.743  24.574  13.463
23664W        W95979  33.151  37.449  13.415
23665W        W95980  10.344   4.471  11.864
23666W        W95981  41.837   9.278   0.832
23667W        W95982  42.626  24.805   2.653
23668W        W95983   4.761   5.593  12.663
23669W        W95984  17.599  37.547   1.214
23670W        W95985  44.505  24.201   4.528
23671W        W95986  22.020   4.635  13.535
23672W        W95987  32.467  35.276  14.988
23673W        W95988  35.853   0.441  11.188
23674W        W95989  26.401  10.329   1.667
23675W        W95990  40.156  40.005  10.109
23676W        W95991  12.621  26.035   4.418
23677W        W95992   6.607  17.156  11.737
23678W        W95993  33.810  21.364   1.686
23679W        W95994  44.537   4.445  11.257
23680W        W95995  41.462  13.099  11.215
23681W        W95996  38.385  33.446   4.434
23682W        W95997  12.723  24.230  10.739
23683W        W95998  32.372  19.518  13.541
23684W        W95999   4.172   5.266  13.251
23685W        W96000  19.227  40.599  10.197
23686W        W96001  11.574  38.867  11.926
23687W        W96002  18.100  28.450  11.469
23688W        W96003  27.589  11.413   4.178
23689W        W96004  35.290  25.635  13.577
23690W        W96005   2.012  42.217   1.885
23691W        W96006  44.307  10.562  10.561
23692W        W96007  30.543  21.216   1.498
23693W        W96008  40.313  37.620   2.240
23694W        W96009   6.851  25.931  14.772
23695W        W96010   0.980  13.692  11.429
23696W        W96011   9.879  42.688  13.785
23697W        W96012  19.298  11.256  13.297
23698W        W96013  28.455  20.058   4.190
23699W        W96014  12.794  17.136   3.146
23700W        W96015   9.915  43.036   4.798
23701W        W96016   7.937  44.267   4.254
23702W        W96017  41.263  18.151  11.050
23703W        W96018  35.612  43.249  11.996
23704W        W96019  17.287  44.324  14.761
23705W        W96020   7.858  31.099  14.649
23706W        W96021  21.204  34.954   0.281
23707W        W96022  24.219   0.514  14.872
23708W        W96023  31.035  43.123   0.925
23709W        W96024  15.241  29.762  14.406
23710W        W96025  11.433  40.064  14.434
23711W        W96026  42.227  20.248   0.513
23712W        W96027  33.942   6.413   1.767
23713W        W96028  41.922  27.272   1.816
23714W        W96029  19.078  34.341  12.010
23715W        W96030  30.945   1.883   5.249
23716W        W96031  13.179  21.137  11.793
23717W        W96032  43.032  12.782   2.300
23718W        W96033   1.786  32.818  10.943
23719W        W96034  29.615   3.734  13.072
23720W        W96035   1.854  36.373   4.722
23721W        W96036  23.667  14.390   3.244
23722W        W96037  25.186   2.358  14.195
23723W        W96038  20.116  32.735  13.236
23724W        W96039   0.432  17.647   4.508
23725W        W96040  32.921  21.738   0.409
23726W        W96041  37.388  41.329  13.147
23727W        W96042  30.639  13.243   0.677
23728W        W96043  29.365  20.625   3.548
23729W        W96044  18.133   1.453  14.476
23730W        W96045  19.780  25.152   2.824
23731W        W96046  10.815  27.715   1.437
23732W        W96047  30.126  42.363  11.406
23733W        W96048   1.344   4.960   2.669
23734W        W96049   1.974  42.313  12.383
23735W        W96050   4.395  24.770   1.392
23736W        W96051  24.147  20.952  12.023
23737W        W96052  10.875  43.047   2.586
23738W        W96053  17.625  24.154   1.487
23739W        W96054   4.880  32.100   0.344
23740W        W96055   3.938  14.210  11.645
23741W        W96056   4.854  27.265   1.477
23742W        W96057   4.266  19.589  13.636
23743W        W96058   7.131   8.653   3.804
23744W        W96059  32.904  22.193  14.324
23745W        W96060  10.702  24.209   2.294
23746W        W96061  27.495  10.711   0.500
23747W        W96062  14.627   1.671  12.357
23748W        W96063   7.330  19.681   1.853
23749W        W96064  21.592  38.041  11.402
23750W        W96065   2.134  36.986  10.255
23751W        W96066  41.026  23.418   3.363
23752W        W96067   0.033  43.348   0.295
23753W        W96068   4.796   3.856  12.343
23754W        W96069  16.052  38.864   2.183
23755W        W96070  39.086  11.052  10.665
23756W        W96071   7.759  14.309  11.476
23757W        W96072   6.121  27.069   1.638
23758W        W96073   2.477  28.177  12.610
23759W        W96074   2.851   5.728   0.070
23760W        W96075  37.551  11.685   3.845
23761W        W96076  28.958   8.734  12.387
23762W        W96077  40.355  23.739  12.530
23763W        W96078  19.077  41.283   2.741
23764W        W96079   8.617  40.866  14.009
23765W        W96080  10.921  19.568  14.959
23766W        W96081  20.334  21.303  13.790
23767W        W96082  37.268  35.631   1.904
23768W        W96083  24.691  42.952  12.556
23769W        W96084  34.396  19.034   0.052
23770W        W96085  31.528   4.337   0.343
23771W        W96086  11.300  39.457   2.876
23772W        W96087   0.750   9.210   3.252
23773W        W96088  11.705  11.837   2.085
23774W        W96089  35.811  24.429  13.494
23775W        W96090   5.690  10.625   1.979
23776W        W96091  29.164  23.217  12.652
23777W        W96092  17.862  17.460   2.838
23778W        W96093   8.215   8.040  14.942
23779W        W96094   7.834  37.303  12.593
23780W        W96095  30.066  39.030  14.118
23781W        W96096  41.066   5.695  14.919
23782W        W96097   3.912   5.485   2.272
23783W        W96098  24.244  41.745   1.911
23784W        W96099   0.313  32.130   0.180
23785W        W96100   2.015   5.329   2.282
23786W        W96101   4.139   6.777   2.247
23787W        W96102  24.440  18.938   3.565
23788W        W96103  34.433   9.413  13.888
23789W        W96104  12.318  11.344  11.965
23790W        W96105  42.642  39.075  11.377
23791W        W96106  26.566   0.505  14.985
23792W        W96107  31.632  24.702   0.447
23793W        W96108  10.799  10.385  11.844
23794W        W96109  32.539  31.824   2.342
23795W        W96110  28.515  29.682  12.630
23796W        W96111  25.014  35.828   3.345
23797W        W96112  34.334   0.963  10.776
23798W        W96113   5.462   7.123  10.664
23799W        W96114  10.102  36.150   3.353
23800W        W96115  39.942  26.662   1.221
23801W        W96116  10.947   3.156  11.642
23802W        W96117  24.293  25.576   0.054
23803W        W96118  27.233  20.528  14.776
23804W        W96119  22.628  37.570   3.311
23805W        W96120  22.427  15.746   0.234
23806W        W96121  35.579  19.709  14.750
23807W        W96122  25.719  40.499   1.259
23808W        W96123  43.297  29.129  14.886
23809W        W96124  23.778  41.577  13.538
23810W        W96125  11.185   6.599   1.160
23811W        W96126   7.704   6.733   0.783
23812W        W96127  27.034  35.766   3.237
23813W        W96128  16.966   2.806   1.665
23814W        W96129  17.277  36.146   2.962
23815W        W96130   1.360  19.202   0.840
23816W        W96131  40.257  35.546  14.492
23817W        W96132  10.040   9.153  13.866
23818W        W96133  27.615  16.897  11.851
23819W        W96134  32.911  30.445  12.169
23820W        W96135  44.128  38.745   4.202
23821W        W96136  33.704  30.742  12.467
23822W        W96137   1.801  21.639   4.857
23823W        W96138  15.331   9.347  14.447
23824W        W96139  18.977  36.760   2.833
23825W        W96140   1.251   3.296   4.077
23826W        W96141   6.914  17.546  11.572
23827W        W96142  30.432  16.161  14.901
23828W        W96143   4.866  30.765  13.565
23829W        W96144  29.542  16.118  12.326
23830W        W96145  20.471   9.939  12.968
23831W        W96146  22.983  34.160  12.014
23832W        W96147   5.040  28.189  13.865
23833W        W96148  32.993  28.956  12.601
23834W        W96149   6.617  33.507   3.664
23835W        W96150  25.609  38.335  11.033
23836W        W96151  13.211  34.793   1.290
23837W        W96152  31.564  11.255  12.826
23838W        W96153  14.658  34.087  13.911
23839W        W96154   1.222  33.569   3.665
23840W        W96155   8.819  33.870   0.240
23841W        W96156   2.512  13.662   1.841
23842W        W96157  15.636  39.334  14.988
23843W        W96158  31.274  36.982  13.602
23844W        W96159   8.276  16.775   3.599
23845W        W96160  16.220  19.727  10.409
23846W        W96161   3.423  40.745  14.652
23847W        W96162  40.098  35.848  10.623
23848W        W96163  38.392  23.421   1.688
23849W        W96164  38.385   2.979  11.986
23850W        W96165  20.660   4.996   2.607
23851W        W96166  13.388   9.596   1.769
23852W        W96167  42.559  14.349  14.693
23853W        W96168  23.952  13.589  10.824
23854W        W96169   8.076  40.313  14.487
23855W        W96170  31.011  36.481  11.327
23856W        W96171  21.220  34.505  14.889
23857W        W96172  25.944  16.556  13.269
23858W        W96173  28.492  13.846   2.871
23859W        W96174  39.308  13.068   4.272
23860W        W96175   8.924   1.933   3.162
23861W        W96176  13.579  21.236   2.771
23862W        W96177  18.130  42.457  11.168
23863W        W96178  27.453  40.259  12.295
23864W        W96179  37.444  29.446   1.976
23865W        W96180   8.516  26.346   4.976
23866W        W96181  26.018  16.909  11.602
23867W        W96182  29.658  12.885  12.552
23868W        W96183   0.752  12.590  12.209
23869W        W96184  33.539  36.301   1.424
23870W        W96185  44.366   2.229  10.664
23871W        W96186  42.771  30.603   0.903
23872W        W96187  18.983   9.747   4.342
23873W        W96188   2.780  37.793  10.387
23874W        W96189   7.797   5.372   0.678
23875W        W96190  35.173  12.279  13.996
23876W        W96191  11.615  19.253  14.007
23877W        W96192  17.749  40.845   1.787
23878W        W96193  28.575  29.140  10.953
23879W        W96194  20.019  42.489   3.176
23880W        W96195  24.724  15.562  10.384
23881W        W96196  25.674   6.734   1.024
23882W        W96197  38.871  26.613  11.204
23883W        W96198  40.798  14.878  10.709
23884W        W96199   2.751  11.832   4.798
23885W        W96200  11.392  15.808  11.040
23886W        W96201  32.995   5.953   0.794
23887W        W96202  44.904  35.352   2.938
23888W        W96203  22.006  21.284  12.822
23889W        W96204  24.126  10.342   4.026
23890W        W96205  38.110  25.954   4.673
23891W        W96206   8.675   2.162   3.997
23892W        W96207   5.164   6.301  14.311
23893W        W96208   4.514  24.128   0.777
23894W        W96209   8.681   5.109   2.355
23895W        W96210  38.367  27.125   5.612
23896W        W96211  23.027  16.692   4.569
23897W        W96212  30.152  42.819   4.568
23898W        W96213  33.446  25.761   1.747
23899W        W96214  28.127  18.210   3.764
23900W        W96215  11.950   5.833  10.656
23901W        W96216  34.806  14.495  11.664
23902W        W96217  42.340  42.874   4.440
23903W        W96218  39.340  10.606  14.966
23904W        W96219  21.259   5.845  14.930
23905W        W96220  36.801   2.606   4.603
23906W        W96221   0.837  28.737   4.702
23907W        W96222  35.093  39.886  10.093
23908W        W96223   3.668  17.761  11.672
23909W        W96224   2.074   6.840  11.463
23910W        W96225   3.363  19.911   1.558
23911W        W96226   3.046   0.584   4.749
23912W        W96227  43.920  39.028  12.946
23913W        W96228  15.193  16.197  13.884
23914W        W96229  34.065   5.644  12.595
23915W        W96230  34.607  20.370   0.893
23916W        W96231  15.860  29.791  11.547
23917W        W96232  19.699  23.017   0.321
23918W        W96233   4.348  18.545   2.769
23919W        W96234  24.454   2.702  12.532
23920W        W96235  11.966   7.282  10.736
23921W        W96236  21.171  32.005   5.088
23922W        W96237  33.515  25.623  13.882
23923W        W96238  25.145  28.536  13.095
23924W        W96239   6.411   4.256  12.874
23925W        W96240   4.402  19.702  11.676
23926W        W96241  34.178   9.627   2.493
23927W        W96242   2.328  35.894  12.024
23928W        W96243   7.267  23.713  12.959
23929W        W96244  43.917  24.618   1.474
23930W        W96245  34.438  44.364  14.290
23931W        W96246  27.218  16.071   1.193
23932W        W96247  20.584  39.809  13.902
23933W        W96248  15.287  19.506   1.791
23934W        W96249  20.688   4.835   3.637
23935W        W96250  29.050   8.292   2.244
23936W        W96251  21.513   2.785  13.891
23937W        W96252  19.042  44.912   4.044
23938W        W96253   0.393   7.807   2.870
23939W        W96254  29.602   4.985  13.700
23940W        W96255  37.817   5.753  11.146
23941W        W96256  38.565  41.861   1.428
23942W        W96257  36.105  12.575  13.573
23943W        W96258  44.068  44.976  10.988
23944W        W96259  35.990  18.230   1.626
23945W        W96260  10.414  29.939   1.410
23946W        W96261  35.852  10.132  11.950
23947W        W96262  15.217  39.508  13.292
23948W        W96263  38.590  10.597   3.377
23949W        W96264  17.546  25.055   1.616
23950W        W96265  20.980  18.106  10.767
23951W        W96266  11.729  14.678  14.843
23952W        W96267  10.162   8.971  12.628
23953W        W96268  24.247  30.969  14.438
23954W        W96269   5.388  39.013   3.169
23955W        W96270  24.021  12.344  14.298
23956W        W96271   8.457   6.154   4.320
23957W        W96272   2.221  21.011   0.994
23958W        W96273  25.475  17.593  12.202
23959W        W96274  29.843   2.706   3.338
23960W        W96275  23.775  17.972  13.829
23961W        W96276  11.676  18.251   3.761
23962W        W96277  42.708  27.514  13.492
23963W        W96278  28.032  24.510  12.938
23964W        W96279  44.344   4.199   0.354
23965W        W96280  11.438   7.284  14.036
23966W        W96281   6.188  18.834   3.708
23967W        W96282  25.589  22.131   4.737
23968W        W96283  32.898   3.149   1.395
23969W        W96284   7.484  39.392   3.372
23970W        W96285  36.608  11.370   4.544
23971W        W96286  31.004  21.047   0.680
23972W        W96287   3.913  42.598   3.823
23973W        W96288  13.826  17.360   4.728
23974W        W96289  19.952  26.600  12.003
23975W        W96290  12.170  38.574  14.621
23976W        W96291  40.560  18.570   1.048
23977W        W96292   7.225  31.352   3.357
23978W        W96293  10.311  11.043  13.938
23979W        W96294   6.770  35.118   4.806
23980W        W96295   3.316  38.556  11.143
23981W        W96296  44.900  28.921  14.870
23982W        W96297  40.584  42.392  14.738
23983W        W96298  16.121   8.911  12.117
23984W        W96299   9.573  11.088   1.309
23985W        W96300  42.307  15.051   2.347
23986W        W96301  20.662   3.658  14.705
23987W        W96302  37.508  25.147   0.310
23988W        W96303   7.774  25.646   0.626
23989W        W96304  38.589   5.976   3.275
23990W        W96305   6.880   4.310  11.131
23991W        W96306  37.518  26.766   0.427
23992W        W96307  14.851  38.041   3.605
23993W        W96308  16.259  24.593  12.141
23994W        W96309  44.798  16.170   4.915
23995W        W96310   4.347  18.089   3.680
23996W        W96311  40.052  36.135   4.237
23997W        W96312  33.934  36.103  10.763
23998W        W96313  39.552  11.905  13.978
23999W        W96314  42.800  10.829   0.286
24000W        W96315  27.320  40.565   3.699
24001W        W96316  14.190  15.587  13.342
24002W        W96317  14.522   3.086   4.591
24003W        W96318  27.568  28.474   3.158
24004W        W96319  29.121   5.821   3.833
24005W        W96320   6.259  22.940  14.391
24006W        W96321  35.906  27.410  11.990
24007W        W96322  28.147  32.658   3.144
24008W        W96323  39.826  22.451   1.792
24009W        W96324  31.821   9.606   3.861
24010W        W96325  40.846   3.944   3.272
24011W        W96326   0.338  42.963   4.703
24012W        W96327   4.142  44.051   1.779
24013W        W96328  22.447  12.875   3.868
24014W        W96329  40.022  21.663  11.998
24015W        W96330   5.475   1.872   2.374
24016W        W96331  25.564  39.689  14.753
24017W        W96332  12.632  24.279   2.253
24018W        W96333   7.207  13.436  11.602
24019W        W96334  25.064  23.106   3.882
24020W        W96335  14.101   1.160   0.694
24021W        W96336  14.651  23.734  14.080
24022W        W96337  30.476  31.417   0.406
24023W        W96338  34.641  10.937  14.486
24024W        W96339  31.635  14.644   1.009
24025W        W96340  14.767  33.980   3.669
24026W        W96341  16.811  35.565  10.667
24027W        W96342  25.049  23.693   2.350
24028W        W96343  37.413  39.093  12.039
24029W        W96344   5.854  21.348   0.004
24030W        W96345  24.568  41.267   1.221
24031W        W96346  43.250  28.122  10.730
24032W        W96347  19.682  30.201   0.981
24033W        W96348  28.367  34.152   4.516
24034W        W96349  15.977  17.276  14.036
24035W        W96350   0.496  22.273   4.559
24036W        W96351  38.533  40.374  11.673
24037W        W96352   0.013  25.868  13.282
24038W        W96353   1.886   6.252  12.285
24039W        W96354  38.127  21.544   3.258
24040W        W96355   6.848  10.542  10.963
24041W        W96356  15.613  15.747   2.243
24042W        W96357   1.024  31.315  13.015
24043W        W96358  15.073   0.289   0.432
24044W        W96359  39.376  43.106   1.220
24045W        W96360  16.351  40.997   2.327
24046W        W96361  22.244  11.539  12.518
24047W        W96362   5.819  12.715  12.416
24048W        W96363  16.625  11.355  12.165
24049W        W96364  22.004   5.172   2.867
24050W        W96365  25.262  44.995  14.861
24051W        W96366   8.952  41.824  12.102
24052W        W96367  40.620   1.372  13.263
24053W        W96368  30.634  36.038   0.838
24054W        W96369  34.046  42.807  10.096
24055W        W96370  22.486   8.765  14.917
24056W        W96371   0.689  32.650   1.604
24057W        W96372  22.999  17.738   1.711
24058W        W96373   9.264   2.596   4.148
24059W        W96374   0.796  17.553  10.487
24060W        W96375  30.995  37.248   2.219
24061W        W96376  18.928   1.486   0.786
24062W        W96377   3.916   7.726   3.219
24063W        W96378   5.968  23.195   1.211
24064W        W96379  12.244   3.267  13.901
24065W        W96380  17.690  13.744   0.966
24066W        W96381  38.427  23.966   4.090
24067W        W96382  31.943  25.038   4.565
24068W        W96383   9.585  25.464  12.906
24069W        W96384  29.530  15.250  13.001
24070W        W96385   1.499  40.522  12.969
24071W        W96386  39.388  42.840   3.620
24072W        W96387  13.397  27.200   3.475
24073W        W96388  31.498   6.650   4.910
24074W        W96389  10.767  44.935  10.997
24075W        W96390  30.948  35.635   3.819
24076W        W96391   1.475  29.356  14.355
24077W        W96392  10.419   0.901  14.736
24078W        W96393   1.706  35.439   0.856
24079W        W96394   9.888  12.760  12.878
24080W        W96395  17.641   0.726  11.254
24081W        W96396  33.009  22.765   2.172
24082W        W96397  12.042  14.254  14.389
24083W        W96398  31.454  10.161  14.236
24084W        W96399  28.628  34.842  11.595
24085W        W96400  38.244  34.796   2.128
24086W        W96401  30.550  28.925  14.869
24087W        W96402   0.281  38.001  13.871
24088W        W96403  18.194  41.323   2.764
24089W        W96404  16.396   0.811  14.470
24090W        W96405  18.321   0.337   3.807
24091W        W96406  27.716  33.735  12.216
24092W        W96407  13.711  41.009   2.813
24093W        W96408  12.518  39.347   1.938
24094W        W96409   5.747  13.064  11.134
24095W        W96410  43.900  14.664  14.002
24096W        W96411  39.636  15.336  13.659
24097W        W96412  10.979  30.857   2.866
24098W        W96413  32.608  13.279  12.917
24099W        W96414   0.776  13.583   4.669
24100W        W96415   0.956  36.397  13.037
24101W        W96416   2.324  41.220  10.636
24102W        W96417  16.055  22.647   2.868
24103W        W96418  40.462  18.022  11.571
24104W        W96419  30.341  39.550  11.662
24105W        W96420  27.945  17.180  14.579
24106W        W96421  34.473  29.405  12.955
24107W        W96422  38.969  42.564   3.753
24108W        W96423  18.162  21.496   1.237
24109W        W96424  38.927   2.353   3.753
24110W        W96425  39.799  28.000   4.078
24111W        W96426  17.862  42.038   1.320
24112W        W96427  44.983  30.703  13.100
24113W        W96428  25.491  18.506   3.993
24114W        W96429  18.084   8.821   4.573
24115W        W96430  14.795  34.016   1.828
24116W        W96431  12.557  14.022   4.648
24117W        W96432  26.558  23.907  14.678
24118W        W96433  44.283  38.363   2.457
24119W        W96434  19.098  19.104   2.158
24120W        W96435   3.699  36.543  14.310
24121W        W96436   1.815  10.148   1.246
24122W        W96437   6.735  43.880  13.423
24123W        W96438   3.621  26.085   4.482
24124W        W96439  20.238   7.215   4.150
24125W        W96440  42.943   6.907  14.331
24126W        W96441  17.630  32.186  14.080
24127W        W96442  33.502  37.354   0.520
24128W        W96443   6.354  24.158  12.131
24129W        W96444  22.545  22.078  10.488
24130W        W96445  12.952   9.838   0.275
24131W        W96446  18.360  41.970  12.019
24132W        W96447  24.710   7.383  12.039
24133W        W96448  32.356  37.410  12.945
24134W        W96449  34.797  36.112   3.711
24135W        W96450  20.647   1.784  14.903
24136W        W96451   4.791  15.251  13.367
24137W        W96452  32.982  25.144   1.937
24138W        W96453   4.721  14.346  12.429
24139W        W96454  18.755  14.310  14.857
24140W        W96455  17.521   8.768  13.320
24141W        W96456  40.695  40.382  10.956
24142W        W96457  44.416   3.796  14.499
24143W        W96458  27.900  37.492   1.080
24144W        W96459  25.597  12.369   0.001
24145W        W96460   9.834  42.293   4.305
24146W        W96461  26.605  43.093   1.417
24147W        W96462  27.130  24.744   1.941
24148W        W96463  15.052  12.122   0.271
24149W        W96464   6.687  31.856   0.977
24150W        W96465   8.917  13.399   4.989
24151W        W96466   9.598  24.602  11.491
24152W        W96467  13.072  38.015   0.270
24153W        W96468  35.735  37.968   3.636
24154W        W96469  19.541   2.165  12.925
24155W        W96470  24.503   8.825   1.906
24156W        W96471  30.867  44.354   3.635
24157W        W96472  20.524  38.408  10.660
24158W        W96473  43.611   1.267  14.413
24159W        W96474   5.643  28.613   3.453
24160W        W96475  32.364   7.248   3.654
24161W        W96476   8.399   2.854  12.244
24162W        W96477   8.089  27.650  14.055
24163W        W96478  22.589  27.538  12.333
24164W        W96479  10.909  30.125  14.075
24165W        W96480  24.275  41.799  13.001
24166W        W96481  19.616  27.409  12.059
24167W        W96482   9.882  25.619  14.927
24168W        W96483   4.335   8.239   0.666
24169W        W96484   2.692   1.276   2.244
24170W        W96485  38.145  32.089  11.025
24171W        W96486   4.255  40.550   2.909
24172W        W96487   6.467  31.958  13.329
24173W        W96488  34.328  20.833   0.475
24174W        W96489  44.018   5.690  13.542
24175W        W96490  33.822  15.210  10.763
24176W        W96491  44.503  40.022   9.987
24177W        W96492   3.947  18.304  14.343
24178W        W96493  31.887  29.575   2.857
24179W        W96494  38.728  38.419  13.012
24180W        W96495   4.814  30.001  12.874
24181W        W96496   1.720  39.433   3.360
24182W        W96497  19.229  41.500  11.073
24183W        W96498  42.534  14.567   4.106
24184W        W96499  44.938  14.709  14.639
24185W        W96500  12.274   4.633  12.880
24186W        W96501  41.706  13.067   3.728
24187W        W96502  37.847   7.918  12.230
24188W        W96503  37.427  39.410   3.149
24189W        W96504  19.454  20.086  11.487
24190W        W96505   5.381  39.821   2.474
24191W        W96506  28.124   9.201   4.418
24192W        W96507   1.396  18.024  11.206
24193W        W96508   0.619  21.311  12.486
24194W        W96509   7.208  10.661  14.854
24195W        W96510  14.388  40.438  13.312
24196W        W96511   7.442  15.364   4.980
24197W        W96512  17.587  42.446  11.180
24198W        W96513  10.226   2.371   1.743
24199W        W96514  44.388  36.586  12.045
24200W        W96515  41.818  15.032   2.128
24201W        W96516  33.432  10.727   0.700
24202W        W96517  12.665  17.065  13.313
24203W        W96518  43.951   9.317  11.478
24204W        W96519  26.250  38.347   2.715
24205W        W96520  29.659  39.518   1.319
24206W        W96521   4.582  29.280  13.508
24207W        W96522   9.138  31.059  10.777
24208W        W96523  20.003  21.671  14.973
24209W        W96524  13.128  15.831   3.089
24210W        W96525  32.592   8.049  13.461
24211W        W96526  13.077  23.241  10.827
24212W        W96527  21.012  10.704   1.845
24213W        W96528  26.241  36.591  13.024
24214W        W96529  24.264   8.325  13.790
24215W        W96530  41.278  40.811   2.212
24216W        W96531  10.191  38.382   3.626
24217W        W96532  10.386  28.977  14.468
24218W        W96533  28.091  40.429  14.911
24219W        W96534  23.319   1.869  12.497
24220W        W96535  15.004  43.847  13.229
24221W        W96536  33.287   6.711   4.490
24222W        W96537   0.143  20.289   0.180
24223W        W96538  17.756  32.041  13.079
24224W        W96539  42.705  26.034  13.484
24225W        W96540  12.222  19.605  14.523
24226W        W96541  41.403  33.140   3.640
24227W        W96542   2.246  12.616  12.419
24228W        W96543  13.790  28.676   4.282
24229W        W96544   4.522   4.168  12.035
24230W        W96545   5.777  39.483  11.030
24231W        W96546   1.480   9.005   5.004
24232W        W96547  36.905  38.079   2.175
24233W        W96548   2.353  11.060  11.605
24234W        W96549   7.424  30.017   3.856
24235W        W96550  32.081  20.188   3.354
24236W        W96551  34.067  16.122  10.418
24237W        W96552  17.835  39.286   0.722
24238W        W96553  22.546  43.522   0.010
24239W        W96554   8.324   7.354  13.272
24240W        W96555  30.592   7.104  12.589
24241W        W96556  37.817  32.089   4.518
24242W        W96557  37.127  23.165  12.426
24243W        W96558  37.898  23.579   3.218
24244W        W96559  37.374   7.180  12.088
24245W        W96560  28.912  15.619  12.537
24246W        W96561  29.464   2.254   1.394
24247W        W96562   0.722  25.344   3.606
24248W        W96563  27.965  29.655  11.344
24249W        W96564  25.858  24.902   3.071
24250W        W96565  23.471  18.811   0.462
24251W        W96566  25.714  18.236  13.458
24252W        W96567   2.967  17.554  11.940
24253W        W96568  44.245  35.888   4.484
24254W        W96569  29.850   1.459   1.817
24255W        W96570  33.638  17.279  11.162
24256W        W96571  34.968  18.238   1.363
24257W        W96572  37.899  39.937   1.523
24258W        W96573  17.188  26.422  12.895
24259W        W96574  43.931  27.265   1.421
24260W        W96575   3.443  39.994  12.955
24261W        W96576   3.400  16.842  11.989
24262W        W96577  21.777  30.083   3.184
24263W        W96578  26.600  14.804  11.473
24264W        W96579  37.159  29.509  14.344
24265W        W96580  24.496   8.253   4.082
24266W        W96581  44.832  26.533  11.122
24267W        W96582   5.271  39.658  11.473
24268W        W96583   2.914  40.003  14.956
24269W        W96584  26.102  10.442   1.229
24270W        W96585  39.817   3.574  12.565
24271W        W96586  40.489  38.429   3.098
24272W        W96587  41.995   1.018   3.697
24273W        W96588  31.553  31.112  12.415
24274W        W96589  10.391   7.640   0.733
24275W        W96590   7.202   1.073   4.409
24276W        W96591  39.797  19.358   4.102
24277W        W96592  25.857  33.531  11.332
24278W        W96593  41.108  27.639  11.181
24279W        W96594   3.703  37.973   4.099
24280W        W96595   1.712  25.306  14.860
24281W        W96596  22.797   9.042  13.474
24282W        W96597   5.327  27.474   0.445
24283W        W96598   4.371   3.426  14.899
24284W        W96599   0.514  34.459  12.503
24285W        W96600   2.170   5.315  11.455
24286W        W96601  13.302   3.147  11.130
24287W        W96602   2.930  10.496  14.737
24288W        W96603   1.089  32.563   1.246
24289W        W96604   8.447  23.133  12.922
24290W        W96605  22.209  12.614  12.049
24291W        W96606  34.069  42.986  14.848
24292W        W96607  23.531  29.569  11.207
24293W        W96608  11.722  20.062  10.937
24294W        W96609   0.376   1.416   2.766
24295W        W96610  26.849  26.505   4.576
24296W        W96611  43.548   5.364  14.746
24297W        W96612  36.556  37.665  10.137
24298W        W96613  23.643  15.181  10.659
24299W        W96614  26.882  19.180  13.997
24300W        W96615  16.854   0.893   1.281
24301W        W96616   7.461  38.864  14.459
24302W        W96617  39.902  33.466  10.702
24303W        W96618  14.872  23.234   1.302
24304W        W96619  15.986  38.511   3.555
24305W        W96620  18.234  12.663  14.068
24306W        W96621  25.847  35.319  14.871
24307W        W96622  25.008  21.204  13.573
24308W        W96623  15.304  16.134   1.886
24309W        W96624  44.266  26.668   0.925
24310W        W96625  33.947  29.994   4.197
24311W        W96626  22.243   3.142  13.155
24312W        W96627  16.323  20.698  12.394
24313W        W96628  29.919  26.970   0.971
24314W        W96629   5.507  34.212  11.185
24315W        W96630  34.658  16.487   0.345
24316W        W96631  43.733   1.341   2.405
24317W        W96632  33.760   5.622  13.909
24318W        W96633  32.674  20.084  12.748
24319W        W96634  27.516  24.051   4.572
24320W        W96635  35.803  18.551  12.363
24321W        W96636  40.477  31.408  11.421
24322W        W96637   1.251   0.236  10.379
24323W        W96638   2.713  13.394  13.988
24324W        W96639  17.929   4.522  14.709
24325W        W96640  20.174  11.061   0.883
24326W        W96641  10.944   0.705   1.718
24327W        W96642  19.681   6.503  14.096
24328W        W96643  14.787  21.005  13.774
24329W        W96644  37.293  24.893  11.518
24330W        W96645  12.382  29.421   2.768
24331W        W96646  20.920   9.989   4.585
24332W        W96647  41.839  12.690   4.994
24333W        W96648  42.328  38.503   3.203
24334W        W96649  25.958   6.583   5.092
24335W        W96650   7.717  35.379   2.111
24336W        W96651  35.427  42.556   1.238
24337W        W96652  25.440  36.158  11.147
24338W        W96653  27.902  34.588   3.084
24339W        W96654   3.359   9.125  11.019
24340W        W96655  42.025  44.941  11.118
24341W        W96656  43.273   0.138   4.858
24342W        W96657  36.730   9.183  11.292
24343W        W96658   8.118  41.661   5.001
24344W        W96659   7.431  39.479   2.478
24345W        W96660   6.748   5.340   1.942
24346W        W96661  39.000  19.348  12.699
24347W        W96662  37.585  14.174  12.178
24348W        W96663  23.942  15.200  12.563
24349W        W96664  12.337  27.218  11.088
24350W        W96665  24.605  32.162  12.353
24351W        W96666   2.799  37.510   5.044
24352W        W96667   7.932  27.151  12.983
24353W        W96668  11.057  39.959  12.422
24354W        W96669   8.951   3.235   1.761
24355W        W96670  11.599  18.930   1.204
24356W        W96671  36.997   7.553  10.682
24357W        W96672  39.827  27.059   4.324
24358W        W96673   1.888   6.281   3.741
24359W        W96674  12.050  28.096   0.166
24360W        W96675  30.843  27.072   0.922
24361W        W96676  15.733  42.134  12.866
24362W        W96677  40.709  27.540   4.924
24363W        W96678  16.132  13.165  14.564
24364W        W96679   7.431  31.559   1.725
24365W        W96680  26.127  33.747   9.943
24366W        W96681  40.976  42.031   4.119
24367W        W96682  30.272  15.540  14.002
24368W        W96683  29.428  38.498   2.248
24369W        W96684  38.361  25.464   4.675
24370W        W96685  14.637  37.203   4.192
24371W        W96686   5.126  27.513   5.042
24372W        W96687   0.886  38.249  12.825
24373W        W96688  41.034  14.922   2.474
24374W        W96689   8.724  15.007   4.163
24375W        W96690  44.854  14.266  12.422
24376W        W96691  40.342   2.943   3.688
24377W        W96692  17.223  11.653   2.255
24378W        W96693  18.733  18.971   3.252
24379W        W96694  14.077  36.998  13.496
24380W        W96695  18.200  41.937   1.902
24381W        W96696  21.345  23.547   2.333
24382W        W96697  37.835  13.907   3.275
24383W        W96698  11.745  29.074  11.153
24384W        W96699   9.697  14.182  12.573
24385W        W96700   6.786  40.390  12.542
24386W        W96701  23.227   1.651   1.864
24387W        W96702  10.322  22.076  12.954
24388W        W96703  12.886  31.799   0.267
24389W        W96704   5.939   4.152  13.806
24390W        W96705  14.535  32.730   0.698
24391W        W96706   6.070  43.335  11.622
24392W        W96707   6.882  28.721  14.790
24393W        W96708   4.801  40.213  10.287
24394W        W96709  23.231  11.865   4.278
24395W        W96710  40.650  22.090  14.730
24396W        W96711  19.352   0.284  13.806
24397W        W96712  22.933  44.797   3.719
24398W        W96713  32.617   9.211  14.069
24399W        W96714  13.672  23.502  11.618
24400W        W96715   7.331  14.143  12.901
24401W        W96716  20.796   1.306  11.663
24402W        W96717  22.462  26.643  11.890
24403W        W96718  33.419  36.750   5.011
24404W        W96719   8.053  19.530   4.099
24405W        W96720  34.054  25.016  10.451
24406W        W96721   3.673   4.941  13.482
24407W        W96722  28.890   2.034   0.816
24408W        W96723  16.158  16.644  11.048
24409W        W96724  29.019  24.753  14.387
24410W        W96725   8.100  22.665   1.913
24411W        W96726  43.381  13.751  14.263
24412W        W96727  36.313  13.914   5.123
24413W        W96728  11.155   6.375   2.113
24414W        W96729  26.063   2.808  13.571
24415W        W96730   6.024  29.625   3.284
24416W        W96731  31.421  20.674  14.795
24417W        W96732  21.178  12.247  11.172
24418W        W96733  13.777  41.708  11.076
24419W        W96734  13.947  29.204  10.897
24420W        W96735  43.521  11.774   1.382
24421W        W96736   2.873  38.263  11.873
24422W        W96737  38.077  11.764   3.685
24423W        W96738  24.590  21.299  10.114
24424W        W96739   0.185  43.736  13.524
24425W        W96740   5.966  42.526   0.311
24426W        W96741  15.639  33.112  13.741
24427W        W96742  43.365   0.795   4.175
24428W        W96743  16.678  31.775   5.835
24429W        W96744  34.290  14.743  13.252
24430W        W96745  34.101  26.751   3.621
24431W        W96746  26.520  37.179  11.780
24432W        W96747  18.708  10.365  10.110
24433W        W96748  27.360   3.690  10.671
24434W        W96749   8.860  13.916   4.956
24435W        W96750  23.214  17.985   2.649
24436W        W96751  23.593  39.409  12.842
24437W        W96752  23.823  17.576   0.012
24438W        W96753  18.706   2.383  12.574
24439W        W96754  37.581  43.989   1.687
24440W        W96755  32.842   8.063  14.690
24441W        W96756  42.384  31.712   4.677
24442W        W96757  15.336  13.045   1.900
24443W        W96758  18.174   3.027  12.847
24444W        W96759   5.343   8.128   0.881
24445W        W96760  28.483   1.516   3.036
24446W        W96761  22.032  15.878  12.079
24447W        W96762   4.444  31.903  12.994
24448W        W96763  25.690  27.112  13.462
24449W        W96764   0.304  20.883  11.256
24450W        W96765  44.336   3.389  13.222
24451W        W96766  28.645  22.811  12.031
24452W        W96767  38.055  41.355   0.887
24453W        W96768  14.355  36.796  11.522
24454W        W96769   3.163  42.538   3.597
24455W        W96770   2.434   8.845   0.196
24456W        W96771  37.857  24.525   4.759
24457W        W96772   4.347  44.539   3.672
24458W        W96773  39.436   0.421  12.292
24459W        W96774  34.890  31.590  13.741
24460W        W96775  27.661  21.580   2.183
24461W        W96776  33.106   5.445  12.897
24462W        W96777  16.713  37.004  12.483
24463W        W96778   8.738  37.501  12.850
24464W        W96779   8.669   8.156   0.275
24465W        W96780   2.133  24.302   3.875
24466W        W96781   9.622  29.937   0.293
24467W        W96782  26.514  30.873   3.590
24468W        W96783  35.252  12.703   5.154
24469W        W96784  19.476  14.441   0.478
24470W        W96785   2.703  20.105  13.562
24471W        W96786  23.731  32.651   2.784
24472W        W96787   2.263  10.303   5.359
24473W        W96788   3.885  12.752   2.624
24474W        W96789  27.140  24.609   0.538
24475W        W96790  42.393  14.823  14.016
24476W        W96791  19.773   9.313   0.227
24477W        W96792   2.366  30.981  13.011
24478W        W96793  40.031  43.082  11.622
24479W        W96794  18.251  32.418   3.848
24480W        W96795  24.621  20.775  11.936
24481W        W96796  26.712  43.461  11.570
24482W        W96797   8.457   6.754   0.452
24483W        W96798  31.106  30.156  14.554
24484W        W96799  27.653  25.814  14.863
24485W        W96800  42.550  34.544  13.489
24486W        W96801  11.617  15.737  13.382
24487W        W96802  26.723   8.756   0.050
24488W        W96803  22.722  39.767  11.548
24489W        W96804  21.519   4.883   4.573
24490W        W96805  13.957   0.104  11.471
24491W        W96806  10.337  27.887   0.492
24492W        W96807  33.512  22.728  10.763
24493W        W96808  41.292  29.129  13.017
24494W        W96809  44.320  42.947  11.690
24495W        W96810  21.505  24.463  11.011
24496W        W96811   6.772  24.749  11.495
24497W        W96812   1.575  27.196   2.297
24498W        W96813   2.943  42.277  14.505
24499W        W96814  42.493  17.226  10.632
24500W        W96815  35.817  32.717  12.594
24501W        W96816   0.089  11.830   2.288
24502W        W96817  15.335  20.985  14.905
24503W        W96818  31.448  40.884   3.777
24504W        W96819  15.814   8.290  12.026
24505W        W96820  10.940   1.491  10.988
24506W        W96821  36.830  22.074   0.910
24507W        W96822  38.814  22.115  10.945
24508W        W96823  43.059  27.114   2.362
24509W        W96824  13.194  32.005   3.574
24510W        W96825  36.597   4.888  13.555
24511W        W96826   1.260  33.617   0.351
24512W        W96827  13.202  41.919  14.808
24513W        W96828  10.771  30.931   4.654
24514W        W96829  15.801   5.017   1.304
24515W        W96830   2.985  41.806   4.650
24516W        W96831  20.741  10.863  12.601
24517W        W96832  20.352   2.510   1.847
24518W        W96833  26.290  27.120  14.894
24519W        W96834  23.494  27.977  11.887
24520W        W96835   7.169  15.756  12.478
24521W        W96836   1.172   7.248   0.831
24522W        W96837  10.261  33.875  11.122
24523W        W96838  44.221  44.996  13.386
24524W        W96839   8.652  17.556  12.046
24525W        W96840  26.175   7.132  11.907
24526W        W96841  44.342  31.079   0.314
24527W        W96842  27.834  43.770  11.574
24528W        W96843   1.712  29.450   4.204
24529W        W96844   9.427  28.198   4.239
24530W        W96845  17.774  29.169  14.838
24531W        W96846  36.080  16.102  12.786
24532W        W96847  28.957  34.964  13.873
24533W        W96848   8.430   4.204  12.085
24534W        W96849  10.502  19.821  11.500
24535W        W96850  12.160  16.714   4.582
24536W        W96851  18.169   5.507   0.986
24537W        W96852  17.674  11.863   2.731
24538W        W96853  10.256   7.594   2.373
24539W        W96854   1.601   4.417   1.157
24540W        W96855  35.321  13.720   3.691
24541W        W96856  30.737  14.438  14.285
24542W        W96857  20.211  27.890  12.514
24543W        W96858   5.145  11.595   3.173
24544W        W96859  20.640  18.191  11.137
24545W        W96860  10.149  42.497   2.110
24546W        W96861  34.375  19.164  10.731
24547W        W96862  33.861  24.037  13.346
24548W        W96863   6.757  21.215   0.463
24549W        W96864  25.293  33.075  10.662
24550W        W96865  12.721  19.250  12.054
24551W        W96866   3.713  37.940  11.834
24552W        W96867   5.955  11.983   3.243
24553W        W96868   9.671  30.648  12.573
24554W        W96869  43.491  24.449   4.187
24555W        W96870   5.653  30.904   2.341
24556W        W96871  39.329  27.364  13.543
24557W        W96872   7.386  23.629   3.285
24558W        W96873  24.082  19.743  10.646
24559W        W96874   6.205   3.962   2.875
24560W        W96875  41.900  29.443   2.419
24561W        W96876  26.189  24.586  13.088
24562W        W96877  12.053  16.387   4.212
24563W        W96878  33.689  19.598  13.027
24564W        W96879  36.078  36.988   1.015
24565W        W96880  12.370  17.616  12.485
24566W        W96881  12.407  39.738  12.773
24567W        W96882  36.502  38.295  13.902
24568W        W96883  21.993  24.586   4.104
24569W        W96884  34.180  23.735   2.761
24570W        W96885  10.213  35.351  13.225
24571W        W96886  15.337  39.793  12.043
24572W        W96887   4.386  32.087  10.355
24573W        W96888  11.450  35.422   3.758
24574W        W96889   5.160   0.027  13.846
24575W        W96890   0.694  31.081  12.688
24576W        W96891  40.455  23.378  13.505
24577W        W96892  32.559  34.535   1.929
24578W        W96893  41.358  27.661  11.633
24579W        W96894  44.411  14.631  11.217
24580W        W96895  29.114  15.257  13.409
24581W        W96896   3.679  37.169  11.130
24582W        W96897  36.092  14.849  11.201
24583W        W96898  12.542  39.898   0.488
24584W        W96899  38.234   0.216   1.465
24585W        W96900  17.693   1.653  14.720
24586W        W96901  18.143  18.222   1.732
24587W        W96902  39.319  37.097  11.583
24588W        W96903  10.637  15.064   1.028
24589W        W96904  14.424  28.750   5.159
24590W        W96905  13.211  20.506   0.329
24591W        W96906  25.143  33.601  10.560
24592W        W96907  33.051   2.306  11.691
24593W        W96908  20.643  42.862   4.794
24594W        W96909  34.054   9.347  12.492
24595W        W96910  21.210   5.779   4.454
24596W        W96911  36.563  23.542  12.467
24597W        W96912  43.792  37.079   1.902
24598W        W96913  16.159  15.546   1.702
24599W        W96914  21.990  29.509  12.927
24600W        W96915   6.212  35.476   3.874
24601W        W96916  13.706  26.274   0.441
24602W        W96917  13.222  11.725   3.692
24603W        W96918  44.966  22.526  11.539
24604W        W96919  12.807  12.062  12.032
24605W        W96920  43.274  17.341   0.230
24606W        W96921  31.795   7.367  14.347
24607W        W96922   2.189  41.179  14.024
24608W        W96923  41.348  26.291   2.755
24609W        W96924  23.452  25.608  12.058
24610W        W96925  36.805   0.998  12.908
24611W        W96926  26.995  23.748  14.289
24612W        W96927  27.188  42.921   1.382
24613W        W96928  37.554  31.923  12.100
24614W        W96929  27.247  32.497   0.991
24615W        W96930  10.515   3.894   5.135
24616W        W96931  31.011  25.236   1.206
24617W        W96932   9.100   5.238  12.930
24618W        W96933  27.404  37.933   0.803
24619W        W96934  24.678  25.532   0.440
24620W        W96935  27.989  36.375   2.173
24621W        W96936  22.166   2.233   4.537
24622W        W96937  10.441  19.868   3.840
24623W        W96938  32.558  29.593  13.699
24624W        W96939   1.865  35.126  14.306
24625W        W96940   0.480  36.064   4.457
24626W        W96941  26.394  23.229   1.797
24627W        W96942  21.618  38.867   2.293
24628W        W96943  21.746  16.272  11.924
24629W        W96944  41.898  30.578  13.910
24630W        W96945  43.896  41.447  13.906
24631W        W96946  30.398  40.356  13.848
24632W        W96947  17.342   3.250  11.657
24633W        W96948  33.352  43.967   0.828
24634W        W96949  19.560  30.702   0.847
24635W        W96950  35.398   2.677  11.156
24636W        W96951   2.772   1.691  13.473
24637W        W96952  36.604  37.442   1.752
24638W        W96953  20.930  14.184   1.905
24639W        W96954  36.517  26.965   3.173
24640W        W96955   8.260  19.564   1.283
24641W        W96956  17.753  19.695  10.898
24642W        W96957  25.459  37.189   4.009
24643W        W96958  42.799   0.492   0.447
24644W        W96959  18.369  10.388   4.616
24645W        W96960   9.946  26.502   0.437
24646W        W96961  32.032   7.404  10.492
24647W        W96962  24.669   7.989  10.667
24648W        W96963  30.828  18.883   4.136
24649W        W96964  39.861  21.191  13.565
24650W        W96965  17.172   0.849  13.094
24651W        W96966  13.242   2.950   0.278
24652W        W96967  15.534  23.022   1.850
24653W        W96968  43.555  36.052   2.897
24654W        W96969  32.413   0.680   1.091
24655W        W96970  16.118  16.103   1.584
24656W        W96971  14.612  22.752  10.771
24657W        W96972  24.520   7.444   1.755
24658W        W96973  17.700   5.796   0.461
24659W        W96974  17.618  26.190  12.591
24660W        W96975  27.677  23.465  13.479
24661W        W96976  23.165   4.011   4.481
24662W        W96977   1.881  18.124  11.064
24663W        W96978  39.556  41.765  13.622
24664W        W96979  40.474  18.520   1.948
24665W        W96980  39.373  32.367  13.897
24666W        W96981  33.963  41.626   1.490
24667W        W96982  35.403  21.247   3.072
24668W        W96983  34.602  16.608   4.553
24669W        W96984   7.919  24.181   4.724
24670W        W96985  19.463  36.481   2.120
24671W        W96986  36.111  33.125   1.252
24672W        W96987  31.033   8.945   4.559
24673W        W96988   7.737  38.827   0.947
24674W        W96989  23.776  38.690  14.269
24675W        W96990  15.969  24.252   3.218
24676W        W96991   1.755  40.752  14.373
24677W        W96992  37.343   9.146   3.219
24678W        W96993   0.273  29.041  13.985
24679W        W96994  15.661   5.407  11.437
24680W        W96995  43.747  20.733  13.965
24681W        W96996   4.242  36.371  12.980
24682W        W96997   3.131  21.717   0.532
24683W        W96998  13.609   6.183  14.959
24684W        W96999   0.375  30.124  12.953
24685W        W97000  23.728   1.694   0.508
24686W        W97001  15.195  41.401   4.647
24687W        W97002  43.877  43.168  10.951
24688W        W97003  38.494   0.165   3.110
24689W        W97004  35.650  40.573  14.787
24690W        W97005   4.199  24.645   0.008
24691W        W97006  44.214  12.834  11.494
24692W        W97007  27.802  30.084   2.900
24693W        W97008  41.118  13.742   0.777
24694W        W97009  28.831  20.608  13.563
24695W        W97010  37.319  16.507   4.116
24696W        W97011  30.437  32.536   3.401
24697W        W97012   0.817  18.252  12.514
24698W        W97013  13.762  44.000  12.390
24699W        W97014  32.973   7.858   2.400
24700W        W97015  17.103  40.917  11.587
24701W        W97016  36.894  23.013   4.624
24702W        W97017  41.547  22.175   3.419
24703W        W97018  29.961  15.159   4.652
24704W        W97019  30.611  34.422   2.278
24705W        W97020  36.888   4.972  14.482
24706W        W97021  12.263  15.893   3.215
24707W        W97022   4.614   3.995  13.541
24708W        W97023   2.880  28.497   0.871
24709W        W97024  37.777   8.694  12.167
24710W        W97025   9.195  10.367  14.035
24711W        W97026   3.691  29.045   3.150
24712W        W97027  16.379  29.821  13.767
24713W        W97028  15.820  17.472  11.264
24714W        W97029  18.034  29.811   3.748
24715W        W97030  22.827  18.581   2.229
24716W        W97031  29.456  14.757  14.602
24717W        W97032  43.299  11.171  11.672
24718W        W97033  25.528  23.626   1.459
24719W        W97034  18.798  40.366   0.442
24720W        W97035  16.541   1.192  10.628
24721W        W97036  10.763  39.445  11.768
24722W        W97037  34.483  27.577   2.741
24723W        W97038  43.519  13.186  13.829
24724W        W97039  21.687  14.105   2.325
24725W        W97040   9.251  25.985  10.725
24726W        W97041   9.713  34.533  11.512
24727W        W97042  26.480  29.477   1.432
24728W        W97043  21.055  12.088   4.597
24729W        W97044  28.017  32.490  12.825
24730W        W97045  17.921   7.228  13.104
24731W        W97046  16.266  17.599  10.678
24732W        W97047  28.054   1.355  12.580
24733W        W97048  23.753   6.729   2.543
24734W        W97049   1.354  12.363   5.034
24735W        W97050  31.102  21.637  11.430
24736W        W97051  31.230   7.727   4.118
24737W        W97052  20.757  30.608   2.748
24738W        W97053  22.867  38.372   4.143
24739W        W97054  23.748  24.177   2.179
24740W        W97055   6.427   9.619  14.425
24741W        W97056  42.126  43.940  11.497
24742W        W97057   7.407  20.048  12.072
24743W        W97058  25.923   2.391   0.845
24744W        W97059  12.180   5.795   4.498
24745W        W97060  13.350  25.468   3.002
24746W        W97061  29.207  25.202  14.565
24747W        W97062  21.278  36.017   0.023
24748W        W97063   7.530  30.575   0.294
24749W        W97064   6.214  19.312   4.644
24750W        W97065   0.018   0.042   2.723
24751W        W97066  38.391   2.568   3.748
24752W        W97067  17.363  37.356   3.951
24753W        W97068   6.728  34.776  11.487
24754W        W97069  10.168  11.834  13.494
24755W        W97070  10.734   7.471  13.293
24756W        W97071  16.570  12.277  11.741
24757W        W97072  19.908  17.725   0.189
24758W        W97073  17.637  24.759  12.894
24759W        W97074   2.325  43.895   3.489
24760W        W97075   8.645  21.280   2.877
24761W        W97076  26.602  33.613  13.083
24762W        W97077  26.187  40.765   1.350
24763W        W97078   0.076   8.346   3.675
24764W        W97079  40.242   3.701  12.060
24765W        W97080  29.507  30.447  14.963
24766W        W97081  15.287  40.548   1.478
24767W        W97082  32.712  34.948   2.766
24768W        W97083  35.082  13.307   2.851
24769W        W97084  23.675  18.543   3.790
24770W        W97085  21.617  41.113  13.886
24771W        W97086   9.952  24.746  11.085
24772W        W97087  32.174  41.765   5.087
24773W        W97088  38.834  38.895  12.834
24774W        W97089  11.746  42.760   5.044
24775W        W97090  29.678  15.451   0.773
24776W        W97091  24.690   2.493  11.035
24777W        W97092   8.991  19.447   0.779
24778W        W97093  23.549  26.076  10.702
24779W        W97094  26.491  44.833  12.073
24780W        W97095  26.890   1.910   4.036
24781W        W97096  18.942   2.503   4.134
24782W        W97097   5.901   6.812   1.185
24783W        W97098  11.709  36.723   3.922
24784W        W97099  41.580  40.394   2.344
24785W        W97100  22.840  42.053  13.936
24786W        W97101  24.564  36.666   4.015
24787W        W97102  28.906  38.996  10.731
24788W        W97103   5.791  44.822   1.215
24789W        W97104  22.052  32.716   3.203
24790W        W97105  34.152   4.450   2.340
24791W        W97106   9.613  44.427   3.171
24792W        W97107  33.296   8.568   4.088
24793W        W97108   4.005  44.622  10.003
24794W        W97109   3.228  38.820  11.577
24795W        W97110  36.563   5.028  11.016
24796W        W97111  37.603  12.085  10.699
24797W        W97112  36.490  30.917   3.474
24798W        W97113   9.645  29.505   3.446
24799W        W97114  38.379  14.826   0.668
24800W        W97115  36.463  20.506  13.610
24801W        W97116   2.787  16.830  12.485
24802W        W97117  11.599  29.454  12.610
24803W        W97118   7.811   8.432  10.600
24804W        W97119  36.271   6.459  12.368
24805W        W97120  24.652  29.872   1.819
24806W        W97121  25.409  20.079  14.201
24807W        W97122  17.104  28.260  12.625
24808W        W97123  28.498  38.035   3.184
24809W        W97124  25.977  17.620   3.365
24810W        W97125   2.240   9.283   1.024
24811W        W97126  14.013   8.823  10.152
24812W        W97127  27.401  32.106   1.823
24813W        W97128  22.782  36.592   0.260
24814W        W97129  18.485  39.744  14.315
24815W        W97130  34.257  18.295   0.290
24816W        W97131  28.148  33.362  11.942
24817W        W97132  41.332  18.229   4.132
24818W        W97133  34.178  39.390   2.788
24819W        W97134   6.976  39.375   3.306
24820W        W97135   3.538   0.258  10.465
24821W        W97136  42.905  38.863   5.095
24822W        W97137  21.432  22.717  14.408
24823W        W97138  25.783   8.205  12.510
24824W        W97139   4.223  11.302  10.574
24825W        W97140  12.871   1.771   2.069
24826W        W97141   0.920  22.982  12.926
24827W        W97142  16.781   5.882  11.044
24828W        W97143  43.877  34.979  14.410
24829W        W97144   0.196  44.779   1.480
24830W        W97145  19.567  25.564   0.373
24831W        W97146  39.093  21.677   1.702
24832W        W97147  43.242  25.219  13.390
24833W        W97148  23.475   4.191   2.383
24834W        W97149  15.292  24.424   0.735
24835W        W97150  43.179  36.981   4.095
24836W        W97151  18.013  23.669  13.847
24837W        W97152  37.931  43.766   3.940
24838W        W97153  37.406  15.166   3.740
24839W        W97154  32.409  17.576   0.231
24840W        W97155  29.084   5.646   0.729
24841W        W97156  22.766  37.701   9.868
24842W        W97157  44.389  40.173   2.730
24843W        W97158  18.008  30.635   4.165
24844W        W97159  33.672  14.387  11.090
24845W        W97160  21.311   8.946   4.265
24846W        W97161  33.014  32.951  10.900
24847W        W97162  34.250  18.523   4.896
24848W        W97163  17.255  22.743  14.651
24849W        W97164   1.712  32.231  14.832
24850W        W97165   2.405   8.887  13.462
24851W        W97166  10.855  29.922  10.700
24852W        W97167  21.715  15.210   0.296
24853W        W97168  43.791   4.314   2.181
24854W        W97169  28.065  23.424   3.967
24855W        W97170  30.647  34.981  14.669
24856W        W97171  34.915  40.504   5.004
24857W        W97172  35.439  25.440  14.017
24858W        W97173   4.778  18.708   0.438
24859W        W97174  22.756  18.127   0.388
24860W        W97175  37.601   8.729   0.185
24861W        W97176  26.210  43.549  11.611
24862W        W97177   2.666   2.939   1.717
24863W        W97178  20.522  28.513   0.454
24864W        W97179  32.613  18.386   3.624
24865W        W97180  12.024   0.293   0.189
24866W        W97181   6.849   4.434   3.233
24867W        W97182  20.824  35.731   5.072
24868W        W97183  21.804  25.001   1.034
24869W        W97184  19.996  26.481   3.864
24870W        W97185  13.711  15.105  14.674
24871W        W97186  37.672  20.295   1.305
24872W        W97187  27.390  18.606   2.174
24873W        W97188  23.691  11.476   0.839
24874W        W97189  37.156  40.767   0.847
24875W        W97190  44.177  37.526   1.951
24876W        W97191   5.691   4.544   1.696
24877W        W97192   7.786  36.607   3.880
24878W        W97193   2.398  25.497  14.149
24879W        W97194  26.768  31.579   3.643
24880W        W97195  44.234  44.798   3.137
24881W        W97196  13.873  25.304  13.392
24882W        W97197  34.995  42.337  10.642
24883W        W97198   7.883  35.663   3.685
24884W        W97199  43.016  19.651   3.341
24885W        W97200  12.343  16.813  11.023
24886W        W97201  26.593  24.527  13.388
24887W        W97202  30.504   5.737   3.215
24888W        W97203  26.434  32.589   4.324
24889W        W97204  29.594   7.828  11.187
24890W        W97205   5.907  11.701  11.565
24891W        W97206  25.551   9.348   0.448
24892W        W97207   0.702  26.969   2.590
24893W        W97208  44.548   6.140   3.270
24894W        W97209  22.003  32.510   4.092
24895W        W97210  44.751  26.882   0.837
24896W        W97211  28.532  23.245  12.262
24897W        W97212   5.942  39.680   3.217
24898W        W97213  11.143  15.211  10.575
24899W        W97214  14.123  11.495  12.485
24900W        W97215  41.406  42.084  11.081
24901W        W97216  30.190  42.068   3.046
24902W        W97217  17.217  17.084   2.694
24903W        W97218   0.710  25.968   4.687
24904W        W97219  40.384  30.021  13.393
24905W        W97220  32.221  33.616   3.319
24906W        W97221  28.385  13.797  11.471
24907W        W97222   2.913  28.450  14.295
24908W        W97223  44.487  35.206   2.550
24909W        W97224  13.370   4.207  13.789
24910W        W97225  30.630  41.033  11.133
24911W        W97226  31.862  36.991  12.781
24912W        W97227  31.685   7.935  12.506
24913W        W97228   6.138  28.661  11.913
24914W        W97229   9.261  34.745  11.389
24915W        W97230  23.957  40.992   2.397
24916W        W97231  15.591  20.331  10.724
24917W        W97232  14.898  38.973  14.396
24918W        W97233  17.003   8.847  12.440
24919W        W97234  19.001  35.841   2.622
24920W        W97235  12.651   7.222   1.759
24921W        W97236  39.931  31.992   0.237
24922W        W97237  14.550  28.517  10.430
24923W        W97238  12.734  43.258   1.431
24924W        W97239   0.917  16.174  12.722
24925W        W97240  19.576  38.725  13.095
24926W        W97241  32.431   8.739   4.099
24927W        W97242  30.719  32.155   2.744
24928W        W97243   3.624   3.500   9.699
24929W        W97244   1.892  31.313  11.167
24930W        W97245  15.868  17.341   4.966
24931W        W97246   5.427  24.501   3.771
24932W        W97247  43.143  27.446   3.610
24933W        W97248  41.938   4.436  13.461
24934W        W97249  25.620  20.631  10.481
24935W        W97250  38.681  25.400  14.592
24936W        W97251  19.748  25.061   0.259
24937W        W97252  25.847  11.612  12.954
24938W        W97253  44.482  27.441   3.256
24939W        W97254  19.230  35.420   1.503
24940W        W97255   8.792  35.925   2.281
24941W        W97256  44.342  15.357  12.999
24942W        W97257   3.764  25.458  14.453
24943W        W97258  17.766  32.878  12.542
24944W        W97259   6.999  30.178  14.709
24945W        W97260  36.867  30.114   3.193
24946W        W97261  11.252  32.007   2.011
24947W        W97262   2.258  44.048   1.922
24948W        W97263   8.468  33.143   4.270
24949W        W97264  25.155  41.937   0.884
24950W        W97265  17.014  22.547   2.616
24951W        W97266  20.252  28.236  11.248
24952W        W97267   9.692  12.302   2.739
24953W        W97268  35.322  38.298   0.464
24954W        W97269  43.390  12.197   3.781
24955W        W97270  15.849  18.719   3.202
24956W        W97271   1.408  18.976  12.384
24957W        W97272  34.749  27.207  11.570
24958W        W97273  33.590  43.838   1.313
24959W        W97274  38.614  37.232   1.955
24960W        W97275  17.703  36.615   1.300
24961W        W97276  27.125  25.070  12.898
24962W        W97277  12.183  41.805  13.512
24963W        W97278   0.381  34.879  10.001
24964W        W97279  43.528  43.639  11.128
24965W        W97280   7.872  27.628  14.945
24966W        W97281  26.504  11.588   4.226
24967W        W97282  36.314  35.963   0.136
24968W        W97283   6.969  16.874   3.680
24969W        W97284   9.936  18.386   4.157
24970W        W97285  19.663   7.027  12.846
24971W        W97286  30.543  38.248   4.185
24972W        W97287   4.897  26.004  11.900
24973W        W97288   1.731  11.017   3.652
24974W        W97289   0.227  32.540  13.892
24975W        W97290  17.331  21.007  13.765
24976W        W97291  21.645   5.845   4.155
24977W        W97292  27.917  12.270   2.447
24978W        W97293  11.193   7.874   4.328
24979W        W97294  22.147   1.812  11.549
24980W        W97295  13.503  38.563   2.361
24981W        W97296  39.630  43.297   1.695
24982W        W97297  34.126  11.716   1.424
24983W        W97298  33.466   5.162   1.987
24984W        W97299   0.318  25.703   0.684
24985W        W97300  31.519  24.001   2.399
24986W        W97301  20.590   4.906  13.502
24987W        W97302  17.708  33.863   2.200
24988W        W97303  35.323  14.730   0.812
24989W        W97304  21.025  40.913   2.839
24990W        W97305  14.024  28.190  10.473
24991W        W97306  29.001   4.926  11.575
24992W        W97307   4.584  27.508   2.255
24993W        W97308  12.359  44.947  10.696
24994W        W97309  10.065  40.342   0.887
24995W        W97310  27.341  34.114   4.556
24996W        W97311  29.527  20.246   4.351
24997W        W97312  27.644  11.143   0.773
24998W        W97313  24.913  12.373   3.574
24999W        W97314   7.071  13.111  11.210
25000W        W97315  40.045  24.141   4.304
25001W        W97316  40.019  27.156   3.842
25002W        W97317  36.936  10.037   4.578
25003W        W97318  28.414  22.890  13.651
25004W        W97319  23.012   2.970   3.094
25005W        W97320  34.514   1.996  14.047
25006W        W97321  35.888   9.656  11.083
25007W        W97322  19.186  30.679   3.067
25008W        W97323  33.357  18.866   4.108
25009W        W97324   9.175  32.413  12.191
25010W        W97325  19.081  23.810  12.859
25011W        W97326  29.866  41.920   1.212
25012W        W97327  12.600   8.092   3.850
25013W        W97328  43.768   0.861   4.899
25014W        W97329   1.209  31.522  10.650
25015W        W97330   3.713  12.820  14.223
25016W        W97331  23.985   0.292  13.025
25017W        W97332   7.993  36.880   0.192
25018W        W97333   3.345   5.460   4.035
25019W        W97334  24.948   1.216   5.228
25020W        W97335  28.176  18.973   1.936
25021W        W97336   9.153   3.415   3.859
25022W        W97337  25.258  19.239   1.770
25023W        W97338  24.664  13.546   1.868
25024W        W97339   6.433  39.081   2.556
25025W        W97340  40.317  22.072  13.384
25026W        W97341  32.974  39.334   4.406
25027W        W97342  13.323   1.275   4.201
25028W        W97343  44.802  33.692  11.227
25029W        W97344  28.556  20.068  12.753
25030W        W97345  17.730   8.667  10.268
25031W        W97346   0.505  37.099  13.534
25032W        W97347   2.894  26.661   2.734
25033W        W97348   6.480  22.996  10.756
25034W        W97349   3.047  44.169  13.993
25035W        W97350  23.952  25.621  11.910
25036W        W97351  27.569  29.077   4.519
25037W        W97352   5.777  32.489   3.289
25038W        W97353  12.776  32.349   3.737
25039W        W97354  23.806  22.618  14.539
25040W        W97355  17.616  40.339   2.600
25041W        W97356   1.164  12.277  12.584
25042W        W97357  34.527  33.875  11.101
25043W        W97358  15.603  38.420   4.649
25044W        W97359  27.189  33.699   5.357
25045W        W97360  22.101  15.908  12.579
25046W        W97361  33.455  13.509  11.082
25047W        W97362  16.921  23.277  12.374
25048W        W97363   1.784  35.682  10.745
25049W        W97364   0.964  29.497  11.986
25050W        W97365  32.667  26.609  14.190
25051W        W97366   5.931  43.845  10.485
25052W        W97367  18.413   9.455   1.374
25053W        W97368  43.147  31.515   3.190
25054W        W97369  37.959  31.546   3.075
25055W        W97370   9.342  15.365   2.395
25056W        W97371  32.612  33.146  13.902
25057W        W97372  42.830  17.123   0.369
25058W        W97373   9.252   0.772  13.210
25059W        W97374  18.252  37.463  13.990
25060W        W97375  16.337  44.285   3.156
25061W        W97376  44.454  20.463   0.753
25062W        W97377   4.243  27.487   2.648
25063W        W97378  40.295  17.561  12.953
25064W        W97379  18.054  30.070   3.265
25065W        W97380  23.580  12.203   4.467
25066W        W97381   6.515  29.843   3.366
25067W        W97382   3.315  18.783   3.318
25068W        W97383  24.214  27.354   2.325
25069W        W97384  36.429  40.408   3.296
25070W        W97385  41.092  33.126   2.746
25071W        W97386   0.844   3.499  10.751
25072W        W97387  24.510  32.083  13.929
25073W        W97388  31.959   8.869   4.603
25074W        W97389  43.288   5.842  13.921
25075W        W97390   2.870  10.427   4.158
25076W        W97391   5.635  40.477   1.885
25077W        W97392  28.159  13.341  11.172
25078W        W97393   7.892  18.538  12.577
25079W        W97394   8.168  37.452   0.923
25080W        W97395  28.698  20.647  11.534
25081W        W97396  22.737   8.653  11.628
25082W        W97397  20.796  32.106   4.039
25083W        W97398  15.123  40.793   4.089
25084W        W97399  41.868  19.017  11.999
25085W        W97400  33.390  16.220   3.112
25086W        W97401  43.785  13.473   0.924
25087W        W97402   6.353  42.979  12.517
25088W        W97403  19.253  30.707   2.068
25089W        W97404   5.721  14.270  13.565
25090W        W97405  43.142  19.146   3.319
25091W        W97406  36.790   4.276  14.986
25092W        W97407  13.035  43.788  10.840
25093W        W97408  12.715  33.094  10.606
25094W        W97409  15.832   8.481   4.312
25095W        W97410  44.502  38.411  12.227
25096W        W97411   9.176  25.732  13.117
25097W        W97412  14.362   1.724   2.671
25098W        W97413   6.595  40.935  13.778
25099W        W97414  27.609  23.955  11.623
25100W        W97415  41.475   0.261   0.907
25101W        W97416  40.107  37.432   4.481
25102W        W97417   5.863  40.172   0.377
25103W        W97418   9.796  36.607   3.613
25104W        W97419  12.739  41.084  13.902
25105W        W97420  25.638  43.931   3.835
25106W        W97421  40.864  38.767  10.891
25107W        W97422  31.739  19.513  11.967
25108W        W97423  27.141  18.211   3.794
25109W        W97424  16.365  40.343  14.409
25110W        W97425  37.093  12.795   4.534
25111W        W97426  29.915  29.657   4.590
25112W        W97427   1.298   0.997  12.037
25113W        W97428  43.120  24.194  13.396
25114W        W97429  44.567  42.268  11.141
25115W        W97430  25.606  37.613  12.098
25116W        W97431  27.562  31.632  12.183
25117W        W97432  25.129  24.755  11.965
25118W        W97433   5.038   6.019  12.586
25119W        W97434  42.625  12.890  13.137
25120W        W97435  40.515  31.666  13.335
25121W        W97436   1.056   7.106   1.306
25122W        W97437  38.529   5.396   1.301
25123W        W97438  40.114   8.605   3.633
25124W        W97439  13.673  21.734  11.524
25125W        W97440  29.173  42.371   2.438
25126W        W97441  33.442   7.337   0.583
25127W        W97442  36.456  26.704  13.137
25128W        W97443  19.770  25.032  12.993
25129W        W97444  34.595  37.869   4.672
25130W        W97445  18.156  32.585   2.885
25131W        W97446  21.967  22.597  14.446
25132W        W97447  16.455  12.278  11.208
25133W        W97448   4.278   3.340  11.935
25134W        W97449  27.524  17.712  13.326
25135W        W97450  24.940  18.687  12.963
25136W        W97451  21.778  33.535  12.900
25137W        W97452   4.839  23.227   4.679
25138W        W97453  22.709  32.558  12.018
25139W        W97454  10.695  12.067   1.331
25140W        W97455  37.348  25.201  12.905
25141W        W97456  42.766  12.638  12.041
25142W        W97457  33.140  13.258  12.930
25143W        W97458  35.769  39.800   3.114
25144W        W97459  30.534  29.988  10.692
25145W        W97460  33.972  21.790   0.462
25146W        W97461  18.785  39.322  14.486
25147W        W97462  11.085  42.921  10.421
25148W        W97463   8.455  41.549  11.920
25149W        W97464   6.324   7.388  12.585
25150W        W97465   8.572   9.470  13.346
25151W        W97466   0.018  37.020   0.470
25152W        W97467  20.495  23.626   3.212
25153W        W97468  32.591   2.438  14.806
25154W        W97469  11.511  40.829  12.744
25155W        W97470  19.440   6.695  14.525
25156W        W97471  32.982  32.093  13.461
25157W        W97472  18.231  42.311   4.683
25158W        W97473  28.640  30.739   0.503
25159W        W97474  17.317  10.173   1.448
25160W        W97475  41.644  29.922   1.161
25161W        W97476  40.330  35.160   4.910
25162W        W97477  39.569   4.113  12.424
25163W        W97478  44.253  14.262   3.242
25164W        W97479  13.856  15.171   3.312
25165W        W97480  20.821   2.324   1.659
25166W        W97481   9.933  41.536   1.748
25167W        W97482  27.608  31.791   9.873
25168W        W97483  35.988   8.280  10.687
25169W        W97484  11.141  17.043  10.488
25170W        W97485  14.954   7.111  12.298
25171W        W97486  29.355  18.578  13.437
25172W        W97487  44.756  39.005  14.245
25173W        W97488  37.940  20.691   4.332
25174W        W97489  28.557  23.911   4.600
25175W        W97490  31.824  27.491  11.689
25176W        W97491  20.769  40.915  11.451
25177W        W97492  13.432  31.537   4.992
25178W        W97493  35.106  23.292  14.923
25179W        W97494  10.679   6.862  11.278
25180W        W97495   4.725   7.616   2.271
25181W        W97496  29.095  14.831   4.139
25182W        W97497  43.851  42.401   1.437
25183W        W97498   1.051  42.815   4.149
25184W        W97499  11.520   5.398   0.018
25185W        W97500  14.328   4.753  12.389
25186W        W97501  43.494  16.061  12.528
25187W        W97502  40.714  10.900  10.974
25188W        W97503  25.504   4.299  11.264
25189W        W97504  13.613  41.781   1.911
25190W        W97505  12.372   5.442   3.203
25191W        W97506   4.438  14.167   4.080
25192W        W97507  10.781  32.643   3.794
25193W        W97508  28.760   3.462   0.487
25194W        W97509  27.069   4.621  13.358
25195W        W97510  30.037  39.813   3.266
25196W        W97511  26.524  34.625   0.635
25197W        W97512   6.692   7.404  10.866
25198W        W97513  26.563  44.365  11.756
25199W        W97514  10.198   3.814   3.793
25200W        W97515  33.424  17.102   1.387
25201W        W97516  36.052   3.046   4.172
25202W        W97517   0.563  29.662  12.915
25203W        W97518   5.146  19.958   3.833
25204W        W97519  41.091  19.028  13.757
25205W        W97520  17.551  41.348  14.007
25206W        W97521  39.476  36.909   1.783
25207W        W97522  28.926  32.999   1.755
25208W        W97523  27.958  34.552  13.201
25209W        W97524  15.276  38.836   4.645
25210W        W97525  29.321  14.529   2.724
25211W        W97526   0.986  44.365   3.173
25212W        W97527  32.061  28.505  10.440
25213W        W97528  29.524  14.720  12.892
25214W        W97529   9.709  36.159   4.600
25215W        W97530  18.099  38.047  12.945
25216W        W97531  32.379  28.894  10.676
25217W        W97532   1.842  11.185   0.256
25218W        W97533  24.139   4.466   3.109
25219W        W97534   4.788  31.677   1.707
25220W        W97535  15.850  18.840   2.297
25221W        W97536  19.660  19.805   4.738
25222W        W97537  22.663  44.822  11.172
25223W        W97538  17.365  28.018   3.172
25224W        W97539   1.012  31.743   3.793
25225W        W97540  22.700  32.037  12.072
25226W        W97541  35.336  30.014  11.375
25227W        W97542  29.408  14.120   0.763
25228W        W97543  27.126  31.040  12.574
25229W        W97544  20.051  12.574  10.289
25230W        W97545  15.737  10.491   3.586
25231W        W97546  28.071  21.332   4.049
25232W        W97547  31.007  14.769   1.714
25233W        W97548   4.384  13.919   3.272
25234W        W97549  24.625   5.967  13.954
25235W        W97550  13.089  39.997  11.514
25236W        W97551  20.204   5.730   4.403
25237W        W97552  10.877  22.490  12.267
25238W        W97553  14.476  17.158   4.907
25239W        W97554  15.634  36.587   4.144
25240W        W97555   0.468  35.863  13.718
25241W        W97556  16.771  35.150   4.269
25242W        W97557  30.494   9.904  12.711
25243W        W97558  38.437   2.057   3.745
25244W        W97559   2.158   9.391   2.368
25245W        W97560  11.397  27.143  14.622
25246W        W97561  40.934   6.274   3.356
25247W        W97562   9.062  33.974   0.712
25248W        W97563  14.250  16.151  14.962
25249W        W97564  32.502   9.590   2.900
25250W        W97565  29.698  13.070   2.713
25251W        W97566   2.285  28.108  10.714
25252W        W97567  41.535   5.051  14.410
25253W        W97568  28.961  29.567  12.397
25254W        W97569  11.757  26.671   4.174
25255W        W97570   3.847  36.570   2.791
25256W        W97571   6.186  38.776   3.103
25257W        W97572  22.202   0.379  11.593
25258W        W97573  42.745  18.213   1.442
25259W        W97574  34.116   7.668   4.073
25260W        W97575  19.785  27.486   3.170
25261W        W97576   6.862  22.852   3.252
25262W        W97577   8.030  26.310   2.576
25263W        W97578  39.272  23.695   2.785
25264W        W97579   0.437  43.441   2.480
25265W        W97580  35.661  37.161   3.391
25266W        W97581  10.935  38.941  12.604
25267W        W97582  31.364   0.133   3.739
25268W        W97583  21.043  10.681  12.983
25269W        W97584   1.157  28.581  13.733
25270W        W97585   1.163  28.512  11.207
25271W        W97586  23.944  27.761  11.578
25272W        W97587  26.902  16.222   4.328
25273W        W97588  27.658   6.228   4.212
25274W        W97589  17.219  16.092   0.265
25275W        W97590   4.257  41.602  14.889
25276W        W97591  22.935  34.679  10.815
25277W        W97592  31.684  22.211   1.810
25278W        W97593  32.887  17.537   0.023
25279W        W97594  29.288  10.048   1.302
25280W        W97595  22.202   4.853   0.804
25281W        W97596  26.501  27.056  12.019
25282W        W97597  15.819  40.855  11.171
25283W        W97598  39.139  11.889  13.046
25284W        W97599  27.743   8.945   3.219
25285W        W97600  29.771  13.902  14.460
25286W        W97601  13.617  11.263  11.555
25287W        W97602  21.470  23.119   0.742
25288W        W97603   2.864  43.394   1.671
25289W        W97604  15.061  36.833  13.935
25290W        W97605  20.537  36.606   2.950
25291W        W97606   0.883   5.274   4.527
25292W        W97607  19.696  18.200  14.447
25293W        W97608   6.702  24.518  14.817
25294W        W97609   5.710   9.607   2.017
25295W        W97610  42.424   4.856  11.921
25296W        W97611  33.380   1.025  10.722
25297W        W97612  14.407   0.796  13.532
25298W        W97613   8.702  28.136   2.022
25299W        W97614  40.768  21.526  12.545
25300W        W97615  18.890  13.515   4.064
25301W        W97616  33.188  35.901   0.807
25302W        W97617   3.828  37.911   2.247
25303W        W97618   6.179  44.443  12.135
25304W        W97619  40.227  29.526  13.454
25305W        W97620  43.575  28.148  10.271
25306W        W97621  16.294  26.049   3.185
25307W        W97622  31.076  16.236   4.449
25308W        W97623   2.840  22.604  12.021
25309W        W97624  34.490  23.608  10.519
25310W        W97625   1.826  15.468  11.895
25311W        W97626   7.873   7.894  10.607
25312W        W97627  30.963  26.908   4.431
25313W        W97628  11.148   8.335   4.042
25314W        W97629  36.107  38.467  12.071
25315W        W97630  37.653  16.530   1.861
25316W        W97631  11.870   6.814  13.213
25317W        W97632   6.786  42.667  11.437
25318W        W97633  11.227  37.807   4.601
25319W        W97634  15.253  33.003  12.022
25320W        W97635  16.169  14.460  14.139
25321W        W97636  27.526   4.292   2.342
25322W        W97637  38.559  12.837  14.334
25323W        W97638  44.458   9.720  10.266
25324W        W97639  40.037  34.933   2.628
25325W        W97640  39.064   2.757   0.064
25326W        W97641   6.252   2.438  14.818
25327W        W97642  34.861  21.063   1.764
25328W        W97643   1.898  33.277  11.203
25329W        W97644  29.653  44.434   1.351
25330W        W97645  27.277  33.602  10.176
25331W        W97646  33.200  14.605   2.268
25332W        W97647  18.741  24.934  11.264
25333W        W97648  25.544  27.726   3.760
25334W        W97649  10.361  32.267  12.891
25335W        W97650   0.265  34.495  11.657
25336W        W97651  32.158  16.379  11.650
25337W        W97652  18.341  12.333   3.268
25338W        W97653  35.597  27.425  11.534
25339W        W97654   3.330  40.999   4.417
25340W        W97655  31.392  23.719   2.797
25341W        W97656  44.245  18.116   3.164
25342W        W97657  28.927   9.209  12.600
25343W        W97658  24.513   2.355  14.888
25344W        W97659   2.757   5.089  14.472
25345W        W97660  19.635  37.575   2.275
25346W        W97661  33.489  19.682  11.615
25347W        W97662  25.511  38.398   4.691
25348W        W97663  43.521  28.563   0.802
25349W        W97664  42.837  43.926  14.378
25350W        W97665  18.779  30.866   2.166
25351W        W97666  38.064  38.643   0.479
25352W        W97667  24.125  13.873   4.367
25353W        W97668  13.952  38.839  12.623
25354W        W97669   1.890  25.652   4.577
25355W        W97670  31.346  15.949  11.408
25356W        W97671   4.979  31.370  13.248
25357W        W97672  29.108  42.666   0.150
25358W        W97673  34.966  41.731   0.218
25359W        W97674  11.722  19.004   4.238
25360W        W97675  21.145   3.890  11.433
25361W        W97676   1.281  27.733  10.664
25362W        W97677  11.866   3.948   1.734
25363W        W97678  15.124  21.530   3.672
25364W        W97679  36.957  14.657  12.581
25365W        W97680  29.626   9.735  12.834
25366W        W97681  20.510   8.947  13.235
25367W        W97682  36.143  28.320   4.979
25368W        W97683  22.864  42.074  12.635
25369W        W97684  45.000  24.498  14.845
25370W        W97685   3.936  25.507   0.340
25371W        W97686   4.759   0.167  10.992
25372W        W97687  12.184  26.705   0.336
25373W        W97688  30.087  41.448   2.353
25374W        W97689  18.308  12.703   0.025
25375W        W97690  33.498   3.787   1.404
25376W        W97691  18.192  11.382   3.984
25377W        W97692   5.496  10.295   1.493
25378W        W97693  44.922  19.006  11.007
25379W        W97694  35.250   0.322   1.815
25380W        W97695  20.791   1.012  13.517
25381W        W97696  37.381  15.699  11.506
25382W        W97697  15.553  19.494  12.514
25383W        W97698  33.592  35.185   5.077
25384W        W97699  21.927  38.091   2.403
25385W        W97700  36.997  11.821   2.689
25386W        W97701  34.408  44.364  12.326
25387W        W97702   0.456  12.577   1.310
25388W        W97703  38.625  20.290  13.133
25389W        W97704  43.797   4.506  12.617
25390W        W97705  27.505  38.057   2.216
25391W        W97706  15.590  31.558  12.610
25392W        W97707  24.074  30.395   3.261
25393W        W97708  29.441  25.915   0.869
25394W        W97709   2.471  40.817   1.991
25395W        W97710   2.900  37.357  14.015
25396W        W97711  26.142   4.916   4.389
25397W        W97712   7.331  19.162  11.737
25398W        W97713  23.355  23.691  12.777
25399W        W97714   6.194   7.611  11.000
25400W        W97715  33.679  13.022  11.046
25401W        W97716   9.846   3.752  11.838
25402W        W97717  21.732  31.029  11.611
25403W        W97718  34.009  17.726  13.300
25404W        W97719  25.728   6.668  14.066
25405W        W97720  35.869   6.902   4.385
25406W        W97721  12.704  30.435  11.852
25407W        W97722  35.257  33.584   2.336
25408W        W97723  27.779   8.339   2.845
25409W        W97724  38.043  30.510   2.661
25410W        W97725  30.980  41.956  11.396
25411W        W97726  15.545  16.719   3.445
25412W        W97727   5.330  16.129  11.576
25413W        W97728  19.024  40.714  12.435
25414W        W97729  22.311  35.485   3.457
25415W        W97730  27.793  18.550  10.265
25416W        W97731  13.904  12.601   1.493
25417W        W97732  11.916  35.134  12.906
25418W        W97733  10.125  32.463  12.069
25419W        W97734   7.928   3.864   2.645
25420W        W97735  40.483  42.553  13.792
25421W        W97736  12.336  20.668  12.008
25422W        W97737   9.350  15.319  14.821
25423W        W97738   6.962   6.891   1.796
25424W        W97739  19.758  26.678   1.143
25425W        W97740  42.448  17.546   3.493
25426W        W97741  40.542   7.392  10.760
25427W        W97742  40.975  19.184   4.004
25428W        W97743  25.192  42.819   3.505
25429W        W97744  10.235  22.138  12.027
25430W        W97745  25.188  17.668  14.025
25431W        W97746  39.325  15.569  12.880
25432W        W97747  21.891   7.163  12.496
25433W        W97748  18.759  16.804  13.074
25434W        W97749  11.231  42.711  12.448
25435W        W97750  11.717  14.160  14.854
25436W        W97751   5.812   0.352   1.394
25437W        W97752  25.630  35.078   1.729
25438W        W97753  28.460  33.765   1.167
25439W        W97754   2.429  31.464  11.832
25440W        W97755  40.836   5.711  14.055
25441W        W97756  43.341  20.332   2.211
25442W        W97757   1.921  31.283  13.889
25443W        W97758   8.095  34.101  12.660
25444W        W97759   4.988  36.411   0.787
25445W        W97760   6.579   8.651   4.065
25446W        W97761  15.668  20.195   5.164
25447W        W97762  40.077  28.466  14.425
25448W        W97763   5.339   8.378  13.844
25449W        W97764  19.153  37.003  13.547
25450W        W97765  21.994  19.579  11.632
25451W        W97766  15.746   2.269   0.654
25452W        W97767   8.461  26.701   4.581
25453W        W97768  10.632  15.238  11.492
25454W        W97769  13.038   3.661   3.172
25455W        W97770  11.286  37.353   0.485
25456W        W97771  25.964  37.550   0.905
25457W        W97772   0.706  40.077   1.308
25458W        W97773  16.535  23.148   1.933
25459W        W97774   8.176   9.164  13.412
25460W        W97775  29.849  14.707   2.788
25461W        W97776  39.011  34.935  12.262
25462W        W97777  12.393  32.832   4.209
25463W        W97778  11.830  39.422   4.356
25464W        W97779  38.122  25.065  14.846
25465W        W97780  33.427  18.615  10.636
25466W        W97781   1.350  15.328  12.070
25467W        W97782  31.911  20.437   1.285
25468W        W97783  37.657   2.302   3.411
25469W        W97784  42.313   9.635   3.727
25470W        W97785  41.820   9.620  13.120
25471W        W97786   1.960  36.581  12.940
25472W        W97787  28.607  35.450   2.743
25473W        W97788   5.785  43.755  13.824
25474W        W97789   1.947  18.320   0.854
25475W        W97790  20.254  10.916  11.466
25476W        W97791   2.490  40.972  10.208
25477W        W97792  20.172   3.376  11.636
25478W        W97793  24.758  38.390   1.257
25479W        W97794   6.653  43.357   0.907
25480W        W97795  12.114  27.722  11.835
25481W        W97796  34.545  17.642   3.165
25482W        W97797  25.689   1.792  10.470
25483W        W97798   7.086  21.063  14.734
25484W        W97799  22.466  17.781  11.139
25485W        W97800  35.568  21.208  12.178
25486W        W97801  39.263  35.831   1.378
25487W        W97802  42.634   7.143   1.784
25488W        W97803   6.989  22.968   4.276
25489W        W97804  31.110  37.871  13.446
25490W        W97805  43.182  15.835   3.349
25491W        W97806  19.778  19.695  11.568
25492W        W97807   2.421  11.533   0.423
25493W        W97808  26.600  32.227  11.202
25494W        W97809  28.103  27.213  12.027
25495W        W97810   7.291  29.370  11.886
25496W        W97811  38.220  21.738   2.250
25497W        W97812  25.630  11.558   4.118
25498W        W97813  11.847  14.305   3.605
25499W        W97814  25.080  11.082  14.363
25500W        W97815  25.439  35.625  11.122
25501W        W97816  31.908  22.813  11.559
25502W        W97817  10.193  29.609  10.762
25503W        W97818   8.256  12.114   0.256
25504W        W97819  27.137  26.619   0.788
25505W        W97820  28.849  23.045   3.629
25506W        W97821  39.497   0.628  10.645
25507W        W97822  27.752   9.100  14.236
25508W        W97823  23.417   5.250   4.206
25509W        W97824  17.679  32.959   1.638
25510W        W97825  17.589  40.493   3.546
25511W        W97826   3.258  12.228   1.884
25512W        W97827   7.920   4.372  13.004
25513W        W97828  11.545  23.627  11.073
25514W        W97829  18.838  15.889  13.018
25515W        W97830  39.734  26.384  11.809
25516W        W97831  10.329  11.332  13.473
25517W        W97832  31.214  38.286   2.311
25518W        W97833   2.035  39.340   4.219
25519W        W97834  23.879  26.453  14.791
25520W        W97835  29.671  27.474   2.211
25521W        W97836   8.841  33.461   4.511
25522W        W97837  37.327   2.286  11.566
25523W        W97838  32.040  20.040   1.892
25524W        W97839   0.417  33.490  12.344
25525W        W97840  20.482  21.936  10.472
25526W        W97841  39.759  23.540   1.102
25527W        W97842  29.003  34.526  14.638
25528W        W97843  24.916  22.167   0.289
25529W        W97844  40.800  15.379   3.283
25530W        W97845  34.313  26.527   2.283
25531W        W97846   4.176  16.141  14.784
25532W        W97847  37.431   3.137   3.293
25533W        W97848  39.449  27.750  13.872
25534W        W97849   0.310   5.931  10.464
25535W        W97850  36.371   6.421   3.328
25536W        W97851  34.023   1.753  13.250
25537W        W97852   2.184   3.250  10.694
25538W        W97853  16.267   5.159  14.147
25539W        W97854  27.192   2.382   3.160
25540W        W97855  25.176  44.404  10.579
25541W        W97856  29.138  20.284   1.786
25542W        W97857  23.232  27.727  11.123
25543W        W97858  27.586  22.510   2.653
25544W        W97859   2.943  20.594  10.759
25545W        W97860   7.335  12.004   1.033
25546W        W97861  33.973  20.020  13.352
25547W        W97862  19.125  30.513  13.929
25548W        W97863  39.278   9.645   4.065
25549W        W97864  12.644   1.595   4.183
25550W        W97865  19.221  12.876  13.743
25551W        W97866  13.065  24.360   5.090
25552W        W97867  32.984  40.284  14.066
25553W        W97868  40.291  37.838   1.645
25554W        W97869  27.625   4.311   3.375
25555W        W97870   9.737  16.110  14.466
25556W        W97871   2.798  14.366   2.150
25557W        W97872  27.957   6.237   9.804
25558W        W97873  20.165  14.635  13.928
25559W        W97874  13.268  22.109  11.516
25560W        W97875  43.555   4.910   2.365
25561W        W97876   8.220  13.310   2.888
25562W        W97877   8.938  28.160   3.326
25563W        W97878  41.560  20.510  14.941
25564W        W97879   6.724  36.193   1.418
25565W        W97880  30.443   5.708  10.501
25566W        W97881  35.652  38.162  14.249
25567W        W97882   7.101  27.129   3.388
25568W        W97883   3.375   5.283   0.243
25569W        W97884   2.481  36.022   3.107
25570W        W97885  15.633  32.368  13.036
25571W        W97886   0.790  14.643  13.890
25572W        W97887  37.195  37.331   2.575
25573W        W97888  33.429   5.353  11.129
25574W        W97889  43.419   4.001  14.724
25575W        W97890  23.002  14.549   2.418
25576W        W97891   5.957  15.905   1.207
25577W        W97892   6.921  33.600  13.938
25578W        W97893  21.953   9.268  12.985
25579W        W97894   4.681   0.290   2.199
25580W        W97895  19.797  41.436  10.552
25581W        W97896  35.679  44.761  13.909
25582W        W97897  16.193  24.572   1.380
25583W        W97898  19.769  33.920  13.383
25584W        W97899  14.058  30.904  13.992
25585W        W97900  36.374  27.926  11.449
25586W        W97901  41.376  33.621   4.531
25587W        W97902   1.567   6.988   2.652
25588W        W97903   4.821  18.022  11.543
25589W        W97904  28.057  22.914   4.054
25590W        W97905   0.252  42.113  11.910
25591W        W97906  10.579  36.397   3.335
25592W        W97907   6.390   9.082   4.245
25593W        W97908   6.012  29.198   1.205
25594W        W97909  23.650  26.530   0.239
25595W        W97910  13.313  25.891   3.741
25596W        W97911  22.332  21.146  11.959
25597W        W97912  41.896  13.216   0.913
25598W        W97913  42.864  44.545  10.318
25599W        W97914  14.310  18.771   2.379
25600W        W97915  20.163  32.413   2.758
25601W        W97916   6.387  43.915   4.742
25602W        W97917  24.980  27.772  10.660
25603W        W97918  10.198   8.113   0.776
25604W        W97919  33.363  32.420  12.030
25605W        W97920  37.511   2.361  12.459
25606W        W97921   3.418   3.794   4.254
25607W        W97922  13.655  16.077  14.392
25608W        W97923  33.562   8.687  13.038
25609W        W97924   3.494   3.263  14.039
25610W        W97925  17.182   2.413   3.744
25611W        W97926  21.906   8.624  13.669
25612W        W97927   2.899  19.939   1.364
25613W        W97928  17.643  39.087  13.413
25614W        W97929  26.090  26.100  13.210
25615W        W97930  38.846  18.277   1.799
25616W        W97931   8.685   8.759   0.319
25617W        W97932  14.199  39.602  13.507
25618W        W97933  34.546  19.203   2.289
25619W        W97934   0.897   5.669  13.942
25620W        W97935  31.538   6.232  10.764
25621W        W97936  17.257  38.370   1.209
25622W        W97937  22.211  34.142   4.644
25623W        W97938  42.112   9.485  12.714
25624W        W97939  39.228  14.831   3.218
25625W        W97940  42.219  26.912  13.504
25626W        W97941   9.328  23.110   1.653
25627W        W97942  33.865  44.962  12.923
25628W        W97943  28.358  39.194  10.129
25629W        W97944  32.053   2.014   0.746
25630W        W97945  32.079   6.439  12.117
25631W        W97946  23.979  10.003  14.479
25632W        W97947  42.329  39.378   0.812
25633W        W97948  35.956  16.534  12.135
25634W        W97949   7.294  26.575   3.749
25635W        W97950  18.204   3.050  12.021
25636W        W97951  35.307   5.369   4.373
25637W        W97952  18.710  32.053   1.424
25638W        W97953   9.163  42.588   3.616
25639W        W97954   2.808  38.494   0.367
25640W        W97955  30.317   9.522  13.595
25641W        W97956  25.240  41.219   2.865
25642W        W97957  21.604  38.822   1.253
25643W        W97958  30.423  19.665   2.423
25644W        W97959   4.733  19.516  13.381
25645W        W97960  32.430  27.891  13.004
25646W        W97961  14.064  10.415  12.204
25647W        W97962  37.955  44.528  14.008
25648W        W97963  28.691   4.419   3.345
25649W        W97964  21.173  36.913   1.918
25650W        W97965  15.410  34.054   4.405
25651W        W97966  31.388  12.565  14.945
25652W        W97967  16.528  27.524   0.640
25653W        W97968   4.200   4.572  12.034
25654W        W97969  39.462   1.999  11.907
25655W        W97970   3.405  23.638   4.582
25656W        W97971   3.782  37.381  13.491
25657W        W97972   4.392  43.712   1.409
25658W        W97973   1.502  34.501   0.312
25659W        W97974  24.941   2.693   2.132
25660W        W97975  39.451  25.127   0.743
25661W        W97976  15.327  31.671   2.333
25662W        W97977  31.938  32.386   2.219
25663W        W97978   4.617  30.593   4.695
25664W        W97979  35.076  22.665   4.503
25665W        W97980  11.709  37.469  13.768
25666W        W97981  34.560  14.147   1.311
25667W        W97982  20.294  26.251   4.315
25668W        W97983  33.391  39.977  13.945
25669W        W97984  19.784  13.794  10.728
25670W        W97985  35.046  39.901   0.679
25671W        W97986  30.696   2.016  12.560
25672W        W97987  24.002   7.094   0.487
25673W        W97988  16.158  41.145   1.431
25674W        W97989   2.877  21.713   3.229
25675W        W97990  30.875  13.268   3.458
25676W        W97991  27.520   2.124   1.680
25677W        W97992  40.409  14.821   1.738
25678W        W97993  30.219  24.055  13.524
25679W        W97994   0.686  44.663   1.544
25680W        W97995  20.560  40.251   1.288
25681W        W97996  30.516  24.476  10.547
25682W        W97997  33.132   2.369   3.257
25683W        W97998  38.889  12.688   1.289
25684W        W97999  37.387  16.749  10.650
25685W        W98000  38.939  27.766   1.792
25686W        W98001   0.925  35.141  14.151
25687W        W98002  44.223  10.923  11.299
25688W        W98003  19.732  16.719  13.754
25689W        W98004  12.754  16.492   1.625
25690W        W98005  15.044  44.491  14.027
25691W        W98006  19.568  30.995  12.141
25692W        W98007  11.831  40.053   3.091
25693W        W98008  27.625   4.217   1.831
25694W        W98009  39.354  24.680  14.575
25695W        W98010  18.641  16.272  10.758
25696W        W98011  36.359   1.538  11.188
25697W        W98012  20.480  17.944   4.591
25698W        W98013  31.393  19.177   2.458
25699W        W98014  10.377   9.264   4.648
25700W        W98015  42.225  15.491  12.946
25701W        W98016  32.957  20.003  11.702
25702W        W98017  18.824  31.950  11.152
25703W        W98018  24.664  44.072   3.770
25704W        W98019  15.209   7.352   3.134
25705W        W98020  29.170   8.321   3.899
25706W        W98021  31.044  30.493  13.631
25707W        W98022  21.692  25.961   3.364
25708W        W98023  19.561  14.164   3.738
25709W        W98024  20.104   2.651   0.484
25710W        W98025  22.147  37.940   0.291
25711W        W98026  11.775  16.113  14.493
25712W        W98027  20.082  42.334  14.952
25713W        W98028   1.059  17.006   3.375
25714W        W98029  39.879  31.467  13.718
25715W        W98030  14.108   8.106  12.660
25716W        W98031  18.363   4.860   4.095
25717W        W98032  42.089  25.149  13.050
25718W        W98033  37.972  41.801  13.484
25719W        W98034  25.106  28.594   1.777
25720W        W98035   9.851  34.091   3.982
25721W        W98036  12.278  20.583   3.610
25722W        W98037  29.895  28.971  11.509
25723W        W98038  28.851  39.386   3.792
25724W        W98039   0.268  34.097  14.269
25725W        W98040  15.239   3.461   0.846
25726W        W98041  15.647   5.258  13.529
25727W        W98042  35.330  10.912  11.250
25728W        W98043  37.492  44.299   3.370
25729W        W98044  41.929  22.713   1.370
25730W        W98045  20.029   5.283   4.626
25731W        W98046  11.291   7.400   0.670
25732W        W98047   9.364  27.001   2.717
25733W        W98048  29.527  13.025   4.046
25734W        W98049   9.562  14.641  11.181
25735W        W98050  31.931  10.161  14.908
25736W        W98051  13.743  35.828  10.495
25737W        W98052   2.987   3.762   3.769
25738W        W98053  15.692  12.611  11.563
25739W        W98054   1.488  26.688   2.234
25740W        W98055  30.503  11.129  11.846
25741W        W98056  27.853  43.034  12.468
25742W        W98057  44.079  17.627   3.377
25743W        W98058   9.540  21.205  11.682
25744W        W98059  23.695  20.173   4.289
25745W        W98060  11.828  20.835  10.482
25746W        W98061  32.936  28.083  14.821
25747W        W98062  28.620  24.135  14.938
25748W        W98063  37.322  14.415  11.301
25749W        W98064  28.083  13.425   2.360
25750W        W98065   6.290  44.807  14.371
25751W        W98066   1.160   8.273   4.584
25752W        W98067  39.455  21.981   1.925
25753W        W98068  30.049   3.403  14.019
25754W        W98069  39.518   8.859   0.314
25755W        W98070  35.013  27.670  12.686
25756W        W98071  34.970   3.240  12.914
25757W        W98072  27.715  29.917  14.962
25758W        W98073   7.806  12.599   3.595
25759W        W98074  32.483  14.331   2.432
25760W        W98075  37.293  21.175  12.187
25761W        W98076  10.249   9.591   4.227
25762W        W98077  19.422  12.816  11.535
25763W        W98078  17.383   3.490   2.802
25764W        W98079  24.932  32.829  11.007
25765W        W98080  22.977  17.633  11.147
25766W        W98081  39.310   7.815   2.964
25767W        W98082  40.460  21.483  11.213
25768W        W98083  44.532   5.161   3.170
25769W        W98084  36.511   3.325   4.245
25770W        W98085  15.243  14.713   3.754
25771W        W98086  35.089  16.286   0.549
25772W        W98087  15.734  25.762  14.948
25773W        W98088   6.436  11.887  10.916
25774W        W98089  11.413  30.194  14.053
25775W        W98090  36.400  23.229   3.913
25776W        W98091  10.551  22.638   2.311
25777W        W98092  30.189  10.306  11.198
25778W        W98093   2.930  22.093  10.708
25779W        W98094   9.895  11.611   3.158
25780W        W98095  16.269  21.785  11.170
25781W        W98096  42.366  43.759  12.918
25782W        W98097  31.362  29.490  11.576
25783W        W98098  25.246  27.646  13.545
25784W        W98099  22.192   7.969   0.290
25785W        W98100  39.330   3.277   2.810
25786W        W98101   4.225   5.923   4.338
25787W        W98102  41.166  20.696  10.793
25788W        W98103  20.602  30.651  12.783
25789W        W98104  36.513  19.455  11.670
25790W        W98105  15.185  32.154   2.139
25791W        W98106  25.096  13.388  12.458
25792W        W98107  12.435   1.304   1.302
25793W        W98108  43.863  36.377  11.839
25794W        W98109  22.301  37.179  11.971
25795W        W98110  13.700   7.639  13.363
25796W        W98111  29.083  27.228   3.204
25797W        W98112  32.383  15.636  12.033
25798W        W98113  35.437  17.604   1.723
25799W        W98114  16.817  42.306  11.594
25800W        W98115  14.676  40.618   1.928
25801W        W98116  19.706   5.235  11.968
25802W        W98117  24.990   5.335  14.005
25803W        W98118  30.587  28.774   3.039
25804W        W98119  37.704  24.385  10.228
25805W        W98120  14.160  20.031  14.043
25806W        W98121  33.974  35.557  10.801
25807W        W98122  11.199   8.217  13.189
25808W        W98123  14.218  11.108   4.684
25809W        W98124   1.935   7.801   4.524
25810W        W98125   0.663   5.276   1.829
25811W        W98126  40.436  28.494   0.780
25812W        W98127   9.272  12.549   1.767
25813W        W98128  24.356  34.831  10.087
25814W        W98129  33.281  13.619   3.556
25815W        W98130  34.513  26.334   4.593
25816W        W98131  14.309   9.380  13.473
25817W        W98132  21.922  20.058   0.435
25818W        W98133  25.094  36.561   4.674
25819W        W98134  15.458  13.274   4.545
25820W        W98135   8.163  24.700  13.828
25821W        W98136  13.526   6.007   0.931
25822W        W98137   2.842  41.636  13.712
25823W        W98138  10.166  24.111  11.868
25824W        W98139  42.392   9.226  11.341
25825W        W98140  18.606  33.346  11.134
25826W        W98141  27.420  29.560   1.780
25827W        W98142  13.107  40.600   1.813
25828W        W98143  39.834   6.143  14.512
25829W        W98144  31.681  22.064   3.776
25830W        W98145   2.142  38.810   2.772
25831W        W98146  20.159  16.225   2.835
25832W        W98147  14.363  23.179   4.433
25833W        W98148  30.444   4.741   0.730
25834W        W98149  41.289   5.177  13.396
25835W        W98150  14.265  19.630   0.843
25836W        W98151  24.434   8.752   4.394
25837W        W98152  14.343  20.265   3.402
25838W        W98153  38.022  20.379   2.578
25839W        W98154  13.278  16.616  14.019
25840W        W98155  27.681  34.223  13.953
25841W        W98156  37.200  42.003  11.214
25842W        W98157   2.532  11.091   0.894
25843W        W98158  20.174   6.295  12.482
25844W        W98159  23.678  10.187   0.807
25845W        W98160  22.613  30.388  12.990
25846W        W98161  17.648  29.857   2.330
25847W        W98162   8.441  36.900  13.473
25848W        W98163  43.760  20.159   0.197
25849W        W98164  39.048  21.758   1.200
25850W        W98165  12.717  31.573  13.020
25851W        W98166  37.506   6.357  12.587
25852W        W98167  20.911  30.327  13.089
25853W        W98168  22.270  28.757   4.145
25854W        W98169   7.465  15.902   4.940
25855W        W98170  12.562  30.576   0.245
25856W        W98171   7.549   3.883   0.895
25857W        W98172   9.005   9.358   1.262
25858W        W98173  42.517  16.173   1.799
25859W        W98174  17.023  38.605   1.797
25860W        W98175  27.568  38.591  14.103
25861W        W98176  26.628  12.274  13.248
25862W        W98177  40.845   7.365   0.674
25863W        W98178  30.923   7.818  14.499
25864W        W98179  39.873  20.378  10.741
25865W        W98180  43.201   6.549  11.597
25866W        W98181  17.034   3.943   0.887
25867W        W98182  25.057   8.843  14.976
25868W        W98183   1.813   9.438   0.706
25869W        W98184  41.432   4.736   0.932
25870W        W98185  22.232  29.528  12.483
25871W        W98186  37.584  23.494   5.583
25872W        W98187  42.736   9.389  14.402
25873W        W98188  26.532   7.788  13.014
25874W        W98189  18.511  30.883  14.359
25875W        W98190  20.183  44.982   2.557
25876W        W98191   1.519  32.425  11.689
25877W        W98192   6.703   6.707   2.791
25878W        W98193  32.387  31.134   1.210
25879W        W98194  31.320  14.091  10.589
25880W        W98195   0.764  42.249  10.920
25881W        W98196  17.254  43.358   2.604
25882W        W98197  18.597   0.844   1.503
25883W        W98198   7.414   1.380   0.273
25884W        W98199  31.893  13.018   5.108
25885W        W98200  25.510   9.672  14.968
25886W        W98201   8.356  34.409  13.005
25887W        W98202  13.155   8.750  12.023
25888W        W98203  43.865   6.418  14.651
25889W        W98204  26.514  15.519  14.793
25890W        W98205  14.769  10.413   2.299
25891W        W98206  13.367   7.675  11.875
25892W        W98207   5.271  31.982  12.090
25893W        W98208  34.504  23.583   1.006
25894W        W98209   3.328  25.433   0.800
25895W        W98210  12.600  33.485  14.295
25896W        W98211   1.473  44.489  12.684
25897W        W98212  20.218  23.681   1.925
25898W        W98213  21.130   2.276   3.063
25899W        W98214   3.707  19.490   2.202
25900W        W98215  25.561   7.420  12.304
25901W        W98216  32.841  21.951  14.946
25902W        W98217  17.267  27.917  12.974
25903W        W98218  16.268  30.685  14.014
25904W        W98219   1.429   8.409   1.372
25905W        W98220  14.611  44.347   1.255
25906W        W98221  33.376  29.249  12.404
25907W        W98222  42.813  31.168  11.302
25908W        W98223  25.628   7.910  12.111
25909W        W98224  16.244  23.610  13.067
25910W        W98225  17.486  30.039  11.570
25911W        W98226  12.027  43.862   4.832
25912W        W98227  26.936  13.496   1.349
25913W        W98228  27.027   2.808   4.970
25914W        W98229  21.699  33.191   2.324
25915W        W98230  36.114  25.051  12.110
25916W        W98231  23.314  20.897  12.062
25917W        W98232  42.042  15.318  11.622
25918W        W98233   4.193  37.081   4.143
25919W        W98234  12.693  42.692  14.715
25920W        W98235  31.715   0.105  11.402
25921W        W98236   9.216   1.516  13.687
25922W        W98237  24.021  28.028  13.372
25923W        W98238  29.061   7.362   2.999
25924W        W98239  26.006  18.972   1.266
25925W        W98240   6.375   3.079   0.898
25926W        W98241   7.134  41.038   2.802
25927W        W98242  33.139  24.954   4.684
25928W        W98243  28.197   7.058   0.026
25929W        W98244  33.944  25.939   1.797
25930W        W98245  17.129  10.664   0.835
25931W        W98246   3.312  22.831  10.511
25932W        W98247  28.544  27.682  11.603
25933W        W98248  33.055   3.537  13.544
25934W        W98249  37.022  30.954   0.284
25935W        W98250  10.751  26.944  13.311
25936W        W98251  42.758   3.344   0.419
25937W        W98252  24.429  29.482   3.118
25938W        W98253  37.621  21.517  13.478
25939W        W98254  24.746  13.036  12.589
25940W        W98255  33.493  18.012  12.548
25941W        W98256  20.099   7.678  12.039
25942W        W98257   0.801  40.313   0.837
25943W        W98258  21.455  42.629   1.780
25944W        W98259  17.215   4.941  12.342
25945W        W98260  20.585  12.654  14.775
25946W        W98261  44.492   9.644  13.478
25947W        W98262  24.678   1.630  14.404
25948W        W98263  10.929  43.695  14.044
25949W        W98264  37.617  32.703  14.928
25950W        W98265   0.012  26.535  12.048
25951W        W98266  36.526  16.913  12.186
25952W        W98267   2.681  23.539  14.645
25953W        W98268  44.514  26.726   4.706
25954W        W98269   4.267  35.942   3.656
25955W        W98270  37.804  15.887  13.897
25956W        W98271   0.245   1.458   1.458
25957W        W98272  41.045   5.386   3.130
25958W        W98273   9.429   1.947   3.280
25959W        W98274  14.248  19.263  13.643
25960W        W98275  24.228  38.639   3.634
25961W        W98276  25.042  23.653   1.313
25962W        W98277  40.611  14.653   1.288
25963W        W98278  11.223  18.482   0.700
25964W        W98279  11.972  28.798  12.469
25965W        W98280  21.494  38.762  14.216
25966W        W98281  30.069  11.550  14.479
25967W        W98282   1.013  28.947  11.590
25968W        W98283  35.759  42.385  11.673
25969W        W98284  44.423  11.135  13.372
25970W        W98285  34.099  25.500   4.250
25971W        W98286  36.916  36.885  13.284
25972W        W98287   7.284  23.518   4.632
25973W        W98288  14.704  28.069  13.128
25974W        W98289   5.258  35.613   3.713
25975W        W98290  20.881  27.281  12.486
25976W        W98291  39.323  16.212  13.872
25977W        W98292   8.697  10.276  13.882
25978W        W98293  32.314  25.506  12.196
25979W        W98294  21.621  28.649   1.358
25980W        W98295  28.022  39.486   4.671
25981W        W98296  17.193   6.186   3.724
25982W        W98297  10.662  14.416  14.301
25983W        W98298   6.705  28.972  13.437
25984W        W98299  26.962  13.361   4.376
25985W        W98300  36.349  27.863  14.491
25986W        W98301  26.518  11.161  12.532
25987W        W98302   0.969  32.571  12.437
25988W        W98303  30.243   3.763  12.059
25989W        W98304  29.468  41.350  12.081
25990W        W98305  11.170   6.221  10.657
25991W        W98306  42.327  37.619   0.716
25992W        W98307   2.965  29.565   4.403
25993W        W98308  43.895  26.472  12.493
25994W        W98309   4.975  13.266   3.070
25995W        W98310  37.066  38.599   1.347
25996W        W98311  16.709   0.993  12.853
25997W        W98312  19.471  10.601   3.157
25998W        W98313  44.738   5.691  11.627
25999W        W98314  16.822  44.248  12.433
26000W        W98315  31.391  35.511  14.307
26001W        W98316   3.842  11.274   4.147
26002W        W98317  44.349  36.139  12.955
26003W        W98318  21.662   3.008   0.824
26004W        W98319  31.193   7.194   2.260
26005W        W98320   2.431  20.572  12.063
26006W        W98321  13.051   8.790  14.537
26007W        W98322   4.711  37.073  13.896
26008W        W98323  25.573  23.087  10.529
26009W        W98324  17.789  24.705  13.457
26010W        W98325  35.613  35.474  11.056
26011W        W98326  34.962   4.206   0.324
26012W        W98327  29.473  10.955  11.514
26013W        W98328  18.554  19.132  13.938
26014W        W98329  13.605   4.247   0.279
26015W        W98330  39.852  13.091   1.715
26016W        W98331  14.616  10.925  14.962
26017W        W98332  39.096   4.786   0.477
26018W        W98333  14.221  27.072   4.275
26019W        W98334  31.129  42.253   3.155
26020W        W98335  30.789  44.356  12.976
26021W        W98336   4.727  39.328   4.163
26022W        W98337  28.926  44.007   3.787
26023W        W98338   0.064   5.261  13.995
26024W        W98339  23.638   1.354   4.280
26025W        W98340   1.032  20.772   0.539
26026W        W98341  36.930  14.678  12.068
26027W        W98342  13.079  40.495   3.199
26028W        W98343  36.377  36.317  11.590
26029W        W98344  34.586  12.894   0.186
26030W        W98345  25.966  31.648  10.556
26031W        W98346  35.470  10.656   0.368
26032W        W98347  33.960  13.862   2.300
26033W        W98348  28.293  26.246   9.851
26034W        W98349   2.126  25.143   1.326
26035W        W98350  26.883  28.859  14.917
26036W        W98351  40.025  13.408   3.700
26037W        W98352  40.457   4.905   4.075
26038W        W98353  15.666  35.474  12.416
26039W        W98354  31.549  19.294  12.394
26040W        W98355  38.901  14.577  14.860
26041W        W98356  15.830  22.475   4.773
26042W        W98357   8.846  12.280   1.420
26043W        W98358  23.961  17.511   4.612
26044W        W98359  27.265   7.163   2.217
26045W        W98360  25.729  11.761   3.200
26046W        W98361  15.458  14.340   2.232
26047W        W98362  30.973  18.499  13.325
26048W        W98363  35.435  27.843  11.233
26049W        W98364   3.650  28.516   3.269
26050W        W98365  22.184  13.562  13.966
26051W        W98366   6.912  36.033  10.887
26052W        W98367  43.372  37.449   3.158
26053W        W98368  29.332   5.236  12.471
26054W        W98369  24.985   7.658  14.274
26055W        W98370  29.572  35.784   0.024
26056W        W98371   1.014   8.572  11.901
26057W        W98372  33.670  29.600  13.127
26058W        W98373  11.933  13.617  13.965
26059W        W98374  42.364   3.798  13.305
26060W        W98375  25.170  13.297   4.485
26061W        W98376  20.255  16.759  12.018
26062W        W98377  37.688  11.577   2.281
26063W        W98378   0.331  36.136  13.301
26064W        W98379   0.924   8.868  10.648
26065W        W98380  10.744   4.790   2.650
26066W        W98381  11.032  42.547  12.928
26067W        W98382  44.611  27.203  10.788
26068W        W98383  35.916  30.978  12.109
26069W        W98384  24.290  12.093   2.253
26070W        W98385  19.019  20.030   2.243
26071W        W98386  38.812   3.939  12.774
26072W        W98387  10.921  11.095  14.307
26073W        W98388  44.665  31.126  13.146
26074W        W98389  11.389  36.826   0.677
26075W        W98390  32.466  40.650   3.858
26076W        W98391  41.031  10.678   0.351
26077W        W98392   2.387  11.889   2.679
26078W        W98393  44.769   3.433  14.090
26079W        W98394   0.467   7.671  11.112
26080W        W98395   9.835  37.389  10.169
26081W        W98396   9.137   0.378   2.736
26082W        W98397  40.880  15.922  10.846
26083W        W98398  40.403  16.646  14.020
26084W        W98399  28.246  40.292   2.492
26085W        W98400  14.649  36.268  11.993
26086W        W98401  23.006   6.351   2.932
26087W        W98402  40.028  35.413   2.344
26088W        W98403  11.821   0.569  14.795
26089W        W98404  21.565  31.055   2.836
26090W        W98405  21.906  14.254  13.363
26091W        W98406  12.673  20.092  14.912
26092W        W98407   1.969  15.138  13.325
26093W        W98408  11.214  34.418   3.555
26094W        W98409   3.165  34.056   1.263
26095W        W98410   6.205  17.271   4.493
26096W        W98411  22.123  37.889  13.424
26097W        W98412   0.742  11.276  13.674
26098W        W98413  42.877  40.558  13.525
26099W        W98414  34.462  15.735  10.961
26100W        W98415  44.788  40.904   2.266
26101W        W98416  14.346  10.008   4.946
26102W        W98417  19.817  32.093   4.354
26103W        W98418  24.688  18.139   2.385
26104W        W98419  30.500  14.806   0.440
26105W        W98420  14.154   9.321   1.613
26106W        W98421   3.905  25.741   2.923
26107W        W98422   8.158  42.551   4.467
26108W        W98423  26.592   4.270   2.417
26109W        W98424  25.661  31.646   2.623
26110W        W98425  16.209  39.849  14.287
26111W        W98426  28.900  36.713   4.254
26112W        W98427  26.354  21.637  12.083
26113W        W98428  13.037  41.874   1.337
26114W        W98429  17.413  20.707   1.831
26115W        W98430  15.146   9.018  12.222
26116W        W98431   3.963  30.378  11.660
26117W        W98432  25.985   7.544   3.495
26118W        W98433  39.855   0.332  12.788
26119W        W98434  30.260  27.523  10.796
26120W        W98435  40.344   2.841  13.447
26121W        W98436  28.737  29.251  13.637
26122W        W98437  32.327  43.855  12.538
26123W        W98438  32.066  25.187   0.750
26124W        W98439  26.629   4.197  11.165
26125W        W98440  35.615  10.369   0.788
26126W        W98441  43.317  38.454   3.298
26127W        W98442   7.128  21.696   4.983
26128W        W98443   4.166   3.299   1.180
26129W        W98444  41.504  44.993   1.364
26130W        W98445   3.059  11.103   3.443
26131W        W98446  37.842  28.082   3.265
26132W        W98447  15.609  33.041   4.629
26133W        W98448  11.065  12.122  13.695
26134W        W98449  17.041  19.022  13.857
26135W        W98450   8.831  20.649  14.334
26136W        W98451  39.861  38.949   1.378
26137W        W98452  37.185  19.564   3.166
26138W        W98453  36.337   2.029  12.078
26139W        W98454   3.958  31.960  12.485
26140W        W98455  30.437  21.122  11.559
26141W        W98456  25.448  21.123  10.617
26142W        W98457  25.523  29.908   4.330
26143W        W98458  15.680  18.597   1.868
26144W        W98459  43.522  29.492   0.713
26145W        W98460  26.166  30.007   1.219
26146W        W98461   8.237  28.067  12.240
26147W        W98462  14.670  25.035   2.744
26148W        W98463  24.604  21.172  11.157
26149W        W98464  37.923  28.300  14.422
26150W        W98465   9.894  39.401   3.400
26151W        W98466  12.654  25.204  12.647
26152W        W98467  40.483   2.428  14.061
26153W        W98468  10.303   8.230   1.377
26154W        W98469  28.938  39.503   3.308
26155W        W98470  42.697  32.467  13.542
26156W        W98471  29.958  36.867   1.436
26157W        W98472  23.273  14.469  14.282
26158W        W98473  34.044  27.854  13.344
26159W        W98474   7.728  19.044  13.416
26160W        W98475  25.706  31.469  12.037
26161W        W98476  13.296  12.049   1.851
26162W        W98477   2.281   5.904   0.820
26163W        W98478  30.528  16.106  10.812
26164W        W98479  19.261  17.750  11.331
26165W        W98480   1.507  19.595  12.924
26166W        W98481  37.857  41.837   2.244
26167W        W98482  43.475  22.531  12.902
26168W        W98483  14.713   1.787   0.947
26169W        W98484   5.894  35.163  12.994
26170W        W98485   1.839  40.738  11.880
26171W        W98486  32.296  37.071  12.503
26172W        W98487   8.779  14.439   5.017
26173W        W98488  20.142  36.273   0.950
26174W        W98489  36.027  32.432   2.350
26175W        W98490  13.319  37.536   0.887
26176W        W98491  14.973  20.936   2.458
26177W        W98492  11.594  13.548   4.327
26178W        W98493  33.053   3.267  14.008
26179W        W98494   7.976  14.912   0.783
26180W        W98495  11.860  36.170   9.707
26181W        W98496  28.683  10.852  10.328
26182W        W98497  22.223  11.781  11.626
26183W        W98498  32.393  11.213  12.546
26184W        W98499  28.652   2.815   4.292
26185W        W98500   8.866  26.944   2.733
26186W        W98501  35.950  35.838  11.102
26187W        W98502  14.082  37.028  11.886
26188W        W98503  42.976   1.433  10.885
26189W        W98504  35.901  18.101  13.901
26190W        W98505  21.224  11.794   3.685
26191W        W98506   6.285  15.053   4.797
26192W        W98507   8.657   5.697   0.511
26193W        W98508   1.989  38.877   5.162
26194W        W98509  21.446  14.499  13.517
26195W        W98510   9.399   4.346   1.673
26196W        W98511   0.734  22.906   0.770
26197W        W98512  31.906  37.835  13.685
26198W        W98513  40.411  27.160  10.598
26199W        W98514  24.439   5.072  11.540
26200W        W98515  44.890  40.390  13.656
26201W        W98516  12.303  27.451   3.358
26202W        W98517  20.615  14.094   2.806
26203W        W98518  14.164   0.895  12.483
26204W        W98519   0.235   2.220  14.109
26205W        W98520  12.650  28.560  13.051
26206W        W98521  28.548  41.485   1.418
26207W        W98522   7.096  16.068   2.614
26208W        W98523  41.938  34.880   0.714
26209W        W98524  43.292  13.842   1.856
26210W        W98525   8.971  17.116  12.234
26211W        W98526  10.750  21.968   1.676
26212W        W98527  41.554  16.345  12.434
26213W        W98528   1.003   3.967   1.845
26214W        W98529  25.727  18.199  12.946
26215W        W98530   2.913   4.895   3.560
26216W        W98531  44.428  16.213  12.062
26217W        W98532   3.864  15.119  12.452
26218W        W98533   5.144  27.426  13.445
26219W        W98534  36.878   5.660   1.728
26220W        W98535   9.445   4.398  10.380
26221W        W98536  34.942  32.699   0.449
26222W        W98537  17.867  35.379   2.368
26223W        W98538  22.667  22.986   0.779
26224W        W98539  20.782  36.492   4.395
26225W        W98540  37.889  17.383  13.457
26226W        W98541   0.456   0.630  10.570
26227W        W98542  14.281  21.553   1.334
26228W        W98543  40.237  13.140   4.627
26229W        W98544  16.639  22.166  10.540
26230W        W98545  44.552  44.384  10.671
26231W        W98546   4.836   8.402   3.671
26232W        W98547  18.151  18.980   4.585
26233W        W98548  36.130  40.470   3.731
26234W        W98549   0.404  22.269  12.674
26235W        W98550  25.540   5.694   2.435
26236W        W98551  36.041  18.991   4.535
26237W        W98552  17.130  23.554  10.061
26238W        W98553  29.127  42.609  11.771
26239W        W98554  13.908  13.102   0.394
26240W        W98555   5.900  40.365   2.784
26241W        W98556  14.555  14.873   4.233
26242W        W98557  27.913  10.662   4.251
26243W        W98558   7.215   3.431  11.199
26244W        W98559  36.899  25.160   9.709
26245W        W98560  17.659  34.124  12.916
26246W        W98561   3.169   2.318   4.137
26247W        W98562  25.481  36.208  13.302
26248W        W98563  27.579   8.239  10.536
26249W        W98564  41.427  25.802   0.263
26250W        W98565   3.393  12.642   2.757
26251W        W98566  30.342  42.326  12.341
26252W        W98567   9.731  30.986   2.314
26253W        W98568  35.471   4.769  12.948
26254W        W98569  25.116   7.868   0.258
26255W        W98570  32.640  10.790   4.839
26256W        W98571   3.883  39.928   0.004
26257W        W98572  37.737  15.594   0.483
26258W        W98573   4.639   6.920   0.824
26259W        W98574  23.505  44.593  12.557
26260W        W98575   9.299   9.457  11.225
26261W        W98576  40.495  25.020  13.720
26262W        W98577  10.798  18.052   0.201
26263W        W98578  25.056  23.753  13.322
26264W        W98579  24.767  33.506   3.345
26265W        W98580  18.696  28.448  14.381
26266W        W98581  11.847   1.518  12.029
26267W        W98582   7.309  11.322   4.232
26268W        W98583  42.555   9.187  14.843
26269W        W98584   3.305  27.677  13.674
26270W        W98585  11.818  36.237   0.111
26271W        W98586  34.563   3.500  10.766
26272W        W98587  13.760  17.518   3.089
26273W        W98588  26.022  44.480  14.376
26274W        W98589  34.126  42.701  11.482
26275W        W98590  10.359   2.195  14.448
26276W        W98591  14.856  33.031   2.642
26277W        W98592   2.908  44.203  14.485
26278W        W98593   6.267  13.762  10.353
26279W        W98594  14.204  39.752  14.063
26280W        W98595  32.407  24.091   1.606
26281W        W98596   7.303  30.686   5.083
26282W        W98597  25.567  13.321   1.306
26283W        W98598  26.603  32.754  11.271
26284W        W98599  23.076  22.773  13.613
26285W        W98600   9.382   0.171   0.360
26286W        W98601  44.745  15.704   4.689
26287W        W98602  18.770   9.323  10.987
26288W        W98603  39.690  37.292  14.740
26289W        W98604   8.107  35.382  14.561
26290W        W98605  19.756   8.199   3.139
26291W        W98606  39.140  29.942  13.928
26292W        W98607   5.260  23.781   4.223
26293W        W98608  14.684  41.390  10.714
26294W        W98609  44.302  14.677   1.380
26295W        W98610  22.037  21.368   5.110
26296W        W98611  43.250  22.993   3.104
26297W        W98612  23.958  15.817  13.692
26298W        W98613  21.405  23.771  14.494
26299W        W98614  35.179  44.145   3.245
26300W        W98615  42.148  41.786   0.525
26301W        W98616  13.285  18.885   4.542
26302W        W98617  22.517  33.708   4.555
26303W        W98618  32.574  41.770   1.267
26304W        W98619   8.198  43.429  12.596
26305W        W98620   9.475  27.053  13.895
26306W        W98621  36.055  21.020   1.312
26307W        W98622  34.439   0.656  12.049
26308W        W98623   2.727  20.648  14.218
26309W        W98624  14.716  27.436  13.507
26310W        W98625   3.074  35.323  13.505
26311W        W98626  42.476  32.918  13.455
26312W        W98627  33.123  32.479   2.414
26313W        W98628   4.534  38.921   0.141
26314W        W98629   6.489  40.793   1.883
26315W        W98630  15.912  17.556   1.811
26316W        W98631  17.533  30.074   4.100
26317W        W98632   0.492  33.589  14.958
26318W        W98633  34.826  40.983  11.005
26319W        W98634  23.169  18.648  12.310
26320W        W98635  43.768  37.633   2.791
26321W        W98636  28.224  22.837   0.383
26322W        W98637  44.282  29.692  11.076
26323W        W98638  34.914  12.905  13.528
26324W        W98639  25.269  11.185  11.193
26325W        W98640  24.184  13.761  13.606
26326W        W98641  22.977  29.091   0.202
26327W        W98642  32.832  14.735   0.030
26328W        W98643  10.681  18.636  12.069
26329W        W98644  23.174  40.120  10.839
26330W        W98645  36.440  39.872  13.030
26331W        W98646  28.335   5.582   5.735
26332W        W98647   1.745   0.288   0.451
26333W        W98648   0.860  14.513  14.896
26334W        W98649   5.470  42.551   0.192
26335W        W98650   4.146   0.578  10.156
26336W        W98651   6.001  34.512   1.276
26337W        W98652  21.413  34.448   0.367
26338W        W98653   6.891  10.812   0.346
26339W        W98654  24.951  38.360   1.766
26340W        W98655  14.743  22.721   3.384
26341W        W98656  22.483  15.681  11.344
26342W        W98657  25.478  38.546   5.189
26343W        W98658  28.672  35.593  12.663
26344W        W98659  31.062  39.123   1.033
26345W        W98660  43.390  39.332   0.358
26346W        W98661  43.290   0.919   3.064
26347W        W98662  35.601  20.611  14.798
26348W        W98663   2.817  16.504   3.275
26349W        W98664  28.676  43.940   3.330
26350W        W98665  11.301  15.980  10.100
26351W        W98666  29.986   0.083  12.882
26352W        W98667  20.414   0.424   4.004
26353W        W98668  24.655   7.844   2.802
26354W        W98669  28.189  19.270   3.781
26355W        W98670  32.763  18.828  11.141
26356W        W98671  20.552  43.800   3.766
26357W        W98672  25.979   7.704  11.400
26358W        W98673  12.610  36.100  11.139
26359W        W98674  20.856  37.021   4.354
26360W        W98675  36.062  27.612  13.451
26361W        W98676  42.993  17.795   4.169
26362W        W98677  38.757  36.277   4.900
26363W        W98678   6.802  33.373   0.887
26364W        W98679   8.301  30.188   0.980
26365W        W98680  14.722  42.825   0.058
26366W        W98681  22.952  23.453  10.111
26367W        W98682  28.655  11.302   3.222
26368W        W98683   2.825  44.158  13.022
26369W        W98684  20.693  19.063   0.444
26370W        W98685  20.776  41.903   0.034
26371W        W98686  41.285  36.691   3.725
26372W        W98687  36.832  31.791   3.699
26373W        W98688  31.880   0.954   4.139
26374W        W98689  41.908  14.331   1.017
26375W        W98690  10.120  35.995   1.482
26376W        W98691  35.948  36.922  13.102
26377W        W98692  39.207   4.761  10.777
26378W        W98693  17.505  34.364   4.858
26379W        W98694  30.081  31.542  13.022
26380W        W98695  42.895   6.693   1.798
26381W        W98696  17.330  41.754  14.902
26382W        W98697  11.158  23.270   3.697
26383W        W98698  10.460   7.813   0.260
26384W        W98699   7.430   8.168  13.324
26385W        W98700  19.064  24.224   3.306
26386W        W98701  31.845  16.561  14.019
26387W        W98702  19.772  39.386   3.772
26388W        W98703  23.820   6.792   0.873
26389W        W98704   4.704  25.562  13.900
26390W        W98705  12.679   9.916   2.332
26391W        W98706  41.414  28.702   4.407
26392W        W98707  13.806   6.077  14.471
26393W        W98708  24.435  40.602  11.704
26394W        W98709  16.124  15.951  14.059
26395W        W98710  43.261  41.973   0.448
26396W        W98711  34.001   2.746   3.653
26397W        W98712  29.636  11.974  13.859
26398W        W98713  38.035  15.355   4.650
26399W        W98714  12.392  36.028  11.632
26400W        W98715   8.517  42.097  11.981
26401W        W98716  23.023  22.499   3.579
26402W        W98717   7.687  15.775  14.863
26403W        W98718  22.662  39.789   2.322
26404W        W98719  16.638  28.537   4.507
26405W        W98720  22.506  32.081  10.978
26406W        W98721  41.537   1.531  12.627
26407W        W98722  33.895  26.100   0.833
26408W        W98723  39.071  29.958  10.661
26409W        W98724  16.569  38.018   3.211
26410W        W98725   6.883  27.683   3.563
26411W        W98726  12.073   8.094  12.916
26412W        W98727  26.014  42.241  14.823
26413W        W98728  18.113  40.959   4.653
26414W        W98729  34.935  30.486   1.940
26415W        W98730  33.472  30.748   4.219
26416W        W98731  12.645  43.027   4.164
26417W        W98732   6.439  29.021   3.910
26418W        W98733  37.595  22.106  14.113
26419W        W98734  35.401  41.844  14.948
26420W        W98735  12.573  27.085   3.084
26421W        W98736  24.486  17.129  12.397
26422W        W98737  29.719  37.114   3.287
26423W        W98738  36.335  35.628  11.958
26424W        W98739   4.813  27.685  14.726
26425W        W98740  24.727  27.631   1.784
26426W        W98741  36.832   8.172  13.881
26427W        W98742  32.236  15.555   5.163
26428W        W98743  43.061  20.323  12.218
26429W        W98744  25.517  25.975   1.662
26430W        W98745  18.556  20.853   1.799
26431W        W98746   3.577  35.482  13.396
26432W        W98747  14.496  31.780   4.147
26433W        W98748  17.551   8.199  14.195
26434W        W98749   2.568   7.191   2.902
26435W        W98750  29.194  17.498  12.497
26436W        W98751  27.270  28.682  12.455
26437W        W98752  17.097  40.430   1.747
26438W        W98753  25.042   6.194   0.759
26439W        W98754  22.695  37.605   1.438
26440W        W98755  12.135  43.874   1.985
26441W        W98756  41.421  13.615  11.167
26442W        W98757  27.682  20.066   3.728
26443W        W98758   2.083  33.090  14.419
26444W        W98759  34.889  26.566   0.459
26445W        W98760  33.664  28.432   2.364
26446W        W98761  19.968  19.382  14.193
26447W        W98762   2.266   9.711   0.294
26448W        W98763   5.653  31.034   3.176
26449W        W98764  22.200  38.968   2.283
26450W        W98765  20.991   7.782  12.906
26451W        W98766  24.408  11.341  13.612
26452W        W98767  23.002  22.704  12.320
26453W        W98768  38.596   9.202   4.275
26454W        W98769  28.377  41.456  13.560
26455W        W98770  31.582  27.623   0.018
26456W        W98771  37.101  41.011  12.834
26457W        W98772  10.993  40.977   2.327
26458W        W98773  17.577  11.181   2.165
26459W        W98774  19.334  11.724   4.999
26460W        W98775  22.994  44.034   2.298
26461W        W98776  26.478  39.711  14.412
26462W        W98777  29.637  14.105   2.721
26463W        W98778   2.723  20.533   3.366
26464W        W98779  20.398  38.261   2.069
26465W        W98780  11.275   8.241  12.687
26466W        W98781  10.622   8.403  11.216
26467W        W98782  25.812  34.823  14.948
26468W        W98783  24.338  30.947   4.096
26469W        W98784   0.022  39.291  14.910
26470W        W98785   3.546  35.924   1.416
26471W        W98786  14.736   7.356   2.177
26472W        W98787  12.573  38.435   1.947
26473W        W98788  23.262  35.855  11.705
26474W        W98789   5.921   5.417   0.958
26475W        W98790  15.731   3.826   0.356
26476W        W98791   2.422  38.550   4.481
26477W        W98792  22.585  18.109  13.317
26478W        W98793  37.014   2.787  12.983
26479W        W98794   7.392  43.499   0.122
26480W        W98795  30.707  28.509  11.147
26481W        W98796  43.025  17.528  11.988
26482W        W98797   9.876  14.306   1.970
26483W        W98798  37.933  18.043  14.277
26484W        W98799  34.619   1.512  12.580
26485W        W98800  38.937  20.794   0.747
26486W        W98801  23.582  21.952   4.130
26487W        W98802  17.597   9.198   4.805
26488W        W98803   0.145  32.366  12.968
26489W        W98804  22.475  43.306   0.855
26490W        W98805  21.538  27.534  11.985
26491W        W98806  12.604  36.863  13.604
26492W        W98807  35.091   6.908  14.439
26493W        W98808  26.538   2.033   2.400
26494W        W98809   9.894  18.662  10.211
26495W        W98810  27.694  16.704   4.435
26496W        W98811   1.151  33.902   4.143
26497W        W98812  13.936  35.555  14.613
26498W        W98813  16.641  44.620  14.255
26499W        W98814  24.950  28.735   2.324
26500W        W98815   0.291  34.395  10.586
26501W        W98816  40.843  43.050   2.307
26502W        W98817   0.899  39.427   3.323
26503W        W98818  33.047  37.835  12.642
26504W        W98819   0.436  40.199   0.470
26505W        W98820   1.998   8.188  12.440
26506W        W98821  44.979   1.626   4.615
26507W        W98822   0.861  21.266  10.881
26508W        W98823   3.011  23.609   1.203
26509W        W98824  31.922  35.147  13.115
26510W        W98825   9.806  27.005   2.475
26511W        W98826  40.965  20.105   1.947
26512W        W98827  30.885  37.034   1.586
26513W        W98828  19.101  17.838   2.636
26514W        W98829  18.341  44.193   2.277
26515W        W98830  44.778   9.362   4.996
26516W        W98831  40.839  30.675  13.845
26517W        W98832   9.791  10.065   2.161
26518W        W98833   2.294  36.088  10.691
26519W        W98834  32.906  18.556   4.122
26520W        W98835  31.516  37.190  11.976
26521W        W98836  43.478  29.892  13.499
26522W        W98837   9.221  32.975   1.185
26523W        W98838  23.964   4.976   2.249
26524W        W98839  21.242  22.553  12.301
26525W        W98840  23.724  12.487  13.310
26526W        W98841  33.123   8.809   4.993
26527W        W98842   5.979  35.531  12.128
26528W        W98843  43.336  11.241   9.974
26529W        W98844  32.545  18.355  11.079
26530W        W98845  36.996  43.048   4.325
26531W        W98846  43.930  27.681   1.787
26532W        W98847  16.291  44.653   2.298
26533W        W98848   4.662   5.261   1.885
26534W        W98849  34.879   6.743   0.871
26535W        W98850  34.893   7.215  14.832
26536W        W98851  12.674  15.337   4.751
26537W        W98852  24.532  33.444  12.943
26538W        W98853   9.687  39.501  14.278
26539W        W98854  36.435  37.124  12.344
26540W        W98855  11.268  40.253   1.685
26541W        W98856   1.891   8.687   1.276
26542W        W98857  39.681  41.423  11.154
26543W        W98858  42.890  30.903  10.441
26544W        W98859  40.929  30.930   4.341
26545W        W98860   1.884   3.372   1.826
26546W        W98861  43.057   9.374  14.844
26547W        W98862   6.899  20.664   4.393
26548W        W98863  37.402  12.133   1.427
26549W        W98864  38.107   4.228   2.726
26550W        W98865  38.099  36.741   1.243
26551W        W98866  19.530  29.944  14.740
26552W        W98867  17.361   8.739  11.564
26553W        W98868  21.141  17.336  11.239
26554W        W98869  17.995  23.470   2.137
26555W        W98870  39.444   5.950   4.791
26556W        W98871  30.920  11.175   2.304
26557W        W98872  36.474  11.308   0.576
26558W        W98873  25.221  20.510   5.091
26559W        W98874   8.868  33.948   3.646
26560W        W98875  33.949  32.136  14.564
26561W        W98876  30.866  24.558  11.501
26562W        W98877  27.953  35.061  13.868
26563W        W98878  30.901  24.489   4.104
26564W        W98879  18.577  27.535   2.618
26565W        W98880   9.803   2.742  10.612
26566W        W98881  19.056  39.907   1.387
26567W        W98882  28.782  37.284  12.814
26568W        W98883  20.825  15.079   2.621
26569W        W98884  13.873   4.889  13.317
26570W        W98885  26.533  32.162   1.678
26571W        W98886   5.351  13.410   3.396
26572W        W98887  22.997   7.211  13.325
26573W        W98888   6.259  16.804  13.830
26574W        W98889  38.968   8.734  11.549
26575W        W98890   3.496  16.631   1.428
26576W        W98891   0.614  15.774  14.355
26577W        W98892  30.158  29.237   1.367
26578W        W98893  38.982  28.618  11.198
26579W        W98894  18.937  40.503  12.885
26580W        W98895  43.393   1.923   3.344
26581W        W98896  22.996  31.339  11.418
26582W        W98897  12.735   7.669   4.115
26583W        W98898  17.120  44.532  12.056
26584W        W98899  43.943   7.525  13.020
26585W        W98900  42.503   5.343   3.362
26586W        W98901  22.591   4.818  14.792
26587W        W98902  40.543  13.329   1.381
26588W        W98903  23.667  29.494   2.823
26589W        W98904  35.014  16.508   4.199
26590W        W98905   4.866  21.629  12.162
26591W        W98906  35.403   6.328  10.664
26592W        W98907   8.640  33.006  12.924
26593W        W98908  15.647  16.761  11.455
26594W        W98909  35.276  10.802   2.978
26595W        W98910  11.648  12.726   4.706
26596W        W98911  14.839  28.671  11.428
26597W        W98912  32.585  36.929  12.969
26598W        W98913   6.103   9.709   0.660
26599W        W98914  13.368  39.304  10.582
26600W        W98915  40.337  35.114  12.918
26601W        W98916  43.793  14.171   4.547
26602W        W98917  23.065  28.859   2.269
26603W        W98918  33.385  15.306   1.919
26604W        W98919  20.321  12.595  12.863
26605W        W98920  18.515  27.146   1.334
26606W        W98921   1.795  25.001  10.570
26607W        W98922  21.233  43.528  14.615
26608W        W98923  24.137  31.697  12.947
26609W        W98924  14.552  25.587   2.778
26610W        W98925  29.613   3.686  14.007
26611W        W98926  32.355  36.284  13.594
26612W        W98927  23.028  19.424  10.235
26613W        W98928   2.960  24.783   1.455
26614W        W98929  24.494  13.607  10.789
26615W        W98930  41.132  38.847   0.469
26616W        W98931  18.753  39.256   3.274
26617W        W98932  34.573  31.075   0.963
26618W        W98933  41.230  42.913   4.626
26619W        W98934  31.889  25.966  11.629
26620W        W98935  34.436   3.322   2.617
26621W        W98936   3.117  13.412  11.140
26622W        W98937  25.218  18.181  11.218
26623W        W98938  19.058  44.403   4.654
26624W        W98939  40.784   7.837   4.366
26625W        W98940  21.967  42.474  12.139
26626W        W98941  31.578  19.162  11.000
26627W        W98942  31.141  37.432  14.314
26628W        W98943  13.386  25.086  10.838
26629W        W98944  39.046   5.092  12.436
26630W        W98945  14.067  24.598  14.786
26631W        W98946  33.619  29.623  10.519
26632W        W98947  13.350  39.440   1.493
26633W        W98948   8.682  18.779   0.319
26634W        W98949  20.282   9.338   3.260
26635W        W98950  13.821  20.985  13.966
26636W        W98951  27.199  19.043  11.628
26637W        W98952  20.156  40.333  11.185
26638W        W98953  20.812  35.069  14.495
26639W        W98954  22.468  39.374   2.086
26640W        W98955  14.586   1.465   1.418
26641W        W98956  15.982  24.094   4.570
26642W        W98957  28.046  44.614  14.870
26643W        W98958  17.067  16.656  14.994
26644W        W98959  20.737  35.566  14.770
26645W        W98960  32.201  13.767   0.865
26646W        W98961  24.970  25.885  14.525
26647W        W98962  37.569  29.060   0.169
26648W        W98963  30.696  10.709  13.659
26649W        W98964  16.098   9.156  13.130
26650W        W98965   3.323  21.723   4.274
26651W        W98966  23.081   0.899   2.606
26652W        W98967  26.255  26.081  14.884
26653W        W98968  42.561  15.671   1.413
26654W        W98969  15.845   1.476  14.891
26655W        W98970  38.804  40.425   2.135
26656W        W98971  41.744  36.497  11.023
26657W        W98972  40.918  21.882   0.575
26658W        W98973   1.701  18.966   3.719
26659W        W98974   3.400  20.246  10.706
26660W        W98975  42.574  22.019   4.132
26661W        W98976  16.088  12.282  11.562
26662W        W98977  13.507  26.456   0.016
26663W        W98978   5.305  17.946  10.718
26664W        W98979   6.643  16.613  12.019
26665W        W98980  23.441  30.099   0.422
26666W        W98981  14.684   9.925  11.036
26667W        W98982  29.407   4.642  14.056
26668W        W98983  24.041  15.042   0.477
26669W        W98984  34.607  33.857   0.415
26670W        W98985  44.476  16.753  11.193
26671W        W98986   3.905  19.377  11.638
26672W        W98987  28.859   3.545   3.238
26673W        W98988   8.385  11.915  11.590
26674W        W98989  23.460  12.647  10.559
26675W        W98990  34.879   7.268  10.984
26676W        W98991  13.614   7.909   1.686
26677W        W98992   3.508  29.580  10.798
26678W        W98993  43.042  17.910   4.738
26679W        W98994  14.393  26.204   4.532
26680W        W98995  10.534  27.425   3.748
26681W        W98996  38.401  19.049   0.193
26682W        W98997   1.848  42.608   3.170
26683W        W98998  17.978   0.773  12.328
26684W        W98999  20.672  20.679  14.928
26685W        W99000   0.332   1.152  10.670
26686W        W99001  27.009  15.515  11.666
26687W        W99002  21.098  44.684  12.537
26688W        W99003   8.198  18.077  13.327
26689W        W99004   9.745  41.551   3.220
26690W        W99005  41.284  38.178  11.597
26691W        W99006  26.194  35.813   3.700
26692W        W99007  28.188  14.607  10.343
26693W        W99008   9.895  15.245   3.352
26694W        W99009  21.934  29.114  11.601
26695W        W99010  39.325  30.704   0.860
26696W        W99011  27.227   9.622   3.616
26697W        W99012  31.866  12.377  14.854
26698W        W99013  21.198  34.619   3.178
26699W        W99014  34.662   6.889  11.679
26700W        W99015  43.813  15.740  14.559
26701W        W99016   2.931  10.843  10.877
26702W        W99017  32.968  17.435  10.582
26703W        W99018   4.564   9.468   3.681
26704W        W99019  33.859  41.034   0.839
26705W        W99020  32.105   7.442   0.189
26706W        W99021  13.437  23.976   1.935
26707W        W99022  16.752  18.111   9.849
26708W        W99023  43.719   9.725   1.366
26709W        W99024  14.115  28.553   4.673
26710W        W99025   9.787   0.474  12.621
26711W        W99026  21.690  38.523   0.080
26712W        W99027   6.356  26.728   3.926
26713W        W99028  37.946  31.160  11.080
26714W        W99029  17.609   3.556  14.929
26715W        W99030  30.656  18.645  14.919
26716W        W99031   7.938  20.527   1.309
26717W        W99032  31.929  11.604  13.784
26718W        W99033  28.061  17.791  13.394
26719W        W99034  25.986   4.436  12.418
26720W        W99035  12.125  35.800  12.935
26721W        W99036  28.955  42.554   1.472
26722W        W99037  15.647  19.054   0.869
26723W        W99038  39.292   8.476  10.107
26724W        W99039  30.167  17.168   3.263
26725W        W99040  32.444  41.004  13.872
26726W        W99041   5.931   0.894  12.993
26727W        W99042   8.391   0.789  13.975
26728W        W99043  42.817  16.017  11.131
26729W        W99044  24.088  38.757  11.903
26730W        W99045  20.887   9.377   4.993
26731W        W99046  43.421  19.679   0.183
26732W        W99047  16.222  44.397   1.428
26733W        W99048  26.470  37.061  13.046
26734W        W99049  13.604  21.327   4.614
26735W        W99050  26.643   7.264  10.163
26736W        W99051  28.604  11.361  13.818
26737W        W99052   1.926  39.609  10.577
26738W        W99053   3.993   3.046   3.387
26739W        W99054   5.909  37.333   3.286
26740W        W99055  24.846  42.384  12.337
26741W        W99056   4.150  17.097  14.390
26742W        W99057  38.201  44.889   2.763
26743W        W99058  29.649  41.979  10.655
26744W        W99059  34.621  10.291  14.481
26745W        W99060   6.443  18.771  10.779
26746W        W99061   2.471  16.944   5.035
26747W        W99062  35.548  29.616   2.543
26748W        W99063  19.267   7.658   4.266
26749W        W99064   2.167  18.149  14.012
26750W        W99065  31.464   7.942   1.812
26751W        W99066  39.966  12.508  10.657
26752W        W99067   7.212  35.757  11.690
26753W        W99068  36.698  22.652  10.479
26754W        W99069  20.764  33.894   1.887
26755W        W99070  44.545  17.373  13.573
26756W        W99071  41.886  26.872  10.432
26757W        W99072  27.842  26.679   4.570
26758W        W99073  42.560  37.068  12.321
26759W        W99074  27.194  14.981   3.130
26760W        W99075  40.326  20.716  13.990
26761W        W99076  28.450  18.085  10.961
26762W        W99077   6.979  36.168   3.535
26763W        W99078   4.039  22.623  12.768
26764W        W99079   7.946   4.725  11.794
26765W        W99080   2.311  33.073   4.564
26766W        W99081  27.109  15.743  14.100
26767W        W99082  29.245  28.616  10.725
26768W        W99083   6.892  40.422  11.291
26769W        W99084  43.470  32.651  14.581
26770W        W99085   2.953  10.661  12.331
26771W        W99086   5.577   4.852  13.360
26772W        W99087  24.021  38.413  13.912
26773W        W99088   0.882  20.130  11.897
26774W        W99089   2.150  28.029  14.486
26775W        W99090  37.806  30.884   0.753
26776W        W99091  22.326   6.436   0.420
26777W        W99092  18.645  36.927  12.874
26778W        W99093  20.605   8.856   0.193
26779W        W99094  40.807  31.009   2.411
26780W        W99095  19.005   0.008   1.965
26781W        W99096   3.648  16.243   1.795
26782W        W99097  25.543  38.174  14.197
26783W        W99098  42.131   7.191   3.754
26784W        W99099  14.628  24.952   1.891
26785W        W99100  41.548  14.544   4.987
26786W        W99101  31.124   7.208  12.377
26787W        W99102  10.608  34.364   0.447
26788W        W99103  10.447  17.606   4.319
26789W        W99104  25.010  25.267  12.678
26790W        W99105  22.825  13.137  11.615
26791W        W99106   2.931  24.134  11.859
26792W        W99107  12.324  11.129  14.984
26793W        W99108  10.630  25.774  14.510
26794W        W99109   2.744  20.572  13.309
26795W        W99110  17.766   4.026   2.405
26796W        W99111  33.053  12.747   3.332
26797W        W99112  42.929  42.986   0.039
26798W        W99113  28.116  32.002   3.963
26799W        W99114  37.974  27.370  11.915
26800W        W99115  31.517  28.348  14.320
26801W        W99116   0.665   6.983   3.534
26802W        W99117  23.527  32.153   2.901
26803W        W99118  21.071  22.043   1.278
26804W        W99119  35.660   8.445  14.849
26805W        W99120  32.988  35.305  10.756
26806W        W99121  17.652   3.176   3.791
26807W        W99122  40.740  18.280  10.489
26808W        W99123  37.398  17.550  13.582
26809W        W99124  31.112  38.596  11.186
26810W        W99125   0.573  19.721   0.754
26811W        W99126  15.858  29.143   1.418
26812W        W99127   4.393  38.450  14.258
26813W        W99128  30.439  24.911   1.007
26814W        W99129  21.507   0.350  13.322
26815W        W99130   8.502  33.843   4.562
26816W        W99131   0.839  35.574   0.535
26817W        W99132   7.511  44.566   4.132
26818W        W99133  42.485   4.916   0.479
26819W        W99134  20.512  23.565  12.635
26820W        W99135  30.826  37.603  10.588
26821W        W99136   8.691   8.233   1.210
26822W        W99137  26.691  41.631   1.806
26823W        W99138   6.209  30.129  12.492
26824W        W99139  39.327  25.502   1.542
26825W        W99140  29.166  24.729  13.500
26826W        W99141  37.311  28.217   4.170
26827W        W99142  30.412  33.802   0.381
26828W        W99143   2.720  16.074   1.778
26829W        W99144  35.350   4.238   3.194
26830W        W99145  21.237  21.788  11.146
26831W        W99146  10.616   8.304   0.323
26832W        W99147  43.908  14.701   4.361
26833W        W99148  36.654   4.732   4.363
26834W        W99149   9.574  34.435  14.486
26835W        W99150   4.469  41.554  10.316
26836W        W99151  12.676  32.198   4.767
26837W        W99152  34.185  17.618   4.835
26838W        W99153  40.339  32.588  10.623
26839W        W99154  17.696  41.060  12.471
26840W        W99155  14.852  40.451   3.273
26841W        W99156  25.475  34.089  13.649
26842W        W99157  33.611   7.311  10.267
26843W        W99158   8.467  43.000  11.977
26844W        W99159   7.921  43.350   0.216
26845W        W99160   9.789   1.983   2.361
26846W        W99161  11.527   2.055   2.619
26847W        W99162  31.461   8.063  12.061
26848W        W99163  12.586  31.432  13.967
26849W        W99164  27.718  28.868   0.884
26850W        W99165  27.712   1.032   0.700
26851W        W99166  21.032  42.568   4.651
26852W        W99167  43.368  36.484   0.817
26853W        W99168   9.371  20.575   0.297
26854W        W99169  40.824  24.161   0.651
26855W        W99170  20.182  32.165  10.117
26856W        W99171   5.471  37.597   3.184
26857W        W99172   5.105  42.703  14.801
26858W        W99173  43.295  34.890   1.590
26859W        W99174  39.513  17.495  12.919
26860W        W99175  39.470  37.584   1.221
26861W        W99176  37.354  36.528   1.965
26862W        W99177  16.120  24.062  12.825
26863W        W99178  14.241  32.016   4.905
26864W        W99179   5.663  44.423  12.138
26865W        W99180  16.994  34.316  11.061
26866W        W99181  28.787  33.070   3.524
26867W        W99182  15.540  31.260  12.135
26868W        W99183  37.850  10.024   3.112
26869W        W99184  31.480  43.941   4.126
26870W        W99185  22.268  14.162   2.214
26871W        W99186  15.551  15.872   3.288
26872W        W99187  39.177  11.664  10.850
26873W        W99188  32.911  32.395   1.078
26874W        W99189  32.359  12.550   4.009
26875W        W99190  29.482  32.841  14.332
26876W        W99191  12.900  23.812  11.274
26877W        W99192  20.026  14.228   2.300
26878W        W99193   6.884  29.039  14.035
26879W        W99194  17.148   9.633  14.846
26880W        W99195  29.141  15.753  13.600
26881W        W99196  28.273  36.684  12.993
26882W        W99197  27.902  31.509   1.185
26883W        W99198  23.281  11.986   2.356
26884W        W99199  12.727  15.529  14.499
26885W        W99200  42.408  13.274  12.382
26886W        W99201   0.293  37.473  12.784
26887W        W99202  28.041  39.546  11.320
26888W        W99203  39.936  15.404  12.409
26889W        W99204   0.250  37.164   0.915
26890W        W99205  22.505  31.616   4.338
26891W        W99206   7.163   8.225   1.310
26892W        W99207  43.459   9.795   0.906
26893W        W99208  42.918  31.979  10.964
26894W        W99209  12.596  10.801  13.066
26895W        W99210   6.661  30.910   4.120
26896W        W99211   3.817   3.518   0.823
26897W        W99212   2.755  30.624   1.179
26898W        W99213  26.232  37.071  10.538
26899W        W99214  18.023  26.918   3.158
26900W        W99215  24.643  11.761   0.440
26901W        W99216  30.072   1.075   3.798
26902W        W99217   1.277   2.704  10.647
26903W        W99218  38.022  40.466  12.922
26904W        W99219  19.032  34.179  13.453
26905W        W99220   1.572  42.773  13.932
26906W        W99221  39.927  28.397   0.799
26907W        W99222  41.826  14.836  11.693
26908W        W99223  17.093  28.638   3.732
26909W        W99224  31.653  34.082  11.860
26910W        W99225  32.252  36.468  14.059
26911W        W99226  33.576  36.452  14.433
26912W        W99227   6.010  38.556  13.361
26913W        W99228  30.395  34.630  11.554
26914W        W99229  26.609  44.702   0.470
26915W        W99230   4.204  32.482   2.425
26916W        W99231  32.624  16.533   2.776
26917W        W99232  37.874  42.007   2.778
26918W        W99233   3.419  19.524  13.820
26919W        W99234  42.057  24.718   1.990
26920W        W99235  40.191  29.445   1.734
26921W        W99236  26.721   4.207  10.280
26922W        W99237  23.008  29.468  14.822
26923W        W99238  17.700   2.887   4.218
26924W        W99239  44.984   1.298  12.080
26925W        W99240  30.151  43.448   4.218
26926W        W99241  26.940  21.575  12.952
26927W        W99242   9.598   9.227   2.703
26928W        W99243  31.675  17.777  13.316
26929W        W99244  27.467  41.828   2.223
26930W        W99245  36.230  31.858   4.208
26931W        W99246  38.859  16.319   2.630
26932W        W99247  16.680  35.942   1.623
26933W        W99248  17.319  16.155   3.259
26934W        W99249  12.650  29.035  10.656
26935W        W99250  44.675  30.982  10.208
26936W        W99251  22.497   4.632   4.842
26937W        W99252   4.367  33.463  10.632
26938W        W99253   7.709  32.907  13.342
26939W        W99254  44.556  40.779  13.822
26940W        W99255  39.774   1.875   0.399
26941W        W99256  12.612  12.865  11.115
26942W        W99257  20.759  11.160   3.163
26943W        W99258  43.390  27.557  14.826
26944W        W99259  16.603  18.496   3.747
26945W        W99260  20.602  43.830   1.170
26946W        W99261  40.774  12.107   4.582
26947W        W99262   1.436   7.836   4.687
26948W        W99263   5.968  18.045   3.380
26949W        W99264  37.045  36.140  10.358
26950W        W99265  41.363  37.456   0.827
26951W        W99266  39.247  12.691   3.887
26952W        W99267  23.085   9.391   4.196
26953W        W99268   0.421  24.654   0.772
26954W        W99269  33.341   1.255  12.934
26955W        W99270  29.426  25.496  10.771
26956W        W99271  13.616  10.964   4.387
26957W        W99272  27.182  30.383  12.859
26958W        W99273  23.581  43.417   0.016
26959W        W99274  29.802  25.411  13.954
26960W        W99275  44.243  37.189  14.287
26961W        W99276   3.791  36.436   1.187
26962W        W99277  11.531  19.951   5.131
26963W        W99278  38.639  42.947  12.819
26964W        W99279  23.996  18.975  13.635
26965W        W99280  37.408   2.932  13.287
26966W        W99281  35.950  23.270  10.747
26967W        W99282  32.150  35.981   0.879
26968W        W99283  33.785  17.612   3.617
26969W        W99284  22.709  28.551   0.330
26970W        W99285  41.788  21.231   2.712
26971W        W99286  40.535  19.032  10.422
26972W        W99287  21.566  40.773   4.605
26973W        W99288  31.943  24.341   0.271
26974W        W99289  29.311  29.911  12.516
26975W        W99290  10.782  16.008   4.204
26976W        W99291  32.445  27.493   0.842
26977W        W99292  26.203  15.118  10.753
26978W        W99293  27.475   5.465  10.728
26979W        W99294   5.763  30.375   4.321
26980W        W99295  28.354  10.390   1.170
26981W        W99296  10.898  23.740   2.149
26982W        W99297  39.399   3.379   4.527
26983W        W99298  15.091  23.131   0.300
26984W        W99299  40.910  41.994   1.670
26985W        W99300  42.204  24.446   4.007
26986W        W99301  22.831  20.165   2.943
26987W        W99302  28.751  25.196   4.637
26988W        W99303  42.079  39.458   3.698
26989W        W99304   1.811  12.133   1.461
26990W        W99305  20.104   3.503  11.134
26991W        W99306  41.211  24.201  10.661
26992W        W99307   9.548  42.036  13.050
26993W        W99308  27.051   5.380  12.775
26994W        W99309   8.200  29.786  14.363
26995W        W99310   0.992  25.596  14.018
26996W        W99311  40.238  38.114   2.115
26997W        W99312  12.391  40.566  12.488
26998W        W99313  33.394  34.982  11.978
26999W        W99314  30.459  23.765  11.311
27000W        W99315  24.684   2.219  13.338
27001W        W99316  35.361   2.695   4.454
27002W        W99317  32.717  33.667   0.427
27003W        W99318   9.278  37.285   1.404
27004W        W99319  24.583  25.612   4.846
27005W        W99320  20.628   2.995  12.432
27006W        W99321  26.171  12.320  10.609
27007W        W99322   3.308  41.102  13.704
27008W        W99323   3.154  22.411  12.373
27009W        W99324  44.947  22.986  14.900
27010W        W99325   8.803  44.028   3.694
27011W        W99326  39.628  22.513  14.301
27012W        W99327  25.256  30.854  10.628
27013W        W99328  22.715  17.796   4.632
27014W        W99329  10.457  28.605  10.945
27015W        W99330   5.357  20.771  14.338
27016W        W99331  14.655  10.781  10.599
27017W        W99332   2.923   5.780   2.076
27018W        W99333  28.654  36.775   3.816
27019W        W99334  21.189  26.615   0.396
27020W        W99335   8.705   3.437   4.126
27021W        W99336  19.748  16.446  10.192
27022W        W99337  16.764  31.580  10.542
27023W        W99338  22.608  19.247   5.184
27024W        W99339  27.027   9.920  14.834
27025W        W99340   7.480  26.291   4.132
27026W        W99341   2.643  18.729   2.138
27027W        W99342  32.456   8.599  14.303
27028W        W99343  19.519  44.040  13.325
27029W        W99344  24.949   2.433   0.177
27030W        W99345  12.488   3.802   4.919
27031W        W99346  10.870  12.588  14.892
27032W        W99347   8.975  26.659  11.158
27033W        W99348   3.315  21.278  14.641
27034W        W99349   5.633  25.066  10.813
27035W        W99350  22.634   7.897   1.252
27036W        W99351  22.314  39.856  12.885
27037W        W99352  33.216  30.879   3.791
27038W        W99353  22.362  15.203  11.487
27039W        W99354  20.674   4.260  13.014
27040W        W99355  25.411  22.808   2.272
27041W        W99356  43.817  34.198  12.649
27042W        W99357  10.898   1.724   4.332
27043W        W99358  22.181  27.843   0.521
27044W        W99359   1.137  36.888  14.332
27045W        W99360  28.092  32.941  10.406
27046W        W99361  40.957  36.548  14.823
27047W        W99362   8.792   4.151  14.592
27048W        W99363   5.341   7.157   3.406
27049W        W99364   1.810  17.822  11.522
27050W        W99365  44.318  24.047   1.491
27051W        W99366  28.427  16.057   0.784
27052W        W99367  34.520  40.316   2.221
27053W        W99368  20.960  33.313  14.256
27054W        W99369  14.001   6.308   2.733
27055W        W99370  14.103   6.302   4.884
27056W        W99371  13.672  35.093   1.320
27057W        W99372  18.617  25.674   0.971
27058W        W99373  41.254  35.413  14.510
27059W        W99374  11.694  27.257  12.392
27060W        W99375   4.444   6.416   0.896
27061W        W99376  17.713   0.501  14.455
27062W        W99377  40.116  19.606   2.862
27063W        W99378  28.787  38.073  13.575
27064W        W99379  43.828  10.846  14.299
27065W        W99380  34.957   2.704  14.075
27066W        W99381  33.038  14.708   0.537
27067W        W99382  11.168  17.368  12.099
27068W        W99383  36.543   9.710  10.720
27069W        W99384  15.726  11.370   1.267
27070W        W99385  43.486  21.555   4.375
27071W        W99386  10.390   0.410  11.510
27072W        W99387  32.849   6.817   2.239
27073W        W99388  35.613   6.577  12.513
27074W        W99389  25.206  34.063   4.381
27075W        W99390   6.106   5.259  12.043
27076W        W99391  40.081  33.109  13.450
27077W        W99392  16.223  12.575   4.451
27078W        W99393   9.442   7.337  14.875
27079W        W99394  32.007  15.052  14.017
27080W        W99395  12.844  30.852   2.838
27081W        W99396  30.751   4.836   1.165
27082W        W99397  25.259   3.808   0.750
27083W        W99398  29.502  24.721  11.466
27084W        W99399  23.945   7.835   1.353
27085W        W99400  41.318  31.558  13.920
27086W        W99401  34.547  33.512  13.945
27087W        W99402  42.474  13.103   4.359
27088W        W99403  23.745  20.092   0.007
27089W        W99404   1.018  36.844  11.089
27090W        W99405  41.823   7.241  10.933
27091W        W99406  18.628  41.513   4.961
27092W        W99407  10.767  31.627   3.702
27093W        W99408   9.673  41.695   2.299
27094W        W99409  12.869  27.713   0.363
27095W        W99410  15.288  33.924  10.698
27096W        W99411  30.895  36.034   1.543
27097W        W99412  25.154  10.877   1.179
27098W        W99413  19.946  12.875  14.190
27099W        W99414   4.851  38.345  12.545
27100W        W99415  13.816  36.692   2.274
27101W        W99416  34.356  33.639  13.065
27102W        W99417   2.937  37.264   0.952
27103W        W99418  28.261   8.664   0.744
27104W        W99419  41.305  29.016  11.051
27105W        W99420  42.687  20.486  13.842
27106W        W99421  37.034   5.027   4.593
27107W        W99422  30.623   0.278  10.727
27108W        W99423   0.406  12.234   4.676
27109W        W99424  36.264  13.825   2.746
27110W        W99425   3.992  35.566  11.980
27111W        W99426   5.044  36.903   3.687
27112W        W99427  27.810  17.063  14.116
27113W        W99428   4.170  18.684  13.567
27114W        W99429  14.267  22.969  13.313
27115W        W99430  33.751  30.923  11.384
27116W        W99431  31.932  36.128  11.102
27117W        W99432  43.097  20.199  14.023
27118W        W99433   5.156  23.051  11.060
27119W        W99434  15.844  18.111   2.813
27120W        W99435  41.587  32.889   1.837
27121W        W99436  16.388  40.381   0.867
27122W        W99437  39.440   6.760   4.249
27123W        W99438  41.933  19.453  11.076
27124W        W99439  29.169  26.489   1.224
27125W        W99440  37.412  28.534  10.795
27126W        W99441   1.977  14.453  12.151
27127W        W99442  14.777   0.414  12.367
27128W        W99443  12.447  11.041   0.964
27129W        W99444  29.114  17.565  13.333
27130W        W99445   1.228  24.691  10.651
27131W        W99446  29.543  14.572   4.208
27132W        W99447  15.032  18.605   3.668
27133W        W99448  34.016  26.931   0.365
27134W        W99449   2.919   6.020   2.520
27135W        W99450  33.452  37.052  11.015
27136W        W99451  16.967  25.553   3.140
27137W        W99452  38.764  41.379   3.149
27138W        W99453   1.076  39.402  11.948
27139W        W99454  31.944  13.305  13.452
27140W        W99455  35.450   5.725  10.535
27141W        W99456  39.898  44.782  12.732
27142W        W99457  42.359  17.975   1.738
27143W        W99458   2.892  40.850   2.311
27144W        W99459  25.699  42.002  10.783
27145W        W99460   8.907   5.695  10.710
27146W        W99461   3.813  16.087  12.951
27147W        W99462  41.013  40.436   0.351
27148W        W99463   0.249  30.469   0.801
27149W        W99464  31.955   8.099  14.884
27150W        W99465   6.781  17.533  12.549
27151W        W99466  30.039  25.677  13.591
27152W        W99467  27.083   0.935  13.165
27153W        W99468  43.679  20.403  14.349
27154W        W99469   6.511  34.403  11.162
27155W        W99470  44.541  25.449   1.235
27156W        W99471   8.081  12.483   4.440
27157W        W99472   3.357   0.537   1.672
27158W        W99473   2.262  29.080  10.776
27159W        W99474  20.761  14.267   0.499
27160W        W99475   4.802   7.187  11.998
27161W        W99476  44.728  12.651  14.041
27162W        W99477  23.111  33.159   2.208
27163W        W99478  40.313   0.059   3.108
27164W        W99479  24.398  33.433  14.792
27165W        W99480  21.545  42.445   3.441
27166W        W99481  14.758   5.866   0.429
27167W        W99482  16.551  33.484  13.976
27168W        W99483  15.113  41.539  11.516
27169W        W99484  32.541   2.889   4.135
27170W        W99485  28.038  44.976  10.430
27171W        W99486  44.363  16.879  11.689
27172W        W99487  34.361  40.398  12.042
27173W        W99488  29.896   5.984  13.926
27174W        W99489  17.208  23.021  13.722
27175W        W99490  16.820   6.247   4.665
27176W        W99491  16.248  39.174   1.244
27177W        W99492  11.767  16.829  14.856
27178W        W99493   2.223   3.362  11.961
27179W        W99494  11.997   5.168   4.511
27180W        W99495  39.680  29.546  12.164
27181W        W99496  38.928   0.458   2.731
27182W        W99497   6.102  36.998   1.491
27183W        W99498  26.077   2.327   4.371
27184W        W99499  21.685  15.872   2.842
27185W        W99500  35.698   1.017  11.728
27186W        W99501   9.107  14.150  10.778
27187W        W99502  33.949  11.397   4.491
27188W        W99503   9.335  26.159  13.345
27189W        W99504  32.093  41.110  11.109
27190W        W99505   5.176  19.592  13.694
27191W        W99506  14.334   3.936   2.564
27192W        W99507  23.958  44.455  13.448
27193W        W99508  13.764  32.517   1.376
27194W        W99509   6.992  36.850  14.387
27195W        W99510  35.011  21.430  13.993
27196W        W99511  23.063  22.140   1.395
27197W        W99512  30.468  23.117   0.535
27198W        W99513  15.875   3.228   2.820
27199W        W99514  30.145  12.402   2.706
27200W        W99515  31.250   3.713  12.145
27201W        W99516  27.160  12.176  10.675
27202W        W99517  17.720  20.269  14.053
27203W        W99518  44.514  39.441  11.274
27204W        W99519  32.641   4.158  14.308
27205W        W99520  23.011  41.956   2.260
27206W        W99521   1.761  20.816   1.120
27207W        W99522   5.385   3.758  11.542
27208W        W99523  43.111   7.487  13.492
27209W        W99524  11.324  11.821   4.752
27210W        W99525  25.682  29.191   3.276
27211W        W99526  44.834  22.242  11.962
27212W        W99527   8.082  28.870   0.327
27213W        W99528   6.093  15.533   4.804
27214W        W99529  35.867  18.107  12.066
27215W        W99530   7.349  37.046  11.699
27216W        W99531  30.216   4.925   1.187
27217W        W99532   1.227  28.122  12.975
27218W        W99533  15.821  24.600  13.053
27219W        W99534  12.913  21.128  14.843
27220W        W99535  22.646  13.366   3.810
27221W        W99536  34.347  40.668   3.207
27222W        W99537  44.414  40.946   1.901
27223W        W99538   1.091  42.827  14.669
27224W        W99539   3.944   6.720  10.265
27225W        W99540   2.662  35.708   0.490
27226W        W99541  18.014  23.917  11.594
27227W        W99542  39.783  10.131   4.639
27228W        W99543  10.158  20.235  13.588
27229W        W99544  32.208   7.110  13.373
27230W        W99545  20.125  19.529  13.331
27231W        W99546   8.800  16.849   4.649
27232W        W99547  24.269   6.116  13.070
27233W        W99548   2.817  33.823  10.431
27234W        W99549  35.745  28.023  12.559
27235W        W99550   0.791  15.378   1.216
27236W        W99551  24.950   5.470   3.295
27237W        W99552  18.033  30.397  11.291
27238W        W99553  37.996  21.025  14.898
27239W        W99554  39.021  14.343   5.098
27240W        W99555   9.337  34.558  13.997
27241W        W99556  36.101  36.337   4.584
27242W        W99557  10.630  13.074   1.340
27243W        W99558   3.235  21.400   0.150
27244W        W99559  16.123  40.111  13.801
27245W        W99560  19.306  31.979  12.096
27246W        W99561  31.479  37.647  11.093
27247W        W99562  38.427  23.949   3.223
27248W        W99563  23.969  27.740   4.247
27249W        W99564   5.511  16.272  13.360
27250W        W99565  15.851  36.372   3.206
27251W        W99566  40.904  18.373   0.347
27252W        W99567  44.355  16.397  11.563
27253W        W99568  10.826  43.514   3.421
27254W        W99569  10.363  26.807  11.049
27255W        W99570  40.181  30.222   1.482
27256W        W99571  34.798  33.427  12.993
27257W        W99572  32.884  35.513  14.733
27258W        W99573  14.152  16.039  12.435
27259W        W99574  20.531  31.438  10.911
27260W        W99575  43.252   1.186   2.179
27261W        W99576  29.156  30.369  11.497
27262W        W99577  28.463   3.433  11.083
27263W        W99578  43.515   9.626  10.619
27264W        W99579   8.695  41.322   1.403
27265W        W99580  32.697   8.944   1.350
27266W        W99581   8.172  12.654   0.383
27267W        W99582   7.389   7.346   2.707
27268W        W99583  15.717   3.106  11.194
27269W        W99584  43.204  17.160  14.388
27270W        W99585  42.558  14.657   0.489
27271W        W99586  30.644  31.381   0.898
27272W        W99587  31.531  10.854   2.344
27273W        W99588  13.915  24.391  13.881
27274W        W99589  35.629  26.635   1.818
27275W        W99590  29.617  43.248   3.367
27276W        W99591  41.807  34.352   3.628
27277W        W99592  22.256  33.573   3.431
27278W        W99593  42.862  31.350  10.808
27279W        W99594  27.871  15.324   5.043
27280W        W99595  39.259  20.192  14.246
27281W        W99596   4.702  27.191   2.811
27282W        W99597  13.972  11.854   5.054
27283W        W99598  40.499   8.881  10.919
27284W        W99599  28.516   4.202  13.348
27285W        W99600  35.277  38.388  11.071
27286W        W99601  33.976  14.652  12.013
27287W        W99602  10.433  16.249  11.082
27288W        W99603  37.975  27.938  10.047
27289W        W99604  18.000  16.660  14.440
27290W        W99605  18.535  16.585  14.367
27291W        W99606  15.717  31.657   1.969
27292W        W99607  31.699  14.629  13.147
27293W        W99608  34.985  15.702  10.290
27294W        W99609  16.330  34.174  13.399
27295W        W99610  22.074  28.685   2.863
27296W        W99611  43.041  34.691   2.299
27297W        W99612   9.615  18.887  14.804
27298W        W99613  12.243  33.326   4.358
27299W        W99614  42.264  35.452  11.500
27300W        W99615  25.640  22.126  11.518
27301W        W99616  14.962  10.187  12.114
27302W        W99617   9.375  44.286   1.776
27303W        W99618  34.826   5.820   2.362
27304W        W99619  42.914  44.872  14.813
27305W        W99620  21.759  32.446  12.143
27306W        W99621  14.688   5.052  14.777
27307W        W99622  32.742  24.941  13.828
27308W        W99623  31.206  10.380   2.730
27309W        W99624  38.852  20.747   2.800
27310W        W99625  34.833  11.650  11.654
27311W        W99626  41.436   4.808   4.293
27312W        W99627  27.947  37.337   0.564
27313W        W99628  28.890  34.456  13.633
27314W        W99629  37.057  18.148   3.551
27315W        W99630   5.755  17.711   1.994
27316W        W99631  29.027   8.073  11.163
27317W        W99632  12.093  27.261   2.420
27318W        W99633   8.664  24.447   0.808
27319W        W99634  33.954  11.177  10.559
27320W        W99635  15.226   6.799  14.758
27321W        W99636   3.471  20.580  11.662
27322W        W99637   0.873  34.442  13.668
27323W        W99638  15.370  38.001   3.715
27324W        W99639  39.391  37.047   3.216
27325W        W99640  33.562  32.898  12.103
27326W        W99641  20.419   4.211  12.578
27327W        W99642  43.664  18.868  12.532
27328W        W99643  27.449  42.558  10.783
27329W        W99644   4.752  11.592  13.920
27330W        W99645  39.728  36.862  12.484
27331W        W99646  14.537   2.943  11.558
27332W        W99647  36.049  28.949   1.435
27333W        W99648  24.425  21.470   1.406
27334W        W99649   0.374  29.500   0.869
27335W        W99650   3.812   5.532   2.794
27336W        W99651  44.185   3.872   2.437
27337W        W99652  10.891  11.699   1.776
27338W        W99653  31.484   8.185   3.159
27339W        W99654  26.473  19.678  12.970
27340W        W99655  28.994  15.249   0.015
27341W        W99656  32.774   7.711   1.308
27342W        W99657  33.508  35.369  11.612
27343W        W99658  22.467  34.289  12.005
27344W        W99659  27.553   1.428   3.855
27345W        W99660  15.296  16.335  12.041
27346W        W99661   9.279  23.187   0.172
27347W        W99662  18.563  34.015  13.320
27348W        W99663  20.364  34.904  12.480
27349W        W99664  26.046  40.366   1.718
27350W        W99665   6.089  27.580   1.512
27351W        W99666  19.637   4.284  14.717
27352W        W99667   7.669  17.718  14.552
27353W        W99668  37.439  32.928   0.345
27354W        W99669  44.791  28.227  10.648
27355W        W99670  42.619  18.950   0.922
27356W        W99671  40.192  28.958   0.751
27357W        W99672   7.317   6.101  12.957
27358W        W99673  33.617  21.011   4.590
27359W        W99674  41.626  13.154   4.242
27360W        W99675   7.302  10.490   3.686
27361W        W99676  23.525  42.430  10.659
27362W        W99677  30.515  12.893  13.020
27363W        W99678  44.070  44.422  13.046
27364W        W99679   4.757  18.491   2.440
27365W        W99680  34.033  15.287   0.398
27366W        W99681  13.546   4.120   3.075
27367W        W99682  11.622  28.065   0.449
27368W        W99683  19.533  42.990   2.351
27369W        W99684  32.414  28.421  10.863
27370W        W99685  40.888  33.619   4.388
27371W        W99686  35.877  23.488   3.435
27372W        W99687   4.546   3.326   4.422
27373W        W99688  38.566  12.346  14.698
27374W        W99689   1.879  17.033   2.899
27375W        W99690  35.063  21.992   1.270
27376W        W99691  25.759   8.570  11.126
27377W        W99692   8.810  21.280  10.725
27378W        W99693  43.624  18.811   0.306
27379W        W99694  41.492  24.335  13.500
27380W        W99695   2.916  12.168  11.151
27381W        W99696  17.443  10.828  14.414
27382W        W99697  44.242  15.012  11.535
27383W        W99698   1.189   2.418   2.196
27384W        W99699  30.743   5.661  11.776
27385W        W99700  37.626  20.759  11.512
27386W        W99701  29.488  20.618   2.587
27387W        W99702  14.198  18.331  13.321
27388W        W99703  22.715  38.923   2.132
27389W        W99704   5.949  20.660  12.108
27390W        W99705  18.792  12.608   3.178
27391W        W99706  11.215  40.991  13.729
27392W        W99707  33.656  29.731   3.242
27393W        W99708  13.766   9.408  12.040
27394W        W99709  24.383  42.586  14.498
27395W        W99710  10.161   4.805   1.501
27396W        W99711   2.325  42.528   2.252
27397W        W99712  38.362  25.689  14.880
27398W        W99713  36.023  17.125  10.783
27399W        W99714  37.075  15.017   3.293
27400W        W99715  30.305  20.055  10.611
27401W        W99716   4.200  42.783  14.239
27402W        W99717  10.464  30.531  13.435
27403W        W99718   0.299  16.801  10.489
27404W        W99719  23.497   0.303   2.375
27405W        W99720  23.834  32.412  13.486
27406W        W99721  37.107  41.859   1.177
27407W        W99722   1.911  39.716  11.893
27408W        W99723  39.462  38.447   0.490
27409W        W99724  10.747  28.066   2.220
27410W        W99725  41.941  11.606  12.609
27411W        W99726  25.694   4.889  11.992
27412W        W99727  29.659   5.541   0.927
27413W        W99728  15.776  40.367   4.497
27414W        W99729  19.648  28.047  14.991
27415W        W99730  26.568   9.674  12.555
27416W        W99731  44.956  37.596   0.390
27417W        W99732  37.916  43.938   2.936
27418W        W99733  36.953  25.544   3.238
27419W        W99734  39.498  31.157  14.398
27420W        W99735  19.256  33.084  14.334
27421W        W99736  30.962  27.137   2.415
27422W        W99737  26.697  39.073   0.295
27423W        W99738  38.532   1.446  13.306
27424W        W99739  42.342  40.491   1.810
27425W        W99740  30.009   6.319  12.416
27426W        W99741  42.156   0.839  11.857
27427W        W99742   4.565  32.876   4.268
27428W        W99743  42.704   7.104   3.143
27429W        W99744  43.515   5.893   2.414
27430W        W99745   4.120  14.119  12.109
27431W        W99746   0.333  11.792   2.793
27432W        W99747  15.134   2.739   1.120
27433W        W99748  27.039  41.399  12.366
27434W        W99749  40.522   2.483   3.798
27435W        W99750  20.601  19.687   1.140
27436W        W99751  10.175   1.441   3.302
27437W        W99752  20.776  36.574   2.004
27438W        W99753  43.716  25.950  11.594
27439W        W99754  35.794  16.758   3.213
27440W        W99755  37.744   5.804   2.272
27441W        W99756  23.957   9.656  12.320
27442W        W99757  18.493  34.732   0.786
27443W        W99758  16.335   1.770   3.099
27444W        W99759   3.737  26.711  11.495
27445W        W99760   5.907  40.576  13.087
27446W        W99761  14.071   0.687  10.968
27447W        W99762  24.714  44.276  13.905
27448W        W99763  17.943  12.253  11.688
27449W        W99764  44.753  13.304   4.218
27450W        W99765  40.899  33.153   3.716
27451W        W99766  23.307  11.229   4.581
27452W        W99767  26.891  41.423   1.380
27453W        W99768  40.009   6.599   3.620
27454W        W99769  40.063   6.789   4.618
27455W        W99770  34.994  10.841   0.300
27456W        W99771  23.162  10.623  10.590
27457W        W99772  18.095  28.142   1.009
27458W        W99773   0.875  20.322  10.819
27459W        W99774  23.263   5.712  13.497
27460W        W99775  40.338  40.174  10.623
27461W        W99776  20.451  24.498   4.576
27462W        W99777  31.914  33.940   0.426
27463W        W99778   6.708  34.397   1.845
27464W        W99779  15.616  23.349   4.231
27465W        W99780  28.437  16.573   0.825
27466W        W99781  29.398  44.460  10.922
27467W        W99782   7.968  30.875  11.608
27468W        W99783  11.870  20.709   1.319
27469W        W99784  14.527   5.428   0.281
27470W        W99785  26.091   4.707   0.232
27471W        W99786  43.255   6.245   0.231
27472W        W99787  24.483  18.046  12.431
27473W        W99788  25.117  14.688   2.679
27474W        W99789  43.572  29.559  12.010
27475W        W99790  20.610  29.701  12.540
27476W        W99791  29.928  28.252  12.035
27477W        W99792   6.995  18.142   2.384
27478W        W99793  28.103  27.010   1.856
27479W        W99794   9.713  28.163   2.816
27480W        W99795  29.119   5.376  10.965
27481W        W99796  26.918  22.774  14.421
27482W        W99797  14.592  30.060   4.919
27483W        W99798  22.102   5.301   4.461
27484W        W99799  42.684  27.567  14.440
27485W        W99800   5.664  31.636  12.072
27486W        W99801  31.403  22.650   2.703
27487W        W99802  38.055  27.415   3.930
27488W        W99803   3.871  11.055  14.987
27489W        W99804  42.202  38.810   0.011
27490W        W99805  33.858  18.708  11.190
27491W        W99806  14.804  16.599  12.028
27492W        W99807  38.094  26.665   3.335
27493W        W99808  42.810   1.501   2.170
27494W        W99809  24.161  39.487   1.721
27495W        W99810  13.875  20.971  14.898
27496W        W99811  11.193  19.766   0.388
27497W        W99812  30.621  20.224   3.254
27498W        W99813  39.518  23.019   0.018
27499W        W99814   5.719  13.274   4.563
27500W        W99815  24.619   5.650   2.472
27501W        W99816  43.695  22.205   0.405
27502W        W99817  25.751   0.503  14.306
27503W        W99818  36.258  18.691  10.605
27504W        W99819  21.748  16.822  12.035
27505W        W99820  20.929  28.568   4.545
27506W        W99821  11.406  19.177  12.710
27507W        W99822  38.821  39.553   3.220
27508W        W99823   6.228  28.904  11.455
27509W        W99824   6.339   4.408  14.811
27510W        W99825  28.733  33.420   4.609
27511W        W99826  39.835   9.549  14.876
27512W        W99827  15.359  24.253  13.916
27513W        W99828  12.110  34.339   2.322
27514W        W99829  29.967  29.950   3.809
27515W        W99830   6.166  31.699   2.196
27516W        W99831  39.740  11.491   1.385
27517W        W99832  18.514  12.156   0.270
27518W        W99833  15.675  39.002  10.467
27519W        W99834  30.640  31.102   3.408
27520W        W99835  29.756  28.601  10.762
27521W        W99836   6.884  31.391  13.804
27522W        W99837  14.857  29.606   2.275
27523W        W99838   2.926  22.994  13.087
27524W        W99839  18.041  19.982   3.280
27525W        W99840  43.721  35.685  12.984
27526W        W99841  12.639  22.878   1.161
27527W        W99842  17.220  23.501  12.020
27528W        W99843  19.369   5.015   1.022
27529W        W99844  19.906  43.335   3.309
27530W        W99845  39.074  11.346   1.970
27531W        W99846   8.348  21.858   3.187
27532W        W99847  25.537  36.021  14.415
27533W        W99848  37.459  12.399  13.583
27534W        W99849  44.658  23.535   2.855
27535W        W99850  34.824  29.870  10.633
27536W        W99851   1.756  25.497  11.612
27537W        W99852  12.741  42.995  14.260
27538W        W99853  16.822  44.611  10.720
27539W        W99854   7.552   4.400  14.317
27540W        W99855   4.481   0.009  11.869
27541W        W99856  27.819  32.347   1.662
27542W        W99857   5.592  29.903   3.228
27543W        W99858  37.768   1.918   0.700
27544W        W99859  13.144   7.793  13.887
27545W        W99860  16.246  32.672  12.428
27546W        W99861  38.477  11.417   4.664
27547W        W99862  10.189  15.167  14.581
27548W        W99863  15.525  43.079   0.395
27549W        W99864  16.914  10.800  14.482
27550W        W99865  17.199   5.863   1.956
27551W        W99866  12.770  39.008   2.234
27552W        W99867  20.302  17.259  14.375
27553W        W99868  40.552  22.520  13.329
27554W        W99869   0.184  15.550   2.475
27555W        W99870  31.394   1.258   4.903
27556W        W99871   2.863  41.691   4.147
27557W        W99872  26.415  15.546  10.573
27558W        W99873  44.262   1.766   0.749
27559W        W99874  15.500  23.861   4.432
27560W        W99875   8.514  10.324  10.836
27561W        W99876  12.373  22.190   2.695
27562W        W99877  24.578  41.971  11.541
27563W        W99878  14.745  38.588  14.089
27564W        W99879   2.324  18.863  10.935
27565W        W99880  16.234  23.670   2.666
27566W        W99881  26.382  10.232   3.793
27567W        W99882  25.025  40.146   1.688
27568W        W99883  42.517  37.745  14.018
27569W        W99884  30.866   2.299  11.178
27570W        W99885  23.328  14.183   2.907
27571W        W99886  37.318  34.351   1.961
27572W        W99887  19.360  15.210   3.205
27573W        W99888  39.137  21.715  12.893
27574W        W99889  30.923  21.397  10.160
27575W        W99890  14.388  43.799   0.395
27576W        W99891  35.741   3.248   2.773
27577W        W99892  23.168   7.549  14.135
27578W        W99893  35.490   3.999   3.632
27579W        W99894  12.174  14.948  14.837
27580W        W99895  18.972   7.819  13.013
27581W        W99896  29.674  19.148   2.244
27582W        W99897  21.119  34.859   2.720
27583W        W99898  25.450  44.877  10.571
27584W        W99899  22.085   8.550   1.226
27585W        W99900  29.358  27.856   2.101
27586W        W99901  41.786  14.395   4.541
27587W        W99902   2.966  30.723   0.718
27588W        W99903  29.031   0.576  13.829
27589W        W99904  18.560   3.583  14.329
27590W        W99905  26.758   2.866   2.640
27591W        W99906  41.601  34.511   4.064
27592W        W99907  18.192   1.756   0.678
27593W        W99908   2.204  22.322  13.067
27594W        W99909  24.167  40.717   4.697
27595W        W99910  27.979  16.358   0.824
27596W        W99911  17.026  24.935   4.692
27597W        W99912  29.280  29.544  10.546
27598W        W99913  42.241  33.642  12.847
27599W        W99914  16.654  14.181  12.038
27600W        W99915   2.490  39.977   1.338
27601W        W99916  33.644  40.787  11.955
27602W        W99917  32.648  18.796  14.256
27603W        W99918  20.824  24.997  11.559
27604W        W99919  13.254  32.626   1.728
27605W        W99920   6.706   9.927   4.176
27606W        W99921  21.125  27.156  13.006
27607W        W99922  26.548  34.815  12.508
27608W        W99923  25.679   8.907   4.537
27609W        W99924  31.431  30.113   4.478
27610W        W99925  40.951  12.556   2.241
27611W        W99926  23.890   8.974  12.961
27612W        W99927   6.040  40.800  10.793
27613W        W99928   8.965   0.047   2.206
27614W        W99929  37.354  43.815  12.599
27615W        W99930  22.158  29.214   2.898
27616W        W99931  12.093  41.035  11.487
27617W        W99932  23.256   1.545   0.714
27618W        W99933  42.362  29.505  11.650
27619W        W99934   9.680   0.197   2.041
27620W        W99935  32.627  21.486  14.796
27621W        W99936  27.616  13.665  13.224
27622W        W99937  41.413   0.841  14.075
27623W        W99938  13.686  21.284   0.247
27624W        W99939  33.643   3.953   4.112
27625W        W99940  31.602  36.151   3.209
27626W        W99941  16.507  43.340  11.095
27627W        W99942  20.111   0.867   0.400
27628W        W99943  30.488   3.058  14.850
27629W        W99944  43.301  11.820  13.643
27630W        W99945   2.319  13.157   1.794
27631W        W99946   4.063   4.179  11.239
27632W        W99947   4.263  44.957   2.948
27633W        W99948   6.887  15.315  12.552
27634W        W99949  26.740   4.708  11.209
27635W        W99950   6.509  19.496   5.042
27636W        W99951  31.589  29.866  13.777
27637W        W99952  44.268  41.843  14.443
27638W        W99953  27.939  42.271   1.359
27639W        W99954  28.341  19.602  12.564
27640W        W99955  25.115  14.225  12.824
27641W        W99956   0.413   0.426  11.431
27642W        W99957   7.412  16.999  10.753
27643W        W99958  29.696  17.242   0.033
27644W        W99959  24.037  34.062  12.049
27645W        W99960  11.393  16.832   5.572
27646W        W99961   7.181  17.295  11.148
27647W        W99962  43.717  43.936  10.711
27648W        W99963  33.959  28.094   1.732
27649W        W99964  30.362  24.668   1.911
27650W        W99965  28.959  34.109  14.940
27651W        W99966   2.381  33.331  11.434
27652W        W99967   8.573  43.046  10.479
27653W        W99968  20.127  23.823  13.744
27654W        W99969  27.287  19.543  10.671
27655W        W99970  42.288  40.365   0.925
27656W        W99971   3.727  16.466  14.724
27657W        W99972  38.501  29.185  14.123
27658W        W99973  21.916  29.116  12.540
27659W        W99974   5.771   8.049   4.777
27660W        W99975  34.577  28.768   2.273
27661W        W99976  15.641   1.423  11.604
27662W        W99977  37.413  41.953   2.519
27663W        W99978  15.041   3.319   0.345
27664W        W99979  38.473  29.662   3.898
27665W        W99980  40.578  23.688   5.097
27666W        W99981  33.594  33.534   3.250
27667W        W99982   4.211  27.047   2.922
27668W        W99983  39.932  19.153  12.186
27669W        W99984  38.767  35.312   2.570
27670W        W99985  22.766   0.646  14.867
27671W        W99986  35.443  16.204   2.275
27672W        W99987   6.432   6.269  14.021
27673W        W99988  44.658  21.089   2.764
27674W        W99989  32.357  25.697  11.615
27675W        W99990  15.114   3.230   1.299
27676W        W99991  42.495  44.618  11.997
27677W        W99992  26.016  29.596   3.396
27678W        W99993  40.519  26.240  12.403
27679W        W99994   9.659  11.344  12.174
27680W        W99995  12.334  23.350   3.194
27681W        W99996   5.207  37.386  12.902
27682W        W99997  32.112  41.277   2.649
27683W        W99998   9.734  33.022   1.693
27684W        W99999  11.344  20.619  11.586
27685W        W    0  27.867   5.360  10.427
27686W        W    1  22.972  17.260  10.762
27687W        W    2  39.031   9.349   3.261
27688W        W    3   7.263  10.187  10.390
27689W        W    4  19.580  40.463   9.797
27690W        W    5   0.263   9.895  14.296
27691W        W    6  16.754  42.915   4.077
27692W        W    7  38.826   7.363  11.975
27693W        W    8   3.944   9.638  13.453
27694W        W    9  41.232  43.015   2.767
27695W        W   10   0.872  11.323   1.492
27696W        W   11   9.711  36.066  10.642
27697W        W   12  43.722   0.734  13.058
27698W        W   13  17.868  24.226   1.028
27699W        W   14   3.891   2.680  11.107
27700W        W   15  37.584   6.156  12.117
27701W        W   16   8.523  31.727   0.917
27702W        W   17   2.513  34.659   2.268
27703W        W   18  41.365   5.190   2.775
27704W        W   19  29.618  21.167  14.478
27705W        W   20  19.537   0.897  14.276
27706W        W   21   1.872   6.722   4.456
27707W        W   22  33.108  36.823   4.593
27708W        W   23  26.476  44.834  10.489
27709W        W   24  37.396  11.377   3.196
27710W        W   25  13.700  26.390   4.178
27711W        W   26  40.836  21.865  11.736
27712W        W   27   7.983   8.294  11.907
27713W        W   28  41.104  42.362  14.735
27714W        W   29  43.220   1.149  11.538
27715W        W   30  18.165  17.724  11.031
27716W        W   31  44.075  38.514   2.003
27717W        W   32  31.974   4.410  12.938
27718W        W   33  12.180   9.844  11.074
27719W        W   34   0.605  32.221  10.710
27720W        W   35  23.591  35.507  14.807
27721W        W   36   3.406  22.738  13.768
27722W        W   37  28.233  25.518   2.880
27723W        W   38  31.886  29.193  12.108
27724W        W   39   0.903  11.670   0.942
27725W        W   40  29.502   7.109   4.241
27726W        W   41  34.689  35.524   4.717
27727W        W   42  40.377  16.286  10.993
27728W        W   43  37.093  30.579  11.557
27729W        W   44  10.804  24.713   0.969
27730W        W   45   0.456  28.931   0.274
27731W        W   46  43.443  13.764   0.573
27732W        W   47  25.393   3.874  14.331
27733W        W   48  28.949  26.621  10.363
27734W        W   49  35.159  32.854  13.674
27735W        W   50   0.334  13.816   0.680
27736W        W   51  16.745   7.425   4.111
27737W        W   52   5.863  30.340   3.828
27738W        W   53  11.822  34.896   3.121
27739W        W   54  15.534  37.093   1.864
27740W        W   55  26.097  38.346  13.292
27741W        W   56  30.732  44.453   1.349
27742W        W   57  43.230  44.821  12.978
27743W        W   58  13.684  23.150  14.702
27744W        W   59  31.645  22.004  14.460
27745W        W   60  35.924  22.631   5.031
27746W        W   61   5.095   2.970  13.123
27747W        W   62   5.347   1.442  13.718
27748W        W   63  11.877  15.709  10.927
27749W        W   64  25.479   2.870   3.071
27750W        W   65   4.896  19.077   3.870
27751W        W   66  40.794  23.120  10.433
27752W        W   67  29.935  14.697  10.906
27753W        W   68  11.101  34.508  11.103
27754W        W   69   0.470  17.421   1.359
27755W        W   70  37.836  37.193   2.877
27756W        W   71  28.873  22.476  11.725
27757W        W   72  15.389   0.997  11.401
27758W        W   73  18.638  30.214   4.714
27759W        W   74  41.471  33.796  13.829
27760W        W   75  12.916   7.215  11.039
27761W        W   76  26.465  15.020   0.291
27762W        W   77  10.405  26.241   0.526
27763W        W   78   3.496  39.110   1.268
27764W        W   79  15.990   3.910  14.741
27765W        W   80  40.016   0.994  10.276
27766W        W   81  18.027  16.515   0.331
27767W        W   82  10.768  37.135   2.830
27768W        W   83  12.271  35.527   3.509
27769W        W   84  43.523  26.202   2.312
27770W        W   85  30.826  22.685   3.998
27771W        W   86  17.897  28.100  14.125
27772W        W   87   4.284  25.426   4.564
27773W        W   88  28.699  13.165   1.716
27774W        W   89  40.948  27.240   2.227
27775W        W   90  33.323  43.322   0.184
27776W        W   91  19.068  37.818  13.633
27777W        W   92  37.050   4.347   3.757
27778W        W   93  19.236  12.128  13.518
27779W        W   94  17.361  17.626  13.151
27780W        W   95  39.907  32.704  12.074
27781W        W   96  41.414  33.049  11.019
27782W        W   97  17.703   9.733  11.085
27783W        W   98  25.724   1.712  10.979
27784W        W   99   1.731   6.257  11.586
27785W        W  100  23.237  24.036   2.219
27786W        W  101  23.073  18.579   9.726
27787W        W  102   3.793  43.289   4.062
27788W        W  103  31.085  26.861  11.375
27789W        W  104  27.595   8.624  12.305
27790W        W  105  13.849  35.047  14.484
27791W        W  106   3.962  22.028   0.474
27792W        W  107   0.900  16.846  12.944
27793W        W  108  31.579  42.267  11.630
27794W        W  109  11.234  19.627  11.403
27795W        W  110  14.258  24.945  13.331
27796W        W  111  20.277  20.288   3.768
27797W        W  112  41.500  27.119  10.714
27798W        W  113  15.219   9.758  12.251
27799W        W  114  12.191  24.026  12.802
27800W        W  115  35.344   1.260   0.379
27801W        W  116  32.304  14.012   1.326
27802W        W  117   6.668  29.716   1.552
27803W        W  118  10.924  34.176  13.209
27804W        W  119  14.225  41.335   3.612
27805W        W  120  21.124  17.585  10.789
27806W        W  121  12.320  23.745  10.595
27807W        W  122  30.463  28.300   1.390
27808W        W  123  43.371  31.492   1.818
27809W        W  124  18.085  20.469   4.863
27810W        W  125   1.312   1.742  14.020
27811W        W  126   3.772  17.716   1.926
27812W        W  127  42.063  21.525  11.973
27813W        W  128  44.514  12.738  12.282
27814W        W  129  31.558  16.178   2.814
27815W        W  130   8.782   5.383  12.104
27816W        W  131   2.417  23.256   3.787
27817W        W  132   9.707   1.309  13.021
27818W        W  133  14.166  15.783  11.935
27819W        W  134   8.334  28.937  12.592
27820W        W  135  33.591  26.024  10.710
27821W        W  136   3.825  22.725  14.725
27822W        W  137  15.184  12.410   4.369
27823W        W  138  35.092  12.238  10.975
27824W        W  139  14.104  43.452   1.832
27825W        W  140  29.360  44.549  14.119
27826W        W  141  15.357  34.450  13.802
27827W        W  142  39.495  21.489  12.614
27828W        W  143   0.398  15.993  11.492
27829W        W  144  12.591  28.382  14.832
27830W        W  145  38.770  41.015   1.300
27831W        W  146  40.172  43.201  14.361
27832W        W  147  24.745  22.753   4.112
27833W        W  148   0.834  33.670  11.610
27834W        W  149  34.616  28.065   4.458
27835W        W  150  14.381  10.833  11.035
27836W        W  151   7.387   2.030  14.400
27837W        W  152   7.512   3.865   1.756
27838W        W  153  29.152  29.658  14.414
27839W        W  154   2.937  39.515  14.781
27840W        W  155  21.192  23.266   4.558
27841W        W  156   8.571  34.374   0.287
27842W        W  157  43.390  26.100  10.747
27843W        W  158  22.692  14.808   3.797
27844W        W  159  38.024   6.710   4.844
27845W        W  160  39.229   3.201  11.356
27846W        W  161   4.706  41.344  14.863
27847W        W  162  41.975  27.414   3.244
27848W        W  163  32.569  13.328   4.471
27849W        W  164  12.924   6.258   1.812
27850W        W  165   6.435  28.051   4.533
27851W        W  166  18.070  16.600  10.787
27852W        W  167   1.080  41.919   1.890
27853W        W  168  44.809  24.718   2.433
27854W        W  169  17.552  30.305   0.327
27855W        W  170   7.689  44.929   0.398
27856W        W  171   4.566   7.452   2.743
27857W        W  172  34.438  19.713  11.290
27858W        W  173   5.225   8.385  12.369
27859W        W  174   8.701  13.569  11.182
27860W        W  175  22.283   3.216   4.138
27861W        W  176  26.597  44.547   0.993
27862W        W  177  41.088  29.573  14.370
27863W        W  178  20.287  37.900  11.221
27864W        W  179  13.663   8.372  14.957
27865W        W  180  41.345   8.909  12.482
27866W        W  181  43.990  32.658  11.612
27867W        W  182  42.736  11.787   4.590
27868W        W  183  40.726  41.671  13.825
27869W        W  184  18.225  32.232   1.412
27870W        W  185  28.647  22.471  12.854
27871W        W  186  22.278  16.778  13.536
27872W        W  187  27.748  37.751  14.289
27873W        W  188  12.343  23.688   4.056
27874W        W  189  14.901  20.902  13.291
27875W        W  190  11.876  34.619   2.703
27876W        W  191  38.466   8.982   1.804
27877W        W  192  10.102  28.266  11.124
27878W        W  193  14.767  42.480  10.646
27879W        W  194  18.074  29.477  11.234
27880W        W  195  11.777  21.855  10.483
27881W        W  196   2.892  41.657  11.479
27882W        W  197  44.002  32.844   1.681
27883W        W  198  23.775  30.877   0.981
27884W        W  199  24.571  27.960  13.416
27885W        W  200  15.885   7.746  14.935
27886W        W  201   1.886  28.531  13.257
27887W        W  202  16.118   0.524  11.692
27888W        W  203   4.361   7.206   3.690
27889W        W  204  34.789  26.247  11.166
27890W        W  205   1.423  11.792  12.466
27891W        W  206  22.029  44.831   1.396
27892W        W  207  28.142   4.664   1.325
27893W        W  208  25.079   5.752  13.081
27894W        W  209  26.334   3.862  10.380
27895W        W  210  31.927  18.373  14.900
27896W        W  211   2.235  19.249   2.538
27897W        W  212  42.352  15.259   3.381
27898W        W  213  24.565   7.400   3.088
27899W        W  214  40.404  37.248  10.397
27900W        W  215  17.148  39.795  14.535
27901W        W  216  18.616  43.301   1.869
27902W        W  217  33.934  30.216   3.714
27903W        W  218   4.361  39.046  12.924
27904W        W  219  23.130  11.221   1.359
27905W        W  220  23.076  40.341   3.356
27906W        W  221   3.933   0.853  12.156
27907W        W  222   3.692   9.350  14.971
27908W        W  223  13.580  26.486  10.568
27909W        W  224  35.021  23.585  14.357
27910W        W  225  32.042  29.418   4.096
27911W        W  226   2.227  37.904  14.982
27912W        W  227  10.421   6.851   1.896
27913W        W  228  40.881  34.454  13.765
27914W        W  229  19.711   6.685   0.369
27915W        W  230  11.711  19.641   4.689
27916W        W  231  36.086   7.151   2.077
27917W        W  232   5.819  42.280  10.781
27918W        W  233  17.783  14.279  10.422
27919W        W  234  19.454  40.131   0.802
27920W        W  235  22.243   0.550  12.894
27921W        W  236  12.577   4.736   1.832
27922W        W  237  21.018  34.810   1.732
27923W        W  238  44.234  13.406  14.499
27924W        W  239  19.574  23.189  11.213
27925W        W  240  29.118  25.711  11.642
27926W        W  241  11.212  24.618  14.769
27927W        W  242  31.443  18.777   0.629
27928W        W  243   0.028  44.531  12.982
27929W        W  244  37.033  37.556  13.969
27930W        W  245  44.232  18.631   1.702
27931W        W  246   3.541  24.543   2.598
27932W        W  247  26.534  12.689   4.355
27933W        W  248  41.299  41.942   0.066
27934W        W  249  30.217   4.853  13.347
27935W        W  250  37.578  12.469   2.249
27936W        W  251   3.380   9.106  11.924
27937W        W  252   3.872  21.480  13.522
27938W        W  253   3.731  21.745   3.697
27939W        W  254  44.957  39.010   3.832
27940W        W  255  29.775  35.842  12.104
27941W        W  256  40.823  16.164   0.093
27942W        W  257  43.006  33.581  14.296
27943W        W  258  21.256  41.346   0.496
27944W        W  259  18.533  18.751  12.412
27945W        W  260  30.929  26.684   2.192
27946W        W  261  19.961  10.775   3.185
27947W        W  262  43.542  21.990   0.857
27948W        W  263   7.439   8.336  13.816
27949W        W  264  32.671  40.549   2.967
27950W        W  265   4.706  37.107  13.000
27951W        W  266  20.284  41.831  12.108
27952W        W  267   3.446  20.376  11.199
27953W        W  268  34.583  27.652  13.436
27954W        W  269  42.616   9.705  14.885
27955W        W  270  42.581  25.149   1.359
27956W        W  271  41.639  12.098  11.396
27957W        W  272  17.745  42.929   4.707
27958W        W  273  29.404  33.753   3.432
27959W        W  274   7.262   4.656  10.681
27960W        W  275  31.455   7.956  10.738
27961W        W  276   9.392  30.549   0.406
27962W        W  277  13.169  33.810  12.708
27963W        W  278  14.931  22.098  11.396
27964W        W  279  40.835  10.388  13.498
27965W        W  280  43.966  43.307  13.576
27966W        W  281  39.353  17.984  14.792
27967W        W  282  37.010  32.312  13.922
27968W        W  283  18.165  31.929   2.801
27969W        W  284  44.675  25.095   1.758
27970W        W  285   8.644  23.582  13.352
27971W        W  286  39.460  42.024   0.361
27972W        W  287  20.617  24.471  10.700
27973W        W  288  13.491  16.757   1.137
27974W        W  289  20.557  34.915   2.548
27975W        W  290  18.110  36.617   1.634
27976W        W  291  16.544  13.199   1.330
27977W        W  292  30.486  21.990   0.190
27978W        W  293  35.887  37.142   4.334
27979W        W  294  30.184  33.342   0.511
27980W        W  295  44.430  39.737  12.938
27981W        W  296  30.930  35.393   3.346
27982W        W  297  30.873   3.632  11.432
27983W        W  298  15.794   6.267   1.150
27984W        W  299  29.034  22.551   2.644
27985W        W  300  12.849  15.763   1.756
27986W        W  301  24.700  28.700   2.831
27987W        W  302  41.051   4.353   3.579
27988W        W  303   8.732  15.067   1.966
27989W        W  304  15.784  38.919   4.662
27990W        W  305  27.509  24.585   3.233
27991W        W  306   3.077  11.825   2.245
27992W        W  307  16.660  34.948   0.526
27993W        W  308   5.656   0.405  14.845
27994W        W  309  15.311  21.770  12.815
27995W        W  310  24.261   9.925   0.397
27996W        W  311  22.675  36.055   4.492
27997W        W  312  22.176  32.364  11.203
27998W        W  313  21.505   1.957   0.832
27999W        W  314  12.083  11.832   0.730
28000W        W  315  22.580  40.821  14.289
28001W        W  316  10.209  25.169   4.527
28002W        W  317  28.526  29.684   3.336
28003W        W  318  28.571  18.963   3.579
28004W        W  319  25.846  31.143   2.044
28005W        W  320  41.238  17.579   2.445
28006W        W  321  15.552  10.095   2.730
28007W        W  322  40.992   3.871   2.323
28008W        W  323  37.142  40.401   3.524
28009W        W  324  21.612  12.875   1.652
28010W        W  325  33.637  33.785  10.672
28011W        W  326  36.856   1.797  14.056
28012W        W  327  22.164  12.859  13.389
28013W        W  328  19.696  37.776  13.924
28014W        W  329  37.548  35.089   2.831
28015W        W  330  14.629   9.592   1.799
28016W        W  331  14.780  27.663  14.086
28017W        W  332  29.093  36.079   0.060
28018W        W  333  23.604  43.895   4.781
28019W        W  334  40.485  16.754   2.283
28020W        W  335  35.505  31.654   3.514
28021W        W  336  15.251  21.917  11.733
28022W        W  337  16.827  14.751   1.437
28023W        W  338   3.704  15.970  14.636
28024W        W  339  13.989  33.106   0.107
28025W        W  340  17.641  28.432   4.245
28026W        W  341  15.690  21.534   2.350
28027W        W  342  12.295  13.091  12.722
28028W        W  343  43.396  22.845  13.325
28029W        W  344  37.785   5.307  11.451
28030W        W  345  24.922  38.881   1.169
28031W        W  346  40.254  13.211  14.809
28032W        W  347  29.217  29.764   2.209
28033W        W  348   3.148  26.939  11.033
28034W        W  349  21.024  37.279  12.613
28035W        W  350  38.885  27.119  10.257
28036W        W  351  25.236  13.327  11.535
28037W        W  352  35.960  38.295  13.555
28038W        W  353  42.927  20.562   2.946
28039W        W  354  36.989  32.553  14.379
28040W        W  355   6.819  37.810   0.884
28041W        W  356  17.399  12.815   0.432
28042W        W  357   8.383  26.103   1.214
28043W        W  358   4.319  19.897   3.290
28044W        W  359  37.267  13.282  13.441
28045W        W  360   6.410  32.409  13.596
28046W        W  361  18.695  27.374  13.168
28047W        W  362  12.144  22.222   1.471
28048W        W  363  22.583  29.965  11.682
28049W        W  364  21.674   1.351  12.646
28050W        W  365  13.121   9.859  12.480
28051W        W  366  24.177   2.444  11.155
28052W        W  367  34.314  41.074  14.937
28053W        W  368   7.355  44.488  12.607
28054W        W  369  44.081  20.066  12.951
28055W        W  370   0.952  23.939   4.557
28056W        W  371  22.816  23.237  13.474
28057W        W  372  25.183   1.258   2.551
28058W        W  373  23.133   7.843  11.165
28059W        W  374  28.952   9.039  13.404
28060W        W  375  31.702   0.425  14.265
28061W        W  376  32.906  11.176   1.171
28062W        W  377   8.413  41.146   0.699
28063W        W  378  31.210   3.811   1.704
28064W        W  379  28.661  16.145  12.909
28065W        W  380  11.849  32.449   2.030
28066W        W  381  24.451  40.896  12.825
28067W        W  382  12.985   5.954  14.781
28068W        W  383  21.641  38.450  13.614
28069W        W  384  30.575   9.942   4.407
28070W        W  385  37.502   0.317   2.182
28071W        W  386  32.465  24.884   0.845
28072W        W  387   4.468  42.797  10.478
28073W        W  388  35.622  41.412   1.679
28074W        W  389  40.430  23.777  11.594
28075W        W  390  44.564   0.414  13.090
28076W        W  391  13.554  40.733   3.212
28077W        W  392  17.124  28.632   4.699
28078W        W  393  17.715   2.003  10.368
28079W        W  394  36.401  19.959   1.795
28080W        W  395  27.415  21.500  13.489
28081W        W  396  43.916  32.990  12.943
28082W        W  397  18.574  27.068  14.461
28083W        W  398  24.952  12.807   3.255
28084W        W  399  16.601  28.356  10.578
28085W        W  400  44.406   3.072  11.072
28086W        W  401   3.919  17.967  14.836
28087W        W  402  29.098  34.117  13.301
28088W        W  403  19.111  15.988   4.702
28089W        W  404  17.194  42.459   4.637
28090W        W  405  40.993  19.967  13.999
28091W        W  406  12.631  29.723   0.325
28092W        W  407  25.008  32.562  10.139
28093W        W  408  13.720  34.959  12.358
28094W        W  409  42.812   2.359   0.585
28095W        W  410  39.546  10.223   3.338
28096W        W  411  43.997  44.167   0.447
28097W        W  412  43.535  31.179   3.357
28098W        W  413  28.541  27.293   1.902
28099W        W  414  27.973  17.082   3.947
28100W        W  415  43.143  12.101  12.835
28101W        W  416  16.601  27.660  13.193
28102W        W  417   9.904  41.040   3.303
28103W        W  418  39.942   2.421   3.919
28104W        W  419  17.232  39.752   3.184
28105W        W  420  21.561  27.200   0.038
28106W        W  421   8.253  19.005  13.422
28107W        W  422  40.516  18.666  10.778
28108W        W  423  16.148  11.868   3.652
28109W        W  424  37.125  30.233   1.776
28110W        W  425   2.759  33.885   4.665
28111W        W  426  15.755   6.139   0.240
28112W        W  427   2.344   0.855  11.844
28113W        W  428   9.163  35.879  14.098
28114W        W  429  40.629  11.177   2.841
28115W        W  430  31.094   8.221   0.793
28116W        W  431  44.873  11.007  13.122
28117W        W  432   4.620   9.467   1.321
28118W        W  433  25.723  41.788   0.005
28119W        W  434  12.762  10.142   1.874
28120W        W  435   9.306  24.086   4.858
28121W        W  436  32.475   2.741  12.743
28122W        W  437  42.177   5.230   2.174
28123W        W  438   7.204  24.482  12.558
28124W        W  439  29.398  16.399  14.386
28125W        W  440  20.063  17.196   0.317
28126W        W  441   6.979  13.244  12.037
28127W        W  442  12.449  35.310   2.613
28128W        W  443  39.838   6.189   3.344
28129W        W  444   7.755   7.569   1.137
28130W        W  445  41.270  12.296   1.896
28131W        W  446  22.557   4.019  13.014
28132W        W  447   2.851  11.565   3.391
28133W        W  448  17.105  22.243  11.478
28134W        W  449   0.033  40.462   2.358
28135W        W  450   3.350   1.475   2.912
28136W        W  451  18.377  25.196   0.914
28137W        W  452  22.159  39.007   3.275
28138W        W  453  13.958  28.336  11.228
28139W        W  454  22.312  35.591   3.958
28140W        W  455  34.868  32.507  13.987
28141W        W  456   3.893  13.715  11.475
28142W        W  457  33.595  19.252  11.187
28143W        W  458   6.593  14.282   2.597
28144W        W  459  31.443  24.146   0.461
28145W        W  460   1.509  37.833   4.924
28146W        W  461  15.285  23.692   2.655
28147W        W  462  25.308   6.682  14.392
28148W        W  463  18.002  44.004  13.584
28149W        W  464   5.930  43.957   2.235
28150W        W  465  35.336  24.653  14.858
28151W        W  466   9.757  31.410   4.569
28152W        W  467  29.327  38.892   4.073
28153W        W  468  25.969  37.009  14.798
28154W        W  469  41.272  33.299   0.257
28155W        W  470  40.973  38.772   2.256
28156W        W  471  30.152  11.665   4.152
28157W        W  472   3.029  18.108   1.699
28158W        W  473  34.784  30.075  13.503
28159W        W  474  13.849  29.575   4.651
28160W        W  475  23.232  25.332   3.928
28161W        W  476  27.898   0.337   4.652
28162W        W  477  41.685  24.402  10.918
28163W        W  478  34.864  12.097   3.261
28164W        W  479   6.035  17.748   2.907
28165W        W  480   6.217  31.144   2.300
28166W        W  481  25.219  41.006   1.899
28167W        W  482   2.480   2.528   3.553
28168W        W  483   5.686   8.835   2.736
28169W        W  484  25.144   7.477   2.221
28170W        W  485  25.554   2.067   0.678
28171W        W  486  24.064  15.144   1.485
28172W        W  487  33.583  19.044  13.133
28173W        W  488   9.563   7.777  12.815
28174W        W  489  16.197  28.535   2.933
28175W        W  490  39.410  17.707  13.425
28176W        W  491  23.587   3.653  12.688
28177W        W  492  21.584  24.513   0.988
28178W        W  493  17.426  19.603  11.693
28179W        W  494   5.774  38.565  10.699
28180W        W  495  39.092  21.024   0.294
28181W        W  496  26.927  31.985  11.542
28182W        W  497  15.816  37.905  14.344
28183W        W  498   0.877   8.155   4.132
28184W        W  499   4.814  23.714   4.480
28185W        W  500  10.865  44.534  12.499
28186W        W  501   0.270  32.973  12.169
28187W        W  502  30.557  18.929   2.873
28188W        W  503  23.162   0.962  14.958
28189W        W  504  24.921  33.911   3.639
28190W        W  505   9.980   5.696  14.423
28191W        W  506  19.938  39.041  12.315
28192W        W  507   8.810  29.602  11.484
28193W        W  508  27.945  43.802  14.384
28194W        W  509  40.424   2.196  14.521
28195W        W  510  29.851  30.143  10.945
28196W        W  511  19.648  31.302  14.161
28197W        W  512  38.561  14.267  14.561
28198W        W  513  24.643  34.685  12.454
28199W        W  514  34.660   6.111   2.804
28200W        W  515  31.930  26.510   1.346
28201W        W  516  30.177  19.303   0.349
28202W        W  517  18.042  19.722  14.748
28203W        W  518  29.408  29.216  10.939
28204W        W  519  37.825  36.864  12.618
28205W        W  520   9.620  34.345  13.570
28206W        W  521  34.649  33.580  11.481
28207W        W  522  18.844  43.189  12.935
28208W        W  523  34.680  28.452   1.245
28209W        W  524  18.871  10.492   4.567
28210W        W  525  44.775  40.613   3.883
28211W        W  526   0.300  23.193   0.726
28212W        W  527   6.325  21.824   2.488
28213W        W  528  36.067  31.923  12.148
28214W        W  529   2.729   5.874   1.079
28215W        W  530   8.194  36.853   3.222
28216W        W  531  41.268   0.233  12.065
28217W        W  532  34.145   6.831   0.426
28218W        W  533  22.078   4.909  14.727
28219W        W  534  34.859   0.928   3.940
28220W        W  535  23.235  29.930  14.553
28221W        W  536  22.930  37.518  10.441
28222W        W  537   3.149  20.108   2.560
28223W        W  538  11.675   1.946   1.583
28224W        W  539  23.989  44.774   0.363
28225W        W  540   2.954  15.014   1.837
28226W        W  541  20.116   1.111   4.103
28227W        W  542  34.212  42.480   3.360
28228W        W  543   3.965  29.498   3.169
28229W        W  544  15.113   8.873  10.991
28230W        W  545   3.008  34.345  14.301
28231W        W  546  36.347  33.676  11.879
28232W        W  547  14.039  36.265   3.709
28233W        W  548  18.305   9.678   2.776
28234W        W  549  39.463  23.812  11.432
28235W        W  550  20.580   9.231   3.661
28236W        W  551  17.511   8.000  13.045
28237W        W  552  34.312  19.686  10.809
28238W        W  553  41.295  31.187   2.522
28239W        W  554   6.881  31.566  12.125
28240W        W  555  28.472  31.484   2.860
28241W        W  556  22.397  34.428   3.941
28242W        W  557  28.958  41.397  11.873
28243W        W  558  39.575  25.766  12.833
28244W        W  559  14.851  40.842   3.666
28245W        W  560  19.235  35.849  13.140
28246W        W  561  44.360   3.825   1.869
28247W        W  562  20.834  32.955   4.251
28248W        W  563  10.799   9.589  12.451
28249W        W  564  43.466  25.659   3.788
28250W        W  565  20.349  16.229   0.875
28251W        W  566  10.371  29.098   3.850
28252W        W  567  13.723  12.934   3.699
28253W        W  568  22.594  28.219   1.256
28254W        W  569  44.825  22.660  10.608
28255W        W  570  19.292  27.034   4.820
28256W        W  571   0.929  32.400   0.704
28257W        W  572   6.701  27.293  14.366
28258W        W  573   4.074  20.802  14.295
28259W        W  574   7.947  17.173   2.264
28260W        W  575  10.248  26.612   0.856
28261W        W  576   7.783  14.536  14.246
28262W        W  577  27.012  37.852   2.253
28263W        W  578  40.375  13.566  10.739
28264W        W  579  38.382  37.384  10.236
28265W        W  580   2.695  40.729  13.882
28266W        W  581  10.324  11.256   2.446
28267W        W  582   3.692  10.596   0.182
28268W        W  583   5.663  15.300   4.625
28269W        W  584  44.907  19.772  11.987
28270W        W  585  37.436  40.112  14.669
28271W        W  586  28.880  35.067  11.999
28272W        W  587  42.115  23.999   3.743
28273W        W  588   4.729  31.597  13.664
28274W        W  589  32.101   0.193   3.303
28275W        W  590  34.546  38.559   1.631
28276W        W  591  17.093  40.631  11.076
28277W        W  592   9.302   1.354  11.874
28278W        W  593   9.220  32.972  12.070
28279W        W  594  38.192  22.990   4.936
28280W        W  595   5.479  18.343  12.524
28281W        W  596  42.069  33.989   1.775
28282W        W  597  30.919  34.553  13.792
28283W        W  598   0.546   0.030  11.754
28284W        W  599   6.606  29.089  14.529
28285W        W  600  36.559  44.881  13.732
28286W        W  601  31.149  32.874   1.226
28287W        W  602  15.757  40.021  14.873
28288W        W  603  23.527   0.400  12.813
28289W        W  604  35.544   0.732   0.064
28290W        W  605  19.712   9.242  10.344
28291W        W  606  44.647   5.423  12.045
28292W        W  607   0.396  32.617   4.855
28293W        W  608  40.953  15.381  10.813
28294W        W  609  30.411  36.381  14.343
28295W        W  610  17.307  15.391   1.385
28296W        W  611  18.104  15.218   2.581
28297W        W  612  13.918  25.167   9.808
28298W        W  613  41.112   2.766   0.008
28299W        W  614  40.050   4.424   3.503
28300W        W  615  18.144   7.366  14.354
28301W        W  616  20.668  22.738   3.153
28302W        W  617  32.520  30.852  14.444
28303W        W  618  26.442  21.116  10.479
28304W        W  619   3.219  28.640   2.339
28305W        W  620  16.184  35.462   4.937
28306W        W  621   9.563  28.324   1.728
28307W        W  622  15.125  21.235   3.239
28308W        W  623  39.701  12.780   2.999
28309W        W  624  15.647  34.108   3.111
28310W        W  625  34.386  14.303  14.141
28311W        W  626   4.237   2.707   0.594
28312W        W  627  17.836  15.524   0.279
28313W        W  628  24.731  26.698  10.781
28314W        W  629  12.856   5.092   0.671
28315W        W  630   2.496  14.217   0.808
28316W        W  631  27.942  17.373  11.036
28317W        W  632  23.110  11.842  11.135
28318W        W  633  11.334  23.192  14.746
28319W        W  634  35.014  41.563  13.910
28320W        W  635  39.267  19.984  13.351
28321W        W  636  21.189  14.167   2.892
28322W        W  637  11.508  14.217   4.737
28323W        W  638  13.290   6.506   3.676
28324W        W  639  33.408  44.724  12.937
28325W        W  640  27.678  44.314  10.894
28326W        W  641  26.817  31.709  13.967
28327W        W  642   5.191  38.639   9.932
28328W        W  643  27.607  40.515  10.350
28329W        W  644  28.603   3.649  10.242
28330W        W  645  17.345  40.903  12.906
28331W        W  646  28.364  12.984   2.403
28332W        W  647  36.903  37.319  11.467
28333W        W  648  31.147   4.656   3.666
28334W        W  649  33.533  35.660  13.426
28335W        W  650  40.215   4.998   5.035
28336W        W  651   2.849  38.105   0.719
28337W        W  652   8.898  27.274   3.154
28338W        W  653  11.716  18.321   2.707
28339W        W  654   2.238  13.550  14.388
28340W        W  655  13.610  37.992  11.567
28341W        W  656  31.543  28.940   2.367
28342W        W  657  27.423  15.642   0.889
28343W        W  658  13.310  43.099  13.535
28344W        W  659  24.029  23.019   4.834
28345W        W  660   0.518  38.141   0.764
28346W        W  661  37.615   2.427   4.246
28347W        W  662  17.653  13.619   2.373
28348W        W  663  15.862  16.719  10.590
28349W        W  664  40.963  22.248   4.207
28350W        W  665  31.973  39.424   3.299
28351W        W  666  35.251  33.888   1.535
28352W        W  667   5.598  30.388   2.357
28353W        W  668   9.947  33.501  10.491
28354W        W  669  39.311  40.842  11.067
28355W        W  670  31.487  28.439   2.275
28356W        W  671   8.872  32.655  11.111
28357W        W  672  20.154  44.981   3.918
28358W        W  673  30.630  29.398   4.217
28359W        W  674  34.673  32.983  13.897
28360W        W  675  37.151  27.934   2.501
28361W        W  676   9.360  22.517  11.613
28362W        W  677  26.356  18.201  14.415
28363W        W  678  38.352  22.050   1.036
28364W        W  679  34.053   2.240  14.032
28365W        W  680  22.931  12.144  12.459
28366W        W  681  32.102  11.061   1.486
28367W        W  682  40.288   8.905  11.891
28368W        W  683  30.673  38.445  12.086
28369W        W  684  36.580  25.079   2.546
28370W        W  685  22.091   9.175   4.486
28371W        W  686  27.578  21.128   4.558
28372W        W  687  32.662  43.863  12.940
28373W        W  688  36.371   7.783  12.397
28374W        W  689   6.951  32.410   1.739
28375W        W  690  11.340  19.501   0.830
28376W        W  691   1.385   1.048   0.821
28377W        W  692  25.486  27.236   1.319
28378W        W  693   4.704  17.054  10.383
28379W        W  694  37.536  35.002  11.657
28380W        W  695  11.904  35.452   0.335
28381W        W  696  22.495   4.972   4.460
28382W        W  697  10.752  13.615   3.990
28383W        W  698  18.910   4.204   1.808
28384W        W  699  20.470  42.757   1.956
28385W        W  700  38.290   0.304  13.827
28386W        W  701   4.534  44.252   4.917
28387W        W  702  33.721  36.681   0.912
28388W        W  703  13.346  23.654   2.361
28389W        W  704  15.232  10.096   1.304
28390W        W  705   6.566   3.581   1.000
28391W        W  706  13.737  20.995  10.445
28392W        W  707  27.184  26.354   2.877
28393W        W  708   6.717  14.280   1.326
28394W        W  709   0.654  25.794  11.548
28395W        W  710   7.148  26.663  10.579
28396W        W  711  18.900   5.676   1.412
28397W        W  712  10.816  30.614   2.016
28398W        W  713  24.728  16.045   1.430
28399W        W  714  39.800  26.145  10.330
28400W        W  715  21.815  27.457   0.445
28401W        W  716  14.517  23.048   3.751
28402W        W  717  37.642   0.782   2.836
28403W        W  718  37.972  34.572   3.263
28404W        W  719  40.474  23.979   5.510
28405W        W  720   3.215  39.571   4.190
28406W        W  721   7.322  11.295   1.936
28407W        W  722  22.961  18.944   5.454
28408W        W  723  43.769   1.751   0.597
28409W        W  724  34.410   6.438   4.037
28410W        W  725   7.693  28.033  10.580
28411W        W  726  37.467  30.057  11.561
28412W        W  727   6.304  25.764  12.958
28413W        W  728  24.224   5.345  14.704
28414W        W  729  42.597  31.477   3.139
28415W        W  730  27.060  19.773   3.644
28416W        W  731  37.774  43.912  11.445
28417W        W  732  21.556  11.085   3.963
28418W        W  733  32.521  19.680  10.676
28419W        W  734  18.025   0.063   4.145
28420W        W  735  38.836  21.299  14.859
28421W        W  736   7.798  38.692  13.790
28422W        W  737  37.357  19.760   4.410
28423W        W  738  10.679  29.050   4.704
28424W        W  739  29.992  41.950   2.148
28425W        W  740   1.214  10.385  13.856
28426W        W  741  14.137  17.847  13.493
28427W        W  742  38.596  33.040   1.714
28428W        W  743   3.877  14.576  12.116
28429W        W  744  33.404  30.068  10.641
28430W        W  745  30.853  22.454   0.859
28431W        W  746  15.694  26.822  10.427
28432W        W  747  24.502  36.047   3.226
28433W        W  748  36.324  18.296  11.092
28434W        W  749  20.708  38.607  13.061
28435W        W  750  29.170   7.875  12.457
28436W        W  751  11.732  32.053  11.559
28437W        W  752  13.560  11.672   3.279
28438W        W  753  19.320  24.780  13.289
28439W        W  754  11.365   2.868  13.358
28440W        W  755  24.561  38.400  13.111
28441W        W  756  21.792  19.020  14.373
28442W        W  757  38.584  42.723   9.954
28443W        W  758  24.948  19.203  14.639
28444W        W  759  26.141  31.077  14.666
28445W        W  760  25.498  26.322  13.789
28446W        W  761  26.624  12.641   3.353
28447W        W  762  31.702  33.952  13.456
28448W        W  763   0.514  13.588   0.215
28449W        W  764  35.503  26.729  14.063
28450W        W  765  26.443  17.748  11.967
28451W        W  766  39.776  13.703   1.188
28452W        W  767  29.085  12.680  13.881
28453W        W  768  25.359  37.671   3.694
28454W        W  769  33.834  11.331  14.020
28455W        W  770  16.031  43.572  11.132
28456W        W  771  16.628  36.335  13.918
28457W        W  772  30.924  37.865   1.393
28458W        W  773  27.806  30.836   4.741
28459W        W  774  44.154  43.967  11.618
28460W        W  775  39.359  25.266  11.094
28461W        W  776   8.338  33.730  11.620
28462W        W  777  23.497  11.837  12.083
28463W        W  778  22.063  30.377  11.213
28464W        W  779  30.010   3.971   4.173
28465W        W  780  37.146   3.757  13.002
28466W        W  781  14.824  14.867  11.174
28467W        W  782  23.749  10.697   1.436
28468W        W  783  18.257  15.120   4.239
28469W        W  784  13.067   5.170   1.156
28470W        W  785  29.089   6.887   2.819
28471W        W  786  19.735   8.923  13.816
28472W        W  787  41.613  22.240   3.923
28473W        W  788  31.879  36.931   1.220
28474W        W  789  41.245  14.380  13.195
28475W        W  790  42.307   4.814  12.411
28476W        W  791   4.384   8.174   4.589
28477W        W  792  15.938  44.300  12.824
28478W        W  793  35.687  33.980   4.675
28479W        W  794   5.968  40.051  10.350
28480W        W  795  24.347  16.723  13.502
28481W        W  796  34.347  39.385  11.565
28482W        W  797  33.546  44.797   3.629
28483W        W  798  18.051  16.833   1.637
28484W        W  799  11.219   6.887   3.871
28485W        W  800  30.911  36.348   0.287
28486W        W  801  43.389   1.397  13.541
28487W        W  802  33.544  15.517   4.405
28488W        W  803  18.127   3.333   3.610
28489W        W  804   1.256   2.452   0.306
28490W        W  805  31.401   1.332   0.504
28491W        W  806  30.407  10.687  14.077
28492W        W  807  33.609  25.127   5.046
28493W        W  808  44.422  42.006   0.776
28494W        W  809  11.220   9.123  13.144
28495W        W  810  20.256  11.764   0.297
28496W        W  811  42.796   3.908  13.577
28497W        W  812  17.680  41.769  13.046
28498W        W  813  15.838  17.559   2.834
28499W        W  814   9.553  15.355   3.847
28500W        W  815  20.945   4.334   0.709
28501W        W  816  37.625  15.130   1.874
28502W        W  817  18.655  40.351  13.878
28503W        W  818   4.409  29.000  13.913
28504W        W  819  35.821  35.576  14.885
28505W        W  820  22.132  40.782  13.059
28506W        W  821   9.246  36.337  13.405
28507W        W  822  38.646   9.289  12.875
28508W        W  823  40.905   9.624  10.461
28509W        W  824  12.052  40.907  12.615
28510W        W  825  33.746  41.028  12.423
28511W        W  826  43.573   0.387  14.372
28512W        W  827  24.003  24.259  14.896
28513W        W  828  43.807  18.682   2.799
28514W        W  829  33.929   3.179  14.320
28515W        W  830  17.838   3.385   4.252
28516W        W  831  25.172  26.986   0.973
28517W        W  832   0.220  12.375   4.216
28518W        W  833  21.931  26.672  11.977
28519W        W  834   0.353  29.354   1.828
28520W        W  835  42.734  38.388  13.424
28521W        W  836  39.442  34.602  12.692
28522W        W  837  39.444  10.690  10.612
28523W        W  838  35.564  34.349  13.564
28524W        W  839  21.390  37.008   3.784
28525W        W  840  30.208   2.835   1.586
28526W        W  841  25.998  13.361  12.573
28527W        W  842  18.002   8.264  14.477
28528W        W  843  42.783  27.751  13.978
28529W        W  844  31.808  33.096  11.285
28530W        W  845   8.456  31.669  14.847
28531W        W  846   8.572  44.530  14.434
28532W        W  847   4.940  28.108   2.908
28533W        W  848  38.350  35.627  13.429
28534W        W  849   3.961   2.157   4.445
28535W        W  850  30.740   0.398  12.501
28536W        W  851  32.210   4.345   0.770
28537W        W  852  21.021  34.217  11.259
28538W        W  853   2.351  34.901  14.333
28539W        W  854  43.980  33.536  11.609
28540W        W  855  41.322  13.432   3.926
28541W        W  856   6.512  17.829  10.649
28542W        W  857  33.410  22.588   0.013
28543W        W  858  19.031   4.443   2.325
28544W        W  859  43.867  28.179   1.558
28545W        W  860  33.521   0.618  14.319
28546W        W  861  21.283  24.988  13.575
28547W        W  862   9.247  39.734   4.142
28548W        W  863  37.526  38.371   1.213
28549W        W  864  22.133  22.778  10.273
28550W        W  865  44.878  27.913  12.577
28551W        W  866  28.822  34.010   5.374
28552W        W  867  36.512  16.636  11.452
28553W        W  868  19.741  38.481   4.149
28554W        W  869  38.477  30.447  12.486
28555W        W  870   6.958  17.791   4.524
28556W        W  871  37.323  36.293  12.405
28557W        W  872  36.539  19.092   3.623
28558W        W  873  18.946  12.178  10.098
28559W        W  874  24.601   8.131  11.503
28560W        W  875  22.573  37.706   3.820
28561W        W  876  32.737  36.332  14.190
28562W        W  877   6.682   2.641  10.979
28563W        W  878  26.607  25.702  14.887
28564W        W  879  20.675  10.276   9.570
28565W        W  880  34.883  32.435   2.781
28566W        W  881  35.574  15.037  14.260
28567W        W  882  33.094  11.352   3.709
28568W        W  883  28.255  23.556   1.674
28569W        W  884  16.374  18.089  11.497
28570W        W  885   9.764  19.240  13.490
28571W        W  886  34.896  17.365   0.465
28572W        W  887  39.537  20.087  13.819
28573W        W  888  25.183   2.377  11.136
28574W        W  889   8.657  27.600   0.747
28575W        W  890  34.561   2.965  13.543
28576W        W  891  37.457  20.552   4.681
28577W        W  892  33.818  41.097  14.797
28578W        W  893  37.609  14.754  13.902
28579W        W  894  42.068   2.906   2.330
28580W        W  895  35.534  42.023   3.302
28581W        W  896   0.984  20.238  14.759
28582W        W  897  34.055  42.030   4.455
28583W        W  898  13.166  23.612   3.731
28584W        W  899  30.932  12.554  12.605
28585W        W  900  32.806  27.103  14.292
28586W        W  901  40.512  42.760   4.181
28587W        W  902  31.133  38.865   0.036
28588W        W  903   3.027  27.159  12.087
28589W        W  904  18.184  26.553   0.276
28590W        W  905  25.470  21.314   2.776
28591W        W  906   0.406  22.992  12.027
28592W        W  907  28.237  15.662  11.166
28593W        W  908  42.260  22.210   2.716
28594W        W  909  27.119  44.412  11.713
28595W        W  910  14.088  16.500  12.628
28596W        W  911  10.752  31.968  12.992
28597W        W  912  18.020  42.017   9.996
28598W        W  913  32.197   3.150  13.512
28599W        W  914  35.036   8.791   0.273
28600W        W  915  26.906  25.139   2.232
28601W        W  916  12.666  41.452   1.893
28602W        W  917   2.519  34.970   4.961
28603W        W  918  12.638   5.981  12.811
28604W        W  919   3.339  11.110   3.924
28605W        W  920  39.994   9.438   3.274
28606W        W  921  36.166  29.158  14.325
28607W        W  922  14.668  23.809   3.324
28608W        W  923  22.737  35.272  13.445
28609W        W  924  16.301   2.735   2.865
28610W        W  925  11.874  28.655  10.361
28611W        W  926  25.715  12.651   5.420
28612W        W  927  26.985  40.111  10.980
28613W        W  928  36.834  33.879   1.158
28614W        W  929  21.356  30.151   2.884
28615W        W  930   6.461   6.331   2.288
28616W        W  931  43.469  30.399  13.633
28617W        W  932  34.691  14.289   2.209
28618W        W  933  43.200   3.743  11.128
28619W        W  934  32.810  42.281  13.275
28620W        W  935  44.286  22.722  14.956
28621W        W  936  20.207  20.280   1.252
28622W        W  937  22.759  23.951  10.084
28623W        W  938  21.947   7.823  13.828
28624W        W  939  38.124  12.076  13.847
28625W        W  940  43.367  30.639   2.694
28626W        W  941   1.736  42.761   0.828
28627W        W  942   1.542  27.916   2.628
28628W        W  943  18.162  42.696   0.246
28629W        W  944   4.586  12.801   2.075
28630W        W  945  36.776  44.587   0.584
28631W        W  946   3.576   4.331  11.219
28632W        W  947   6.930  23.538  10.953
28633W        W  948  16.703   5.861   0.416
28634W        W  949  40.730  26.832  12.014
28635W        W  950  13.676  24.123   2.408
28636W        W  951  24.196  17.656  11.633
28637W        W  952   8.635  29.953  12.959
28638W        W  953  34.813  28.111   1.911
28639W        W  954   8.238   5.471  12.956
28640W        W  955  29.609  32.122   1.325
28641W        W  956  26.027  39.259   4.599
28642W        W  957  17.245  38.328  13.481
28643W        W  958   6.050  36.605   1.838
28644W        W  959   5.299  16.450   0.607
28645W        W  960  33.625   2.119   5.028
28646W        W  961  40.085   5.748  13.083
28647W        W  962   0.799  20.240  13.283
28648W        W  963  36.578  17.153   3.843
28649W        W  964  20.506  32.790   3.276
28650W        W  965  39.506   5.341   4.094
28651W        W  966  11.758   9.496  14.415
28652W        W  967  32.443  44.118  10.089
28653W        W  968   4.756  33.509  14.525
28654W        W  969  38.419  21.001   2.666
28655W        W  970  12.209  22.195   4.745
28656W        W  971  43.551  37.335  13.285
28657W        W  972  34.475  29.689  12.498
28658W        W  973   2.476  29.219  11.224
28659W        W  974  35.041   1.333  10.474
28660W        W  975  31.886  24.073  11.072
28661W        W  976  41.035  29.124  11.502
28662W        W  977  42.429   8.089  10.708
28663W        W  978  26.116  33.840  12.956
28664W        W  979  11.889  27.768   3.272
28665W        W  980  14.728  13.402  11.346
28666W        W  981  36.543  31.527   1.008
28667W        W  982   3.259  17.756  10.152
28668W        W  983  23.560  37.306   3.707
28669W        W  984  35.129  37.848   1.813
28670W        W  985  35.475  11.837  11.276
28671W        W  986   1.714  12.911  13.021
28672W        W  987  17.061  13.049  10.285
28673W        W  988  42.986   3.191  14.527
28674W        W  989   0.624   3.497  14.558
28675W        W  990   3.420  34.633  12.495
28676W        W  991   3.774  21.462   2.404
28677W        W  992  44.796   9.693   5.399
28678W        W  993  23.732  44.346   5.015
28679W        W  994  29.174  14.823  11.286
28680W        W  995  37.900  34.981   4.431
28681W        W  996  25.616  13.038   0.842
28682W        W  997   2.220  39.456   3.247
28683W        W  998  24.471  39.770  11.409
28684W        W  999  10.169  32.311   4.527
28685W        W 1000   2.699  28.558   2.305
28686W        W 1001   6.667  29.638  11.133
28687W        W 1002  43.062  40.853  14.846
28688W        W 1003   5.896  31.956   3.393
28689W        W 1004  24.893  26.577   3.305
28690W        W 1005  11.083  39.963   3.785
28691W        W 1006  25.158  32.672  13.028
28692W        W 1007  21.078  15.477  10.778
28693W        W 1008  30.469  39.520  11.130
28694W        W 1009  36.371   0.012   1.301
28695W        W 1010  33.527  18.089  10.805
28696W        W 1011  27.602  19.998  12.502
28697W        W 1012  26.119   1.955  11.226
28698W        W 1013   2.510  38.473   3.968
28699W        W 1014  35.567  39.072  12.529
28700W        W 1015   0.972  44.368  14.831
28701W        W 1016  21.536   2.517  11.230
28702W        W 1017  31.340   3.169   1.227
28703W        W 1018   9.636  10.454  14.310
28704W        W 1019  40.348  44.374  10.690
28705W        W 1020  10.545  28.270  12.513
28706W        W 1021  43.239  35.482   2.268
28707W        W 1022  20.351  13.242   2.341
28708W        W 1023   9.610  19.037   0.353
28709W        W 1024  15.514  20.017   2.718
28710W        W 1025  38.532  38.595   0.747
28711W        W 1026   2.915  38.847   4.104
28712W        W 1027  33.604  35.637  11.162
28713W        W 1028  32.920  15.167   4.776
28714W        W 1029  28.032  29.698   3.204
28715W        W 1030   0.508   4.955   0.728
28716W        W 1031  16.735  23.265  10.995
28717W        W 1032  35.765  16.610   4.128
28718W        W 1033  13.708   8.261  11.556
28719W        W 1034  12.758  19.646   2.865
28720W        W 1035   1.375  14.465  11.143
28721W        W 1036  24.669  17.601   1.618
28722W        W 1037  30.233  40.120  11.643
28723W        W 1038   3.976  32.948  10.517
28724W        W 1039  44.442  37.447   3.385
28725W        W 1040  23.667  40.000  14.838
28726W        W 1041  11.850  28.652  10.883
28727W        W 1042   8.674  42.731  12.586
28728W        W 1043  40.840  27.860  13.416
28729W        W 1044  15.355  34.286   2.674
28730W        W 1045  26.434  23.977  11.221
28731W        W 1046  31.293   0.881  14.288
28732W        W 1047  20.717  35.948   3.185
28733W        W 1048  39.853  26.203  13.498
28734W        W 1049   6.102  42.277   2.612
28735W        W 1050  17.978  37.838   0.323
28736W        W 1051   1.471  10.654  12.502
28737W        W 1052   9.945  28.607   2.610
28738W        W 1053   8.751   4.870  10.313
28739W        W 1054   0.359   9.409  13.376
28740W        W 1055  22.535  23.486   0.855
28741W        W 1056   6.919  35.475  12.122
28742W        W 1057   4.875  10.426   1.499
28743W        W 1058  19.648  14.373  12.951
28744W        W 1059  11.664  25.525   3.420
28745W        W 1060  17.312  39.063   4.529
28746W        W 1061   3.311  37.715  14.776
28747W        W 1062  20.765  44.398   2.463
28748W        W 1063   8.260  25.533  13.571
28749W        W 1064  29.304  16.912   2.460
28750W        W 1065  17.300   6.444   0.290
28751W        W 1066  12.179  17.679   4.249
28752W        W 1067  31.140  18.604   1.912
28753W        W 1068  33.868  35.496  14.476
28754W        W 1069  18.187  36.788  13.295
28755W        W 1070  11.541  35.543  10.709
28756W        W 1071  21.472   9.483  12.913
28757W        W 1072  27.348   0.458   1.943
28758W        W 1073  30.393  32.053   5.016
28759W        W 1074  20.635  22.273   4.006
28760W        W 1075  27.365  29.912  12.755
28761W        W 1076  26.675  12.075   0.258
28762W        W 1077  29.903   5.275  13.387
28763W        W 1078  30.929  16.970  10.588
28764W        W 1079  25.496  15.811  12.065
28765W        W 1080  17.106   1.891  11.181
28766W        W 1081  39.937  30.003  12.486
28767W        W 1082  25.040   3.982  12.592
28768W        W 1083   2.235   0.607  14.034
28769W        W 1084   1.404  32.409  14.442
28770W        W 1085   2.820  15.318   0.003
28771W        W 1086  36.619  42.346   0.144
28772W        W 1087  23.938  25.567   2.741
28773W        W 1088  25.238  22.374  12.848
28774W        W 1089  38.739  24.209   0.906
28775W        W 1090  15.759  44.863  13.577
28776W        W 1091  12.352  39.341   4.203
28777W        W 1092  31.996   4.015   2.211
28778W        W 1093  31.204  30.561  13.132
28779W        W 1094   6.260  32.699   2.255
28780W        W 1095  27.028  44.231  13.097
28781W        W 1096  41.800  42.150  11.634
28782W        W 1097  39.871  11.892   2.191
28783W        W 1098   4.067  19.014   4.888
28784W        W 1099  43.862  33.093  11.842
28785W        W 1100  38.014  43.855   1.924
28786W        W 1101  27.523  16.120   0.791
28787W        W 1102  42.744  39.852   3.597
28788W        W 1103  35.592  13.114   1.444
28789W        W 1104  38.781  39.909   1.519
28790W        W 1105  42.803   9.247   0.290
28791W        W 1106  26.694  33.167  10.469
28792W        W 1107  36.413   9.134   2.837
28793W        W 1108  41.404  30.246   2.826
28794W        W 1109  31.378  26.443  10.184
28795W        W 1110  39.929  28.110   2.693
28796W        W 1111  17.238  34.683   1.354
28797W        W 1112  23.274  25.110   2.358
28798W        W 1113  26.963   1.353  10.673
28799W        W 1114  10.173  37.392   1.845
28800W        W 1115  33.063  30.354  13.087
28801W        W 1116  35.623   0.971  14.508
28802W        W 1117  30.673  29.702  11.124
28803W        W 1118  12.316  29.762  12.872
28804W        W 1119  40.668  44.378   0.623
28805W        W 1120  29.487  19.227   4.557
28806W        W 1121  39.488  43.444  13.615
28807W        W 1122  44.766  20.391  13.606
28808W        W 1123   1.713  40.543  13.814
28809W        W 1124  42.142  34.576   2.337
28810W        W 1125  24.670  27.191  10.941
28811W        W 1126  25.573   0.922  13.538
28812W        W 1127  40.056  22.531  12.014
28813W        W 1128  38.085   0.248   3.658
28814W        W 1129  36.444  18.212   1.317
28815W        W 1130  44.002  34.964  11.531
28816W        W 1131  25.521  12.417   4.471
28817W        W 1132  10.348  32.989   3.151
28818W        W 1133  39.294  29.405   0.584
28819W        W 1134   9.731  24.234  11.161
28820W        W 1135  35.023  21.827  14.907
28821W        W 1136  16.291  21.053  13.271
28822W        W 1137   4.256   6.864  12.150
28823W        W 1138  23.583   5.823   2.708
28824W        W 1139  22.866   9.652  10.760
28825W        W 1140  43.376  17.114  10.331
28826W        W 1141  32.828  24.664  12.536
28827W        W 1142  17.559  42.256  14.171
28828W        W 1143  18.219  31.706   1.412
28829W        W 1144   3.755  14.160   4.881
28830W        W 1145  26.286  27.797   4.248
28831W        W 1146   3.378  28.606  12.392
28832W        W 1147  44.338  13.544  10.875
28833W        W 1148  23.707  42.942  14.765
28834W        W 1149  32.294  11.317   4.085
28835W        W 1150   0.237  24.510  13.334
28836W        W 1151  29.793  23.489   1.962
28837W        W 1152   9.209  25.206  13.981
28838W        W 1153  21.013   4.921   4.481
28839W        W 1154  26.459  42.311   3.653
28840W        W 1155  38.326  20.568   2.942
28841W        W 1156   7.948   7.272  11.446
28842W        W 1157  12.059  43.798   4.299
28843W        W 1158  20.665   6.165   3.917
28844W        W 1159   3.489   1.140   0.811
28845W        W 1160  16.575  11.471   1.153
28846W        W 1161  41.927  34.169  11.559
28847W        W 1162  36.447  37.863   2.016
28848W        W 1163  44.904   2.188  11.930
28849W        W 1164  24.062  26.641  11.124
28850W        W 1165  18.062  28.554   3.191
28851W        W 1166  16.015  29.721  12.949
28852W        W 1167   2.147   4.310  10.919
28853W        W 1168  40.346  40.036  13.967
28854W        W 1169  42.597  30.007   2.520
28855W        W 1170  37.639   6.830   0.329
28856W        W 1171  13.167  40.619  10.329
28857W        W 1172  33.662  23.184  10.612
28858W        W 1173   3.985  30.094   4.888
28859W        W 1174   4.264  18.327   3.227
28860W        W 1175  11.344  15.534  13.906
28861W        W 1176  17.159  34.936  14.561
28862W        W 1177  19.787  21.737  12.604
28863W        W 1178  32.007  16.545   0.393
28864W        W 1179   5.461  44.875   2.211
28865W        W 1180  34.389  35.421  14.502
28866W        W 1181  39.041  41.775  10.452
28867W        W 1182  28.573  37.976  11.627
28868W        W 1183  23.737  43.233  11.019
28869W        W 1184  23.335  40.573  13.493
28870W        W 1185  22.336  12.645   2.442
28871W        W 1186   3.403  19.010  12.901
28872W        W 1187  23.057  37.898   3.213
28873W        W 1188  35.938  43.502  13.498
28874W        W 1189  33.761   5.710  11.046
28875W        W 1190  11.325  40.396  12.527
28876W        W 1191  10.190  25.467   0.336
28877W        W 1192  22.635  41.169   2.338
28878W        W 1193   9.381  14.715   4.385
28879W        W 1194  39.407  31.476  13.939
28880W        W 1195   1.172  43.876  10.528
28881W        W 1196  43.248  31.228  11.589
28882W        W 1197  18.074  27.212  11.025
28883W        W 1198  33.017   2.929   2.706
28884W        W 1199  42.640  20.490  12.510
28885W        W 1200  25.953  37.081  12.994
28886W        W 1201  23.207  25.763   4.187
28887W        W 1202  27.445  24.671  14.297
28888W        W 1203  27.308  27.467   0.492
28889W        W 1204   5.227  11.581   2.655
28890W        W 1205  42.804   9.501  11.160
28891W        W 1206  36.422  26.728   3.612
28892W        W 1207  42.089  24.690   2.583
28893W        W 1208  26.460  16.355   4.586
28894W        W 1209   3.305   9.618  14.044
28895W        W 1210  40.431   6.794   1.694
28896W        W 1211  14.780   1.217   1.857
28897W        W 1212   5.158  15.606  13.373
28898W        W 1213  15.285  10.150  13.942
28899W        W 1214  43.750  40.891   3.573
28900W        W 1215  28.586  25.677   4.644
28901W        W 1216  39.472  43.724   2.629
28902W        W 1217  31.175  42.423  11.238
28903W        W 1218  26.421  29.936  10.773
28904W        W 1219  23.137  12.925   0.880
28905W        W 1220  21.494  18.060   1.405
28906W        W 1221  11.812   2.201   5.016
28907W        W 1222  32.259  32.215   4.104
28908W        W 1223  28.197  17.199   0.015
28909W        W 1224  19.556  12.136   0.471
28910W        W 1225   8.217   5.673  13.950
28911W        W 1226  19.549  10.219  11.816
28912W        W 1227  17.483   0.663  10.770
28913W        W 1228  18.932   9.301   1.343
28914W        W 1229   8.345  18.855  14.437
28915W        W 1230  19.453  34.404   0.360
28916W        W 1231  29.930  29.319   3.145
28917W        W 1232   4.975  27.776  14.235
28918W        W 1233  18.424  39.901  13.295
28919W        W 1234  14.203   5.742  14.483
28920W        W 1235   8.767   0.889   3.406
28921W        W 1236  38.821   6.383  12.033
28922W        W 1237  23.623  28.166   3.309
28923W        W 1238  27.665  25.709  11.148
28924W        W 1239  25.013  11.375   3.779
28925W        W 1240  12.047  36.222  11.980
28926W        W 1241  34.547  42.927   1.518
28927W        W 1242  39.308  44.350  11.462
28928W        W 1243  25.997  38.275   4.735
28929W        W 1244  10.113  22.739   4.182
28930W        W 1245  19.582  28.895   2.341
28931W        W 1246   4.839  32.612  10.528
28932W        W 1247  29.341  37.473   3.210
28933W        W 1248   4.922  11.265   1.338
28934W        W 1249  30.673  23.172   3.998
28935W        W 1250  34.902  43.861  10.507
28936W        W 1251  20.904  28.889  14.038
28937W        W 1252   5.948  13.570  12.911
28938W        W 1253  39.256  22.149   3.314
28939W        W 1254  27.723  36.347  14.862
28940W        W 1255  43.835  39.863  10.769
28941W        W 1256  37.411   5.186   0.307
28942W        W 1257   7.148   2.580   5.004
28943W        W 1258  22.564  26.225   0.682
28944W        W 1259  23.984  32.935   3.119
28945W        W 1260  29.319  36.053  11.090
28946W        W 1261   4.437  27.170  12.378
28947W        W 1262  37.351   2.339  12.974
28948W        W 1263  39.512  13.531   2.971
28949W        W 1264  34.809  26.684  11.435
28950W        W 1265   5.983  36.546  14.134
28951W        W 1266  36.323   4.616   1.510
28952W        W 1267  15.912   2.197   0.168
28953W        W 1268   4.531  36.896   4.597
28954W        W 1269  33.544  21.751   1.379
28955W        W 1270  41.822  42.876   0.106
28956W        W 1271  44.166  21.182   2.757
28957W        W 1272  31.059  29.050  11.533
28958W        W 1273   3.988  36.114   0.805
28959W        W 1274  22.260  31.642  10.971
28960W        W 1275  26.384   2.414  10.532
28961W        W 1276  31.609  33.636  12.627
28962W        W 1277  19.740  36.579   0.695
28963W        W 1278  41.750   3.617  11.072
28964W        W 1279   7.314  23.172  13.808
28965W        W 1280  27.990   7.094  10.588
28966W        W 1281   4.839  21.413   2.375
28967W        W 1282  24.558  31.544   2.347
28968W        W 1283  39.408  10.222   0.385
28969W        W 1284  40.246   9.653   2.850
28970W        W 1285  39.917   5.733   3.033
28971W        W 1286   7.295  23.680  13.830
28972W        W 1287  32.446  22.011   4.571
28973W        W 1288   1.478  18.203   1.762
28974W        W 1289  17.731  37.747   4.674
28975W        W 1290  13.758   0.637   1.308
28976W        W 1291   1.008  19.088   4.168
28977W        W 1292   9.771  37.890  10.989
28978W        W 1293  27.862  36.635  10.778
28979W        W 1294  30.880  29.638   3.548
28980W        W 1295  17.050  31.891  11.859
28981W        W 1296  17.757  44.206   0.728
28982W        W 1297  27.506   8.716   4.150
28983W        W 1298  19.659  27.198   0.021
28984W        W 1299  25.070  23.383  12.935
28985W        W 1300  35.822   8.072  14.011
28986W        W 1301  18.593  15.050   1.369
28987W        W 1302  43.472   5.302   3.617
28988W        W 1303  41.372  18.766  13.389
28989W        W 1304   1.567  19.888  12.449
28990W        W 1305  18.483   4.732   2.677
28991W        W 1306   8.539  30.150   0.016
28992W        W 1307  18.741   0.867   0.467
28993W        W 1308  30.229  19.495   2.933
28994W        W 1309  11.063  12.168  12.662
28995W        W 1310  22.735   4.485  12.885
28996W        W 1311  28.996  18.802   3.207
28997W        W 1312  43.933   0.794   1.635
28998W        W 1313  27.588  19.107  12.835
28999W        W 1314  12.363  39.827  11.075
29000W        W 1315  11.145   6.619  11.467
29001W        W 1316   9.185  18.292   4.732
29002W        W 1317  31.526  33.100   0.439
29003W        W 1318  15.745   4.103   5.168
29004W        W 1319  44.366   2.926   4.569
29005W        W 1320  17.175  24.248   3.255
29006W        W 1321  12.894  38.671  11.550
29007W        W 1322   5.676  38.319  11.604
29008W        W 1323  33.955  32.656  14.559
29009W        W 1324  30.662  33.162   1.862
29010W        W 1325  44.729  12.723  10.641
29011W        W 1326  33.301  29.662   1.898
29012W        W 1327  36.073   5.145  11.071
29013W        W 1328  23.505  21.072  10.750
29014W        W 1329  17.698   9.335   3.718
29015W        W 1330  41.539  30.140   3.667
29016W        W 1331   7.094  21.188  14.236
29017W        W 1332  35.614  42.488   3.036
29018W        W 1333   7.679  36.400  13.022
29019W        W 1334  16.102  29.938  11.095
29020W        W 1335  41.072  17.142   4.795
29021W        W 1336  44.719  31.706   2.315
29022W        W 1337  34.071  34.755  11.264
29023W        W 1338   6.889  23.981   1.022
29024W        W 1339  27.987  16.542   2.196
29025W        W 1340  24.684  30.644   2.864
29026W        W 1341   1.807   3.774   3.674
29027W        W 1342  33.167  13.788   4.920
29028W        W 1343  25.585   6.649  11.020
29029W        W 1344  40.537  15.593   3.673
29030W        W 1345  23.868   8.791   1.006
29031W        W 1346   8.250   8.130   3.745
29032W        W 1347  44.295  15.755   3.759
29033W        W 1348  33.463  37.852   1.389
29034W        W 1349  42.980  37.862   4.774
29035W        W 1350  19.611  42.793   1.854
29036W        W 1351  28.174   1.848   3.658
29037W        W 1352  39.024   6.831   4.552
29038W        W 1353  19.977  16.339  11.971
29039W        W 1354  43.536  23.686   3.677
29040W        W 1355  29.167  30.997  13.364
29041W        W 1356  30.878  38.440  11.623
29042W        W 1357  10.829   6.221   4.219
29043W        W 1358  42.808  11.282  13.871
29044W        W 1359  20.108  35.618   3.121
29045W        W 1360  19.891  28.571  13.926
29046W        W 1361  27.591   1.210  11.454
29047W        W 1362  12.193  30.962  13.298
29048W        W 1363   9.904   6.723   0.310
29049W        W 1364  14.616  24.887   5.167
29050W        W 1365  24.089  26.830  11.615
29051W        W 1366   3.017   3.437  12.685
29052W        W 1367  23.162  44.730  11.306
29053W        W 1368   0.955  35.733   1.415
29054W        W 1369  32.141  17.520   3.173
29055W        W 1370  21.218  31.644  12.013
29056W        W 1371  41.766  32.448  13.553
29057W        W 1372   1.968  34.660   5.071
29058W        W 1373  14.063  32.424   0.723
29059W        W 1374  20.992  30.060   1.305
29060W        W 1375   1.455  30.998  13.054
29061W        W 1376  21.483  36.522   1.697
29062W        W 1377   3.773  39.327  11.923
29063W        W 1378   4.274  32.096   0.008
29064W        W 1379  28.256   4.887  12.922
29065W        W 1380  17.363   7.706  14.348
29066W        W 1381  13.878  41.359  10.416
29067W        W 1382  24.057  34.982  12.813
29068W        W 1383  21.729  41.695   2.825
29069W        W 1384  30.849  15.956  11.572
29070W        W 1385  28.596  31.583   4.639
29071W        W 1386  18.267   0.917   0.681
29072W        W 1387   6.319  40.156  12.456
29073W        W 1388  30.885  30.926   0.908
29074W        W 1389   9.324  15.009  13.915
29075W        W 1390  43.849   3.214  14.758
29076W        W 1391  11.625  10.834   2.193
29077W        W 1392  44.072  21.738  13.922
29078W        W 1393  34.015  34.858  14.710
29079W        W 1394   3.739   7.993   0.249
29080W        W 1395  14.662  35.306   0.891
29081W        W 1396  35.367  27.590   1.253
29082W        W 1397   5.801  43.376   0.885
29083W        W 1398  28.629   0.745  11.127
29084W        W 1399  20.409  17.331  12.463
29085W        W 1400   7.812  19.211  12.078
29086W        W 1401  27.177  44.183  14.770
29087W        W 1402  28.861  40.592  11.590
29088W        W 1403  11.213  26.271   0.800
29089W        W 1404  40.267   3.350   1.357
29090W        W 1405   6.557   3.307   5.378
29091W        W 1406  35.384  18.757  13.810
29092W        W 1407   2.614  13.259   4.547
29093W        W 1408  17.613  20.594   2.783
29094W        W 1409  38.344  39.498  11.497
29095W        W 1410  19.634   2.900  14.816
29096W        W 1411  44.265   7.859  14.338
29097W        W 1412   2.720  26.627   1.755
29098W        W 1413  41.101   4.784  10.824
29099W        W 1414  29.848  14.368   1.463
29100W        W 1415   0.366  22.979   3.052
29101W        W 1416  44.673  33.498  13.495
29102W        W 1417   5.848  35.451   0.217
29103W        W 1418  20.344  14.104   0.827
29104W        W 1419  30.937  13.999  10.222
29105W        W 1420   6.893  36.335  14.345
29106W        W 1421   8.264  31.884  11.949
29107W        W 1422  42.916  29.422   4.483
29108W        W 1423  41.888   5.592  11.134
29109W        W 1424  26.899  22.581   0.385
29110W        W 1425  42.019   7.806  12.860
29111W        W 1426  41.070   2.496  10.702
29112W        W 1427  14.072  11.685   3.251
29113W        W 1428  13.900   2.289  12.804
29114W        W 1429  34.147  26.717   2.760
29115W        W 1430  32.117  37.517   4.132
29116W        W 1431  30.025   3.960   3.151
29117W        W 1432   1.271  16.223  11.960
29118W        W 1433  17.851  41.742   3.878
29119W        W 1434   7.773  41.441   3.189
29120W        W 1435   8.794   4.931  13.789
29121W        W 1436  34.742  31.646   4.174
29122W        W 1437  15.537  17.175  13.033
29123W        W 1438  15.566   8.247  14.942
29124W        W 1439  44.264  11.669   1.754
29125W        W 1440  11.731   2.021  12.107
29126W        W 1441  29.636   3.136   3.161
29127W        W 1442   9.440  31.544   0.181
29128W        W 1443  41.762   1.893  12.939
29129W        W 1444  15.369  32.341  13.919
29130W        W 1445  33.154  25.027  11.263
29131W        W 1446   1.538  13.059  11.746
29132W        W 1447  38.357  15.608  10.154
29133W        W 1448  16.802  28.937   1.936
29134W        W 1449  42.992  27.775  12.458
29135W        W 1450  42.076   1.783  14.727
29136W        W 1451  20.138  24.056  10.988
29137W        W 1452   0.810  22.860   2.350
29138W        W 1453  35.053  30.205  13.980
29139W        W 1454   6.872  38.852  13.340
29140W        W 1455  10.404  26.927   4.052
29141W        W 1456  23.698   1.868   1.810
29142W        W 1457   4.985  30.229   1.651
29143W        W 1458  37.402  39.974   4.832
29144W        W 1459  43.942   6.401  14.137
29145W        W 1460  13.794   5.914   2.279
29146W        W 1461  23.601  20.564   3.227
29147W        W 1462  18.341  17.621   3.201
29148W        W 1463  26.249  44.456   2.517
29149W        W 1464   0.459  13.074   0.267
29150W        W 1465  32.055  40.256  13.816
29151W        W 1466  39.771  23.842   9.984
29152W        W 1467  35.600   9.309  13.089
29153W        W 1468   3.039  25.315   1.383
29154W        W 1469   4.696  34.298  11.283
29155W        W 1470   1.286  18.067   2.775
29156W        W 1471   9.987  35.106   2.412
29157W        W 1472  11.230  33.793  13.960
29158W        W 1473   0.877  44.049  13.032
29159W        W 1474   9.627  33.969  12.031
29160W        W 1475  22.831  44.974  12.074
29161W        W 1476  44.615  18.321  13.969
29162W        W 1477  18.632  13.869   4.582
29163W        W 1478   2.582  41.952   0.815
29164W        W 1479   8.090  39.136  11.139
29165W        W 1480  21.826   4.440  14.788
29166W        W 1481   0.858  17.783  11.898
29167W        W 1482  41.830   8.870   4.595
29168W        W 1483  34.154   8.082  14.314
29169W        W 1484   7.433   2.545  14.405
29170W        W 1485  29.613  38.517  11.167
29171W        W 1486  44.970   5.882   3.084
29172W        W 1487  23.445  25.651   0.738
29173W        W 1488  22.717  33.663  12.824
29174W        W 1489  14.209  24.592   1.829
29175W        W 1490   9.304  19.377   1.728
29176W        W 1491  21.278  44.760  14.525
29177W        W 1492  19.670   5.463   1.791
29178W        W 1493   5.533  32.350   0.390
29179W        W 1494  30.092  33.509   2.903
29180W        W 1495  41.759  25.179  14.445
29181W        W 1496   4.097  33.630   0.943
29182W        W 1497   8.322   5.602  12.053
29183W        W 1498  37.543  32.495   1.422
29184W        W 1499  19.640  13.642   2.876
29185W        W 1500  41.548  38.336   0.477
29186W        W 1501  43.843   0.946  11.181
29187W        W 1502  10.213  14.186  12.517
29188W        W 1503  13.334  19.189  11.414
29189W        W 1504  39.003  40.462  10.878
29190W        W 1505  24.535  16.548  11.538
29191W        W 1506  39.910  36.236  13.815
29192W        W 1507  43.957  11.855   5.462
29193W        W 1508  29.469  34.182  11.115
29194W        W 1509   1.268   9.853  12.902
29195W        W 1510  20.012  26.219   0.307
29196W        W 1511  12.826  35.100  13.018
29197W        W 1512  34.389  30.131  10.986
29198W        W 1513   9.399   5.504  14.803
29199W        W 1514  27.485  30.979   3.659
29200W        W 1515  31.409  18.775  14.259
29201W        W 1516  36.308  24.017   4.340
29202W        W 1517   4.472  23.807   2.606
29203W        W 1518  36.785  12.651   2.803
29204W        W 1519  28.936  14.865   3.639
29205W        W 1520  30.138   0.236  14.902
29206W        W 1521   0.927  10.377   2.766
29207W        W 1522   9.112  32.634   0.801
29208W        W 1523   9.392  24.467  14.516
29209W        W 1524  19.732   1.329   4.414
29210W        W 1525  43.063   2.317  12.599
29211W        W 1526  37.961   6.912  11.046
29212W        W 1527  39.104  26.148   0.042
29213W        W 1528   0.080  38.526   1.870
29214W        W 1529  30.687  35.398  13.329
29215W        W 1530  38.829   1.611   2.276
29216W        W 1531  39.719  26.550   5.014
29217W        W 1532  41.742  41.301   4.190
29218W        W 1533  19.481  14.212   2.236
29219W        W 1534  32.445  16.679   2.315
29220W        W 1535  15.123  11.901   1.180
29221W        W 1536   4.632  23.268   1.431
29222W        W 1537  30.628  37.024   5.027
29223W        W 1538  16.810   9.202  11.209
29224W        W 1539  18.424  39.971  12.434
29225W        W 1540  15.041  35.593   3.232
29226W        W 1541   2.187   0.446   2.827
29227W        W 1542  14.232  23.478  10.314
29228W        W 1543  29.837   9.487   4.191
29229W        W 1544   0.441  39.376  12.457
29230W        W 1545  44.414  34.691  14.412
29231W        W 1546  24.968  38.662  14.847
29232W        W 1547  14.566  11.779   4.252
29233W        W 1548  29.539  40.366   1.756
29234W        W 1549  28.736  22.947   0.348
29235W        W 1550  31.147  14.161   4.175
29236W        W 1551  27.171  27.219  11.543
29237W        W 1552   7.733  32.972  13.856
29238W        W 1553  28.789   1.390   3.960
29239W        W 1554  39.886  32.159  13.413
29240W        W 1555  18.024   4.707  12.450
29241W        W 1556  41.732  28.378  14.348
29242W        W 1557  32.518  18.581  11.546
29243W        W 1558  41.344   0.768   0.984
29244W        W 1559  31.139   6.933  11.027
29245W        W 1560  43.760  19.651  12.918
29246W        W 1561  33.436  39.404  11.618
29247W        W 1562  25.893   3.165  13.891
29248W        W 1563  13.161  35.810   0.020
29249W        W 1564  25.552  24.990   0.472
29250W        W 1565  21.473  19.645  11.681
29251W        W 1566  34.126  40.366  14.492
29252W        W 1567  21.020   3.327  12.669
29253W        W 1568  28.501   3.159  12.487
29254W        W 1569   2.728   4.787   2.168
29255W        W 1570  24.074  43.986  11.980
29256W        W 1571  19.548  39.094  14.310
29257W        W 1572  10.715  40.444   4.624
29258W        W 1573  25.065  35.069   3.789
29259W        W 1574   4.033  44.987  14.580
29260W        W 1575  13.781  22.527  13.782
29261W        W 1576   1.340  29.860   2.277
29262W        W 1577  37.546   3.467  12.101
29263W        W 1578  19.890  13.844   0.917
29264W        W 1579  21.575  11.118   2.712
29265W        W 1580  12.407   5.074  14.784
29266W        W 1581  29.267  27.446   4.712
29267W        W 1582   2.562   6.231   2.202
29268W        W 1583   0.878  42.003  13.006
29269W        W 1584  41.846  42.388   1.479
29270W        W 1585  20.586  26.406   1.057
29271W        W 1586  42.614   8.323   3.097
29272W        W 1587  18.605  26.747  10.693
29273W        W 1588   9.434  17.555  10.746
29274W        W 1589  35.023  31.304   0.770
29275W        W 1590  20.246  39.972   0.184
29276W        W 1591   2.346   6.704  14.755
29277W        W 1592  38.608  38.913  10.364
29278W        W 1593  18.120  20.268  14.743
29279W        W 1594  18.254  24.757  11.299
29280W        W 1595  20.820  29.068  13.302
29281W        W 1596  22.226  42.563   4.132
29282W        W 1597  24.692  35.848  11.596
29283W        W 1598  21.781  12.932  12.052
29284W        W 1599  30.336  42.971  11.332
29285W        W 1600   9.911  40.898  14.342
29286W        W 1601   1.170  11.518  12.877
29287W        W 1602   9.277   0.518  10.695
29288W        W 1603   8.312  17.151   2.622
29289W        W 1604  15.160  39.565   2.222
29290W        W 1605   5.968  35.371  14.717
29291W        W 1606  23.530  15.552   0.899
29292W        W 1607   8.606   4.915  12.529
29293W        W 1608  25.136  20.979  14.913
29294W        W 1609   8.242  25.846   1.808
29295W        W 1610   8.623  24.578  13.388
29296W        W 1611  35.606  26.515   4.145
29297W        W 1612  41.982   5.888  12.185
29298W        W 1613  36.944  22.419  11.186
29299W        W 1614  19.744  25.678  12.485
29300W        W 1615  44.425  10.498   3.287
29301W        W 1616   4.006  25.227  12.472
29302W        W 1617  27.095  20.521  10.638
29303W        W 1618  11.462   3.522   4.854
29304W        W 1619  11.641  17.617  13.357
29305W        W 1620   0.251  14.582   1.278
29306W        W 1621  12.444   7.223   4.078
29307W        W 1622  15.357  32.558  11.757
29308W        W 1623   8.827  15.816  11.144
29309W        W 1624  10.297  39.357  11.490
29310W        W 1625  12.183   4.142  13.030
29311W        W 1626  14.818  31.509  13.922
29312W        W 1627  30.388   7.851   3.673
29313W        W 1628  23.285  42.013  14.881
29314W        W 1629  28.941   8.145   1.280
29315W        W 1630  16.538  17.795  12.063
29316W        W 1631   2.247  21.056  11.211
29317W        W 1632  18.135  14.093  11.113
29318W        W 1633  31.209  41.331  14.786
29319W        W 1634   0.682   9.906   9.876
29320W        W 1635  16.059   1.021  14.966
29321W        W 1636  24.068  27.184  12.570
29322W        W 1637  10.833  19.530   0.971
29323W        W 1638  44.513  29.120   0.193
29324W        W 1639  41.101  20.054  12.032
29325W        W 1640  34.267  16.114  12.711
29326W        W 1641   1.238  37.360   2.181
29327W        W 1642  40.523  37.962   3.399
29328W        W 1643  15.354   1.030   4.609
29329W        W 1644  39.923  14.845   1.876
29330W        W 1645  21.495  23.231  14.461
29331W        W 1646  26.416  38.816  14.964
29332W        W 1647  37.539  44.463   4.582
29333W        W 1648  13.085  44.028   3.331
29334W        W 1649   4.908  26.164   3.733
29335W        W 1650  24.290  29.431  10.765
29336W        W 1651   0.349   3.599  11.977
29337W        W 1652  44.946  44.960   3.725
29338W        W 1653   6.859  29.055   3.601
29339W        W 1654  29.162  36.430   1.254
29340W        W 1655   4.748  11.183  11.051
29341W        W 1656  33.896  30.108  10.787
29342W        W 1657   7.985  23.209  10.782
29343W        W 1658  16.255  11.201  11.343
29344W        W 1659   3.746   9.948   2.091
29345W        W 1660  36.132  20.343  14.946
29346W        W 1661  17.547  11.856  13.345
29347W        W 1662  41.086   8.490  13.769
29348W        W 1663  13.460  15.040   2.972
29349W        W 1664  12.084  17.557   0.197
29350W        W 1665  22.534  11.905   1.778
29351W        W 1666  17.975  24.578   0.348
29352W        W 1667  44.364  17.826  13.741
29353W        W 1668  23.240  30.911   0.985
29354W        W 1669   3.359   5.072  11.985
29355W        W 1670  15.869  37.002  14.274
29356W        W 1671  36.143   8.716  13.435
29357W        W 1672  33.550  39.796   2.358
29358W        W 1673  43.206  24.591  11.308
29359W        W 1674  18.454  12.512   4.300
29360W        W 1675   2.751   2.044   3.926
29361W        W 1676   5.121   7.378   0.176
29362W        W 1677   2.626  28.966   4.919
29363W        W 1678  33.251  44.607   2.258
29364W        W 1679   5.637  35.270  14.176
29365W        W 1680   4.541  32.977  12.981
29366W        W 1681  41.094  44.275   4.478
29367W        W 1682  24.467  21.743   4.192
29368W        W 1683   5.328  44.265  11.068
29369W        W 1684  30.676  13.616   1.908
29370W        W 1685   8.828   4.210  10.979
29371W        W 1686  39.276  20.686  11.941
29372W        W 1687  20.573  37.588   2.628
29373W        W 1688  16.244   9.680  11.001
29374W        W 1689  35.608   4.223  14.049
29375W        W 1690  20.130  42.605   4.800
29376W        W 1691  34.289   0.468   0.365
29377W        W 1692  34.913   1.318   3.209
29378W        W 1693  27.455   6.784  12.927
29379W        W 1694   8.088  41.296   2.462
29380W        W 1695  44.681  38.980   3.395
29381W        W 1696  25.280  40.724  11.195
29382W        W 1697  14.647  24.424   2.048
29383W        W 1698  39.775  19.783  13.417
29384W        W 1699  16.592   0.805   4.684
29385W        W 1700  22.162  16.270  14.437
29386W        W 1701  38.064   6.222   2.073
29387W        W 1702  23.064   4.728   2.748
29388W        W 1703  11.356  24.580   2.318
29389W        W 1704   6.921  16.276  11.645
29390W        W 1705  20.433  29.544  11.115
29391W        W 1706   0.404   4.742  10.511
29392W        W 1707   2.477  21.303  10.828
29393W        W 1708  12.976   9.370  13.410
29394W        W 1709   9.164  26.483   3.383
29395W        W 1710  41.285  31.506   0.920
29396W        W 1711  22.041  44.723  12.521
29397W        W 1712  12.995  18.519   3.619
29398W        W 1713  22.212   4.378  13.148
29399W        W 1714  18.611  38.821  14.545
29400W        W 1715  44.436  19.023   0.627
29401W        W 1716  21.847  42.965   0.818
29402W        W 1717  37.790  26.750   1.436
29403W        W 1718   9.850  12.257   3.886
29404W        W 1719  16.954  44.762   0.513
29405W        W 1720  29.488  44.311   0.876
29406W        W 1721  29.183  36.506   4.664
29407W        W 1722  18.208  31.609   3.319
29408W        W 1723  34.449  38.853  11.974
29409W        W 1724  27.023  33.442  14.799
29410W        W 1725  11.125   5.945  13.356
29411W        W 1726   1.933  34.162   5.205
29412W        W 1727  14.888   3.675   3.411
29413W        W 1728  37.007  24.758   2.596
29414W        W 1729  24.214  17.553  12.553
29415W        W 1730   6.248  40.797   2.844
29416W        W 1731   2.843  23.586   0.135
29417W        W 1732  29.147   0.377   2.402
29418W        W 1733   2.365  37.539   1.417
29419W        W 1734  25.006  36.448   4.174
29420W        W 1735  16.628  25.897   2.428
29421W        W 1736  43.526  40.247   0.376
29422W        W 1737   7.892  32.034  10.753
29423W        W 1738   1.254  10.837   3.694
29424W        W 1739  24.646  24.343  12.311
29425W        W 1740  36.395  30.028   3.905
29426W        W 1741  19.111   9.164   0.004
29427W        W 1742  13.067   1.829   1.544
29428W        W 1743  26.029   7.997   0.222
29429W        W 1744  35.797   6.664   4.868
29430W        W 1745  40.088   9.634  13.499
29431W        W 1746  15.772  28.135  12.012
29432W        W 1747  20.522   7.519  14.546
29433W        W 1748   2.750  37.971  10.886
29434W        W 1749  42.367   9.786   2.422
29435W        W 1750  31.630  34.535  12.119
29436W        W 1751  11.163  21.850  13.843
29437W        W 1752  39.319   3.943   3.203
29438W        W 1753  11.506  22.956   1.857
29439W        W 1754  21.704  18.140   0.476
29440W        W 1755   0.349   2.226   1.947
29441W        W 1756  28.052  14.665  11.879
29442W        W 1757  26.662   4.670   0.321
29443W        W 1758   8.154  36.545  10.701
29444W        W 1759  44.756  40.131  12.423
29445W        W 1760  18.356  10.268  12.449
29446W        W 1761   7.001   7.729   0.794
29447W        W 1762  16.861  14.135   0.789
29448W        W 1763  23.458  10.408   0.330
29449W        W 1764  17.785   3.196   0.900
29450W        W 1765  27.529   3.641   0.038
29451W        W 1766   6.593   3.483  10.595
29452W        W 1767  40.024  32.976  10.753
29453W        W 1768  27.733  18.681  12.511
29454W        W 1769   2.853  36.633  11.141
29455W        W 1770  15.362   2.410  13.805
29456W        W 1771  38.277   7.627   2.179
29457W        W 1772  25.117  33.600  11.380
29458W        W 1773  27.709   9.856   1.076
29459W        W 1774  40.742   4.384  11.542
29460W        W 1775  14.917   9.247  14.101
29461W        W 1776  30.143  14.719  13.830
29462W        W 1777  21.999  36.448  11.116
29463W        W 1778   3.044   1.191  13.966
29464W        W 1779  12.911   9.350  10.664
29465W        W 1780  13.084  25.304  12.022
29466W        W 1781   9.387  29.527  13.178
29467W        W 1782  28.922  29.939  10.673
29468W        W 1783  31.475   0.404   0.720
29469W        W 1784  27.712  33.445  12.657
29470W        W 1785  15.850   0.019   2.191
29471W        W 1786  13.238  19.936  13.432
29472W        W 1787  21.274  15.847  12.830
29473W        W 1788  14.862  43.504  11.547
29474W        W 1789  13.028  24.602  11.628
29475W        W 1790  42.475   9.555  11.724
29476W        W 1791   5.712  35.046   2.395
29477W        W 1792   6.826  27.121  12.131
29478W        W 1793  41.243  33.462  11.976
29479W        W 1794  38.371  34.649  14.458
29480W        W 1795   1.157  44.907   1.582
29481W        W 1796  43.075  30.984   1.811
29482W        W 1797   0.912  25.546  11.182
29483W        W 1798  14.946  13.152  10.526
29484W        W 1799  26.228  40.342  11.509
29485W        W 1800   4.489  22.455  11.137
29486W        W 1801  41.267   3.473   1.370
29487W        W 1802  30.481   7.853  12.177
29488W        W 1803  27.848  37.891   0.437
29489W        W 1804  15.579  33.928   2.310
29490W        W 1805   1.422  30.485  12.969
29491W        W 1806  30.087  40.915   4.948
29492W        W 1807   0.333  38.791   4.784
29493W        W 1808   2.431  40.308   0.065
29494W        W 1809   1.889  26.665   4.542
29495W        W 1810  25.422   2.482   0.406
29496W        W 1811  34.472  20.592  12.848
29497W        W 1812  24.094  12.660  14.979
29498W        W 1813   3.221  36.041   3.923
29499W        W 1814  12.348  17.165   9.736
29500W        W 1815   2.334  16.313   3.414
29501W        W 1816  31.109  18.138  13.799
29502W        W 1817  39.044   1.936  11.600
29503W        W 1818   1.881   4.130   0.784
29504W        W 1819  36.607  36.079  11.181
29505W        W 1820  12.486   0.511   4.871
29506W        W 1821  10.550  16.719  12.870
29507W        W 1822  39.901  13.732   0.271
29508W        W 1823  35.148  42.615   3.821
29509W        W 1824  41.061  29.705  12.077
29510W        W 1825  42.010  34.957  13.001
29511W        W 1826  35.562  31.426   0.923
29512W        W 1827  40.739  19.629   4.063
29513W        W 1828   8.052  25.397  14.796
29514W        W 1829  43.799  26.901   0.861
29515W        W 1830  26.512  21.680  11.107
29516W        W 1831  19.888  15.565  14.367
29517W        W 1832   2.490  25.086  14.425
29518W        W 1833  20.386  37.613  10.748
29519W        W 1834   7.685  11.214  13.716
29520W        W 1835  44.807  20.236   4.188
29521W        W 1836  37.284  38.330  10.802
29522W        W 1837   4.066  25.064   2.150
29523W        W 1838  14.710  37.928   0.296
29524W        W 1839  25.655  22.963   4.190
29525W        W 1840  14.698  31.096   3.793
29526W        W 1841  43.793  39.094   2.818
29527W        W 1842  36.058  19.950  13.921
29528W        W 1843  17.538   6.279  11.977
29529W        W 1844  37.831  13.686   4.790
29530W        W 1845  20.340   1.465  12.818
29531W        W 1846  34.935   8.735   1.508
29532W        W 1847  10.614  36.108  12.986
29533W        W 1848  25.495  19.598  12.828
29534W        W 1849  15.714  13.645   2.725
29535W        W 1850  37.529  36.624  13.006
29536W        W 1851  36.408   2.441  14.907
29537W        W 1852  28.003  15.101  12.489
29538W        W 1853  37.956  14.816   4.319
29539W        W 1854  17.793   2.466   1.259
29540W        W 1855  43.675   2.405  10.878
29541W        W 1856  23.710  21.223  12.047
29542W        W 1857   4.875  28.318   0.936
29543W        W 1858  21.811  23.012   0.349
29544W        W 1859  39.323  14.670   2.685
29545W        W 1860  28.155   8.278   0.053
29546W        W 1861  33.277   5.676  11.942
29547W        W 1862  23.580  34.905   0.996
29548W        W 1863  29.807  29.932  12.346
29549W        W 1864  14.159  12.100  10.768
29550W        W 1865   6.673  22.596  11.631
29551W        W 1866  19.105  13.868  12.375
29552W        W 1867  31.956  22.324   0.269
29553W        W 1868  11.421  16.642   2.880
29554W        W 1869   7.242  25.028  14.336
29555W        W 1870  34.932  26.043   4.554
29556W        W 1871  37.800  29.033  10.341
29557W        W 1872   8.380   6.245   1.311
29558W        W 1873  16.275  16.528   0.458
29559W        W 1874  24.714  32.941  12.950
29560W        W 1875  24.978  26.566   4.190
29561W        W 1876  26.618   5.838  14.516
29562W        W 1877  38.726  38.061  14.518
29563W        W 1878  21.290  12.028   0.742
29564W        W 1879  29.985   1.755  13.603
29565W        W 1880  28.026  21.758   0.554
29566W        W 1881  29.861  22.279  14.028
29567W        W 1882  16.236  35.523  13.961
29568W        W 1883  36.316  15.779  12.442
29569W        W 1884   8.799   7.804   4.542
29570W        W 1885  27.457  19.093   2.423
29571W        W 1886  25.987   3.160  13.124
29572W        W 1887   5.644  44.427  13.036
29573W        W 1888  41.230  41.199   4.123
29574W        W 1889  23.562  23.779   1.895
29575W        W 1890   5.256  35.055  13.253
29576W        W 1891  39.558  22.609   0.822
29577W        W 1892   7.476   4.627   1.284
29578W        W 1893  10.564  22.664   3.295
29579W        W 1894  21.364  25.047   4.194
29580W        W 1895  22.715  27.411  13.758
29581W        W 1896  32.013  35.369   2.292
29582W        W 1897  33.918   3.323   1.477
29583W        W 1898   9.175  27.966   1.722
29584W        W 1899   0.350  18.468  13.071
29585W        W 1900   3.792   4.017   0.730
29586W        W 1901  42.917   9.207  13.291
29587W        W 1902  24.699  11.908  10.781
29588W        W 1903  19.825  31.985   0.570
29589W        W 1904  33.316  16.877  11.171
29590W        W 1905  13.298  33.964   4.083
29591W        W 1906  38.679  11.260   2.285
29592W        W 1907   8.627  20.367  11.893
29593W        W 1908  15.177   5.796  11.131
29594W        W 1909  30.847  23.548  13.992
29595W        W 1910  30.987  31.259   1.348
29596W        W 1911  27.661  17.554   3.146
29597W        W 1912  40.815   5.461  12.538
29598W        W 1913   9.304  23.537  11.466
29599W        W 1914  39.348  35.048  11.892
29600W        W 1915  15.675  27.888   2.379
29601W        W 1916  40.200  43.763  12.604
29602W        W 1917  13.476  23.384   2.877
29603W        W 1918  17.624  27.312  14.404
29604W        W 1919  41.271  12.257   0.539
29605W        W 1920  15.231  10.886  13.281
29606W        W 1921   2.256  14.791  11.895
29607W        W 1922  19.707  32.839  14.165
29608W        W 1923  39.429  15.978   1.918
29609W        W 1924  30.058  13.328  10.423
29610W        W 1925   5.176  36.884  13.027
29611W        W 1926  22.745  12.110   3.147
29612W        W 1927  33.978  17.229   1.896
29613W        W 1928  34.446  32.698   2.635
29614W        W 1929   8.782  22.339   2.041
29615W        W 1930   3.979   8.274   2.773
29616W        W 1931  10.136  41.359  14.347
29617W        W 1932   4.145  10.709  12.959
29618W        W 1933  19.010  29.032   1.326
29619W        W 1934  42.622  34.890  13.059
29620W        W 1935  41.613  24.676   4.978
29621W        W 1936   6.201   6.808  13.419
29622W        W 1937  17.560  30.117   5.017
29623W        W 1938  20.013  32.714   3.145
29624W        W 1939   8.150   3.755   3.570
29625W        W 1940  11.620  23.619  13.523
29626W        W 1941  41.281  35.950   1.482
29627W        W 1942  35.904   2.476  11.892
29628W        W 1943   0.359   6.689  12.016
29629W        W 1944  26.234   3.341  12.219
29630W        W 1945  30.393  19.611   1.104
29631W        W 1946  29.936  40.057   3.721
29632W        W 1947  42.407  37.251  11.396
29633W        W 1948   3.328   8.195  12.091
29634W        W 1949   9.235  15.081   2.906
29635W        W 1950  21.586  43.703   4.761
29636W        W 1951  16.670  20.044  14.564
29637W        W 1952  29.759   8.717  13.392
29638W        W 1953   6.275   8.121   3.283
29639W        W 1954  19.227  25.444  11.977
29640W        W 1955  33.386  33.019  11.259
29641W        W 1956   3.005  16.800   1.440
29642W        W 1957  26.792  22.652   1.486
29643W        W 1958   8.587  26.952   1.240
29644W        W 1959  33.613   2.933  12.692
29645W        W 1960  21.161  16.837   2.190
29646W        W 1961  41.767  23.054  12.468
29647W        W 1962  16.348  44.366  10.874
29648W        W 1963   4.790  42.868   4.624
29649W        W 1964   5.393  35.346   2.746
29650W        W 1965  18.612  27.107  12.167
29651W        W 1966  43.256  30.771  12.562
29652W        W 1967  39.552  39.340  12.867
29653W        W 1968   6.208  21.718  11.471
29654W        W 1969  35.424  37.894   4.270
29655W        W 1970  31.885   3.731  14.193
29656W        W 1971  28.967  13.245   0.831
29657W        W 1972  31.499   0.298   2.905
29658W        W 1973  35.594  23.544  13.495
29659W        W 1974  44.068  26.689  12.060
29660W        W 1975   3.684  13.214  12.928
29661W        W 1976  38.034   4.835   0.249
29662W        W 1977  41.016  12.543   3.717
29663W        W 1978   7.948  27.243   2.816
29664W        W 1979   2.945   7.622  11.271
29665W        W 1980  20.621  44.181   0.136
29666W        W 1981  15.102  27.342   2.738
29667W        W 1982  16.115  43.816   3.337
29668W        W 1983  14.325   8.893  13.305
29669W        W 1984  28.392  27.825  12.968
29670W        W 1985   7.168   2.772   2.624
29671W        W 1986   9.148   0.261  13.313
29672W        W 1987  29.850   6.487  13.794
29673W        W 1988  40.244  10.770   0.104
29674W        W 1989  40.020   6.358   4.308
29675W        W 1990  34.131  14.562   3.716
29676W        W 1991   9.389   2.260  12.810
29677W        W 1992  32.070  23.590   1.853
29678W        W 1993  13.247  12.654   3.663
29679W        W 1994  42.521  11.286  14.353
29680W        W 1995  35.283  42.987   4.182
29681W        W 1996   7.923   6.875  12.067
29682W        W 1997  20.499   3.791  12.875
29683W        W 1998  21.253   4.026  13.491
29684W        W 1999  18.619   9.254  12.406
29685W        W 2000  21.048  44.478   3.136
29686W        W 2001  19.566  31.582  13.201
29687W        W 2002  23.496  27.680   2.577
29688W        W 2003  14.122  11.760   0.927
29689W        W 2004  41.320  22.657   0.313
29690W        W 2005  14.848  44.492  10.656
29691W        W 2006   6.839  31.979   3.790
29692W        W 2007  41.152   1.770  13.765
29693W        W 2008  39.835  25.630  12.389
29694W        W 2009  13.798   3.979  12.565
29695W        W 2010  28.459  21.641   4.205
29696W        W 2011   6.421  27.962  12.411
29697W        W 2012  15.658  12.086   3.672
29698W        W 2013  44.850  23.175  10.764
29699W        W 2014  44.785  26.069   4.498
29700W        W 2015  10.489  25.079  12.051
29701W        W 2016  28.495  24.738  12.990
29702W        W 2017  34.521  34.459   4.389
29703W        W 2018  12.276  24.677   4.099
29704W        W 2019  36.325  16.527   1.966
29705W        W 2020  31.247  34.067   3.979
29706W        W 2021  41.509  11.279   4.382
29707W        W 2022  12.764  21.870   0.316
29708W        W 2023  32.380   5.650   0.593
29709W        W 2024  26.083  29.635  13.076
29710W        W 2025  10.296  37.517   9.951
29711W        W 2026  21.180   9.352  13.920
29712W        W 2027  18.796   9.806  10.119
29713W        W 2028  31.561  42.054   1.608
29714W        W 2029  37.021  21.325   5.038
29715W        W 2030  14.670   1.741   0.436
29716W        W 2031  22.741  33.915   1.757
29717W        W 2032  27.873  11.196   2.157
29718W        W 2033   0.784  32.135  11.620
29719W        W 2034  12.727  29.905  11.094
29720W        W 2035   9.003   1.749  12.036
29721W        W 2036  30.160  26.133  13.358
29722W        W 2037  22.205  16.918   0.779
29723W        W 2038  16.351  27.660   5.086
29724W        W 2039  27.665  34.967   3.356
29725W        W 2040   8.711   0.019   0.337
29726W        W 2041  24.239  20.001   2.232
29727W        W 2042  13.843   0.180   1.011
29728W        W 2043  13.211  37.728   1.767
29729W        W 2044  34.744  15.233  13.069
29730W        W 2045  15.533  17.586  13.359
29731W        W 2046  44.058  22.298   3.092
29732W        W 2047  32.058  25.776  14.514
29733W        W 2048  14.166  16.538  13.980
29734W        W 2049  20.294   1.155  13.573
29735W        W 2050  21.625  43.323   2.947
29736W        W 2051   2.622  29.448  14.908
29737W        W 2052  44.845  16.787   2.743
29738W        W 2053   5.831  25.741   4.671
29739W        W 2054  11.242  30.097   4.084
29740W        W 2055  43.563  33.298   3.761
29741W        W 2056  39.911  25.171  10.568
29742W        W 2057  42.949  24.156  11.101
29743W        W 2058  14.206  35.664  12.892
29744W        W 2059  33.677  24.330   0.443
29745W        W 2060  28.675  36.365  13.575
29746W        W 2061  44.005  11.746  12.863
29747W        W 2062  31.158  24.036   4.168
29748W        W 2063  18.779  41.089   1.715
29749W        W 2064  29.946  36.996   3.776
29750W        W 2065  25.250  39.410   0.466
29751W        W 2066  36.103  18.792  11.093
29752W        W 2067   2.268   7.932  10.661
29753W        W 2068  10.263   4.365   4.285
29754W        W 2069  20.239   2.767   3.098
29755W        W 2070   0.294   3.117   4.998
29756W        W 2071  23.743  20.766  10.403
29757W        W 2072  39.258  41.559  12.620
29758W        W 2073   3.341  29.067  13.891
29759W        W 2074  10.243  34.810   0.772
29760W        W 2075  14.208  21.977   3.577
29761W        W 2076  12.917  19.973   3.720
29762W        W 2077  28.031  38.951   4.702
29763W        W 2078  40.547  20.846   3.832
29764W        W 2079  17.089  36.079  13.968
29765W        W 2080  27.520   2.898   0.461
29766W        W 2081   8.791  17.108  11.760
29767W        W 2082  23.734  36.837  13.345
29768W        W 2083  28.711   0.704   1.330
29769W        W 2084   4.003  23.109  14.344
29770W        W 2085   4.605  11.616  10.748
29771W        W 2086  13.600   8.129   2.856
29772W        W 2087  35.210  12.669  14.398
29773W        W 2088  11.911  14.698  11.521
29774W        W 2089   6.384  42.614   3.855
29775W        W 2090  12.176  42.509  14.799
29776W        W 2091  14.628  14.791  12.663
29777W        W 2092   5.349  26.678   1.514
29778W        W 2093  44.957   7.698   1.219
29779W        W 2094  31.151  26.050  12.885
29780W        W 2095  23.165  29.438  13.394
29781W        W 2096  13.265  20.212  13.885
29782W        W 2097   3.877  40.393  13.299
29783W        W 2098   3.452   5.004   1.612
29784W        W 2099  31.987  15.630   0.361
29785W        W 2100  10.792   5.678   0.406
29786W        W 2101  12.904  14.737  13.610
29787W        W 2102   2.149  21.660   0.211
29788W        W 2103  30.479   7.300  14.479
29789W        W 2104   1.878  11.619   9.726
29790W        W 2105  28.300  44.861  14.468
29791W        W 2106  37.007  26.341  14.356
29792W        W 2107  30.829  34.355   3.333
29793W        W 2108   1.447  35.419  11.967
29794W        W 2109   5.479  29.617   0.515
29795W        W 2110  21.264   2.612   1.666
29796W        W 2111  38.887   9.283   3.780
29797W        W 2112   5.420  22.187  10.480
29798W        W 2113  38.576  37.053   1.110
29799W        W 2114   8.142  44.722   4.099
29800W        W 2115  41.933  21.583  12.795
29801W        W 2116  35.066  43.572  12.934
29802W        W 2117   8.892   9.208  12.691
29803W        W 2118  37.400   3.199   4.604
29804W        W 2119   2.238  13.163  13.963
29805W        W 2120  39.864   5.885   4.484
29806W        W 2121  36.967  13.853  13.351
29807W        W 2122   9.144   4.214   2.554
29808W        W 2123   8.761   9.390   4.129
29809W        W 2124  19.691   7.774  14.858
29810W        W 2125   7.388  42.086  11.615
29811W        W 2126   2.439  19.546  11.238
29812W        W 2127  36.604  16.011  10.905
29813W        W 2128  11.929  33.993   4.048
29814W        W 2129  30.597  44.022  13.810
29815W        W 2130  34.635   3.909   0.009
29816W        W 2131  18.669  37.464   2.115
29817W        W 2132  43.626  40.253   4.666
29818W        W 2133  44.881  27.564   1.723
29819W        W 2134  43.969  24.217   4.345
29820W        W 2135  12.271  12.849   3.470
29821W        W 2136  44.790  21.630   3.549
29822W        W 2137  33.597  39.666  14.375
29823W        W 2138  37.807  16.388  13.764
29824W        W 2139  15.426  11.836  11.853
29825W        W 2140  28.645  22.722   3.296
29826W        W 2141  34.651  36.591   3.567
29827W        W 2142  34.460  42.211  12.771
29828W        W 2143   2.073  16.187  12.587
29829W        W 2144  32.967   8.738  13.360
29830W        W 2145  10.411   8.587  11.687
29831W        W 2146   2.395   7.649  11.214
29832W        W 2147  23.752  41.914   1.874
29833W        W 2148   0.507  26.946   1.081
29834W        W 2149  39.465  23.384   9.753
29835W        W 2150  22.091  37.729  14.810
29836W        W 2151  40.255  25.600  11.309
29837W        W 2152  31.899  15.824   1.912
29838W        W 2153  20.563  28.697  12.357
29839W        W 2154   6.356  15.259  11.079
29840W        W 2155  33.424  23.027   2.369
29841W        W 2156  13.101  40.017  12.389
29842W        W 2157  44.452  16.182   2.207
29843W        W 2158  17.523   2.049   0.019
29844W        W 2159  31.386  40.344  13.341
29845W        W 2160   9.656   2.262   4.161
29846W        W 2161   1.984  28.114  13.890
29847W        W 2162   5.802   1.363   4.275
29848W        W 2163  39.388  29.075  12.277
29849W        W 2164  44.246  29.422   2.338
29850W        W 2165  30.403  18.758  14.469
29851W        W 2166  22.274  32.077   4.357
29852W        W 2167  31.929  15.857   1.195
29853W        W 2168  21.349  26.122   0.371
29854W        W 2169  30.498   8.791   4.616
29855W        W 2170  34.116  19.248   3.226
29856W        W 2171   9.331  43.339  10.413
29857W        W 2172  13.303  43.010   3.586
29858W        W 2173   2.827  23.435  13.964
29859W        W 2174  42.838  17.270   4.077
29860W        W 2175  23.915  42.545  11.932
29861W        W 2176  23.672  37.782   1.319
29862W        W 2177   0.944  40.775   3.709
29863W        W 2178  14.034  33.634  11.590
29864W        W 2179  12.717  14.064   3.369
29865W        W 2180  30.178  16.036  14.100
29866W        W 2181  16.480  41.591   1.188
29867W        W 2182  42.050  14.223   2.755
29868W        W 2183  35.587  42.179   4.649
29869W        W 2184  18.801  31.082   3.713
29870W        W 2185  20.633   8.676   3.700
29871W        W 2186  41.741   4.846   4.773
29872W        W 2187  22.077  36.349   2.413
29873W        W 2188   2.241  20.037  11.996
29874W        W 2189   7.805  43.834   4.535
29875W        W 2190  33.223  17.659   0.845
29876W        W 2191  43.244  20.699  14.099
29877W        W 2192   3.906  15.993   1.410
29878W        W 2193  38.368   0.311  12.834
29879W        W 2194   9.140  20.130  13.303
29880W        W 2195  25.123  20.187   0.539
29881W        W 2196  42.870   4.728   2.576
29882W        W 2197  35.042  22.851  13.367
29883W        W 2198   6.836  38.329   0.999
29884W        W 2199  12.652  11.437  13.895
29885W        W 2200  13.275  10.677  14.863
29886W        W 2201  36.939  25.013  14.451
29887W        W 2202  17.496  36.981   4.512
29888W        W 2203  43.457   1.363   0.825
29889W        W 2204  28.914  26.166  10.722
29890W        W 2205  12.522  37.411   0.253
29891W        W 2206  12.584  19.283   1.287
29892W        W 2207  19.172  31.222   2.238
29893W        W 2208  13.171   1.720   1.028
29894W        W 2209   1.565   7.165   1.302
29895W        W 2210  19.976   0.940  13.965
29896W        W 2211  18.349  41.934  11.115
29897W        W 2212  28.708  22.093  14.852
29898W        W 2213  15.060  42.044  11.464
29899W        W 2214  20.015   6.565   0.776
29900W        W 2215  35.100   8.896  12.061
29901W        W 2216  35.875   9.079   1.184
29902W        W 2217  41.246  23.556   3.807
29903W        W 2218   2.257  16.234  13.556
29904W        W 2219   5.719  30.250   0.762
29905W        W 2220  27.052  32.502  11.367
29906W        W 2221  20.336  20.685  14.105
29907W        W 2222  16.059  12.695   3.234
29908W        W 2223  22.023  11.073  12.514
29909W        W 2224   6.891  26.086   0.761
29910W        W 2225  26.899  10.209   1.842
29911W        W 2226  26.013  37.408  13.434
29912W        W 2227  42.096  10.790   3.858
29913W        W 2228  43.046  27.956  13.580
29914W        W 2229  20.431  23.578  11.105
29915W        W 2230   0.779  11.416   2.023
29916W        W 2231  15.799  16.509   2.656
29917W        W 2232   1.060  15.824   5.181
29918W        W 2233  10.810  43.906  11.673
29919W        W 2234   9.214  19.372  14.001
29920W        W 2235   4.528  40.398   0.350
29921W        W 2236  26.896  43.404  14.335
29922W        W 2237  17.812  40.780   9.825
29923W        W 2238  30.908  27.043   3.411
29924W        W 2239  14.034  27.676  10.639
29925W        W 2240  38.141  14.286  13.603
29926W        W 2241  25.597  15.744  12.954
29927W        W 2242  14.456  16.196  12.935
29928W        W 2243  23.990  24.061   2.839
29929W        W 2244  26.161  30.695  12.808
29930W        W 2245  10.097   3.339  13.395
29931W        W 2246  16.267  21.184   1.299
29932W        W 2247  11.782  25.490   3.950
29933W        W 2248  43.973  32.510   4.555
29934W        W 2249   8.232   9.364   3.354
29935W        W 2250  23.039  40.290  12.857
29936W        W 2251   6.660  26.854  13.481
29937W        W 2252  20.016  27.921  11.640
29938W        W 2253   1.940  36.815  11.595
29939W        W 2254  23.556  42.906  12.789
29940W        W 2255   5.877  23.125  11.602
29941W        W 2256  17.255   5.181  14.735
29942W        W 2257  36.547  44.922  14.260
29943W        W 2258  23.964  34.637   1.775
29944W        W 2259  21.231   1.188  12.407
29945W        W 2260  44.979  22.769   0.795
29946W        W 2261  35.791   8.016   2.313
29947W        W 2262  35.563  15.636   0.990
29948W        W 2263  25.638  29.092  10.506
29949W        W 2264  41.258  31.669  14.408
29950W        W 2265   6.702   6.805  14.909
29951W        W 2266   0.282  31.395  12.548
29952W        W 2267  22.221  17.554  11.535
29953W        W 2268   8.013  32.443   4.906
29954W        W 2269  14.632  38.706   2.462
29955W        W 2270  30.413   8.761   3.790
29956W        W 2271  37.923  40.744  13.327
29957W        W 2272  25.975  44.919  11.648
29958W        W 2273   6.168  23.829   1.976
29959W        W 2274  19.321  33.768   1.694
29960W        W 2275   9.183  22.751   4.343
29961W        W 2276  24.946   5.198  13.055
29962W        W 2277   0.767  11.396  11.530
29963W        W 2278  10.962   3.567   3.224
29964W        W 2279  16.039  42.533  11.159
29965W        W 2280  42.484  38.008   2.406
29966W        W 2281  16.213  12.791  11.628
29967W        W 2282   1.501  14.359   1.909
29968W        W 2283  37.316  23.741   1.345
29969W        W 2284  33.120  40.206  14.968
29970W        W 2285  21.600  25.493  14.408
29971W        W 2286  30.894  24.515  14.906
29972W        W 2287  20.807  40.517  13.407
29973W        W 2288  19.797  25.204  11.476
29974W        W 2289  39.555  34.842  13.455
29975W        W 2290  15.160  42.279   2.170
29976W        W 2291  11.091   5.424   4.312
29977W        W 2292  41.415  36.694   0.124
29978W        W 2293  28.421   4.668  10.303
29979W        W 2294  20.999  13.062  13.950
29980W        W 2295  20.692  33.079  10.742
29981W        W 2296   0.311   5.232  10.411
29982W        W 2297  39.917  23.588  14.645
29983W        W 2298   3.014  30.933  12.441
29984W        W 2299  37.397   8.381  14.862
29985W        W 2300  31.647  24.214  12.473
29986W        W 2301   6.503  44.756  12.570
29987W        W 2302  42.372  38.997   1.287
29988W        W 2303   9.367   9.189  12.459
29989W        W 2304  12.365  39.031  13.513
29990W        W 2305  24.481  34.388   0.791
29991W        W 2306   5.251   4.338   2.610
29992W        W 2307  24.194   1.800  10.721
29993W        W 2308  36.937   4.876   1.271
29994W        W 2309   1.287  32.830  10.721
29995W        W 2310  21.283  10.830   3.622
29996W        W 2311  40.341  15.604   3.192
29997W        W 2312  33.039  10.038  14.795
29998W        W 2313  18.533  29.484  14.570
29999W        W 2314   4.466  33.509   0.308
30000W        W 2315  24.755  25.688   2.299
30001W        W 2316  13.693  37.636  14.326
30002W        W 2317   4.724  43.277   4.930
30003W        W 2318   2.985  29.127   3.632
30004W        W 2319  12.190  32.971  10.696
30005W        W 2320  37.312   5.194  10.543
30006W        W 2321  22.946  19.024   1.397
30007W        W 2322  10.292  37.457  11.139
30008W        W 2323  38.132   0.752   3.684
30009W        W 2324  43.270  26.120  14.304
30010W        W 2325  35.884   5.319   3.724
30011W        W 2326  18.757  10.642  14.867
30012W        W 2327  16.900  12.874   0.577
30013W        W 2328  41.811  36.431  12.525
30014W        W 2329  42.112  27.566   3.753
30015W        W 2330  37.541  29.887   1.701
30016W        W 2331  13.623  37.976   2.907
30017W        W 2332  19.567  26.158  14.140
30018W        W 2333  20.857   8.196   4.362
30019W        W 2334  43.382  17.692   3.431
30020W        W 2335   3.973  33.805   4.886
30021W        W 2336   3.181  11.914   4.532
30022W        W 2337  39.735  18.187  10.950
30023W        W 2338   9.152   3.506  13.314
30024W        W 2339   8.832  31.716   1.773
30025W        W 2340   9.427  25.633   0.133
30026W        W 2341   6.876  13.083  13.964
30027W        W 2342  22.067  12.165   0.442
30028W        W 2343  40.293  19.626  13.615
30029W        W 2344   3.209   0.167  14.756
30030W        W 2345  38.428  41.136   2.260
30031W        W 2346  22.845  23.670  12.828
30032W        W 2347  27.501  36.206  13.014
30033W        W 2348  13.386  15.755   1.805
30034W        W 2349   0.489  37.127   1.799
30035W        W 2350  32.414  19.214  12.009
30036W        W 2351   1.648  28.567  11.108
30037W        W 2352  16.116  43.028  12.582
30038W        W 2353  29.709  13.600   4.846
30039W        W 2354  32.949  14.079  10.566
30040W        W 2355  32.752  41.387   2.139
30041W        W 2356   1.918  12.346  11.231
30042W        W 2357   1.152  36.952  12.062
30043W        W 2358  17.971  40.889   0.272
30044W        W 2359  11.421   8.669  12.428
30045W        W 2360  44.196   8.904   1.262
30046W        W 2361  22.910  28.078  13.538
30047W        W 2362  18.743  25.926  11.165
30048W        W 2363   2.845   2.900   3.624
30049W        W 2364  20.593  16.370   3.723
30050W        W 2365  25.456  17.559  13.563
30051W        W 2366  16.016  27.868   4.585
30052W        W 2367  27.952  18.845  12.067
30053W        W 2368  12.729  28.528  12.483
30054W        W 2369  33.966  36.883  14.323
30055W        W 2370  10.453   1.890   3.406
30056W        W 2371  22.705  28.003   4.462
30057W        W 2372  42.509  41.332   2.320
30058W        W 2373  11.727  43.776   3.466
30059W        W 2374   6.627   8.143   4.997
30060W        W 2375  33.537   4.943   0.423
30061W        W 2376  25.153  37.105  12.893
30062W        W 2377  30.456  26.151   4.655
30063W        W 2378  24.578  35.614   1.192
30064W        W 2379   8.677  18.119   4.067
30065W        W 2380  20.237  37.573   1.310
30066W        W 2381  10.433  43.620  13.946
30067W        W 2382  40.323  25.239  10.275
30068W        W 2383  11.067  17.483  14.690
30069W        W 2384  27.610  40.104   1.029
30070W        W 2385  16.537  32.200   3.339
30071W        W 2386  36.124  32.463  14.086
30072W        W 2387   3.373  10.180  13.002
30073W        W 2388  18.599  19.629   3.815
30074W        W 2389  18.122  35.041   4.574
30075W        W 2390   4.922  42.669  12.078
30076W        W 2391  15.525   7.339   2.728
30077W        W 2392  26.511   9.765  14.917
30078W        W 2393  15.375  38.253  12.945
30079W        W 2394  16.843   4.222   4.151
30080W        W 2395  36.087  44.336   5.367
30081W        W 2396  22.471   4.150  11.061
30082W        W 2397  42.519  13.665  12.067
30083W        W 2398  24.910  26.186   2.124
30084W        W 2399  24.282   1.987  12.093
30085W        W 2400  22.239  41.869   0.739
30086W        W 2401   4.501  38.895   1.186
30087W        W 2402  16.790  31.040  10.786
30088W        W 2403   7.653  36.553  14.908
30089W        W 2404  36.078  22.157   4.893
30090W        W 2405   3.750  20.277   1.564
30091W        W 2406  25.268  13.162   0.472
30092W        W 2407   3.337  38.821   0.880
30093W        W 2408  11.690  44.737   3.116
30094W        W 2409  33.075   3.533  13.023
30095W        W 2410  34.809  11.280   2.248
30096W        W 2411  14.523  20.799   3.328
30097W        W 2412   9.125  16.569  13.021
30098W        W 2413  35.553  27.929   0.107
30099W        W 2414  34.938  22.666  14.336
30100W        W 2415  27.496  39.754   1.411
30101W        W 2416  33.406   3.230  12.320
30102W        W 2417  42.304  28.850   4.136
30103W        W 2418   8.373  41.186  13.658
30104W        W 2419  32.130  44.448  10.392
30105W        W 2420  17.337  42.151   1.401
30106W        W 2421  32.440  35.061   3.249
30107W        W 2422  35.878  21.704  10.677
30108W        W 2423   2.809  34.927   3.145
30109W        W 2424  28.160  31.852   2.629
30110W        W 2425  44.452  39.483   3.357
30111W        W 2426  10.766  17.331  13.398
30112W        W 2427  15.024   1.378   0.934
30113W        W 2428  29.888   6.427  10.530
30114W        W 2429  26.278  44.905  13.386
30115W        W 2430  28.483  31.894  14.456
30116W        W 2431  26.678  36.843  10.807
30117W        W 2432  40.220  44.157   0.897
30118W        W 2433   4.761  19.955  11.051
30119W        W 2434  22.358   4.839  12.969
30120W        W 2435   4.796  14.784  13.555
30121W        W 2436  39.448  38.661   2.264
30122W        W 2437   3.194  30.979  10.705
30123W        W 2438   8.745  43.259  13.187
30124W        W 2439  30.803  38.674  13.485
30125W        W 2440  26.255  28.565  12.368
30126W        W 2441  20.975  14.985  10.647
30127W        W 2442  40.919  43.598   2.067
30128W        W 2443  32.408  20.165  11.312
30129W        W 2444   4.245   8.397   2.204
30130W        W 2445   7.292  16.129  14.863
30131W        W 2446   0.317  44.536  14.047
30132W        W 2447  44.964  11.160  10.993
30133W        W 2448  16.190   0.447   2.627
30134W        W 2449  33.412  42.385   2.277
30135W        W 2450  20.369   5.911   1.278
30136W        W 2451   0.998  18.618  14.055
30137W        W 2452   0.463  31.459  11.162
30138W        W 2453  16.817  10.316  11.134
30139W        W 2454  22.492  21.929   0.448
30140W        W 2455  30.738  28.521   0.142
30141W        W 2456  32.682   1.711   0.864
30142W        W 2457  43.368  10.897  11.230
30143W        W 2458  40.570  17.141   4.587
30144W        W 2459   8.812  14.884  10.810
30145W        W 2460  20.522   9.853  11.377
30146W        W 2461   2.815  36.690  12.030
30147W        W 2462   6.281  42.549  10.762
30148W        W 2463   6.426  23.213  13.198
30149W        W 2464   9.614   1.517  14.517
30150W        W 2465  42.358  38.921  14.191
30151W        W 2466  16.181  32.310   1.219
30152W        W 2467  38.489  44.456   1.896
30153W        W 2468  25.563   8.855   1.779
30154W        W 2469  17.318  28.484   2.884
30155W        W 2470  32.147  14.735   0.245
30156W        W 2471  32.016  21.716   2.883
30157W        W 2472  12.646  25.613  14.402
30158W        W 2473   6.928   9.784   3.253
30159W        W 2474  22.238  35.607   4.467
30160W        W 2475  26.568   5.199   4.541
30161W        W 2476  31.959  21.898   4.721
30162W        W 2477   2.350  41.277   1.846
30163W        W 2478  30.188  15.185   1.714
30164W        W 2479   8.702  17.596   1.256
30165W        W 2480  11.446   7.402   4.161
30166W        W 2481   9.836  42.443   1.249
30167W        W 2482  19.748  21.825   4.169
30168W        W 2483   3.441   2.808  13.796
30169W        W 2484   6.604   0.420   0.996
30170W        W 2485  39.676  26.152  12.493
30171W        W 2486  10.256   3.764   0.574
30172W        W 2487   0.271  29.426   4.263
30173W        W 2488  37.927  34.884  13.861
30174W        W 2489   0.345  36.687   3.813
30175W        W 2490   2.727  22.383   3.977
30176W        W 2491   1.082  42.801  14.077
30177W        W 2492  37.277  37.926   1.359
30178W        W 2493  39.860  10.296  11.631
30179W        W 2494  28.386  21.503   3.687
30180W        W 2495  40.717  18.177  13.216
30181W        W 2496  14.526  33.008  13.367
30182W        W 2497  18.998  20.383   1.837
30183W        W 2498  14.348  12.251   4.102
30184W        W 2499  18.273  41.913  14.801
30185W        W 2500   7.310  18.175   3.634
30186W        W 2501  33.627  18.977  13.623
30187W        W 2502  41.420  28.915  13.523
30188W        W 2503  43.399  13.093  10.760
30189W        W 2504   9.244  15.291  10.621
30190W        W 2505  44.962   6.731   4.164
30191W        W 2506  16.966   9.643   4.104
30192W        W 2507   1.256  38.283   3.658
30193W        W 2508  41.441  40.153  13.526
30194W        W 2509  10.614  15.199   1.998
30195W        W 2510  33.895  31.956  10.488
30196W        W 2511  22.920  29.975   0.541
30197W        W 2512  42.919  38.632   4.104
30198W        W 2513  44.037  37.797  11.091
30199W        W 2514   7.877  27.878   4.493
30200W        W 2515   7.747  37.868   4.689
30201W        W 2516  13.166   5.128   3.707
30202W        W 2517  16.597  32.710   3.349
30203W        W 2518  39.467  38.477  12.449
30204W        W 2519  27.320   3.380   5.096
30205W        W 2520  19.926  32.923   2.639
30206W        W 2521  15.840  40.988  12.076
30207W        W 2522  23.629  36.867  13.870
30208W        W 2523  30.464  31.905  14.377
30209W        W 2524  20.312   0.144   4.419
30210W        W 2525  38.047   6.090  12.371
30211W        W 2526  25.212  22.250   4.374
30212W        W 2527  15.630  21.291   3.317
30213W        W 2528   6.673  15.258   0.432
30214W        W 2529   4.454  22.380   1.380
30215W        W 2530  11.864  19.287   2.867
30216W        W 2531  31.051  22.543  11.384
30217W        W 2532  36.115  37.254   1.831
30218W        W 2533   2.511  35.591   2.807
30219W        W 2534  38.874  21.248  10.684
30220W        W 2535   8.407  13.288   4.738
30221W        W 2536  36.036  13.273   1.217
30222W        W 2537   8.696  10.788   4.362
30223W        W 2538   9.610  32.012  13.011
30224W        W 2539  22.213  38.000  13.932
30225W        W 2540  31.119  42.070  12.788
30226W        W 2541  21.754  21.002   0.945
30227W        W 2542  13.261  29.392  12.603
30228W        W 2543   2.269   6.407   1.746
30229W        W 2544  14.530   4.664  11.167
30230W        W 2545  40.791   2.404  12.065
30231W        W 2546  16.399  25.750  11.191
30232W        W 2547  18.255  13.278   1.173
30233W        W 2548   4.674  13.809   3.702
30234W        W 2549   2.867   5.154  12.896
30235W        W 2550  11.399  18.692   4.542
30236W        W 2551  31.358  31.060  10.684
30237W        W 2552   5.274  36.358   4.295
30238W        W 2553  43.881  43.571   0.420
30239W        W 2554  36.565  37.097  11.153
30240W        W 2555  26.283  13.286   0.296
30241W        W 2556  20.752  35.914  12.082
30242W        W 2557   6.933   4.673   2.735
30243W        W 2558  39.526   9.721   0.267
30244W        W 2559   0.498  44.786   1.067
30245W        W 2560  39.976  33.972  13.124
30246W        W 2561  36.327  16.403  11.054
30247W        W 2562   3.826  27.389   1.706
30248W        W 2563  11.441  17.908   1.399
30249W        W 2564   4.097  37.771  13.604
30250W        W 2565   4.151  37.115  13.804
30251W        W 2566  32.077  20.164   2.834
30252W        W 2567   9.290  44.423   2.583
30253W        W 2568   2.353  31.887  14.064
30254W        W 2569   6.549   7.768   2.610
30255W        W 2570  18.463  19.179   3.645
30256W        W 2571  30.606  18.182  14.752
30257W        W 2572   7.205  27.145   1.408
30258W        W 2573  31.955  37.766   2.795
30259W        W 2574  11.828  16.109   2.443
30260W        W 2575   1.009  20.717  12.054
30261W        W 2576  24.701  27.374  11.909
30262W        W 2577   2.822  34.379   1.833
30263W        W 2578  38.772  35.834   1.218
30264W        W 2579   9.718  16.191   3.372
30265W        W 2580   1.604  43.395   3.902
30266W        W 2581  39.591   1.810   0.898
30267W        W 2582  15.243   9.616   2.254
30268W        W 2583  31.245   4.806  10.688
30269W        W 2584  34.009  13.690   0.551
30270W        W 2585  32.414   4.301   0.232
30271W        W 2586  44.004   7.184  13.499
30272W        W 2587  12.588  34.700   0.812
30273W        W 2588  34.291  21.777  11.934
30274W        W 2589   5.754   3.872   4.674
30275W        W 2590  14.627  11.732   1.007
30276W        W 2591  21.470  37.746   4.183
30277W        W 2592  27.201  42.095  10.857
30278W        W 2593  22.666  34.236   3.404
30279W        W 2594   6.900  24.842   3.617
30280W        W 2595   0.379  41.844  12.884
30281W        W 2596  41.806  34.870   4.641
30282W        W 2597  20.567  29.184  13.777
30283W        W 2598  13.164  17.537  12.874
30284W        W 2599  33.847  14.336   1.875
30285W        W 2600  38.134   0.762  11.694
30286W        W 2601  24.206   9.100  14.913
30287W        W 2602  30.274  25.216  14.841
30288W        W 2603   4.210  33.699  12.782
30289W        W 2604  27.745  10.548  12.245
30290W        W 2605  34.463  21.911  11.011
30291W        W 2606   0.809  24.848   3.777
30292W        W 2607  28.704  11.847  10.722
30293W        W 2608   7.811  35.114   4.581
30294W        W 2609   6.935  24.601   2.702
30295W        W 2610  20.025   0.713   3.182
30296W        W 2611  24.416  30.436   1.010
30297W        W 2612  23.483   9.686  13.172
30298W        W 2613  28.436   6.910   9.954
30299W        W 2614   0.712  26.541   0.831
30300W        W 2615  24.638  34.608   1.241
30301W        W 2616  31.431  31.063   4.471
30302W        W 2617  31.589  42.075  12.956
30303W        W 2618   0.777  32.878  11.846
30304W        W 2619  28.053   7.596  10.475
30305W        W 2620   4.741  30.277  13.391
30306W        W 2621   7.248  16.064  10.515
30307W        W 2622  29.663  35.932  14.508
30308W        W 2623  24.162   7.725   2.972
30309W        W 2624  22.652  35.865   0.704
30310W        W 2625  20.031  16.635  10.679
30311W        W 2626  40.763  24.168   1.786
30312W        W 2627  21.410  28.831  10.718
30313W        W 2628   5.314   9.952  12.380
30314W        W 2629   6.694  25.552  12.185
30315W        W 2630   3.350   3.700   0.551
30316W        W 2631   2.600  23.698   4.152
30317W        W 2632   2.547  14.700   1.812
30318W        W 2633  24.884  40.880  10.907
30319W        W 2634   9.313  15.618  11.013
30320W        W 2635  39.661   6.165   2.659
30321W        W 2636  18.351   3.915   4.884
30322W        W 2637   5.637   9.627  14.837
30323W        W 2638   6.322  42.607  12.145
30324W        W 2639  11.410   8.314   4.490
30325W        W 2640   2.874   4.653  13.083
30326W        W 2641  42.891  14.866  12.436
30327W        W 2642   6.282   1.695   1.874
30328W        W 2643  22.881   1.185   0.369
30329W        W 2644  26.025   6.560   3.297
30330W        W 2645   8.723  17.123   4.222
30331W        W 2646  29.739   7.167  11.564
30332W        W 2647  37.830  15.222  11.737
30333W        W 2648  17.145  38.900   0.895
30334W        W 2649  11.233  27.742  12.742
30335W        W 2650  23.032   2.749  11.174
30336W        W 2651   2.983  27.205  11.558
30337W        W 2652  19.006   9.365   3.421
30338W        W 2653   8.290   9.877  14.902
30339W        W 2654  12.915   7.658  12.111
30340W        W 2655  23.789   3.544   1.244
30341W        W 2656   2.212  13.994   2.684
30342W        W 2657  36.086  43.703   4.498
30343W        W 2658   6.507   4.800   4.435
30344W        W 2659  15.788  10.577  10.665
30345W        W 2660  41.649   6.132  14.519
30346W        W 2661  19.745  11.057   4.649
30347W        W 2662  44.390  44.509   0.814
30348W        W 2663   1.445  38.331   4.689
30349W        W 2664   5.736  32.587   2.285
30350W        W 2665  44.352  22.036  14.435
30351W        W 2666  32.391  24.714   4.030
30352W        W 2667  38.730  14.131  11.151
30353W        W 2668  23.135  39.381  13.976
30354W        W 2669  40.573  24.921   1.244
30355W        W 2670  35.617  43.904   4.546
30356W        W 2671  13.239  22.023   0.452
30357W        W 2672  29.717   1.477  11.700
30358W        W 2673  25.168  18.758  12.508
30359W        W 2674  42.042  16.537  14.925
30360W        W 2675   0.373  40.237  14.944
30361W        W 2676  14.822  43.823   0.039
30362W        W 2677   5.785  26.873   2.761
30363W        W 2678  32.194  40.721   2.682
30364W        W 2679  26.924  36.101  11.577
30365W        W 2680  26.398  18.229   3.083
30366W        W 2681  17.851   5.187  13.241
30367W        W 2682  18.408  13.355   2.774
30368W        W 2683  32.169  32.949   3.662
30369W        W 2684   4.823  25.098  12.872
30370W        W 2685   3.046   7.814   0.781
30371W        W 2686  26.452  41.383   4.651
30372W        W 2687  38.238  27.670  14.811
30373W        W 2688  22.663  40.256   4.324
30374W        W 2689   1.622  22.743   4.663
30375W        W 2690   5.155  34.391   3.264
30376W        W 2691   8.620   9.228  11.363
30377W        W 2692   7.666  11.832   1.395
30378W        W 2693   9.697  16.104   1.449
30379W        W 2694   4.212  21.884  13.434
30380W        W 2695  39.564  38.358  11.090
30381W        W 2696  28.175  16.158  11.937
30382W        W 2697  33.056   6.927  13.652
30383W        W 2698  31.118  32.982   4.573
30384W        W 2699  23.960  28.460   0.125
30385W        W 2700   4.253  13.956   0.458
30386W        W 2701  18.887  23.174   3.574
30387W        W 2702  22.564  41.664   3.243
30388W        W 2703   2.158  27.596  11.528
30389W        W 2704  28.646  44.490   3.829
30390W        W 2705   7.291  15.624  10.771
30391W        W 2706  26.665   8.595  12.468
30392W        W 2707  28.539  20.761   1.045
30393W        W 2708  12.679  39.451  14.388
30394W        W 2709  27.721   9.689   3.648
30395W        W 2710  44.149  25.156   1.778
30396W        W 2711   1.801  31.428  14.582
30397W        W 2712  34.533  34.971   4.636
30398W        W 2713  43.038  11.341   3.275
30399W        W 2714   9.685   2.487  11.853
30400W        W 2715  38.310  11.279   1.213
30401W        W 2716  39.988  42.462  13.941
30402W        W 2717  33.071  11.451  10.377
30403W        W 2718  25.220  33.374   3.102
30404W        W 2719  28.657   5.831   3.087
30405W        W 2720  27.562  12.746  11.658
30406W        W 2721   6.315  20.249   2.686
30407W        W 2722   9.605  29.658   1.265
30408W        W 2723   6.344  42.811  11.209
30409W        W 2724   5.408  31.747  11.628
30410W        W 2725  22.709  35.898   1.798
30411W        W 2726  40.370  26.485   1.592
30412W        W 2727  29.587  43.920  13.544
30413W        W 2728  12.328   7.415   4.545
30414W        W 2729  37.811  11.905  14.804
30415W        W 2730  13.185  32.047  10.424
30416W        W 2731  36.781  36.907   3.824
30417W        W 2732   3.229  19.558   2.388
30418W        W 2733  39.691   8.149   0.934
30419W        W 2734  16.653  31.442  14.333
30420W        W 2735  33.433   1.558   4.146
30421W        W 2736  31.080  34.965  10.689
30422W        W 2737  10.636   5.911  13.786
30423W        W 2738  18.552  20.155  13.135
30424W        W 2739  36.530  30.211   0.994
30425W        W 2740  38.469   3.472  11.980
30426W        W 2741   6.097  18.518  11.096
30427W        W 2742  19.495  10.666  11.265
30428W        W 2743  11.866  24.714   2.372
30429W        W 2744  10.268   9.908   1.944
30430W        W 2745  28.120  31.425   3.687
30431W        W 2746   9.232  33.956   1.194
30432W        W 2747   0.437  13.139  12.753
30433W        W 2748   6.424  20.315   4.465
30434W        W 2749  29.992  23.484   1.276
30435W        W 2750  42.775  21.149  12.651
30436W        W 2751  29.747  26.416  13.934
30437W        W 2752   2.073  15.473   5.238
30438W        W 2753   0.282  33.568   5.308
30439W        W 2754  34.081  16.625  10.539
30440W        W 2755  36.561   1.535  14.889
30441W        W 2756  34.601  42.125   0.928
30442W        W 2757   2.806   4.845  14.937
30443W        W 2758  26.969  39.508  12.069
30444W        W 2759  31.205  32.868  13.962
30445W        W 2760  34.559  35.134  13.030
30446W        W 2761  29.158  16.699   4.486
30447W        W 2762  23.268  10.709  14.007
30448W        W 2763  38.078   7.806  14.748
30449W        W 2764  32.813  27.214   3.676
30450W        W 2765   8.348  32.413   4.460
30451W        W 2766  11.435  12.844   2.621
30452W        W 2767  30.845   8.316   1.289
30453W        W 2768  10.889  26.461   2.103
30454W        W 2769  41.267  17.035  13.828
30455W        W 2770  43.887  38.518  12.927
30456W        W 2771  42.352   4.944  14.245
30457W        W 2772  23.939  15.150   3.748
30458W        W 2773  26.402  34.046  10.256
30459W        W 2774  32.916  25.401  11.015
30460W        W 2775  24.618  21.612   0.938
30461W        W 2776  31.205  15.754   4.612
30462W        W 2777   4.352  36.111   2.612
30463W        W 2778  20.229  20.791   3.713
30464W        W 2779  12.216  10.681   1.336
30465W        W 2780  30.121  28.400  12.946
30466W        W 2781  18.566  28.910   2.329
30467W        W 2782  27.192  11.243   1.036
30468W        W 2783  17.677  43.255   4.288
30469W        W 2784  43.784  32.523   3.201
30470W        W 2785  11.550  14.426  14.398
30471W        W 2786  17.259  38.747  10.652
30472W        W 2787  22.498  43.374   3.064
30473W        W 2788   7.666  17.065  11.202
30474W        W 2789  11.184   3.395  10.731
30475W        W 2790  36.925  29.462   1.241
30476W        W 2791  41.024   3.941  13.323
30477W        W 2792  26.996   6.514  12.872
30478W        W 2793  24.259   9.636  14.911
30479W        W 2794  20.550   5.039  14.514
30480W        W 2795  35.109  27.033  12.860
30481W        W 2796  14.321  42.349  12.610
30482W        W 2797  31.629  14.241  12.402
30483W        W 2798  16.598  12.598   1.679
30484W        W 2799  11.217  31.907   3.700
30485W        W 2800  23.713   2.675   2.396
30486W        W 2801  33.430  37.603   1.866
30487W        W 2802  43.471  30.691  10.868
30488W        W 2803  23.983  34.484   0.012
30489W        W 2804  16.115  25.104   5.032
30490W        W 2805   7.577  41.360  12.109
30491W        W 2806  38.506  13.066  11.192
30492W        W 2807  31.366  28.264  12.180
30493W        W 2808  10.787  10.230  13.042
30494W        W 2809   3.899  12.734  12.842
30495W        W 2810   1.022   3.434   2.507
30496W        W 2811  11.771  23.223  11.298
30497W        W 2812   6.620  16.613   0.879
30498W        W 2813  33.030   9.442   0.838
30499W        W 2814   5.149  19.835  14.566
30500W        W 2815   0.360   0.812   4.597
30501W        W 2816  19.722  25.313  14.387
30502W        W 2817  11.866  30.531  13.281
30503W        W 2818  25.202  13.305   2.582
30504W        W 2819  44.968  12.792   0.363
30505W        W 2820  16.324  36.361   2.397
30506W        W 2821  38.747  24.587   1.348
30507W        W 2822  44.216  42.520  12.563
30508W        W 2823  23.801   9.736  14.060
30509W        W 2824   4.715  22.564   0.860
30510W        W 2825  10.403  43.183  12.395
30511W        W 2826  15.716  35.536   2.597
30512W        W 2827  19.669  12.320   2.784
30513W        W 2828   4.882  37.942  14.080
30514W        W 2829  31.123  29.228  14.562
30515W        W 2830  19.451  17.617   2.971
30516W        W 2831  43.442   9.615  12.006
30517W        W 2832  32.064   4.551   3.743
30518W        W 2833  15.221  28.191   2.242
30519W        W 2834  14.295  31.616  13.841
30520W        W 2835  41.721  28.485   1.243
30521W        W 2836  40.560  37.082  12.138
30522W        W 2837   6.345  35.640   0.304
30523W        W 2838   1.762   8.505  10.937
30524W        W 2839  12.581  27.542   1.798
30525W        W 2840  16.033  42.831  14.758
30526W        W 2841   8.793  31.513  12.957
30527W        W 2842   2.748  31.672  14.328
30528W        W 2843   2.281  24.014   3.241
30529W        W 2844   1.393   2.016   0.001
30530W        W 2845  36.497  32.152   1.735
30531W        W 2846  28.862   4.658   5.019
30532W        W 2847  15.639  25.749   1.926
30533W        W 2848  18.765  19.466   4.956
30534W        W 2849  24.672  39.843   1.899
30535W        W 2850  15.834  15.420   9.930
30536W        W 2851  18.803   8.811  14.751
30537W        W 2852  10.870  17.757  12.416
30538W        W 2853  37.125  23.252   1.471
30539W        W 2854   8.494  30.123  13.985
30540W        W 2855  21.721  42.465  13.304
30541W        W 2856  29.606  25.100   4.244
30542W        W 2857  20.891  22.955   2.754
30543W        W 2858  38.707  23.002  11.966
30544W        W 2859   7.481  31.486  14.738
30545W        W 2860   9.312  28.526  12.986
30546W        W 2861   0.800  16.537  11.919
30547W        W 2862  21.333  32.943  14.199
30548W        W 2863  40.774  26.053   1.869
30549W        W 2864   3.922  41.805   2.638
30550W        W 2865   0.027  13.562   1.010
30551W        W 2866  27.020  28.890   3.779
30552W        W 2867  25.627  19.330   5.035
30553W        W 2868  31.883   5.166  14.779
30554W        W 2869  16.130  37.782   3.327
30555W        W 2870  20.712  19.938  13.716
30556W        W 2871   0.441  25.531   4.845
30557W        W 2872   6.058  23.525   9.985
30558W        W 2873  38.152  14.099  11.072
30559W        W 2874  22.706   5.995   0.927
30560W        W 2875  26.452  42.666  11.382
30561W        W 2876  31.967  20.973  11.296
30562W        W 2877  24.660  20.789  10.369
30563W        W 2878  18.768  22.673   3.740
30564W        W 2879  11.189   7.679  11.017
30565W        W 2880  24.341  18.123   2.766
30566W        W 2881  35.577  19.884   4.331
30567W        W 2882  30.108  38.322  11.132
30568W        W 2883  22.172  23.638  11.271
30569W        W 2884  26.579  32.644  12.131
30570W        W 2885   6.902  36.734  12.144
30571W        W 2886  19.826   0.445  10.352
30572W        W 2887  23.808  21.348   0.205
30573W        W 2888  24.500  26.992   2.093
30574W        W 2889   5.002   1.947   1.223
30575W        W 2890  34.814  23.506   0.342
30576W        W 2891  43.555   3.199   1.185
30577W        W 2892  14.338  33.990   2.721
30578W        W 2893  42.447   1.559  13.549
30579W        W 2894  13.836  34.080   4.132
30580W        W 2895  28.692   5.608   4.018
30581W        W 2896  40.310  34.025   1.433
30582W        W 2897   9.385   6.851  14.508
30583W        W 2898  31.024   3.385   4.713
30584W        W 2899  41.347  41.387   0.990
30585W        W 2900  13.501  25.807  11.968
30586W        W 2901  37.350  27.225  14.578
30587W        W 2902  43.672   1.230   2.924
30588W        W 2903  15.645   5.826  13.024
30589W        W 2904  11.103  12.159   0.489
30590W        W 2905  26.171   3.533  12.690
30591W        W 2906  26.071  11.821   4.071
30592W        W 2907  40.084  24.646   2.476
30593W        W 2908  33.404  22.351   4.203
30594W        W 2909   8.815   2.209  11.163
30595W        W 2910   6.465  24.112   2.281
30596W        W 2911  13.200  10.708  12.034
30597W        W 2912  38.502  27.651   3.923
30598W        W 2913  44.767   8.375  13.592
30599W        W 2914   8.923  36.877   2.039
30600W        W 2915  43.344  40.439  12.062
30601W        W 2916  41.941   0.556   0.159
30602W        W 2917  40.143  36.048  11.129
30603W        W 2918   8.252  16.479   0.139
30604W        W 2919  21.004  34.207  14.507
30605W        W 2920  15.227   7.527   2.245
30606W        W 2921  10.204  29.956  12.410
30607W        W 2922  10.926  35.961   4.977
30608W        W 2923  29.438  22.535  11.130
30609W        W 2924  20.170  19.063   0.317
30610W        W 2925  37.286  43.262   1.281
30611W        W 2926  27.011   1.596   0.224
30612W        W 2927  15.249  29.683   5.425
30613W        W 2928  37.807  17.748   2.903
30614W        W 2929   7.829  20.498   3.293
30615W        W 2930  37.698   1.416   0.583
30616W        W 2931  31.497  44.356  14.566
30617W        W 2932  34.717  26.267  14.098
30618W        W 2933  35.354  15.740  13.889
30619W        W 2934  35.844  21.241  11.572
30620W        W 2935  24.661  11.170   0.902
30621W        W 2936  21.925  12.997  11.562
30622W        W 2937  35.917   7.994   2.819
30623W        W 2938   6.766   1.565   1.966
30624W        W 2939  36.313  23.017   4.889
30625W        W 2940   7.460  42.672   2.077
30626W        W 2941   3.923   5.699  14.959
30627W        W 2942   2.566  11.283  11.174
30628W        W 2943   4.161  35.468  11.489
30629W        W 2944  26.247  12.197   1.748
30630W        W 2945   7.654   6.841   3.359
30631W        W 2946  11.346   6.783   1.797
30632W        W 2947   6.660  25.975  13.714
30633W        W 2948  18.384   8.429   1.333
30634W        W 2949  12.895  32.443  10.946
30635W        W 2950  36.603  39.122  11.320
30636W        W 2951  17.983   0.642  14.915
30637W        W 2952   1.210  23.601  12.071
30638W        W 2953   2.404  24.072  10.724
30639W        W 2954  19.101   2.426   1.830
30640W        W 2955  32.979  27.975   1.434
30641W        W 2956  11.988  27.614  14.942
30642W        W 2957  12.820   5.239   4.081
30643W        W 2958   9.841   2.826   3.507
30644W        W 2959  20.087  39.108  10.672
30645W        W 2960  13.533  29.466   1.977
30646W        W 2961  41.574  15.719   2.325
30647W        W 2962  11.128   3.690   4.063
30648W        W 2963   3.835  13.820  13.373
30649W        W 2964  31.544  37.639  13.971
30650W        W 2965  30.091  41.865  12.418
30651W        W 2966  43.107  38.848   1.010
30652W        W 2967   1.977   9.246  12.944
30653W        W 2968  18.294  10.827   1.769
30654W        W 2969  36.270  38.865   4.124
30655W        W 2970  37.441  44.355  13.443
30656W        W 2971  23.233  34.970  11.748
30657W        W 2972  24.911  33.323   0.411
30658W        W 2973  19.108  36.890  14.046
30659W        W 2974  18.638  24.402  14.898
30660W        W 2975  21.267  17.236   4.410
30661W        W 2976   6.216   8.866   4.689
30662W        W 2977  22.220  14.834   1.505
30663W        W 2978   7.117  13.294  13.477
30664W        W 2979   0.520   8.377  12.485
30665W        W 2980   3.363  29.419   2.712
30666W        W 2981  19.798  24.152  12.605
30667W        W 2982  27.503  17.609   1.755
30668W        W 2983  33.287  16.668   0.892
30669W        W 2984   3.496  32.896  14.363
30670W        W 2985  22.800   6.095  11.658
30671W        W 2986   6.729  28.135   1.842
30672W        W 2987  13.692  22.312   0.146
30673W        W 2988   9.251  18.273  12.029
30674W        W 2989  21.778  37.505   1.888
30675W        W 2990  11.195  34.979  11.262
30676W        W 2991  35.474  40.089  14.789
30677W        W 2992  26.739   3.285  12.075
30678W        W 2993   5.241  28.572   1.196
30679W        W 2994   8.327  27.918  11.213
30680W        W 2995  18.674  30.199  13.878
30681W        W 2996   6.384  34.399  12.891
30682W        W 2997  24.746  12.594   4.114
30683W        W 2998  11.304  43.748  12.551
30684W        W 2999  15.784  13.881  11.112
30685W        W 3000  34.971   9.853  11.137
30686W        W 3001  12.275  38.886   2.123
30687W        W 3002  38.425  19.144  12.915
30688W        W 3003  10.742  25.948  12.494
30689W        W 3004  30.953   3.688   4.022
30690W        W 3005   4.443  14.055   4.601
30691W        W 3006  35.584  23.974   3.313
30692W        W 3007  26.157  33.378  10.323
30693W        W 3008   8.838  34.889   3.751
30694W        W 3009  23.194  41.810  14.260
30695W        W 3010  41.598  42.853   3.194
30696W        W 3011  33.854  41.776  13.874
30697W        W 3012   3.843  24.790  12.744
30698W        W 3013  33.066  35.875   3.032
30699W        W 3014  32.889  27.964  13.306
30700W        W 3015  35.022  35.889   0.992
30701W        W 3016  13.413  31.872  14.469
30702W        W 3017  38.301  12.998  13.040
30703W        W 3018  25.951  27.570   2.949
30704W        W 3019  15.220   2.344   3.462
30705W        W 3020  39.065  24.098   1.290
30706W        W 3021  34.785   5.215  12.829
30707W        W 3022  35.622  40.724  12.005
30708W        W 3023  22.249   2.702   4.752
30709W        W 3024   2.320  34.537   3.532
30710W        W 3025  40.826  28.515  14.460
30711W        W 3026  42.324   5.926   4.190
30712W        W 3027  23.254   5.285  14.302
30713W        W 3028  43.664  39.215  13.372
30714W        W 3029  12.306  33.573   0.496
30715W        W 3030   1.751   6.442   0.350
30716W        W 3031  32.948   2.520  10.907
30717W        W 3032  34.272  35.340   2.825
30718W        W 3033  38.475  39.136   3.166
30719W        W 3034   3.794  40.675  11.142
30720W        W 3035   5.192  36.989  12.089
30721W        W 3036  36.148   1.288   0.055
30722W        W 3037   8.081  28.106  13.154
30723W        W 3038   3.840  30.890  11.648
30724W        W 3039  25.608   2.082  14.296
30725W        W 3040  19.705   2.667  13.832
30726W        W 3041  39.788   7.665  13.315
30727W        W 3042  18.049   9.928   0.866
30728W        W 3043  43.314  25.920  12.883
30729W        W 3044   6.862  44.984  13.500
30730W        W 3045  30.888  44.494  14.815
30731W        W 3046  35.507  30.125   1.238
30732W        W 3047  16.567  13.917   1.835
30733W        W 3048  17.571  29.119  14.361
30734W        W 3049  35.076  42.744   0.807
30735W        W 3050  11.278   2.867  10.697
30736W        W 3051  12.743  10.023  10.022
30737W        W 3052  24.677   9.662   3.988
30738W        W 3053  25.745   7.651   4.235
30739W        W 3054  24.446  35.426  12.946
30740W        W 3055  33.703   7.985   4.238
30741W        W 3056  44.972  29.084   3.601
30742W        W 3057  33.050   7.145  13.101
30743W        W 3058  15.082  35.596   0.788
30744W        W 3059   6.017  25.649   1.288
30745W        W 3060  10.327  31.770   4.498
30746W        W 3061  28.198  10.768  14.775
30747W        W 3062  27.795  33.973   2.792
30748W        W 3063  43.067  24.109  14.758
30749W        W 3064  15.843  40.871   4.592
30750W        W 3065   3.382  40.019  13.906
30751W        W 3066  40.880   0.758   4.095
30752W        W 3067  11.645  40.480   5.002
30753W        W 3068  10.343  23.180   3.163
30754W        W 3069  18.793  35.420   2.813
30755W        W 3070  29.359   1.525   1.957
30756W        W 3071  24.742  14.250   4.647
30757W        W 3072  39.618  20.978  14.557
30758W        W 3073  10.440   3.972   2.476
30759W        W 3074  12.312   7.167   1.353
30760W        W 3075  34.136  13.046   1.806
30761W        W 3076  42.329  33.486  13.873
30762W        W 3077   2.484  36.990  14.538
30763W        W 3078  28.804  37.338  11.988
30764W        W 3079  23.085  23.064   4.677
30765W        W 3080  21.495  11.372   3.543
30766W        W 3081  23.541  37.545  11.690
30767W        W 3082  11.809  36.369   2.427
30768W        W 3083  32.997   9.800   1.820
30769W        W 3084  10.737  19.848  11.037
30770W        W 3085  12.993   1.935   0.434
30771W        W 3086  21.060   4.906   3.961
30772W        W 3087  33.471   8.643  13.965
30773W        W 3088  14.072  21.180  13.097
30774W        W 3089  35.057  14.213   3.557
30775W        W 3090  24.660   4.893   0.299
30776W        W 3091  25.435  29.473   2.204
30777W        W 3092  43.883   5.753  14.815
30778W        W 3093  40.581  23.705   0.571
30779W        W 3094  41.233   0.434   1.368
30780W        W 3095  16.324  22.324   4.351
30781W        W 3096  39.345  17.399  10.377
30782W        W 3097  35.450  38.358   2.847
30783W        W 3098  20.248  26.789  13.996
30784W        W 3099  32.439   4.427  14.707
30785W        W 3100  21.296  35.898  12.101
30786W        W 3101   4.699  16.168  12.846
30787W        W 3102  11.759   6.197  14.572
30788W        W 3103  23.544  16.553  10.410
30789W        W 3104  33.514  43.486  13.702
30790W        W 3105  36.885  30.616  11.098
30791W        W 3106  43.398  16.229   2.772
30792W        W 3107   1.986  24.179   1.727
30793W        W 3108  15.750   3.425  10.760
30794W        W 3109   0.400   7.332  13.363
30795W        W 3110  11.186  28.629   3.318
30796W        W 3111  15.715  11.548   3.658
30797W        W 3112  24.500  14.705   4.372
30798W        W 3113  19.289  31.550  11.470
30799W        W 3114  35.901  26.093   3.698
30800W        W 3115  11.861   6.412   0.505
30801W        W 3116  19.039  33.402  13.845
30802W        W 3117  37.164   4.846  13.625
30803W        W 3118  33.182  41.439  10.768
30804W        W 3119   4.887  10.451  11.599
30805W        W 3120  27.412  11.568  13.372
30806W        W 3121  44.421  21.521   0.228
30807W        W 3122  35.796   5.363  12.880
30808W        W 3123  29.564   1.709  13.904
30809W        W 3124  36.084  30.813   2.269
30810W        W 3125  38.007  11.600   2.754
30811W        W 3126  38.910  31.237   2.337
30812W        W 3127  37.345  37.148  14.322
30813W        W 3128   8.055  33.612   4.360
30814W        W 3129  39.971  28.100  13.392
30815W        W 3130   9.886  42.005   1.949
30816W        W 3131   7.124  12.519  11.129
30817W        W 3132  11.672  18.152   0.769
30818W        W 3133  21.679  25.985   0.784
30819W        W 3134   1.515   3.786  12.817
30820W        W 3135  20.567  31.295   2.317
30821W        W 3136   1.430  20.384   3.793
30822W        W 3137  43.376   4.037   2.366
30823W        W 3138  14.277  28.488   1.868
30824W        W 3139  20.802  11.076   1.343
30825W        W 3140   2.606   4.569  11.113
30826W        W 3141   7.386  23.693  11.237
30827W        W 3142  16.481  11.629   4.325
30828W        W 3143  13.293  21.633  12.615
30829W        W 3144  11.733  10.372   1.424
30830W        W 3145  43.897  15.078  11.906
30831W        W 3146  22.724  34.697   4.234
30832W        W 3147  17.054   0.742  13.849
30833W        W 3148  32.080  22.763  14.313
30834W        W 3149  12.162  17.147   1.861
30835W        W 3150   1.978   9.971  10.955
30836W        W 3151  32.980  22.708  14.380
30837W        W 3152  37.316  24.221   0.606
30838W        W 3153  26.612  43.478  13.125
30839W        W 3154  30.385  33.369   1.425
30840W        W 3155  21.817  10.884   2.274
30841W        W 3156  32.243  22.693   0.583
30842W        W 3157  40.051  36.953   4.243
30843W        W 3158  30.143  25.090   2.835
30844W        W 3159  42.450   9.284   3.250
30845W        W 3160  30.837  31.095   2.937
30846W        W 3161  15.847  39.829  12.072
30847W        W 3162  26.952   6.852  10.111
30848W        W 3163  34.406  31.831  12.473
30849W        W 3164   7.874   6.766   4.737
30850W        W 3165  24.383  23.095   4.080
30851W        W 3166  28.733   1.117   2.686
30852W        W 3167  15.582  30.962  13.942
30853W        W 3168  43.626   2.380  13.505
30854W        W 3169  43.958  20.503   0.867
30855W        W 3170  26.088  26.120  12.665
30856W        W 3171  28.087   6.597  10.151
30857W        W 3172  24.205   4.831   4.201
30858W        W 3173  23.794  15.547  14.820
30859W        W 3174  44.769  30.232  11.730
30860W        W 3175  22.231  39.487   2.951
30861W        W 3176  44.274  25.750  12.926
30862W        W 3177  28.256  24.047  14.330
30863W        W 3178  33.435  13.263  12.513
30864W        W 3179   6.691  43.795   0.614
30865W        W 3180  24.672  14.715  14.388
30866W        W 3181  22.711  31.803  13.815
30867W        W 3182  13.797  37.022   0.772
30868W        W 3183   7.883  14.724   2.831
30869W        W 3184   7.344  41.770  10.757
30870W        W 3185  33.929  36.799   1.866
30871W        W 3186  26.599  41.068  13.014
30872W        W 3187  16.814  44.194   4.729
30873W        W 3188  11.715  43.084   4.060
30874W        W 3189  29.416  30.614   3.300
30875W        W 3190   2.998  13.817  10.816
30876W        W 3191   2.758   0.278   2.315
30877W        W 3192  19.533  41.486   2.654
30878W        W 3193   0.090  29.735   1.228
30879W        W 3194   8.439  44.466   1.372
30880W        W 3195  11.823   3.940   0.710
30881W        W 3196   2.391  31.521   0.860
30882W        W 3197  37.880  30.105  14.421
30883W        W 3198  24.126  35.599   3.523
30884W        W 3199  29.272  35.326   4.078
30885W        W 3200   9.605  14.710  12.992
30886W        W 3201  29.449   6.104   4.146
30887W        W 3202  16.273  16.876  14.101
30888W        W 3203   9.293  29.057  12.955
30889W        W 3204   3.184  25.695  11.469
30890W        W 3205  13.521  21.734   4.320
30891W        W 3206   8.871  39.774  12.206
30892W        W 3207  23.956  23.336  14.868
30893W        W 3208  35.951   7.377   4.029
30894W        W 3209  20.194  15.764  13.977
30895W        W 3210  20.968   9.824   4.112
30896W        W 3211  31.370  29.554   0.038
30897W        W 3212  41.768  26.049  11.982
30898W        W 3213  26.560  37.239   3.845
30899W        W 3214   3.026   5.894  10.796
30900W        W 3215  13.255  30.233   4.178
30901W        W 3216  42.205  10.839   2.520
30902W        W 3217   6.265   9.596  13.485
30903W        W 3218  35.262  20.980   0.833
30904W        W 3219  18.911   6.130   3.677
30905W        W 3220   7.936  43.867   0.919
30906W        W 3221  36.244  25.908  14.426
30907W        W 3222  32.946  19.712  14.585
30908W        W 3223  43.373  27.602   2.249
30909W        W 3224  10.393   8.300  14.865
30910W        W 3225   6.252  14.765   1.844
30911W        W 3226  40.531  37.044   2.857
30912W        W 3227  11.132   4.916   4.187
30913W        W 3228  35.950   9.754   2.248
30914W        W 3229   0.211  42.497   4.209
30915W        W 3230  38.906  25.881  10.197
30916W        W 3231  18.193  25.510  10.595
30917W        W 3232  15.193  27.554  13.305
30918W        W 3233  36.264  20.304   0.845
30919W        W 3234   2.006   3.731   2.775
30920W        W 3235  31.149   1.806  12.042
30921W        W 3236  26.767  39.313  14.300
30922W        W 3237  29.081  20.499   2.294
30923W        W 3238  23.173   3.945  14.094
30924W        W 3239  34.979  32.088  12.557
30925W        W 3240  25.400   5.813   0.292
30926W        W 3241  18.031  18.614  13.407
30927W        W 3242  43.043  28.396  11.108
30928W        W 3243  23.571  31.624   3.062
30929W        W 3244   8.066   5.226   0.261
30930W        W 3245  33.539  19.576   3.760
30931W        W 3246   0.893   4.317  13.588
30932W        W 3247  18.188  25.889  14.947
30933W        W 3248  33.101  19.835   3.838
30934W        W 3249  12.063  11.063   3.775
30935W        W 3250  12.676   2.138   1.715
30936W        W 3251  17.552  11.175   0.377
30937W        W 3252  22.073  10.771  12.053
30938W        W 3253  31.300  28.014  13.618
30939W        W 3254   2.750  17.217   2.743
30940W        W 3255   5.823  41.528   1.147
30941W        W 3256  13.227  15.798  12.021
30942W        W 3257  34.166   1.986   4.176
30943W        W 3258  43.771   5.697  11.869
30944W        W 3259  17.161  13.615   4.516
30945W        W 3260  36.375  20.488   1.813
30946W        W 3261  37.362   0.421   1.641
30947W        W 3262  22.065  41.899  13.851
30948W        W 3263   7.407   8.941  13.008
30949W        W 3264   7.873  27.446   3.673
30950W        W 3265  11.891   7.060   1.717
30951W        W 3266   7.662  12.913  13.157
30952W        W 3267  11.601  22.910   0.787
30953W        W 3268  23.592   8.894   4.964
30954W        W 3269  22.580  18.656  12.881
30955W        W 3270  12.162  25.620   1.211
30956W        W 3271  10.374  42.242  13.396
30957W        W 3272  30.713  27.534  11.061
30958W        W 3273   9.647  20.166  10.351
30959W        W 3274  28.110   4.781  13.909
30960W        W 3275  34.523  27.208  14.258
30961W        W 3276  15.672  28.012  12.856
30962W        W 3277  12.662  38.591  14.869
30963W        W 3278  38.083   7.364   2.599
30964W        W 3279  43.018   6.172  12.348
30965W        W 3280  18.709   0.386  12.411
30966W        W 3281  25.668  31.140  11.178
30967W        W 3282  35.584  25.821   0.321
30968W        W 3283  24.921   8.760   2.861
30969W        W 3284   6.850  22.105   2.232
30970W        W 3285  43.480  14.833  10.749
30971W        W 3286  14.850  42.262  13.318
30972W        W 3287  17.081  40.473  12.809
30973W        W 3288  12.562  15.058   1.536
30974W        W 3289  44.545  35.421  12.550
30975W        W 3290   0.367  19.119  13.366
30976W        W 3291  15.093  19.617  13.182
30977W        W 3292  32.479  22.078  10.929
30978W        W 3293  38.853  41.500   1.206
30979W        W 3294   3.751  10.191  14.369
30980W        W 3295  19.031   6.872  12.157
30981W        W 3296  25.649  43.158   4.921
30982W        W 3297   6.158  15.323   3.047
30983W        W 3298  28.537  25.374   4.178
30984W        W 3299  31.346  40.053  14.016
30985W        W 3300  12.395  21.560  13.593
30986W        W 3301  39.910  32.619   2.760
30987W        W 3302  44.591  13.688   2.264
30988W        W 3303  34.093  29.654  10.767
30989W        W 3304  30.340  24.350  13.070
30990W        W 3305  24.988  20.780  11.170
30991W        W 3306  15.152  13.267   0.536
30992W        W 3307   4.869  14.822  12.157
30993W        W 3308  29.165  39.028   3.605
30994W        W 3309  34.372  43.977   2.819
30995W        W 3310  24.712  14.701  11.489
30996W        W 3311  27.229   7.089   4.943
30997W        W 3312  40.746   8.114  13.938
30998W        W 3313  10.609  28.114  11.034
30999W        W 3314   9.249   4.246  14.040
31000W        W 3315   2.270  32.364  13.867
31001W        W 3316  28.090  25.617   4.909
31002W        W 3317  42.331  11.140  12.564
31003W        W 3318  10.434   0.266   0.950
31004W        W 3319  18.702  32.927   1.575
31005W        W 3320  27.185   4.136  10.518
31006W        W 3321  19.507   9.834   3.230
31007W        W 3322  30.406  41.395  11.936
31008W        W 3323   6.668  23.109   1.971
31009W        W 3324  35.667  16.842   1.273
31010W        W 3325  27.613   6.689  13.387
31011W        W 3326  35.644  24.601  11.454
31012W        W 3327  18.596  20.598   4.860
31013W        W 3328   3.669  23.272  11.172
31014W        W 3329   6.698  36.347  14.848
31015W        W 3330  17.446  18.773  14.418
31016W        W 3331  40.027   4.523  14.314
31017W        W 3332   8.751   3.205  14.931
31018W        W 3333  34.532  13.889  13.871
31019W        W 3334  44.032  41.470  12.565
31020W        W 3335   7.263  34.622  13.387
31021W        W 3336  19.646  26.093   3.857
31022W        W 3337   8.358  33.419   2.715
31023W        W 3338   8.546  26.343  11.161
31024W        W 3339  18.095  22.511  11.453
31025W        W 3340  16.084   3.954   4.059
31026W        W 3341  41.791  28.805  11.129
31027W        W 3342  31.381  38.772   4.150
31028W        W 3343   1.003  24.529  12.507
31029W        W 3344   8.765  26.737  14.974
31030W        W 3345  13.994   1.163  10.791
31031W        W 3346  24.463  39.152   3.718
31032W        W 3347  33.926  21.839  11.012
31033W        W 3348   9.375  28.463  13.822
31034W        W 3349  25.160  43.991  14.442
31035W        W 3350  40.555   1.038  11.090
31036W        W 3351  44.228  44.001  13.341
31037W        W 3352  20.381  39.910   4.140
31038W        W 3353   0.854   1.630   2.401
31039W        W 3354  18.982  37.936   0.424
31040W        W 3355  20.675  26.688   1.560
31041W        W 3356  27.603  12.742   1.757
31042W        W 3357  21.194  17.110   3.923
31043W        W 3358   5.943  17.616   4.208
31044W        W 3359  38.666  26.675   0.841
31045W        W 3360  13.900  21.855   3.969
31046W        W 3361  25.222   2.292   3.736
31047W        W 3362  42.607  40.287   2.237
31048W        W 3363   4.925   8.583   1.443
31049W        W 3364   0.784  20.605   4.326
31050W        W 3365  19.245  24.276  10.508
31051W        W 3366  23.600  21.513  11.637
31052W        W 3367  26.554  33.179   3.147
31053W        W 3368   6.143  40.955   0.930
31054W        W 3369  20.177  38.824   2.891
31055W        W 3370  26.124   3.417   3.591
31056W        W 3371  16.139  14.865  11.536
31057W        W 3372  40.479   5.847   2.733
31058W        W 3373   4.313  23.724   2.119
31059W        W 3374  33.565  29.414   3.653
31060W        W 3375  35.536  41.947   1.859
31061W        W 3376  33.274  25.072   0.219
31062W        W 3377  12.476   5.827  10.590
31063W        W 3378  17.719   9.439   2.758
31064W        W 3379   5.182  25.224   3.679
31065W        W 3380  38.039   3.259  14.385
31066W        W 3381   1.849   7.920  13.552
31067W        W 3382  11.779  34.888   2.189
31068W        W 3383  17.097  19.305  11.187
31069W        W 3384  44.317   5.971   0.862
31070W        W 3385  30.159   9.239   2.910
31071W        W 3386  30.858  19.152   4.573
31072W        W 3387   2.337  11.559  11.563
31073W        W 3388   0.641  30.519  12.553
31074W        W 3389  22.483  25.750  11.925
31075W        W 3390  29.492  27.843  12.512
31076W        W 3391  15.196  27.973   1.748
31077W        W 3392  30.549  33.403  14.624
31078W        W 3393   3.430  13.496   1.331
31079W        W 3394  38.045  36.580  14.917
31080W        W 3395   7.455  10.670  14.408
31081W        W 3396  20.947  15.660   0.214
31082W        W 3397   7.343   5.607   0.442
31083W        W 3398  12.312  42.184   0.664
31084W        W 3399  25.706  24.067  14.351
31085W        W 3400  20.575   3.258  12.905
31086W        W 3401  32.307  10.432   4.113
31087W        W 3402   6.218  27.231   3.948
31088W        W 3403  41.450  13.470   0.426
31089W        W 3404   3.355  17.174  12.371
31090W        W 3405  30.412  21.664  14.773
31091W        W 3406   0.033  15.754   5.137
31092W        W 3407  16.084  42.478   0.881
31093W        W 3408  40.859  28.193  14.886
31094W        W 3409  25.483  10.144   0.784
31095W        W 3410  31.041  33.852  12.312
31096W        W 3411  34.096   4.784  11.653
31097W        W 3412  38.076  20.718  12.435
31098W        W 3413  15.447  25.213  14.829
31099W        W 3414  31.939  19.583   1.703
31100W        W 3415   7.414  15.856  13.844
31101W        W 3416  41.209   3.424   0.266
31102W        W 3417  19.732  16.146  12.544
31103W        W 3418  28.187  16.729   4.241
31104W        W 3419  30.541  19.961  14.994
31105W        W 3420   2.598  13.958  11.932
31106W        W 3421  40.380  22.992   4.083
31107W        W 3422  43.213   8.793  11.579
31108W        W 3423  21.482  23.960  12.408
31109W        W 3424  24.806  40.321   2.140
31110W        W 3425  42.679   5.113   0.951
31111W        W 3426  34.646  33.807   1.656
31112W        W 3427  32.068  31.198   3.391
31113W        W 3428  32.372  44.334  12.335
31114W        W 3429  20.933   3.962   3.351
31115W        W 3430  36.309  34.097  12.789
31116W        W 3431   6.494  35.853  10.631
31117W        W 3432   9.772   9.643  12.000
31118W        W 3433   0.492  10.767  10.175
31119W        W 3434  21.973  36.978   4.490
31120W        W 3435  35.773  22.789   0.326
31121W        W 3436   1.863   7.110   3.156
31122W        W 3437  41.525  31.028   0.961
31123W        W 3438  29.753  26.666   4.781
31124W        W 3439  17.368  41.769   3.192
31125W        W 3440  18.707   4.100  14.269
31126W        W 3441  28.744  26.584   4.547
31127W        W 3442  30.727   7.405  10.283
31128W        W 3443  23.756  31.081   1.872
31129W        W 3444  22.487  37.781  11.643
31130W        W 3445  25.886  19.073   3.168
31131W        W 3446  23.994  31.702   4.622
31132W        W 3447  19.287  26.120   4.317
31133W        W 3448  23.574  13.169  13.967
31134W        W 3449  38.941  37.090  13.488
31135W        W 3450  29.202  26.799  12.490
31136W        W 3451  31.300  31.517   3.857
31137W        W 3452  41.320   8.921   2.819
31138W        W 3453  35.597  15.880   3.620
31139W        W 3454  28.311  11.281  13.363
31140W        W 3455  41.059  44.398   1.416
31141W        W 3456  36.333  15.240   2.639
31142W        W 3457  40.733   9.237   0.267
31143W        W 3458  28.586  11.599   1.977
31144W        W 3459  17.716   2.242   1.734
31145W        W 3460   3.453  18.162   2.156
31146W        W 3461  32.395  38.086  12.488
31147W        W 3462  27.948  39.212  10.481
31148W        W 3463  29.621  15.089  12.505
31149W        W 3464  17.859  16.767   4.170
31150W        W 3465  21.280  40.413   1.010
31151W        W 3466  16.316  27.566   4.182
31152W        W 3467   5.414  19.585  14.968
31153W        W 3468  15.073   3.366   4.637
31154W        W 3469  25.834  27.722  11.950
31155W        W 3470  17.738  22.801   4.864
31156W        W 3471  33.884   7.254   0.334
31157W        W 3472  39.154  33.608   3.717
31158W        W 3473  27.534  30.456  11.430
31159W        W 3474  12.796  36.624  14.014
31160W        W 3475  42.872   1.918   0.312
31161W        W 3476   4.009  29.974   2.360
31162W        W 3477  38.087   5.889  13.400
31163W        W 3478  35.485  33.829  10.669
31164W        W 3479   1.317  23.494   1.502
31165W        W 3480  27.736  15.906  12.072
31166W        W 3481   5.937  35.469   2.629
31167W        W 3482  37.984  12.377   4.174
31168W        W 3483  17.721  25.500  12.399
31169W        W 3484  21.181  23.718   1.856
31170W        W 3485  35.301  42.444  12.584
31171W        W 3486  30.179  22.495  11.506
31172W        W 3487  19.412  39.253  12.453
31173W        W 3488  35.419   8.003  10.424
31174W        W 3489  18.595  31.576  14.334
31175W        W 3490   9.636  37.132   2.231
31176W        W 3491  15.255  22.797  11.865
31177W        W 3492   0.220  13.597  10.982
31178W        W 3493  29.979  40.110   1.926
31179W        W 3494  17.541  40.602   3.016
31180W        W 3495   6.832  44.594  11.045
31181W        W 3496  13.191   6.094   3.328
31182W        W 3497   9.186  33.050  12.944
31183W        W 3498  18.546  18.163  10.311
31184W        W 3499  16.369  42.532   2.721
31185W        W 3500  43.114   5.380   0.844
31186W        W 3501  30.625  21.216   2.014
31187W        W 3502  37.612  14.883   2.340
31188W        W 3503   6.607   0.468   4.574
31189W        W 3504  26.140  22.181  13.502
31190W        W 3505   4.413  17.804   3.233
31191W        W 3506  26.976   2.314   4.814
31192W        W 3507  10.359  18.947  14.635
31193W        W 3508  44.145  20.396  13.779
31194W        W 3509  19.333  44.795  12.997
31195W        W 3510  18.459  31.347  14.786
31196W        W 3511  30.995  37.844  11.050
31197W        W 3512  10.781  22.149  11.383
31198W        W 3513  31.910  41.788  13.929
31199W        W 3514  34.867   1.375   4.176
31200W        W 3515  32.994  36.479  11.208
31201W        W 3516  24.414   2.682   2.161
31202W        W 3517  18.114  15.788  11.222
31203W        W 3518   0.945  24.024  11.974
31204W        W 3519   4.556  12.459   3.318
31205W        W 3520  22.194  17.354   2.315
31206W        W 3521  18.547  21.046  10.745
31207W        W 3522   0.405  22.751   4.392
31208W        W 3523  31.476  25.162   1.442
31209W        W 3524   1.744   6.674   1.998
31210W        W 3525  25.745  11.130  13.106
31211W        W 3526  34.866  44.931  11.530
31212W        W 3527  34.074  14.659  10.839
31213W        W 3528  35.943  11.446   2.851
31214W        W 3529  32.211   0.260  13.992
31215W        W 3530   5.688  44.013   0.216
31216W        W 3531  21.237  27.419   0.754
31217W        W 3532   0.961  21.239  14.700
31218W        W 3533   8.833   6.545  11.138
31219W        W 3534  15.315   7.223   1.314
31220W        W 3535  29.148  43.857   4.250
31221W        W 3536  23.897   0.324  11.478
31222W        W 3537  13.836  29.967  10.649
31223W        W 3538  11.238   1.392  13.468
31224W        W 3539  24.275  42.049  12.025
31225W        W 3540  42.269  28.160  11.483
31226W        W 3541   8.674   8.344   2.182
31227W        W 3542  42.546  28.785   3.313
31228W        W 3543  29.126  16.642   3.970
31229W        W 3544   4.202  13.074   1.305
31230W        W 3545  42.539  37.620  12.128
31231W        W 3546  32.412  34.073   2.123
31232W        W 3547  17.428  19.331  10.778
31233W        W 3548  44.016  10.583  13.841
31234W        W 3549  33.439  15.104   4.758
31235W        W 3550  42.743  36.863  12.953
31236W        W 3551  18.560  14.810  14.824
31237W        W 3552  11.367  30.355  12.414
31238W        W 3553  14.097   3.496   0.393
31239W        W 3554  31.441  22.525  13.386
31240W        W 3555  34.152   6.617   1.321
31241W        W 3556  24.858  34.339   4.121
31242W        W 3557  29.701  34.002  13.814
31243W        W 3558  40.989  27.031   3.416
31244W        W 3559  35.625  30.707   3.638
31245W        W 3560  38.998   6.194  11.587
31246W        W 3561  24.942  15.312  12.459
31247W        W 3562  32.115  17.834  13.550
31248W        W 3563  30.129  40.383  11.203
31249W        W 3564  44.591  13.756   4.057
31250W        W 3565  29.637  12.712  10.953
31251W        W 3566  14.888  20.319  12.461
31252W        W 3567  43.489  37.563   1.344
31253W        W 3568   0.769  27.396  14.128
31254W        W 3569  42.485  34.634  10.924
31255W        W 3570   3.171  22.026  11.168
31256W        W 3571  17.249  11.263  10.426
31257W        W 3572  27.768  15.706   1.795
31258W        W 3573  37.392  41.334   4.938
31259W        W 3574  43.119  34.376   0.730
31260W        W 3575  24.077  27.746   5.005
31261W        W 3576  21.120   7.676  11.787
31262W        W 3577   3.928  17.750   1.426
31263W        W 3578  14.859  22.703  11.219
31264W        W 3579  38.875   1.836   3.689
31265W        W 3580  33.174  33.908  12.419
31266W        W 3581   6.804   5.617   0.618
31267W        W 3582   1.542  11.709   0.297
31268W        W 3583  14.250  17.348   0.388
31269W        W 3584  34.343   7.893  14.867
31270W        W 3585  23.434  14.395  11.018
31271W        W 3586  31.121  19.104   2.025
31272W        W 3587  28.120   6.859  11.035
31273W        W 3588   9.081  12.893   5.054
31274W        W 3589  19.067   0.880   4.723
31275W        W 3590  27.183  22.959  11.120
31276W        W 3591  11.137  27.674   1.858
31277W        W 3592  37.503  17.537   1.713
31278W        W 3593  30.090  24.613  13.445
31279W        W 3594   8.247   5.107  11.926
31280W        W 3595  10.675   6.371   1.898
31281W        W 3596  11.757   1.549  13.010
31282W        W 3597  15.875   5.850  10.550
31283W        W 3598  13.279  32.546   0.247
31284W        W 3599   7.576  28.011  13.034
31285W        W 3600  32.489   5.725   0.005
31286W        W 3601  39.841  12.274   0.382
31287W        W 3602  17.070   5.771   4.626
31288W        W 3603  42.549   2.399  12.557
31289W        W 3604   4.888   3.671  13.257
31290W        W 3605   3.703   5.971   0.339
31291W        W 3606   8.443   1.500   4.689
31292W        W 3607   5.107  12.625  12.438
31293W        W 3608  15.311  34.503  12.817
31294W        W 3609  16.375  37.655   2.871
31295W        W 3610  39.513  31.979   1.636
31296W        W 3611  43.003  37.619  13.850
31297W        W 3612  12.678  13.187  14.412
31298W        W 3613  13.249  21.126  10.317
31299W        W 3614   5.322  41.465   1.954
31300W        W 3615  44.324  42.356   1.659
31301W        W 3616   6.336  43.292  14.925
31302W        W 3617  11.387  11.537  12.997
31303W        W 3618  23.613  18.091   3.520
31304W        W 3619  17.264  11.683  11.202
31305W        W 3620  24.339  14.454  13.904
31306W        W 3621  22.111  24.353  13.098
31307W        W 3622  34.934  43.082   5.008
31308W        W 3623  23.172  21.782  10.761
31309W        W 3624  25.540   8.321   3.151
31310W        W 3625  42.069   2.269  10.675
31311W        W 3626  30.504  26.031   0.557
31312W        W 3627   8.626  23.811   2.409
31313W        W 3628   8.222  31.555   4.625
31314W        W 3629   8.729   4.276  13.109
31315W        W 3630   6.086  25.263   3.231
31316W        W 3631  38.159  10.161  10.297
31317W        W 3632  18.820  38.395   4.110
31318W        W 3633   5.412  12.045  14.480
31319W        W 3634  43.340  28.933   1.842
31320W        W 3635  32.125  13.108  14.273
31321W        W 3636  11.783  10.408  14.913
31322W        W 3637  40.006  29.447  10.712
31323W        W 3638   8.782  20.820   9.955
31324W        W 3639   6.930   8.363  13.970
31325W        W 3640   1.469  36.340  12.897
31326W        W 3641  28.122  43.730   4.110
31327W        W 3642  22.733  28.358  11.615
31328W        W 3643  14.649   2.428  10.705
31329W        W 3644  20.290  41.852   2.048
31330W        W 3645  39.935  43.913   2.362
31331W        W 3646  40.210  17.097   3.731
31332W        W 3647   5.723  14.443   5.103
31333W        W 3648  44.005   5.853   4.572
31334W        W 3649   7.951  26.343  10.507
31335W        W 3650   7.454  21.198   3.337
31336W        W 3651   5.036  11.695  14.790
31337W        W 3652  16.332  25.324  13.917
31338W        W 3653   6.150  23.087   4.574
31339W        W 3654  14.892   1.160   4.094
31340W        W 3655  19.751   8.162   9.913
31341W        W 3656  17.038   4.728  10.703
31342W        W 3657  13.858  23.270   2.549
31343W        W 3658   3.716  17.096  11.579
31344W        W 3659  30.677  18.349  12.465
31345W        W 3660   1.252  13.214   4.139
31346W        W 3661   7.367  30.912   3.800
31347W        W 3662   9.886  34.101   5.059
31348W        W 3663  23.045  16.397   3.632
31349W        W 3664  12.579  24.736  10.710
31350W        W 3665   8.353  26.062   2.260
31351W        W 3666  34.019   6.131   3.161
31352W        W 3667   4.641  22.976  11.121
31353W        W 3668  15.880  12.394  12.887
31354W        W 3669  19.978   9.918  10.730
31355W        W 3670   0.538  18.547  14.891
31356W        W 3671  22.793  10.642  12.622
31357W        W 3672  15.562  41.816  11.525
31358W        W 3673   6.388  12.855  10.712
31359W        W 3674   8.638  37.818  14.381
31360W        W 3675  36.072  34.516  12.620
31361W        W 3676  10.625  17.022  10.639
31362W        W 3677  42.600   4.791  11.449
31363W        W 3678   8.071  22.528   4.208
31364W        W 3679  43.990  40.912   4.590
31365W        W 3680  34.084  43.765  11.092
31366W        W 3681  42.932   0.787   3.864
31367W        W 3682  38.290  10.995  12.131
31368W        W 3683  36.444  37.531  13.515
31369W        W 3684  32.945   5.276   1.343
31370W        W 3685  36.826  36.357  12.395
31371W        W 3686  37.239  12.384   1.863
31372W        W 3687   5.981  13.195   2.868
31373W        W 3688   9.441  18.366  10.318
31374W        W 3689  29.392  27.439  14.985
31375W        W 3690   2.202  10.094   2.880
31376W        W 3691  42.413   7.769  11.699
31377W        W 3692  33.350  14.809   2.717
31378W        W 3693  42.028  44.898   1.384
31379W        W 3694   2.564   8.840  10.439
31380W        W 3695   5.106  37.968  11.935
31381W        W 3696   6.051  37.317  13.097
31382W        W 3697  31.415  11.245   2.006
31383W        W 3698  16.535  37.094   4.186
31384W        W 3699   9.580  17.688  14.977
31385W        W 3700  30.170   2.625  14.757
31386W        W 3701   9.638   8.453  10.562
31387W        W 3702  44.007  39.921   3.288
31388W        W 3703  42.322   0.708   2.097
31389W        W 3704  18.691  22.483  13.537
31390W        W 3705   4.196  32.915   1.664
31391W        W 3706   6.229   1.519   0.342
31392W        W 3707  36.714  22.528  11.635
31393W        W 3708  32.665  21.367   2.412
31394W        W 3709  25.646  36.116   3.160
31395W        W 3710  30.928   7.875   3.655
31396W        W 3711  22.574  34.787  12.050
31397W        W 3712  40.416  32.408   1.466
31398W        W 3713  21.186  19.083  12.602
31399W        W 3714  24.750  36.953   4.721
31400W        W 3715   7.797  25.502  13.809
31401W        W 3716  33.730   6.331   1.267
31402W        W 3717   0.714  13.591  14.687
31403W        W 3718  41.069   6.324   2.862
31404W        W 3719  17.864  34.834   1.760
31405W        W 3720  43.810  14.080  11.574
31406W        W 3721  41.205  10.090  14.329
31407W        W 3722  24.541  36.605   3.227
31408W        W 3723   7.159  36.819   3.256
31409W        W 3724  28.517   6.626   4.198
31410W        W 3725  14.702   1.099  10.184
31411W        W 3726   8.812  33.586   1.711
31412W        W 3727  37.917  14.633  11.040
31413W        W 3728   2.015  10.908  10.443
31414W        W 3729  27.436  21.498  14.912
31415W        W 3730  15.651   4.850  12.981
31416W        W 3731  19.238  14.690  14.224
31417W        W 3732   6.437  28.505  13.344
31418W        W 3733  22.213  41.805   3.742
31419W        W 3734  30.616  13.315   4.444
31420W        W 3735   0.908  25.733   1.460
31421W        W 3736  22.496  29.624  12.058
31422W        W 3737  16.358  22.017   3.179
31423W        W 3738   8.720  16.566  14.352
31424W        W 3739  18.303  29.078   4.236
31425W        W 3740  30.487   7.467   0.934
31426W        W 3741  29.055   4.408   4.290
31427W        W 3742  27.878  35.419   3.245
31428W        W 3743  26.674  14.297  10.845
31429W        W 3744  38.869  37.474   0.398
31430W        W 3745  31.236   4.389  14.374
31431W        W 3746  31.715   0.449   2.441
31432W        W 3747   6.229  10.876  14.971
31433W        W 3748  14.831  18.960  13.448
31434W        W 3749  27.246  38.916   1.944
31435W        W 3750  17.743  29.197   3.927
31436W        W 3751  17.747   1.111  10.920
31437W        W 3752   8.386  39.892  14.483
31438W        W 3753  21.154  12.601   4.505
31439W        W 3754  17.176   9.211  11.564
31440W        W 3755   8.385  22.086  11.169
31441W        W 3756   2.984  20.487   3.817
31442W        W 3757  25.167  15.901  11.679
31443W        W 3758   3.760  41.045   1.470
31444W        W 3759  24.079  31.869  11.480
31445W        W 3760  23.100  31.960   3.687
31446W        W 3761  12.399  11.802   1.737
31447W        W 3762  16.000  13.800   0.826
31448W        W 3763   7.174  30.631   1.694
31449W        W 3764   1.808  30.954   4.706
31450W        W 3765  19.676  30.775   3.697
31451W        W 3766  30.855   9.459  11.224
31452W        W 3767  12.794  37.556  10.565
31453W        W 3768   8.186   0.711  11.503
31454W        W 3769  31.971  11.648   4.649
31455W        W 3770   9.394  37.078  14.478
31456W        W 3771  12.255  24.077   3.726
31457W        W 3772   5.828  33.072  14.516
31458W        W 3773   8.103  16.756  12.975
31459W        W 3774   1.714  17.495   4.766
31460W        W 3775  38.516  37.786  11.543
31461W        W 3776   4.373  43.289  11.939
31462W        W 3777  18.219  42.903   2.645
31463W        W 3778  29.382  42.351  13.484
31464W        W 3779   7.913  36.862   4.573
31465W        W 3780  25.487  28.076  12.044
31466W        W 3781  19.846  28.656   1.922
31467W        W 3782  11.594  35.541   2.833
31468W        W 3783   7.943  16.482   2.870
31469W        W 3784  35.942  10.758  13.524
31470W        W 3785  19.162  37.750   2.848
31471W        W 3786  37.055  34.358   1.030
31472W        W 3787   6.744  42.875  11.933
31473W        W 3788  11.095  24.001   1.291
31474W        W 3789   9.771  21.104   3.610
31475W        W 3790  24.043  27.087   1.809
31476W        W 3791  44.292  39.014  11.440
31477W        W 3792  15.300  40.185   4.669
31478W        W 3793  22.026   9.122   1.828
31479W        W 3794  13.637  25.510   0.963
31480W        W 3795  40.757  40.322   4.606
31481W        W 3796  44.966  27.456   2.767
31482W        W 3797  39.454  11.884   4.714
31483W        W 3798  44.487  28.898   3.199
31484W        W 3799  44.191  23.439   0.802
31485W        W 3800  19.246   7.576  13.439
31486W        W 3801  36.618   5.806  12.944
31487W        W 3802  19.239  41.989   0.797
31488W        W 3803   0.243   5.259   0.377
31489W        W 3804  39.262  36.889   0.374
31490W        W 3805  27.174  16.178  14.835
31491W        W 3806   7.303  22.712  12.875
31492W        W 3807  12.715  35.623  14.841
31493W        W 3808  38.877  12.999   0.832
31494W        W 3809  13.257   9.093   1.840
31495W        W 3810  41.951  10.794   4.843
31496W        W 3811  44.176  28.584   3.500
31497W        W 3812   4.367  21.313   2.146
31498W        W 3813  32.496  22.978  13.068
31499W        W 3814  22.670  26.573   3.662
31500W        W 3815   8.123  43.423   0.689
31501W        W 3816  10.270  22.020   3.661
31502W        W 3817  33.561  25.298  14.809
31503W        W 3818  15.265   7.354  13.041
31504W        W 3819  43.453  34.443   2.103
31505W        W 3820  38.106  35.888  11.127
31506W        W 3821  37.796  16.304   3.310
31507W        W 3822  19.276   6.280  11.561
31508W        W 3823  28.012   7.789   4.186
31509W        W 3824  25.108  15.280  10.679
31510W        W 3825  36.032  34.497   3.884
31511W        W 3826  13.841  34.515  13.945
31512W        W 3827  25.148   0.742   4.757
31513W        W 3828   3.349  15.284   2.972
31514W        W 3829  39.855  26.699   3.588
31515W        W 3830   5.700  33.393   3.757
31516W        W 3831  30.151  18.859   5.058
31517W        W 3832   2.860  25.107   0.673
31518W        W 3833   8.572  26.493   1.484
31519W        W 3834  38.349  10.893   2.449
31520W        W 3835   9.728  41.769   4.177
31521W        W 3836  16.188  10.370  14.061
31522W        W 3837   6.166  37.189  11.570
31523W        W 3838  12.590   2.827   0.814
31524W        W 3839  32.209   3.742  12.042
31525W        W 3840  39.797  14.534   2.835
31526W        W 3841  17.603  32.953   2.679
31527W        W 3842  29.621  20.722   4.541
31528W        W 3843   1.704  12.700   0.051
31529W        W 3844  19.992  13.330  10.716
31530W        W 3845  39.265  24.218   0.811
31531W        W 3846  41.999  29.019   1.215
31532W        W 3847  25.135  26.041  14.031
31533W        W 3848  12.879  40.001   3.207
31534W        W 3849  13.662   8.980  10.997
31535W        W 3850  33.234  25.584  13.348
31536W        W 3851   2.611  29.695  11.569
31537W        W 3852  25.828  34.823  12.085
31538W        W 3853  32.528  17.745   4.305
31539W        W 3854  40.895  31.340  14.647
31540W        W 3855  31.690   7.226   2.359
31541W        W 3856   7.591  27.316   3.213
31542W        W 3857  14.844  16.818   2.312
31543W        W 3858  13.086  30.405  11.529
31544W        W 3859  16.396  28.515  13.120
31545W        W 3860  14.342  36.546  13.525
31546W        W 3861  31.016   7.234   4.047
31547W        W 3862  32.012  23.832   1.366
31548W        W 3863  27.925  21.328  14.904
31549W        W 3864  38.987  25.367  10.284
31550W        W 3865   7.361   8.218  14.316
31551W        W 3866  16.542  21.695  12.152
31552W        W 3867  13.610  38.485   4.588
31553W        W 3868  10.753  29.591   1.923
31554W        W 3869   8.187  36.443   4.736
31555W        W 3870  40.873  41.687   0.248
31556W        W 3871  37.481   1.845   3.564
31557W        W 3872  17.952  14.792  12.488
31558W        W 3873  34.335   7.871   4.509
31559W        W 3874  22.303  31.157  14.408
31560W        W 3875  44.524  17.537   2.947
31561W        W 3876  39.501   7.123   4.634
31562W        W 3877  38.035  29.379  11.532
31563W        W 3878  29.469  13.387   0.862
31564W        W 3879  39.492  44.592   1.418
31565W        W 3880  16.719  36.548  11.634
31566W        W 3881  12.453   5.105  12.587
31567W        W 3882  33.611  23.969  12.032
31568W        W 3883  16.124  43.370  11.970
31569W        W 3884  22.539  24.742   2.272
31570W        W 3885  20.104  28.903   0.779
31571W        W 3886  24.454  18.710   4.885
31572W        W 3887   2.233   2.711  14.362
31573W        W 3888  38.431  27.557   4.418
31574W        W 3889  16.493  37.585  10.691
31575W        W 3890  18.938  40.225  12.453
31576W        W 3891   9.343  19.291   4.591
31577W        W 3892  10.849  38.306   1.216
31578W        W 3893  30.432  43.164  11.911
31579W        W 3894  37.470  20.490  13.490
31580W        W 3895   6.297   6.976  12.942
31581W        W 3896  20.281   8.472   1.053
31582W        W 3897  36.776   2.270  11.693
31583W        W 3898  38.914  44.824  13.965
31584W        W 3899  21.105  15.354   2.212
31585W        W 3900  28.356  28.485  14.980
31586W        W 3901  31.753  20.474   3.073
31587W        W 3902  23.772  38.604   4.213
31588W        W 3903  34.503  36.335  12.438
31589W        W 3904  43.038   1.368   1.707
31590W        W 3905  38.479  28.628   1.484
31591W        W 3906   9.655  28.419   0.810
31592W        W 3907  14.177   8.932  13.786
31593W        W 3908  22.691  41.978  12.158
31594W        W 3909   4.155  39.188   2.036
31595W        W 3910  38.393   4.546  12.065
31596W        W 3911  28.537  32.046   4.844
31597W        W 3912  20.071  33.622   3.362
31598W        W 3913  28.620   0.401   1.750
31599W        W 3914  25.982  30.899   3.483
31600W        W 3915  13.178  17.135   0.976
31601W        W 3916  10.758  26.500   0.772
31602W        W 3917  36.347  13.656   3.308
31603W        W 3918   0.226  25.494  10.647
31604W        W 3919   0.987  36.621   4.052
31605W        W 3920   8.975  36.318  14.425
31606W        W 3921  23.815  39.950  12.975
31607W        W 3922  14.030  23.519   4.202
31608W        W 3923  13.747  27.075  11.688
31609W        W 3924  43.952  20.988   4.260
31610W        W 3925   7.997  20.235  14.084
31611W        W 3926  29.045  27.685  11.502
31612W        W 3927  36.575   9.321  14.477
31613W        W 3928  43.024  29.412  10.713
31614W        W 3929   3.786  27.239   2.628
31615W        W 3930   9.657  15.860  13.199
31616W        W 3931  35.210  10.186   2.593
31617W        W 3932   4.636  40.469   4.607
31618W        W 3933   3.416  13.144   4.502
31619W        W 3934  40.641   7.423   2.431
31620W        W 3935  41.985   5.317  14.340
31621W        W 3936  32.594  20.770   0.370
31622W        W 3937   0.858   6.047   3.683
31623W        W 3938   8.621  15.018  14.517
31624W        W 3939  21.780  36.834  12.901
31625W        W 3940   9.556  27.431  12.584
31626W        W 3941  26.193   3.491  11.174
31627W        W 3942  22.647  17.626   1.314
31628W        W 3943  24.475   3.994   0.346
31629W        W 3944  11.129  31.606  12.093
31630W        W 3945  13.443  11.759   5.027
31631W        W 3946  29.094  11.024   3.307
31632W        W 3947  38.260   1.243  11.531
31633W        W 3948   8.655  43.389   0.841
31634W        W 3949  31.920   2.641   1.506
31635W        W 3950   8.591  21.517   2.388
31636W        W 3951  38.937   4.511   2.322
31637W        W 3952  36.368  21.589   0.399
31638W        W 3953  22.696  12.785  12.008
31639W        W 3954   9.900  19.028   2.743
31640W        W 3955  19.655  16.895  14.240
31641W        W 3956  10.164   4.200   3.216
31642W        W 3957   1.815  37.843   3.590
31643W        W 3958   0.336  44.732   1.974
31644W        W 3959  10.672  43.083   0.318
31645W        W 3960  24.067  38.873   4.982
31646W        W 3961  38.280  25.651   0.830
31647W        W 3962  37.196   0.382   9.918
31648W        W 3963  23.086  12.797  13.486
31649W        W 3964  17.224  12.873   2.901
31650W        W 3965  19.985  37.323  13.984
31651W        W 3966  16.933  27.939  14.304
31652W        W 3967  41.693  18.814  11.546
31653W        W 3968  25.400  19.503  12.062
31654W        W 3969   9.111  39.754   2.719
31655W        W 3970  24.452  18.145  14.372
31656W        W 3971   1.497  12.280  14.870
31657W        W 3972  25.131  41.784   0.360
31658W        W 3973   2.043  24.013  13.476
31659W        W 3974  44.750  42.541  10.714
31660W        W 3975  37.093   9.903   1.658
31661W        W 3976   5.481  36.612   3.650
31662W        W 3977  19.349   5.943  11.988
31663W        W 3978  20.013  44.321   1.406
31664W        W 3979   4.204  21.223  14.971
31665W        W 3980  27.417   8.701   0.464
31666W        W 3981  37.057   6.951   2.685
31667W        W 3982  19.685  28.456  12.055
31668W        W 3983  30.447   8.622   0.347
31669W        W 3984  12.599  24.621   0.488
31670W        W 3985  36.661  39.503   1.232
31671W        W 3986  44.000  15.590   2.350
31672W        W 3987  14.248  24.583  10.981
31673W        W 3988  13.349  38.399  13.147
31674W        W 3989  12.724  10.603   1.002
31675W        W 3990  11.774   3.380   3.620
31676W        W 3991  21.168  12.528  10.290
31677W        W 3992  37.468  21.606  14.319
31678W        W 3993   1.802  38.804   1.011
31679W        W 3994  27.448   2.672   4.001
31680W        W 3995   9.340  44.810  14.575
31681W        W 3996  10.654   2.472  13.312
31682W        W 3997  12.749  20.825   0.303
31683W        W 3998  22.425  11.167  10.917
31684W        W 3999  14.170   1.246   2.356
31685W        W 4000  17.244   5.746   3.336
31686W        W 4001  44.512  33.474  12.358
31687W        W 4002  14.595  36.486  11.184
31688W        W 4003  44.527  16.676   2.341
31689W        W 4004  30.344   2.704   3.455
31690W        W 4005  18.034  24.512  12.663
31691W        W 4006  29.461   4.440   4.614
31692W        W 4007  44.525  36.899   4.748
31693W        W 4008  31.444  31.974  12.781
31694W        W 4009   0.792  40.656   4.522
31695W        W 4010  32.641  37.263  13.372
31696W        W 4011  28.402  38.640  11.581
31697W        W 4012  22.537   4.202   2.252
31698W        W 4013   1.276   6.775   2.216
31699W        W 4014  29.972  15.810   2.448
31700W        W 4015   6.807   3.208  14.988
31701W        W 4016   4.970  42.989   4.111
31702W        W 4017   6.212  39.895  13.798
31703W        W 4018  31.048  30.440   0.947
31704W        W 4019   4.433  17.521   0.715
31705W        W 4020  26.690   6.267   0.293
31706W        W 4021   8.862  29.552   0.802
31707W        W 4022   1.236  22.698   5.034
31708W        W 4023  26.669   3.517   3.752
31709W        W 4024  29.472  11.723   0.694
31710W        W 4025  34.022  33.604  12.646
31711W        W 4026   3.259  22.158  11.654
31712W        W 4027  41.792   1.861   0.182
31713W        W 4028  41.621   6.792   3.065
31714W        W 4029  20.815  26.593   4.998
31715W        W 4030  18.209  23.625  12.959
31716W        W 4031  27.475  11.634   0.831
31717W        W 4032  18.547  34.336  11.978
31718W        W 4033  38.349   5.419   0.796
31719W        W 4034  13.935  22.197  13.409
31720W        W 4035  20.538  37.087  14.780
31721W        W 4036  22.531  21.047  13.452
31722W        W 4037  37.482  29.281  12.099
31723W        W 4038  25.740  24.947   2.520
31724W        W 4039   2.458   3.099   2.478
31725W        W 4040  41.098   2.267   1.676
31726W        W 4041  21.188  19.584  12.740
31727W        W 4042  30.617  33.042  10.559
31728W        W 4043  24.627  32.089  11.485
31729W        W 4044  44.554  30.446   3.187
31730W        W 4045  41.641  13.052  10.409
31731W        W 4046   4.711   3.205  13.359
31732W        W 4047  14.208  40.095  13.664
31733W        W 4048  36.329  16.912  13.040
31734W        W 4049   6.812  12.546  10.731
31735W        W 4050   5.804  32.375  12.558
31736W        W 4051  28.139  43.089   0.833
31737W        W 4052  17.156  42.367  10.182
31738W        W 4053  24.199  10.083  13.378
31739W        W 4054   7.614  23.660  10.779
31740W        W 4055  24.873  32.585   1.420
31741W        W 4056  13.841  17.712  14.382
31742W        W 4057  33.134  16.871   3.547
31743W        W 4058  20.100   8.953   2.860
31744W        W 4059   2.912  13.722  11.552
31745W        W 4060  23.818   7.386   3.671
31746W        W 4061  12.396   6.385   1.830
31747W        W 4062  13.607  44.277  12.996
31748W        W 4063  30.285  30.628  12.960
31749W        W 4064  27.099   7.175   1.267
31750W        W 4065  34.450  24.622  10.686
31751W        W 4066   3.367  12.693  11.141
31752W        W 4067   6.849  24.207  14.413
31753W        W 4068  39.867  42.831   4.573
31754W        W 4069   9.224  28.087   4.725
31755W        W 4070  36.830  43.287  13.127
31756W        W 4071  29.999  43.328   0.022
31757W        W 4072   4.518  16.282  14.355
31758W        W 4073  40.051  35.416  14.002
31759W        W 4074   8.339   6.448   0.840
31760W        W 4075  30.966  30.342   4.175
31761W        W 4076  24.969  36.699  14.787
31762W        W 4077  21.314  25.105  11.668
31763W        W 4078   7.674  23.327  14.935
31764W        W 4079  36.998  11.747   1.234
31765W        W 4080  12.797  33.085  11.907
31766W        W 4081  38.406  33.986   4.025
31767W        W 4082  29.115  19.078   2.340
31768W        W 4083  18.734   8.119   5.008
31769W        W 4084  38.302  19.602  13.155
31770W        W 4085  30.178  15.555   0.931
31771W        W 4086  38.288  37.439  10.738
31772W        W 4087  26.725  42.527   4.471
31773W        W 4088  31.553  26.946   0.803
31774W        W 4089  12.438  34.034   1.318
31775W        W 4090  26.560  20.286   1.272
31776W        W 4091   2.991  17.599  13.978
31777W        W 4092  22.482   9.689   0.897
31778W        W 4093   3.537  38.347  13.052
31779W        W 4094  14.771  26.069   2.670
31780W        W 4095  40.090  17.297  13.345
31781W        W 4096  44.960  27.115   1.257
31782W        W 4097  32.499   9.458   4.844
31783W        W 4098  10.313  16.264  13.746
31784W        W 4099  16.314  44.835  13.607
31785W        W 4100  10.185   6.142  14.536
31786W        W 4101  17.784  26.639   4.579
31787W        W 4102  11.421  33.546   4.635
31788W        W 4103   1.910  26.478  11.572
31789W        W 4104  18.730  39.530   3.722
31790W        W 4105  24.549  29.124  14.404
31791W        W 4106  13.244  18.049   3.667
31792W        W 4107  14.556  21.095  14.500
31793W        W 4108  28.022   6.173   0.353
31794W        W 4109  38.769  41.696   0.252
31795W        W 4110  12.713  31.991  12.703
31796W        W 4111  22.020  19.781   1.249
31797W        W 4112  44.341   1.687  10.757
31798W        W 4113   7.115  38.836   3.212
31799W        W 4114  18.168  41.152   9.765
31800W        W 4115   3.936  44.527  14.333
31801W        W 4116  38.407  26.249   0.666
31802W        W 4117  12.039  38.528   4.605
31803W        W 4118  13.049   4.518   0.498
31804W        W 4119  14.755  18.273  12.622
31805W        W 4120   3.524  25.002  14.359
31806W        W 4121  17.026  10.481  10.254
31807W        W 4122  41.460  30.814   5.072
31808W        W 4123   0.494   5.749   0.246
31809W        W 4124  22.305  14.609   0.511
31810W        W 4125   6.308  33.731   3.219
31811W        W 4126  43.577   7.782   3.179
31812W        W 4127   2.173   4.469  12.601
31813W        W 4128  40.226  29.426   4.943
31814W        W 4129  42.573  33.778  11.051
31815W        W 4130  22.171  11.738   3.726
31816W        W 4131  27.196  21.563   1.824
31817W        W 4132  33.900  10.401  13.921
31818W        W 4133  10.688  44.368  12.040
31819W        W 4134  17.765  10.055   4.181
31820W        W 4135  37.391  26.308   5.047
31821W        W 4136  21.089  37.493  13.495
31822W        W 4137   2.364   2.475  13.449
31823W        W 4138  28.976  10.733   4.278
31824W        W 4139  19.691  13.268  11.560
31825W        W 4140  15.582  35.458   3.123
31826W        W 4141  35.871  31.093   0.376
31827W        W 4142  25.220  28.873  12.014
31828W        W 4143  23.478  21.239  13.889
31829W        W 4144  41.808  24.266  14.309
31830W        W 4145  32.111  35.697   4.148
31831W        W 4146   0.357  18.617   2.733
31832W        W 4147   5.988   2.523  11.575
31833W        W 4148   4.495  39.442  12.036
31834W        W 4149  11.076  16.345   9.731
31835W        W 4150   5.410   1.742  11.968
31836W        W 4151  26.691  18.187   4.042
31837W        W 4152  24.235  18.545  13.485
31838W        W 4153  11.329   3.690   3.578
31839W        W 4154  29.613   1.804  14.939
31840W        W 4155  38.612  29.966  12.044
31841W        W 4156  43.868   8.349  14.963
31842W        W 4157   8.267  27.885   1.869
31843W        W 4158  35.085  28.726   2.717
31844W        W 4159  31.320   5.759   1.008
31845W        W 4160  40.340  15.151   3.418
31846W        W 4161  30.484  15.811   2.289
31847W        W 4162   5.795   3.571  11.087
31848W        W 4163  19.824  42.776  14.870
31849W        W 4164  31.604  37.425   1.176
31850W        W 4165   2.165  19.677  12.528
31851W        W 4166  39.617  16.865  11.188
31852W        W 4167  14.653   4.541  14.873
31853W        W 4168  30.042  32.881   3.667
31854W        W 4169   7.590  32.181  10.342
31855W        W 4170   0.058  34.961  11.745
31856W        W 4171  42.787  35.098  11.856
31857W        W 4172   1.272   0.266   2.192
31858W        W 4173  36.963  31.821   5.049
31859W        W 4174  16.333  11.323  10.859
31860W        W 4175  42.455  19.425  13.290
31861W        W 4176   9.388  15.920  10.317
31862W        W 4177  16.946  36.157   0.337
31863W        W 4178  21.812  19.210   2.844
31864W        W 4179  44.291   8.204  11.133
31865W        W 4180  27.641  38.342   4.310
31866W        W 4181  28.824  27.135  13.853
31867W        W 4182  21.146  23.535   0.842
31868W        W 4183  39.718  30.325   3.111
31869W        W 4184   1.953  38.541   2.372
31870W        W 4185  18.080  13.240  10.457
31871W        W 4186  10.165  15.309   2.917
31872W        W 4187  39.657  30.327   1.788
31873W        W 4188  21.772  27.916   1.867
31874W        W 4189  18.328  16.527  11.694
31875W        W 4190  31.840  44.403  13.111
31876W        W 4191  37.864  29.522   1.105
31877W        W 4192   6.419  15.357  12.283
31878W        W 4193  34.802  38.549   0.316
31879W        W 4194  13.228  21.016   0.240
31880W        W 4195   1.808  37.146  13.914
31881W        W 4196  28.801  32.943   4.941
31882W        W 4197  16.048  29.943   1.105
31883W        W 4198   1.923  20.623  12.227
31884W        W 4199   0.889  41.916   4.173
31885W        W 4200  33.825   9.514  11.985
31886W        W 4201  41.632   0.478  13.265
31887W        W 4202  15.348  19.052  10.654
31888W        W 4203  19.107  25.899  14.025
31889W        W 4204  37.360   2.722  14.385
31890W        W 4205   1.532   5.257   0.951
31891W        W 4206  43.783   3.261   0.259
31892W        W 4207  20.253  27.187   4.150
31893W        W 4208  23.551  16.639  13.514
31894W        W 4209   1.856  11.375  14.760
31895W        W 4210   7.821  33.632  14.278
31896W        W 4211  24.420   2.830   1.230
31897W        W 4212  29.525   9.965  14.038
31898W        W 4213  27.658  14.176  11.601
31899W        W 4214   6.175  44.506  13.019
31900W        W 4215  15.365  30.837   4.439
31901W        W 4216  32.451  17.671  11.601
31902W        W 4217  16.254  35.490  12.176
31903W        W 4218  22.122  18.405   0.723
31904W        W 4219   8.154   0.445  14.447
31905W        W 4220   0.779  25.827  13.594
31906W        W 4221  37.846  21.654  13.923
31907W        W 4222  28.602  30.150   3.590
31908W        W 4223  12.770  17.679   2.345
31909W        W 4224  15.856  29.911  13.849
31910W        W 4225  29.163  21.042   3.780
31911W        W 4226  13.685  20.796  14.445
31912W        W 4227  44.834   0.512   1.876
31913W        W 4228  39.358  11.793  13.513
31914W        W 4229  12.725  17.258   1.257
31915W        W 4230  17.197  19.368   1.244
31916W        W 4231   5.748  30.572  10.728
31917W        W 4232  24.970  35.089  12.502
31918W        W 4233  42.346  10.456   1.105
31919W        W 4234  35.104   9.220  12.997
31920W        W 4235  16.219  25.806  12.221
31921W        W 4236  35.465  43.015   0.460
31922W        W 4237  13.379  42.799   1.028
31923W        W 4238  32.812  36.397   1.079
31924W        W 4239  34.054  24.665   2.811
31925W        W 4240  21.487  25.900  13.451
31926W        W 4241  44.914  15.983   2.362
31927W        W 4242  22.667   5.944  14.260
31928W        W 4243  30.683   9.246   2.667
31929W        W 4244  35.931   5.632  11.160
31930W        W 4245  12.230   6.668  11.114
31931W        W 4246  10.211  13.096  12.593
31932W        W 4247   4.851  30.647   5.143
31933W        W 4248  28.966  27.818   4.906
31934W        W 4249  21.339  32.481  13.622
31935W        W 4250  27.094  20.620  13.331
31936W        W 4251  31.991  39.590   1.015
31937W        W 4252  14.344  35.404  11.945
31938W        W 4253  14.242  35.527  11.134
31939W        W 4254  35.000   4.197   1.259
31940W        W 4255  34.528   0.984   1.454
31941W        W 4256  24.756  24.134  11.839
31942W        W 4257  18.124  30.919   0.182
31943W        W 4258  18.869  14.238   0.973
31944W        W 4259  23.580  39.840   3.328
31945W        W 4260  40.952  30.161   3.620
31946W        W 4261  39.749  36.270   2.688
31947W        W 4262  14.551  25.968  10.791
31948W        W 4263  38.365  19.088   2.597
31949W        W 4264   6.338   8.654  13.442
31950W        W 4265  18.078  38.251   3.307
31951W        W 4266   7.974  36.634   2.381
31952W        W 4267  37.934  44.456   3.189
31953W        W 4268  34.663  10.639  11.633
31954W        W 4269  12.260   7.889  13.926
31955W        W 4270  36.575  19.589   2.687
31956W        W 4271  43.197  19.063  12.407
31957W        W 4272  28.280   5.081   5.551
31958W        W 4273   4.195   4.846  14.565
31959W        W 4274   5.245  26.064  13.253
31960W        W 4275   4.356  18.844   1.380
31961W        W 4276   9.596  34.311   0.407
31962W        W 4277  16.702  20.756   2.574
31963W        W 4278  13.646   4.017  14.267
31964W        W 4279  26.462   2.093  13.910
31965W        W 4280  13.279  36.108  12.671
31966W        W 4281  11.381   3.278   3.911
31967W        W 4282  25.591   2.682  11.057
31968W        W 4283   3.826  16.596  12.998
31969W        W 4284  27.544   9.694   2.772
31970W        W 4285  22.194   1.067  11.087
31971W        W 4286   0.804   8.115   0.792
31972W        W 4287  37.559  36.106   3.702
31973W        W 4288  29.133  12.010  14.394
31974W        W 4289  22.618  25.467  13.333
31975W        W 4290  24.548  23.580   4.059
31976W        W 4291  36.762  28.788  11.580
31977W        W 4292  37.681  29.526   4.683
31978W        W 4293  33.642  21.525   4.333
31979W        W 4294  42.925  40.375  11.740
31980W        W 4295  42.185  15.691  11.302
31981W        W 4296  29.154  34.573   0.147
31982W        W 4297   4.603  37.855   1.836
31983W        W 4298  29.026  29.648  14.939
31984W        W 4299  30.163  38.261   2.250
31985W        W 4300   1.601  26.030  11.499
31986W        W 4301   5.246  10.768   3.641
31987W        W 4302  34.300  43.768   1.865
31988W        W 4303   2.385   9.871   2.430
31989W        W 4304  13.021  34.499  11.421
31990W        W 4305  11.961  15.116   1.858
31991W        W 4306  34.128  29.535   3.156
31992W        W 4307  40.511  37.611  12.104
31993W        W 4308   4.366  35.053  10.606
31994W        W 4309   8.316  21.232  14.775
31995W        W 4310  19.594   2.227   1.710
31996W        W 4311  14.785  35.337   2.508
31997W        W 4312  16.818   5.134   0.000
31998W        W 4313  23.143  30.429  13.636
31999W        W 4314  33.921   5.267  11.366
32000W        W 4315  10.780  39.830   4.896
32001W        W 4316   2.773  25.700   4.885
32002W        W 4317  13.501  23.989  12.991
32003W        W 4318  33.956  43.847   3.621
32004W        W 4319  35.060  44.267  13.081
32005W        W 4320   9.619  44.863  14.998
32006W        W 4321  25.296  36.552   0.214
32007W        W 4322  42.558  42.916   2.743
32008W        W 4323  28.135  18.746   3.738
32009W        W 4324  17.721  21.567   1.908
32010W        W 4325  28.918  43.556  13.832
32011W        W 4326  27.899  20.098   0.564
32012W        W 4327  19.014  27.657  12.875
32013W        W 4328  23.831  32.326  11.647
32014W        W 4329  31.745  37.591   5.009
32015W        W 4330  27.028   1.473   3.794
32016W        W 4331  32.279  29.962   1.840
32017W        W 4332   1.207  42.829  11.603
32018W        W 4333   4.193  39.854  11.976
32019W        W 4334  35.068  22.621  10.259
32020W        W 4335  10.644  44.448   4.119
32021W        W 4336  31.508  27.696   4.834
32022W        W 4337  34.131  11.278   0.470
32023W        W 4338  38.185   7.670  11.332
32024W        W 4339  17.577   0.986   3.381
32025W        W 4340  11.880  18.790  12.527
32026W        W 4341  40.875  42.776  14.972
32027W        W 4342  23.754  34.169   1.701
32028W        W 4343  23.505   5.215   2.183
32029W        W 4344  23.250  31.159   1.907
32030W        W 4345   6.661  34.010  12.080
32031W        W 4346   0.675  40.210   3.682
32032W        W 4347   8.241  23.949  12.661
32033W        W 4348  44.353  20.687   3.667
32034W        W 4349  14.993  30.085   0.508
32035W        W 4350  19.209  35.690   4.419
32036W        W 4351  24.052  16.792   1.817
32037W        W 4352  12.353  11.264  13.092
32038W        W 4353  43.772  39.882  12.438
32039W        W 4354  26.717  16.516   1.913
32040W        W 4355  35.565  14.586   3.348
32041W        W 4356  26.668  10.929  12.992
32042W        W 4357   2.836  22.728  11.094
32043W        W 4358  38.084  22.315  14.253
32044W        W 4359  42.766  28.957  11.914
32045W        W 4360   1.789   3.304  13.821
32046W        W 4361   0.480  25.671  13.985
32047W        W 4362  11.555   8.666   2.173
32048W        W 4363  42.171  21.834   4.930
32049W        W 4364  18.785  21.097   2.926
32050W        W 4365  27.621  44.589   3.674
32051W        W 4366  16.687  22.578  11.631
32052W        W 4367  16.243   7.115   2.414
32053W        W 4368  24.705  33.072   1.265
32054W        W 4369   1.820  30.938   1.396
32055W        W 4370  19.038   7.903   3.148
32056W        W 4371   2.372  22.742   0.840
32057W        W 4372  22.025  14.507  13.875
32058W        W 4373  12.828   5.937   3.682
32059W        W 4374  28.427   0.417  11.993
32060W        W 4375  16.333  13.631  13.900
32061W        W 4376  27.697  27.640  13.394
32062W        W 4377  39.916  39.019  11.548
32063W        W 4378  24.642  37.131   4.230
32064W        W 4379  42.359   1.258  11.642
32065W        W 4380  40.421  16.607  14.536
32066W        W 4381  41.026  10.444   3.258
32067W        W 4382  22.476  39.449   0.261
32068W        W 4383   8.678  12.745  13.582
32069W        W 4384  37.560  27.260   0.229
32070W        W 4385  18.589  42.452   1.846
32071W        W 4386   6.426  35.392  13.013
32072W        W 4387  44.492  23.570  14.041
32073W        W 4388  21.546  16.155   4.212
32074W        W 4389  26.283  13.681   3.502
32075W        W 4390   3.478   1.872   1.251
32076W        W 4391  18.210   5.689   1.860
32077W        W 4392  35.581  39.280   0.228
32078W        W 4393  11.871  28.281  12.386
32079W        W 4394  37.244  44.526  10.842
32080W        W 4395  16.966  13.726   3.115
32081W        W 4396  31.164  28.617  12.967
32082W        W 4397   4.418   6.645   0.409
32083W        W 4398   5.791  36.752  14.712
32084W        W 4399  41.868  11.887  13.546
32085W        W 4400  11.639  24.824  12.513
32086W        W 4401  13.552  34.891   0.846
32087W        W 4402  31.778  15.569  12.850
32088W        W 4403  13.157  22.652   4.050
32089W        W 4404  38.200  35.415  12.791
32090W        W 4405  23.127  26.602  11.205
32091W        W 4406  36.845   3.046  13.512
32092W        W 4407  32.463  10.241   3.645
32093W        W 4408   3.835   9.826  11.719
32094W        W 4409  10.153  16.875   0.483
32095W        W 4410  18.798  13.322  13.019
32096W        W 4411  18.356  35.449   3.115
32097W        W 4412  22.183  36.065  10.804
32098W        W 4413  26.983  35.098   1.410
32099W        W 4414  38.858  27.179   0.811
32100W        W 4415  37.545  26.659  12.304
32101W        W 4416  31.813  34.557   1.623
32102W        W 4417   7.241  25.842   4.282
32103W        W 4418  11.316  26.048  13.878
32104W        W 4419  24.029  30.196  10.566
32105W        W 4420  11.085  16.379   2.093
32106W        W 4421   0.799  17.252   1.001
32107W        W 4422   9.068  23.534   1.638
32108W        W 4423  27.150  44.258   2.134
32109W        W 4424   2.885  16.380   4.247
32110W        W 4425  44.971  39.572  13.469
32111W        W 4426  16.190  13.787   4.780
32112W        W 4427  40.334  11.621  12.458
32113W        W 4428   5.110   6.367   1.128
32114W        W 4429   0.445  23.745   4.806
32115W        W 4430  31.287  38.506  14.678
32116W        W 4431  35.864   3.901   0.793
32117W        W 4432  21.966  14.241   4.668
32118W        W 4433   8.828   2.414   2.262
32119W        W 4434  15.764  43.313  12.318
32120W        W 4435  33.385  38.316   2.285
32121W        W 4436  30.128  25.703   3.662
32122W        W 4437  31.183   0.891   1.756
32123W        W 4438   8.695  17.474   2.780
32124W        W 4439  12.826   0.490   0.858
32125W        W 4440  39.296  19.703   3.195
32126W        W 4441  10.492  15.152   0.010
32127W        W 4442  30.540  26.156   1.508
32128W        W 4443   5.914  37.932  11.336
32129W        W 4444  35.842   7.871   4.528
32130W        W 4445  31.662  39.764  10.708
32131W        W 4446  39.601   4.293  14.131
32132W        W 4447   8.218  21.680  14.089
32133W        W 4448  44.591  20.773   4.860
32134W        W 4449   0.996  18.102  11.530
32135W        W 4450  10.882  43.042  12.227
32136W        W 4451   1.431  39.083   0.782
32137W        W 4452   2.584  12.524   0.777
32138W        W 4453  28.657  18.983   2.109
32139W        W 4454  12.190  24.263  10.733
32140W        W 4455  36.833  17.276  14.190
32141W        W 4456  37.405  39.411  11.621
32142W        W 4457  21.713  11.846   3.534
32143W        W 4458  44.362   7.845  12.193
32144W        W 4459  40.949  31.205  11.352
32145W        W 4460  36.627  44.466  12.021
32146W        W 4461  21.008  13.708   1.705
32147W        W 4462  11.653  10.145   4.139
32148W        W 4463  23.726   8.446   4.729
32149W        W 4464  30.157   8.036  10.698
32150W        W 4465  31.051  17.084  11.077
32151W        W 4466   7.455  35.931   3.859
32152W        W 4467  31.454  18.572  12.855
32153W        W 4468  35.299  29.225   2.773
32154W        W 4469  21.247  38.536   2.488
32155W        W 4470  17.580  13.890   4.682
32156W        W 4471  42.741  22.519  13.851
32157W        W 4472  21.006  21.077  14.927
32158W        W 4473  11.378   9.913   2.826
32159W        W 4474  35.414  40.592   1.829
32160W        W 4475   1.326  39.885   2.238
32161W        W 4476  10.693  38.263   1.718
32162W        W 4477  42.383  12.261   3.776
32163W        W 4478   3.692  11.587   4.991
32164W        W 4479  23.027  29.304   4.077
32165W        W 4480  30.486  20.538  10.737
32166W        W 4481  36.560   7.059   1.863
32167W        W 4482  40.014  28.584   2.471
32168W        W 4483  25.679  13.184  14.429
32169W        W 4484   6.689   3.106  14.461
32170W        W 4485  39.526  32.355  12.107
32171W        W 4486   7.249  39.810   2.124
32172W        W 4487  42.403   8.821   1.249
32173W        W 4488  25.504  18.109   3.114
32174W        W 4489  18.786   2.013   4.046
32175W        W 4490  39.758  12.662  13.801
32176W        W 4491  22.202  22.727   0.582
32177W        W 4492  41.867  35.095  13.845
32178W        W 4493  35.115   6.624  12.654
32179W        W 4494  22.504  14.216  11.043
32180W        W 4495  38.269   9.106   0.380
32181W        W 4496  19.338  30.040  13.090
32182W        W 4497  12.300  12.875   2.974
32183W        W 4498  22.073  40.986   4.647
32184W        W 4499  26.506  27.231  11.133
32185W        W 4500  23.115  30.347   3.152
32186W        W 4501  10.663   3.712   1.676
32187W        W 4502   0.041  12.406   9.813
32188W        W 4503  17.252  15.140  11.044
32189W        W 4504  21.519   0.842  12.109
32190W        W 4505   2.832  22.889   3.820
32191W        W 4506   3.720  17.841  14.374
32192W        W 4507  17.163  44.826   4.767
32193W        W 4508  26.101  26.945  12.702
32194W        W 4509  43.551  42.555  13.336
32195W        W 4510  14.572   0.817   4.998
32196W        W 4511  10.387  27.180  12.439
32197W        W 4512   1.974  25.673   0.758
32198W        W 4513  26.585   3.324   4.697
32199W        W 4514  44.449  21.014   4.089
32200W        W 4515  39.086  29.444   0.081
32201W        W 4516   5.368  31.016   4.593
32202W        W 4517   8.664  40.241  10.769
32203W        W 4518   3.757  19.561  12.508
32204W        W 4519  33.178   1.772   5.073
32205W        W 4520  38.899   3.681  11.778
32206W        W 4521  32.033   9.747   0.928
32207W        W 4522   0.443  34.044   3.648
32208W        W 4523  29.881  33.331   1.555
32209W        W 4524  38.814  27.929   3.587
32210W        W 4525   8.764  21.465  14.895
32211W        W 4526  34.653   8.383   2.813
32212W        W 4527   4.033  27.116   0.856
32213W        W 4528  13.337  35.044  14.513
32214W        W 4529  17.354  34.424  14.445
32215W        W 4530  41.059  31.107  11.893
32216W        W 4531   0.701  34.674  14.859
32217W        W 4532  33.488  43.967   3.395
32218W        W 4533  20.001  12.737  12.481
32219W        W 4534   0.761   3.145  14.951
32220W        W 4535  27.247   0.311  12.112
32221W        W 4536  11.543   6.285  11.522
32222W        W 4537  40.698   8.502   1.731
32223W        W 4538   9.496  21.012   1.459
32224W        W 4539   5.258  13.595  13.419
32225W        W 4540  24.625   8.437   0.640
32226W        W 4541  42.182  19.752  10.722
32227W        W 4542  28.914  16.753  14.823
32228W        W 4543  35.492   2.576  14.477
32229W        W 4544  11.149  18.763   0.271
32230W        W 4545  24.102  14.077   0.362
32231W        W 4546  25.908  44.054   0.986
32232W        W 4547  43.583  34.718   1.167
32233W        W 4548   5.143   9.239  14.847
32234W        W 4549   2.261   9.791  12.852
32235W        W 4550  10.714  25.996  13.572
32236W        W 4551  12.658  17.149  10.699
32237W        W 4552  19.824  30.117   1.913
32238W        W 4553  38.652  11.874   3.771
32239W        W 4554  19.335   5.805   4.898
32240W        W 4555  39.609  19.456  11.652
32241W        W 4556  41.242   1.490   4.062
32242W        W 4557   4.268   5.916   1.010
32243W        W 4558  40.221   0.180   3.883
32244W        W 4559  36.693  29.302  14.373
32245W        W 4560  42.802  44.569  10.828
32246W        W 4561   3.245  29.919   0.249
32247W        W 4562  15.275   8.682   0.299
32248W        W 4563  14.326  10.162   3.650
32249W        W 4564  44.312  27.748   4.554
32250W        W 4565  36.662  29.665   4.591
32251W        W 4566   6.667   6.784   0.871
32252W        W 4567  15.869  30.070   1.610
32253W        W 4568  27.692   7.727  13.584
32254W        W 4569  15.524   7.754  12.850
32255W        W 4570  23.266  32.341  12.918
32256W        W 4571   5.752  43.008   1.730
32257W        W 4572  31.986  22.597   4.031
32258W        W 4573  10.084  20.523   0.842
32259W        W 4574   5.682  15.042   4.141
32260W        W 4575  20.330  24.342  10.012
32261W        W 4576  29.037   6.215  10.663
32262W        W 4577  17.658  15.754  10.535
32263W        W 4578  26.820  34.041   2.776
32264W        W 4579  22.482  18.600  12.342
32265W        W 4580  43.959  14.214  14.888
32266W        W 4581  29.210  22.044  14.982
32267W        W 4582  37.515   9.573  11.642
32268W        W 4583  26.671  34.029  10.699
32269W        W 4584   7.395  25.137  14.834
32270W        W 4585   0.938  20.746  13.344
32271W        W 4586  43.850   2.657  12.840
32272W        W 4587  32.498   6.137  11.930
32273W        W 4588  42.854  23.166   4.846
32274W        W 4589  19.736   8.097  14.451
32275W        W 4590  11.756  28.137  14.215
32276W        W 4591   9.690  29.915  13.313
32277W        W 4592  44.018  12.614   1.135
32278W        W 4593  44.789  25.581  12.868
32279W        W 4594   5.880   4.283  12.100
32280W        W 4595   7.408  29.991   2.760
32281W        W 4596   7.752  39.706   2.821
32282W        W 4597  35.793  17.652  12.920
32283W        W 4598  39.107  30.966  13.021
32284W        W 4599   4.490  26.447   4.600
32285W        W 4600  15.573  20.781   3.303
32286W        W 4601  22.492   7.683  11.538
32287W        W 4602  28.441   0.451   2.244
32288W        W 4603  35.889  23.259  11.596
32289W        W 4604  40.301   8.492  11.212
32290W        W 4605  13.302   3.368  11.614
32291W        W 4606  36.510  11.843  12.480
32292W        W 4607  44.684  24.332  13.543
32293W        W 4608  23.225   4.905   0.927
32294W        W 4609  42.341  25.796   2.669
32295W        W 4610   3.462  43.433  13.612
32296W        W 4611  21.786  24.625  14.071
32297W        W 4612   6.246  36.576  14.904
32298W        W 4613  34.840  18.742   2.298
32299W        W 4614  41.417  25.488   1.162
32300W        W 4615  32.309  37.992   4.168
32301W        W 4616  27.278  16.117  12.119
32302W        W 4617  18.239  38.793  14.925
32303W        W 4618  40.618  16.642  11.580
32304W        W 4619   4.044   0.385   1.728
32305W        W 4620  43.847  19.289  13.584
32306W        W 4621  18.219  23.508   2.615
32307W        W 4622  36.827   1.842  12.023
32308W        W 4623  12.593  14.756   2.963
32309W        W 4624  20.069  44.830   0.740
32310W        W 4625   4.675  17.444  11.378
32311W        W 4626   5.295  40.025   3.343
32312W        W 4627   1.071  41.663   3.710
32313W        W 4628  41.901  24.726  12.793
32314W        W 4629  38.281   7.676   1.354
32315W        W 4630  22.591  43.410  11.603
32316W        W 4631  11.014  24.772   2.905
32317W        W 4632  22.851  38.375   0.883
32318W        W 4633   6.173  20.649   3.608
32319W        W 4634  29.886  15.796  12.598
32320W        W 4635  40.940  34.191   3.690
32321W        W 4636  33.091   5.276  10.528
32322W        W 4637  19.566  28.351   3.064
32323W        W 4638   1.332  40.584  13.457
32324W        W 4639   2.377   1.675   3.316
32325W        W 4640   1.854  40.903  12.831
32326W        W 4641  21.690  15.663   3.325
32327W        W 4642  41.437   4.339   4.537
32328W        W 4643  25.791  42.603   1.268
32329W        W 4644  31.402  28.451   0.678
32330W        W 4645   7.961  34.452  12.127
32331W        W 4646  29.486  11.180   1.921
32332W        W 4647   8.608  41.479  12.875
32333W        W 4648  44.701  40.560  10.760
32334W        W 4649  11.689  43.244   3.550
32335W        W 4650   3.845   3.129  12.052
32336W        W 4651  35.048   6.688  13.577
32337W        W 4652  40.023  15.624   2.788
32338W        W 4653  27.963  41.940  10.288
32339W        W 4654  31.010  16.832   3.335
32340W        W 4655   4.275  28.664  10.595
32341W        W 4656  20.585  35.238   9.934
32342W        W 4657  43.873  30.335   0.258
32343W        W 4658  30.677  31.277  13.611
32344W        W 4659  27.905  18.738   0.757
32345W        W 4660  36.462  41.412   3.553
32346W        W 4661   6.141  34.887  14.915
32347W        W 4662  28.058   4.739   3.448
32348W        W 4663  38.885   1.695  11.185
32349W        W 4664  31.601   2.492   0.564
32350W        W 4665  18.033  28.317   5.498
32351W        W 4666  16.130   3.731  13.745
32352W        W 4667  34.600  27.683   0.031
32353W        W 4668  23.537   5.453   3.732
32354W        W 4669  38.431   0.014  11.092
32355W        W 4670  24.546  40.048  11.990
32356W        W 4671  28.644  19.432  10.515
32357W        W 4672  17.593  31.152   3.815
32358W        W 4673  33.337  43.529   2.223
32359W        W 4674  36.011  31.044  10.750
32360W        W 4675  26.061   9.349  13.813
32361W        W 4676  33.910  37.337   3.601
32362W        W 4677  22.129   6.604  12.874
32363W        W 4678  27.582  15.185   1.782
32364W        W 4679  19.407  23.808   0.239
32365W        W 4680  37.156  25.992   2.376
32366W        W 4681  38.345  15.570   5.045
32367W        W 4682  41.238  39.207  11.609
32368W        W 4683  36.052  26.669   2.806
32369W        W 4684   9.379  10.733  14.985
32370W        W 4685  12.803   0.863   3.717
32371W        W 4686   6.416  15.866  12.062
32372W        W 4687  27.470   3.176   3.128
32373W        W 4688  20.673  43.905   4.772
32374W        W 4689   1.297   7.117  14.492
32375W        W 4690  13.438   6.275   0.482
32376W        W 4691   1.392   8.590  12.561
32377W        W 4692  32.440  38.404   0.904
32378W        W 4693  31.314  19.596  13.019
32379W        W 4694  22.480  21.179   3.804
32380W        W 4695  26.293  28.267  10.555
32381W        W 4696  34.470  28.998  14.855
32382W        W 4697   8.158  37.358  12.114
32383W        W 4698  23.621  17.086  14.924
32384W        W 4699  29.542  16.981   4.141
32385W        W 4700  43.935  30.438  10.776
32386W        W 4701  14.168  13.696  14.017
32387W        W 4702  28.070  16.091   0.390
32388W        W 4703  44.344  22.979  12.964
32389W        W 4704   4.189  37.468  10.718
32390W        W 4705  19.467  42.293  13.080
32391W        W 4706  28.857  43.210  12.527
32392W        W 4707  28.347  41.948   1.468
32393W        W 4708   1.242  20.573   1.263
32394W        W 4709  41.823  26.354   4.187
32395W        W 4710  19.294   9.673  12.037
32396W        W 4711  32.034  34.123   3.393
32397W        W 4712  31.443  31.929  13.772
32398W        W 4713   6.772  39.198   1.357
32399W        W 4714  31.430   7.366  13.970
32400W        W 4715  26.958  17.984  12.680
32401W        W 4716   2.987  21.094  10.885
32402W        W 4717  24.969  40.429   0.855
32403W        W 4718   1.422  39.222  11.304
32404W        W 4719  40.526  29.185  11.559
32405W        W 4720  26.026  28.195  12.071
32406W        W 4721  14.815  23.159   4.183
32407W        W 4722   1.915  22.612  12.024
32408W        W 4723   1.747  14.656  13.410
32409W        W 4724  43.463   6.645   0.950
32410W        W 4725  13.577   6.896  12.248
32411W        W 4726  31.117  20.526   1.927
32412W        W 4727  28.446  26.156   4.539
32413W        W 4728  25.704  29.809   2.521
32414W        W 4729  18.055  20.651  11.649
32415W        W 4730  30.679  42.921  13.061
32416W        W 4731   7.199  28.400   1.791
32417W        W 4732  19.881  18.368   3.136
32418W        W 4733  22.086  17.418  11.044
32419W        W 4734  38.645   3.560   3.652
32420W        W 4735  21.436  44.760   0.735
32421W        W 4736  21.515   9.877  11.448
32422W        W 4737  40.007   1.826   2.298
32423W        W 4738  20.739  20.990  13.912
32424W        W 4739  22.805  14.231   4.137
32425W        W 4740   8.657  26.726  10.758
32426W        W 4741   4.270   2.997  13.454
32427W        W 4742  32.730  40.879  13.423
32428W        W 4743  35.985  19.773   4.678
32429W        W 4744  36.537  25.450   4.141
32430W        W 4745   6.281  28.489   2.640
32431W        W 4746   9.133  16.068   2.733
32432W        W 4747  39.787  14.341  12.355
32433W        W 4748   8.755  24.006   0.347
32434W        W 4749  21.491  13.972  13.624
32435W        W 4750  18.047  26.505   0.778
32436W        W 4751  42.880  12.605   1.840
32437W        W 4752   4.202  42.852  11.532
32438W        W 4753  39.292  23.533  10.207
32439W        W 4754  23.218  28.477   1.324
32440W        W 4755  39.386   6.058   1.766
32441W        W 4756  11.663   3.986   4.781
32442W        W 4757   6.882  14.716   0.139
32443W        W 4758   9.853  13.619   1.474
32444W        W 4759  24.028  26.867   2.282
32445W        W 4760  11.412   2.322   4.719
32446W        W 4761  40.820  35.023   2.223
32447W        W 4762  42.889   1.265  13.502
32448W        W 4763   3.493  32.856   2.335
32449W        W 4764  33.894  16.192  13.086
32450W        W 4765   9.325  43.223  12.466
32451W        W 4766  41.595  43.114  11.715
32452W        W 4767  32.076  16.986  12.409
32453W        W 4768  27.012  14.298   1.894
32454W        W 4769  10.065  14.314   0.421
32455W        W 4770  24.310   5.879  13.527
32456W        W 4771  13.327  43.443   2.325
32457W        W 4772   1.285  16.837   4.445
32458W        W 4773  36.810  30.460  13.823
32459W        W 4774  10.805  11.155  13.331
32460W        W 4775  10.479   2.255   2.800
32461W        W 4776  44.402   9.532  12.601
32462W        W 4777  24.202  11.823   1.448
32463W        W 4778  33.821  17.499  14.688
32464W        W 4779  23.794  16.386   4.238
32465W        W 4780  28.089  10.256   5.125
32466W        W 4781  27.607   6.060   1.517
32467W        W 4782  42.300  40.205   4.090
32468W        W 4783  11.400  40.895  13.250
32469W        W 4784   1.834  40.997   1.259
32470W        W 4785   6.703  38.902  14.956
32471W        W 4786  22.031   7.906  11.401
32472W        W 4787  21.187   7.695  13.364
32473W        W 4788  21.481  33.432  14.021
32474W        W 4789  41.840  28.313  11.267
32475W        W 4790  41.441  15.529  12.156
32476W        W 4791  26.375  44.008  11.405
32477W        W 4792   4.185   3.990   0.410
32478W        W 4793   4.439  42.484   0.362
32479W        W 4794   6.140  30.926  10.878
32480W        W 4795  17.626   6.659  13.862
32481W        W 4796  24.116   2.310  12.551
32482W        W 4797   6.876  10.161  13.122
32483W        W 4798  32.879  38.307  12.842
32484W        W 4799  15.120   8.754   4.808
32485W        W 4800   4.727  37.418   2.124
32486W        W 4801  14.494   1.426  13.062
32487W        W 4802  15.652   7.632   1.265
32488W        W 4803  31.293  35.068   2.552
32489W        W 4804  20.040  33.347  14.759
32490W        W 4805  11.869  44.209  14.469
32491W        W 4806  29.129   4.932   2.720
32492W        W 4807  20.762  28.371  14.027
32493W        W 4808  42.284  35.992   1.325
32494W        W 4809  44.334  37.801  10.637
32495W        W 4810  44.022  18.509  14.854
32496W        W 4811  26.879  10.275  10.500
32497W        W 4812   3.365  42.524  11.609
32498W        W 4813  31.915  41.768  11.711
32499W        W 4814  32.837  14.570  11.170
32500W        W 4815  22.005  18.007  11.621
32501W        W 4816  21.058   2.144  14.153
32502W        W 4817  23.666  37.381  14.060
32503W        W 4818  12.112  27.749   2.650
32504W        W 4819   7.115   6.075  13.445
32505W        W 4820  37.386  13.322   2.528
32506W        W 4821  13.018  21.433  11.139
32507W        W 4822  18.735  28.483  13.479
32508W        W 4823  29.113  32.324   2.233
32509W        W 4824  12.931  31.329  13.525
32510W        W 4825  18.032  29.643  13.168
32511W        W 4826  15.638  31.354  14.855
32512W        W 4827  17.550  26.793  10.506
32513W        W 4828  30.652  26.499  14.421
32514W        W 4829   1.481  32.362  10.827
32515W        W 4830  14.982  32.875  11.589
32516W        W 4831  33.649   5.786   2.843
32517W        W 4832  38.119   1.538   0.855
32518W        W 4833   2.271  28.719   0.447
32519W        W 4834  28.546  36.486  12.572
32520W        W 4835  31.708  44.195  11.188
32521W        W 4836   1.474   9.223   4.540
32522W        W 4837  41.868  18.877   2.676
32523W        W 4838  30.470   0.578   5.031
32524W        W 4839  20.272  16.687   2.646
32525W        W 4840  27.830  13.497   0.272
32526W        W 4841  16.185  43.786   0.192
32527W        W 4842   1.355  19.162  14.824
32528W        W 4843  16.012   6.852  13.048
32529W        W 4844  32.544  27.594  12.520
32530W        W 4845   7.794   6.611  13.832
32531W        W 4846  25.526  23.269  13.899
32532W        W 4847  15.468  34.414  14.761
32533W        W 4848  20.434  17.559   0.359
32534W        W 4849  15.564   6.360  13.235
32535W        W 4850  30.391  44.226   2.728
32536W        W 4851  22.673   0.727   2.912
32537W        W 4852  43.973   1.629   1.585
32538W        W 4853  12.585  41.881   1.604
32539W        W 4854  21.607  14.832  13.871
32540W        W 4855   8.892  38.083  13.966
32541W        W 4856   7.840   3.746   3.150
32542W        W 4857  16.443  15.271  13.587
32543W        W 4858  43.972  32.214  13.388
32544W        W 4859  13.684   3.957  11.212
32545W        W 4860   5.715  23.489   2.721
32546W        W 4861  16.190  31.468   2.144
32547W        W 4862   2.535  20.699   2.297
32548W        W 4863  21.733  17.150   0.222
32549W        W 4864  39.896  17.997   2.452
32550W        W 4865  19.168   0.973   3.828
32551W        W 4866   0.461  14.713  10.740
32552W        W 4867  38.192  31.058  14.833
32553W        W 4868  43.404  31.137   4.134
32554W        W 4869  21.239   4.066  10.436
32555W        W 4870   0.819  23.572  10.499
32556W        W 4871  17.026   4.218   0.311
32557W        W 4872  23.880   9.974  12.991
32558W        W 4873  10.537  33.954  11.535
32559W        W 4874  41.392  43.728   4.725
32560W        W 4875  38.518   6.490   0.766
32561W        W 4876   4.926  43.325  13.129
32562W        W 4877  40.605   8.433  12.607
32563W        W 4878  20.162   2.801   0.994
32564W        W 4879  38.678   5.656   5.046
32565W        W 4880   9.759   0.463  13.129
32566W        W 4881  31.668  19.996   1.476
32567W        W 4882   9.733  39.995   0.625
32568W        W 4883  41.523   1.964  10.676
32569W        W 4884  14.979  33.861  11.669
32570W        W 4885  42.466  37.358   1.154
32571W        W 4886   2.979  11.900   3.804
32572W        W 4887  39.986  18.504   2.380
32573W        W 4888   3.351   0.397   2.632
32574W        W 4889  33.950  24.175   2.592
32575W        W 4890  41.433  44.785  14.898
32576W        W 4891   8.742  27.361   4.669
32577W        W 4892  32.866  23.276  11.115
32578W        W 4893  19.274  21.163  11.894
32579W        W 4894  31.977   7.209   1.781
32580W        W 4895   9.554  26.509  12.748
32581W        W 4896  40.001  32.903   4.735
32582W        W 4897  38.569  11.836  13.981
32583W        W 4898  31.056   1.882   0.830
32584W        W 4899  31.137   5.641  14.965
32585W        W 4900  37.086  33.606  14.942
32586W        W 4901  12.580  33.017  12.873
32587W        W 4902  31.575   3.941  13.855
32588W        W 4903  44.443  30.783  13.839
32589W        W 4904   4.219  25.012  12.052
32590W        W 4905   2.795  12.931   3.614
32591W        W 4906   6.391  39.783  12.116
32592W        W 4907  19.096   3.897   2.761
32593W        W 4908  44.778  14.280  11.529
32594W        W 4909   0.366  29.880   1.639
32595W        W 4910  44.309   0.969   3.704
32596W        W 4911  12.345   6.489   4.578
32597W        W 4912   0.744   1.373  11.638
32598W        W 4913  28.094  12.009  11.434
32599W        W 4914  13.465  21.859   3.683
32600W        W 4915  35.571  42.606  11.259
32601W        W 4916  44.693   4.759  13.066
32602W        W 4917  41.809   1.399  14.937
32603W        W 4918   7.287  37.021  14.979
32604W        W 4919  17.653  31.484   4.833
32605W        W 4920   5.440   8.824   0.231
32606W        W 4921  26.277  19.077  11.312
32607W        W 4922  20.113  39.610  13.939
32608W        W 4923  23.100  42.230   2.726
32609W        W 4924   1.769  27.995   1.286
32610W        W 4925  37.664  44.870   2.754
32611W        W 4926  12.143  24.502  13.309
32612W        W 4927  43.684  36.351   3.293
32613W        W 4928  18.231  19.320   4.095
32614W        W 4929  44.234   0.852   0.716
32615W        W 4930  16.048   7.208   4.019
32616W        W 4931  39.050  36.282   1.263
32617W        W 4932  29.862  23.534  14.294
32618W        W 4933   3.678  16.190  10.714
32619W        W 4934  23.736   4.487   3.779
32620W        W 4935  34.471  42.177   4.161
32621W        W 4936  21.863  19.501  13.372
32622W        W 4937  32.152   9.212   4.218
32623W        W 4938   5.228  13.236   2.114
32624W        W 4939  44.017   8.392  11.521
32625W        W 4940   0.407   7.889   0.441
32626W        W 4941   7.693   0.196  14.495
32627W        W 4942  13.662  19.786   1.295
32628W        W 4943  44.205  36.490   3.289
32629W        W 4944  40.740  17.704   2.502
32630W        W 4945  16.643   0.041  14.560
32631W        W 4946  11.010  28.442  14.952
32632W        W 4947  18.079  38.090  10.300
32633W        W 4948  38.002   8.592   2.788
32634W        W 4949  17.540  14.301   1.784
32635W        W 4950   4.647  41.765  11.182
32636W        W 4951  15.070  19.672  11.647
32637W        W 4952  30.840   6.633  10.717
32638W        W 4953  27.686  42.083   1.798
32639W        W 4954  23.436  22.308   0.435
32640W        W 4955  17.534   8.313   0.261
32641W        W 4956  41.435  42.110   2.917
32642W        W 4957   4.864  29.061   2.802
32643W        W 4958  12.834  20.543  13.992
32644W        W 4959  40.239  25.711   3.715
32645W        W 4960  40.286   3.291  12.767
32646W        W 4961  20.849  17.304   0.671
32647W        W 4962   1.955  40.794   1.941
32648W        W 4963  33.173  10.072   3.147
32649W        W 4964  40.582  23.535  13.006
32650W        W 4965  11.115  17.757  13.436
32651W        W 4966  42.303  31.092   0.505
32652W        W 4967  14.731  37.106  11.632
32653W        W 4968  27.643  29.126   0.416
32654W        W 4969   7.208  34.028   4.037
32655W        W 4970   8.878  39.479  11.190
32656W        W 4971   5.890  12.657  10.808
32657W        W 4972  25.645  38.680  14.366
32658W        W 4973  17.278  30.850  10.842
32659W        W 4974  35.993  10.440   2.779
32660W        W 4975  18.073  39.299  14.931
32661W        W 4976  12.894  36.875   1.934
32662W        W 4977  15.160   5.791   3.192
32663W        W 4978  42.424  26.735  11.521
32664W        W 4979  38.059   6.902  13.688
32665W        W 4980  42.340  10.939   4.511
32666W        W 4981  22.947  44.028   0.269
32667W        W 4982  19.022  44.727  10.341
32668W        W 4983   7.175   4.272  11.569
32669W        W 4984   0.247  25.068   1.783
32670W        W 4985  28.978  35.528  11.464
32671W        W 4986  34.250  12.683  12.473
32672W        W 4987   6.606  31.316  13.362
32673W        W 4988  27.433   3.670   0.864
32674W        W 4989  15.854  22.712   0.310
32675W        W 4990  26.716  41.876  11.666
32676W        W 4991  42.998   1.452  10.361
32677W        W 4992  10.778  13.597  12.104
32678W        W 4993  37.394  25.512  12.479
32679W        W 4994  18.229   7.716   0.033
32680W        W 4995  10.186  12.826  11.184
32681W        W 4996  17.709  38.050   1.354
32682W        W 4997  32.328   3.142   3.718
32683W        W 4998  37.016  32.963   2.669
32684W        W 4999   3.553  44.570  13.887
32685W        W 5000  20.864  18.621  12.162
32686W        W 5001  44.686   4.901   4.084
32687W        W 5002  21.755  38.503  14.566
32688W        W 5003  30.344  25.237   3.670
32689W        W 5004  39.351   6.184   3.063
32690W        W 5005  18.168  14.125  14.720
32691W        W 5006  19.191   8.807   4.640
32692W        W 5007   1.377   6.203  12.452
32693W        W 5008  37.968   9.213   3.452
32694W        W 5009   6.628  34.701   0.024
32695W        W 5010  28.675  32.241   0.547
32696W        W 5011  24.628  14.024   2.054
32697W        W 5012  29.955  16.065   1.771
32698W        W 5013   9.796  11.198  11.286
32699W        W 5014  30.879  16.817   3.869
32700W        W 5015  20.966  26.296   1.388
32701W        W 5016  25.717  24.216  12.983
32702W        W 5017   0.815  10.069  13.760
32703W        W 5018   2.529  40.189   2.714
32704W        W 5019  25.516  36.941  14.017
32705W        W 5020  10.808  37.873  14.024
32706W        W 5021  33.874  25.753   4.634
32707W        W 5022  44.505  21.006   0.290
32708W        W 5023  21.658  22.425  12.611
32709W        W 5024   1.388   9.102   2.010
32710W        W 5025   5.132  23.506   0.377
32711W        W 5026  43.950  39.538  12.864
32712W        W 5027  30.511  25.874  11.081
32713W        W 5028  32.532  30.714  11.080
32714W        W 5029  24.861  36.974  11.113
32715W        W 5030  40.515  10.709   3.561
32716W        W 5031   9.630  28.901   5.171
32717W        W 5032  37.992  11.436   3.298
32718W        W 5033  36.361  23.489  11.588
32719W        W 5034  20.164   8.419  13.565
32720W        W 5035  30.619  39.099   1.301
32721W        W 5036   5.975  43.824   4.086
32722W        W 5037  19.704   4.387   0.245
32723W        W 5038  16.761  39.103  13.400
32724W        W 5039  44.997   6.259  11.220
32725W        W 5040   0.005  16.480   2.339
32726W        W 5041  36.666  20.254   1.442
32727W        W 5042  20.663  25.001   4.511
32728W        W 5043  30.973  31.084   2.441
32729W        W 5044   2.224   0.414   0.560
32730W        W 5045   9.818   0.224   1.406
32731W        W 5046  38.846  10.842  11.144
32732W        W 5047   9.753  31.204  14.330
32733W        W 5048  37.887  39.555   1.902
32734W        W 5049  40.579  28.044   1.823
32735W        W 5050  34.001   2.079   1.933
32736W        W 5051  36.907   0.925   3.441
32737W        W 5052  33.500  25.656   4.193
32738W        W 5053  13.205   5.919  13.511
32739W        W 5054  22.949  40.539   4.676
32740W        W 5055  38.886  12.355  12.892
32741W        W 5056  44.780   0.355   4.070
32742W        W 5057  42.311  44.374   4.671
32743W        W 5058  43.452  16.399   1.172
32744W        W 5059  42.506  15.180  11.746
32745W        W 5060   9.963   5.853  11.607
32746W        W 5061  44.419  39.565  13.982
32747W        W 5062  44.916  39.458  13.986
32748W        W 5063  10.582  35.877   3.371
32749W        W 5064  36.584  18.288  10.642
32750W        W 5065   3.240  31.715   4.954
32751W        W 5066  14.843  34.880   4.076
32752W        W 5067  13.690  10.309  10.747
32753W        W 5068  35.107  28.042  13.805
32754W        W 5069  19.569  26.071   0.517
32755W        W 5070  26.180   1.006   1.453
32756W        W 5071  26.660  18.968  12.573
32757W        W 5072  18.580  32.138  10.718
32758W        W 5073  16.246   3.424  14.807
32759W        W 5074  41.480  12.769  10.809
32760W        W 5075  44.680  34.535   3.228
32761W        W 5076  26.102  31.256   1.282
32762W        W 5077  26.708  12.687   1.099
32763W        W 5078  32.577  13.186  10.703
32764W        W 5079  25.076  42.345   4.235
32765W        W 5080   4.333  38.205   3.099
32766W        W 5081   4.291  14.570   4.370
32767W        W 5082  42.028  31.039   1.871
32768W        W 5083  21.279  39.098  13.879
32769W        W 5084   1.877   1.667  13.366
32770W        W 5085  30.143   9.654   2.149
32771W        W 5086  40.645  26.044   5.073
32772W        W 5087  26.456  34.853  10.552
32773W        W 5088  19.364  42.515   2.203
32774W        W 5089   3.303   0.124  10.919
32775W        W 5090  20.076  29.977  11.231
32776W        W 5091  33.505  28.230   4.279
32777W        W 5092  40.474  39.480  12.920
32778W        W 5093   2.184  30.995  13.504
32779W        W 5094  12.793  43.369  11.544
32780W        W 5095  28.692  15.147   4.083
32781W        W 5096  11.135  18.038   3.664
32782W        W 5097  28.405  44.028   3.777
32783W        W 5098   0.914  40.413  14.918
32784W        W 5099   9.349  40.320   1.861
32785W        W 5100   8.319  29.697   4.106
32786W        W 5101  40.837  28.738  14.959
32787W        W 5102  23.566  20.983  11.607
32788W        W 5103  38.955  23.206   0.846
32789W        W 5104  15.191  39.041   2.112
32790W        W 5105   1.036   6.885  11.550
32791W        W 5106  23.792  18.126   2.635
32792W        W 5107  33.674  36.196  11.228
32793W        W 5108   2.345  37.699   1.922
32794W        W 5109  15.070  39.903  13.570
32795W        W 5110  29.868  11.642   3.711
32796W        W 5111  23.136   5.502   3.413
32797W        W 5112  17.028  10.200  11.619
32798W        W 5113  22.845  27.485  11.358
32799W        W 5114  27.754  35.954  12.589
32800W        W 5115  25.036  44.443  13.487
32801W        W 5116  17.441  36.003   0.294
32802W        W 5117  29.378  19.558   2.340
32803W        W 5118   8.873   5.304  13.379
32804W        W 5119  28.643  21.051   3.776
32805W        W 5120   9.243  24.672   3.585
32806W        W 5121  15.637  21.357  13.982
32807W        W 5122  33.021  37.151  14.336
32808W        W 5123  41.447  20.101   3.759
32809W        W 5124  30.347  17.387  12.111
32810W        W 5125   2.179  41.245  12.662
32811W        W 5126  24.578   5.630  12.343
32812W        W 5127   3.199  40.726  13.365
32813W        W 5128   9.216  11.228  12.900
32814W        W 5129  41.610  17.294   0.841
32815W        W 5130   3.901  11.686   1.275
32816W        W 5131  27.621  13.753  14.268
32817W        W 5132  37.122  12.339   4.785
32818W        W 5133  21.667  32.556  12.644
32819W        W 5134  16.560   4.219  12.592
32820W        W 5135  13.340  27.720   2.253
32821W        W 5136  26.524  22.060   2.953
32822W        W 5137   5.105   6.752  11.985
32823W        W 5138  13.473  18.060   4.207
32824W        W 5139  23.171  19.778   2.874
32825W        W 5140  24.517  29.048   4.115
32826W        W 5141   2.116  12.702   4.096
32827W        W 5142  28.678   7.196  12.014
32828W        W 5143   3.325   4.639   3.733
32829W        W 5144  25.999  23.149   3.661
32830W        W 5145  32.636  29.658  11.131
32831W        W 5146   7.002  11.540  14.812
32832W        W 5147   2.547  32.157  14.481
32833W        W 5148   7.354  11.713  10.596
32834W        W 5149   8.877  26.378   4.607
32835W        W 5150  34.784  36.035   4.612
32836W        W 5151  43.506  21.198  10.753
32837W        W 5152  12.818  37.957  11.108
32838W        W 5153  36.400  40.844   4.796
32839W        W 5154  36.328  13.407   3.767
32840W        W 5155  19.264  25.518   1.212
32841W        W 5156  28.270   3.431   0.380
32842W        W 5157  30.820  21.542  12.962
32843W        W 5158  40.478  37.816  11.600
32844W        W 5159  16.838   4.260  11.657
32845W        W 5160  43.150  11.737   3.631
32846W        W 5161  39.066   5.906   0.019
32847W        W 5162  23.450  30.576   0.652
32848W        W 5163  12.143  44.080   3.381
32849W        W 5164  39.307  41.348  11.701
32850W        W 5165   2.995  42.015  13.364
32851W        W 5166   0.252  29.664  10.999
32852W        W 5167  43.764   5.489   0.248
32853W        W 5168  25.980   6.221   9.724
32854W        W 5169  32.385   4.207  12.008
32855W        W 5170  20.362  28.024   0.755
32856W        W 5171  19.086   6.262  14.872
32857W        W 5172  29.935  17.137   4.508
32858W        W 5173  15.133  30.194  13.151
32859W        W 5174   8.064   4.026   0.931
32860W        W 5175   3.661  40.146   3.692
32861W        W 5176  28.520  14.024   0.727
32862W        W 5177  32.736  35.677   3.541
32863W        W 5178   4.988  31.539   4.283
32864W        W 5179  27.916   5.295   0.361
32865W        W 5180   7.735  34.533   1.820
32866W        W 5181  35.097  30.973  12.411
32867W        W 5182   5.644   8.357  11.799
32868W        W 5183  43.244  27.951  11.705
32869W        W 5184  43.421   4.653  13.965
32870W        W 5185  41.560  18.012   2.470
32871W        W 5186   9.656   3.598   4.982
32872W        W 5187  39.565  44.393  11.931
32873W        W 5188  20.277  17.647  12.838
32874W        W 5189  23.894  30.151   2.839
32875W        W 5190   5.827   7.839  11.443
32876W        W 5191  39.953  33.528  14.717
32877W        W 5192   9.106  23.604   4.141
32878W        W 5193  29.610  40.314   0.308
32879W        W 5194  40.337  27.771   2.693
32880W        W 5195   9.689  19.090  12.146
32881W        W 5196   7.192  19.100  13.451
32882W        W 5197  19.584  14.775  11.519
32883W        W 5198  16.641   2.528   0.850
32884W        W 5199  44.558  28.032  11.618
32885W        W 5200  36.132  42.076  12.402
32886W        W 5201  11.303  17.208  14.036
32887W        W 5202  19.997   9.803   1.748
32888W        W 5203  19.085   1.698  14.267
32889W        W 5204   5.329  25.658  11.986
32890W        W 5205  42.080  21.251   3.167
32891W        W 5206  10.634   9.468  11.475
32892W        W 5207  23.340   0.397  13.908
32893W        W 5208  23.101  19.504  12.253
32894W        W 5209  35.163  39.390  11.853
32895W        W 5210  22.416  27.019   3.604
32896W        W 5211   6.166   4.260   1.814
32897W        W 5212   0.673   1.816   2.929
32898W        W 5213  11.829   3.177  11.042
32899W        W 5214   3.845  24.257  11.890
32900W        W 5215  34.020   1.559   0.282
32901W        W 5216   7.912  38.749   2.608
32902W        W 5217  11.566  32.887   1.304
32903W        W 5218  18.478  12.553  12.575
32904W        W 5219  25.015  23.993  14.915
32905W        W 5220   9.280  30.522   3.187
32906W        W 5221  42.300   8.733   4.297
32907W        W 5222   8.265  31.832  11.097
32908W        W 5223  22.645   7.155  11.248
32909W        W 5224   9.418  44.091  10.729
32910W        W 5225  15.731  24.273   2.462
32911W        W 5226  32.054   0.836   4.609
32912W        W 5227  10.249  12.962  14.553
32913W        W 5228  12.641  24.931   0.919
32914W        W 5229  14.575  13.190  12.350
32915W        W 5230  21.330  31.063   3.290
32916W        W 5231  37.183  42.560  11.902
32917W        W 5232  24.605  22.041   3.170
32918W        W 5233  42.470   6.713   4.635
32919W        W 5234  35.044   7.147  11.962
32920W        W 5235  13.210  24.193  11.988
32921W        W 5236   3.606  12.607  10.661
32922W        W 5237  16.570  15.280  12.319
32923W        W 5238  43.012  14.248  12.912
32924W        W 5239  17.896   0.724  13.532
32925W        W 5240  15.640  17.879   0.282
32926W        W 5241  37.846   2.817  14.599
32927W        W 5242  37.346  22.453   2.170
32928W        W 5243  36.306  17.930  11.913
32929W        W 5244  12.251   2.186   1.430
32930W        W 5245   8.291  31.063   1.923
32931W        W 5246  32.191  21.384   1.172
32932W        W 5247  29.728  28.440  14.984
32933W        W 5248  13.634  12.130   0.226
32934W        W 5249  15.265  13.398  14.026
32935W        W 5250  20.512   3.944   3.045
32936W        W 5251  42.184  26.024  13.398
32937W        W 5252  41.080  10.120   4.144
32938W        W 5253  33.045  23.566   4.535
32939W        W 5254  31.502  15.820   0.409
32940W        W 5255  26.025   9.847   3.127
32941W        W 5256  41.401  28.393  13.597
32942W        W 5257  31.443  32.718  11.338
32943W        W 5258  27.252   0.888  13.688
32944W        W 5259  33.496  23.256   3.257
32945W        W 5260  10.620  14.831  11.955
32946W        W 5261  20.994  28.511  12.802
32947W        W 5262   9.870  17.017   0.886
32948W        W 5263   2.286  13.351   0.712
32949W        W 5264  10.207  18.153  12.441
32950W        W 5265  34.052   0.218   1.989
32951W        W 5266  23.548   0.445  12.318
32952W        W 5267  13.073   9.127  12.962
32953W        W 5268   3.979  29.808  11.729
32954W        W 5269   1.562   6.792  11.518
32955W        W 5270  40.248  11.203   3.722
32956W        W 5271  26.707  38.912   1.943
32957W        W 5272  16.300  24.042  10.548
32958W        W 5273  32.107  42.502   4.037
32959W        W 5274  17.681  21.223   4.063
32960W        W 5275  20.054  10.399  12.571
32961W        W 5276  36.115  11.761   2.322
32962W        W 5277   5.456  41.315   2.427
32963W        W 5278  27.590  10.467   3.321
32964W        W 5279  21.573   3.654  11.629
32965W        W 5280  21.197  25.207  13.125
32966W        W 5281  38.005  14.731   0.290
32967W        W 5282  36.775  17.806  14.311
32968W        W 5283   2.459  23.480   0.984
32969W        W 5284  25.195  10.046   3.378
32970W        W 5285  11.790  16.078  12.166
32971W        W 5286   2.571  27.125  13.084
32972W        W 5287  29.022  10.072   3.048
32973W        W 5288  11.258  20.142   2.762
32974W        W 5289  22.658   6.369  13.940
32975W        W 5290  34.415  31.386   1.361
32976W        W 5291  20.780  27.101  11.164
32977W        W 5292  34.516  14.310   5.022
32978W        W 5293  27.606  14.868  14.296
32979W        W 5294  22.986  12.279   3.655
32980W        W 5295  10.926  36.518   0.481
32981W        W 5296  44.988  23.289   3.224
32982W        W 5297  33.606  14.745  13.168
32983W        W 5298  18.481  28.899   3.769
32984W        W 5299   6.099  16.502  11.157
32985W        W 5300  44.844  13.925   1.864
32986W        W 5301  34.095  24.422   4.618
32987W        W 5302  21.987  18.769  12.261
32988W        W 5303   9.510  26.925  14.906
32989W        W 5304  34.937  21.314  14.921
32990W        W 5305  21.391  15.622  10.383
32991W        W 5306  25.258  31.856  13.455
32992W        W 5307  22.984  23.628   0.586
32993W        W 5308  33.578   6.925   2.797
32994W        W 5309  20.766  40.398  11.425
32995W        W 5310  15.591  22.095   3.503
32996W        W 5311  27.520  38.430  10.640
32997W        W 5312   0.396   2.079   3.308
32998W        W 5313  23.081  21.237   0.840
32999W        W 5314  24.559  13.823  14.528
33000W        W 5315   2.005  14.297   1.744
33001W        W 5316   8.418  18.667   3.237
33002W        W 5317  39.327  14.793  14.468
33003W        W 5318  18.290  26.623   4.525
33004W        W 5319  41.056   4.866   3.338
33005W        W 5320  33.120  15.190  11.961
33006W        W 5321  12.127  17.990   5.104
33007W        W 5322  10.114  42.151   5.063
33008W        W 5323  18.249  40.008   0.225
33009W        W 5324  13.853  18.278   0.194
33010W        W 5325  17.638  35.136  14.739
33011W        W 5326  25.743  14.691   0.350
33012W        W 5327  13.335   1.917   3.851
33013W        W 5328  27.524  39.646  14.943
33014W        W 5329  10.260  25.664   4.651
33015W        W 5330  21.489  29.851  12.112
33016W        W 5331  31.688   8.340   3.608
33017W        W 5332  42.900  22.982  12.938
33018W        W 5333  25.549   4.691   2.315
33019W        W 5334  23.323  38.637  13.447
33020W        W 5335  41.564  29.188   4.545
33021W        W 5336  14.589  17.256  13.990
33022W        W 5337  20.697   4.630   5.113
33023W        W 5338   2.867  10.910   0.040
33024W        W 5339  16.115  35.845   4.551
33025W        W 5340  32.208   1.270   4.823
33026W        W 5341   5.248  13.891   5.135
33027W        W 5342  20.622  37.447  11.662
33028W        W 5343  22.674  34.762  13.501
33029W        W 5344  19.533  31.204  10.888
33030W        W 5345  22.330  33.813  12.064
33031W        W 5346  27.124  43.368   0.712
33032W        W 5347  21.115  14.147  10.735
33033W        W 5348   1.812  35.545  11.240
33034W        W 5349   4.795  22.235  13.571
33035W        W 5350  19.756  44.990  11.595
33036W        W 5351  20.329  19.414  12.411
33037W        W 5352  35.162  36.382  12.977
33038W        W 5353  25.004   8.915  10.736
33039W        W 5354   3.239  18.788  12.043
33040W        W 5355  10.494  36.147  14.650
33041W        W 5356   7.508  34.582  11.321
33042W        W 5357  32.449  39.000  13.950
33043W        W 5358  27.135  10.121   4.531
33044W        W 5359  36.095   7.098  14.331
33045W        W 5360  27.026  29.382  11.059
33046W        W 5361  14.810  13.324   3.685
33047W        W 5362  41.765  25.024  10.346
33048W        W 5363   1.491  17.180  14.541
33049W        W 5364   7.403  16.219  12.029
33050W        W 5365  41.593  44.336   4.479
33051W        W 5366  43.007  32.103  13.740
33052W        W 5367  17.630   1.417   3.113
33053W        W 5368  33.645  20.159  14.198
33054W        W 5369  38.206  20.357   1.367
33055W        W 5370  36.875  36.813  11.544
33056W        W 5371   7.963  12.552  11.475
33057W        W 5372  36.071  33.636   4.556
33058W        W 5373   5.414  10.487  13.355
33059W        W 5374  25.367  29.490   4.029
33060W        W 5375  16.025  21.120  12.833
33061W        W 5376   2.065  17.116  12.041
33062W        W 5377  28.015   2.794   3.915
33063W        W 5378  27.377  23.086  13.832
33064W        W 5379  44.830  41.393   3.219
33065W        W 5380  34.381  23.624  13.978
33066W        W 5381  31.364  12.017  13.340
33067W        W 5382  24.248   2.925   0.740
33068W        W 5383  43.380   8.615   1.142
33069W        W 5384   2.286  35.038   3.236
33070W        W 5385  40.540  13.428   2.333
33071W        W 5386  28.907  27.233  12.556
33072W        W 5387   4.816  35.163  11.542
33073W        W 5388  44.226   1.899  14.697
33074W        W 5389  18.962  28.213   3.293
33075W        W 5390  40.154  37.799   2.703
33076W        W 5391  36.298  41.957   2.867
33077W        W 5392  34.297   9.304  12.031
33078W        W 5393  23.736   3.271  10.832
33079W        W 5394   1.835  14.668   4.811
33080W        W 5395  18.685   5.007  13.999
33081W        W 5396  28.984  25.072   4.194
33082W        W 5397  37.013  12.592   3.282
33083W        W 5398   1.773  15.039  14.965
33084W        W 5399   3.444  37.203  14.699
33085W        W 5400  13.714  43.063   5.005
33086W        W 5401  11.094  31.847  10.812
33087W        W 5402  30.170   7.039  11.835
33088W        W 5403  20.048  12.047   0.766
33089W        W 5404  26.114  42.752  12.585
33090W        W 5405  43.856   5.502  14.319
33091W        W 5406  34.619  17.108  10.838
33092W        W 5407   3.797  28.003   0.972
33093W        W 5408  38.704  37.273  11.594
33094W        W 5409  34.934   2.258   3.450
33095W        W 5410  16.972  12.651  13.590
33096W        W 5411  24.765   9.602  14.440
33097W        W 5412  34.072  28.018   4.592
33098W        W 5413  17.605  11.246   3.684
33099W        W 5414  14.005  17.012   1.724
33100W        W 5415  28.891  33.515  13.789
33101W        W 5416  29.705   8.223   1.690
33102W        W 5417  11.221  26.515  10.849
33103W        W 5418  41.706  42.793  12.114
33104W        W 5419  42.020  12.856   4.120
33105W        W 5420  22.286  44.959   0.962
33106W        W 5421  42.177  40.101  12.486
33107W        W 5422  34.535   0.240   0.812
33108W        W 5423  24.623  23.756  11.508
33109W        W 5424  15.563  34.139  11.135
33110W        W 5425   9.916  23.816   0.733
33111W        W 5426  23.482  24.677   0.392
33112W        W 5427  15.270  26.951  14.122
33113W        W 5428  19.937  11.762   3.693
33114W        W 5429  20.817  20.833  11.048
33115W        W 5430  42.335  25.097  14.991
33116W        W 5431  30.067  33.783   1.338
33117W        W 5432  11.339  24.480   1.302
33118W        W 5433  29.984  10.296  14.932
33119W        W 5434  32.565  40.902   3.401
33120W        W 5435   9.168  41.571   4.476
33121W        W 5436  37.932  38.141  12.640
33122W        W 5437  25.146   0.255  12.113
33123W        W 5438  16.325  36.439   3.401
33124W        W 5439  30.867  44.082   9.950
33125W        W 5440  43.533   8.861  14.063
33126W        W 5441   7.389   9.253   0.734
33127W        W 5442  22.472  15.187   2.068
33128W        W 5443  43.296  29.704   1.152
33129W        W 5444  27.742   6.204   4.725
33130W        W 5445  35.731  31.652   2.613
33131W        W 5446  25.170  40.636   1.518
33132W        W 5447   9.021  40.068   1.086
33133W        W 5448   9.160  25.892   1.943
33134W        W 5449   2.561  43.541   4.792
33135W        W 5450   3.163   2.680  12.078
33136W        W 5451  25.548  27.761   4.910
33137W        W 5452  31.863   7.377   4.606
33138W        W 5453  15.936   6.362  12.853
33139W        W 5454  25.054  44.238  11.048
33140W        W 5455  13.312  43.883  13.146
33141W        W 5456  23.059  30.171   4.275
33142W        W 5457  18.136  23.220  11.118
33143W        W 5458  36.104  43.811  12.579
33144W        W 5459  30.568   7.640  14.091
33145W        W 5460  37.326  14.370  14.039
33146W        W 5461   6.493  23.358   0.301
33147W        W 5462  13.297   7.624   0.456
33148W        W 5463  30.939  35.935   3.372
33149W        W 5464   2.829  35.981   0.905
33150W        W 5465  30.868   6.793  13.481
33151W        W 5466  24.032  26.107   1.813
33152W        W 5467  18.364  31.099  12.688
33153W        W 5468  29.767  27.651   0.425
33154W        W 5469   3.810  25.997   4.022
33155W        W 5470   0.953  23.111  13.908
33156W        W 5471  42.916  44.383  14.132
33157W        W 5472   2.401  25.002  11.141
33158W        W 5473   6.074  44.753  11.047
33159W        W 5474  28.980  19.222  11.432
33160W        W 5475   0.083   5.107   4.368
33161W        W 5476  10.181   7.767  13.920
33162W        W 5477  39.376  18.517   1.764
33163W        W 5478  13.324  42.849  12.203
33164W        W 5479  34.014  24.771  10.914
33165W        W 5480  11.468  30.899  13.309
33166W        W 5481  41.544  35.962   1.933
33167W        W 5482  44.447  34.154  14.453
33168W        W 5483  16.670  28.543   2.729
33169W        W 5484  31.022  14.789   4.681
33170W        W 5485  19.174  30.101   0.093
33171W        W 5486  39.784  34.637   1.815
33172W        W 5487  30.985   1.225   1.435
33173W        W 5488  36.980  12.251  13.488
33174W        W 5489  19.646   9.318  11.907
33175W        W 5490  43.243  40.141   2.141
33176W        W 5491  13.974  18.293   4.259
33177W        W 5492  27.462   0.983  11.903
33178W        W 5493  24.208   4.736   1.847
33179W        W 5494  25.506  24.026  13.471
33180W        W 5495  23.417  23.724   0.919
33181W        W 5496  13.662  24.003  11.662
33182W        W 5497  16.535  17.761  13.490
33183W        W 5498  42.555  29.656  10.741
33184W        W 5499   5.840  31.453   1.496
33185W        W 5500  27.321   7.363  14.851
33186W        W 5501   4.838  30.440  10.421
33187W        W 5502   4.707  41.423  10.767
33188W        W 5503  15.013  27.080   0.466
33189W        W 5504  29.684  40.974  10.517
33190W        W 5505  28.480   4.272  13.899
33191W        W 5506  32.907  41.829   2.790
33192W        W 5507  14.716  44.489  11.535
33193W        W 5508  30.405  21.665   0.933
33194W        W 5509  20.369  35.392   2.722
33195W        W 5510  44.200   3.329  12.388
33196W        W 5511  27.556  26.689   2.667
33197W        W 5512  26.206  29.397   0.466
33198W        W 5513  16.309  28.197   0.614
33199W        W 5514   8.074  32.356  13.785
33200W        W 5515  29.690   1.447   2.760
33201W        W 5516  31.642  19.245  11.522
33202W        W 5517   8.937   8.582   1.808
33203W        W 5518  25.298   6.546  10.111
33204W        W 5519  15.535  19.373  14.059
33205W        W 5520  24.237   5.184  14.185
33206W        W 5521  35.389   3.244  10.745
33207W        W 5522  28.196  37.537  14.705
33208W        W 5523  20.021  39.260   0.783
33209W        W 5524  24.227  16.249  12.030
33210W        W 5525  37.456  42.458   1.738
33211W        W 5526  17.391  25.054  10.878
33212W        W 5527  25.894  37.444  12.565
33213W        W 5528   6.552   1.763   9.739
33214W        W 5529  40.472  39.407   1.449
33215W        W 5530  28.113  22.047   0.989
33216W        W 5531  40.616  28.868   0.457
33217W        W 5532  41.727  13.361  10.814
33218W        W 5533  22.102  37.548   3.155
33219W        W 5534  38.344   2.721   0.689
33220W        W 5535  38.366   4.525   1.846
33221W        W 5536   7.568   4.436   0.075
33222W        W 5537  21.683  35.137  13.176
33223W        W 5538  18.220  27.265   1.887
33224W        W 5539  43.843  35.622   3.778
33225W        W 5540  21.038  31.924  14.412
33226W        W 5541   7.860  34.816   4.124
33227W        W 5542  13.159   4.659  13.837
33228W        W 5543   1.910  27.266  11.201
33229W        W 5544  29.869  14.231  10.707
33230W        W 5545  30.407  35.463   2.801
33231W        W 5546  25.140  37.639   0.707
33232W        W 5547   9.777  23.551  12.358
33233W        W 5548  25.039  41.445  14.974
33234W        W 5549   2.286   0.458   4.614
33235W        W 5550  34.408  39.816   2.359
33236W        W 5551  26.300   9.563   4.732
33237W        W 5552  38.001  27.692   2.796
33238W        W 5553   6.166  25.436   4.939
33239W        W 5554  32.718  23.396   2.810
33240W        W 5555   0.285  24.675   2.214
33241W        W 5556  28.567  37.343   2.439
33242W        W 5557  43.811  24.590  12.139
33243W        W 5558  26.489   2.858   5.002
33244W        W 5559  30.690   7.428   2.742
33245W        W 5560  21.249  11.294   4.317
33246W        W 5561  36.421  37.878   0.994
33247W        W 5562  44.525  41.872  11.642
33248W        W 5563  40.720   3.465   0.511
33249W        W 5564  22.974   1.370  11.550
33250W        W 5565  37.040   4.749   1.759
33251W        W 5566  15.430  18.340   0.398
33252W        W 5567  18.795  14.921  13.991
33253W        W 5568  30.573  28.092   0.916
33254W        W 5569  24.332  43.745   4.088
33255W        W 5570  11.630  29.457   2.267
33256W        W 5571  34.022  33.876  14.914
33257W        W 5572  32.634  24.204  12.659
33258W        W 5573  43.193  42.397  14.519
33259W        W 5574  22.599  31.808  12.580
33260W        W 5575   2.740  16.049  13.772
33261W        W 5576   8.388  18.125  12.850
33262W        W 5577   3.545  23.995  13.164
33263W        W 5578   1.602  41.762  11.751
33264W        W 5579  44.377   1.380   3.384
33265W        W 5580   1.304  21.113   4.331
33266W        W 5581  34.628  16.678  10.577
33267W        W 5582  24.020   1.536   5.097
33268W        W 5583  22.958  25.178  12.559
33269W        W 5584  33.908  19.376  10.730
33270W        W 5585  21.302   4.203   1.720
33271W        W 5586   3.697  35.316   3.190
33272W        W 5587  25.769   2.064  12.540
33273W        W 5588  20.525  13.282  10.786
33274W        W 5589  17.205  44.718   3.482
33275W        W 5590  38.279  44.235  10.761
33276W        W 5591   4.227   4.176   2.703
33277W        W 5592   1.687   7.727   0.407
33278W        W 5593  14.788  33.127  10.298
33279W        W 5594  37.940  34.494   0.195
33280W        W 5595   7.960  11.421   0.678
33281W        W 5596   6.822  19.368   0.352
33282W        W 5597  27.458   7.725   3.676
33283W        W 5598  11.148  37.956  11.749
33284W        W 5599   3.913  43.417  10.563
33285W        W 5600  32.890   8.951   4.211
33286W        W 5601  14.713  15.476   3.637
33287W        W 5602  27.402  25.578  14.441
33288W        W 5603  29.599   9.145  11.899
33289W        W 5604   3.046  36.466   0.712
33290W        W 5605  20.935  29.211   1.460
33291W        W 5606   9.478   1.752   4.575
33292W        W 5607   6.350  16.483   3.326
33293W        W 5608  12.873  42.535   4.261
33294W        W 5609   5.035  27.683  10.963
33295W        W 5610  14.235  22.123  14.460
33296W        W 5611  25.157  41.318   3.664
33297W        W 5612  32.359  36.053  12.925
33298W        W 5613  23.170  19.997  11.113
33299W        W 5614  22.596  19.654   9.961
33300W        W 5615  39.544  29.217   3.780
33301W        W 5616  43.815   5.020   0.503
33302W        W 5617  36.367  26.060  11.852
33303W        W 5618  17.829  28.493   1.907
33304W        W 5619  10.825  18.178  11.071
33305W        W 5620  36.788  26.016  13.288
33306W        W 5621  25.653  13.000   2.753
33307W        W 5622  40.516  36.295  14.987
33308W        W 5623  44.541  23.084   3.560
33309W        W 5624  32.742  10.203   0.199
33310W        W 5625  35.629  40.962  11.562
33311W        W 5626  33.516  33.533  11.513
33312W        W 5627  39.431  28.697   3.850
33313W        W 5628  32.183  29.935  14.740
33314W        W 5629   6.137  16.356   4.527
33315W        W 5630  13.170  40.734  10.823
33316W        W 5631  15.276  41.653   0.411
33317W        W 5632  24.895   3.725   2.809
33318W        W 5633  10.926  40.950   0.958
33319W        W 5634  43.282  10.165  12.599
33320W        W 5635   8.192  14.503  14.999
33321W        W 5636  36.819  21.211   4.175
33322W        W 5637   6.701  27.490  14.850
33323W        W 5638  32.859  14.783  14.482
33324W        W 5639  39.670  30.020   2.225
33325W        W 5640  29.760  36.308  11.104
33326W        W 5641  42.409  17.448   0.476
33327W        W 5642  34.557   1.720   3.308
33328W        W 5643   2.576  30.356   4.721
33329W        W 5644  16.857  43.847   2.985
33330W        W 5645  14.596   7.414  11.604
33331W        W 5646  17.974  34.353  13.738
33332W        W 5647  25.679  11.835   0.341
33333W        W 5648  30.615  10.811   2.104
33334W        W 5649  18.311  16.633   1.245
33335W        W 5650  38.310  37.251   4.804
33336W        W 5651  37.506   6.721   2.827
33337W        W 5652  36.865  22.661   1.414
33338W        W 5653  44.491  23.937   3.572
33339W        W 5654  39.411  10.230  11.362
33340W        W 5655  14.218  22.352  14.955
33341W        W 5656  29.605  40.033  14.849
33342W        W 5657   4.778   1.914   2.915
33343W        W 5658   5.224  35.944  12.116
33344W        W 5659   1.503  37.429   2.633
33345W        W 5660  44.018  38.598  14.065
33346W        W 5661   5.854   8.718  14.924
33347W        W 5662  36.387  19.806   1.221
33348W        W 5663  26.587   1.687   3.654
33349W        W 5664  31.408   6.701   0.830
33350W        W 5665  38.261  31.443   3.498
33351W        W 5666  11.213  17.001  11.725
33352W        W 5667   6.808  24.709  14.297
33353W        W 5668   7.103  42.310   0.326
33354W        W 5669  30.983  18.567   0.745
33355W        W 5670  30.964  40.323  10.623
33356W        W 5671   9.180   4.859   1.441
33357W        W 5672  41.576  10.333   5.042
33358W        W 5673  33.891  22.548  11.437
33359W        W 5674  38.631   2.313   0.911
33360W        W 5675  14.679  18.540   1.850
33361W        W 5676  40.942  37.889   2.439
33362W        W 5677   9.618   3.488  13.623
33363W        W 5678  25.554  33.784  14.060
33364W        W 5679  11.687  23.372   3.212
33365W        W 5680  41.430  23.527   2.423
33366W        W 5681  14.345   5.290   1.785
33367W        W 5682  16.073  34.587  14.346
33368W        W 5683  13.083  43.917   0.885
33369W        W 5684   8.343   9.411  13.970
33370W        W 5685  44.480  20.195   2.746
33371W        W 5686  43.970  27.751  11.116
33372W        W 5687  26.958  20.101  11.440
33373W        W 5688  10.954   5.679   2.727
33374W        W 5689   2.381  25.584   1.064
33375W        W 5690  19.539  37.027  12.499
33376W        W 5691  10.565  33.756  13.856
33377W        W 5692  14.073  27.222  10.409
33378W        W 5693  31.670  25.756  11.003
33379W        W 5694  14.761   6.315   1.661
33380W        W 5695   2.237  41.695  13.945
33381W        W 5696  14.126  29.651  11.094
33382W        W 5697  43.975   8.690  11.089
33383W        W 5698  19.271  40.513   3.134
33384W        W 5699  15.328  33.187   2.877
33385W        W 5700  44.849  29.451   0.857
33386W        W 5701   2.556   1.018  13.990
33387W        W 5702  10.748  14.666   3.895
33388W        W 5703  32.442   8.234  14.982
33389W        W 5704  14.178   6.413  13.288
33390W        W 5705  42.167   6.158   3.774
33391W        W 5706   2.142  33.097  12.297
33392W        W 5707   8.891  29.794   1.787
33393W        W 5708  28.947  40.974  14.274
33394W        W 5709  13.739  19.603  12.597
33395W        W 5710  26.590  23.922  11.698
33396W        W 5711  34.476  32.689   1.700
33397W        W 5712  32.689  22.512   4.609
33398W        W 5713   3.315  21.566  11.460
33399W        W 5714  30.929  42.547   4.962
33400W        W 5715  20.219  43.758   2.382
33401W        W 5716  14.526  13.063   2.295
33402W        W 5717  28.772  12.669   0.960
33403W        W 5718  15.725  34.237  12.063
33404W        W 5719  44.108  16.123  14.839
33405W        W 5720  24.896  29.244  11.182
33406W        W 5721   4.688  28.976   3.293
33407W        W 5722  27.683  11.851   2.239
33408W        W 5723  17.180  30.901  14.120
33409W        W 5724  27.492  28.511   4.724
33410W        W 5725  35.867  38.585  11.636
33411W        W 5726  36.452  42.330   1.762
33412W        W 5727  12.236  36.792  12.011
33413W        W 5728  38.969  34.115  13.911
33414W        W 5729  20.486   3.851  12.059
33415W        W 5730  24.959   0.404   0.726
33416W        W 5731  35.657  30.491  11.461
33417W        W 5732   1.587   3.963   0.191
33418W        W 5733   1.200  15.793   0.308
33419W        W 5734  38.039  24.202   1.435
33420W        W 5735  30.373   4.813  14.406
33421W        W 5736  10.769  26.776   3.219
33422W        W 5737  44.397  14.853   0.877
33423W        W 5738  28.131  20.531   0.277
33424W        W 5739  38.000  26.213   2.688
33425W        W 5740   3.855  38.032   3.596
33426W        W 5741  14.510  41.853   4.617
33427W        W 5742  12.510   0.349  14.232
33428W        W 5743  42.970  32.978  12.834
33429W        W 5744  33.593   1.490   0.919
33430W        W 5745  38.356  11.716   1.481
33431W        W 5746  13.424  26.733  12.470
33432W        W 5747  41.762  44.253  10.607
33433W        W 5748  34.343  40.945   3.766
33434W        W 5749  22.513  42.858  12.719
33435W        W 5750  28.586  13.577  14.736
33436W        W 5751  32.137  26.670   1.809
33437W        W 5752  28.137  36.835   0.452
33438W        W 5753  21.779  21.742  14.828
33439W        W 5754   5.201  28.226  13.029
33440W        W 5755  31.995  21.187  13.428
33441W        W 5756   6.241  34.512   2.734
33442W        W 5757  15.875  10.291   4.503
33443W        W 5758   8.829  42.018   2.185
33444W        W 5759  14.955   8.512   0.752
33445W        W 5760  38.119  44.336   4.579
33446W        W 5761  35.580  16.280  14.831
33447W        W 5762  10.299  15.943  13.346
33448W        W 5763  17.274  16.296  11.047
33449W        W 5764  11.286  27.912   2.835
33450W        W 5765  42.305  20.559  11.702
33451W        W 5766   3.820  27.664   2.905
33452W        W 5767   1.954  44.310  12.661
33453W        W 5768   2.500  28.811   4.216
33454W        W 5769  13.154  40.424  12.042
33455W        W 5770   3.926  38.447   2.869
33456W        W 5771  12.262  30.572  12.463
33457W        W 5772   9.568  19.545   2.856
33458W        W 5773  24.324  32.793   1.479
33459W        W 5774  28.004   2.337   1.842
33460W        W 5775   1.245  17.419   3.619
33461W        W 5776   7.197  23.618   0.693
33462W        W 5777  33.415   7.269   3.692
33463W        W 5778  33.860  22.957   4.049
33464W        W 5779  38.405   7.444   4.307
33465W        W 5780  25.639   4.995   4.947
33466W        W 5781  41.441  31.455  13.441
33467W        W 5782  30.993  44.001   4.888
33468W        W 5783  30.086  22.040   1.518
33469W        W 5784  10.821  10.913  13.801
33470W        W 5785  22.530   8.588  11.147
33471W        W 5786  42.855   1.811   4.197
33472W        W 5787  36.605  44.300   4.935
33473W        W 5788   7.465  12.686  11.516
33474W        W 5789  27.064   3.801  12.027
33475W        W 5790  10.612  24.734   3.648
33476W        W 5791  27.079  30.121  14.595
33477W        W 5792  38.842  37.630  11.208
33478W        W 5793  20.708  39.886  12.882
33479W        W 5794  28.641   4.463   9.815
33480W        W 5795  32.933  29.832  13.982
33481W        W 5796  13.324  30.458  13.518
33482W        W 5797   6.601  10.641   0.847
33483W        W 5798  31.678  39.484  12.046
33484W        W 5799  39.364  22.329   4.176
33485W        W 5800  29.485  13.730  12.491
33486W        W 5801  20.739  11.389  10.317
33487W        W 5802  28.744  13.009   0.315
33488W        W 5803  36.522   6.243  10.668
33489W        W 5804  24.257   3.521   0.304
33490W        W 5805  33.114  43.272   4.381
33491W        W 5806   3.432  40.929   3.896
33492W        W 5807  22.300  30.846   0.730
33493W        W 5808  41.469   0.319   2.730
33494W        W 5809  22.024  31.856  11.373
33495W        W 5810  28.200  20.868   4.624
33496W        W 5811  14.134   4.203   3.776
33497W        W 5812  41.982  33.843   0.886
33498W        W 5813  38.969  21.243   4.973
33499W        W 5814  18.981  31.788   4.220
33500W        W 5815  17.366  37.054   0.406
33501W        W 5816  35.086   1.431  13.468
33502W        W 5817  12.605  18.126   4.918
33503W        W 5818   0.979   4.957  12.991
33504W        W 5819  10.718  24.637   1.974
33505W        W 5820  33.550  38.096   1.850
33506W        W 5821  22.514  23.710   0.344
33507W        W 5822  33.040  42.320   4.397
33508W        W 5823  32.937   4.746  10.574
33509W        W 5824   3.928  33.644  11.555
33510W        W 5825  30.554  26.898  11.873
33511W        W 5826   9.855  31.988  10.713
33512W        W 5827  15.936   9.707  10.235
33513W        W 5828   4.969  42.819   1.012
33514W        W 5829  14.919  23.578   0.069
33515W        W 5830   4.069  21.543   0.778
33516W        W 5831  35.022  32.973  11.839
33517W        W 5832   7.345  31.174   1.369
33518W        W 5833  31.475  15.587   1.260
33519W        W 5834  14.286  15.024   2.354
33520W        W 5835   2.896  14.385   4.858
33521W        W 5836  11.211  14.749  14.722
33522W        W 5837  30.830  11.003   1.239
33523W        W 5838  29.991  38.882  13.078
33524W        W 5839  11.631  29.602   0.290
33525W        W 5840  40.996   3.329   3.098
33526W        W 5841  21.521  24.575   4.364
33527W        W 5842  23.614  25.985  12.682
33528W        W 5843  10.339   9.151  14.763
33529W        W 5844  26.541  33.635  14.969
33530W        W 5845  41.344   0.916   1.975
33531W        W 5846  33.386  25.878   4.675
33532W        W 5847  41.334  11.578   4.765
33533W        W 5848  23.084  33.512   1.223
33534W        W 5849  35.517  10.296   2.999
33535W        W 5850  30.913  14.215  13.045
33536W        W 5851  37.993   6.344  11.872
33537W        W 5852  36.565  40.212   1.723
33538W        W 5853  41.561  14.222   4.106
33539W        W 5854  12.610  35.102   2.163
33540W        W 5855   7.753  20.037   1.357
33541W        W 5856  34.853  34.589   0.867
33542W        W 5857  38.458   4.538   0.820
33543W        W 5858  19.737   2.373   1.237
33544W        W 5859  30.920   6.492  14.738
33545W        W 5860   6.638   9.223  13.483
33546W        W 5861  19.715   9.807   0.091
33547W        W 5862   2.650   4.829   3.110
33548W        W 5863  17.068  13.695   0.971
33549W        W 5864  22.491  17.118  14.489
33550W        W 5865  24.114   4.831  14.554
33551W        W 5866  20.795  16.741  12.891
33552W        W 5867  25.661   3.981  13.280
33553W        W 5868  20.221  42.815   5.255
33554W        W 5869   8.598   2.034  13.930
33555W        W 5870  31.105  42.244  14.904
33556W        W 5871   6.048  30.640   0.843
33557W        W 5872  33.580  16.235   0.982
33558W        W 5873  12.216   4.168   0.214
33559W        W 5874  22.459   7.792  13.902
33560W        W 5875  20.716  21.525   0.513
33561W        W 5876  24.644   1.699  12.897
33562W        W 5877  38.736  36.456   3.815
33563W        W 5878  37.908  24.820   0.253
33564W        W 5879  42.540  26.122   2.303
33565W        W 5880  33.498  32.413   3.802
33566W        W 5881  37.733  26.643  10.857
33567W        W 5882  19.085  40.471   2.242
33568W        W 5883   5.879   6.673   0.334
33569W        W 5884  32.882  36.100   0.391
33570W        W 5885  11.997  23.724   3.063
33571W        W 5886  17.215   9.315   0.768
33572W        W 5887  33.649  10.516  13.488
33573W        W 5888   8.804  27.112   1.676
33574W        W 5889  36.835  39.090   2.805
33575W        W 5890  20.171   9.361   1.956
33576W        W 5891   5.669  42.198   4.183
33577W        W 5892  13.571   0.545   4.862
33578W        W 5893   4.305   2.439   4.724
33579W        W 5894   1.809  25.147  12.123
33580W        W 5895   9.755  29.108  10.651
33581W        W 5896  10.721  25.220   1.142
33582W        W 5897   6.365  39.005   4.110
33583W        W 5898   2.699  33.960  14.455
33584W        W 5899  14.371   5.875   1.406
33585W        W 5900  12.707   0.381  11.999
33586W        W 5901  42.923  20.940   0.827
33587W        W 5902  21.564  11.405   1.760
33588W        W 5903  26.116   3.553  14.752
33589W        W 5904   2.907   5.391   3.750
33590W        W 5905   0.252  41.356  13.771
33591W        W 5906   1.256  38.596  12.929
33592W        W 5907  31.390  27.470  14.010
33593W        W 5908  26.722  36.791   3.649
33594W        W 5909  27.664  24.593   0.551
33595W        W 5910   6.173  28.676   0.722
33596W        W 5911  17.199  15.997  10.649
33597W        W 5912  32.711  44.946   1.784
33598W        W 5913  36.356  25.596  13.983
33599W        W 5914  12.614  16.594  14.408
33600W        W 5915  34.880   4.803   5.118
33601W        W 5916  39.479   5.717   1.387
33602W        W 5917   5.826  25.224   4.585
33603W        W 5918  37.568  30.999   2.227
33604W        W 5919  16.250   8.530  14.064
33605W        W 5920  20.424  43.059  11.567
33606W        W 5921  37.891  10.841  13.318
33607W        W 5922   5.903  42.719   3.575
33608W        W 5923   6.213  10.781  13.873
33609W        W 5924  18.010  38.491  11.151
33610W        W 5925  30.477  31.155   4.428
33611W        W 5926  37.946   3.035  11.233
33612W        W 5927  28.686  41.479   4.016
33613W        W 5928  38.345  24.486  14.474
33614W        W 5929   9.232   8.172  10.668
33615W        W 5930  42.272  12.529  14.865
33616W        W 5931  44.170  12.662   3.787
33617W        W 5932  15.250  22.505   3.532
33618W        W 5933  26.022   6.018   0.783
33619W        W 5934   8.205   1.448  14.584
33620W        W 5935  18.531   6.668   1.396
33621W        W 5936  20.281  44.991  11.519
33622W        W 5937  44.847  36.286  13.077
33623W        W 5938  36.659  39.508   4.529
33624W        W 5939  24.024  33.668  12.913
33625W        W 5940  10.416  44.786  14.356
33626W        W 5941  38.308   6.757  11.772
33627W        W 5942   1.048  37.632   4.228
33628W        W 5943  30.543  16.035  13.259
33629W        W 5944   6.157  33.478   1.576
33630W        W 5945  26.959  11.849  13.326
33631W        W 5946  41.096   8.717   1.463
33632W        W 5947   1.879  31.721  14.158
33633W        W 5948  19.343  28.237  11.120
33634W        W 5949  14.656  40.986  11.647
33635W        W 5950  35.143   9.687   4.110
33636W        W 5951  33.792  28.531  11.246
33637W        W 5952  25.456  21.930  12.561
33638W        W 5953   6.410   4.333   3.475
33639W        W 5954  41.297  30.722  12.525
33640W        W 5955  19.278  12.602   0.392
33641W        W 5956  37.639   1.913   4.077
33642W        W 5957  29.276  42.317   3.329
33643W        W 5958  23.606   0.981  10.789
33644W        W 5959  27.246  19.334   0.851
33645W        W 5960  19.181  44.507   2.808
33646W        W 5961  41.852  31.123  11.140
33647W        W 5962  25.305   4.894  14.010
33648W        W 5963  27.636  36.928  11.537
33649W        W 5964  33.784   8.501   4.237
33650W        W 5965   7.701  26.218  11.533
33651W        W 5966  15.553  36.374   0.421
33652W        W 5967  19.759  34.325  12.565
33653W        W 5968   5.538  32.872   0.350
33654W        W 5969  22.786  18.915   2.637
33655W        W 5970  38.537   8.463   3.086
33656W        W 5971  15.826  40.994  14.794
33657W        W 5972  10.142  28.153   0.075
33658W        W 5973  34.282  22.512  14.757
33659W        W 5974  25.766  31.704   0.590
33660W        W 5975  40.093  34.176   4.053
33661W        W 5976   8.308  42.036   0.826
33662W        W 5977   0.850  38.080   0.160
33663W        W 5978   4.334  36.377  11.706
33664W        W 5979  22.576  32.456   3.223
33665W        W 5980  18.748  41.002   0.037
33666W        W 5981  19.605  16.882  11.433
33667W        W 5982  14.837  14.189   0.860
33668W        W 5983   1.355  14.608   5.094
33669W        W 5984  41.053  44.138  14.393
33670W        W 5985  32.112   5.347  14.352
33671W        W 5986  15.558   7.375   1.824
33672W        W 5987  17.881  26.121  11.704
33673W        W 5988  28.319  38.822  12.484
33674W        W 5989   1.510  13.028  11.106
33675W        W 5990   8.928  21.644  14.425
33676W        W 5991  11.797  32.929   0.227
33677W        W 5992   0.028  29.471   2.667
33678W        W 5993  26.504  37.738   2.186
33679W        W 5994  41.564   1.457  10.977
33680W        W 5995  38.211  39.881  13.541
33681W        W 5996   0.497   1.362  12.088
33682W        W 5997  18.297  20.229  11.869
33683W        W 5998  19.721   3.451   0.297
33684W        W 5999   3.507   4.370   2.226
33685W        W 6000   1.887  20.682  13.191
33686W        W 6001   3.775   1.785  12.572
33687W        W 6002  30.220  18.105   3.088
33688W        W 6003  25.475  33.370  11.648
33689W        W 6004   4.702  36.780   3.315
33690W        W 6005  20.168  27.567   4.485
33691W        W 6006  14.729  44.060  14.013
33692W        W 6007   6.587  22.584   4.583
33693W        W 6008  20.712  10.814  12.095
33694W        W 6009  23.273  16.293   0.318
33695W        W 6010  35.790   5.638   0.884
33696W        W 6011  12.884  20.935   1.187
33697W        W 6012  20.707  16.225   2.705
33698W        W 6013  23.864  24.516   2.619
33699W        W 6014  11.049  28.114  13.262
33700W        W 6015   9.294  44.480   1.303
33701W        W 6016  19.188  17.721  11.829
33702W        W 6017  36.921   2.688   2.341
33703W        W 6018  17.683  16.848  12.010
33704W        W 6019  16.795   8.379  12.398
33705W        W 6020  25.235  37.474   2.525
33706W        W 6021  11.378  27.103   0.437
33707W        W 6022  34.335  21.161   1.710
33708W        W 6023   9.683  17.529   1.879
33709W        W 6024  37.096  25.820   0.333
33710W        W 6025  23.955  39.780   1.343
33711W        W 6026  26.373  19.711  10.275
33712W        W 6027  15.540  12.109   4.160
33713W        W 6028   5.624  29.426   3.909
33714W        W 6029   4.756  38.686  12.938
33715W        W 6030  19.521  17.780   3.859
33716W        W 6031   3.693   0.317  14.811
33717W        W 6032  21.583   7.771   4.317
33718W        W 6033  32.504  11.365  13.047
33719W        W 6034  22.513   8.655  12.463
33720W        W 6035  13.363   3.955  10.801
33721W        W 6036  36.571   2.263  14.418
33722W        W 6037  35.356  22.457   1.426
33723W        W 6038  25.140  20.200  13.360
33724W        W 6039  36.382  40.292   4.155
33725W        W 6040  31.384  29.648   3.622
33726W        W 6041   3.662  30.615  14.786
33727W        W 6042   1.720  13.529  14.397
33728W        W 6043  35.893  27.872  13.877
33729W        W 6044  28.043  35.528   0.692
33730W        W 6045  34.852   3.145   2.858
33731W        W 6046   8.365  27.460   0.346
33732W        W 6047  11.593   4.660  11.101
33733W        W 6048  16.206  22.472  10.495
33734W        W 6049  24.613   3.270   2.798
33735W        W 6050  16.748  23.987  12.110
33736W        W 6051   7.515  24.444  10.835
33737W        W 6052  32.944  42.414   0.300
33738W        W 6053   8.269  26.057  10.792
33739W        W 6054  18.231  27.505  14.248
33740W        W 6055  22.124  21.020   5.479
33741W        W 6056  41.718   6.040   1.775
33742W        W 6057   1.682  11.532   3.652
33743W        W 6058  27.344  19.216   1.516
33744W        W 6059  18.331   3.803  14.971
33745W        W 6060  41.918   0.006   3.625
33746W        W 6061  28.595  35.456   0.433
33747W        W 6062  13.555   8.357   0.916
33748W        W 6063  16.536  34.189   1.471
33749W        W 6064  20.683  14.762   3.528
33750W        W 6065   0.027  14.058   4.123
33751W        W 6066   8.247   8.481   3.363
33752W        W 6067  30.835  44.527  13.842
33753W        W 6068  44.426  44.536   4.164
33754W        W 6069   5.626   7.863   2.188
33755W        W 6070   1.974  42.575   4.073
33756W        W 6071  27.103  33.137  14.365
33757W        W 6072  41.405  38.696  12.447
33758W        W 6073  28.636  43.975  13.662
33759W        W 6074  12.907   8.682   2.708
33760W        W 6075  37.490   3.154   0.310
33761W        W 6076   4.604  15.728  12.553
33762W        W 6077  16.167  27.376   4.636
33763W        W 6078  37.755  39.291  12.435
33764W        W 6079  14.209  38.997  10.448
33765W        W 6080   8.622  10.188   0.850
33766W        W 6081  19.081   5.489  12.787
33767W        W 6082   9.830  27.117  13.535
33768W        W 6083  14.717  12.910  11.447
33769W        W 6084  18.678   9.388   1.810
33770W        W 6085  20.239   0.529   4.805
33771W        W 6086  43.941  44.792   0.984
33772W        W 6087   8.645  28.567   0.754
33773W        W 6088  40.329  18.229   4.512
33774W        W 6089  32.381  13.020  13.298
33775W        W 6090  40.514  35.898   4.269
33776W        W 6091  29.991  13.896   1.317
33777W        W 6092  37.136   5.316   1.458
33778W        W 6093  10.379  29.132  13.503
33779W        W 6094  19.129  14.109  12.882
33780W        W 6095  14.691  21.586   4.182
33781W        W 6096   0.372  31.724   3.052
33782W        W 6097  10.923  38.309   4.712
33783W        W 6098  14.578  41.910  10.659
33784W        W 6099  25.459  16.066   4.287
33785W        W 6100  40.738  27.383  13.544
33786W        W 6101  35.881  29.988  11.389
33787W        W 6102  16.143  43.261   0.029
33788W        W 6103  44.062  13.591  10.435
33789W        W 6104   0.783  32.985   5.028
33790W        W 6105  16.078   5.155  14.619
33791W        W 6106  10.866  23.069   3.208
33792W        W 6107  26.948  27.675   1.478
33793W        W 6108  11.643   8.729   0.814
33794W        W 6109   5.176  42.349   1.184
33795W        W 6110  22.542   5.303  12.833
33796W        W 6111  19.116  22.250  13.055
33797W        W 6112  12.006  29.574  13.949
33798W        W 6113  21.639  18.332  11.821
33799W        W 6114  28.162  25.948  14.665
33800W        W 6115  22.662  14.265  13.498
33801W        W 6116  39.883  36.616  11.677
33802W        W 6117   9.837  14.767  14.588
33803W        W 6118  27.753  34.784   4.116
33804W        W 6119   0.918  36.024   3.217
33805W        W 6120  24.680  10.583   4.553
33806W        W 6121  17.134  37.404   1.048
33807W        W 6122  39.519  23.993   4.457
33808W        W 6123   3.116  30.764  13.513
33809W        W 6124   9.731  37.844   2.953
33810W        W 6125  14.597  26.042  13.489
33811W        W 6126  15.223  26.547  11.894
33812W        W 6127  36.997   7.244   2.264
33813W        W 6128  39.038   0.032   4.554
33814W        W 6129  38.000  42.454   1.839
33815W        W 6130  32.968   5.986   4.121
33816W        W 6131  32.907  14.161   2.189
33817W        W 6132  17.489   1.492  12.481
33818W        W 6133  19.866  25.445  11.029
33819W        W 6134  43.986  28.016   3.881
33820W        W 6135  22.246  26.156  14.352
33821W        W 6136  23.290  18.173   1.933
33822W        W 6137  38.985  38.966  12.349
33823W        W 6138  11.556   0.279  13.311
33824W        W 6139   9.136   3.972   0.010
33825W        W 6140  13.708  14.500   1.529
33826W        W 6141  14.767  40.752   2.822
33827W        W 6142  25.240  20.203   5.503
33828W        W 6143  17.215  13.884  13.489
33829W        W 6144  13.758  35.900   1.704
33830W        W 6145   8.550  19.395   2.182
33831W        W 6146  24.686  13.323  12.107
33832W        W 6147  26.274   1.600  13.946
33833W        W 6148  43.502  37.018   4.497
33834W        W 6149  24.074  16.099  11.564
33835W        W 6150   0.873   3.014   1.396
33836W        W 6151  36.680   5.434   4.543
33837W        W 6152  43.319   7.272  12.988
33838W        W 6153  16.241  26.038  14.848
33839W        W 6154  29.930  21.234   2.710
33840W        W 6155  44.036  34.744  11.056
33841W        W 6156   5.193  33.677  14.279
33842W        W 6157   5.110  20.978  13.371
33843W        W 6158  39.903  22.982  12.926
33844W        W 6159  13.140  42.037   3.146
33845W        W 6160  14.465  15.336  11.953
33846W        W 6161  17.319  42.202  12.472
33847W        W 6162  34.575  11.829  10.706
33848W        W 6163  22.655   4.931   1.736
33849W        W 6164  21.316  25.207   3.712
33850W        W 6165  30.964  25.478   4.079
33851W        W 6166   0.487  40.291  12.937
33852W        W 6167   8.601   9.164  14.355
33853W        W 6168   3.049  38.085  13.014
33854W        W 6169  28.967  33.494   2.395
33855W        W 6170  12.883  17.683   4.900
33856W        W 6171  36.993  41.967   0.226
33857W        W 6172  15.987   2.822  12.478
33858W        W 6173  16.120  25.586  14.364
33859W        W 6174   0.862   0.913   4.745
33860W        W 6175  30.126  31.433   0.768
33861W        W 6176  21.699   2.908   1.756
33862W        W 6177  42.266   3.475  10.395
33863W        W 6178  25.118  43.687   3.837
33864W        W 6179  38.456  36.228   0.702
33865W        W 6180   5.285  17.219   1.165
33866W        W 6181  40.416  27.380  14.777
33867W        W 6182  29.158   0.802  10.695
33868W        W 6183   1.186  27.424  11.750
33869W        W 6184  10.062   4.693   0.962
33870W        W 6185  34.123  35.057  10.824
33871W        W 6186  34.096  33.681  10.397
33872W        W 6187  36.096  36.840   4.698
33873W        W 6188  38.792  28.090   1.009
33874W        W 6189   4.939  28.660  12.023
33875W        W 6190  15.137  20.630  13.713
33876W        W 6191   6.910  32.325   0.241
33877W        W 6192   0.434  33.606  12.849
33878W        W 6193  28.509   8.894   5.071
33879W        W 6194  21.447   2.943   3.702
33880W        W 6195  44.921  21.794  13.277
33881W        W 6196  43.526  17.594  13.335
33882W        W 6197  26.342  41.525  13.075
33883W        W 6198  30.941  15.596  14.020
33884W        W 6199  12.613  15.103  10.445
33885W        W 6200  26.951   1.311   1.375
33886W        W 6201  24.174  44.266  11.437
33887W        W 6202  22.784   3.363   1.277
33888W        W 6203  34.369  23.115   4.317
33889W        W 6204  24.492  31.582   1.834
33890W        W 6205  42.278  28.604   2.692
33891W        W 6206  25.989  20.307  14.426
33892W        W 6207  24.494  11.104  12.490
33893W        W 6208   9.736  39.064   0.943
33894W        W 6209   9.331  37.834  10.650
33895W        W 6210   4.323  40.888  12.384
33896W        W 6211   9.187  37.012   2.473
33897W        W 6212   0.992  24.608  11.135
33898W        W 6213   5.665  33.580   0.889
33899W        W 6214  33.834   5.440   1.718
33900W        W 6215   8.641  13.186  14.838
33901W        W 6216  37.419  10.149   5.429
33902W        W 6217  11.808   6.632  13.702
33903W        W 6218  38.809  35.263   0.852
33904W        W 6219  21.534  23.154  10.874
33905W        W 6220  40.533  37.444   0.259
33906W        W 6221  30.002  12.527   0.950
33907W        W 6222  16.780  13.263   4.511
33908W        W 6223  14.447  32.609  12.132
33909W        W 6224  30.946  10.896   3.808
33910W        W 6225  44.418  18.136   1.778
33911W        W 6226   7.916  28.055   0.802
33912W        W 6227  21.675   2.020   4.018
33913W        W 6228  42.989  17.802   1.222
33914W        W 6229  25.728  19.094   0.815
33915W        W 6230   7.820  35.177  12.901
33916W        W 6231  26.839  13.009   1.510
33917W        W 6232   5.704  28.048  13.079
33918W        W 6233  26.625   2.395   5.206
33919W        W 6234  23.975  37.007   1.299
33920W        W 6235   5.242  27.931  13.457
33921W        W 6236  37.831  31.399  13.929
33922W        W 6237   6.494  43.118   2.115
33923W        W 6238  44.073  31.116  13.993
33924W        W 6239  16.046   4.793   2.830
33925W        W 6240  40.640   3.397  11.957
33926W        W 6241  39.904  18.206   0.085
33927W        W 6242  23.274   6.077   1.685
33928W        W 6243  12.615   1.821   1.243
33929W        W 6244   6.447  15.165   0.894
33930W        W 6245  17.156   1.398  10.547
33931W        W 6246  15.084   1.818   3.341
33932W        W 6247   4.943  24.268   3.814
33933W        W 6248  13.000  29.796   0.719
33934W        W 6249  40.000   1.487  12.437
33935W        W 6250   9.947  23.393   2.429
33936W        W 6251  22.189   9.699   4.542
33937W        W 6252  40.576  14.020  10.932
33938W        W 6253  19.943   6.182   1.121
33939W        W 6254  31.406  20.856   4.188
33940W        W 6255   4.838  12.893  14.418
33941W        W 6256  44.265   6.420   5.206
33942W        W 6257  17.086  22.701   3.096
33943W        W 6258   4.209  40.627  13.831
33944W        W 6259  42.802  40.994  11.092
33945W        W 6260  26.172   2.511   3.899
33946W        W 6261  10.356   7.141   0.928
33947W        W 6262  21.653  37.289   1.382
33948W        W 6263  17.834  34.386  14.239
33949W        W 6264  44.962  39.449  10.991
33950W        W 6265  38.948  31.649  11.090
33951W        W 6266  22.939  40.741   2.997
33952W        W 6267  28.372  39.701  14.895
33953W        W 6268  11.854  21.229   4.134
33954W        W 6269  37.621  16.842   3.190
33955W        W 6270   3.410  26.399  11.977
33956W        W 6271  32.823   9.608  11.523
33957W        W 6272   7.844  34.487   3.120
33958W        W 6273  25.955  43.725   1.391
33959W        W 6274  13.946  30.163  12.506
33960W        W 6275  40.926  40.278   3.155
33961W        W 6276   0.710  34.569  11.896
33962W        W 6277  44.182  33.191  10.202
33963W        W 6278  16.708  17.158   0.835
33964W        W 6279  35.507  13.658   2.186
33965W        W 6280  24.929  36.240  13.249
33966W        W 6281   5.619  31.516   3.435
33967W        W 6282  39.031   8.222  13.413
33968W        W 6283  17.195  27.587   0.992
33969W        W 6284  13.307  24.728  13.454
33970W        W 6285  26.464  20.086  14.351
33971W        W 6286  11.376  13.389  13.527
33972W        W 6287   8.881  22.432   4.620
33973W        W 6288  19.606  41.261  11.905
33974W        W 6289   0.800   4.953  14.389
33975W        W 6290  20.139  25.467  14.126
33976W        W 6291  41.040  29.901   1.848
33977W        W 6292  41.362  38.842   1.257
33978W        W 6293  43.375  38.539  14.781
33979W        W 6294   4.387  30.672  13.385
33980W        W 6295  26.774   8.077  11.227
33981W        W 6296  35.994  39.018   1.402
33982W        W 6297  41.841  35.816  13.226
33983W        W 6298  24.076  27.006   4.494
33984W        W 6299  21.769   0.994   0.956
33985W        W 6300  13.792  15.094   2.183
33986W        W 6301   5.586   5.956  12.574
33987W        W 6302  18.707  29.975   4.265
33988W        W 6303  17.700  38.688   0.126
33989W        W 6304   3.560  13.676   4.824
33990W        W 6305  30.573  22.814   3.045
33991W        W 6306  33.537  29.059  12.883
33992W        W 6307   9.695  19.607  12.009
33993W        W 6308  37.511  19.353   2.649
33994W        W 6309   3.399  42.816  11.192
33995W        W 6310  32.035  27.954  11.715
33996W        W 6311  35.117  27.523   1.714
33997W        W 6312  28.607  26.124  13.848
33998W        W 6313   7.526  11.759   1.869
33999W        W 6314  13.123  33.927  11.935
34000W        W 6315  36.063   6.180   2.653
34001W        W 6316   3.838  31.364  13.746
34002W        W 6317   3.384   5.960  10.350
34003W        W 6318  25.043  27.615  12.544
34004W        W 6319   7.269  25.607   2.992
34005W        W 6320  18.197  28.036  10.526
34006W        W 6321  28.650   6.586   2.922
34007W        W 6322  37.763  34.196  10.665
34008W        W 6323  28.452  34.800  13.844
34009W        W 6324  33.457  42.594   4.214
34010W        W 6325  41.362  15.689  11.675
34011W        W 6326  14.876  39.501  10.685
34012W        W 6327  15.602  26.610   0.052
34013W        W 6328   8.740  17.818  10.776
34014W        W 6329   7.871  37.553   2.283
34015W        W 6330  21.647  21.419   4.085
34016W        W 6331   2.501   5.949   1.768
34017W        W 6332   3.726  26.480  10.630
34018W        W 6333  10.725  35.669   2.031
34019W        W 6334  30.453  38.315  13.862
34020W        W 6335  27.056  43.080  11.545
34021W        W 6336  36.422   0.914   3.603
34022W        W 6337   0.205  37.558   1.776
34023W        W 6338   3.977  38.499  14.582
34024W        W 6339  35.812  37.011   1.460
34025W        W 6340  15.611  33.818  13.098
34026W        W 6341  27.129  17.716  13.694
34027W        W 6342  38.774  26.361   4.712
34028W        W 6343  40.348  10.129   4.606
34029W        W 6344  31.655  33.856   3.697
34030W        W 6345   3.839   3.277  14.415
34031W        W 6346  42.817  24.975   1.802
34032W        W 6347  13.672  12.783  14.557
34033W        W 6348  18.553  35.777  14.561
34034W        W 6349  40.904  36.258  13.446
34035W        W 6350  28.206   5.691   0.206
34036W        W 6351  41.054   7.153   1.645
34037W        W 6352  43.084  23.648  11.120
34038W        W 6353  22.952  19.945  11.989
34039W        W 6354   2.336  26.947   0.314
34040W        W 6355  28.258   8.328   2.654
34041W        W 6356  23.224  26.716   4.531
34042W        W 6357   6.004  21.062  14.291
34043W        W 6358  24.660  24.683  11.238
34044W        W 6359   0.262  18.594   3.657
34045W        W 6360   6.615   9.732   2.244
34046W        W 6361  32.810  34.889  12.808
34047W        W 6362  27.615  32.876  14.285
34048W        W 6363   8.874  16.033  13.524
34049W        W 6364  11.071  25.085  14.083
34050W        W 6365  37.879  19.887  10.990
34051W        W 6366  10.532  21.254   4.063
34052W        W 6367   1.777  36.485   0.780
34053W        W 6368  25.701  32.895  14.566
34054W        W 6369  17.085  21.654  14.767
34055W        W 6370  29.606  15.033  11.153
34056W        W 6371  32.184  20.994   4.519
34057W        W 6372  37.329  43.957   4.600
34058W        W 6373  20.630  42.742  12.520
34059W        W 6374  38.572  39.230  14.914
34060W        W 6375  16.626  20.667  11.970
34061W        W 6376   6.853  41.297  14.707
34062W        W 6377  13.674  36.857   4.402
34063W        W 6378  32.136  26.389   5.050
34064W        W 6379  27.005  24.777  12.487
34065W        W 6380   6.481  23.874   0.216
34066W        W 6381  44.318  14.210  10.327
34067W        W 6382  13.632  33.146   3.705
34068W        W 6383  12.782  20.026  13.972
34069W        W 6384  26.932  43.299  11.083
34070W        W 6385   4.478   7.650  13.100
34071W        W 6386  18.743  42.519  12.580
34072W        W 6387  17.010  11.964   0.137
34073W        W 6388  14.094  39.898  10.674
34074W        W 6389  41.511   3.287   1.819
34075W        W 6390  25.458  20.275   4.593
34076W        W 6391  38.865  32.839  13.188
34077W        W 6392  36.303  35.948  10.758
34078W        W 6393  25.922  26.518   0.453
34079W        W 6394  14.248   5.007   0.448
34080W        W 6395   8.098  17.703  12.904
34081W        W 6396  38.482  25.865   1.271
34082W        W 6397  43.969   1.218  11.909
34083W        W 6398  32.516  25.440   1.949
34084W        W 6399   7.308  40.531   2.779
34085W        W 6400   3.418   0.660   1.159
34086W        W 6401  31.646  15.871  12.439
34087W        W 6402   5.425  15.823   9.998
34088W        W 6403  28.581  13.388   2.632
34089W        W 6404  21.071  20.970  12.420
34090W        W 6405  41.959   3.354   3.357
34091W        W 6406  27.249  12.260  14.490
34092W        W 6407  27.052   3.400   5.570
34093W        W 6408  24.113  39.276  14.091
34094W        W 6409   8.441  22.198   4.476
34095W        W 6410  25.210  42.890  12.543
34096W        W 6411  13.044  34.135   3.229
34097W        W 6412  30.343  39.054  10.873
34098W        W 6413  25.767  33.020  10.862
34099W        W 6414  12.157  24.752   2.789
34100W        W 6415   0.563  44.222  10.702
34101W        W 6416   7.833  23.303   2.602
34102W        W 6417  14.302  41.876  13.300
34103W        W 6418  26.896  26.553  11.661
34104W        W 6419  12.058   8.180   3.855
34105W        W 6420   2.551  33.076  12.615
34106W        W 6421  17.968  18.842   4.091
34107W        W 6422  14.159  34.361   3.651
34108W        W 6423  20.817  16.735  14.791
34109W        W 6424  32.432  12.836  14.937
34110W        W 6425  13.720  19.814  14.309
34111W        W 6426  29.169  15.507   5.088
34112W        W 6427  29.898  34.528   2.179
34113W        W 6428   5.415  18.224   4.666
34114W        W 6429  13.674   2.780  12.895
34115W        W 6430  22.323  17.459   4.549
34116W        W 6431  37.303  17.840  14.410
34117W        W 6432   2.701  44.315   1.763
34118W        W 6433  32.449  35.075  13.752
34119W        W 6434  40.003  28.057  12.477
34120W        W 6435  17.824  15.470   2.930
34121W        W 6436  33.878  15.876  14.044
34122W        W 6437  29.123  42.681   3.687
34123W        W 6438   6.287  34.631   0.403
34124W        W 6439  43.521  38.024   1.600
34125W        W 6440  29.452  20.109   2.327
34126W        W 6441  32.455  11.648   0.389
34127W        W 6442  21.510  28.551  13.009
34128W        W 6443  36.540  32.945   2.893
34129W        W 6444  26.621  13.772  10.894
34130W        W 6445  25.204  19.094  11.174
34131W        W 6446  35.892  43.446  11.584
34132W        W 6447   0.844  17.538   0.517
34133W        W 6448  39.402  38.908   3.220
34134W        W 6449   6.125  25.232   1.581
34135W        W 6450   7.632  42.994  14.779
34136W        W 6451  29.849  32.149  10.613
34137W        W 6452  42.636  19.700  10.498
34138W        W 6453  17.603  18.144  14.069
34139W        W 6454  29.504   4.180   5.050
34140W        W 6455  22.013  29.392  14.930
34141W        W 6456  22.234  24.278  12.596
34142W        W 6457  15.110  24.542   0.257
34143W        W 6458   4.511   0.604  10.525
34144W        W 6459  33.893  37.180   0.817
34145W        W 6460  41.140  42.345   1.963
34146W        W 6461   5.334  34.107   2.196
34147W        W 6462   2.356  23.105  14.658
34148W        W 6463   0.434  32.241   0.671
34149W        W 6464  11.723  13.619  10.604
34150W        W 6465  38.230   3.778   3.454
34151W        W 6466  42.363  11.821  11.835
34152W        W 6467  44.346   6.219  10.576
34153W        W 6468   8.801  38.428  13.522
34154W        W 6469  13.424  39.318   0.556
34155W        W 6470  10.873  19.006   1.779
34156W        W 6471  29.963   4.236  11.462
34157W        W 6472   6.727  42.788   3.038
34158W        W 6473   4.727  31.590  14.880
34159W        W 6474  20.841   1.103  14.296
34160W        W 6475  13.577  20.633  12.542
34161W        W 6476  36.322  17.584  12.961
34162W        W 6477  31.652  29.570   1.495
34163W        W 6478   3.504  37.367   0.179
34164W        W 6479  41.368  11.934  10.487
34165W        W 6480   7.486   4.072  13.344
34166W        W 6481   6.146   0.713  12.567
34167W        W 6482   0.531  31.489  12.089
34168W        W 6483  10.846  27.291   1.136
34169W        W 6484  20.275  25.750  12.495
34170W        W 6485   0.625   7.604   0.050
34171W        W 6486  30.163  39.168  12.110
34172W        W 6487  10.775  22.957  10.953
34173W        W 6488  23.546  13.359   3.226
34174W        W 6489  38.139   0.707  13.547
34175W        W 6490  28.069  10.808  12.991
34176W        W 6491  23.154   9.622   0.235
34177W        W 6492  24.485  24.897   4.080
34178W        W 6493  23.000  16.742   0.289
34179W        W 6494  24.579  14.459   2.326
34180W        W 6495   8.222  26.500  11.538
34181W        W 6496   1.401   2.452  13.434
34182W        W 6497   7.590  31.401   3.809
34183W        W 6498  38.484  13.120  13.525
34184W        W 6499  37.347  26.587   2.192
34185W        W 6500  36.364  25.608  12.695
34186W        W 6501  41.960   9.679   1.167
34187W        W 6502  37.412  43.691   3.205
34188W        W 6503  19.162  10.151  10.264
34189W        W 6504  32.541  10.103  10.208
34190W        W 6505   4.798   2.187   2.095
34191W        W 6506  16.297  11.740  12.138
34192W        W 6507  38.839  41.248   4.116
34193W        W 6508  35.019  34.005  10.859
34194W        W 6509  22.270  30.965  13.502
34195W        W 6510  25.930  42.278  12.454
34196W        W 6511   8.739  24.055  11.609
34197W        W 6512  44.380  30.337   0.877
34198W        W 6513  28.496   0.276  10.571
34199W        W 6514  44.316   0.839  14.826
34200W        W 6515  12.691  21.335  13.071
34201W        W 6516  16.804   4.682   2.468
34202W        W 6517  42.018  43.868   0.347
34203W        W 6518   5.703  21.155   4.234
34204W        W 6519   7.380  11.608   3.242
34205W        W 6520  30.213   8.360   2.888
34206W        W 6521  23.973   5.726   3.593
34207W        W 6522  28.828   1.666  11.611
34208W        W 6523  41.368  15.760  10.821
34209W        W 6524  12.270   1.478  14.009
34210W        W 6525  21.204  28.385   3.238
34211W        W 6526   2.779  32.630  13.812
34212W        W 6527  33.560   3.098   0.628
34213W        W 6528  26.027  36.621   4.201
34214W        W 6529  30.980  25.083   1.706
34215W        W 6530  32.968  44.982   4.792
34216W        W 6531  29.659  30.108   2.904
34217W        W 6532   8.455   8.386   4.162
34218W        W 6533  37.009  19.590  12.504
34219W        W 6534   0.323   6.134  13.285
34220W        W 6535  39.332   7.702  13.585
34221W        W 6536   5.912  10.936  12.874
34222W        W 6537  16.807   7.362   1.468
34223W        W 6538  39.932  19.750   1.908
34224W        W 6539  34.042  38.524  11.933
34225W        W 6540   5.187  11.771   0.457
34226W        W 6541  10.092  30.754  10.277
34227W        W 6542  40.753  42.972   1.295
34228W        W 6543  27.992   9.634   1.474
34229W        W 6544   4.151  41.531  13.983
34230W        W 6545  11.390   5.021   3.399
34231W        W 6546  12.143  25.190  11.058
34232W        W 6547  20.220  14.770   1.946
34233W        W 6548   0.862  39.904  11.391
34234W        W 6549  11.801   2.521  12.190
34235W        W 6550   5.467   9.309   1.611
34236W        W 6551  44.892  43.771   4.996
34237W        W 6552   5.399  35.348   3.279
34238W        W 6553  17.301  39.925   0.008
34239W        W 6554  13.877  21.175   5.012
34240W        W 6555  29.903  36.376  14.420
34241W        W 6556  29.719   4.855   0.143
34242W        W 6557  42.740  15.351  10.490
34243W        W 6558   1.803  13.421  13.024
34244W        W 6559  33.908  18.813   4.059
34245W        W 6560   2.408  42.623  11.105
34246W        W 6561  39.778  22.178   3.356
34247W        W 6562  34.474   8.424   1.383
34248W        W 6563  42.144  20.698  13.721
34249W        W 6564  38.815   2.311  11.874
34250W        W 6565  15.417  26.105   0.249
34251W        W 6566  15.250  17.555   0.223
34252W        W 6567  40.440  21.835   1.907
34253W        W 6568  20.135  39.470  13.440
34254W        W 6569  28.979   9.662  14.768
34255W        W 6570   5.498  23.074   1.013
34256W        W 6571  22.992  38.172  14.866
34257W        W 6572  33.536  22.244  11.632
34258W        W 6573  20.289  34.064  10.748
34259W        W 6574  32.646  17.202  13.742
34260W        W 6575  30.893  34.381  11.448
34261W        W 6576  32.875  30.148   2.671
34262W        W 6577  14.346  35.117  14.618
34263W        W 6578  36.176  18.030   4.149
34264W        W 6579  16.211   2.514   3.826
34265W        W 6580  19.780   9.823  12.096
34266W        W 6581  31.521  19.634   0.818
34267W        W 6582   1.267  35.350  13.789
34268W        W 6583   8.916   7.319   0.850
34269W        W 6584  19.028  32.522   2.787
34270W        W 6585   3.970   4.782  12.449
34271W        W 6586  17.141  25.763   0.532
34272W        W 6587  25.478   9.328  11.164
34273W        W 6588  37.012   9.491  11.585
34274W        W 6589  31.324  22.344  12.421
34275W        W 6590  28.660   8.400  14.019
34276W        W 6591  20.744  21.343  11.011
34277W        W 6592  26.662   1.183  11.670
34278W        W 6593  31.765  35.874   4.507
34279W        W 6594  29.169  16.392  12.065
34280W        W 6595  37.178  21.044  11.463
34281W        W 6596  12.783  34.990  12.123
34282W        W 6597  19.698  13.157  12.489
34283W        W 6598   3.773   3.475   2.281
34284W        W 6599   8.867  24.963   4.464
34285W        W 6600  39.938  24.959   1.856
34286W        W 6601  28.728  30.593   3.813
34287W        W 6602  33.667   8.561   3.125
34288W        W 6603   1.468  16.566   2.261
34289W        W 6604  24.518  21.559   4.671
34290W        W 6605  13.397  39.856  13.787
34291W        W 6606  29.889  28.137   4.905
34292W        W 6607   8.751  27.592   4.167
34293W        W 6608  35.546  35.952  14.378
34294W        W 6609  13.056  37.965   0.777
34295W        W 6610  23.064  21.387  13.503
34296W        W 6611  42.902   6.501   2.507
34297W        W 6612  42.864  15.184   2.615
34298W        W 6613   2.885  20.347   2.191
34299W        W 6614  10.363   9.315  12.943
34300W        W 6615   3.493  36.680   4.490
34301W        W 6616  23.104  35.610   0.543
34302W        W 6617  43.836  40.111  14.477
34303W        W 6618   7.546  23.337   1.846
34304W        W 6619  22.271   1.308   4.079
34305W        W 6620  18.690  43.692  13.085
34306W        W 6621  26.726  39.993  12.189
34307W        W 6622   7.975   0.390  11.170
34308W        W 6623  44.880  23.912  14.206
34309W        W 6624  30.202  28.953   0.833
34310W        W 6625  19.683  36.761  12.899
34311W        W 6626  30.608  29.263   2.921
34312W        W 6627   0.232  30.580  11.127
34313W        W 6628   6.770  13.790  11.342
34314W        W 6629  13.369  25.000  11.682
34315W        W 6630  44.306  33.161  10.696
34316W        W 6631  39.299   3.741  12.646
34317W        W 6632  42.262  11.265   1.432
34318W        W 6633  10.248  11.450   1.658
34319W        W 6634  21.006  28.718  11.095
34320W        W 6635  32.882  44.569  12.943
34321W        W 6636  14.472  16.514   2.119
34322W        W 6637  14.226   6.938   4.193
34323W        W 6638  15.367  25.775  11.195
34324W        W 6639  44.300  29.532   4.568
34325W        W 6640  28.405   8.234   1.923
34326W        W 6641  10.769  15.704   1.968
34327W        W 6642   4.128  18.176  13.847
34328W        W 6643   5.692   2.615   4.124
34329W        W 6644  21.821  36.762   2.688
34330W        W 6645  20.296  39.394   2.271
34331W        W 6646  26.006   2.414  10.898
34332W        W 6647   7.771   3.776  12.086
34333W        W 6648   7.002   3.325  14.055
34334W        W 6649  38.312  22.187  11.054
34335W        W 6650  28.692  41.710  13.907
34336W        W 6651   5.496  10.981  13.439
34337W        W 6652  38.337  18.997   1.212
34338W        W 6653  37.558   3.013  12.333
34339W        W 6654  40.033   9.384  14.407
34340W        W 6655  10.117   8.541  10.732
34341W        W 6656  10.810  38.819   4.635
34342W        W 6657  14.050   0.315   0.289
34343W        W 6658  43.445  43.632   3.025
34344W        W 6659  43.481  30.629  13.066
34345W        W 6660  18.625   2.580  11.225
34346W        W 6661  17.708  14.529   1.223
34347W        W 6662  26.997  11.205  11.583
34348W        W 6663  34.099   1.467  12.012
34349W        W 6664  34.366  17.740  14.018
34350W        W 6665  40.055  21.794   4.606
34351W        W 6666  20.073  40.852   3.176
34352W        W 6667   8.703  40.713   2.807
34353W        W 6668  22.727   0.826   0.780
34354W        W 6669  24.947  32.481  14.818
34355W        W 6670  14.134  22.046  11.168
34356W        W 6671  28.319   4.351   0.403
34357W        W 6672   4.257  10.843   2.189
34358W        W 6673  17.999   8.122   1.189
34359W        W 6674  32.874  39.523   3.961
34360W        W 6675  23.500  26.647  13.889
34361W        W 6676   6.779   8.695   0.197
34362W        W 6677  13.638   1.325   4.630
34363W        W 6678   8.028  16.660   1.259
34364W        W 6679  33.990  39.224   3.263
34365W        W 6680  23.997  18.590  11.315
34366W        W 6681   9.738  13.057  13.286
34367W        W 6682   3.992  12.227   0.866
34368W        W 6683  32.445  16.269  13.336
34369W        W 6684  34.615   1.203  13.463
34370W        W 6685  25.511  17.756  11.244
34371W        W 6686  11.902  12.563   2.760
34372W        W 6687  20.081  26.723   4.297
34373W        W 6688   4.328  27.845  11.141
34374W        W 6689  18.209   5.903  11.122
34375W        W 6690   5.843   6.959   3.733
34376W        W 6691  38.731  32.926   0.278
34377W        W 6692  23.335  24.583  11.048
34378W        W 6693  13.633  25.636  10.600
34379W        W 6694  22.692  35.954  13.128
34380W        W 6695  28.906  28.578   2.817
34381W        W 6696  13.634  41.521   2.835
34382W        W 6697  43.224  17.221   4.899
34383W        W 6698  32.012  33.894   2.394
34384W        W 6699  34.308  34.635  12.992
34385W        W 6700  37.471  40.932  13.459
34386W        W 6701  28.675   1.503  14.813
34387W        W 6702  38.305  15.734  13.972
34388W        W 6703   8.380   5.188  13.926
34389W        W 6704  42.030  17.392   2.762
34390W        W 6705  41.914  41.353  11.218
34391W        W 6706   1.297   0.404   2.684
34392W        W 6707  39.041  27.424  12.868
34393W        W 6708  13.351  36.591   4.056
34394W        W 6709  44.462  36.096  12.082
34395W        W 6710  29.169  12.698  10.670
34396W        W 6711  23.051  25.145  13.441
34397W        W 6712   4.290  30.877  14.305
34398W        W 6713   3.939  18.508   0.865
34399W        W 6714  18.820  37.482   3.936
34400W        W 6715  40.139  20.146   0.683
34401W        W 6716  30.519  23.461   4.391
34402W        W 6717  40.440   7.942   0.401
34403W        W 6718   8.687  17.933   0.849
34404W        W 6719  20.059  38.450   3.728
34405W        W 6720  17.702  15.079   0.534
34406W        W 6721  22.042  21.105   4.113
34407W        W 6722  15.618  38.868  13.429
34408W        W 6723   5.407  14.675   0.595
34409W        W 6724  11.328   3.139   1.419
34410W        W 6725  32.347  42.077  12.575
34411W        W 6726  35.856  42.836   3.319
34412W        W 6727   5.425   6.815  13.041
34413W        W 6728  39.006  14.293   3.696
34414W        W 6729   8.176  15.558  13.445
34415W        W 6730  40.867  17.809  10.718
34416W        W 6731   5.698  14.612   2.942
34417W        W 6732  25.249  41.015  12.492
34418W        W 6733  12.175   7.353  13.842
34419W        W 6734   7.066  15.079   2.743
34420W        W 6735  31.453  40.012   0.378
34421W        W 6736  38.100  10.084  14.031
34422W        W 6737   1.061  28.047   5.343
34423W        W 6738  12.763  36.048   3.846
34424W        W 6739  38.404   4.190  11.116
34425W        W 6740  22.561  20.863   2.454
34426W        W 6741   4.975  39.531   4.558
34427W        W 6742  18.855  36.961   0.456
34428W        W 6743   1.308  13.081  14.282
34429W        W 6744  16.971  37.405  10.750
34430W        W 6745  33.979  16.268  10.907
34431W        W 6746   5.798  17.695   1.481
34432W        W 6747  43.891   8.286  14.431
34433W        W 6748  19.397  19.761   4.264
34434W        W 6749  32.847   3.548   0.601
34435W        W 6750  12.273  22.134  11.448
34436W        W 6751  31.870   8.514   3.123
34437W        W 6752  36.001   8.765   1.992
34438W        W 6753  33.506  17.625   1.275
34439W        W 6754  34.612  23.563  11.015
34440W        W 6755   9.142   9.759   2.192
34441W        W 6756  42.556  13.919   0.790
34442W        W 6757  40.392  41.388  10.715
34443W        W 6758  28.671   5.131   2.733
34444W        W 6759   9.219  36.044   0.536
34445W        W 6760  37.795  42.339   1.354
34446W        W 6761  30.217  10.217   4.690
34447W        W 6762  41.278  36.383  12.585
34448W        W 6763  43.499  44.251  12.392
34449W        W 6764  29.943  36.607  14.888
34450W        W 6765  30.722   4.843   2.355
34451W        W 6766  22.695  16.845  10.938
34452W        W 6767  43.928   7.749   1.416
34453W        W 6768   1.193  11.737  13.810
34454W        W 6769  38.118  44.373   2.711
34455W        W 6770  39.034   9.484   1.365
34456W        W 6771  44.923  17.794   0.837
34457W        W 6772  11.929   0.546   2.387
34458W        W 6773  35.748  39.463   3.604
34459W        W 6774  25.874  36.751  14.351
34460W        W 6775  13.622  41.102  12.558
34461W        W 6776  16.323  43.490  13.480
34462W        W 6777   9.446  33.601  10.628
34463W        W 6778  35.817  14.742   1.871
34464W        W 6779   4.172  21.644  11.897
34465W        W 6780  30.926  36.366  14.262
34466W        W 6781  35.344   8.272  13.978
34467W        W 6782  36.373  28.455  11.490
34468W        W 6783  11.690   6.941   4.121
34469W        W 6784  27.669  15.269   0.276
34470W        W 6785  39.426  44.078   3.110
34471W        W 6786  25.158  40.295   3.762
34472W        W 6787  44.747  23.563  11.709
34473W        W 6788  27.135   0.938  11.514
34474W        W 6789   2.449  37.320   0.782
34475W        W 6790   3.265  23.718   0.395
34476W        W 6791  22.973  21.462   3.796
34477W        W 6792  19.085  30.193   3.264
34478W        W 6793  29.481  39.066   4.550
34479W        W 6794  12.276  27.405  14.566
34480W        W 6795  19.828  40.151  12.520
34481W        W 6796  13.090   0.684  10.998
34482W        W 6797  10.434  34.850   2.321
34483W        W 6798  24.078  27.499  14.238
34484W        W 6799  41.409  36.841  12.425
34485W        W 6800  10.810  43.473   3.932
34486W        W 6801  24.736  33.847  14.853
34487W        W 6802  33.645  18.243  11.286
34488W        W 6803  20.069  43.729  12.635
34489W        W 6804  19.292  22.221   2.252
34490W        W 6805   2.365  28.711  13.424
34491W        W 6806  23.160  11.449   0.882
34492W        W 6807  24.594   1.960   3.030
34493W        W 6808  21.065  16.119   1.162
34494W        W 6809  23.621  41.602   3.440
34495W        W 6810  37.531  11.816   0.431
34496W        W 6811  41.816  40.429   1.839
34497W        W 6812  31.644   3.878  11.426
34498W        W 6813   0.981  33.670   1.831
34499W        W 6814  15.740   3.036   4.186
34500W        W 6815   3.633  14.406  14.964
34501W        W 6816   0.431  32.215   4.502
34502W        W 6817  38.031  41.930   1.735
34503W        W 6818  43.858   4.412   3.670
34504W        W 6819   9.358  10.268   3.405
34505W        W 6820  28.767  21.828   3.840
34506W        W 6821  26.473   5.912  11.436
34507W        W 6822  40.547  27.554  12.102
34508W        W 6823  41.552  41.344  13.245
34509W        W 6824  13.089  15.950   0.829
34510W        W 6825  34.014  25.199   2.824
34511W        W 6826  43.821  23.540   2.494
34512W        W 6827   8.305  14.634   4.832
34513W        W 6828  21.523  34.208  12.984
34514W        W 6829  42.458  32.652  10.734
34515W        W 6830  41.316  40.522  12.900
34516W        W 6831   3.443  31.127  14.954
34517W        W 6832   5.427   3.262  10.288
34518W        W 6833  14.832  15.605  11.663
34519W        W 6834   5.174  14.699   1.082
34520W        W 6835  25.995  35.311   4.755
34521W        W 6836  19.391  40.313   3.593
34522W        W 6837  19.895  20.295  14.607
34523W        W 6838  36.968  28.478   1.285
34524W        W 6839  42.198  20.798   2.918
34525W        W 6840  15.133  33.448   0.745
34526W        W 6841   8.510  31.521   2.136
34527W        W 6842  29.412  43.332   2.608
34528W        W 6843  23.715  35.902  13.997
34529W        W 6844  11.937  40.249   4.191
34530W        W 6845  31.085  26.923  14.829
34531W        W 6846  36.754  35.814   0.394
34532W        W 6847   6.928  35.743  13.747
34533W        W 6848  11.749   6.591   0.981
34534W        W 6849  42.955  43.348  11.493
34535W        W 6850  11.391  18.688  12.443
34536W        W 6851  21.756  27.630  14.390
34537W        W 6852  23.084  20.052   4.618
34538W        W 6853  21.552  11.364   0.862
34539W        W 6854  40.414   4.746  12.779
34540W        W 6855  25.724   9.188  14.978
34541W        W 6856  38.510   7.701   0.024
34542W        W 6857   7.332  30.485  14.412
34543W        W 6858  26.039  38.803  10.275
34544W        W 6859  28.936   4.125  12.899
34545W        W 6860  36.713  18.631   3.742
34546W        W 6861  32.552   5.496  12.503
34547W        W 6862  10.124  18.652   2.377
34548W        W 6863   3.685  34.521  14.927
34549W        W 6864  24.475  14.615   4.906
34550W        W 6865  13.226  24.220   0.984
34551W        W 6866   1.206   6.170   4.680
34552W        W 6867  25.583   2.857  12.957
34553W        W 6868   9.594  43.229  13.781
34554W        W 6869  22.768  29.701   4.275
34555W        W 6870  24.618  22.086   5.588
34556W        W 6871  39.192   3.897   1.887
34557W        W 6872   0.975  31.654   2.647
34558W        W 6873  24.675  21.515  12.657
34559W        W 6874  21.276  33.301  12.829
34560W        W 6875  31.665  10.873  14.413
34561W        W 6876  32.647   6.716  13.378
34562W        W 6877  41.095   5.376  14.383
34563W        W 6878   0.106  23.208   2.230
34564W        W 6879  16.913  32.854  12.542
34565W        W 6880  13.468   8.715  12.486
34566W        W 6881  21.792  12.427  11.817
34567W        W 6882   2.857  10.390   1.814
34568W        W 6883  27.545  40.079  14.085
34569W        W 6884   8.846  44.756   1.217
34570W        W 6885  37.399  36.951   2.883
34571W        W 6886   1.523   4.206   3.634
34572W        W 6887  12.451  35.521  11.583
34573W        W 6888  36.653  22.579   0.902
34574W        W 6889  27.889  44.836   1.395
34575W        W 6890  12.975  11.729   0.919
34576W        W 6891   1.556  18.464   3.698
34577W        W 6892  27.642  42.322  14.300
34578W        W 6893  17.645  36.350   1.754
34579W        W 6894  36.756  35.451  13.725
34580W        W 6895  19.083  32.653   3.301
34581W        W 6896  18.551  16.520   0.285
34582W        W 6897  39.957  37.812   4.117
34583W        W 6898  30.330  13.866   2.201
34584W        W 6899  36.330  39.520  10.602
34585W        W 6900   3.445  22.106   1.206
34586W        W 6901   0.492  38.268   1.264
34587W        W 6902  33.028  15.021   0.944
34588W        W 6903  20.745  23.208  11.943
34589W        W 6904  33.004  13.395   4.106
34590W        W 6905  26.089  34.960  14.517
34591W        W 6906  13.904  25.506   3.071
34592W        W 6907  28.030  25.467  13.914
34593W        W 6908  25.089  20.689   2.793
34594W        W 6909  36.120  25.399  14.401
34595W        W 6910  19.857  36.273   4.046
34596W        W 6911  44.370  43.503   2.711
34597W        W 6912  16.571  25.024   2.426
34598W        W 6913  19.143  42.997  12.095
34599W        W 6914  36.048  38.657   4.580
34600W        W 6915   2.422   2.444   1.703
34601W        W 6916  36.048  31.316   4.566
34602W        W 6917  10.130  43.055  10.425
34603W        W 6918  36.825  10.641  12.824
34604W        W 6919  29.675  25.550   1.185
34605W        W 6920  26.975   8.448   0.434
34606W        W 6921  26.055   8.430  14.343
34607W        W 6922  28.928  37.491  11.514
34608W        W 6923  41.045  12.738   1.752
34609W        W 6924   1.685   5.353   1.886
34610W        W 6925  28.602  29.669  11.681
34611W        W 6926  29.567   1.698  12.421
34612W        W 6927  34.991   9.157  10.267
34613W        W 6928   1.471  11.697  11.483
34614W        W 6929   6.316   9.079   3.346
34615W        W 6930  11.346  20.729   1.288
34616W        W 6931  32.926  20.423   1.380
34617W        W 6932  24.496  10.196  11.317
34618W        W 6933   3.034  39.075  12.857
34619W        W 6934  39.299  23.636   0.801
34620W        W 6935  20.831  26.382  14.645
34621W        W 6936  18.651  10.912   0.859
34622W        W 6937   1.760  21.302   4.194
34623W        W 6938  37.038  17.838   4.139
34624W        W 6939  10.870  44.863  12.015
34625W        W 6940  18.997  13.425  10.719
34626W        W 6941   8.726  10.125   1.729
34627W        W 6942  42.906  25.687  13.129
34628W        W 6943   9.116  31.476   3.382
34629W        W 6944  40.625  21.095  10.926
34630W        W 6945  17.226  35.616   1.883
34631W        W 6946   4.409  31.683  12.506
34632W        W 6947  40.575  34.428   4.010
34633W        W 6948  13.728  35.976   2.619
34634W        W 6949   2.299  20.445  13.980
34635W        W 6950  11.732   5.018   4.954
34636W        W 6951  29.214  12.852   2.733
34637W        W 6952  44.084  21.237   1.192
34638W        W 6953  27.024  20.068   1.443
34639W        W 6954  21.010   8.906  13.443
34640W        W 6955  28.937  17.808   2.613
34641W        W 6956  11.172   1.712   3.911
34642W        W 6957  33.419  31.654   2.114
34643W        W 6958  31.093  32.621  11.695
34644W        W 6959   1.671  28.003  14.271
34645W        W 6960   7.846  14.371   3.590
34646W        W 6961  20.621  20.163   0.944
34647W        W 6962   2.280  39.491   1.404
34648W        W 6963   4.749  24.576   0.932
34649W        W 6964  21.207  32.810  12.945
34650W        W 6965  12.368  32.501   1.314
34651W        W 6966  35.475   0.332   0.822
34652W        W 6967  44.211  19.540  11.208
34653W        W 6968   7.297  17.757   1.046
34654W        W 6969  20.122   8.533  11.869
34655W        W 6970  33.199   1.420  14.691
34656W        W 6971  12.634  16.568  11.384
34657W        W 6972   4.811   9.079  12.595
34658W        W 6973  22.565  20.610   2.941
34659W        W 6974   3.226   9.466  10.655
34660W        W 6975   5.343  43.438  10.923
34661W        W 6976   7.832  18.688   2.110
34662W        W 6977  36.938  41.927   2.763
34663W        W 6978   1.847  39.528  11.429
34664W        W 6979  42.551  38.362  11.592
34665W        W 6980  30.421  27.742   1.295
34666W        W 6981  40.472  21.024  11.469
34667W        W 6982  16.047  10.428   2.790
34668W        W 6983  21.334  43.547   1.465
34669W        W 6984  19.506  40.036  10.223
34670W        W 6985   1.076  44.358  10.722
34671W        W 6986  32.482   7.924   4.864
34672W        W 6987  24.537  33.596   1.320
34673W        W 6988  25.592  29.568   4.780
34674W        W 6989   6.953   6.456   2.318
34675W        W 6990  15.639  27.632  14.060
34676W        W 6991  44.887  32.095  11.812
34677W        W 6992  34.421  14.675  13.759
34678W        W 6993  26.999  11.406   4.203
34679W        W 6994  29.461  14.046  12.907
34680W        W 6995   7.221   4.853   4.550
34681W        W 6996  13.344  24.313   3.258
34682W        W 6997  42.087  17.412  10.871
34683W        W 6998  10.775  29.290  11.444
34684W        W 6999  27.476  15.634   2.851
34685W        W 7000  15.528   9.064  12.547
34686W        W 7001  18.796  20.207   2.693
34687W        W 7002  23.896   0.287   3.192
34688W        W 7003  22.011   3.962  12.905
34689W        W 7004  43.087  43.184  13.252
34690W        W 7005  41.076  23.060   3.773
34691W        W 7006   2.669  33.703  11.239
34692W        W 7007   4.353  12.770   4.223
34693W        W 7008  29.691  25.946   3.777
34694W        W 7009  10.449  38.164   4.010
34695W        W 7010  22.826  43.758  10.750
34696W        W 7011  30.712  30.395  13.145
34697W        W 7012  19.270  35.211  11.091
34698W        W 7013  27.977  16.585  12.515
34699W        W 7014  16.856   4.714  14.024
34700W        W 7015  12.715  41.302   3.373
34701W        W 7016  32.942  30.127  10.361
34702W        W 7017   9.838   8.748   3.733
34703W        W 7018   0.344  23.124   1.682
34704W        W 7019  18.100   4.753   2.301
34705W        W 7020  25.392  36.675  14.511
34706W        W 7021   8.866  10.685   0.884
34707W        W 7022  29.840   3.202  10.418
34708W        W 7023  25.376  37.766  13.940
34709W        W 7024  42.560  24.251   3.624
34710W        W 7025  39.826  42.516   3.690
34711W        W 7026  30.899  25.191  13.996
34712W        W 7027  22.305  28.943   4.656
34713W        W 7028  24.650  43.935  14.358
34714W        W 7029  42.062  15.695   0.535
34715W        W 7030  30.235   0.306  11.660
34716W        W 7031   6.432   4.156  13.499
34717W        W 7032  26.266   5.056  14.408
34718W        W 7033  30.904  15.742   4.176
34719W        W 7034  28.479  14.398  12.749
34720W        W 7035  19.040  19.393   0.834
34721W        W 7036  18.349   8.770   3.131
34722W        W 7037  30.722  19.429   2.833
34723W        W 7038  12.600  12.929  12.056
34724W        W 7039   3.800  25.607   4.395
34725W        W 7040  11.810  23.683  10.643
34726W        W 7041   8.202  26.668   0.886
34727W        W 7042  18.769  40.340   1.306
34728W        W 7043  20.068  40.986   2.658
34729W        W 7044  30.035  11.876  11.720
34730W        W 7045   3.739   7.904  11.937
34731W        W 7046  21.153  43.262   0.552
34732W        W 7047  26.606   5.208  11.133
34733W        W 7048  41.274  43.546   2.864
34734W        W 7049  31.386  13.754  10.970
34735W        W 7050  24.704  20.273   2.295
34736W        W 7051   2.737  17.663   1.777
34737W        W 7052  24.151   5.739  12.060
34738W        W 7053  42.932  39.384  11.692
34739W        W 7054  30.528  27.698   4.597
34740W        W 7055   9.918  32.982  12.190
34741W        W 7056   5.924  25.486   2.688
34742W        W 7057  29.001  23.495   2.326
34743W        W 7058  22.434  14.223  14.019
34744W        W 7059   5.747  32.203   1.691
34745W        W 7060  26.614  31.520   3.135
34746W        W 7061   3.321   0.690  14.839
34747W        W 7062   9.178   2.093   4.073
34748W        W 7063  37.795   3.969   3.260
34749W        W 7064   2.674  41.193  11.474
34750W        W 7065   0.448  30.890   4.331
34751W        W 7066  18.488   0.821  12.190
34752W        W 7067  13.270  40.716   2.762
34753W        W 7068  44.003   0.432  12.473
34754W        W 7069  41.657  38.429  12.822
34755W        W 7070  18.525  11.623   4.340
34756W        W 7071  44.982  12.847   4.200
34757W        W 7072  44.318  29.403   3.241
34758W        W 7073  36.086  15.633   0.989
34759W        W 7074  36.400  11.214  10.747
34760W        W 7075  17.229  27.991  13.878
34761W        W 7076   0.009  38.035   0.925
34762W        W 7077  27.263  35.923   0.897
34763W        W 7078  33.086  21.984  12.439
34764W        W 7079  12.182   8.532  12.346
34765W        W 7080  34.624  19.264   3.144
34766W        W 7081  40.271  21.461  12.473
34767W        W 7082  33.143   7.157   3.241
34768W        W 7083  30.578   5.847  12.227
34769W        W 7084   5.278   9.796   1.782
34770W        W 7085  18.987  34.947   4.082
34771W        W 7086  42.030  36.474  12.024
34772W        W 7087  13.084  24.450   3.676
34773W        W 7088  16.284  22.970   0.429
34774W        W 7089   9.192  11.363  11.927
34775W        W 7090   8.895  16.305  11.315
34776W        W 7091  24.451   3.946  11.993
34777W        W 7092  32.092  30.620   1.994
34778W        W 7093  28.168   4.370  12.558
34779W        W 7094  29.960  42.921   3.182
34780W        W 7095  37.460  15.108  13.536
34781W        W 7096  27.855  31.506   5.093
34782W        W 7097  19.790  24.607  10.656
34783W        W 7098  15.792  37.960  12.842
34784W        W 7099  14.486  32.776   2.393
34785W        W 7100  18.895   6.495   2.819
34786W        W 7101   3.664  18.569   1.868
34787W        W 7102  42.884  21.934  13.015
34788W        W 7103  24.980  21.329   5.354
34789W        W 7104  19.475  40.424   4.583
34790W        W 7105  27.755   3.858  14.038
34791W        W 7106   8.401  12.126   4.235
34792W        W 7107  32.872  16.310   0.282
34793W        W 7108  33.736   5.991   0.005
34794W        W 7109  39.848  30.572  11.330
34795W        W 7110  37.520  17.759   0.706
34796W        W 7111  22.754  17.408   3.120
34797W        W 7112   2.902  10.859  10.354
34798W        W 7113   8.785  40.239   4.690
34799W        W 7114  10.365   1.314   1.649
34800W        W 7115  14.599   3.603   4.546
34801W        W 7116   4.954  23.313   4.173
34802W        W 7117   2.905  30.048  13.709
34803W        W 7118  40.966  14.833   0.268
34804W        W 7119   5.197  17.135  11.617
34805W        W 7120  32.184  31.257   0.626
34806W        W 7121  23.215  12.573  13.932
34807W        W 7122  37.359  39.039  14.804
34808W        W 7123  10.359  39.992  11.074
34809W        W 7124   0.363  25.191  12.455
34810W        W 7125  44.581  17.203   1.320
34811W        W 7126  18.680  44.372   3.339
34812W        W 7127  22.625   5.269   2.216
34813W        W 7128  27.990  27.505  13.795
34814W        W 7129  10.745  40.839   2.774
34815W        W 7130  14.583   3.518   2.804
34816W        W 7131  32.701  25.391  11.884
34817W        W 7132  38.995  32.527  11.949
34818W        W 7133  19.246  35.902  14.895
34819W        W 7134   6.971  28.912   1.334
34820W        W 7135  30.499  22.124   1.179
34821W        W 7136  13.864   4.301  13.884
34822W        W 7137  29.967  13.740  11.258
34823W        W 7138  15.665   8.261   2.422
34824W        W 7139  12.181  39.511  11.877
34825W        W 7140  38.694  40.535  14.894
34826W        W 7141  13.205  22.371  10.315
34827W        W 7142  23.675  38.885  12.715
34828W        W 7143  23.385  35.926   3.196
34829W        W 7144  12.272  16.413   3.197
34830W        W 7145  28.596  18.504  13.073
34831W        W 7146  26.721  26.605  12.139
34832W        W 7147  29.121   2.519  13.890
34833W        W 7148  16.282  32.430   3.709
34834W        W 7149  18.120  15.546  10.716
34835W        W 7150  32.522  31.093   3.162
34836W        W 7151  23.967  36.563  11.655
34837W        W 7152  15.099  44.513   3.709
34838W        W 7153  10.877  16.314  14.944
34839W        W 7154  40.294  10.810  10.685
34840W        W 7155  14.563  17.161   3.896
34841W        W 7156  19.297  38.479  10.202
34842W        W 7157  18.307  42.773  13.871
34843W        W 7158  22.978  40.971  12.485
34844W        W 7159  22.577  38.110   0.525
34845W        W 7160  34.454   4.961   0.518
34846W        W 7161  35.859  21.794  11.582
34847W        W 7162  42.346  15.987   2.291
34848W        W 7163   6.248  39.307  11.155
34849W        W 7164  23.473  42.767   1.935
34850W        W 7165  44.305  26.107  13.897
34851W        W 7166   4.277  21.127  11.223
34852W        W 7167  28.114  40.388  10.966
34853W        W 7168  29.120  39.371  13.521
34854W        W 7169  24.268  18.141  13.835
34855W        W 7170   6.184  37.170  13.568
34856W        W 7171  27.717   5.923   1.018
34857W        W 7172  12.016  23.544  12.814
34858W        W 7173  10.128  12.873   0.309
34859W        W 7174  14.614   1.955   2.310
34860W        W 7175   7.302   4.246   3.737
34861W        W 7176  39.046  28.533  14.327
34862W        W 7177   9.685  33.994  11.528
34863W        W 7178  18.737  21.542  12.472
34864W        W 7179  16.391  44.537  12.370
34865W        W 7180  27.606  36.635  12.080
34866W        W 7181  37.042  35.402  13.293
34867W        W 7182  14.625   1.221   0.452
34868W        W 7183  18.558  14.677  11.593
34869W        W 7184  12.929  14.818   2.164
34870W        W 7185  41.442   2.858  12.335
34871W        W 7186  18.621   0.907  11.675
34872W        W 7187  36.489  34.248   2.732
34873W        W 7188  39.777  11.993  13.285
34874W        W 7189  12.491   8.720   4.970
34875W        W 7190   4.892  26.921  12.612
34876W        W 7191  37.677  15.413   2.385
34877W        W 7192  43.758   5.633   1.694
34878W        W 7193  23.420  14.873   2.425
34879W        W 7194  28.651  11.111  14.277
34880W        W 7195  36.324   2.714  14.335
34881W        W 7196  26.647  42.797   3.633
34882W        W 7197  18.729  26.697  12.536
34883W        W 7198  25.773   4.886  13.686
34884W        W 7199  21.574  36.798   1.220
34885W        W 7200  40.006  20.289   4.551
34886W        W 7201  17.588  43.330   3.362
34887W        W 7202  15.706  14.182   1.802
34888W        W 7203  15.702  18.691  10.485
34889W        W 7204  28.055  23.994  11.854
34890W        W 7205  41.017  41.018  11.619
34891W        W 7206   1.021  40.595  14.408
34892W        W 7207  44.805  36.345  11.740
34893W        W 7208   8.292  44.727  13.984
34894W        W 7209  28.161  15.047  14.360
34895W        W 7210  16.287  23.436  14.555
34896W        W 7211  27.988  24.963   3.646
34897W        W 7212  36.629  10.421   0.926
34898W        W 7213  41.891  39.111  14.009
34899W        W 7214  17.538   4.933  10.680
34900W        W 7215  13.363  44.797   4.113
34901W        W 7216  14.373  34.281  13.260
34902W        W 7217  42.498  43.738  14.019
34903W        W 7218  21.120  35.100  10.821
34904W        W 7219  35.659  27.268   4.693
34905W        W 7220  15.079  14.867   4.217
34906W        W 7221  43.849  10.089  13.900
34907W        W 7222   2.855  27.105  12.593
34908W        W 7223   3.767   5.333   3.785
34909W        W 7224  11.460  35.938   3.702
34910W        W 7225  42.645   6.115   4.997
34911W        W 7226  43.945  24.440   3.887
34912W        W 7227  33.209  35.185   1.957
34913W        W 7228  38.803  39.299  11.606
34914W        W 7229   7.133  44.332   2.419
34915W        W 7230  37.171  39.518   4.615
34916W        W 7231  14.430  22.306   2.346
34917W        W 7232   6.668   1.900   0.329
34918W        W 7233  23.774  19.758   2.195
34919W        W 7234  43.033  13.106   2.733
34920W        W 7235   5.670  28.518   3.954
34921W        W 7236  39.269   6.857  12.834
34922W        W 7237   3.796  28.008  12.878
34923W        W 7238  37.503  40.127  12.213
34924W        W 7239  22.492  23.119  11.145
34925W        W 7240  12.959  28.363   2.703
34926W        W 7241  34.497   1.514   1.409
34927W        W 7242  40.560  38.435   1.263
34928W        W 7243  35.876  29.593  14.290
34929W        W 7244  36.023  22.495  12.085
34930W        W 7245  35.405  40.038   1.928
34931W        W 7246  43.574  31.442  12.031
34932W        W 7247  37.049  36.116   1.808
34933W        W 7248  27.369  42.915   0.250
34934W        W 7249  21.323  42.462   2.925
34935W        W 7250  37.804  13.512   2.317
34936W        W 7251   6.359   7.696   4.267
34937W        W 7252  33.358  42.758  14.486
34938W        W 7253  25.911   5.709   0.366
34939W        W 7254   6.128  29.850  13.546
34940W        W 7255  13.699  26.522   2.359
34941W        W 7256   9.075  14.578   0.225
34942W        W 7257  21.675  33.218  10.078
34943W        W 7258  40.938  35.473  14.934
34944W        W 7259  12.077  30.058   2.232
34945W        W 7260  12.733  23.936  14.944
34946W        W 7261  24.964   7.360  13.822
34947W        W 7262  10.649  19.195   1.358
34948W        W 7263  29.435  37.192  10.975
34949W        W 7264   1.070  36.068   0.523
34950W        W 7265   5.399   7.317  14.744
34951W        W 7266  42.427  10.412  10.704
34952W        W 7267  13.588  38.462  14.721
34953W        W 7268  37.641  38.142  10.461
34954W        W 7269   7.230  39.307   4.814
34955W        W 7270   5.240   7.767   0.499
34956W        W 7271   9.003  34.876  14.274
34957W        W 7272  13.855  36.108  11.429
34958W        W 7273   7.796  24.655   2.055
34959W        W 7274  10.749  34.961   3.583
34960W        W 7275  39.931   9.958   1.317
34961W        W 7276  21.028  29.166   3.712
34962W        W 7277  28.527   5.717  11.366
34963W        W 7278  19.681  35.340   1.240
34964W        W 7279  14.264   9.585  14.904
34965W        W 7280  21.084  15.620   1.175
34966W        W 7281  37.405  11.588  14.814
34967W        W 7282  16.147  18.531  11.630
34968W        W 7283   5.837  24.079  10.627
34969W        W 7284  35.160  22.137   4.343
34970W        W 7285  23.479  43.037  11.432
34971W        W 7286  30.607  19.625   4.610
34972W        W 7287  22.918  28.497   0.894
34973W        W 7288  18.640  10.912   5.389
34974W        W 7289  22.100  44.889  11.418
34975W        W 7290   3.953  22.632   3.156
34976W        W 7291  27.048  21.071  11.252
34977W        W 7292  29.960  40.439  12.558
34978W        W 7293  33.145   2.046  13.629
34979W        W 7294  28.461  28.736   0.455
34980W        W 7295  40.381   2.802  12.559
34981W        W 7296  40.796   6.910  11.170
34982W        W 7297  35.704   9.656  12.008
34983W        W 7298  28.253  41.071   3.085
34984W        W 7299   4.030  41.338   3.359
34985W        W 7300  35.448  26.391   3.663
34986W        W 7301  42.869  26.193  13.964
34987W        W 7302   5.251  18.636  11.592
34988W        W 7303  39.147  15.718  11.742
34989W        W 7304  29.922  37.322  14.300
34990W        W 7305   4.387  27.947   3.803
34991W        W 7306   7.725  36.214   0.921
34992W        W 7307  25.806  33.433  12.044
34993W        W 7308  13.234  17.312   0.483
34994W        W 7309  34.598   7.835  10.484
34995W        W 7310  32.560  19.729   1.832
34996W        W 7311  36.614   0.004  11.969
34997W        W 7312   8.867  41.280   3.387
34998W        W 7313  18.462  21.647  14.827
34999W        W 7314  20.741  19.498  14.008
35000W        W 7315  16.360   7.923   0.806
35001W        W 7316   9.236   3.237   0.390
35002W        W 7317  28.855  34.074  14.372
35003W        W 7318  32.895  21.228   2.846
35004W        W 7319  24.850  28.264   0.801
35005W        W 7320   2.128  44.372   3.718
35006W        W 7321  41.112  44.801  10.846
35007W        W 7322  18.567  20.263   0.496
35008W        W 7323  17.044  27.126   2.945
35009W        W 7324   9.711  34.984  10.531
35010W        W 7325  10.300  40.894  10.377
35011W        W 7326  19.118  44.454  11.769
35012W        W 7327  18.287  27.681  13.280
35013W        W 7328  14.333   4.953   1.294
35014W        W 7329  13.617  33.902  12.916
35015W        W 7330  26.021  17.552   4.265
35016W        W 7331   2.906  39.446  10.899
35017W        W 7332   4.015  16.608   3.825
35018W        W 7333  40.039  31.276   3.259
35019W        W 7334   7.425   0.897  12.861
35020W        W 7335  12.484  14.213  13.581
35021W        W 7336  24.687  15.407  13.811
35022W        W 7337  37.337  22.272  13.097
35023W        W 7338   9.344  41.002   0.929
35024W        W 7339  24.849  35.149   5.158
35025W        W 7340  29.981   3.218  12.606
35026W        W 7341  31.106  42.380   1.610
35027W        W 7342   8.626  36.858   0.493
35028W        W 7343  10.414  43.235  13.359
35029W        W 7344   1.449  36.316  13.836
35030W        W 7345  36.860  27.977  14.479
35031W        W 7346  25.466  25.959   0.743
35032W        W 7347  41.774  23.311   0.248
35033W        W 7348   1.493  12.452  13.029
35034W        W 7349  41.107  13.701  13.935
35035W        W 7350  29.937  28.776  12.036
35036W        W 7351   3.193  37.104   4.514
35037W        W 7352  37.952  44.965  11.362
35038W        W 7353  15.795  36.827   4.585
35039W        W 7354  34.870  39.878   2.134
35040W        W 7355  30.688  37.830  13.758
35041W        W 7356  37.367  25.692  10.282
35042W        W 7357   4.494  15.809   0.563
35043W        W 7358  25.568  30.403   1.847
35044W        W 7359   1.253  40.050  13.511
35045W        W 7360   3.707  39.808  12.133
35046W        W 7361  43.835  17.629  14.627
35047W        W 7362  31.577  41.931   4.741
35048W        W 7363  10.197  10.595  10.722
35049W        W 7364  31.116  33.347  14.785
35050W        W 7365  30.610   7.689  13.452
35051W        W 7366  21.047  18.719   4.999
35052W        W 7367   8.693  38.847   0.890
35053W        W 7368  43.863   5.643   3.259
35054W        W 7369  31.716  29.419   3.303
35055W        W 7370   0.072  33.801   4.914
35056W        W 7371   2.794  22.775  12.552
35057W        W 7372  16.085  22.105  14.537
35058W        W 7373  36.781  32.588   1.865
35059W        W 7374  13.193  39.591   3.306
35060W        W 7375  43.668  22.072  14.075
35061W        W 7376  25.004  26.003   4.798
35062W        W 7377  31.139   9.350   1.727
35063W        W 7378   7.506  11.180  10.651
35064W        W 7379  42.315  18.119  13.772
35065W        W 7380  10.653  25.361  14.203
35066W        W 7381   6.110  44.016  14.939
35067W        W 7382  29.463  21.030  12.418
35068W        W 7383  26.427   1.868   0.722
35069W        W 7384  21.737  24.130  14.243
35070W        W 7385  37.607  21.582   4.206
35071W        W 7386  34.363  13.610   0.940
35072W        W 7387  37.455  22.794  12.027
35073W        W 7388  13.822  23.248  12.043
35074W        W 7389   9.917  16.047  14.941
35075W        W 7390  40.806  40.227  13.960
35076W        W 7391  26.746  36.630  14.759
35077W        W 7392  31.956  29.415   1.088
35078W        W 7393   6.743  34.657  10.787
35079W        W 7394  13.663  15.682   3.550
35080W        W 7395  30.880  39.934   2.210
35081W        W 7396  29.173  21.761  14.521
35082W        W 7397   7.856  37.435   4.207
35083W        W 7398   5.945  13.146  10.630
35084W        W 7399  25.003   7.385  11.582
35085W        W 7400   9.763   8.954  10.568
35086W        W 7401  19.129   3.732   1.746
35087W        W 7402   0.414  24.186  12.953
35088W        W 7403   6.623  29.924  13.357
35089W        W 7404  33.996  12.980   3.163
35090W        W 7405  41.892  29.401  14.306
35091W        W 7406  38.554   6.759   3.656
35092W        W 7407  30.326  27.347  12.686
35093W        W 7408   9.887   5.989   1.865
35094W        W 7409  39.977  35.629  11.818
35095W        W 7410   6.903  16.186  12.658
35096W        W 7411  33.300  44.320  10.138
35097W        W 7412  29.446  29.951   3.765
35098W        W 7413   6.762  24.509  12.855
35099W        W 7414  29.863  38.575  10.726
35100W        W 7415  15.207  33.628   4.720
35101W        W 7416  38.219  26.578   5.572
35102W        W 7417  13.388  29.473  14.858
35103W        W 7418  12.290  31.141  10.717
35104W        W 7419  12.168   1.402   4.417
35105W        W 7420  38.636  26.094  14.711
35106W        W 7421  27.990  17.841  11.945
35107W        W 7422  18.145   2.007  13.038
35108W        W 7423  41.448  25.442   3.340
35109W        W 7424  30.468  26.440   2.261
35110W        W 7425  41.314  39.209  12.482
35111W        W 7426  42.895  16.390  13.497
35112W        W 7427  25.352  28.352   0.824
35113W        W 7428   8.793  13.194  11.535
35114W        W 7429  29.783  34.028   2.415
35115W        W 7430  17.293   5.311   1.427
35116W        W 7431  23.569   7.423   0.346
35117W        W 7432  36.307  44.837   2.245
35118W        W 7433   2.791  19.023   1.278
35119W        W 7434   5.158  44.437  12.066
35120W        W 7435  40.689   3.965   0.609
35121W        W 7436  12.616  22.435   2.294
35122W        W 7437  19.630  17.056  14.751
35123W        W 7438  39.344  11.984  14.446
35124W        W 7439   9.832  32.134   3.648
35125W        W 7440  31.208  31.855   3.476
35126W        W 7441  30.006  35.530  11.497
35127W        W 7442   8.750   5.152   1.842
35128W        W 7443  21.900  10.194  12.398
35129W        W 7444   8.916  16.027   2.262
35130W        W 7445  11.660  36.525   4.767
35131W        W 7446   8.716  41.523   2.408
35132W        W 7447   9.758  41.942   0.870
35133W        W 7448  10.316  13.553   4.582
35134W        W 7449  14.619  22.215   2.849
35135W        W 7450   3.439   0.786   2.992
35136W        W 7451  21.027  14.909   3.081
35137W        W 7452  20.809  25.652  11.933
35138W        W 7453  12.811  44.715   1.310
35139W        W 7454  18.640  10.607  10.559
35140W        W 7455  35.457  16.992  14.310
35141W        W 7456  31.368  13.571  11.452
35142W        W 7457  16.685  27.518   1.153
35143W        W 7458  43.531  39.900   3.906
35144W        W 7459  21.758   6.438   1.611
35145W        W 7460  35.058  41.277   4.656
35146W        W 7461  30.016  35.027  11.357
35147W        W 7462  35.551  28.185   2.367
35148W        W 7463  36.037  17.883  11.141
35149W        W 7464  29.261   9.746   1.969
35150W        W 7465  25.078   4.682   2.768
35151W        W 7466   0.538  12.675  11.074
35152W        W 7467  30.691  15.558  13.330
35153W        W 7468  20.535  33.111   1.776
35154W        W 7469  35.756  18.306  14.441
35155W        W 7470  21.214  12.217  13.507
35156W        W 7471  12.855  44.391   0.795
35157W        W 7472  21.505  13.156  12.862
35158W        W 7473  18.222  18.967  12.058
35159W        W 7474  12.018  24.705  11.564
35160W        W 7475  14.329  25.559  12.352
35161W        W 7476  18.827  38.317  11.490
35162W        W 7477   2.240  43.741  11.085
35163W        W 7478  25.001  33.816   1.246
35164W        W 7479  20.054  42.614   0.411
35165W        W 7480  19.685  18.990   4.311
35166W        W 7481  22.288  43.380   2.439
35167W        W 7482   2.174  43.836  10.579
35168W        W 7483  14.118   6.244  14.833
35169W        W 7484   1.069  34.491   1.246
35170W        W 7485  10.356  32.838  10.065
35171W        W 7486   1.270   4.590  13.336
35172W        W 7487  23.293  15.661   3.887
35173W        W 7488  24.040  40.650   3.122
35174W        W 7489   7.172  27.529   1.013
35175W        W 7490  30.161  30.555  11.036
35176W        W 7491  23.616  35.093  11.182
35177W        W 7492  39.563   1.760   4.114
35178W        W 7493  23.075  23.059  11.940
35179W        W 7494   5.895  35.693   4.694
35180W        W 7495   5.344  36.989  14.971
35181W        W 7496  26.221  18.136   0.246
35182W        W 7497  25.019  20.619  11.671
35183W        W 7498  37.766  33.528   2.785
35184W        W 7499  38.999  31.498   1.853
35185W        W 7500  13.999  16.499   5.012
35186W        W 7501  21.733  32.942  12.309
35187W        W 7502  14.744  43.134   2.775
35188W        W 7503  14.018  12.010  12.536
35189W        W 7504  14.580   6.511  11.140
35190W        W 7505  24.105  19.066  10.200
35191W        W 7506  11.300  21.645  14.461
35192W        W 7507  26.565  34.501   1.157
35193W        W 7508  35.380  40.031   4.301
35194W        W 7509  44.774  39.784   2.889
35195W        W 7510  19.037  29.864   3.651
35196W        W 7511  20.780  35.515   0.717
35197W        W 7512  28.480   8.391  10.443
35198W        W 7513   3.357  40.979   2.169
35199W        W 7514  12.026  26.447  14.826
35200W        W 7515  14.143  19.334  11.762
35201W        W 7516  27.912  41.979   4.903
35202W        W 7517  44.426  18.392  10.666
35203W        W 7518  43.072  13.462  13.836
35204W        W 7519  34.610   1.168  14.343
35205W        W 7520   6.378   5.772   3.927
35206W        W 7521  36.531   3.609   0.288
35207W        W 7522  44.291  18.112  12.364
35208W        W 7523  38.137   0.704   1.778
35209W        W 7524  16.878  20.206  11.292
35210W        W 7525  33.252  29.387   3.233
35211W        W 7526   8.983  40.802   3.238
35212W        W 7527  40.150   3.208   5.054
35213W        W 7528   9.728  32.639   2.699
35214W        W 7529  26.729  13.510  14.372
35215W        W 7530  14.780  26.646  10.277
35216W        W 7531  20.838  40.597   0.185
35217W        W 7532  18.928  36.122  11.019
35218W        W 7533  34.019  15.271  14.872
35219W        W 7534  22.612  28.690  14.355
35220W        W 7535  23.443   5.372   0.919
35221W        W 7536  29.779  19.812   5.100
35222W        W 7537  26.316  11.119  10.695
35223W        W 7538  29.158   1.893   1.680
35224W        W 7539   6.382   4.282  11.904
35225W        W 7540  41.224  28.561   1.320
35226W        W 7541   3.808  34.942   1.276
35227W        W 7542  26.890   7.792   1.913
35228W        W 7543  43.966   1.782  12.594
35229W        W 7544  31.021  11.684  13.564
35230W        W 7545  17.209  22.142  14.446
35231W        W 7546   5.425  10.729  12.047
35232W        W 7547   2.743  37.367   4.553
35233W        W 7548  38.422  31.506   0.070
35234W        W 7549   4.489  43.499  13.896
35235W        W 7550  26.287  28.474   0.180
35236W        W 7551  33.372  21.951   2.358
35237W        W 7552  25.637  27.260  12.018
35238W        W 7553  38.126  16.694   3.217
35239W        W 7554  13.074   7.938   2.267
35240W        W 7555  11.162  43.230   0.321
35241W        W 7556  14.693  43.993  11.577
35242W        W 7557  20.686  22.655   0.977
35243W        W 7558  27.086  28.501   2.340
35244W        W 7559  40.747  27.999  12.897
35245W        W 7560  20.826  15.372  13.486
35246W        W 7561  34.093  42.328  11.122
35247W        W 7562  40.475  32.845  11.588
35248W        W 7563  44.318  28.061   1.824
35249W        W 7564   9.393  44.639   0.415
35250W        W 7565  23.003   0.052   2.261
35251W        W 7566   0.219  29.605  10.480
35252W        W 7567  38.045  42.581  13.919
35253W        W 7568  34.802  44.291   3.682
35254W        W 7569  10.800   5.590   5.036
35255W        W 7570   4.310  18.046   2.688
35256W        W 7571  25.025  44.724   0.446
35257W        W 7572   5.485  36.627  14.293
35258W        W 7573   6.260   6.298   4.145
35259W        W 7574   7.760   2.218   1.354
35260W        W 7575  14.168  27.836   4.117
35261W        W 7576  20.677  27.495  11.484
35262W        W 7577   4.398  20.777   3.844
35263W        W 7578  21.440   5.195   2.601
35264W        W 7579  31.896   3.535   3.818
35265W        W 7580  32.346   8.984  11.110
35266W        W 7581  15.553  39.045   0.825
35267W        W 7582   7.462   3.846   4.576
35268W        W 7583  34.173  28.925   3.191
35269W        W 7584  22.218  36.132   0.836
35270W        W 7585  22.667  31.661   4.924
35271W        W 7586  24.358  16.304   2.880
35272W        W 7587  11.661  28.427   2.236
35273W        W 7588  18.785  19.507  14.221
35274W        W 7589   5.930   5.001   3.695
35275W        W 7590  44.177   4.740  14.926
35276W        W 7591  28.392  42.034   2.249
35277W        W 7592  38.816  19.886  10.562
35278W        W 7593  21.075  35.896  13.536
35279W        W 7594  17.083  34.966   2.257
35280W        W 7595  29.037  41.330  10.922
35281W        W 7596  38.861  43.880  12.563
35282W        W 7597  18.722  37.822  12.922
35283W        W 7598   8.309  12.500  13.897
35284W        W 7599  44.845   6.303   3.858
35285W        W 7600   9.705  36.313   0.030
35286W        W 7601  28.941  17.377  12.085
35287W        W 7602  37.543  23.888  10.370
35288W        W 7603  11.202  26.621   0.422
35289W        W 7604  30.133  34.576  14.991
35290W        W 7605  38.763   7.281   1.466
35291W        W 7606  18.761  21.757  13.916
35292W        W 7607   0.485  25.603   2.739
35293W        W 7608  34.569  10.779   1.440
35294W        W 7609   5.187  26.102   0.304
35295W        W 7610  25.489  23.461  12.571
35296W        W 7611  10.925  12.447   3.218
35297W        W 7612   4.447  14.166  11.721
35298W        W 7613   8.351  14.059  14.798
35299W        W 7614  44.338  22.603   5.134
35300W        W 7615  21.048  12.183  14.006
35301W        W 7616  38.600  16.004   2.287
35302W        W 7617  13.146  33.014   0.679
35303W        W 7618  41.884  32.399   4.673
35304W        W 7619   5.878  13.370   0.030
35305W        W 7620  30.050  14.077   0.421
35306W        W 7621  36.674  36.492   2.687
35307W        W 7622  13.722  44.665   0.963
35308W        W 7623  37.374  13.298  14.790
35309W        W 7624  10.409  15.572  12.394
35310W        W 7625  22.168  24.152   1.358
35311W        W 7626   6.031  13.650   1.159
35312W        W 7627  12.881  35.446  11.911
35313W        W 7628   0.737   1.850   0.712
35314W        W 7629  13.900   4.203  11.632
35315W        W 7630  19.573  26.545   4.137
35316W        W 7631  24.515  42.914  10.689
35317W        W 7632  12.869  32.501  12.835
35318W        W 7633  42.019   6.452   2.774
35319W        W 7634  10.627  17.577  11.023
35320W        W 7635  13.347  36.903   2.270
35321W        W 7636  10.714  32.499   4.648
35322W        W 7637  23.259  18.248  13.611
35323W        W 7638  39.476  25.277  12.930
35324W        W 7639  30.141  18.282  13.523
35325W        W 7640  27.213  31.631  11.289
35326W        W 7641  27.154  27.127   0.863
35327W        W 7642  30.600  12.881   4.754
35328W        W 7643  26.795   9.248   4.659
35329W        W 7644  28.258   3.835   4.497
35330W        W 7645   4.120   0.391  13.832
35331W        W 7646   3.441  34.435  13.344
35332W        W 7647  25.751   0.920   1.199
35333W        W 7648  27.715  19.040   3.735
35334W        W 7649  37.842   6.965  14.799
35335W        W 7650  15.302  24.691  12.996
35336W        W 7651   8.690   8.767  12.917
35337W        W 7652  15.666  20.452  11.579
35338W        W 7653  37.542  22.048   1.496
35339W        W 7654  37.419   9.081   0.528
35340W        W 7655  36.476   5.116  11.851
35341W        W 7656   8.103   9.227  10.670
35342W        W 7657  25.966  37.554   1.424
35343W        W 7658  40.726  33.430  12.970
35344W        W 7659  14.606  39.907   1.245
35345W        W 7660   1.375  43.866   3.752
35346W        W 7661  22.549  15.607  14.360
35347W        W 7662  20.015  31.572  12.946
35348W        W 7663  17.547   2.055  12.423
35349W        W 7664  19.269  13.739  14.363
35350W        W 7665  23.542  40.194  11.231
35351W        W 7666   1.264  20.368   1.826
35352W        W 7667   3.441   7.226   1.167
35353W        W 7668  14.575  33.926   3.178
35354W        W 7669  27.261   9.808  11.886
35355W        W 7670  13.755  11.383   2.398
35356W        W 7671  34.124  21.270   3.722
35357W        W 7672  35.139  34.617  13.490
35358W        W 7673   8.303   9.446   2.341
35359W        W 7674  38.554  36.754  11.889
35360W        W 7675  21.032  40.389   2.730
35361W        W 7676  10.756  26.254  10.615
35362W        W 7677  12.794   4.728  12.382
35363W        W 7678   3.722  41.467  12.992
35364W        W 7679  20.632   5.296   3.410
35365W        W 7680   0.267  30.740  14.819
35366W        W 7681  15.302   7.173  11.436
35367W        W 7682   6.697   8.033   1.231
35368W        W 7683  37.127  25.943  11.477
35369W        W 7684   2.769   8.885  13.959
35370W        W 7685   7.078  44.412  13.047
35371W        W 7686  41.243  44.052  13.151
35372W        W 7687  35.617  22.356   4.148
35373W        W 7688  23.505   6.916   1.698
35374W        W 7689  26.571  25.110   3.590
35375W        W 7690  24.058   8.375   1.272
35376W        W 7691   5.896  25.885   3.735
35377W        W 7692   5.268  25.241   1.906
35378W        W 7693   3.426  24.721  11.089
35379W        W 7694  25.511   9.687   1.952
35380W        W 7695  39.058  24.603   2.416
35381W        W 7696  38.410  13.055   1.730
35382W        W 7697  24.015  36.784   0.400
35383W        W 7698  26.447  11.818   0.894
35384W        W 7699  28.534   7.417  12.471
35385W        W 7700   3.804  12.787   0.245
35386W        W 7701  18.147  25.572   2.699
35387W        W 7702  43.927  40.362  11.704
35388W        W 7703   9.646  29.375   3.956
35389W        W 7704  26.452   6.029   4.322
35390W        W 7705  32.585  37.884  12.937
35391W        W 7706   8.776   8.154  11.249
35392W        W 7707   6.405  23.491  10.913
35393W        W 7708   8.751  21.473   4.676
35394W        W 7709   8.684  28.569  14.817
35395W        W 7710  18.070  12.917   1.978
35396W        W 7711   7.382  23.831   1.896
35397W        W 7712  44.806  39.084   2.432
35398W        W 7713  38.949  10.472   0.426
35399W        W 7714   5.850  13.741  13.781
35400W        W 7715  42.502  21.098   0.003
35401W        W 7716  11.368  10.921  12.404
35402W        W 7717  26.524  25.544   2.192
35403W        W 7718  39.081  28.101  14.996
35404W        W 7719  33.067  16.240  12.995
35405W        W 7720  42.281  12.726   0.344
35406W        W 7721  11.236  44.758   3.368
35407W        W 7722  21.128  34.658  14.274
35408W        W 7723  42.452   1.852  14.350
35409W        W 7724  17.055  14.209   3.285
35410W        W 7725   0.926   4.411  12.998
35411W        W 7726   5.357  15.524   1.492
35412W        W 7727  40.761  14.057   0.367
35413W        W 7728   9.669  23.758   3.391
35414W        W 7729  30.142   2.802   1.076
35415W        W 7730  31.660  21.449   1.331
35416W        W 7731   1.271  15.914   0.885
35417W        W 7732  22.985  17.962   3.118
35418W        W 7733  30.520  25.007   3.243
35419W        W 7734  34.647  20.188  14.079
35420W        W 7735  22.372  19.647   5.453
35421W        W 7736  44.930  17.652  10.673
35422W        W 7737  10.409  39.305   3.893
35423W        W 7738   9.294  42.059  14.823
35424W        W 7739  44.861   6.896  13.009
35425W        W 7740  26.181  31.856  13.820
35426W        W 7741   9.183  34.071  13.901
35427W        W 7742  38.349   9.849   0.765
35428W        W 7743  38.162  11.779  11.277
35429W        W 7744   3.118  23.984   3.804
35430W        W 7745  36.140  23.115   0.588
35431W        W 7746  27.536  42.614   2.649
35432W        W 7747  42.999  23.694   4.277
35433W        W 7748  42.833  44.563   0.347
35434W        W 7749  10.431  43.958  11.350
35435W        W 7750  32.698  16.539  14.303
35436W        W 7751  14.473   2.795  12.456
35437W        W 7752   9.112  20.572  14.779
35438W        W 7753  34.489  34.565   1.872
35439W        W 7754  14.234  41.019  13.849
35440W        W 7755   2.950  41.474   0.995
35441W        W 7756  16.174   2.681   1.005
35442W        W 7757  32.998  17.809   2.640
35443W        W 7758  24.551  35.066  10.976
35444W        W 7759  11.820   8.942   1.276
35445W        W 7760  19.660  33.542   5.077
35446W        W 7761   1.744  26.149   3.694
35447W        W 7762   1.342  22.304   4.612
35448W        W 7763  41.027  22.169   4.766
35449W        W 7764  25.039  29.027   0.248
35450W        W 7765   1.676  31.066  13.500
35451W        W 7766  19.523  26.126   4.755
35452W        W 7767   1.716  31.925   3.322
35453W        W 7768  39.788   2.378  12.084
35454W        W 7769  22.135  39.739  14.985
35455W        W 7770  35.958  35.370   2.243
35456W        W 7771  42.198   8.260   4.074
35457W        W 7772  11.848   7.152  12.620
35458W        W 7773  22.604   0.318   0.243
35459W        W 7774  40.469  28.742  13.160
35460W        W 7775  41.237  27.518  13.511
35461W        W 7776  19.459  20.744   0.271
35462W        W 7777  35.984  15.227   2.247
35463W        W 7778   5.196   2.946   0.456
35464W        W 7779  23.722  22.463   5.325
35465W        W 7780  16.335  44.445   4.317
35466W        W 7781   1.431  22.193  14.701
35467W        W 7782  20.494   0.553   1.747
35468W        W 7783  17.922  28.072   4.618
35469W        W 7784  11.713  43.759   1.707
35470W        W 7785  21.156  28.670   2.791
35471W        W 7786   9.325  16.278  12.159
35472W        W 7787  12.712  19.083   2.708
35473W        W 7788   4.125  20.772   3.387
35474W        W 7789   0.459   2.263  13.094
35475W        W 7790   1.292  27.039  12.486
35476W        W 7791  38.945  37.312   3.247
35477W        W 7792   1.748  27.074  10.746
35478W        W 7793  40.496  29.219   2.932
35479W        W 7794  14.846  40.366   2.383
35480W        W 7795  33.015  17.549  13.569
35481W        W 7796  27.222   6.947   5.803
35482W        W 7797  12.239  42.932   4.945
35483W        W 7798  42.089  10.485   2.141
35484W        W 7799  22.053   7.670   4.531
35485W        W 7800  24.240  21.386  12.933
35486W        W 7801  11.440  15.379   3.618
35487W        W 7802  20.911  24.613   4.816
35488W        W 7803  17.790  42.898   1.729
35489W        W 7804  38.510  36.859  14.858
35490W        W 7805  35.544  15.230  13.720
35491W        W 7806  16.283   7.678   4.169
35492W        W 7807  20.158  42.320  12.260
35493W        W 7808  12.177  26.810   2.770
35494W        W 7809  16.733   5.869   4.228
35495W        W 7810  24.174  41.841   2.781
35496W        W 7811   3.264  44.784  10.539
35497W        W 7812  11.771  22.763  12.566
35498W        W 7813  33.020  30.985   4.247
35499W        W 7814  42.401  14.755   1.375
35500W        W 7815  44.282  26.098  13.303
35501W        W 7816  16.811  42.657   0.596
35502W        W 7817  29.708  40.838   0.300
35503W        W 7818   3.398  19.876  11.103
35504W        W 7819   2.254  18.358   2.821
35505W        W 7820   1.740  20.645   4.841
35506W        W 7821  14.028   0.293  13.805
35507W        W 7822  16.690   6.904   4.127
35508W        W 7823   8.833  36.987   4.764
35509W        W 7824  38.397  25.387   1.588
35510W        W 7825  33.452  32.143   1.945
35511W        W 7826  39.053  32.571   4.571
35512W        W 7827   7.409  31.427   2.866
35513W        W 7828  33.221  12.677   3.816
35514W        W 7829  42.373   2.190   0.795
35515W        W 7830  12.729  35.014   1.228
35516W        W 7831  37.024  37.355  12.344
35517W        W 7832  35.017  36.528   0.193
35518W        W 7833  17.687  14.034   1.388
35519W        W 7834  28.452   7.884   0.160
35520W        W 7835  30.084   6.278  14.323
35521W        W 7836  28.329  17.335   0.490
35522W        W 7837  27.929  10.767   2.466
35523W        W 7838  22.019  30.870  14.768
35524W        W 7839  15.019  37.520  10.783
35525W        W 7840  25.136  16.240  10.806
35526W        W 7841  13.144  38.496   0.044
35527W        W 7842  10.139  43.290   2.237
35528W        W 7843  13.951  25.977   4.358
35529W        W 7844  26.432  38.476   1.955
35530W        W 7845  29.370  38.248  13.036
35531W        W 7846   6.187  34.531   4.043
35532W        W 7847  40.066  42.319   4.609
35533W        W 7848  34.816  22.814  12.648
35534W        W 7849  15.295  35.550  14.787
35535W        W 7850  43.466  32.118   3.064
35536W        W 7851  36.396  31.993  12.587
35537W        W 7852  13.210  18.009   1.435
35538W        W 7853  18.237  37.992   1.154
35539W        W 7854  23.782  21.668  13.914
35540W        W 7855   5.218  20.133   0.628
35541W        W 7856  16.845  15.309   0.540
35542W        W 7857  14.724  37.310  12.975
35543W        W 7858   0.876  23.181  11.083
35544W        W 7859  30.087  21.694   4.565
35545W        W 7860   9.276  31.576   1.325
35546W        W 7861  24.984  27.012  11.356
35547W        W 7862  29.924  33.605  10.976
35548W        W 7863   0.303   8.601   4.668
35549W        W 7864  21.337   2.885  14.407
35550W        W 7865  35.910   1.275  12.127
35551W        W 7866  43.853   2.075   3.182
35552W        W 7867  41.616  24.323  11.443
35553W        W 7868  22.998  31.852   0.902
35554W        W 7869  10.509  25.751  11.932
35555W        W 7870  22.102  31.342  11.378
35556W        W 7871   7.382  43.569  12.813
35557W        W 7872  24.745   5.390   1.347
35558W        W 7873   6.306  12.436  11.460
35559W        W 7874   9.404   1.352   2.819
35560W        W 7875   9.874   3.335   4.553
35561W        W 7876  16.299  36.422  14.928
35562W        W 7877  35.699  15.058  14.788
35563W        W 7878  10.699  35.012   1.241
35564W        W 7879  17.696   5.910  14.425
35565W        W 7880  44.984  35.676  12.450
35566W        W 7881  23.295  19.239  14.585
35567W        W 7882   1.474  22.839   3.729
35568W        W 7883  11.639  29.546  10.362
35569W        W 7884  40.862  34.897  11.111
35570W        W 7885  34.228   3.937   4.289
35571W        W 7886  39.586  14.556   1.571
35572W        W 7887  11.691   1.784  11.109
35573W        W 7888   6.727  25.345   3.684
35574W        W 7889   8.740   3.782   4.504
35575W        W 7890  35.005  39.801   1.647
35576W        W 7891   8.769   7.840   2.327
35577W        W 7892   8.680  32.229   3.259
35578W        W 7893  23.712  15.622  11.472
35579W        W 7894   4.298  21.895   1.262
35580W        W 7895  32.677  12.495  14.535
35581W        W 7896  24.152  20.529   0.490
35582W        W 7897  19.290   0.200   3.342
35583W        W 7898  27.712  17.570   4.414
35584W        W 7899   1.038   2.235  11.042
35585W        W 7900  37.559  26.989  13.038
35586W        W 7901  35.954  27.570   2.129
35587W        W 7902  41.457   2.876  14.356
35588W        W 7903  10.099  31.135  10.652
35589W        W 7904   5.347  38.736  11.600
35590W        W 7905   5.793  22.543  12.171
35591W        W 7906  26.737  22.044  12.901
35592W        W 7907  29.941   5.936   0.698
35593W        W 7908  16.473  13.309  11.450
35594W        W 7909  14.353   1.199   4.138
35595W        W 7910  21.913   6.397  13.350
35596W        W 7911   7.113  43.347   4.765
35597W        W 7912  19.630   8.680   2.907
35598W        W 7913  14.104  44.311   1.305
35599W        W 7914  21.421  29.361   0.608
35600W        W 7915  42.363  44.495   1.453
35601W        W 7916   4.076  38.320  12.447
35602W        W 7917  29.678  24.040  14.428
35603W        W 7918  22.701  33.020   2.832
35604W        W 7919  30.194   3.714   4.686
35605W        W 7920   2.224  23.519  13.578
35606W        W 7921  23.573  18.238   4.245
35607W        W 7922  28.987  43.542   3.560
35608W        W 7923  26.028  26.531  12.960
35609W        W 7924   2.327   1.950  13.370
35610W        W 7925  29.420  42.794   4.101
35611W        W 7926  24.049  35.104  13.297
35612W        W 7927  43.990  14.315  11.157
35613W        W 7928  19.115  19.729  10.737
35614W        W 7929   3.138  29.072   0.193
35615W        W 7930  24.791   8.861  12.856
35616W        W 7931   1.165   5.166   3.731
35617W        W 7932  12.215  40.933   3.673
35618W        W 7933  13.041  25.707   3.337
35619W        W 7934  19.240  31.484   2.855
35620W        W 7935   8.300  43.302   1.703
35621W        W 7936   1.673  14.006  11.584
35622W        W 7937  37.380   0.384  13.350
35623W        W 7938  22.442   3.918  14.613
35624W        W 7939  44.955   2.410   0.771
35625W        W 7940   4.151  42.983  12.553
35626W        W 7941  38.524  34.417   1.339
35627W        W 7942   7.715   8.676  12.161
35628W        W 7943   0.747  43.208  13.957
35629W        W 7944  13.666   2.721   0.458
35630W        W 7945  26.571  24.294  13.858
35631W        W 7946  20.145   8.885   4.555
35632W        W 7947   7.236   9.167  13.463
35633W        W 7948  13.868  17.834   4.483
35634W        W 7949  33.896   5.229   1.244
35635W        W 7950   8.970  34.628  12.207
35636W        W 7951  36.951  36.701   1.696
35637W        W 7952  44.957   3.439  10.501
35638W        W 7953  33.627  18.109   3.712
35639W        W 7954   5.630  40.843   0.873
35640W        W 7955  26.234  33.498  11.736
35641W        W 7956  22.780  11.029   4.532
35642W        W 7957  22.988  15.889   3.550
35643W        W 7958  44.357  10.179  12.031
35644W        W 7959  40.051  34.466   1.411
35645W        W 7960  37.261  14.286  14.821
35646W        W 7961   7.173  26.381   4.548
35647W        W 7962  33.704   1.029  12.488
35648W        W 7963  29.474  25.058  11.098
35649W        W 7964  40.922  40.398   4.103
35650W        W 7965   5.218  26.065  14.761
35651W        W 7966   5.418  28.474   2.159
35652W        W 7967  27.668   7.796  10.826
35653W        W 7968  25.409  34.124   3.400
35654W        W 7969  44.985  23.487   1.817
35655W        W 7970  42.431  40.606  12.218
35656W        W 7971   0.659  37.867  14.720
35657W        W 7972  44.730   1.847  14.739
35658W        W 7973  18.027  25.546   0.351
35659W        W 7974  37.343   9.097  11.490
35660W        W 7975  31.123  13.103  10.295
35661W        W 7976   9.341  36.949  10.979
35662W        W 7977  14.266  33.610  12.075
35663W        W 7978   7.166  16.589  12.818
35664W        W 7979   5.756  44.926  12.783
35665W        W 7980  16.591   4.820  13.555
35666W        W 7981   9.402  31.065   4.805
35667W        W 7982   3.863   8.660   2.425
35668W        W 7983  16.654  14.844   0.437
35669W        W 7984  35.494  17.604   2.704
35670W        W 7985  24.104  13.686  14.904
35671W        W 7986  25.485  35.026   2.622
35672W        W 7987  20.710  16.651   1.429
35673W        W 7988   4.156   0.821  13.485
35674W        W 7989  25.330   9.084   0.849
35675W        W 7990  30.484  35.166  11.466
35676W        W 7991  28.110   1.900  10.284
35677W        W 7992  35.553  28.486   0.993
35678W        W 7993  30.045  11.326   0.018
35679W        W 7994   4.783  43.814   3.515
35680W        W 7995  17.358  39.253  11.498
35681W        W 7996  12.196  42.846  10.487
35682W        W 7997   6.657  14.589   3.376
35683W        W 7998  23.640   3.365   1.812
35684W        W 7999  12.510  31.829  10.087
35685W        W 8000  42.467   8.812   5.161
35686W        W 8001  15.226  44.097   2.894
35687W        W 8002  35.440  44.040   0.214
35688W        W 8003   6.361  37.960   1.110
35689W        W 8004  22.967   8.924  13.964
35690W        W 8005  35.606  20.098  13.103
35691W        W 8006   4.424  36.876  11.582
35692W        W 8007  38.149  36.769   3.557
35693W        W 8008  40.544  40.048   4.212
35694W        W 8009  25.020  18.262  14.886
35695W        W 8010  17.746  39.630   3.349
35696W        W 8011  15.342  30.546  11.033
35697W        W 8012  29.049  13.528   2.180
35698W        W 8013  30.486  17.885  11.231
35699W        W 8014  26.039  13.248   1.882
35700W        W 8015  36.965  32.673  10.801
35701W        W 8016   4.855  10.685   3.005
35702W        W 8017   9.652  13.369  10.723
35703W        W 8018  27.091  17.273   4.945
35704W        W 8019  18.537  29.127  12.943
35705W        W 8020   5.383  33.427   3.264
35706W        W 8021  20.596  27.320   1.433
35707W        W 8022  17.235  28.232  13.406
35708W        W 8023   0.925   4.492   1.351
35709W        W 8024  12.950  12.070   0.143
35710W        W 8025   4.139  13.568  14.777
35711W        W 8026  28.701   1.087   4.682
35712W        W 8027  21.772  21.176   3.084
35713W        W 8028   3.166  39.525   2.810
35714W        W 8029  38.034   0.954   4.148
35715W        W 8030   0.369  27.373   0.358
35716W        W 8031  28.314  10.590   2.793
35717W        W 8032  38.507  19.060  13.427
35718W        W 8033  44.842  23.493  12.515
35719W        W 8034  14.679   7.219   4.250
35720W        W 8035  30.639   3.356   2.938
35721W        W 8036  15.754  26.035  13.880
35722W        W 8037  30.687  28.342   3.282
35723W        W 8038  33.830  34.962   3.845
35724W        W 8039  21.192  39.911  12.561
35725W        W 8040  17.774  18.558   0.520
35726W        W 8041  16.806  15.924  10.991
35727W        W 8042  34.541  38.071   3.288
35728W        W 8043   5.378  26.578   0.532
35729W        W 8044  37.309  26.973  10.637
35730W        W 8045  22.049  36.842  11.505
35731W        W 8046   5.843  12.706   2.752
35732W        W 8047  20.588  13.596  13.602
35733W        W 8048  40.882   7.752  11.596
35734W        W 8049   1.750  11.404   0.711
35735W        W 8050   0.323  31.522   4.456
35736W        W 8051   4.638   6.172   2.792
35737W        W 8052  21.530   7.353   4.625
35738W        W 8053   3.772  19.629  13.424
35739W        W 8054  11.204   8.905   1.840
35740W        W 8055  19.045  17.658  12.300
35741W        W 8056  13.571  21.056   1.637
35742W        W 8057  25.902  19.911  14.083
35743W        W 8058  11.756   3.442  13.986
35744W        W 8059  32.947  16.172  14.000
35745W        W 8060   5.260  10.846   2.199
35746W        W 8061   7.260  44.093   2.941
35747W        W 8062  22.265  43.483   3.740
35748W        W 8063  14.881  41.394  13.323
35749W        W 8064  34.898  24.295  13.531
35750W        W 8065  41.432  14.125  11.148
35751W        W 8066  39.123  38.752   3.776
35752W        W 8067   4.704  39.664  10.357
35753W        W 8068  23.352  43.910   4.310
35754W        W 8069  42.603   4.153   0.853
35755W        W 8070  42.749  25.640  12.153
35756W        W 8071  29.274  35.806   4.241
35757W        W 8072   3.733  41.317  13.487
35758W        W 8073  21.898  12.894   4.943
35759W        W 8074  32.550   7.259  12.954
35760W        W 8075  11.672   4.832   4.274
35761W        W 8076  13.811  44.530  13.401
35762W        W 8077  10.901   6.846  13.317
35763W        W 8078  10.342  25.889   2.399
35764W        W 8079  38.832   1.752  13.666
35765W        W 8080  25.140  39.592   1.854
35766W        W 8081  26.472  41.800   3.704
35767W        W 8082   8.319  16.212   1.452
35768W        W 8083   2.176   8.336   2.305
35769W        W 8084  19.680  14.853  13.859
35770W        W 8085  43.559   4.674  11.133
35771W        W 8086  17.311  40.030  14.079
35772W        W 8087  43.066  22.211   3.301
35773W        W 8088  30.035  39.845   1.479
35774W        W 8089  25.621  43.306  13.133
35775W        W 8090  13.129   8.842   2.277
35776W        W 8091  17.157   1.847  10.265
35777W        W 8092  43.448   2.245   2.823
35778W        W 8093  43.534  35.229   1.289
35779W        W 8094   3.431   4.063  12.124
35780W        W 8095  41.913  13.421  11.269
35781W        W 8096  35.361  19.388  10.824
35782W        W 8097  10.166  35.882  12.060
35783W        W 8098  27.106  11.170  10.092
35784W        W 8099   0.487  37.647  13.551
35785W        W 8100  10.270   6.912  14.987
35786W        W 8101  29.579   7.775   1.950
35787W        W 8102   5.439  39.146  10.809
35788W        W 8103   0.990  23.928   0.753
35789W        W 8104   1.443  27.783  13.644
35790W        W 8105  29.621  10.638  14.700
35791W        W 8106  23.546  13.300   0.735
35792W        W 8107  13.385  14.329  14.261
35793W        W 8108  13.303   3.287   0.765
35794W        W 8109  13.014   8.964  12.471
35795W        W 8110  43.935  42.997   4.117
35796W        W 8111  14.554  40.280  14.704
35797W        W 8112  40.341  15.188   4.478
35798W        W 8113  21.147  39.520  12.212
35799W        W 8114  40.081   4.947  10.617
35800W        W 8115  16.877  34.020   1.860
35801W        W 8116   1.561  12.421   2.854
35802W        W 8117  30.991  10.384  14.014
35803W        W 8118  26.702  31.116  11.895
35804W        W 8119  32.756  35.983   1.800
35805W        W 8120  38.956  11.115  11.561
35806W        W 8121  11.949  23.814   2.581
35807W        W 8122   8.958  27.666  13.737
35808W        W 8123  19.156   8.657  12.055
35809W        W 8124   2.320  34.629   0.525
35810W        W 8125   5.211  31.693   0.916
35811W        W 8126  39.536  26.282   3.528
35812W        W 8127  33.112  24.129  11.337
35813W        W 8128  39.264  36.137  14.524
35814W        W 8129  33.136  29.898   1.383
35815W        W 8130   4.451  38.932   2.872
35816W        W 8131   2.508  18.161   1.754
35817W        W 8132  10.217  32.926   0.267
35818W        W 8133  11.215  34.854  12.650
35819W        W 8134  42.278  37.903  11.173
35820W        W 8135   9.949  30.810  12.200
35821W        W 8136   0.892   6.796  12.067
35822W        W 8137  38.809   8.898   3.119
35823W        W 8138  17.072  30.369   4.050
35824W        W 8139  21.781  24.120  12.794
35825W        W 8140   9.759  14.761   4.740
35826W        W 8141   7.873  36.430   3.205
35827W        W 8142   5.006  25.506   4.074
35828W        W 8143   4.287  30.900  10.932
35829W        W 8144   6.774   6.084   5.041
35830W        W 8145   1.592  38.058  12.256
35831W        W 8146   0.349  18.872   4.199
35832W        W 8147  44.798  32.356   1.833
35833W        W 8148   3.396  29.100  12.549
35834W        W 8149  13.770   6.935  11.228
35835W        W 8150  37.333   8.458  10.381
35836W        W 8151  36.397   4.635   3.929
35837W        W 8152  22.897  32.501   0.232
35838W        W 8153   7.069  36.528   1.674
35839W        W 8154  42.330  14.314   3.670
35840W        W 8155   3.458  12.400  14.932
35841W        W 8156  13.349  11.431   4.630
35842W        W 8157  23.734   6.109  11.210
35843W        W 8158  28.743  37.941   0.936
35844W        W 8159  32.981  14.283   0.260
35845W        W 8160  42.061   8.958   0.455
35846W        W 8161  24.984  12.059  11.205
35847W        W 8162  32.785  21.147   4.208
35848W        W 8163   0.638   3.346  13.315
35849W        W 8164  40.577   6.300   3.002
35850W        W 8165  35.828  18.141   4.523
35851W        W 8166  24.251   0.226  14.399
35852W        W 8167  22.473  20.648   3.883
35853W        W 8168  35.593   8.935   2.282
35854W        W 8169   1.685   5.410  13.323
35855W        W 8170  17.732  11.049  14.912
35856W        W 8171  15.720  10.831  12.895
35857W        W 8172  10.359  38.882  10.683
35858W        W 8173  40.007  41.338   1.160
35859W        W 8174  16.980  39.260   2.291
35860W        W 8175  17.993  31.093   2.454
35861W        W 8176  15.673  13.249  14.322
35862W        W 8177  34.527  31.936   2.154
35863W        W 8178  27.539  31.535   2.433
35864W        W 8179  36.867   5.103   4.068
35865W        W 8180  39.989   3.404   0.918
35866W        W 8181  17.729  30.619  10.910
35867W        W 8182  30.818  34.643  14.311
35868W        W 8183  29.267  39.726  13.154
35869W        W 8184  24.205  36.965  11.905
35870W        W 8185  21.158  22.073  12.132
35871W        W 8186  18.599  13.353  12.145
35872W        W 8187  39.575  18.674   3.232
35873W        W 8188   0.466   7.859   4.222
35874W        W 8189  44.232  29.177  11.104
35875W        W 8190  43.740  37.999   1.138
35876W        W 8191  36.962   0.067  12.518
35877W        W 8192  34.772   9.808   1.685
35878W        W 8193  24.677  44.462   4.606
35879W        W 8194  22.029  15.214   4.009
35880W        W 8195  12.646  34.591   2.142
35881W        W 8196  31.034  44.987   1.976
35882W        W 8197  44.424  27.624  11.327
35883W        W 8198  16.610  16.891  12.932
35884W        W 8199   6.194  44.012  14.084
35885W        W 8200  40.962  22.539   2.402
35886W        W 8201  18.241   2.920  11.139
35887W        W 8202  40.501  11.036  13.021
35888W        W 8203  43.459  33.836  13.945
35889W        W 8204  17.143  29.046   0.369
35890W        W 8205  21.502  38.028  14.573
35891W        W 8206  43.081  22.505  10.611
35892W        W 8207   0.431  14.376   4.019
35893W        W 8208  20.002  22.998  11.006
35894W        W 8209   1.185  17.764   1.823
35895W        W 8210  11.367  21.091  10.501
35896W        W 8211   2.634  24.399   3.182
35897W        W 8212  38.763   6.239   3.709
35898W        W 8213  40.397  33.542   0.012
35899W        W 8214  22.332  12.284  11.628
35900W        W 8215  35.254  28.625  11.471
35901W        W 8216  28.873   6.974  11.582
35902W        W 8217  24.607  20.303  12.213
35903W        W 8218  27.191  33.906  11.424
35904W        W 8219   8.387  11.860  13.416
35905W        W 8220   4.178  33.396   1.873
35906W        W 8221  28.017  34.980   3.730
35907W        W 8222  29.653  24.668  10.086
35908W        W 8223  13.218  37.960   2.587
35909W        W 8224  21.025  34.490  13.774
35910W        W 8225  39.111  34.438   4.138
35911W        W 8226  10.660  31.475   2.345
35912W        W 8227  43.654   7.442  11.572
35913W        W 8228  44.455  42.518  12.068
35914W        W 8229  28.192  18.658   0.248
35915W        W 8230  25.694   9.289   3.711
35916W        W 8231  21.172   4.225   1.210
35917W        W 8232  22.162  30.152   1.820
35918W        W 8233  41.525  11.471   3.899
35919W        W 8234  34.425  28.078   1.531
35920W        W 8235   8.356  16.039  13.557
35921W        W 8236  28.091   8.033   5.038
35922W        W 8237  24.797  25.720  12.744
35923W        W 8238  11.464  22.603   3.583
35924W        W 8239  24.427  43.930   0.223
35925W        W 8240  21.410  30.870   2.399
35926W        W 8241  21.272  41.225  13.179
35927W        W 8242  17.291   8.703  10.556
35928W        W 8243   3.653  11.820   0.189
35929W        W 8244  22.586  33.458  11.130
35930W        W 8245  20.439   3.195   3.749
35931W        W 8246  31.493  20.061  11.188
35932W        W 8247  21.398  32.930   2.661
35933W        W 8248  25.431  40.232  11.062
35934W        W 8249  36.916  43.309  14.040
35935W        W 8250  35.438  26.983   0.036
35936W        W 8251  25.613  35.378  10.707
35937W        W 8252   5.690  16.117  13.833
35938W        W 8253  37.901  41.899   0.213
35939W        W 8254  39.886  43.902   2.866
35940W        W 8255   5.839  12.301   4.547
35941W        W 8256  40.262   6.234  13.131
35942W        W 8257   6.128  13.426  11.009
35943W        W 8258   0.788  35.400   1.039
35944W        W 8259  26.657  23.059   0.714
35945W        W 8260  31.127  34.808  12.080
35946W        W 8261   8.613  11.261   4.551
35947W        W 8262   8.292  34.993  14.242
35948W        W 8263  31.620   9.565   2.965
35949W        W 8264   9.076  19.515  14.491
35950W        W 8265  36.877  12.400  11.982
35951W        W 8266  24.033   0.273  13.607
35952W        W 8267  13.672   8.885  12.028
35953W        W 8268   1.677  24.274   1.319
35954W        W 8269   6.700   6.308  14.464
35955W        W 8270   1.402  40.950  10.643
35956W        W 8271  26.641  30.653   4.109
35957W        W 8272  33.465  23.689  13.513
35958W        W 8273  40.890  37.464   5.013
35959W        W 8274  21.677  30.388   1.782
35960W        W 8275  40.515  19.265  10.935
35961W        W 8276   2.727   5.911  12.107
35962W        W 8277  20.144  15.331  12.102
35963W        W 8278  11.095  26.945   0.018
35964W        W 8279  33.168  38.046  11.854
35965W        W 8280  12.097   2.961   0.864
35966W        W 8281   0.555   2.629   3.244
35967W        W 8282   9.224  13.811  11.971
35968W        W 8283  26.102  27.013  13.192
35969W        W 8284  37.887  27.581   3.447
35970W        W 8285  14.173  19.142   4.589
35971W        W 8286  25.701  23.635  11.698
35972W        W 8287  26.280   6.735  14.801
35973W        W 8288  27.467  23.658   1.305
35974W        W 8289   7.830  41.531  10.791
35975W        W 8290  43.886  25.327  14.089
35976W        W 8291  10.215  28.149   3.716
35977W        W 8292  37.320   2.110  10.573
35978W        W 8293   5.011   6.708   1.907
35979W        W 8294  15.096  32.304   1.149
35980W        W 8295   5.310  31.639  12.476
35981W        W 8296  11.670  38.512  13.273
35982W        W 8297   5.770  11.158  10.398
35983W        W 8298  35.119   6.281   2.339
35984W        W 8299  41.336  18.733  14.414
35985W        W 8300  29.554  30.171   1.910
35986W        W 8301  21.014  30.186   3.647
35987W        W 8302  25.824  41.007   4.193
35988W        W 8303  23.668  17.598  12.538
35989W        W 8304  10.830  10.179   4.506
35990W        W 8305  32.432  17.331  12.162
35991W        W 8306  30.625  21.608  12.218
35992W        W 8307  13.278  11.387   1.203
35993W        W 8308  41.342  16.227  13.847
35994W        W 8309  25.036  39.476  10.471
35995W        W 8310  29.915   6.587  13.262
35996W        W 8311  19.644  29.164   0.790
35997W        W 8312  23.603  40.007   2.300
35998W        W 8313  10.262  29.826   1.958
35999W        W 8314  39.475  25.105  14.244
36000W        W 8315  16.270  29.528   2.149
36001W        W 8316   0.058  31.215  14.043
36002W        W 8317  31.192  27.853  12.462
36003W        W 8318  22.922  17.199   1.485
36004W        W 8319   5.339  40.664  11.595
36005W        W 8320  35.079   8.951  11.036
36006W        W 8321  38.902   8.809  14.069
36007W        W 8322  11.248  43.260   4.207
36008W        W 8323  40.366   4.875  11.507
36009W        W 8324  23.633  37.902  12.975
36010W        W 8325   3.419  33.416   4.093
36011W        W 8326  42.510  21.717   1.817
36012W        W 8327   5.169  41.290   5.222
36013W        W 8328  19.431  28.781   2.833
36014W        W 8329   5.787  21.006  12.963
36015W        W 8330  11.148  40.530  10.673
36016W        W 8331   3.922  31.417   0.725
36017W        W 8332  13.123   3.237   1.250
36018W        W 8333  40.838  33.146   3.204
36019W        W 8334  42.382  35.347  13.062
36020W        W 8335  16.207  33.591   3.720
36021W        W 8336   2.366   1.824  14.461
36022W        W 8337  12.748  34.085  14.998
36023W        W 8338  10.832  24.189  12.866
36024W        W 8339  28.434  41.528  11.714
36025W        W 8340  19.781   8.439   0.863
36026W        W 8341  26.537   2.176   3.779
36027W        W 8342  28.291  19.738  13.542
36028W        W 8343  11.387  28.630  10.621
36029W        W 8344   4.466  40.960  10.618
36030W        W 8345  14.079  29.015  12.166
36031W        W 8346  40.810  24.042  11.956
36032W        W 8347  32.561  31.361   4.450
36033W        W 8348  27.404  18.305  14.377
36034W        W 8349  18.598  34.602   3.164
36035W        W 8350   3.839  15.168   1.813
36036W        W 8351   5.519   6.746   1.855
36037W        W 8352  23.426  28.147   2.789
36038W        W 8353   0.299   0.778  11.033
36039W        W 8354  20.263  30.139   4.158
36040W        W 8355  17.370  15.627  14.260
36041W        W 8356  42.039  31.530   5.011
36042W        W 8357   0.483  43.321  12.132
36043W        W 8358  18.780  10.855  11.849
36044W        W 8359  30.590  12.227   2.467
36045W        W 8360   3.291   6.695  12.126
36046W        W 8361   6.263  16.768  12.885
36047W        W 8362  23.224  24.870   4.822
36048W        W 8363  23.006  37.786  11.597
36049W        W 8364  24.011  28.437  13.025
36050W        W 8365  27.985  34.638  14.657
36051W        W 8366  11.275   8.380   2.734
36052W        W 8367  16.766  36.838  11.200
36053W        W 8368  40.548  20.665  14.968
36054W        W 8369   4.074   7.876  14.791
36055W        W 8370  27.108   7.712  10.549
36056W        W 8371  18.076  39.338  10.776
36057W        W 8372  27.423  40.211  11.237
36058W        W 8373  27.982  22.831   2.748
36059W        W 8374  30.527  11.588   2.573
36060W        W 8375   1.626  44.285   3.626
36061W        W 8376  32.173  38.353   4.496
36062W        W 8377   2.550  23.947  13.438
36063W        W 8378  33.880  33.141  14.391
36064W        W 8379  26.654  12.047  12.401
36065W        W 8380  38.094  36.906   4.466
36066W        W 8381   0.767   1.752  14.779
36067W        W 8382  12.384  10.064   3.666
36068W        W 8383  35.543  28.218   4.326
36069W        W 8384  32.417   6.157   4.197
36070W        W 8385  28.094  22.751  14.905
36071W        W 8386  39.291  28.934  12.765
36072W        W 8387  44.906  15.329   0.301
36073W        W 8388  16.604   2.259  14.597
36074W        W 8389  11.713  13.313  11.493
36075W        W 8390  18.509  31.737   0.257
36076W        W 8391  17.089  35.300  13.517
36077W        W 8392   8.811  31.196   1.766
36078W        W 8393  38.259  18.556   0.946
36079W        W 8394  39.968  25.364  12.840
36080W        W 8395  17.863  25.647  11.504
36081W        W 8396  23.786  12.757   1.388
36082W        W 8397  36.522  20.989  13.295
36083W        W 8398  21.309  29.525  13.642
36084W        W 8399  13.662  24.373   1.260
36085W        W 8400  13.078  33.435  13.511
36086W        W 8401   9.601  19.852  12.455
36087W        W 8402  36.496  28.152  10.595
36088W        W 8403  44.365  17.702   4.347
36089W        W 8404   1.923  30.182  14.727
36090W        W 8405  18.529   4.508   3.151
36091W        W 8406  33.627   3.168   3.286
36092W        W 8407  34.534  38.922  11.443
36093W        W 8408  40.497  12.616  12.240
36094W        W 8409  35.782  34.479  12.189
36095W        W 8410  44.336  43.477   3.226
36096W        W 8411  41.497  39.005   4.919
36097W        W 8412  16.629  11.818   3.458
36098W        W 8413   8.366  29.286   3.758
36099W        W 8414   2.313  41.412   0.358
36100W        W 8415  39.891  16.038  12.994
36101W        W 8416  10.919  17.068   2.744
36102W        W 8417   5.397  11.575   1.171
36103W        W 8418  15.428  41.320  11.943
36104W        W 8419   8.363  14.141   2.304
36105W        W 8420   7.871   4.298   1.392
36106W        W 8421  42.545  23.273   1.752
36107W        W 8422  30.480  26.683   1.275
36108W        W 8423  16.604  25.016   1.896
36109W        W 8424  40.353  23.183  12.696
36110W        W 8425   6.924  41.062   1.828
36111W        W 8426  22.662  42.408   3.901
36112W        W 8427  10.039   6.927   9.594
36113W        W 8428   7.457  41.866  12.074
36114W        W 8429  10.687  14.826   4.805
36115W        W 8430  35.027   2.308  10.976
36116W        W 8431  10.580  41.320   0.827
36117W        W 8432   8.714   7.908   3.683
36118W        W 8433  44.020  38.476   1.036
36119W        W 8434   2.354   3.802  12.204
36120W        W 8435  40.771  38.677   0.862
36121W        W 8436  29.471   3.117   1.449
36122W        W 8437  11.813  30.439   3.347
36123W        W 8438  21.577   6.836   0.844
36124W        W 8439  14.215  20.240   0.933
36125W        W 8440   0.543  10.273  13.050
36126W        W 8441  37.505  30.582   0.452
36127W        W 8442  39.615  18.220  12.248
36128W        W 8443  16.820  28.467   1.708
36129W        W 8444  22.460   8.411  12.016
36130W        W 8445   4.875  12.613  11.199
36131W        W 8446  29.024  11.196  12.321
36132W        W 8447   7.988  21.079  12.544
36133W        W 8448  41.939  23.064  14.310
36134W        W 8449  27.827  15.601  13.324
36135W        W 8450  43.929  10.154   2.656
36136W        W 8451  16.217  40.111   1.265
36137W        W 8452  34.645  13.561   1.383
36138W        W 8453   6.262   2.148   4.756
36139W        W 8454  12.988   6.463  10.283
36140W        W 8455   1.360   6.963   4.342
36141W        W 8456  27.049  31.037   1.309
36142W        W 8457   0.480  39.206  12.942
36143W        W 8458  30.115  43.838   3.887
36144W        W 8459  30.812  11.813   2.207
36145W        W 8460  24.737  41.945   0.028
36146W        W 8461  12.819  15.604  13.147
36147W        W 8462  16.863  33.993   0.036
36148W        W 8463   7.767   1.719  14.465
36149W        W 8464  38.378  31.110  12.601
36150W        W 8465   9.020   6.781  13.716
36151W        W 8466  10.297   0.779   3.614
36152W        W 8467  10.373   6.413  12.070
36153W        W 8468  44.407  40.667   0.916
36154W        W 8469  18.017   8.811  13.456
36155W        W 8470  33.477  41.521  11.587
36156W        W 8471  41.772  42.974   2.378
36157W        W 8472  39.009  41.365  14.936
36158W        W 8473  37.374   9.611   4.247
36159W        W 8474   6.401  33.900  14.738
36160W        W 8475   8.719  26.236   0.089
36161W        W 8476  41.320  17.585  13.820
36162W        W 8477  10.360  42.266   3.661
36163W        W 8478  36.795  34.113  10.896
36164W        W 8479  41.228   6.791  13.566
36165W        W 8480  21.142  15.310  14.271
36166W        W 8481  17.778  30.195  14.443
36167W        W 8482  23.028  21.278  10.709
36168W        W 8483   8.797  15.824  11.675
36169W        W 8484  38.402  43.042   2.098
36170W        W 8485  12.341  23.163  14.290
36171W        W 8486   0.254   1.764  13.838
36172W        W 8487  19.936  22.836   2.437
36173W        W 8488  11.185  12.085   4.297
36174W        W 8489   6.240  15.534   0.252
36175W        W 8490  25.290  23.093  11.164
36176W        W 8491   5.950  13.493   4.132
36177W        W 8492  18.632   2.162  13.033
36178W        W 8493  21.561  43.811   2.732
36179W        W 8494  16.216  40.504  10.218
36180W        W 8495  35.137  17.128   0.872
36181W        W 8496  30.346   1.020   1.386
36182W        W 8497  42.261  28.024  13.975
36183W        W 8498  43.393  38.867  10.813
36184W        W 8499  14.194   7.648  11.884
36185W        W 8500  29.394  28.077   5.026
36186W        W 8501   2.612  35.337  12.794
36187W        W 8502  26.183  36.033  13.114
36188W        W 8503   9.940  31.180  13.821
36189W        W 8504  27.401   9.495   1.322
36190W        W 8505  13.166  19.649  11.685
36191W        W 8506  18.177  37.915  14.815
36192W        W 8507  43.449   0.033   1.831
36193W        W 8508  15.817  40.348  13.332
36194W        W 8509  33.498   5.929   4.192
36195W        W 8510  17.048  32.722  14.472
36196W        W 8511   7.115  32.285  13.901
36197W        W 8512   8.312  30.593  14.145
36198W        W 8513  19.285  21.218   2.870
36199W        W 8514  34.627   3.412   0.240
36200W        W 8515  19.899  27.982   1.000
36201W        W 8516  38.419  13.904   4.032
36202W        W 8517  20.076  23.204   0.009
36203W        W 8518  16.560  12.586   3.117
36204W        W 8519   2.021  38.286  12.157
36205W        W 8520  43.292  32.064   4.027
36206W        W 8521  44.022  25.602  13.348
36207W        W 8522  10.883   0.683  14.684
36208W        W 8523  22.514   6.041   3.859
36209W        W 8524   3.962  25.240  14.871
36210W        W 8525  30.811  17.162  13.885
36211W        W 8526  32.387  40.525   4.911
36212W        W 8527  38.562   1.851  10.711
36213W        W 8528   9.871  38.282   1.325
36214W        W 8529  37.031  24.063   3.198
36215W        W 8530  30.370  27.954   4.140
36216W        W 8531  36.345  12.067   3.120
36217W        W 8532  18.213   2.226   3.182
36218W        W 8533  35.509  44.440   2.049
36219W        W 8534  12.438  14.965   2.035
36220W        W 8535   7.224  21.735   2.159
36221W        W 8536  12.050  26.277   1.878
36222W        W 8537  24.011  21.623   5.520
36223W        W 8538  31.935  33.079  10.757
36224W        W 8539  35.683  36.950   1.963
36225W        W 8540  25.950  33.834   5.582
36226W        W 8541  21.139  13.058   0.819
36227W        W 8542   9.812  24.488  11.962
36228W        W 8543  32.850   3.698   2.313
36229W        W 8544  36.307  17.655  13.466
36230W        W 8545  35.843  23.782   2.122
36231W        W 8546  26.093  41.085   3.683
36232W        W 8547  10.684  20.345   3.863
36233W        W 8548   0.395  19.533  11.183
36234W        W 8549   6.952  18.460  11.594
36235W        W 8550  33.655  42.684   4.763
36236W        W 8551  27.671  34.921  13.436
36237W        W 8552  25.862   4.829  14.196
36238W        W 8553  11.273  22.069  12.960
36239W        W 8554  40.506  39.849   0.329
36240W        W 8555  17.434  37.033   1.447
36241W        W 8556  20.843  33.346   4.558
36242W        W 8557  26.856  33.662  11.098
36243W        W 8558  40.727  26.016  10.226
36244W        W 8559  14.180  41.019  14.792
36245W        W 8560  41.758  30.794  11.509
36246W        W 8561  41.341  35.038   2.261
36247W        W 8562  11.398   1.178  12.972
36248W        W 8563  40.437   7.505  11.440
36249W        W 8564  40.771  13.409  12.454
36250W        W 8565  35.257  30.930  11.543
36251W        W 8566  41.558   0.391  14.322
36252W        W 8567   0.344  43.989   3.665
36253W        W 8568   4.827  35.499   3.974
36254W        W 8569  42.055   0.236  10.685
36255W        W 8570  24.392  19.141  13.313
36256W        W 8571  22.770  33.114   1.318
36257W        W 8572  13.566  29.505  10.638
36258W        W 8573  39.279  26.490   9.735
36259W        W 8574  36.123   6.649   2.892
36260W        W 8575  41.520  41.039   3.396
36261W        W 8576  18.171  39.138  10.306
36262W        W 8577  30.949   0.327  13.607
36263W        W 8578  29.188  42.828  14.251
36264W        W 8579  23.521  26.976   3.775
36265W        W 8580  20.085   3.290   2.286
36266W        W 8581  29.202   1.828   2.872
36267W        W 8582  20.759  29.268   1.952
36268W        W 8583  17.514  10.622   1.213
36269W        W 8584  36.371  13.802   4.627
36270W        W 8585  22.056   2.956   3.769
36271W        W 8586  36.998  10.058   0.430
36272W        W 8587  34.785  12.385  14.439
36273W        W 8588  21.540  16.617  11.606
36274W        W 8589   4.085  26.518   0.497
36275W        W 8590  29.564   5.098  14.203
36276W        W 8591  22.726  18.558   1.311
36277W        W 8592  10.585  33.904  10.709
36278W        W 8593  22.382  19.519  13.353
36279W        W 8594  31.565  38.969  14.748
36280W        W 8595  21.014  23.727   4.249
36281W        W 8596  31.009  16.142   1.873
36282W        W 8597   3.473  41.839   2.370
36283W        W 8598  13.026  42.879  11.796
36284W        W 8599  40.423  42.106   3.254
36285W        W 8600  16.573  40.405   1.797
36286W        W 8601  12.810  21.176   3.969
36287W        W 8602  40.454  20.085   3.261
36288W        W 8603  37.011  19.834   0.189
36289W        W 8604  38.077  32.889   0.529
36290W        W 8605   0.926  23.153   1.185
36291W        W 8606  24.682  15.224  12.033
36292W        W 8607   1.761   2.516  14.389
36293W        W 8608   0.498  25.236   3.120
36294W        W 8609  23.453  30.553   4.107
36295W        W 8610  17.375   2.474   0.359
36296W        W 8611   5.105  29.506  13.546
36297W        W 8612  33.137  42.358   3.903
36298W        W 8613  35.496  37.895  11.791
36299W        W 8614  34.385  37.510  12.006
36300W        W 8615  16.311   4.843   4.486
36301W        W 8616  10.106  37.693   4.902
36302W        W 8617   9.810  15.162   1.472
36303W        W 8618   4.894  36.600   4.063
36304W        W 8619  13.287  12.643  12.670
36305W        W 8620  29.018  37.430  14.208
36306W        W 8621  44.872  44.036  12.902
36307W        W 8622  43.332  44.053  11.946
36308W        W 8623  34.129  10.848   3.730
36309W        W 8624   3.314  34.868  13.026
36310W        W 8625  22.360  18.121  12.476
36311W        W 8626  41.055   0.249  11.596
36312W        W 8627   7.047  12.936   0.733
36313W        W 8628  17.705   9.178  13.610
36314W        W 8629   8.257   5.291   4.088
36315W        W 8630  31.039  22.762  14.395
36316W        W 8631  36.703  30.595  10.402
36317W        W 8632  30.477  21.490   0.272
36318W        W 8633  32.430   4.785   1.963
36319W        W 8634  22.549  41.124  13.850
36320W        W 8635  21.249   8.400   4.020
36321W        W 8636  41.610  26.775  11.666
36322W        W 8637  23.180  34.997   2.640
36323W        W 8638  30.509  12.066   1.281
36324W        W 8639  34.366   3.541  12.241
36325W        W 8640   8.039  41.215  12.000
36326W        W 8641  38.738   2.274  13.270
36327W        W 8642   0.041  10.236   0.453
36328W        W 8643   2.807   2.538  11.765
36329W        W 8644  30.618  34.940   2.152
36330W        W 8645  40.288  34.557  10.941
36331W        W 8646  42.714  40.868  12.566
36332W        W 8647  20.730   3.523  14.235
36333W        W 8648   4.475  37.523  13.856
36334W        W 8649  44.947  15.634   4.221
36335W        W 8650  25.270  39.529   2.401
36336W        W 8651  22.168  38.415  12.492
36337W        W 8652  26.961  42.370  12.477
36338W        W 8653  36.226  44.061   2.282
36339W        W 8654  16.651  21.375   4.871
36340W        W 8655  30.487   0.394  13.403
36341W        W 8656   3.782  13.211  11.604
36342W        W 8657   5.129   6.856   4.438
36343W        W 8658  38.646  22.767   0.813
36344W        W 8659   8.473  15.824  10.692
36345W        W 8660  16.667   6.713   0.666
36346W        W 8661  13.615  21.324  14.325
36347W        W 8662  30.427  23.217   2.748
36348W        W 8663  21.236  42.335   3.828
36349W        W 8664  31.683   9.049   3.109
36350W        W 8665  19.029  37.051  12.503
36351W        W 8666   5.850  22.064  11.726
36352W        W 8667   3.422  18.299   4.294
36353W        W 8668  11.074  25.524  14.445
36354W        W 8669  33.624  27.922  10.790
36355W        W 8670  26.929  36.327   3.761
36356W        W 8671  16.026  12.597  11.164
36357W        W 8672  18.449  24.787   3.497
36358W        W 8673  36.282  32.180  11.274
36359W        W 8674  14.890   7.896   3.668
36360W        W 8675   7.898  30.550   1.050
36361W        W 8676  22.979  11.747   1.996
36362W        W 8677  24.655  20.380   0.372
36363W        W 8678   2.760  22.243   4.490
36364W        W 8679  43.889  35.466  14.969
36365W        W 8680  10.571  35.380   2.426
36366W        W 8681   0.461  21.298   4.863
36367W        W 8682  27.237  37.573  12.989
36368W        W 8683   2.902  40.601   1.850
36369W        W 8684  20.329  16.758   1.075
36370W        W 8685  28.734   9.320   3.203
36371W        W 8686  44.001  24.252  12.493
36372W        W 8687  25.599  10.655   2.965
36373W        W 8688   5.218   8.623   0.981
36374W        W 8689  40.336  21.901   0.824
36375W        W 8690   7.778  29.782  12.495
36376W        W 8691  44.260  41.508   1.758
36377W        W 8692  30.556   9.718   1.349
36378W        W 8693  35.472  20.744   3.095
36379W        W 8694  27.385  25.673   2.651
36380W        W 8695  43.499  26.530  13.379
36381W        W 8696  28.674   0.398  14.829
36382W        W 8697  23.691  32.590  12.084
36383W        W 8698   0.280  13.342   9.585
36384W        W 8699  40.427  21.033   1.686
36385W        W 8700   5.899   6.440  11.105
36386W        W 8701  18.663  16.019   0.488
36387W        W 8702  13.765  25.091   0.687
36388W        W 8703  20.674   9.823   0.472
36389W        W 8704  29.833  33.072   2.830
36390W        W 8705  21.596  24.033   1.835
36391W        W 8706  16.058  42.412  12.005
36392W        W 8707  19.660   6.171  13.599
36393W        W 8708  30.160  16.294   4.146
36394W        W 8709  30.116   6.362   0.969
36395W        W 8710  27.657  11.700  11.518
36396W        W 8711  36.523   1.528   4.842
36397W        W 8712  42.409  28.919   1.913
36398W        W 8713  18.821  18.658   0.387
36399W        W 8714  37.975  22.144  13.768
36400W        W 8715  33.665   1.564  14.490
36401W        W 8716  34.910  37.755  12.474
36402W        W 8717  22.641  40.688  11.532
36403W        W 8718  38.972  26.031   2.611
36404W        W 8719  10.774   0.855   3.845
36405W        W 8720  15.099  36.822   2.113
36406W        W 8721  21.699  42.498   2.238
36407W        W 8722  27.225  13.716   3.741
36408W        W 8723  40.381   5.035   4.553
36409W        W 8724   0.253  18.723  12.625
36410W        W 8725   7.318   1.401   2.607
36411W        W 8726  19.115  25.448  10.515
36412W        W 8727  18.946  12.649   4.194
36413W        W 8728  35.792  32.322   4.001
36414W        W 8729  14.530  12.218  13.005
36415W        W 8730  40.786   3.886  12.124
36416W        W 8731  13.238   4.780  11.473
36417W        W 8732  12.415  31.419  13.453
36418W        W 8733  24.710  18.087  11.955
36419W        W 8734   5.740   1.946  11.623
36420W        W 8735   7.826  34.642  12.965
36421W        W 8736  13.562  34.243   0.979
36422W        W 8737  27.021  27.705  10.599
36423W        W 8738  37.944  14.363  11.463
36424W        W 8739   2.250  30.724   1.187
36425W        W 8740  28.689  26.636  10.794
36426W        W 8741   2.963  42.772  14.282
36427W        W 8742  36.009  41.354   3.803
36428W        W 8743  20.736  15.822  12.880
36429W        W 8744  19.675  17.783  11.687
36430W        W 8745  37.084  30.357  10.685
36431W        W 8746  24.217  41.453  11.294
36432W        W 8747  20.144   6.511   1.689
36433W        W 8748  19.300  21.915  11.132
36434W        W 8749  31.418   1.706   4.606
36435W        W 8750  40.342   0.929   1.387
36436W        W 8751  22.523  43.817   1.720
36437W        W 8752  11.236  16.744   3.884
36438W        W 8753  33.279  39.053   5.019
36439W        W 8754  24.234  12.849   2.690
36440W        W 8755  43.396  36.564   3.770
36441W        W 8756  14.790  21.579  14.576
36442W        W 8757   2.825  29.219  13.895
36443W        W 8758  18.677  30.434   1.248
36444W        W 8759  26.387  31.998   3.097
36445W        W 8760  23.986  28.143  11.189
36446W        W 8761   3.875  11.821  13.415
36447W        W 8762  41.400  37.491   4.172
36448W        W 8763   8.882  30.386  11.498
36449W        W 8764   5.637  26.385   2.621
36450W        W 8765   2.883  34.400  13.369
36451W        W 8766  30.566  26.770  12.643
36452W        W 8767   4.825  14.752   3.654
36453W        W 8768  27.723  12.339  12.828
36454W        W 8769   8.425  23.036  12.021
36455W        W 8770  14.147  33.557  10.750
36456W        W 8771  12.400  27.144   3.757
36457W        W 8772  10.084  10.609  12.159
36458W        W 8773  19.006  24.057   2.377
36459W        W 8774  19.815  29.530  14.468
36460W        W 8775  39.349  27.361  10.204
36461W        W 8776  22.684  36.065   5.084
36462W        W 8777   0.384  35.545   0.286
36463W        W 8778  10.639  44.854   3.812
36464W        W 8779   4.331  29.971  11.410
36465W        W 8780  25.991  27.490   3.739
36466W        W 8781   7.372  15.491  12.918
36467W        W 8782  26.704   1.059   0.775
36468W        W 8783  18.917  28.098   1.202
36469W        W 8784  42.399  20.556   1.237
36470W        W 8785  17.050  32.414  11.981
36471W        W 8786  14.667   9.569   2.702
36472W        W 8787  25.307  21.632   5.079
36473W        W 8788  11.598   7.887  11.266
36474W        W 8789  42.228  13.897  11.711
36475W        W 8790  34.803  32.023   5.036
36476W        W 8791  20.419  19.127  14.179
36477W        W 8792  39.616   2.497   3.407
36478W        W 8793  20.578  17.380  11.582
36479W        W 8794  38.024  42.189  11.038
36480W        W 8795  38.603   2.978   4.839
36481W        W 8796  19.754   4.369  11.016
36482W        W 8797  31.108  36.399  10.818
36483W        W 8798   6.943  31.237   2.656
36484W        W 8799  32.430  44.937   2.658
36485W        W 8800  43.732  18.679  13.795
36486W        W 8801  39.431  44.872  14.089
36487W        W 8802  23.525  10.304  13.683
36488W        W 8803  23.275  13.276   1.893
36489W        W 8804  35.879  40.433  11.549
36490W        W 8805  11.431  33.404  10.675
36491W        W 8806   9.199   1.926   0.425
36492W        W 8807  29.048   3.042  14.244
36493W        W 8808   2.699   9.402   4.306
36494W        W 8809  26.019  25.624  12.559
36495W        W 8810   5.325  34.066   4.586
36496W        W 8811  42.820   3.656   3.707
36497W        W 8812  43.912  36.459  14.671
36498W        W 8813  28.394  21.485   0.887
36499W        W 8814  22.160   8.497   0.228
36500W        W 8815  40.599  21.988  13.835
36501W        W 8816  26.415  41.833  11.201
36502W        W 8817  35.086  28.824   3.644
36503W        W 8818  43.010   7.295   3.529
36504W        W 8819  35.624  19.050   3.198
36505W        W 8820  18.554  37.377   0.295
36506W        W 8821  41.590   3.330  12.180
36507W        W 8822  41.442  41.316  10.609
36508W        W 8823  43.772   6.331   2.527
36509W        W 8824  33.847   6.318  13.346
36510W        W 8825  15.581  38.579   4.154
36511W        W 8826  26.298  34.203   5.443
36512W        W 8827  33.506   9.765  10.762
36513W        W 8828  20.185  10.722  10.203
36514W        W 8829   9.906  34.792   1.756
36515W        W 8830   8.835  21.960  11.386
36516W        W 8831  21.017  14.020  13.836
36517W        W 8832  25.120  39.127   2.066
36518W        W 8833   0.753  28.555  13.438
36519W        W 8834   2.176   9.728  11.921
36520W        W 8835   6.911  31.749   4.247
36521W        W 8836  31.427  40.273  10.853
36522W        W 8837  19.831  12.909   0.903
36523W        W 8838  36.089  36.198   1.914
36524W        W 8839  24.032  10.381  11.203
36525W        W 8840  44.354  41.343   4.102
36526W        W 8841  34.622  37.579   3.119
36527W        W 8842  24.489  25.138  13.395
36528W        W 8843  39.983  10.475  13.292
36529W        W 8844  41.781  35.974  10.294
36530W        W 8845   3.131  18.204  13.873
36531W        W 8846   9.352  39.489  11.003
36532W        W 8847  25.195  28.976  10.834
36533W        W 8848   7.171  28.655   4.372
36534W        W 8849  25.884   9.244   0.862
36535W        W 8850  15.991   1.365  10.773
36536W        W 8851  41.111  12.679   2.734
36537W        W 8852  21.503  27.700   1.448
36538W        W 8853   2.978   3.870   1.496
36539W        W 8854  20.087  28.382  12.574
36540W        W 8855   6.681   0.508  11.060
36541W        W 8856  34.135  13.103  11.565
36542W        W 8857  37.431  16.204   3.690
36543W        W 8858  38.767   0.218   1.295
36544W        W 8859   1.659  20.425  11.413
36545W        W 8860  29.394  20.575  13.310
36546W        W 8861  19.810  17.359  14.351
36547W        W 8862  39.394  16.207  11.711
36548W        W 8863  11.274  10.220  10.268
36549W        W 8864  32.596  25.686   1.236
36550W        W 8865  39.082  13.794   3.885
36551W        W 8866   8.405  10.620  14.187
36552W        W 8867   4.440  11.880  12.648
36553W        W 8868  18.278   8.466  14.073
36554W        W 8869   9.965  43.747   2.074
36555W        W 8870  22.750   3.664  13.937
36556W        W 8871  25.131   0.518  14.921
36557W        W 8872   3.871  13.074   1.960
36558W        W 8873  21.061  32.380  13.208
36559W        W 8874  32.449   6.989  11.133
36560W        W 8875  11.577  28.104  13.728
36561W        W 8876  28.152  20.790  10.597
36562W        W 8877  35.589  11.740   2.140
36563W        W 8878  17.190  18.306   5.015
36564W        W 8879  41.959  41.371   1.378
36565W        W 8880  23.012  39.660   1.321
36566W        W 8881  17.197   3.377  11.156
36567W        W 8882  15.491  20.741   1.987
36568W        W 8883  26.334  17.288  12.930
36569W        W 8884  29.200  35.117   3.275
36570W        W 8885  39.142  24.328  13.629
36571W        W 8886  30.872  27.997   1.376
36572W        W 8887  34.011  24.646  12.113
36573W        W 8888  12.574  35.062   4.351
36574W        W 8889  21.708  10.334  11.462
36575W        W 8890  24.653   4.445   0.555
36576W        W 8891   8.256  25.600   1.344
36577W        W 8892  10.607  30.770  11.202
36578W        W 8893  39.900  18.667   4.661
36579W        W 8894  20.614  40.347  10.947
36580W        W 8895   4.823  38.487   0.173
36581W        W 8896   9.185  35.352  12.887
36582W        W 8897  25.115   1.030   0.022
36583W        W 8898   3.339   2.190   3.270
36584W        W 8899  16.909  28.137   4.606
36585W        W 8900  28.174  32.593   1.388
36586W        W 8901   2.965  17.700   1.328
36587W        W 8902  44.532  37.129   2.762
36588W        W 8903  40.927  13.409   4.730
36589W        W 8904  28.856  44.203  11.041
36590W        W 8905  24.080  34.175  13.571
36591W        W 8906  38.489  40.824  12.959
36592W        W 8907  10.120   7.821  14.870
36593W        W 8908  35.670   3.456  14.276
36594W        W 8909  12.205  31.563   2.112
36595W        W 8910  26.480   0.489   2.313
36596W        W 8911  19.682   3.444   3.325
36597W        W 8912  30.826  39.393  11.561
36598W        W 8913  27.195  40.452  14.833
36599W        W 8914  12.841  21.047  14.061
36600W        W 8915  22.699  26.563  12.654
36601W        W 8916   7.691  13.941   0.522
36602W        W 8917  40.362   5.463   1.398
36603W        W 8918  22.105  42.783  11.138
36604W        W 8919  17.677   1.672   0.763
36605W        W 8920  44.555  36.779   0.433
36606W        W 8921  17.183  39.056   0.399
36607W        W 8922  29.497  15.347   1.294
36608W        W 8923  17.466  37.280  10.687
36609W        W 8924   9.251  14.627   4.864
36610W        W 8925   7.228   2.337   2.246
36611W        W 8926   9.300  26.035  14.383
36612W        W 8927  12.150  15.783   4.242
36613W        W 8928  13.609   6.637   4.160
36614W        W 8929  29.577  41.738  13.408
36615W        W 8930  40.081  38.991   1.882
36616W        W 8931  40.889  16.378  12.026
36617W        W 8932  14.724  18.288   1.360
36618W        W 8933   5.983  39.416  12.032
36619W        W 8934  23.223  21.471  12.073
36620W        W 8935  33.971   6.662  10.691
36621W        W 8936  26.959   8.111   2.357
36622W        W 8937  42.467  44.770   2.338
36623W        W 8938  41.866  28.171  13.365
36624W        W 8939   3.284  38.040  12.067
36625W        W 8940  20.491  39.782   3.217
36626W        W 8941   8.814  19.156   4.884
36627W        W 8942  12.989   9.167   0.000
36628W        W 8943  18.217  23.939   3.618
36629W        W 8944  13.895  25.031   2.256
36630W        W 8945  44.951  18.021  14.925
36631W        W 8946  38.877  29.705  13.116
36632W        W 8947  33.122  32.388  13.865
36633W        W 8948  39.520  29.227   2.595
36634W        W 8949  44.496  13.081   2.638
36635W        W 8950  40.798  29.725   2.273
36636W        W 8951  36.264  30.112   4.948
36637W        W 8952  21.959  39.326  11.568
36638W        W 8953  36.856  33.647  12.104
36639W        W 8954   1.511  22.187  11.655
36640W        W 8955  34.923   0.580  12.925
36641W        W 8956  40.972  11.137   2.425
36642W        W 8957  41.386  30.508   0.934
36643W        W 8958  28.340  34.518  11.330
36644W        W 8959  10.768  22.365  12.797
36645W        W 8960   2.096  12.578  13.221
36646W        W 8961   1.038  38.019  11.522
36647W        W 8962  10.287  19.518  11.142
36648W        W 8963  28.186  32.129   3.107
36649W        W 8964   9.611  41.912   2.785
36650W        W 8965  37.376  25.135   3.789
36651W        W 8966  43.562  17.749  11.146
36652W        W 8967  23.197   8.380  13.951
36653W        W 8968  16.799  13.305   3.637
36654W        W 8969  43.488  23.425  12.135
36655W        W 8970   5.821   3.033  10.564
36656W        W 8971  10.098  36.547  10.542
36657W        W 8972  34.657  37.080  12.053
36658W        W 8973  24.262  41.252   0.343
36659W        W 8974   1.252  19.028   2.797
36660W        W 8975  39.297  34.308   0.495
36661W        W 8976   0.241  35.993   0.020
36662W        W 8977  41.864   1.504   2.231
36663W        W 8978  30.438   9.685   2.576
36664W        W 8979   2.463  39.352  10.615
36665W        W 8980  36.515  33.564  14.901
36666W        W 8981  36.035  33.446   3.235
36667W        W 8982  32.905  22.079   4.811
36668W        W 8983  13.535  24.611  10.585
36669W        W 8984  34.942  24.755  10.844
36670W        W 8985   5.385  37.483  11.918
36671W        W 8986  20.320  38.376   3.084
36672W        W 8987  32.605  40.534   2.454
36673W        W 8988  32.879  39.375  11.715
36674W        W 8989  39.127   9.173   4.270
36675W        W 8990  22.549   4.203   4.021
36676W        W 8991  17.533  37.640  14.732
36677W        W 8992   9.613  44.258  12.103
36678W        W 8993  13.185  37.468   2.735
36679W        W 8994  31.161   2.883  11.976
36680W        W 8995  28.033  16.645  13.869
36681W        W 8996   9.535   2.346  12.324
36682W        W 8997  21.815  29.771  14.329
36683W        W 8998  28.927  25.066   1.791
36684W        W 8999  14.253  42.805   4.695
36685W        W 9000  44.314   7.090   4.109
36686W        W 9001  13.219   5.936   4.514
36687W        W 9002  40.853  42.059  10.720
36688W        W 9003  11.416  17.688  13.863
36689W        W 9004   3.638  44.754   1.348
36690W        W 9005  43.386  23.221  14.559
36691W        W 9006  44.834  16.739   3.705
36692W        W 9007  21.459   8.983   1.931
36693W        W 9008   3.855   5.174   0.018
36694W        W 9009  44.163  13.670   1.284
36695W        W 9010  13.921  36.994  14.700
36696W        W 9011  25.783  13.377  13.942
36697W        W 9012  19.577   1.419  13.487
36698W        W 9013  41.569  21.084   0.814
36699W        W 9014  19.815  38.535   3.209
36700W        W 9015  17.567  41.305  14.574
36701W        W 9016   7.903  34.080   0.025
36702W        W 9017  34.188  13.095   0.879
36703W        W 9018   7.900  37.992  11.514
36704W        W 9019  18.698   7.516   3.640
36705W        W 9020  28.986  34.512  14.128
36706W        W 9021  32.065  28.671   1.691
36707W        W 9022  17.274   3.188   0.922
36708W        W 9023  31.527  41.273  11.618
36709W        W 9024  20.737  33.973  10.495
36710W        W 9025  26.260  14.513   3.645
36711W        W 9026   8.580  10.715  12.401
36712W        W 9027  44.254   1.818  13.016
36713W        W 9028   7.177   5.741  13.858
36714W        W 9029  35.126  20.981  13.054
36715W        W 9030  10.653  33.556   3.359
36716W        W 9031  12.742  32.005  11.189
36717W        W 9032   2.971  22.238   1.988
36718W        W 9033  23.145  17.174   3.350
36719W        W 9034  26.655   6.106  12.880
36720W        W 9035  37.663  15.710   4.555
36721W        W 9036  35.149  19.737   2.170
36722W        W 9037  16.500  44.310  13.434
36723W        W 9038  30.001   6.799   0.690
36724W        W 9039  15.309  36.381   2.282
36725W        W 9040  19.585   5.973   0.762
36726W        W 9041  41.651  37.493  13.529
36727W        W 9042  19.312  31.518  13.806
36728W        W 9043  10.638   6.515  14.913
36729W        W 9044   6.375  15.219  14.324
36730W        W 9045  27.150   2.731   3.530
36731W        W 9046   8.222  43.775   1.913
36732W        W 9047  16.094   3.016   3.804
36733W        W 9048   1.848   6.722  12.468
36734W        W 9049  34.106  30.367   4.532
36735W        W 9050  35.045  13.905   2.210
36736W        W 9051  25.974  25.524   3.766
36737W        W 9052  32.720   1.407  14.954
36738W        W 9053  36.932  18.110   3.044
36739W        W 9054  18.903  44.833   0.375
36740W        W 9055  11.653  35.449   2.303
36741W        W 9056   9.978  12.541   3.136
36742W        W 9057  37.928  39.315   3.125
36743W        W 9058  20.212  35.888  12.836
36744W        W 9059  29.643  13.150  10.683
36745W        W 9060  34.164  29.430   4.469
36746W        W 9061   3.014  13.283  14.399
36747W        W 9062  11.341   1.174   2.715
36748W        W 9063  13.267   1.458   1.901
36749W        W 9064  15.145  21.072  11.648
36750W        W 9065  33.064  11.411   2.827
36751W        W 9066  31.393   4.834  14.172
36752W        W 9067  24.121  14.914  10.626
36753W        W 9068   3.507  41.952  12.033
36754W        W 9069  37.455   6.131  11.173
36755W        W 9070  39.813  12.134  11.810
36756W        W 9071  31.345  27.157   4.162
36757W        W 9072  31.280  18.829  14.787
36758W        W 9073  36.539  26.511  10.443
36759W        W 9074  17.406  17.741   1.152
36760W        W 9075  31.340  25.028   3.331
36761W        W 9076  15.050  15.125   2.738
36762W        W 9077  38.463  23.700   0.674
36763W        W 9078   2.983  15.193  11.684
36764W        W 9079   4.515  27.991  11.681
36765W        W 9080   4.141  16.413   1.699
36766W        W 9081  24.677  18.111   4.202
36767W        W 9082  44.881  20.000  12.444
36768W        W 9083  41.222  29.406   1.775
36769W        W 9084  38.519  35.382  10.599
36770W        W 9085  44.200  22.741   2.901
36771W        W 9086  12.085  37.440   3.146
36772W        W 9087   1.686   8.147   3.222
36773W        W 9088  27.742  33.136  13.783
36774W        W 9089  13.797  34.881  12.876
36775W        W 9090  28.390  28.900   2.575
36776W        W 9091   2.534  11.229  14.783
36777W        W 9092  20.855  31.936  13.055
36778W        W 9093   2.035  11.137   4.477
36779W        W 9094  42.310  15.787  13.878
36780W        W 9095  32.618  33.368  11.706
36781W        W 9096  35.941  20.869  10.048
36782W        W 9097   9.121  24.544  13.519
36783W        W 9098  28.994  42.446   0.969
36784W        W 9099  10.295  39.808   2.011
36785W        W 9100  18.113  38.988   1.389
36786W        W 9101  39.758  17.544   4.558
36787W        W 9102   5.462  36.042  13.510
36788W        W 9103  34.962  28.062  11.146
36789W        W 9104   4.182  24.230   0.359
36790W        W 9105  41.194   8.299   0.895
36791W        W 9106  13.872  12.819  12.012
36792W        W 9107   3.525  14.760  11.091
36793W        W 9108  30.127   5.216  12.930
36794W        W 9109   5.899  15.766  14.418
36795W        W 9110  39.057  10.899   1.386
36796W        W 9111  10.693  39.070   0.830
36797W        W 9112  13.334   9.206   3.594
36798W        W 9113  27.852  28.803  14.805
36799W        W 9114   6.303   8.872   1.439
36800W        W 9115  32.992  38.808  14.694
36801W        W 9116  14.248  11.785   0.387
36802W        W 9117   4.802  32.628   0.003
36803W        W 9118   6.968  41.503   2.102
36804W        W 9119   9.283   9.812  14.894
36805W        W 9120  31.920   8.399  13.195
36806W        W 9121  43.400  36.360  11.607
36807W        W 9122   4.846   8.179  14.014
36808W        W 9123   5.972  14.223   3.772
36809W        W 9124   4.827  35.983   2.798
36810W        W 9125  11.736  35.898  14.396
36811W        W 9126   1.366   4.175  13.913
36812W        W 9127  17.641   7.676   2.331
36813W        W 9128  25.406   5.689  10.167
36814W        W 9129  25.212  32.993   1.449
36815W        W 9130   0.764   0.733  12.993
36816W        W 9131  20.326   7.341   3.304
36817W        W 9132  18.008  43.336   0.874
36818W        W 9133  18.162   8.669   1.735
36819W        W 9134  31.400  25.286  14.048
36820W        W 9135  26.843  11.397  13.115
36821W        W 9136  31.536  38.375   3.833
36822W        W 9137   4.423  14.793   2.326
36823W        W 9138  43.226   2.168   4.576
36824W        W 9139   6.965  44.677   4.163
36825W        W 9140  39.596  39.555   1.331
36826W        W 9141  36.877  33.676  10.619
36827W        W 9142   9.098  13.396  14.969
36828W        W 9143   7.898   5.878  12.999
36829W        W 9144   9.896  28.968  12.433
36830W        W 9145  29.593  38.793  10.326
36831W        W 9146   2.858  35.995   4.896
36832W        W 9147   5.230  27.210   2.776
36833W        W 9148  35.913  16.048   2.075
36834W        W 9149  34.838  42.684  12.519
36835W        W 9150  36.356  29.596  14.075
36836W        W 9151   6.416  36.418   0.855
36837W        W 9152  38.178  17.463   4.261
36838W        W 9153   4.972   7.552   5.044
36839W        W 9154   1.799  33.358  14.083
36840W        W 9155  11.114  29.835  13.376
36841W        W 9156  15.777   3.144  13.522
36842W        W 9157  12.024  17.832   3.289
36843W        W 9158  40.970   8.227   3.564
36844W        W 9159  18.490   0.670  11.237
36845W        W 9160  34.449  33.970   3.595
36846W        W 9161   0.080   8.124   4.515
36847W        W 9162  34.993  31.493  13.257
36848W        W 9163  33.813  26.489   2.442
36849W        W 9164   8.905  35.964  11.605
36850W        W 9165  23.296  14.288  10.505
36851W        W 9166  29.288  29.110   1.062
36852W        W 9167  39.907  17.482   2.456
36853W        W 9168  21.679  24.911  11.207
36854W        W 9169  11.707  17.026   1.227
36855W        W 9170  29.153  23.014   2.396
36856W        W 9171  26.758  11.794   1.301
36857W        W 9172  30.175  10.943  10.622
36858W        W 9173  37.853  41.612   4.896
36859W        W 9174  19.726  32.893   0.656
36860W        W 9175  28.478   6.411  11.654
36861W        W 9176  32.492  17.483  12.829
36862W        W 9177  37.905  26.173   5.620
36863W        W 9178  42.050  13.869   3.252
36864W        W 9179  22.740  15.950  11.721
36865W        W 9180  16.701  30.104  11.095
36866W        W 9181  21.051  41.283   0.036
36867W        W 9182  42.930  36.344   3.595
36868W        W 9183   9.929  36.381  12.014
36869W        W 9184   5.873   1.380   1.893
36870W        W 9185  35.983  25.149   3.790
36871W        W 9186  37.978   6.457   2.545
36872W        W 9187  39.608  14.629  14.047
36873W        W 9188  14.044  16.338  11.102
36874W        W 9189  36.900  20.984  11.899
36875W        W 9190  32.449  20.497   2.668
36876W        W 9191  18.562  14.629   2.682
36877W        W 9192   2.527  14.179   1.731
36878W        W 9193   2.688   4.290   1.333
36879W        W 9194  16.509  40.445   2.642
36880W        W 9195  15.308  23.794  14.811
36881W        W 9196   8.420   0.720   1.691
36882W        W 9197  12.903  22.660  12.044
36883W        W 9198   4.278  34.453   3.907
36884W        W 9199  23.524  43.942  10.226
36885W        W 9200  42.838  20.776   1.419
36886W        W 9201   3.822  33.352   4.650
36887W        W 9202  29.397   5.129  11.321
36888W        W 9203  18.035   3.020  13.782
36889W        W 9204  39.460  10.735   3.463
36890W        W 9205  39.486  36.065   3.457
36891W        W 9206  26.751   0.484  12.303
36892W        W 9207   3.944  23.115   2.880
36893W        W 9208   5.658  15.160  12.042
36894W        W 9209   5.169  37.297  10.848
36895W        W 9210  41.045  40.983  10.695
36896W        W 9211   6.067  40.045   4.972
36897W        W 9212  11.762  40.450  10.351
36898W        W 9213  25.791  23.747   1.891
36899W        W 9214  11.196  20.901  12.007
36900W        W 9215  28.169  27.459   3.660
36901W        W 9216  42.039  35.969  12.235
36902W        W 9217  34.610   4.960   1.443
36903W        W 9218  27.605   9.541   1.808
36904W        W 9219  38.924  23.947   0.505
36905W        W 9220  37.348  26.039   1.658
36906W        W 9221   3.752  26.052  11.112
36907W        W 9222   7.964  20.178   4.470
36908W        W 9223  31.883  33.880  14.896
36909W        W 9224   3.233  18.990   1.599
36910W        W 9225  11.647  25.073   4.237
36911W        W 9226   0.937  32.057   1.302
36912W        W 9227  32.358  39.963  11.196
36913W        W 9228  27.569  25.521   3.695
36914W        W 9229  29.111   9.073  11.589
36915W        W 9230  44.790  28.575   4.697
36916W        W 9231  19.995   4.801  11.526
36917W        W 9232  20.375  24.747  13.527
36918W        W 9233   2.563  23.971  14.947
36919W        W 9234   2.950  36.541   2.547
36920W        W 9235  39.354  44.927  12.135
36921W        W 9236   1.858  37.528   0.227
36922W        W 9237  24.664  32.948   0.653
36923W        W 9238   5.983  25.396  13.478
36924W        W 9239  40.056   9.624   0.949
36925W        W 9240   1.037   5.338   0.015
36926W        W 9241  10.230  19.723   0.269
36927W        W 9242  40.975  38.843  12.724
36928W        W 9243  20.341   0.342  10.380
36929W        W 9244   9.349  44.454   3.943
36930W        W 9245  33.141   2.925  10.640
36931W        W 9246  39.704   2.972   0.866
36932W        W 9247  20.098  44.381   4.199
36933W        W 9248  19.720  25.128   4.709
36934W        W 9249   4.013   8.322  10.868
36935W        W 9250  14.244  31.620  13.293
36936W        W 9251  25.740  30.465   3.672
36937W        W 9252  39.542  42.445   4.450
36938W        W 9253  18.366  34.087   1.921
36939W        W 9254  36.794  21.494   4.598
36940W        W 9255  24.614   3.956  10.996
36941W        W 9256   9.884  24.206   0.392
36942W        W 9257   3.049  30.018  11.570
36943W        W 9258  39.352  14.945   3.726
36944W        W 9259  24.170  36.973   3.163
36945W        W 9260  44.462   6.768   2.782
36946W        W 9261  25.029  22.633   0.946
36947W        W 9262  37.232  18.674   3.654
36948W        W 9263  39.635  22.927   1.854
36949W        W 9264  24.168  20.472  11.086
36950W        W 9265  37.616  11.203  13.556
36951W        W 9266   2.780  15.780   1.347
36952W        W 9267  22.039  30.893   1.197
36953W        W 9268  28.155  25.564  11.126
36954W        W 9269  25.141  12.723   1.681
36955W        W 9270   9.138  43.546   2.167
36956W        W 9271  42.975   1.733  14.356
36957W        W 9272  11.814   0.991  12.155
36958W        W 9273   3.845  15.673   3.944
36959W        W 9274  38.558  22.430   3.193
36960W        W 9275  39.879   9.421  11.159
36961W        W 9276  36.800  36.382  13.398
36962W        W 9277  13.542   7.324  14.016
36963W        W 9278  43.179  38.283  13.018
36964W        W 9279  28.717  37.491  10.644
36965W        W 9280  27.051   5.736  12.296
36966W        W 9281   3.570  27.000  13.072
36967W        W 9282   9.714  12.123   0.479
36968W        W 9283  19.996  15.138  14.622
36969W        W 9284  38.035   8.256   4.117
36970W        W 9285  35.286   8.157   2.272
36971W        W 9286   1.674  39.541   1.315
36972W        W 9287   2.636   2.166   2.719
36973W        W 9288  14.923   8.025   1.705
36974W        W 9289  38.832  15.825  13.963
36975W        W 9290  17.354  18.266   0.382
36976W        W 9291  32.157  29.482   0.587
36977W        W 9292  31.532  43.014   1.134
36978W        W 9293  13.731  35.029  13.854
36979W        W 9294   3.769  34.004  13.341
36980W        W 9295  35.595  41.031   2.039
36981W        W 9296  44.420  15.154  12.510
36982W        W 9297  43.669  28.409  12.506
36983W        W 9298   6.399  24.051   0.717
36984W        W 9299  37.639  23.223   3.491
36985W        W 9300   6.212  43.084   0.763
36986W        W 9301  11.727  14.719   3.894
36987W        W 9302  25.671  23.180   1.208
36988W        W 9303   5.887  39.286  12.526
36989W        W 9304  10.190   7.157  14.514
36990W        W 9305  34.112  27.591  14.344
36991W        W 9306  17.162   9.335   2.600
36992W        W 9307  12.374   7.265   3.314
36993W        W 9308  34.136   6.641  11.591
36994W        W 9309  44.522  30.381   2.418
36995W        W 9310  20.668  10.326   3.367
36996W        W 9311   4.699  20.450   1.303
36997W        W 9312  28.691  16.671   4.756
36998W        W 9313  26.241  18.255  12.903
36999W        W 9314   3.712   8.036   1.412
37000W        W 9315  39.957  39.116   0.218
37001W        W 9316  40.001  21.128  14.061
37002W        W 9317  37.450   6.176  13.953
37003W        W 9318  22.215  12.883  11.130
37004W        W 9319  33.635  27.750   4.412
37005W        W 9320   4.759  29.810   2.912
37006W        W 9321  20.271  31.126   0.482
37007W        W 9322  19.563  33.380   1.453
37008W        W 9323  40.487  14.357   9.891
37009W        W 9324  22.612  13.109   4.710
37010W        W 9325  35.079  22.346  13.499
37011W        W 9326  34.026  32.387   0.004
37012W        W 9327  30.693  15.602   0.794
37013W        W 9328  35.731   4.320   2.440
37014W        W 9329  16.880  24.274  11.710
37015W        W 9330   2.292  28.138   3.151
37016W        W 9331  34.889  15.538  12.518
37017W        W 9332  33.831  22.049   4.260
37018W        W 9333  11.238  16.130   4.497
37019W        W 9334  39.410  33.373   1.803
37020W        W 9335  18.685   7.927  14.885
37021W        W 9336  42.228   5.784  13.414
37022W        W 9337   4.832   8.461   4.514
37023W        W 9338  19.846  15.651  12.452
37024W        W 9339  31.955  44.422   2.730
37025W        W 9340  14.027  40.991   3.243
37026W        W 9341  26.695  36.169   3.288
37027W        W 9342  40.521  36.108  10.780
37028W        W 9343  20.195  40.863  12.460
37029W        W 9344  26.518  19.787  14.768
37030W        W 9345  11.091   7.261   1.657
37031W        W 9346  23.612  43.463  10.551
37032W        W 9347  24.483  24.029   4.778
37033W        W 9348  19.655  14.265  11.586
37034W        W 9349  18.974  40.869   0.471
37035W        W 9350  13.770  39.846   2.937
37036W        W 9351  20.057  19.484   4.675
37037W        W 9352  17.728   1.952   3.145
37038W        W 9353  35.309  15.849  14.834
37039W        W 9354  11.655  28.153  10.084
37040W        W 9355  28.610  20.463   3.237
37041W        W 9356  32.590  42.528   3.334
37042W        W 9357  39.965  28.979  14.363
37043W        W 9358   8.769  32.901  11.539
37044W        W 9359  18.251  28.425   3.653
37045W        W 9360  27.401   5.342   0.483
37046W        W 9361   6.274   2.862   3.337
37047W        W 9362  38.862  43.617  11.227
37048W        W 9363  36.617   8.479  14.856
37049W        W 9364  43.474  25.459  13.790
37050W        W 9365  36.438  40.378   5.062
37051W        W 9366  20.957   0.406   2.213
37052W        W 9367   2.463   4.441  14.016
37053W        W 9368   1.704   3.421  12.085
37054W        W 9369  38.618  35.481   4.841
37055W        W 9370  16.813   3.367  11.507
37056W        W 9371  28.538  41.268  14.917
37057W        W 9372  23.776  39.833  10.467
37058W        W 9373   6.711   2.059   1.844
37059W        W 9374  29.902  12.127   4.145
37060W        W 9375  33.074  39.844   0.933
37061W        W 9376  12.705  28.493   1.794
37062W        W 9377   2.887  37.718  12.014
37063W        W 9378  12.935  44.138  13.384
37064W        W 9379  40.892  12.261  13.276
37065W        W 9380   1.458   5.885   2.604
37066W        W 9381   9.962  16.624   2.743
37067W        W 9382  19.448  44.939  11.178
37068W        W 9383  19.091  16.753   0.452
37069W        W 9384  29.959  30.653  13.387
37070W        W 9385  27.297  30.649   2.275
37071W        W 9386  27.980  27.936   3.649
37072W        W 9387  24.795  40.115   3.444
37073W        W 9388  25.727  13.101  11.614
37074W        W 9389  31.106  21.673   2.583
37075W        W 9390   8.339  39.984   4.531
37076W        W 9391   4.815   0.814   2.213
37077W        W 9392  10.444  29.046   1.267
37078W        W 9393  44.821  15.719  13.546
37079W        W 9394  28.461  39.819   2.524
37080W        W 9395  12.776  41.567  14.018
37081W        W 9396  23.846   6.214   3.219
37082W        W 9397  40.562  25.709  11.699
37083W        W 9398   1.220  26.845  13.007
37084W        W 9399  15.067  31.453   0.695
37085W        W 9400  19.109  19.670   3.835
37086W        W 9401  40.876   8.635  11.193
37087W        W 9402   6.337  44.557   4.598
37088W        W 9403   0.358  27.749  12.463
37089W        W 9404  23.705  35.918  13.040
37090W        W 9405  13.706  22.801   2.799
37091W        W 9406  39.410  43.761   1.722
37092W        W 9407  34.945   1.040   1.758
37093W        W 9408   8.224   0.439   3.153
37094W        W 9409   6.540  11.207   3.521
37095W        W 9410  12.062  20.649   2.612
37096W        W 9411  32.295   9.489  11.118
37097W        W 9412  10.346  21.919  14.846
37098W        W 9413  20.063  22.989  14.541
37099W        W 9414  10.300  15.206   2.430
37100W        W 9415  28.876  13.031   2.253
37101W        W 9416  29.121  44.536   2.156
37102W        W 9417   6.683  18.182   4.322
37103W        W 9418  44.337   4.383  10.761
37104W        W 9419  22.405  44.031  13.314
37105W        W 9420  23.654  30.119  14.915
37106W        W 9421   4.186  22.168   3.233
37107W        W 9422   2.409  33.585  14.738
37108W        W 9423   7.231  42.354  13.994
37109W        W 9424  26.181  33.109  14.337
37110W        W 9425   2.405   3.399  13.278
37111W        W 9426  13.505   4.755   3.880
37112W        W 9427  25.720   5.304  11.651
37113W        W 9428  12.852  23.682   4.128
37114W        W 9429  37.051  43.514   4.564
37115W        W 9430   8.989  10.130  10.744
37116W        W 9431  17.065  44.011   0.937
37117W        W 9432  25.466  39.079   3.452
37118W        W 9433  37.022  27.263  12.086
37119W        W 9434   1.871  14.040  14.765
37120W        W 9435  15.082  33.376  11.505
37121W        W 9436   7.378  15.596   2.783
37122W        W 9437  19.008  11.310  14.362
37123W        W 9438  23.029  11.059  12.405
37124W        W 9439  29.426  43.964   1.296
37125W        W 9440  16.506  42.171  13.739
37126W        W 9441   9.045  21.058  13.459
37127W        W 9442  34.761  11.849  11.181
37128W        W 9443  11.416  21.702   2.186
37129W        W 9444  11.215  12.538   2.266
37130W        W 9445  35.939  29.490   2.201
37131W        W 9446  26.815  35.953  14.239
37132W        W 9447  15.639   9.683   1.755
37133W        W 9448   7.920  18.879   1.639
37134W        W 9449  24.663  21.076   4.049
37135W        W 9450  22.339   2.331  10.845
37136W        W 9451   0.964   8.111   1.306
37137W        W 9452   4.897  18.268   0.718
37138W        W 9453  44.935  23.019   1.314
37139W        W 9454   9.316  23.218   0.700
37140W        W 9455  36.403  30.005  11.205
37141W        W 9456   6.962   8.254   0.831
37142W        W 9457   8.561  39.412  13.338
37143W        W 9458   3.889  36.865   2.353
37144W        W 9459   8.343  40.454   4.841
37145W        W 9460  13.319  36.565   1.902
37146W        W 9461   4.732  28.954  10.716
37147W        W 9462  36.114  41.400  14.436
37148W        W 9463  38.986  35.877   3.301
37149W        W 9464  20.721   8.497  13.284
37150W        W 9465   3.879   1.129   4.623
37151W        W 9466   7.019   3.994   1.721
37152W        W 9467  30.531  36.824   4.569
37153W        W 9468  16.438  38.552   2.805
37154W        W 9469  16.598  28.705  13.924
37155W        W 9470  24.061  32.517   1.052
37156W        W 9471  11.340   2.627   1.284
37157W        W 9472  39.959   4.823  11.983
37158W        W 9473  26.599   9.151  14.376
37159W        W 9474   8.300  38.905  13.129
37160W        W 9475   6.226  32.103  12.291
37161W        W 9476   0.469  14.098   3.085
37162W        W 9477   5.803  25.576  13.006
37163W        W 9478   5.721  16.857  11.038
37164W        W 9479  19.817  24.211  13.839
37165W        W 9480  30.051   4.745   1.664
37166W        W 9481   4.416  26.910  12.815
37167W        W 9482   7.485  39.542  13.326
37168W        W 9483  20.570   3.987   1.189
37169W        W 9484  33.585  16.041  14.427
37170W        W 9485   3.431  20.933   1.921
37171W        W 9486  22.610  26.410   4.509
37172W        W 9487  41.361   6.042  11.592
37173W        W 9488  21.795   1.419  13.998
37174W        W 9489  15.834  43.301   2.662
37175W        W 9490  15.318  40.811  11.052
37176W        W 9491  21.506  30.981  14.800
37177W        W 9492  12.110  38.830   4.144
37178W        W 9493  20.044  20.249  10.782
37179W        W 9494  18.150   5.954  11.699
37180W        W 9495  41.448   0.851  13.569
37181W        W 9496   6.699  29.539  14.301
37182W        W 9497  12.687  30.588   1.932
37183W        W 9498  15.061  24.118  11.695
37184W        W 9499  34.924  16.660   0.877
37185W        W 9500  40.942  17.308  13.557
37186W        W 9501  25.575  24.140  11.512
37187W        W 9502  41.927   2.945  13.934
37188W        W 9503  42.680  24.290   2.625
37189W        W 9504  12.669   5.495   2.049
37190W        W 9505  30.659  24.971   4.020
37191W        W 9506  34.401  36.374  10.700
37192W        W 9507  18.109  28.999   0.480
37193W        W 9508  10.307   5.307  14.496
37194W        W 9509  16.155   4.191   2.726
37195W        W 9510  40.899  39.929   3.866
37196W        W 9511  34.860  39.937   2.640
37197W        W 9512  19.945   1.865  12.386
37198W        W 9513  38.537  32.612   1.417
37199W        W 9514  33.634  23.647  10.812
37200W        W 9515  37.431  20.991   3.107
37201W        W 9516  24.581  35.443   4.777
37202W        W 9517   5.318   9.844   2.311
37203W        W 9518  36.948  37.790   3.868
37204W        W 9519  34.401  20.172  11.548
37205W        W 9520   1.778  26.160   4.558
37206W        W 9521  32.951   7.595  12.779
37207W        W 9522  23.678  28.520   1.985
37208W        W 9523   8.156  12.599   3.951
37209W        W 9524   1.169  18.572  14.565
37210W        W 9525  31.464  21.695   0.715
37211W        W 9526  33.032  23.990   2.333
37212W        W 9527   7.106  22.517   4.518
37213W        W 9528  17.252   0.227  13.749
37214W        W 9529   3.997  17.663  13.920
37215W        W 9530  22.630  41.367  12.959
37216W        W 9531   0.543  32.964   2.572
37217W        W 9532  30.872  41.787  14.817
37218W        W 9533  36.791  14.315   3.775
37219W        W 9534  12.690  28.629  13.564
37220W        W 9535  28.346  18.633   2.384
37221W        W 9536   4.922  41.840   4.610
37222W        W 9537  32.199  19.204   4.215
37223W        W 9538  23.722  39.973   1.784
37224W        W 9539  42.691   2.525  13.573
37225W        W 9540   2.014  18.766   4.594
37226W        W 9541   8.403  30.961  13.745
37227W        W 9542   2.846   5.746  11.251
37228W        W 9543  34.656  12.380   0.239
37229W        W 9544  26.414  25.224  14.979
37230W        W 9545  21.213  38.501   3.035
37231W        W 9546  35.043  37.976  13.715
37232W        W 9547  30.043   0.053   4.501
37233W        W 9548   9.417  29.001   4.283
37234W        W 9549  36.475  21.761  12.883
37235W        W 9550   9.834  21.023  10.888
37236W        W 9551   9.732  33.453  14.379
37237W        W 9552  27.106   4.362  11.321
37238W        W 9553  35.044  23.603  12.124
37239W        W 9554   1.186  25.084  14.051
37240W        W 9555  41.908  39.323   3.241
37241W        W 9556  24.213   2.897  12.134
37242W        W 9557   8.420   2.311   4.670
37243W        W 9558  25.686  21.032   4.159
37244W        W 9559  13.418  16.847   0.631
37245W        W 9560  20.789  30.208   1.759
37246W        W 9561   3.528  27.650  14.608
37247W        W 9562  38.910   3.222  10.826
37248W        W 9563  40.053  26.673   4.060
37249W        W 9564   7.446  33.867  14.962
37250W        W 9565   3.036  32.945  12.910
37251W        W 9566  18.187  20.766  13.422
37252W        W 9567   5.441  39.536   3.202
37253W        W 9568  14.761  43.836   2.851
37254W        W 9569  38.929  27.799   4.116
37255W        W 9570   4.796  38.132  12.996
37256W        W 9571  42.125  40.754   2.610
37257W        W 9572  29.568  37.084  11.447
37258W        W 9573  43.941  14.575   4.858
37259W        W 9574  11.512  40.897  10.480
37260W        W 9575  16.597  24.192  13.472
37261W        W 9576  38.446   2.188   1.433
37262W        W 9577  29.993   1.983  14.068
37263W        W 9578  14.183  44.861  14.319
37264W        W 9579  43.320  31.124  10.621
37265W        W 9580   8.797  22.214  10.372
37266W        W 9581  27.182   4.011   2.033
37267W        W 9582  14.274  28.171   3.684
37268W        W 9583  25.527  19.196   2.312
37269W        W 9584  38.998   0.389   3.257
37270W        W 9585  29.666   5.459  12.847
37271W        W 9586  40.930   5.980  12.549
37272W        W 9587  16.271  40.095   5.525
37273W        W 9588  11.085  38.786  11.121
37274W        W 9589  22.299   4.484  13.957
37275W        W 9590  41.422  21.780   1.752
37276W        W 9591  39.834  22.309   2.854
37277W        W 9592  13.005   4.894  11.025
37278W        W 9593  16.901  34.821   3.422
37279W        W 9594  19.450  14.122   0.877
37280W        W 9595  28.246  27.760  10.306
37281W        W 9596  43.327   0.401   0.464
37282W        W 9597  25.563  41.453  10.768
37283W        W 9598  21.237  14.149   0.805
37284W        W 9599  10.980  32.741   4.262
37285W        W 9600   1.895   3.916   1.873
37286W        W 9601   8.746   5.779  14.998
37287W        W 9602  30.940  30.144  10.979
37288W        W 9603  13.311  12.358  11.423
37289W        W 9604  21.148  18.364  11.194
37290W        W 9605  31.141  24.628   4.537
37291W        W 9606   4.829  20.638  10.685
37292W        W 9607  32.701  40.162   0.773
37293W        W 9608  17.626  26.770   0.960
37294W        W 9609  15.857  15.670  14.479
37295W        W 9610  25.056   7.369  11.082
37296W        W 9611  24.546  36.101   1.333
37297W        W 9612  42.281  29.621  12.527
37298W        W 9613  24.658  28.341  13.007
37299W        W 9614  41.684  39.780  13.242
37300W        W 9615   2.922  16.565  12.912
37301W        W 9616  24.239   8.614  12.812
37302W        W 9617  43.433   9.944   1.855
37303W        W 9618  38.025  27.477   0.242
37304W        W 9619  23.629  21.577  10.764
37305W        W 9620  20.665  22.946   3.683
37306W        W 9621  41.567  26.080   1.363
37307W        W 9622   9.508  14.840   0.021
37308W        W 9623  39.139   9.713  12.530
37309W        W 9624   1.750  32.574  13.049
37310W        W 9625  29.923  15.742   2.948
37311W        W 9626   1.662  15.026   0.893
37312W        W 9627  32.364  35.181  12.843
37313W        W 9628  34.357  32.783  14.257
37314W        W 9629  28.069  28.202   3.198
37315W        W 9630  28.634   6.207  11.223
37316W        W 9631  23.660   4.102  14.024
37317W        W 9632  21.102  19.514  11.314
37318W        W 9633  24.117  28.637  11.256
37319W        W 9634  27.987  42.065  12.460
37320W        W 9635   7.441  44.754  10.945
37321W        W 9636  44.494  39.120   1.664
37322W        W 9637  14.483  24.026  13.405
37323W        W 9638  17.538  35.284   2.777
37324W        W 9639  22.046  14.278   3.764
37325W        W 9640  41.135  39.853  13.833
37326W        W 9641  24.059  36.452   1.921
37327W        W 9642  23.574  19.083   0.010
37328W        W 9643  11.178  27.190   4.715
37329W        W 9644  16.147  30.225  11.504
37330W        W 9645  38.364  20.462   4.090
37331W        W 9646  16.590  13.173   0.307
37332W        W 9647  39.570   2.854  12.163
37333W        W 9648  21.770   5.667   1.208
37334W        W 9649  20.026  30.959   4.374
37335W        W 9650  18.666  36.717   3.245
37336W        W 9651  39.069  37.347   4.353
37337W        W 9652  20.872  36.969   3.831
37338W        W 9653  39.389  22.490   4.745
37339W        W 9654  33.503  20.992   1.482
37340W        W 9655  18.575   4.815   0.510
37341W        W 9656   8.284  29.736   4.611
37342W        W 9657  28.086  18.797   4.619
37343W        W 9658  11.237  15.186   4.479
37344W        W 9659   9.629  32.257   4.131
37345W        W 9660  35.257  42.607   4.586
37346W        W 9661  35.308   0.190  11.652
37347W        W 9662  32.940  41.346   2.635
37348W        W 9663  26.889  36.080  13.706
37349W        W 9664   0.788  35.917   0.928
37350W        W 9665  16.557  20.001   0.955
37351W        W 9666   1.226  40.968   4.088
37352W        W 9667   7.493   7.106   1.199
37353W        W 9668  30.979  15.228   1.024
37354W        W 9669  15.877  17.898  11.604
37355W        W 9670  36.785  38.939   1.879
37356W        W 9671  33.842   0.320   4.512
37357W        W 9672  25.188   8.969   2.453
37358W        W 9673  41.267   5.270   4.105
37359W        W 9674  24.187  43.920   1.628
37360W        W 9675  21.826  42.812  14.954
37361W        W 9676   7.509  29.070  11.262
37362W        W 9677   4.109  13.694   4.786
37363W        W 9678  16.813  26.621   1.401
37364W        W 9679  13.247  18.989  14.707
37365W        W 9680  41.796  14.220  14.212
37366W        W 9681  28.321  30.612  14.248
37367W        W 9682  43.949  19.172   0.510
37368W        W 9683  33.474  35.133  11.142
37369W        W 9684  40.751  29.474   4.759
37370W        W 9685  35.405   1.084  12.172
37371W        W 9686   6.961  24.442   0.254
37372W        W 9687  14.603  40.934  13.493
37373W        W 9688  30.437  21.261  13.379
37374W        W 9689  42.384  38.868  13.332
37375W        W 9690  20.166  16.696   2.117
37376W        W 9691   4.440  25.609   0.283
37377W        W 9692  38.354   3.628   4.592
37378W        W 9693   5.779  31.330   4.560
37379W        W 9694  25.894   1.419  14.949
37380W        W 9695   3.770  26.522   1.925
37381W        W 9696   5.715  18.136   2.724
37382W        W 9697   7.794   9.459  14.544
37383W        W 9698  27.719   4.796  12.946
37384W        W 9699   8.691  24.770  13.868
37385W        W 9700  29.684  27.341   3.653
37386W        W 9701  13.318  35.047   5.021
37387W        W 9702  33.652  34.305  11.045
37388W        W 9703  43.496  33.441  11.699
37389W        W 9704   0.761   9.613   2.898
37390W        W 9705  39.269  34.428   2.704
37391W        W 9706  20.134  13.823  13.437
37392W        W 9707  32.112  32.430  11.679
37393W        W 9708  43.297  43.613   4.351
37394W        W 9709  18.971   9.772  11.181
37395W        W 9710   1.278   9.463   4.127
37396W        W 9711  22.443  30.360   0.637
37397W        W 9712  11.159  20.160  14.423
37398W        W 9713  30.443   4.235  12.077
37399W        W 9714  14.757  18.766   3.191
37400W        W 9715  16.082  36.821   3.044
37401W        W 9716  43.851  29.461  12.429
37402W        W 9717  44.438   5.923   1.404
37403W        W 9718   1.539  24.101  14.316
37404W        W 9719  20.762   7.813   1.170
37405W        W 9720  33.622   2.388   1.807
37406W        W 9721  18.882  17.649   3.225
37407W        W 9722  15.534  40.079  11.662
37408W        W 9723   4.445  22.270   2.306
37409W        W 9724  33.873  41.269  14.044
37410W        W 9725  14.869  38.879  12.118
37411W        W 9726  28.028   2.256  11.614
37412W        W 9727  21.629  21.989   1.416
37413W        W 9728  33.054   8.614   4.538
37414W        W 9729  18.483  39.539  10.403
37415W        W 9730   0.794  27.111  13.128
37416W        W 9731  22.099  23.774   3.956
37417W        W 9732   9.334  10.831  10.575
37418W        W 9733  25.331  11.905  13.926
37419W        W 9734   9.227  22.021  11.709
37420W        W 9735  27.007   0.524  14.404
37421W        W 9736  19.559  18.605  13.327
37422W        W 9737   5.321  34.326   2.773
37423W        W 9738  37.865  25.950   1.800
37424W        W 9739  22.046   1.307  11.537
37425W        W 9740  26.643  38.373  10.995
37426W        W 9741  16.048  16.682   3.568
37427W        W 9742  40.977  39.402   1.357
37428W        W 9743  33.102  17.058  12.463
37429W        W 9744  22.530  37.100   1.473
37430W        W 9745   5.672   9.868   0.451
37431W        W 9746  11.188  38.498  13.465
37432W        W 9747  36.336  30.696  12.087
37433W        W 9748  30.925   4.383   4.606
37434W        W 9749  44.431  22.046  10.137
37435W        W 9750  29.425   2.645  11.216
37436W        W 9751  24.575   9.794   2.932
37437W        W 9752  27.078  31.448   0.295
37438W        W 9753  25.708  39.991  10.613
37439W        W 9754  31.814  39.014   2.341
37440W        W 9755  18.160  11.739   2.528
37441W        W 9756  28.500  14.559   1.682
37442W        W 9757  15.253  13.440  14.551
37443W        W 9758  44.792  25.020   0.017
37444W        W 9759   6.349  37.585  10.068
37445W        W 9760  24.123  26.284   0.244
37446W        W 9761  37.314  27.747  14.542
37447W        W 9762  14.426  34.530   2.678
37448W        W 9763  39.348  24.921  12.126
37449W        W 9764   9.998  39.429   2.354
37450W        W 9765  31.883  13.773  14.944
37451W        W 9766  27.109   2.970   1.912
37452W        W 9767  14.121   8.652  11.040
37453W        W 9768  42.912  18.601   1.138
37454W        W 9769  17.588  29.611  11.268
37455W        W 9770  40.226  40.935   4.320
37456W        W 9771   3.912  13.310  13.538
37457W        W 9772  31.991   0.702  13.040
37458W        W 9773  26.495  35.219   4.651
37459W        W 9774   2.229  26.402   1.667
37460W        W 9775   8.777  37.863   4.872
37461W        W 9776  32.739  31.660   4.858
37462W        W 9777  12.919  32.901   1.139
37463W        W 9778  42.540  16.513  11.198
37464W        W 9779  24.869   9.076  14.389
37465W        W 9780   2.166  29.210   4.082
37466W        W 9781  28.413  13.604  12.375
37467W        W 9782  28.946  25.680  12.926
37468W        W 9783   7.332   8.472   3.349
37469W        W 9784  40.730   0.329   3.856
37470W        W 9785  13.730   9.793   2.139
37471W        W 9786  31.236  26.979  10.437
37472W        W 9787   0.529  30.932   0.806
37473W        W 9788  38.517  35.875  13.878
37474W        W 9789  24.260  17.628  13.843
37475W        W 9790  43.390   1.200  14.895
37476W        W 9791  14.076  36.549  14.454
37477W        W 9792  33.111  10.627   0.270
37478W        W 9793  25.139  21.132   0.399
37479W        W 9794  43.741  35.946  10.586
37480W        W 9795  34.983  39.753  11.104
37481W        W 9796   7.646  33.898  12.459
37482W        W 9797  15.003  42.972   0.463
37483W        W 9798  26.776   5.013  14.355
37484W        W 9799  16.962  38.067   0.402
37485W        W 9800  35.653  18.670   3.694
37486W        W 9801  28.055   4.002  11.483
37487W        W 9802  33.166  27.953   0.942
37488W        W 9803  26.931   8.859   1.912
37489W        W 9804   4.855   2.331   4.098
37490W        W 9805  24.009  11.866  12.582
37491W        W 9806  36.248  39.092  12.640
37492W        W 9807  40.159   6.112  10.312
37493W        W 9808  16.487  39.486   4.556
37494W        W 9809  17.279  13.106   4.570
37495W        W 9810  38.457  26.640   0.287
37496W        W 9811   5.237   1.459   0.189
37497W        W 9812   0.503  26.030  12.798
37498W        W 9813   2.829  25.221   3.492
37499W        W 9814   1.451  38.774   3.841
37500W        W 9815  25.065   4.715  12.092
37501W        W 9816   6.563  25.048   3.275
37502W        W 9817  27.672  39.592   0.941
37503W        W 9818  20.677  13.488  11.794
37504W        W 9819  36.415  14.102   1.409
37505W        W 9820  11.370  23.282   0.251
37506W        W 9821   9.763  37.647   3.913
37507W        W 9822   3.441   2.477  11.299
37508W        W 9823  42.089  35.946  14.506
37509W        W 9824  37.488  41.075  12.500
37510W        W 9825  44.264  23.986   0.970
37511W        W 9826  43.746   2.246   4.606
37512W        W 9827  33.012   7.923  13.772
37513W        W 9828  42.309  16.929  12.086
37514W        W 9829  13.908   8.436  11.982
37515W        W 9830  20.086  31.811   1.212
37516W        W 9831   3.877  18.294   4.660
37517W        W 9832  19.702  13.769   2.370
37518W        W 9833  30.098  24.714   0.527
37519W        W 9834   7.644  18.175  13.382
37520W        W 9835   0.062  26.984  13.808
37521W        W 9836  24.966  11.846   3.617
37522W        W 9837  30.701  35.387  11.874
37523W        W 9838  10.632  22.807   0.851
37524W        W 9839   1.143  33.383   5.006
37525W        W 9840  39.439   2.302   0.216
37526W        W 9841  10.152  36.834  11.942
37527W        W 9842   8.367  22.089  10.665
37528W        W 9843  37.256  20.151   5.170
37529W        W 9844  20.213   2.180  13.558
37530W        W 9845  38.571   5.241  14.771
37531W        W 9846   6.866  34.655  12.931
37532W        W 9847  13.186   7.846   0.003
37533W        W 9848  12.701  35.569   1.445
37534W        W 9849  36.931  42.549   1.743
37535W        W 9850   5.101   6.715  11.274
37536W        W 9851  38.522   6.677  14.019
37537W        W 9852  22.305  21.009   0.335
37538W        W 9853   7.832  21.691  13.140
37539W        W 9854   1.965  35.714   3.814
37540W        W 9855   0.660  32.122   3.776
37541W        W 9856  31.901  10.089  13.975
37542W        W 9857  30.381  43.828  11.427
37543W        W 9858  34.930  19.730   1.365
37544W        W 9859  28.113  41.390   1.127
37545W        W 9860  27.157  10.838   0.099
37546W        W 9861   1.334  14.861   4.656
37547W        W 9862  21.096  34.262   1.660
37548W        W 9863   3.685  12.169   1.273
37549W        W 9864  22.841  18.071   2.255
37550W        W 9865  35.900  34.668   4.761
37551W        W 9866  18.654  10.087   2.180
37552W        W 9867  33.638  28.513   0.669
37553W        W 9868  23.082  23.092   1.453
37554W        W 9869  38.437  38.264  12.605
37555W        W 9870  36.591   1.604   1.702
37556W        W 9871  38.500  43.270   0.302
37557W        W 9872  38.999   6.069   5.017
37558W        W 9873  42.044  42.302  13.836
37559W        W 9874  24.149  23.653  11.633
37560W        W 9875  37.635   0.777   1.934
37561W        W 9876  39.632  32.919  14.286
37562W        W 9877  41.563  33.147  12.384
37563W        W 9878  21.181   4.451   3.167
37564W        W 9879  22.143  10.351   3.726
37565W        W 9880  39.278  42.508  14.494
37566W        W 9881  12.089   8.449   0.761
37567W        W 9882  44.352  37.424  12.577
37568W        W 9883  34.337   3.582   2.201
37569W        W 9884  31.581  29.060   1.434
37570W        W 9885  38.825   2.241   5.005
37571W        W 9886  17.268  15.178   0.828
37572W        W 9887   0.340  16.208   1.741
37573W        W 9888   2.854  20.578  12.352
37574W        W 9889   9.219   9.133   4.173
37575W        W 9890  27.217   2.309  13.508
37576W        W 9891  13.196  20.023   0.511
37577W        W 9892   9.384  37.307   3.872
37578W        W 9893   9.899  26.075   3.660
37579W        W 9894   4.531  34.227   1.445
37580W        W 9895  37.285  18.516   1.825
37581W        W 9896   4.269  44.504   4.497
37582W        W 9897  30.075  32.852   0.259
37583W        W 9898  43.782  43.754  13.429
37584W        W 9899  10.516  19.172  10.580
37585W        W 9900  17.615  18.702   3.707
37586W        W 9901   7.961  17.687   2.214
37587W        W 9902  32.531  33.595   2.876
37588W        W 9903  39.072  17.780  12.840
37589W        W 9904  42.514  35.030   2.993
37590W        W 9905   6.155  24.529  10.280
37591W        W 9906   9.254  31.417  14.312
37592W        W 9907  39.884  30.664  10.834
37593W        W 9908  26.996  25.715   1.636
37594W        W 9909  41.017  32.115  14.863
37595W        W 9910   3.772  14.626  12.640
37596W        W 9911   9.173  22.089  14.480
37597W        W 9912  35.163  23.413   4.068
37598W        W 9913  34.191  14.311   2.263
37599W        W 9914  30.517   6.699   2.247
37600W        W 9915  23.291  18.731   2.805
37601W        W 9916  40.700   4.438   1.321
37602W        W 9917  26.969  12.794  11.124
37603W        W 9918  29.670  33.291   4.576
37604W        W 9919  20.979  26.132  13.083
37605W        W 9920   5.060  14.656  14.727
37606W        W 9921  24.114   1.316   4.634
37607W        W 9922  15.914   5.746   2.909
37608W        W 9923   1.809   4.439   0.270
37609W        W 9924  22.589  28.153  14.349
37610W        W 9925  17.567  39.858   1.382
37611W        W 9926  22.016  30.012  12.536
37612W        W 9927   4.511   8.232  10.960
37613W        W 9928  24.575  21.008  13.379
37614W        W 9929  41.464  17.089  12.044
37615W        W 9930   0.683  25.173   4.544
37616W        W 9931  10.146  12.192   4.862
37617W        W 9932  26.975  22.717  11.518
37618W        W 9933  18.838  28.356   5.814
37619W        W 9934   4.217   7.464  10.836
37620W        W 9935  42.485  11.294  13.452
37621W        W 9936   5.838  16.606  13.583
37622W        W 9937  25.532  29.543  13.945
37623W        W 9938  24.229  35.864  13.906
37624W        W 9939   9.393   3.231   4.673
37625W        W 9940  17.665  30.097  11.080
37626W        W 9941  37.505  19.520  12.621
37627W        W 9942   1.803  28.565   4.517
37628W        W 9943  36.531  44.925  10.984
37629W        W 9944  13.472  29.352  11.117
37630W        W 9945  16.731  16.192  10.541
37631W        W 9946  40.015   0.832   0.997
37632W        W 9947  15.379  30.767  12.000
37633W        W 9948   7.269  13.635   0.430
37634W        W 9949   1.407  36.990   4.458
37635W        W 9950   9.888  22.540   0.384
37636W        W 9951  35.131  43.227  14.494
37637W        W 9952   5.290  30.704  10.521
37638W        W 9953   4.761   7.964  11.548
37639W        W 9954   3.272  39.607  11.954
37640W        W 9955  43.647  27.778  13.619
37641W        W 9956   5.849  13.319   1.517
37642W        W 9957  42.044   3.615  11.475
37643W        W 9958  30.862   7.255  13.242
37644W        W 9959  37.709  32.069  13.001
37645W        W 9960   8.377  42.990   4.656
37646W        W 9961  35.380   1.509   2.414
37647W        W 9962  35.028   1.752   2.689
37648W        W 9963  35.814   7.351   0.288
37649W        W 9964  25.085  33.647   0.771
37650W        W 9965  42.886  44.304   4.917
37651W        W 9966   2.443  34.576  12.380
37652W        W 9967  12.102  40.305  10.722
37653W        W 9968   1.566  15.116   1.391
37654W        W 9969  40.956  18.509  12.844
37655W        W 9970  31.191  24.940   4.108
37656W        W 9971  40.261  19.780  12.069
37657W        W 9972  31.129  28.445   1.754
37658W        W 9973  20.041  17.684   0.696
37659W        W 9974  19.348  29.716   3.170
37660W        W 9975  40.379  11.760  11.638
37661W        W 9976  44.500  44.300  12.646
37662W        W 9977  19.043  15.613   0.928
37663W        W 9978  14.567  41.223  11.188
37664W        W 9979  11.233  18.529   3.667
37665W        W 9980  44.415  35.459  14.888
37666W        W 9981  17.652  19.139   1.367
37667W        W 9982  39.254  23.447  11.127
37668W        W 9983  11.751   1.396   4.744
37669W        W 9984  23.238  28.685   0.429
37670W        W 9985  21.691  27.807  12.397
37671W        W 9986   4.186   2.030  12.380
37672W        W 9987   1.862   1.782  14.264
37673W        W 9988  15.372  43.488  11.513
37674W        W 9989  12.245  33.475  10.579
37675W        W 9990  18.040  24.247  13.517
37676W        W 9991   5.389  39.042   4.533
37677W        W 9992   9.305  40.530   2.775
37678W        W 9993  28.127  14.726  11.378
37679W        W 9994   1.936  15.308   0.392
37680W        W 9995  32.353  23.456  12.978
37681W        W 9996   6.616   3.038  11.608
37682W        W 9997  10.356  36.951   4.521
37683W        W 9998  42.817  26.385  11.501
37684W        W 9999  29.205  43.375   3.101
37685W        W10000  16.725  40.763  14.793
37686W        W10001   6.613  43.604  10.882
37687W        W10002  22.760  38.006  12.018
37688W        W10003   8.599   2.836  11.381
37689W        W10004  28.469   9.036  14.344
37690W        W10005  13.675  43.423  14.402
37691W        W10006  40.058  33.139   0.060
37692W        W10007   0.206  33.161  14.023
37693W        W10008  31.148  11.678  14.472
37694W        W10009   3.235  34.730   1.672
37695W        W10010  11.720  23.240   4.141
37696W        W10011  41.261   6.313   1.732
37697W        W10012  20.992   8.566  14.405
37698W        W10013  34.589  10.186  11.053
37699W        W10014  19.830  18.699  12.904
37700W        W10015  22.146  22.101   4.620
37701W        W10016  14.747  13.894   5.000
37702W        W10017  14.536  11.311  11.154
37703W        W10018   5.927  16.011   9.877
37704W        W10019  33.610  27.730  14.295
37705W        W10020  19.130  42.044   3.308
37706W        W10021  22.966   9.862  14.389
37707W        W10022  16.162  38.512   5.486
37708W        W10023   6.961  12.089  14.869
37709W        W10024  41.157  17.564   0.764
37710W        W10025  30.560  16.180  12.767
37711W        W10026  34.581  29.177   3.959
37712W        W10027  20.631  20.156  14.972
37713W        W10028   8.889  34.363   3.308
37714W        W10029  38.076  16.281  10.751
37715W        W10030  33.907  19.513  13.543
37716W        W10031   6.862  19.623   2.692
37717W        W10032  13.866  19.343   3.293
37718W        W10033   2.433   5.387  12.991
37719W        W10034  42.459  38.162  12.058
37720W        W10035  34.788  16.033  12.635
37721W        W10036  19.287  23.045   3.150
37722W        W10037   6.590  35.921  14.086
37723W        W10038  30.003  27.949  12.459
37724W        W10039  27.614  26.501  10.609
37725W        W10040  34.021  25.545  11.533
37726W        W10041  20.154  34.575   1.691
37727W        W10042  10.121  40.481  13.475
37728W        W10043  21.849  25.191   1.830
37729W        W10044  10.928  18.548  13.851
37730W        W10045  33.550  36.186  13.288
37731W        W10046  18.339  18.705  11.047
37732W        W10047  37.721  32.498   0.433
37733W        W10048  26.579  16.919  14.808
37734W        W10049  34.968  34.996  10.407
37735W        W10050  35.006  28.448   4.027
37736W        W10051  33.578   9.190  13.080
37737W        W10052  26.229  35.892   1.819
37738W        W10053  22.085  11.325  12.992
37739W        W10054  12.997   2.505   2.637
37740W        W10055  39.080  25.124   4.221
37741W        W10056  14.736  32.864   1.176
37742W        W10057  15.556  23.198  11.911
37743W        W10058  31.680  19.726   0.301
37744W        W10059  24.593  10.174   4.219
37745W        W10060  39.680  28.114   1.196
37746W        W10061  42.664  37.087   2.781
37747W        W10062   9.110  39.532  13.407
37748W        W10063  27.663  20.709  13.840
37749W        W10064   3.824   5.458  11.988
37750W        W10065  32.204  18.113  11.636
37751W        W10066  40.763  34.552  10.720
37752W        W10067   1.871  12.828   0.526
37753W        W10068   3.822  17.004   3.334
37754W        W10069  26.290  44.395  13.915
37755W        W10070  34.960  35.954   2.863
37756W        W10071  16.323  11.691   1.766
37757W        W10072  26.423  42.662   4.077
37758W        W10073  29.593  43.347  14.715
37759W        W10074  11.853  18.781   2.903
37760W        W10075  21.995  41.427   0.633
37761W        W10076  26.113  31.975   1.901
37762W        W10077  25.522   6.138  11.523
37763W        W10078  44.230  40.304  10.728
37764W        W10079   3.890  44.836  13.583
37765W        W10080  26.388  22.649   0.540
37766W        W10081  29.318   8.388  12.543
37767W        W10082  27.602  19.646  12.112
37768W        W10083   1.055   2.551   1.253
37769W        W10084  39.506   2.070  10.543
37770W        W10085   8.252   4.473   1.685
37771W        W10086  43.363  14.762  13.951
37772W        W10087  11.171   2.018   1.756
37773W        W10088  37.066  21.113   0.930
37774W        W10089   5.609   6.875   0.727
37775W        W10090  31.952  38.403  14.433
37776W        W10091  25.759  24.048  12.021
37777W        W10092   1.395  12.628   0.459
37778W        W10093  26.057   7.644  14.824
37779W        W10094  24.557  25.281   0.876
37780W        W10095   6.667  31.462  14.286
37781W        W10096  35.163   1.000  11.728
37782W        W10097  24.218   4.168  10.730
37783W        W10098  12.648   4.862   3.789
37784W        W10099  32.060  31.967   2.500
37785W        W10100  26.175  36.389  11.162
37786W        W10101  17.129  22.126   0.900
37787W        W10102   0.449  44.932   2.438
37788W        W10103  42.812  24.119  14.305
37789W        W10104  28.141  22.544  11.259
37790W        W10105  24.382  34.159  10.406
37791W        W10106  35.668  23.742   2.820
37792W        W10107  21.321  19.563  12.219
37793W        W10108  40.362  38.067  13.369
37794W        W10109  38.305   9.083   3.841
37795W        W10110  26.016  10.835   3.220
37796W        W10111   1.262  33.608  13.401
37797W        W10112   9.843  36.582  12.990
37798W        W10113  18.172  36.858  14.818
37799W        W10114  27.871   7.867  14.791
37800W        W10115  38.122  16.183   2.145
37801W        W10116   0.813  43.795  10.906
37802W        W10117  25.027  11.101  14.896
37803W        W10118  30.712  20.254   0.956
37804W        W10119   2.031   9.674  14.404
37805W        W10120  13.926   1.698  14.455
37806W        W10121  18.558  21.562  13.489
37807W        W10122  13.838  18.747   4.598
37808W        W10123  28.836  37.617   1.502
37809W        W10124   8.423   1.394   0.496
37810W        W10125  24.933  31.837  11.150
37811W        W10126  36.839  31.034  14.444
37812W        W10127  31.706  27.522   2.426
37813W        W10128  28.462  43.690  14.069
37814W        W10129  23.099  27.411  14.344
37815W        W10130   9.352  28.718   1.300
37816W        W10131   5.229  29.448  12.443
37817W        W10132  26.766  10.700  12.557
37818W        W10133  25.069  18.974   1.365
37819W        W10134  32.569   6.619  12.138
37820W        W10135   2.809  27.002   4.168
37821W        W10136  42.792   2.061   1.551
37822W        W10137   4.796  34.911  13.031
37823W        W10138  11.238  42.016  14.649
37824W        W10139  15.331  40.459  10.636
37825W        W10140  36.681  18.854   2.658
37826W        W10141  10.924  12.717   1.873
37827W        W10142  36.409  27.979   4.176
37828W        W10143  24.176  14.814  14.276
37829W        W10144  42.971  37.216  12.630
37830W        W10145  10.382  20.027  14.010
37831W        W10146  12.906  42.821  13.752
37832W        W10147  26.078  42.459   3.351
37833W        W10148  34.801  24.406   4.190
37834W        W10149   2.867  38.444  12.356
37835W        W10150  27.634  41.546   1.817
37836W        W10151  35.492  39.100   2.308
37837W        W10152  34.897  30.540  12.000
37838W        W10153  24.070  22.925  12.368
37839W        W10154  24.999  31.285  10.688
37840W        W10155  35.541  26.920  11.236
37841W        W10156  39.872  12.281  12.851
37842W        W10157  27.864  19.713   4.046
37843W        W10158  11.703  24.779  14.511
37844W        W10159  26.198  26.714   0.830
37845W        W10160  42.722  44.752  12.885
37846W        W10161   4.946  33.936  12.213
37847W        W10162  12.130  16.594  11.481
37848W        W10163  17.137   0.670   2.215
37849W        W10164  34.993  34.116  14.336
37850W        W10165  39.066  22.461   0.687
37851W        W10166  13.916   5.518  12.527
37852W        W10167  23.674   2.694   4.637
37853W        W10168  20.892   4.505  12.606
37854W        W10169  42.415  30.865  12.002
37855W        W10170  21.473  35.128   2.451
37856W        W10171   7.710  25.929   2.421
37857W        W10172  38.658  29.430  12.324
37858W        W10173  16.136   9.134   2.228
37859W        W10174  20.292  19.841   2.461
37860W        W10175  15.870  14.286   0.733
37861W        W10176  26.264  37.392   3.426
37862W        W10177  22.266  39.003   0.437
37863W        W10178  26.558   8.145   0.483
37864W        W10179  10.271  41.529  10.999
37865W        W10180  35.033  39.257   4.513
37866W        W10181  24.109   6.235  12.155
37867W        W10182   9.891   5.015  13.038
37868W        W10183   4.407  37.954  10.698
37869W        W10184  30.099   2.416  11.525
37870W        W10185  17.774   6.866   0.228
37871W        W10186  27.089  24.717   5.065
37872W        W10187  21.992   8.830  11.064
37873W        W10188  31.698  34.571   0.689
37874W        W10189   6.709  41.143  11.462
37875W        W10190  11.626  37.530   4.784
37876W        W10191  21.242  35.112   4.491
37877W        W10192  29.040  36.549   0.293
37878W        W10193  34.963  14.692   3.388
37879W        W10194  38.603  34.312  13.511
37880W        W10195  41.866  44.624  12.769
37881W        W10196  31.404  35.441   3.644
37882W        W10197  22.310  17.880  12.929
37883W        W10198  17.435  15.282  14.887
37884W        W10199  38.479  27.166   3.752
37885W        W10200  19.562   3.968   5.126
37886W        W10201  12.182  25.800  13.074
37887W        W10202  26.141  32.062  14.343
37888W        W10203  23.361   8.798  10.742
37889W        W10204  29.691  22.651   3.185
37890W        W10205   0.392  37.348   2.999
37891W        W10206   3.491   3.363   2.703
37892W        W10207  17.193  42.968   4.741
37893W        W10208  15.810  35.102   5.042
37894W        W10209  13.358  11.518  14.410
37895W        W10210   2.181   3.825  10.678
37896W        W10211   6.360  17.779  14.924
37897W        W10212  18.338  12.956   2.438
37898W        W10213  35.854   2.788   1.697
37899W        W10214  32.284  39.018  12.584
37900W        W10215  40.230  41.458   1.790
37901W        W10216  25.885  10.316   1.699
37902W        W10217  41.783   1.194  11.663
37903W        W10218   6.679  18.026   4.883
37904W        W10219  22.124  27.657   2.738
37905W        W10220  32.416   1.476  13.122
37906W        W10221  43.723   0.063   3.186
37907W        W10222  29.953  32.084  14.456
37908W        W10223  34.217  27.224   3.487
37909W        W10224  11.863  42.788   1.162
37910W        W10225  22.145  39.491   3.451
37911W        W10226  40.993  23.554  14.487
37912W        W10227  20.572  13.658   2.534
37913W        W10228  23.263  36.959  10.665
37914W        W10229   8.801  16.345  14.859
37915W        W10230  31.204  23.458   9.999
37916W        W10231  42.419  19.709  11.949
37917W        W10232  37.563  39.017  10.317
37918W        W10233   7.393  43.974  12.450
37919W        W10234  39.504  18.652  14.461
37920W        W10235  21.324  16.595  13.869
37921W        W10236  31.300  17.283  13.921
37922W        W10237  16.719  14.743  12.110
37923W        W10238  30.891  11.934  13.118
37924W        W10239  41.400  38.623  10.800
37925W        W10240  28.125   6.806   5.727
37926W        W10241  17.238  22.687   4.619
37927W        W10242  37.369  44.967   3.195
37928W        W10243  21.054  40.944  10.481
37929W        W10244  12.658  39.350   0.392
37930W        W10245  28.127  31.657  10.971
37931W        W10246   2.503   6.109  11.105
37932W        W10247  20.937  20.615   3.171
37933W        W10248   0.921  34.629  14.141
37934W        W10249  18.092  29.668   1.492
37935W        W10250   7.667   0.900   0.385
37936W        W10251  43.691  13.897   4.088
37937W        W10252   1.371  29.481  13.855
37938W        W10253  37.778   6.314   1.622
37939W        W10254  33.382  21.943   4.541
37940W        W10255  31.916  14.212   4.637
37941W        W10256  43.377  28.017   3.388
37942W        W10257  28.539  14.251   3.624
37943W        W10258   0.504  16.087   0.738
37944W        W10259  23.681  23.421  13.080
37945W        W10260   0.695  15.103   0.785
37946W        W10261  16.735  10.021   1.299
37947W        W10262  16.717  26.351  14.557
37948W        W10263  21.517  26.232  11.904
37949W        W10264  44.673  25.675   3.127
37950W        W10265  19.540  33.396  14.911
37951W        W10266  33.977   7.387  11.088
37952W        W10267  26.377  11.515   2.193
37953W        W10268  36.983  29.346  12.138
37954W        W10269  18.623  37.969   2.242
37955W        W10270  21.706  40.532  14.821
37956W        W10271  37.302  17.862   4.577
37957W        W10272   5.201  35.064   2.312
37958W        W10273  24.272   3.366  13.035
37959W        W10274  16.841  10.032  10.677
37960W        W10275  14.319  39.873   4.637
37961W        W10276  11.012  11.096  12.072
37962W        W10277  29.157  41.034  11.569
37963W        W10278  36.748   7.249  13.277
37964W        W10279  11.584   3.294  12.493
37965W        W10280   9.221   5.234   4.501
37966W        W10281  10.966  32.879  14.049
37967W        W10282  11.389  27.457  14.002
37968W        W10283  39.485  39.848  14.008
37969W        W10284  38.426   6.830  12.570
37970W        W10285  31.151  22.272  11.908
37971W        W10286  11.718  40.835   1.295
37972W        W10287  14.765  19.588   1.766
37973W        W10288   4.023  13.113   0.574
37974W        W10289  28.230  10.213   0.285
37975W        W10290  34.134  24.548   2.273
37976W        W10291  41.310  13.707   2.715
37977W        W10292  41.292  21.105   2.763
37978W        W10293  42.506  40.201  13.577
37979W        W10294  30.118  24.555   2.986
37980W        W10295  36.579  43.892   1.925
37981W        W10296  37.581  14.203  10.292
37982W        W10297   2.956   1.471   0.700
37983W        W10298  36.388   1.757   0.787
37984W        W10299  31.540   3.974  10.942
37985W        W10300  40.036  38.142  14.898
37986W        W10301   0.887   5.301  11.120
37987W        W10302  26.840   1.781  14.781
37988W        W10303  17.474   0.479  13.360
37989W        W10304  43.760   8.667   1.490
37990W        W10305  36.839  18.592  11.416
37991W        W10306   8.372   6.711   4.541
37992W        W10307  23.706  23.271  11.619
37993W        W10308  37.287  42.654   4.122
37994W        W10309  15.018  11.820   2.482
37995W        W10310  20.261  34.602   3.205
37996W        W10311  42.858  37.063   4.511
37997W        W10312   4.047  14.613  13.072
37998W        W10313   9.335  12.451   0.677
37999W        W10314  24.902  11.678  12.983
38000W        W10315  40.968  44.941   1.346
38001W        W10316  10.347  25.008  14.404
38002W        W10317   3.550  26.453   3.666
38003W        W10318  27.781  11.655   4.594
38004W        W10319  18.595   1.840  10.397
38005W        W10320  32.504  31.413   1.963
38006W        W10321   4.867  24.047   1.590
38007W        W10322  42.475  23.719  10.493
38008W        W10323  26.920  41.707  14.049
38009W        W10324  41.805  22.030   2.575
38010W        W10325  42.438  14.426   0.943
38011W        W10326  39.822   1.428  13.793
38012W        W10327  12.322   5.187   1.709
38013W        W10328  36.809   1.634   2.215
38014W        W10329   6.370  17.220   2.615
38015W        W10330   9.603  29.085  13.371
38016W        W10331  34.910  16.276   1.353
38017W        W10332  16.982  33.204  11.597
38018W        W10333  12.693   9.604  13.774
38019W        W10334  23.019  43.995   1.730
38020W        W10335  40.467  35.232  14.896
38021W        W10336  33.559  42.899   0.022
38022W        W10337  19.648  33.097   3.073
38023W        W10338  39.789  39.436  10.733
38024W        W10339  27.982   2.943   2.911
38025W        W10340  37.484  39.418   4.196
38026W        W10341  22.665  33.885  14.231
38027W        W10342   8.182  34.685   2.419
38028W        W10343  34.467  40.359  10.582
38029W        W10344   8.013  20.816  11.455
38030W        W10345  15.720  38.099   3.363
38031W        W10346  38.513  12.284  11.906
38032W        W10347  18.700  41.869   4.097
38033W        W10348  24.759  11.701  12.394
38034W        W10349   3.256  13.611  14.061
38035W        W10350  32.336  39.161   2.318
38036W        W10351  44.978  23.080   3.812
38037W        W10352  22.102  18.989   3.190
38038W        W10353  11.895  21.152   1.033
38039W        W10354   8.940  11.781   1.576
38040W        W10355  27.241  10.757  12.363
38041W        W10356  31.945  28.603   2.690
38042W        W10357  15.008  16.858  14.002
38043W        W10358   5.725   0.395  12.515
38044W        W10359   1.524  17.315   3.188
38045W        W10360  14.174  17.678  14.797
38046W        W10361  44.966  19.038   0.053
38047W        W10362  20.664  23.034   0.268
38048W        W10363  40.661  30.640   2.772
38049W        W10364   2.860  20.446   0.120
38050W        W10365  33.043  24.680  12.062
38051W        W10366   2.728  21.587   0.848
38052W        W10367  17.799  23.702  12.671
38053W        W10368  43.316  10.426   1.483
38054W        W10369  18.985  33.914  10.543
38055W        W10370  18.641  33.120  13.587
38056W        W10371  10.385   8.854  10.423
38057W        W10372  16.398  43.233  11.576
38058W        W10373  26.950  37.286   0.617
38059W        W10374  31.458  15.364   3.201
38060W        W10375  32.391  21.601   2.048
38061W        W10376   0.597  25.359  14.374
38062W        W10377  32.014  26.501   4.574
38063W        W10378  28.354   5.278  12.579
38064W        W10379   3.238   1.467  13.519
38065W        W10380  43.714  34.629   3.428
38066W        W10381  38.419  36.691  14.304
38067W        W10382   2.879  40.511   0.238
38068W        W10383  38.735   5.422   3.750
38069W        W10384   7.275  43.297  11.104
38070W        W10385  19.178  19.837   1.784
38071W        W10386  35.268  27.505  14.393
38072W        W10387  14.957  44.189  12.722
38073W        W10388  17.072  31.179  14.556
38074W        W10389  15.502  16.219   3.682
38075W        W10390  40.501  41.863   4.411
38076W        W10391   2.203  43.072   1.693
38077W        W10392   1.084  19.663   0.843
38078W        W10393  31.421  43.354   3.737
38079W        W10394  41.774  29.013  12.881
38080W        W10395  18.835  16.225   1.841
38081W        W10396  13.028  32.955  11.439
38082W        W10397   3.931   2.738   3.798
38083W        W10398   3.692  38.969  14.545
38084W        W10399  13.875   9.232   0.599
38085W        W10400  12.801   3.471  11.705
38086W        W10401  26.564  28.464  14.740
38087W        W10402  28.620  36.414   4.596
38088W        W10403  10.229  19.370   9.801
38089W        W10404  15.595  19.708   0.393
38090W        W10405  38.770  42.370  14.563
38091W        W10406   1.412  10.351  14.343
38092W        W10407  17.213  30.698   1.398
38093W        W10408  27.938   6.589  10.645
38094W        W10409  28.040  32.766  13.987
38095W        W10410  35.899  13.196   0.211
38096W        W10411  31.511  19.991   4.117
38097W        W10412  15.186  11.905  13.450
38098W        W10413  37.289  14.551   1.282
38099W        W10414  26.477   1.025  14.990
38100W        W10415  29.030  17.146   4.235
38101W        W10416  41.601  23.545  12.144
38102W        W10417  17.867  12.123   3.212
38103W        W10418  12.563   1.380  14.454
38104W        W10419  36.446  12.776   1.956
38105W        W10420  23.654  32.693  14.911
38106W        W10421   3.772  35.337   2.362
38107W        W10422   2.091  34.524   5.563
38108W        W10423  18.927   5.719   4.028
38109W        W10424  42.390  42.274  11.166
38110W        W10425  35.347  18.281   0.528
38111W        W10426  28.181   1.391   4.019
38112W        W10427  38.323  38.721  12.840
38113W        W10428   2.876  10.866   1.986
38114W        W10429   1.014  38.813   0.900
38115W        W10430  28.770  18.441  10.742
38116W        W10431  22.662  27.593   0.738
38117W        W10432  24.529  18.931   1.353
38118W        W10433   8.361   7.897  11.070
38119W        W10434  29.682  25.504   0.653
38120W        W10435  39.801  11.267  14.442
38121W        W10436  15.832  15.674   0.360
38122W        W10437  41.289  20.608   0.955
38123W        W10438   4.664   0.874  13.372
38124W        W10439  32.799  37.037   3.234
38125W        W10440  33.470  34.901   0.319
38126W        W10441  26.442   4.360  10.688
38127W        W10442   7.220  22.488   1.533
38128W        W10443  24.083  41.266  13.081
38129W        W10444  11.716  36.000  13.888
38130W        W10445  40.371  34.473  13.650
38131W        W10446  40.620  26.060  12.874
38132W        W10447  44.475  18.034   0.858
38133W        W10448  36.469   7.642   1.865
38134W        W10449  32.004   9.399   4.669
38135W        W10450  10.193  26.495   3.588
38136W        W10451  41.363  12.207   2.383
38137W        W10452  20.214  24.085   1.602
38138W        W10453  13.135  27.415   0.769
38139W        W10454  33.280  12.746  12.497
38140W        W10455  43.906  35.345   1.691
38141W        W10456  24.231  11.331   1.796
38142W        W10457  38.724   6.378   1.231
38143W        W10458  17.363  37.585  13.872
38144W        W10459  20.755  12.721   4.813
38145W        W10460  43.870  18.240   1.673
38146W        W10461  22.125  20.462  14.509
38147W        W10462  18.052  42.753  11.576
38148W        W10463  32.556  26.614   3.435
38149W        W10464  24.515  42.536   0.540
38150W        W10465  42.330  32.506   0.221
38151W        W10466  19.239  23.881  11.476
38152W        W10467  18.020  18.692   1.866
38153W        W10468  24.956  27.205   1.983
38154W        W10469  43.469  19.930  14.304
38155W        W10470  20.732  11.340   4.216
38156W        W10471  24.194  11.472  14.571
38157W        W10472  17.568  43.109  12.540
38158W        W10473  38.549   7.939  14.540
38159W        W10474  42.817  26.109   4.317
38160W        W10475  11.552  29.704   1.823
38161W        W10476  42.545  14.216  11.366
38162W        W10477  43.390  25.972  13.821
38163W        W10478  33.378  39.094   1.808
38164W        W10479  18.563  25.887  12.808
38165W        W10480   3.399   6.766   4.529
38166W        W10481  18.009  41.114  13.329
38167W        W10482  10.152   2.400   4.162
38168W        W10483  34.950  32.148   0.449
38169W        W10484  32.875  30.374  11.644
38170W        W10485  24.705  40.215  11.523
38171W        W10486  21.080  35.538  10.539
38172W        W10487  29.964   2.703  12.493
38173W        W10488  32.727  37.591  14.345
38174W        W10489  42.889   0.770   4.378
38175W        W10490  33.373  33.872   1.419
38176W        W10491  34.030   5.364   2.204
38177W        W10492  37.356  21.679   0.311
38178W        W10493  14.614   6.344  14.805
38179W        W10494  34.312   4.175   1.921
38180W        W10495  18.531  37.382  13.094
38181W        W10496  22.189  28.878  13.412
38182W        W10497  25.653  38.145   3.190
38183W        W10498  42.582  36.068  14.451
38184W        W10499   8.249  42.958  13.433
38185W        W10500  40.973  25.011  11.153
38186W        W10501  42.990  17.356  10.624
38187W        W10502  41.712   1.338  12.167
38188W        W10503  18.677  23.695   2.762
38189W        W10504  24.546   2.659   4.682
38190W        W10505  42.814  41.310  11.907
38191W        W10506  43.050  11.147  14.816
38192W        W10507  28.363  34.769  12.950
38193W        W10508   8.138  35.176   2.304
38194W        W10509  22.246  34.068   2.656
38195W        W10510  17.790  28.978   4.397
38196W        W10511  13.139  13.375   3.159
38197W        W10512  25.986   1.411  10.654
38198W        W10513   5.321  43.620   0.884
38199W        W10514  21.583   6.377   4.166
38200W        W10515  32.994  19.507  11.598
38201W        W10516  23.512   5.855   4.594
38202W        W10517  13.360  43.754   1.319
38203W        W10518  15.569  15.042  12.448
38204W        W10519  16.288   8.220  13.144
38205W        W10520  26.544  34.523   2.335
38206W        W10521  37.217  19.738  13.011
38207W        W10522  18.285  37.788  10.673
38208W        W10523   6.365  16.783   4.321
38209W        W10524  20.838  10.253  11.399
38210W        W10525  42.756   4.472  14.718
38211W        W10526  43.541  44.831   1.344
38212W        W10527  27.274  23.792   3.851
38213W        W10528  18.192  23.218  14.509
38214W        W10529  27.566  43.560  11.956
38215W        W10530  23.387  32.569   4.113
38216W        W10531  38.562  15.049  11.134
38217W        W10532  23.225   4.312   1.440
38218W        W10533  37.007  27.258   5.120
38219W        W10534  38.857  39.312  10.123
38220W        W10535  44.138  13.804  11.283
38221W        W10536  34.780  17.451  12.919
38222W        W10537  17.666  20.026  12.631
38223W        W10538  40.775  14.715  14.755
38224W        W10539  24.185  38.636   4.529
38225W        W10540  40.723  29.655   2.780
38226W        W10541  27.268  27.433  12.030
38227W        W10542  10.062   3.037   1.190
38228W        W10543  29.057  37.572   4.753
38229W        W10544   1.496  40.735   3.715
38230W        W10545  12.853  14.300   3.809
38231W        W10546  31.750  39.589   4.592
38232W        W10547  42.089   3.427   5.050
38233W        W10548  21.557   7.181   3.682
38234W        W10549  22.405  34.443   0.953
38235W        W10550  35.869  36.599  14.915
38236W        W10551  26.352  25.923  11.497
38237W        W10552   0.907   8.366  14.871
38238W        W10553  39.779  37.291  12.766
38239W        W10554  10.503  20.228   3.081
38240W        W10555   3.332  27.569  13.163
38241W        W10556   0.391  31.211   3.178
38242W        W10557  14.997  18.626   0.375
38243W        W10558  26.988  11.696  10.806
38244W        W10559  28.073  27.125  11.108
38245W        W10560   3.486  11.625  13.702
38246W        W10561  31.496  31.959  14.856
38247W        W10562  11.024  15.850   0.514
38248W        W10563  43.391  33.616  12.160
38249W        W10564  10.767  28.132   0.715
38250W        W10565  36.270  31.966  13.480
38251W        W10566  22.171  43.228  12.883
38252W        W10567  33.429  22.626   1.204
38253W        W10568  43.538  33.576  11.181
38254W        W10569  36.818  22.659  13.987
38255W        W10570  27.463   1.873   2.120
38256W        W10571  25.999  31.897   3.437
38257W        W10572  23.256  37.586  12.829
38258W        W10573  22.305   3.967   3.616
38259W        W10574  20.245   2.292   3.358
38260W        W10575  10.189   7.487   3.232
38261W        W10576  42.309  18.464  13.373
38262W        W10577   7.063  25.815   3.434
38263W        W10578   4.422   0.671   1.896
38264W        W10579  19.608  15.181  12.403
38265W        W10580  32.924  27.004  13.297
38266W        W10581  37.549  42.078   0.957
38267W        W10582  13.615  37.217  10.508
38268W        W10583  34.999   9.586   2.144
38269W        W10584   7.821  20.522   3.822
38270W        W10585  11.826  43.390  11.450
38271W        W10586   0.833  25.008  12.615
38272W        W10587  19.111  34.905  12.884
38273W        W10588  30.827  10.215   4.038
38274W        W10589  44.976   5.391  14.894
38275W        W10590  14.773  43.413  14.718
38276W        W10591  44.426  36.192  14.633
38277W        W10592  28.652  10.129  10.944
38278W        W10593  11.500  28.136   3.276
38279W        W10594  39.919  23.580   5.145
38280W        W10595  23.627  21.892  10.360
38281W        W10596  26.467  12.120   2.690
38282W        W10597  37.736  34.665   1.968
38283W        W10598  15.797   6.090  10.059
38284W        W10599  17.156  18.071  13.321
38285W        W10600  35.502  34.031  12.150
38286W        W10601  13.349  24.757   4.917
38287W        W10602  35.606  11.950  13.940
38288W        W10603  12.075  13.667   4.423
38289W        W10604  22.437   8.858   0.959
38290W        W10605   6.429  28.121  11.150
38291W        W10606  19.706  43.868   2.151
38292W        W10607  25.028  26.529  13.873
38293W        W10608   6.396   5.432   4.331
38294W        W10609   8.825  31.369  14.611
38295W        W10610  30.705   8.113  13.944
38296W        W10611  16.349  35.440  13.022
38297W        W10612  12.600   9.357  12.957
38298W        W10613  23.533  28.648   4.416
38299W        W10614  38.000  18.877   2.881
38300W        W10615  14.812   8.415  11.098
38301W        W10616  10.636  39.616   0.910
38302W        W10617   7.609  15.587   4.552
38303W        W10618   7.920  42.776   4.874
38304W        W10619  32.859   4.269  11.851
38305W        W10620  43.726  40.267  13.996
38306W        W10621   9.062  13.303   4.500
38307W        W10622  19.465  19.711  11.141
38308W        W10623   1.893  30.986  14.319
38309W        W10624  11.051   9.163  12.273
38310W        W10625  13.575  14.026  11.090
38311W        W10626   3.540  11.989  12.587
38312W        W10627  10.340  26.167  12.783
38313W        W10628   1.139   9.393  14.090
38314W        W10629  35.645  36.481   2.723
38315W        W10630  40.063  25.207   0.456
38316W        W10631  28.563  33.989  11.206
38317W        W10632  16.503  41.713   4.740
38318W        W10633  33.489  10.260  14.857
38319W        W10634  41.929  38.825   3.135
38320W        W10635  13.049   7.408   0.879
38321W        W10636  16.172  22.896   2.250
38322W        W10637  38.008  36.615  10.647
38323W        W10638  10.076  36.540  11.102
38324W        W10639  24.491   2.416  13.946
38325W        W10640  12.757  11.678  11.333
38326W        W10641  39.405  34.610  12.162
38327W        W10642   6.487  16.773   2.879
38328W        W10643   2.434  41.437   0.891
38329W        W10644   2.941   5.295  13.936
38330W        W10645  41.455  28.996  12.465
38331W        W10646  15.212  26.907   0.909
38332W        W10647  18.096  14.577  10.802
38333W        W10648  17.264  31.178   0.446
38334W        W10649  39.362  26.581   1.962
38335W        W10650  18.405  12.548  13.502
38336W        W10651   9.777  31.381  14.813
38337W        W10652  31.806  25.257  10.897
38338W        W10653  26.967  38.290  12.343
38339W        W10654  42.524  21.036  11.673
38340W        W10655  27.123  27.894  14.426
38341W        W10656  12.282   4.672  12.371
38342W        W10657  24.695  32.388  11.903
38343W        W10658  10.158  17.822   1.778
38344W        W10659  17.527  34.316  11.934
38345W        W10660  10.792  19.350  11.138
38346W        W10661   9.088   3.976   0.828
38347W        W10662  44.983  25.213   1.365
38348W        W10663  13.261   2.217  13.336
38349W        W10664   2.268   9.779  10.551
38350W        W10665  41.028  18.664   0.758
38351W        W10666   7.760  26.407  14.929
38352W        W10667  14.622  40.492  11.998
38353W        W10668  13.024  15.444   0.832
38354W        W10669  21.180  10.800   2.756
38355W        W10670  21.255  35.373   2.842
38356W        W10671   1.029  34.852   3.787
38357W        W10672  16.685   1.778   3.755
38358W        W10673   9.265   4.984  14.841
38359W        W10674  18.567   3.824   2.825
38360W        W10675  22.166  24.138   4.301
38361W        W10676  12.189  18.745   4.246
38362W        W10677  20.142   6.350  12.996
38363W        W10678  10.236  17.113   4.526
38364W        W10679  23.252  22.528   3.108
38365W        W10680  24.046  35.954   4.501
38366W        W10681   8.803  24.055   4.631
38367W        W10682   5.308   2.942  12.652
38368W        W10683  36.390  44.449   2.576
38369W        W10684  37.837  37.055  13.084
38370W        W10685   0.239  40.841  12.498
38371W        W10686  27.943  16.919  10.726
38372W        W10687  42.570  40.370  12.655
38373W        W10688   7.218   9.293   4.538
38374W        W10689  42.865  29.724  14.329
38375W        W10690   7.933   1.629   0.842
38376W        W10691   3.241  14.020   0.018
38377W        W10692  20.108   7.413   2.847
38378W        W10693  28.424  44.456  13.101
38379W        W10694  37.518  43.751  14.108
38380W        W10695  44.675   4.714   1.507
38381W        W10696  18.544  24.428  12.562
38382W        W10697   9.266  36.968  13.338
38383W        W10698  30.623  23.062  10.729
38384W        W10699   1.454  25.404  13.757
38385W        W10700  22.072   3.608  14.422
38386W        W10701  31.462  30.519   4.138
38387W        W10702  23.069   9.659  12.879
38388W        W10703  36.659  19.348   4.044
38389W        W10704  30.629  11.137  13.983
38390W        W10705   1.859  29.994   0.406
38391W        W10706   8.821   0.510  13.999
38392W        W10707  19.255  23.234  11.632
38393W        W10708  11.083   3.435  14.518
38394W        W10709  29.119   0.304  13.324
38395W        W10710  20.950  42.007  12.911
38396W        W10711  28.478  34.473   2.317
38397W        W10712  31.619  30.628   1.771
38398W        W10713  36.487   8.274  12.522
38399W        W10714   4.598   9.782  13.710
38400W        W10715  33.334   9.456  11.645
38401W        W10716  22.442  25.540   9.999
38402W        W10717  41.336  10.884   1.722
38403W        W10718  42.787  26.217   0.864
38404W        W10719  11.872  37.946   4.100
38405W        W10720   8.880  29.066   3.118
38406W        W10721  31.515  40.374  11.908
38407W        W10722  26.469  40.149  11.095
38408W        W10723  25.560  44.496   3.105
38409W        W10724   2.919  24.524   4.153
38410W        W10725  10.899  15.886   2.450
38411W        W10726   7.962  17.769   0.443
38412W        W10727   2.257  18.845  12.930
38413W        W10728   2.465  10.125   0.553
38414W        W10729  20.773  14.107   1.399
38415W        W10730   7.158   7.376   0.380
38416W        W10731  40.769  23.204  11.899
38417W        W10732  19.253  43.562   1.437
38418W        W10733  20.274   3.138   0.551
38419W        W10734  41.479  23.641   0.530
38420W        W10735  44.919  10.814  13.605
38421W        W10736  17.597  11.716   3.382
38422W        W10737  23.254   4.245  13.645
38423W        W10738  30.509   6.488   2.720
38424W        W10739  19.190  22.339   3.690
38425W        W10740  10.855  27.697   3.022
38426W        W10741  12.496  26.561  14.969
38427W        W10742  44.431  39.232  12.742
38428W        W10743  39.811  44.458  14.875
38429W        W10744   7.909   3.504   0.936
38430W        W10745   6.118  23.648   0.479
38431W        W10746   8.931  31.963   1.327
38432W        W10747  28.968  24.444  11.484
38433W        W10748   4.223  25.706   4.123
38434W        W10749  19.063  41.557   1.832
38435W        W10750  25.940  26.025   0.302
38436W        W10751   7.821  25.591   1.666
38437W        W10752  25.705  11.163   0.770
38438W        W10753   8.423  42.285  12.448
38439W        W10754  34.125  19.281  11.183
38440W        W10755   3.548  28.319   1.792
38441W        W10756  39.081  44.142  13.407
38442W        W10757  32.388  31.104  13.044
38443W        W10758  43.358   5.746   0.471
38444W        W10759   1.884  23.760  13.911
38445W        W10760  20.145   2.713  12.671
38446W        W10761  28.143  28.588   0.827
38447W        W10762   3.464  26.434  14.450
38448W        W10763   4.281  25.677   1.789
38449W        W10764  19.601  10.307  12.310
38450W        W10765  17.683  35.349   1.878
38451W        W10766   8.362  25.719  14.526
38452W        W10767  37.655  25.505  14.451
38453W        W10768  14.179  15.770  12.860
38454W        W10769   3.451   4.738  11.589
38455W        W10770  20.959  15.350   0.751
38456W        W10771  23.509   2.226   3.231
38457W        W10772  40.973  42.055   3.172
38458W        W10773  14.707   4.467  10.719
38459W        W10774  39.824  22.112   4.251
38460W        W10775  42.208   2.617   2.930
38461W        W10776  28.413  43.230  13.833
38462W        W10777  44.570  27.260  12.639
38463W        W10778  18.133  10.958   0.873
38464W        W10779  29.160  34.912   0.813
38465W        W10780  32.516  21.592   2.900
38466W        W10781  33.841  33.374   1.803
38467W        W10782  40.356   5.408  13.391
38468W        W10783  27.606  30.736   4.267
38469W        W10784  37.923  17.239   3.040
38470W        W10785   5.442  21.724  11.954
38471W        W10786  21.242  22.295   2.253
38472W        W10787   5.579  19.570  12.903
38473W        W10788  25.681  28.463   2.606
38474W        W10789  12.670  14.819   3.915
38475W        W10790  18.939  34.554   0.332
38476W        W10791   4.953  41.036  11.621
38477W        W10792  11.218   5.379  13.984
38478W        W10793   0.025  43.376   2.159
38479W        W10794   3.339  31.946   2.762
38480W        W10795  21.564   2.974   3.122
38481W        W10796   0.306  28.089   4.721
38482W        W10797  28.555  29.137  10.441
38483W        W10798  17.651  19.001  12.657
38484W        W10799  38.000   5.342  10.918
38485W        W10800   9.696  24.988  10.662
38486W        W10801  41.753   7.730   1.515
38487W        W10802   6.985  21.424   3.195
38488W        W10803  32.680  29.506   0.720
38489W        W10804  25.859  34.959   2.233
38490W        W10805  36.216   3.410   2.735
38491W        W10806   8.873  14.270  13.879
38492W        W10807  36.009   8.591  13.938
38493W        W10808   5.017  37.492  13.851
38494W        W10809  43.716  43.275  14.992
38495W        W10810  22.665  43.388   4.042
38496W        W10811   2.374  33.525   3.754
38497W        W10812  22.056  20.557   1.189
38498W        W10813  27.521   0.664  11.301
38499W        W10814  17.018  31.879   1.743
38500W        W10815  43.776  27.714   4.235
38501W        W10816  42.586  26.109  12.298
38502W        W10817  18.990  26.747  12.027
38503W        W10818   1.190  35.732   0.157
38504W        W10819  23.542  23.951  14.140
38505W        W10820  18.482  26.621  12.075
38506W        W10821  25.300  38.271  10.576
38507W        W10822  28.337  18.590  10.968
38508W        W10823  24.916  40.384  11.091
38509W        W10824  38.530  41.880  13.466
38510W        W10825  31.811  36.873  12.278
38511W        W10826  32.633   9.367  13.096
38512W        W10827  15.119  33.867  13.968
38513W        W10828  16.761  27.408  14.831
38514W        W10829  34.104  43.472   0.792
38515W        W10830  21.052  13.774  13.359
38516W        W10831  10.745   9.338  13.273
38517W        W10832  26.423   6.921   4.148
38518W        W10833   1.822  15.300   2.721
38519W        W10834   6.712  12.873  14.420
38520W        W10835  37.128  29.166  11.665
38521W        W10836   4.649  32.887   0.527
38522W        W10837  35.420  12.792   4.652
38523W        W10838   2.660  20.119   0.497
38524W        W10839  37.745  21.926   3.304
38525W        W10840  37.510  35.537   3.229
38526W        W10841  36.172  21.058   0.288
38527W        W10842  17.120   4.245   3.149
38528W        W10843  41.272  25.157   1.746
38529W        W10844  37.095  42.414   2.580
38530W        W10845  39.367  23.695   0.293
38531W        W10846   9.691  38.363   2.873
38532W        W10847   2.852  11.464   4.439
38533W        W10848  13.921   0.770   2.199
38534W        W10849   9.361  40.507  12.003
38535W        W10850  19.756  31.300  13.643
38536W        W10851  28.903  35.527   3.183
38537W        W10852   0.033  26.998  10.982
38538W        W10853  34.890   0.184   1.376
38539W        W10854  31.310  13.512   3.191
38540W        W10855  28.449   4.784  12.442
38541W        W10856  10.625  28.539   1.927
38542W        W10857  19.086   3.054   0.962
38543W        W10858   7.924  24.384   4.062
38544W        W10859  29.894  22.514   1.720
38545W        W10860  38.578  37.744   1.888
38546W        W10861  36.470  23.822  12.884
38547W        W10862  42.067  44.352   0.579
38548W        W10863  42.975  36.319   4.549
38549W        W10864  27.544  42.222  13.802
38550W        W10865  41.020  36.863  12.059
38551W        W10866  10.805  21.127   2.103
38552W        W10867  20.146  35.151   2.321
38553W        W10868   8.937  36.099  13.017
38554W        W10869  16.528  36.396  14.442
38555W        W10870  22.058  33.604   1.403
38556W        W10871   1.925  19.174  12.022
38557W        W10872  26.240  38.272   0.332
38558W        W10873  41.968  27.169  13.947
38559W        W10874   3.345  27.128   0.421
38560W        W10875  23.461   1.481  10.813
38561W        W10876  40.307  37.959   4.932
38562W        W10877   7.316  28.835   0.821
38563W        W10878   7.187  36.147   1.156
38564W        W10879   4.738  34.118  10.788
38565W        W10880  31.297  25.650   1.247
38566W        W10881  27.026   4.225   5.047
38567W        W10882   6.309  16.246  12.913
38568W        W10883  23.737   2.899   0.687
38569W        W10884  24.925  15.738  10.840
38570W        W10885   7.276  38.582   0.808
38571W        W10886  31.100  12.265  12.193
38572W        W10887  22.178  37.406   1.273
38573W        W10888  11.583  13.037   4.287
38574W        W10889  32.530  32.449   4.480
38575W        W10890  33.481   1.271   5.121
38576W        W10891   0.850  15.628   0.757
38577W        W10892   0.369  35.612  13.277
38578W        W10893  23.464   1.473  11.601
38579W        W10894   9.946  21.562   1.768
38580W        W10895  39.769   8.920   1.656
38581W        W10896  18.695  12.857   4.600
38582W        W10897   4.626  24.947   3.376
38583W        W10898  16.801  36.055  13.487
38584W        W10899  11.259  19.480   2.177
38585W        W10900  32.955  44.877  14.424
38586W        W10901  32.815  33.483  10.724
38587W        W10902  38.848  19.118  10.716
38588W        W10903  40.119  31.501   4.090
38589W        W10904  26.367  25.001  13.334
38590W        W10905   2.908   1.721   1.488
38591W        W10906  25.468  40.445  13.847
38592W        W10907   6.701  12.082  13.993
38593W        W10908  25.499  40.623   4.027
38594W        W10909  18.167  24.907   2.273
38595W        W10910  32.395  29.470   1.973
38596W        W10911  40.062  20.258  12.082
38597W        W10912  11.595  27.398   2.317
38598W        W10913  30.717  39.077  14.770
38599W        W10914  25.546  43.998   4.799
38600W        W10915  14.299  16.632  11.724
38601W        W10916   5.526   4.733   2.343
38602W        W10917  33.204  16.796   4.499
38603W        W10918  33.124  39.974  14.470
38604W        W10919  44.028  27.009   3.690
38605W        W10920  25.361  17.102   4.522
38606W        W10921   4.916  25.799   2.644
38607W        W10922  12.507  15.670   5.112
38608W        W10923  18.681  13.042  11.653
38609W        W10924  32.416   4.493   3.256
38610W        W10925  26.440   5.366   0.820
38611W        W10926  10.665  13.725   1.845
38612W        W10927   5.616  31.999  13.917
38613W        W10928  11.463  37.306  11.161
38614W        W10929   7.979  26.784  13.659
38615W        W10930  11.391  16.811   0.862
38616W        W10931  33.161  10.340  13.456
38617W        W10932  42.053  26.284  12.900
38618W        W10933  37.606   7.428  12.489
38619W        W10934  25.014  13.772   4.667
38620W        W10935  11.818  28.246   0.892
38621W        W10936   5.982  31.412   0.633
38622W        W10937  37.775  23.777   2.220
38623W        W10938   3.191  35.315   3.272
38624W        W10939   1.729  43.843  13.373
38625W        W10940  34.585  29.522   3.558
38626W        W10941   4.990  35.548   2.424
38627W        W10942  32.975  22.132   0.777
38628W        W10943  32.534   4.353   4.584
38629W        W10944  18.732  18.068   1.366
38630W        W10945  26.981   8.795   2.703
38631W        W10946  26.397  21.329  13.400
38632W        W10947  12.466  10.806   1.896
38633W        W10948  11.233  15.750   1.687
38634W        W10949   3.849  11.921  13.925
38635W        W10950  38.081   3.244  13.858
38636W        W10951  26.354  35.915  14.434
38637W        W10952  12.310  16.933   3.229
38638W        W10953  26.091  27.175  14.419
38639W        W10954  18.316  11.145   1.313
38640W        W10955  32.197  18.619  11.950
38641W        W10956   5.904  11.173   4.731
38642W        W10957   2.420  17.330  12.935
38643W        W10958   8.111  41.884   1.885
38644W        W10959  33.846  18.283   3.265
38645W        W10960  11.116  20.835   1.726
38646W        W10961  33.726  42.964  10.544
38647W        W10962  35.877  25.033  11.192
38648W        W10963  31.466  24.633   1.715
38649W        W10964  10.988  35.951   2.385
38650W        W10965  13.777  31.399  13.226
38651W        W10966  20.586  30.535  12.282
38652W        W10967  27.602  44.002   1.875
38653W        W10968   4.297  16.790  13.050
38654W        W10969  38.263  38.234  13.094
38655W        W10970  38.110  23.056  14.023
38656W        W10971  35.865   0.026  13.515
38657W        W10972  39.026   6.400  12.919
38658W        W10973  38.175  34.370  13.213
38659W        W10974  43.410   4.007   2.894
38660W        W10975  20.179   0.688  12.510
38661W        W10976  33.234  26.514  12.491
38662W        W10977  35.961   4.396  13.010
38663W        W10978  18.340  23.810  13.446
38664W        W10979  40.016   8.406   3.162
38665W        W10980  15.261   0.272  11.224
38666W        W10981  11.568  24.304  12.452
38667W        W10982  17.048  16.749  13.180
38668W        W10983  42.399  39.647  14.536
38669W        W10984  44.673  13.747  13.613
38670W        W10985   7.825  12.438   2.243
38671W        W10986   5.225  25.776  11.499
38672W        W10987   6.742  42.943   2.550
38673W        W10988  16.693  34.995   1.926
38674W        W10989  25.228  29.164   3.647
38675W        W10990  27.268  36.640  14.829
38676W        W10991  31.429  19.651  14.428
38677W        W10992  36.329  21.582   2.077
38678W        W10993  34.169  18.715  12.950
38679W        W10994  19.751  11.166   1.415
38680W        W10995   1.037  10.554   4.106
38681W        W10996  29.845  32.571  14.052
38682W        W10997   6.859  19.456   1.213
38683W        W10998  33.174   1.563  12.043
38684W        W10999   0.379  19.159   2.869
38685W        W11000  36.985  29.251   2.779
38686W        W11001  26.652   1.286  14.547
38687W        W11002  23.270  13.821  11.718
38688W        W11003  12.320  13.391   0.800
38689W        W11004   0.076  16.529   4.111
38690W        W11005   6.360  32.364   4.070
38691W        W11006  41.005  13.258  14.226
38692W        W11007  23.319  17.168   1.151
38693W        W11008  26.034  38.079   4.071
38694W        W11009  40.826  35.861   0.284
38695W        W11010  37.948  19.883   1.388
38696W        W11011  29.154  40.917   4.549
38697W        W11012  38.349  40.993  14.973
38698W        W11013   5.841  41.092   2.692
38699W        W11014  42.905  20.369  14.969
38700W        W11015  20.039  28.680   1.260
38701W        W11016  15.871  40.403  10.622
38702W        W11017   8.418  37.892  11.644
38703W        W11018  30.411   4.455  12.534
38704W        W11019  40.752  38.037  14.366
38705W        W11020  39.972  34.678   4.091
38706W        W11021  19.750  29.249  12.476
38707W        W11022  23.076  34.422   3.117
38708W        W11023  31.650  23.134  14.508
38709W        W11024  23.228  34.376  11.134
38710W        W11025  29.667   7.372   3.817
38711W        W11026  31.948  20.275  13.337
38712W        W11027  16.263  22.190   0.935
38713W        W11028  31.908  27.032   1.217
38714W        W11029  20.639  36.910   3.363
38715W        W11030   6.781   2.751   3.269
38716W        W11031  10.926  27.002   0.681
38717W        W11032  39.801  37.056   4.669
38718W        W11033  35.697  18.456  11.201
38719W        W11034  20.747  23.969  12.906
38720W        W11035  17.739  34.321   2.966
38721W        W11036  33.481  10.106   2.414
38722W        W11037  13.795  15.140  13.187
38723W        W11038  34.912  27.369  10.722
38724W        W11039  28.004  29.032  12.586
38725W        W11040  36.745  34.656  12.058
38726W        W11041  29.234  11.149   4.060
38727W        W11042  32.680  44.653   1.356
38728W        W11043  13.399  43.361  13.058
38729W        W11044  26.604  25.857   0.736
38730W        W11045  35.772  32.143  13.458
38731W        W11046   6.179  31.181   4.151
38732W        W11047  38.324   8.985   4.717
38733W        W11048   8.678   1.836  14.433
38734W        W11049  23.217  37.891   2.162
38735W        W11050  11.357  34.005  13.485
38736W        W11051  31.683  13.689  13.734
38737W        W11052  41.478  15.999  13.399
38738W        W11053  27.867  33.672  13.935
38739W        W11054  38.050  28.159  13.537
38740W        W11055  10.409  35.027  12.024
38741W        W11056   0.544  41.136  11.042
38742W        W11057  30.093  30.015  14.479
38743W        W11058  41.938   0.747   4.705
38744W        W11059  34.145  31.585  12.089
38745W        W11060  23.685  36.764  12.026
38746W        W11061   5.311  13.804  11.002
38747W        W11062  39.439  14.980   1.863
38748W        W11063  24.165  38.979   0.980
38749W        W11064  39.102   0.283   0.452
38750W        W11065   0.387  37.777   3.268
38751W        W11066  43.832  16.897  13.294
38752W        W11067  43.447  42.895  12.953
38753W        W11068  23.095  29.386   3.097
38754W        W11069   3.335  40.113  11.939
38755W        W11070  38.153  37.098  11.833
38756W        W11071   8.788  29.171  12.543
38757W        W11072   9.750  29.375   4.973
38758W        W11073  15.003  26.507  14.203
38759W        W11074  42.346  11.369  12.097
38760W        W11075  37.511  22.468  12.470
38761W        W11076  30.654  22.502  11.747
38762W        W11077  43.911  21.739   1.259
38763W        W11078  32.029  11.568   1.307
38764W        W11079  19.470  30.396   9.986
38765W        W11080  43.011  17.045  14.901
38766W        W11081  24.850   5.159   2.745
38767W        W11082  39.505  37.932   3.287
38768W        W11083  15.797  35.422   4.582
38769W        W11084  37.280  15.623   4.188
38770W        W11085  24.948   8.324   1.456
38771W        W11086  20.337   2.339   3.847
38772W        W11087   1.511  37.856   4.404
38773W        W11088   2.339  11.550   4.644
38774W        W11089   4.280  13.613  10.478
38775W        W11090  13.820  25.572  12.315
38776W        W11091  30.720  35.787   4.278
38777W        W11092  30.990  28.951  12.577
38778W        W11093  16.015  27.740   3.788
38779W        W11094  25.361  29.188   0.977
38780W        W11095  30.441  21.716   1.853
38781W        W11096  15.112  14.854  14.777
38782W        W11097   4.675  10.704  13.668
38783W        W11098  26.953  25.273  12.423
38784W        W11099  29.425  20.656  12.791
38785W        W11100  12.068  41.010   3.165
38786W        W11101  31.128  18.089   3.616
38787W        W11102   5.712  38.652   2.974
38788W        W11103  10.468  17.076   3.666
38789W        W11104  14.510  44.070   2.416
38790W        W11105   0.916  20.014   5.044
38791W        W11106  37.067  11.652  12.412
38792W        W11107  38.859  18.415  11.886
38793W        W11108  39.382  20.634   0.503
38794W        W11109  12.726  24.407   0.956
38795W        W11110   7.106  29.949   2.299
38796W        W11111   0.495  14.805  14.512
38797W        W11112  17.742  25.977   4.085
38798W        W11113  12.792  29.083   0.912
38799W        W11114  18.784   8.806   2.861
38800W        W11115   2.325  30.429  13.005
38801W        W11116  10.195  33.427   0.429
38802W        W11117  33.918  44.818   4.404
38803W        W11118  21.943   2.070  11.143
38804W        W11119  44.049  28.525  14.062
38805W        W11120  15.871  36.000   2.826
38806W        W11121   8.396  22.717   4.551
38807W        W11122  25.408  42.611  10.629
38808W        W11123  31.995  25.618   1.991
38809W        W11124  14.813   5.538  14.837
38810W        W11125  15.432  22.126   4.735
38811W        W11126  42.396  44.333  14.271
38812W        W11127  18.501  35.936  11.657
38813W        W11128  14.726   5.331  12.857
38814W        W11129  10.898   1.888   5.195
38815W        W11130  24.645  16.351   3.972
38816W        W11131  28.515  30.658  11.659
38817W        W11132  19.687  28.373  13.473
38818W        W11133   5.286  10.780  14.764
38819W        W11134  38.802  29.118  11.101
38820W        W11135   5.306  37.438   4.505
38821W        W11136  21.600  39.648   1.630
38822W        W11137  39.516   5.621  14.928
38823W        W11138  29.959  26.234   4.542
38824W        W11139  32.918  20.141   2.388
38825W        W11140  39.549  15.660   3.012
38826W        W11141  25.269  37.916   4.768
38827W        W11142  33.450  21.187  12.414
38828W        W11143   0.193  33.937   1.343
38829W        W11144  34.846   3.046  14.459
38830W        W11145  29.896  43.092  12.031
38831W        W11146  44.544  27.247  13.152
38832W        W11147  21.168  44.941   2.939
38833W        W11148  14.173  19.223  11.237
38834W        W11149  44.311  28.681   0.400
38835W        W11150  40.156  36.156  12.022
38836W        W11151  22.141  25.662   1.579
38837W        W11152  11.579  22.781  10.488
38838W        W11153   3.296  10.708  12.949
38839W        W11154  19.508  31.419   3.304
38840W        W11155  34.120  19.246  14.368
38841W        W11156  42.623  26.501  10.587
38842W        W11157  39.290  27.420   1.600
38843W        W11158  27.172  24.999   0.871
38844W        W11159  40.598  33.801  14.615
38845W        W11160  44.284  22.441  12.975
38846W        W11161   3.812  24.118   3.314
38847W        W11162  18.755  22.071   0.517
38848W        W11163  40.553  28.566   4.434
38849W        W11164   7.033  30.566  11.216
38850W        W11165  35.366  10.890   4.211
38851W        W11166  15.135  34.163   0.356
38852W        W11167  21.433   5.393   2.087
38853W        W11168  25.097  38.462  11.897
38854W        W11169   6.170  11.043  11.093
38855W        W11170  15.157   3.819   0.222
38856W        W11171   2.708   7.207   0.795
38857W        W11172  20.049  13.547   4.908
38858W        W11173  32.512  44.535  13.848
38859W        W11174   5.786   8.213   2.519
38860W        W11175  44.882  40.404   0.895
38861W        W11176  40.923  10.216   2.120
38862W        W11177  35.288  24.286   4.277
38863W        W11178  32.897  40.833   4.062
38864W        W11179   2.427  23.279  10.872
38865W        W11180  36.175  29.656   4.740
38866W        W11181  39.526  29.386   1.968
38867W        W11182   3.913  26.473  13.445
38868W        W11183  37.022  19.258  13.017
38869W        W11184  24.683  18.252  13.028
38870W        W11185   6.747   7.893  13.818
38871W        W11186  32.948   3.364   4.588
38872W        W11187  12.735  13.583  14.754
38873W        W11188   3.888  21.095  10.892
38874W        W11189  34.870  25.057  12.916
38875W        W11190  15.874  23.763  14.480
38876W        W11191  33.253  19.578  10.283
38877W        W11192  32.743  29.593   2.400
38878W        W11193  13.099  28.176   0.341
38879W        W11194  27.076  33.653  14.305
38880W        W11195  43.373  25.450  11.921
38881W        W11196  11.718  37.208  10.689
38882W        W11197  10.659  25.456   0.693
38883W        W11198  19.814  37.190  14.536
38884W        W11199  27.202  44.398  10.708
38885W        W11200  20.680  37.945  10.416
38886W        W11201  19.667  22.075   3.705
38887W        W11202   0.813  18.045   0.388
38888W        W11203   8.948  24.260  13.000
38889W        W11204  39.358   6.124   0.436
38890W        W11205  14.729  18.862  14.409
38891W        W11206  32.059  12.624   0.307
38892W        W11207  42.717   7.341  11.614
38893W        W11208  17.263   0.443  14.218
38894W        W11209  14.630  14.652  11.637
38895W        W11210  28.404  28.684   3.605
38896W        W11211  11.341  11.831  11.768
38897W        W11212  12.398  41.345  11.796
38898W        W11213  15.204  42.777   2.224
38899W        W11214  22.859  10.704   4.137
38900W        W11215   5.747   5.718   1.353
38901W        W11216   4.847  31.414  12.426
38902W        W11217  20.743  15.785   5.326
38903W        W11218  17.176  34.627   4.522
38904W        W11219  15.624  41.270  13.557
38905W        W11220  25.938  44.311   2.115
38906W        W11221   1.981  17.697  10.565
38907W        W11222   9.558  15.136  12.375
38908W        W11223  11.784  13.106  13.875
38909W        W11224   1.744   0.317  10.623
38910W        W11225  33.594  28.120  13.956
38911W        W11226  40.651  13.164   0.131
38912W        W11227   7.797  11.355   2.132
38913W        W11228  42.053  19.837   0.248
38914W        W11229  26.217  18.206  12.018
38915W        W11230  16.106  13.895   2.980
38916W        W11231  23.091  22.342   9.939
38917W        W11232   9.811  24.031  13.131
38918W        W11233  28.088  11.897   3.344
38919W        W11234  18.628   3.159   2.158
38920W        W11235  43.908  28.561   1.200
38921W        W11236  10.464  17.108  11.195
38922W        W11237  28.409  40.789  10.959
38923W        W11238   5.446  11.507  10.731
38924W        W11239  37.290  30.965   0.738
38925W        W11240  20.845  18.783   1.278
38926W        W11241  16.768  14.643  10.644
38927W        W11242  18.573   7.099   2.219
38928W        W11243  27.654  28.038  11.150
38929W        W11244  24.976  18.099   4.821
38930W        W11245  35.336  21.304   1.713
38931W        W11246  13.805  30.390   3.676
38932W        W11247  41.505  30.402  12.176
38933W        W11248  28.325   7.306  11.222
38934W        W11249  35.585  12.364   2.905
38935W        W11250  22.091  22.993   1.486
38936W        W11251  26.422  29.112   9.658
38937W        W11252  15.131   1.788   0.186
38938W        W11253  21.685  39.781  14.298
38939W        W11254  37.593  20.808  10.612
38940W        W11255  13.159  25.915  13.026
38941W        W11256  40.287  18.199   3.653
38942W        W11257  43.214   8.272   0.746
38943W        W11258   0.643  28.743   3.809
38944W        W11259  11.347  13.804  14.980
38945W        W11260  29.593  31.088   2.969
38946W        W11261  34.968  27.264   0.011
38947W        W11262  35.922  33.542  11.572
38948W        W11263  11.755   9.382  12.906
38949W        W11264  42.549  27.554   1.421
38950W        W11265   6.839   7.407  13.632
38951W        W11266   9.085  40.450  13.518
38952W        W11267  44.283  31.319  10.190
38953W        W11268  18.126   5.915   0.209
38954W        W11269   3.675   8.796   2.888
38955W        W11270  28.928  20.988  13.905
38956W        W11271  12.212  18.803   0.900
38957W        W11272  17.867  25.119  11.553
38958W        W11273  36.109   7.917   4.084
38959W        W11274  32.098  39.153   3.741
38960W        W11275   1.839   0.783   0.718
38961W        W11276  37.785  36.340   1.228
38962W        W11277  34.022   1.356   1.246
38963W        W11278  12.236  29.127  14.122
38964W        W11279  20.029  15.547  10.190
38965W        W11280  17.206  43.863   0.028
38966W        W11281  44.769  23.838  13.699
38967W        W11282   7.358  36.988  12.221
38968W        W11283  22.729   8.526   0.711
38969W        W11284   9.886  44.830  14.330
38970W        W11285   7.244  32.873  14.870
38971W        W11286  40.115   4.886   0.470
38972W        W11287  30.067  29.947   2.628
38973W        W11288  37.368  14.844   0.871
38974W        W11289  18.657   1.867   0.020
38975W        W11290   2.320   8.343   0.228
38976W        W11291  36.318  24.710   2.807
38977W        W11292  25.163  36.267   5.160
38978W        W11293  33.490   1.128  14.277
38979W        W11294  25.325  15.501   1.506
38980W        W11295  38.394   5.838   3.733
38981W        W11296   1.869  43.920   2.827
38982W        W11297  15.773   3.738   0.865
38983W        W11298   0.995  38.486  14.866
38984W        W11299  42.587  13.286  12.838
38985W        W11300  10.581  33.780  13.014
38986W        W11301  12.732  12.499  14.970
38987W        W11302  12.039  19.033  12.070
38988W        W11303  39.820  11.844   3.115
38989W        W11304  17.256  10.097   4.193
38990W        W11305   1.893  21.834   2.962
38991W        W11306  17.127  20.095  14.852
38992W        W11307  33.200  19.309   2.147
38993W        W11308  39.825  15.692   5.024
38994W        W11309  38.359  44.906  12.056
38995W        W11310  26.727  21.583  12.466
38996W        W11311  35.498  19.944   2.749
38997W        W11312  36.911  29.404  13.032
38998W        W11313   5.976   5.241   3.218
38999W        W11314  38.321  22.239  13.392
39000W        W11315  34.419   9.892  13.200
39001W        W11316  15.237  37.915   0.688
39002W        W11317  23.953  16.424  11.174
39003W        W11318  29.610  23.210   4.078
39004W        W11319  11.861  25.010   3.757
39005W        W11320  42.527   0.490  11.633
39006W        W11321  44.249  38.012   4.201
39007W        W11322  27.728  10.232   0.328
39008W        W11323  12.799  11.418  10.617
39009W        W11324  26.893  20.679   1.391
39010W        W11325   9.461  25.878   1.491
39011W        W11326  42.794  39.466  12.197
39012W        W11327  18.614  17.733   3.702
39013W        W11328  37.068  19.587  10.447
39014W        W11329  17.293  28.998   2.714
39015W        W11330   6.352  40.221   0.231
39016W        W11331  20.844  21.514  14.641
39017W        W11332  14.062   5.741   1.810
39018W        W11333  29.580  30.794  14.552
39019W        W11334  24.446  28.953   3.211
39020W        W11335  28.990  23.494  13.074
39021W        W11336  44.917   3.427   3.153
39022W        W11337  13.135  42.907   4.043
39023W        W11338  11.609  16.510   2.171
39024W        W11339  43.499  30.059  12.051
39025W        W11340  12.289  30.339  14.846
39026W        W11341   4.513  25.575  10.978
39027W        W11342   1.867  23.489   2.265
39028W        W11343  20.143  41.655  13.033
39029W        W11344  15.648   1.334   2.799
39030W        W11345  42.775  41.057  13.498
39031W        W11346   3.350  12.593   0.412
39032W        W11347  25.588  31.963  11.918
39033W        W11348  11.799  33.911   2.300
39034W        W11349   1.284   5.670   1.167
39035W        W11350  43.553  41.439   2.283
39036W        W11351   7.662  43.465   1.130
39037W        W11352  34.479  30.152  12.213
39038W        W11353   4.468   9.884  10.436
39039W        W11354  31.131  35.593  13.191
39040W        W11355  34.496  37.700  14.833
39041W        W11356   5.451  15.643  11.949
39042W        W11357   7.285  30.934  10.497
39043W        W11358  37.099  25.966   3.978
39044W        W11359  40.397  11.011  13.857
39045W        W11360  21.292  35.486  13.313
39046W        W11361  10.179  17.604  13.003
39047W        W11362  30.128  35.597  10.576
39048W        W11363  42.499   1.883   2.483
39049W        W11364  17.067  23.286   2.352
39050W        W11365  35.965   8.165  12.568
39051W        W11366  32.472   2.358  13.521
39052W        W11367  20.507   6.750  13.438
39053W        W11368  16.768  35.448   1.694
39054W        W11369   7.845  36.090  10.922
39055W        W11370  35.121   9.728   0.340
39056W        W11371   8.231  39.422  14.345
39057W        W11372  32.918  18.282  11.970
39058W        W11373  36.304  22.685  13.906
39059W        W11374   9.700   0.926   1.259
39060W        W11375  17.319  25.420   1.312
39061W        W11376   8.328  22.207   4.979
39062W        W11377  34.936  35.317  11.238
39063W        W11378  42.556  30.994   1.839
39064W        W11379  19.206   0.724   3.361
39065W        W11380  23.562   8.285   0.754
39066W        W11381   3.902   3.619  12.915
39067W        W11382  39.421  12.329  13.090
39068W        W11383   1.239  26.576   0.863
39069W        W11384  39.376  30.736  11.048
39070W        W11385  24.516   3.646   3.191
39071W        W11386   7.329   5.496  12.455
39072W        W11387   4.277  20.331   0.434
39073W        W11388   0.840   0.746   3.321
39074W        W11389  30.813  19.739  11.165
39075W        W11390   5.921  21.485  12.858
39076W        W11391  27.447  15.969   3.274
39077W        W11392  18.527  19.771   4.649
39078W        W11393  35.362  12.123   3.336
39079W        W11394  15.903  19.449   5.286
39080W        W11395  10.610  43.358   1.337
39081W        W11396  31.590  20.605  11.178
39082W        W11397  27.488  34.605   4.513
39083W        W11398  12.568  28.604   4.729
39084W        W11399  20.182  44.860  10.622
39085W        W11400  38.177  42.085  11.591
39086W        W11401  21.090  43.030   5.035
39087W        W11402   3.447  12.127   3.733
39088W        W11403  15.321   7.171  10.924
39089W        W11404  28.898  44.830   3.129
39090W        W11405   2.999  32.186   4.967
39091W        W11406  41.430  23.839   3.426
39092W        W11407  16.373  15.630  11.149
39093W        W11408  44.428  30.962  14.346
39094W        W11409  43.018   8.622  12.128
39095W        W11410  43.413   9.102   3.092
39096W        W11411   2.469  25.881   1.720
39097W        W11412  15.748  22.434  11.278
39098W        W11413  39.979  16.826  12.019
39099W        W11414  30.171  38.877  10.405
39100W        W11415  28.134  15.664  14.118
39101W        W11416  36.386  42.026  14.014
39102W        W11417  40.096  24.117   3.759
39103W        W11418  34.100  27.567  12.150
39104W        W11419  25.939  28.365  13.430
39105W        W11420  21.404  21.080  13.143
39106W        W11421  43.955   1.494  10.454
39107W        W11422   4.524  42.435  12.446
39108W        W11423  36.080  35.295  14.492
39109W        W11424  30.184  20.232  12.786
39110W        W11425  12.441  40.830   1.054
39111W        W11426   4.670  42.422   1.237
39112W        W11427  34.942  41.671  12.289
39113W        W11428  23.638  11.659   4.549
39114W        W11429  28.493  25.177  11.215
39115W        W11430   9.055  27.838  12.045
39116W        W11431  40.247   1.224  14.793
39117W        W11432   2.422  37.425  11.999
39118W        W11433  12.535  27.572   4.677
39119W        W11434   9.602   9.918   3.125
39120W        W11435  18.367  21.061  11.694
39121W        W11436  43.062  21.290   4.584
39122W        W11437   3.971  44.233  13.868
39123W        W11438  17.969  42.549  13.462
39124W        W11439   9.096  27.612   4.981
39125W        W11440  11.577  36.637  13.623
39126W        W11441  17.853  10.327   5.526
39127W        W11442  38.509  29.447   0.874
39128W        W11443   1.936  32.182  12.762
39129W        W11444  15.800  35.622  14.758
39130W        W11445   1.758  21.673   3.848
39131W        W11446  41.307  12.256  10.881
39132W        W11447  19.521  15.635   0.052
39133W        W11448  26.736  35.888   0.902
39134W        W11449  11.629  29.515  10.890
39135W        W11450  15.410  36.709  12.972
39136W        W11451  36.497   0.244  12.408
39137W        W11452  10.869  23.811   0.831
39138W        W11453   1.918  39.903  12.863
39139W        W11454  20.118  20.825  11.415
39140W        W11455  34.474   8.173  13.053
39141W        W11456   9.730   7.176   1.260
39142W        W11457  40.949  32.279  12.868
39143W        W11458   9.635  20.218  13.476
39144W        W11459  37.864  36.833  11.428
39145W        W11460  41.281  36.163  13.839
39146W        W11461  39.027  10.193   0.000
39147W        W11462  32.500  40.124   4.579
39148W        W11463  34.045  16.245  12.145
39149W        W11464  34.025  34.076   3.877
39150W        W11465   7.369  33.325  14.008
39151W        W11466  17.027  26.615  14.984
39152W        W11467  25.199  14.271   2.959
39153W        W11468  43.995  34.492  12.285
39154W        W11469  39.695  25.099  12.478
39155W        W11470   9.203   9.368  13.653
39156W        W11471  19.700  30.545   2.812
39157W        W11472  41.784  40.464  12.474
39158W        W11473  42.537  30.019   3.868
39159W        W11474  37.379  10.356   3.334
39160W        W11475  19.212  25.999  11.361
39161W        W11476  35.534  18.099  13.081
39162W        W11477  36.546  37.762  11.656
39163W        W11478  27.493  34.364   9.851
39164W        W11479  26.816  35.322   3.075
39165W        W11480  31.572  36.951   2.664
39166W        W11481  20.069  43.259   1.090
39167W        W11482  38.073  25.633   4.270
39168W        W11483  11.481  15.213  14.859
39169W        W11484  32.485  39.864  12.835
39170W        W11485  20.325  32.122  12.134
39171W        W11486  39.908  25.949  11.178
39172W        W11487  42.254  26.317   2.684
39173W        W11488  42.521   9.873  12.120
39174W        W11489  43.847   1.560   3.303
39175W        W11490  40.091  31.214  13.017
39176W        W11491  30.469  10.107  14.906
39177W        W11492  31.067  35.597  12.669
39178W        W11493  21.055  25.515  11.471
39179W        W11494  35.860   9.165  13.507
39180W        W11495   0.888   6.268  13.930
39181W        W11496  32.071  38.539  12.490
39182W        W11497  15.154  12.838  13.925
39183W        W11498  39.533  24.657   0.958
39184W        W11499  30.822   0.204   1.470
39185W        W11500   2.599  17.112   0.748
39186W        W11501  29.578  39.832   1.774
39187W        W11502   8.840  36.003   4.136
39188W        W11503  39.510  26.380   1.242
39189W        W11504  39.000  10.140  13.984
39190W        W11505  19.982  36.917   1.857
39191W        W11506  31.583  33.079  12.144
39192W        W11507  25.218  10.002  13.784
39193W        W11508  15.700  25.718  12.152
39194W        W11509  21.217  41.392  14.119
39195W        W11510  42.906  19.324  12.798
39196W        W11511  18.859  10.821   0.349
39197W        W11512   3.264  23.543   2.321
39198W        W11513   5.236  42.335  12.919
39199W        W11514   5.357  10.261  14.702
39200W        W11515   2.387  19.247   3.028
39201W        W11516  32.473  12.708  14.080
39202W        W11517  28.662  20.079   2.866
39203W        W11518   8.816   0.464  12.645
39204W        W11519  35.944  43.214  14.443
39205W        W11520  37.981  28.492   0.745
39206W        W11521  28.429   9.928   1.350
39207W        W11522  15.881   0.755  14.555
39208W        W11523   5.492  28.379  13.439
39209W        W11524  40.963  15.719  12.094
39210W        W11525   9.609  14.311  10.774
39211W        W11526  42.359   9.174   0.860
39212W        W11527  24.614  12.855  13.530
39213W        W11528  43.600   7.505  13.381
39214W        W11529  23.104   1.967  13.984
39215W        W11530  14.663  12.811   3.616
39216W        W11531  27.009  42.095   2.231
39217W        W11532  28.983  27.093  13.042
39218W        W11533   8.843  30.205   3.254
39219W        W11534  33.967  36.931  13.800
39220W        W11535  11.682  19.614  12.870
39221W        W11536   3.410  44.031   2.569
39222W        W11537  42.669  18.342  14.068
39223W        W11538  32.793  27.013   0.860
39224W        W11539   8.891   5.794  12.868
39225W        W11540  35.552  36.347   0.409
39226W        W11541  35.573  28.866  13.652
39227W        W11542  35.096  27.048   0.469
39228W        W11543   4.527   3.242  10.465
39229W        W11544  21.472   4.351   0.714
39230W        W11545   6.666  13.905  14.221
39231W        W11546  30.399   7.416   1.857
39232W        W11547  43.454  19.461  10.595
39233W        W11548   0.656   0.430   0.760
39234W        W11549  28.157  12.055  10.763
39235W        W11550  27.003  30.059   0.906
39236W        W11551   4.701  18.606   3.238
39237W        W11552   3.390  28.920   2.746
39238W        W11553   7.405  24.978   2.785
39239W        W11554  28.148  16.625   3.734
39240W        W11555   6.153  25.185  14.855
39241W        W11556  23.989  43.698   0.155
39242W        W11557  26.915  37.998  13.028
39243W        W11558  22.089  19.954  14.407
39244W        W11559  15.709  26.141   1.420
39245W        W11560  29.435  13.149   4.748
39246W        W11561  35.467   8.675  11.810
39247W        W11562  42.376   9.769  11.258
39248W        W11563  23.080  19.520   3.307
39249W        W11564  29.128   7.577  14.914
39250W        W11565  13.798   7.914  12.062
39251W        W11566  27.140  10.368   0.354
39252W        W11567  33.515  30.521   1.742
39253W        W11568  16.311   2.340  13.801
39254W        W11569  41.842  31.478  11.584
39255W        W11570   0.935  26.710   1.275
39256W        W11571   3.220  23.190  11.956
39257W        W11572  34.953  40.365   0.407
39258W        W11573  36.491   2.821   3.108
39259W        W11574  38.860  21.959   0.254
39260W        W11575  41.459  37.195  14.951
39261W        W11576   1.764  38.084  13.525
39262W        W11577  18.731  33.832  14.279
39263W        W11578   7.803  21.249  12.076
39264W        W11579  20.186   1.579   4.501
39265W        W11580  37.546  39.869   0.654
39266W        W11581   5.716  28.493  14.922
39267W        W11582  31.960  38.456   3.520
39268W        W11583  17.585  30.106  12.378
39269W        W11584  19.793  23.735   1.580
39270W        W11585  33.428  44.739   4.586
39271W        W11586  17.572  23.332  13.022
39272W        W11587  12.393  11.811  12.156
39273W        W11588  19.999  21.987  13.463
39274W        W11589   2.578  23.909   1.298
39275W        W11590  21.137  43.485   4.179
39276W        W11591   7.785  29.929  11.173
39277W        W11592  33.841  42.451  13.345
39278W        W11593  23.818  14.590  12.809
39279W        W11594  25.730  21.081   1.255
39280W        W11595  20.738  10.370   0.454
39281W        W11596  28.227   0.944  10.244
39282W        W11597   4.604  30.430  13.860
39283W        W11598  29.367  15.371  11.525
39284W        W11599  39.122   3.611  14.768
39285W        W11600   0.294  34.004  13.776
39286W        W11601  10.158  13.261   2.711
39287W        W11602  30.420  20.253   0.471
39288W        W11603   0.315   2.007   4.488
39289W        W11604  37.431  24.002   5.586
39290W        W11605  26.590  34.105  11.208
39291W        W11606  37.589   6.810   3.338
39292W        W11607  40.589   6.869   4.827
39293W        W11608  38.591   5.386   4.564
39294W        W11609   4.239   2.953   1.669
39295W        W11610   1.647  42.502   2.117
39296W        W11611  15.799   2.227   3.741
39297W        W11612  10.698  39.638  14.002
39298W        W11613  14.139  27.739  14.363
39299W        W11614  10.627  23.714  10.276
39300W        W11615  20.209   5.303  11.070
39301W        W11616  11.952  29.853   1.486
39302W        W11617   1.494   2.257   3.170
39303W        W11618  28.891  40.158   3.715
39304W        W11619   8.705   1.745  10.630
39305W        W11620  34.869  32.949   2.749
39306W        W11621  12.385  20.280   4.815
39307W        W11622  22.642  35.372   2.681
39308W        W11623  38.088  11.687  14.171
39309W        W11624  36.750   8.406  11.594
39310W        W11625   3.038   0.871   0.238
39311W        W11626  43.997  40.096   3.770
39312W        W11627  36.961   9.890   2.147
39313W        W11628  12.209   5.929  12.566
39314W        W11629   6.303  20.311  13.244
39315W        W11630  41.197  24.407   2.421
39316W        W11631  32.908  40.327   4.320
39317W        W11632   9.962   8.990   1.254
39318W        W11633  41.215  25.330  13.354
39319W        W11634  36.022  26.911  12.903
39320W        W11635  26.696  21.731   4.565
39321W        W11636  37.063  15.275  11.205
39322W        W11637  13.273  44.950  11.962
39323W        W11638  35.537  37.387   1.211
39324W        W11639  42.010  16.259   4.763
39325W        W11640   7.225   2.252  11.697
39326W        W11641  19.229  44.246   3.260
39327W        W11642   9.964  38.785   2.668
39328W        W11643  14.255  30.488   3.415
39329W        W11644  36.461  30.170   2.062
39330W        W11645   1.867   8.188   1.888
39331W        W11646  30.416   4.190   4.876
39332W        W11647   2.399   7.477  12.600
39333W        W11648  42.296  43.616  11.937
39334W        W11649   5.822   0.705  11.072
39335W        W11650  38.485   4.158   3.782
39336W        W11651  14.639  22.202   0.226
39337W        W11652  41.916  39.678  14.756
39338W        W11653  41.943  12.912  14.950
39339W        W11654  16.581  34.490   0.733
39340W        W11655  31.644   5.258  10.425
39341W        W11656   2.293  19.348   5.092
39342W        W11657  14.866   2.979  13.320
39343W        W11658  43.433   1.168   4.634
39344W        W11659   6.848  13.407  12.876
39345W        W11660  13.776   8.830  14.722
39346W        W11661   5.765  11.969   4.098
39347W        W11662  32.947  26.135   4.639
39348W        W11663  25.620   7.707  13.047
39349W        W11664  10.631  15.265  10.375
39350W        W11665  28.982  23.872   1.189
39351W        W11666   5.625  24.011  11.084
39352W        W11667  14.162  10.426   0.978
39353W        W11668  35.350   2.049  14.556
39354W        W11669  39.876  30.619   4.602
39355W        W11670  24.222  16.053   2.171
39356W        W11671  20.556  40.587   2.679
39357W        W11672  34.895  43.405   4.234
39358W        W11673  19.606  41.175  10.964
39359W        W11674  31.005   2.405   0.768
39360W        W11675  37.969  34.393  13.683
39361W        W11676   8.112  43.730  11.200
39362W        W11677  17.385  15.202   1.894
39363W        W11678  22.451  24.116  11.064
39364W        W11679  42.459  17.594   2.967
39365W        W11680  24.923  27.978  13.818
39366W        W11681  30.143   4.338   1.960
39367W        W11682  41.460  28.597  13.094
39368W        W11683  16.077  30.612   1.809
39369W        W11684  33.103  18.673   3.656
39370W        W11685  22.940  31.119   2.299
39371W        W11686  28.132  25.977  14.113
39372W        W11687  21.819  31.855   2.338
39373W        W11688  36.414   6.956   4.211
39374W        W11689   0.418  37.855   0.332
39375W        W11690   6.337  28.434   1.615
39376W        W11691  11.047  19.158  12.355
39377W        W11692  13.864  37.428  13.760
39378W        W11693   3.023   2.415   3.623
39379W        W11694  10.448  44.947  10.583
39380W        W11695  29.129  27.683  13.385
39381W        W11696  18.784  43.904   4.142
39382W        W11697  12.608  30.148   2.231
39383W        W11698  24.547   8.274   1.121
39384W        W11699   7.152   2.262  14.790
39385W        W11700  25.571  27.213  11.525
39386W        W11701  15.830   7.746  14.052
39387W        W11702  33.549  31.236   4.418
39388W        W11703  36.695   4.615   3.169
39389W        W11704  23.293  20.725   0.265
39390W        W11705   4.015  26.031  10.668
39391W        W11706  39.846  44.317  10.604
39392W        W11707   5.720   9.077  12.560
39393W        W11708  10.665   7.825  11.207
39394W        W11709  11.052  38.774   2.833
39395W        W11710   2.902   5.634   2.848
39396W        W11711  36.930  44.766  10.498
39397W        W11712   8.201  36.678  13.900
39398W        W11713  43.838  20.237  13.396
39399W        W11714  42.888  33.690  13.368
39400W        W11715   6.816  23.187   1.056
39401W        W11716  14.606  39.576   3.349
39402W        W11717  13.078  27.541   3.753
39403W        W11718  14.915  44.932   2.188
39404W        W11719  14.865  31.238  12.559
39405W        W11720  40.094  41.322  11.513
39406W        W11721   5.383   6.767  14.419
39407W        W11722   5.782   7.183   2.722
39408W        W11723  10.236  20.700   1.869
39409W        W11724  41.513  23.171  14.034
39410W        W11725  41.882  36.634   1.373
39411W        W11726  15.782  14.473  12.029
39412W        W11727  44.720   6.743  11.204
39413W        W11728  10.823   3.700  13.616
39414W        W11729  17.226  33.024   1.319
39415W        W11730   5.090  20.615   0.929
39416W        W11731  31.369  41.543  12.097
39417W        W11732  18.030   1.313   0.464
39418W        W11733  27.636  34.471   2.649
39419W        W11734  38.531  23.107   5.300
39420W        W11735   3.427   7.691   4.546
39421W        W11736  31.018   9.765  14.903
39422W        W11737  21.745   3.968   1.862
39423W        W11738  42.363   0.310   2.479
39424W        W11739   5.669  38.924  11.977
39425W        W11740  26.618   1.992   1.197
39426W        W11741   1.469  37.385  12.068
39427W        W11742   3.179  36.582  13.410
39428W        W11743  10.723  43.954  13.192
39429W        W11744  39.914  39.754   3.872
39430W        W11745  14.552  27.707   4.798
39431W        W11746  19.255  42.096   4.927
39432W        W11747  43.897  36.770  10.996
39433W        W11748   0.135  33.571  10.397
39434W        W11749  16.681  41.686  12.905
39435W        W11750  16.335  19.048   2.294
39436W        W11751  23.408   9.411  14.235
39437W        W11752  20.694  33.241   3.096
39438W        W11753  21.780   3.349   2.677
39439W        W11754  37.326  34.100  13.799
39440W        W11755  17.636  33.850   3.164
39441W        W11756   7.984   8.333  12.415
39442W        W11757  18.005  36.460  14.054
39443W        W11758  21.876  38.460  11.186
39444W        W11759   7.491   0.201  11.234
39445W        W11760  15.359  11.363  10.753
39446W        W11761  38.454  40.242   1.762
39447W        W11762  18.212  18.113   4.032
39448W        W11763   7.253  33.156   4.269
39449W        W11764  28.674  31.096   4.609
39450W        W11765  21.420  30.409   3.361
39451W        W11766  21.029  42.338   1.785
39452W        W11767  13.366  27.099  13.949
39453W        W11768  43.202  17.077  12.205
39454W        W11769  23.418   3.671  13.168
39455W        W11770  16.815  38.348   2.471
39456W        W11771  16.517  10.845  14.828
39457W        W11772  18.351  10.919  14.073
39458W        W11773   2.274  17.923  11.884
39459W        W11774  26.834  34.251   4.533
39460W        W11775  14.746   5.903   2.382
39461W        W11776  18.273  43.451   2.784
39462W        W11777   7.904  29.005   3.850
39463W        W11778   8.488  21.055   1.477
39464W        W11779   1.014  14.700  11.463
39465W        W11780  25.199  20.118   1.383
39466W        W11781   4.118  34.272  12.543
39467W        W11782  15.730  26.501  12.774
39468W        W11783  35.052  38.124  11.557
39469W        W11784   6.356  44.264  12.584
39470W        W11785   9.614   6.444   3.654
39471W        W11786  32.207  22.043  13.567
39472W        W11787  28.213   5.976  11.689
39473W        W11788  27.810  31.687   0.664
39474W        W11789  11.124  36.857  11.076
39475W        W11790  13.399  28.906   5.054
39476W        W11791   1.010  28.258   9.846
39477W        W11792  20.052  38.738   0.746
39478W        W11793   0.497  23.315  13.817
39479W        W11794  29.020  22.529   0.452
39480W        W11795  35.475  10.640   3.775
39481W        W11796   3.487   9.254  12.842
39482W        W11797  19.910  25.965   3.413
39483W        W11798   3.501  29.207   4.515
39484W        W11799  20.681  19.690  11.071
39485W        W11800  41.674   4.989   3.840
39486W        W11801  32.898  36.076  12.929
39487W        W11802  21.116   4.699   1.831
39488W        W11803  36.461  23.786  12.024
39489W        W11804   2.491  16.794  12.035
39490W        W11805  14.053   0.496  12.772
39491W        W11806  33.553  18.691   4.985
39492W        W11807  11.322  43.201  12.605
39493W        W11808  36.391  44.461  14.004
39494W        W11809  27.605  39.092  12.990
39495W        W11810  40.256  39.016   4.244
39496W        W11811  31.527  35.860   0.354
39497W        W11812   3.331  32.423   2.586
39498W        W11813  16.063   7.838  10.719
39499W        W11814  10.704  22.302   0.707
39500W        W11815  36.088  26.402  12.943
39501W        W11816  27.891   7.543  13.122
39502W        W11817   6.854   4.035   3.902
39503W        W11818  25.373   6.030   9.743
39504W        W11819   0.748  27.300  13.591
39505W        W11820  10.053   3.133   4.119
39506W        W11821  42.023  30.040   3.856
39507W        W11822  24.533  33.201  11.246
39508W        W11823  22.268   6.919   0.208
39509W        W11824   2.674  13.466  11.938
39510W        W11825  19.652  16.600  12.302
39511W        W11826  41.503   7.776  12.914
39512W        W11827   8.191  43.458   1.196
39513W        W11828  32.388   7.783   3.629
39514W        W11829  18.302  43.200  11.607
39515W        W11830   1.212   3.276  12.012
39516W        W11831  18.981   8.328  14.725
39517W        W11832  36.132  20.982  12.933
39518W        W11833  14.725   5.920  14.495
39519W        W11834  43.155  37.969  10.311
39520W        W11835  15.358  39.876   3.838
39521W        W11836   7.627  16.371   0.714
39522W        W11837  44.043  10.153   0.343
39523W        W11838   9.179   0.155  13.815
39524W        W11839   4.195  41.555   3.824
39525W        W11840  26.219   6.470   4.277
39526W        W11841  13.898  17.679   3.562
39527W        W11842  18.823   0.285  11.064
39528W        W11843  21.606  28.760   2.174
39529W        W11844  37.061  42.116   0.749
39530W        W11845  40.955  19.076   1.709
39531W        W11846   8.463   9.257  12.384
39532W        W11847  24.251  29.541  11.646
39533W        W11848  29.432  20.047   1.403
39534W        W11849   9.419  14.271  12.152
39535W        W11850  15.726   8.746  14.915
39536W        W11851  26.500  13.378  13.510
39537W        W11852  20.749  19.006  12.946
39538W        W11853  26.940  38.974  14.805
39539W        W11854  27.922  33.907  12.709
39540W        W11855   3.097  44.329   4.734
39541W        W11856  27.101  27.979  11.058
39542W        W11857  29.518  36.196   3.685
39543W        W11858  33.101  35.739  11.680
39544W        W11859   6.062  15.890  11.699
39545W        W11860  28.131  20.666   2.353
39546W        W11861  23.271  11.748  13.105
39547W        W11862   9.217   8.897   1.460
39548W        W11863   5.420  31.213   2.751
39549W        W11864  35.947  19.084  12.991
39550W        W11865  14.369  16.240  12.026
39551W        W11866  28.598  19.418   1.167
39552W        W11867   3.394   0.431   0.274
39553W        W11868   5.273  14.960   2.894
39554W        W11869   2.362   0.995  11.071
39555W        W11870   2.867   7.112  11.404
39556W        W11871  33.351  11.428   2.370
39557W        W11872  21.536   3.437   4.394
39558W        W11873   1.548   0.795  12.417
39559W        W11874   5.402  34.107  12.418
39560W        W11875  12.148  36.769   2.306
39561W        W11876  13.900  29.521  12.442
39562W        W11877  33.113   2.217   1.953
39563W        W11878  37.344  11.870  13.520
39564W        W11879   4.715  30.968   0.362
39565W        W11880  33.370  17.155  10.741
39566W        W11881  21.510  30.325  13.824
39567W        W11882  22.047  40.508   2.079
39568W        W11883  12.521  29.988  13.278
39569W        W11884  38.395  24.472   4.112
39570W        W11885   0.399  31.637  13.910
39571W        W11886   6.974  20.485  12.842
39572W        W11887  10.313  20.684   1.307
39573W        W11888  41.875  18.614   3.444
39574W        W11889  34.364  27.428  10.640
39575W        W11890  36.056   7.729  12.852
39576W        W11891  28.452  35.791  11.489
39577W        W11892  31.391  39.308   2.342
39578W        W11893  39.228  30.166   3.114
39579W        W11894   8.946   0.719   1.588
39580W        W11895  19.494  37.443  13.508
39581W        W11896   4.678  34.937  12.091
39582W        W11897  28.065  19.520   1.262
39583W        W11898   9.512  22.724  10.746
39584W        W11899  18.064  10.652  12.629
39585W        W11900   5.888  36.839  13.332
39586W        W11901  37.033  35.093  11.951
39587W        W11902  36.013  44.057   3.719
39588W        W11903  21.621  27.633  12.893
39589W        W11904  35.066  27.718  13.204
39590W        W11905   8.487  40.515  11.947
39591W        W11906  20.034  36.900  11.686
39592W        W11907  39.737  16.326   4.141
39593W        W11908  37.943  21.816  14.396
39594W        W11909  10.988   6.110   1.152
39595W        W11910  42.541   3.863   0.406
39596W        W11911  33.279  17.731   3.693
39597W        W11912   6.743  28.676   0.345
39598W        W11913  21.018  37.744   0.792
39599W        W11914  37.968  28.093  14.896
39600W        W11915  36.807  21.775  13.701
39601W        W11916  39.416  11.109  12.993
39602W        W11917  38.779  11.163   1.011
39603W        W11918  15.993   4.369   3.766
39604W        W11919  25.617  12.031   1.786
39605W        W11920  42.993  32.197  12.384
39606W        W11921  23.191  12.262  11.975
39607W        W11922  36.541  13.795  13.971
39608W        W11923  31.200  23.099  14.788
39609W        W11924   6.825  39.035   3.654
39610W        W11925  30.495   5.956   3.673
39611W        W11926   8.181   4.980   4.568
39612W        W11927  39.288  29.718  13.476
39613W        W11928  21.643  16.210   4.710
39614W        W11929  30.962   7.381   1.298
39615W        W11930  41.826  10.332  13.641
39616W        W11931   8.819   3.266   4.629
39617W        W11932   6.826  40.043  11.655
39618W        W11933  21.814  43.523  11.972
39619W        W11934  26.625  43.468  14.879
39620W        W11935  34.321  11.394  13.027
39621W        W11936   7.732  35.369  13.604
39622W        W11937  25.532  40.061  12.014
39623W        W11938  42.821  44.906   0.743
39624W        W11939  23.258  11.398   3.231
39625W        W11940   1.363  10.289   1.508
39626W        W11941   7.743  43.600  12.451
39627W        W11942  35.046  43.147  12.624
39628W        W11943   2.692  35.692   5.469
39629W        W11944  42.812  25.133   2.297
39630W        W11945  27.254   3.316   4.162
39631W        W11946  42.515  34.677   4.061
39632W        W11947  36.557  42.905   4.528
39633W        W11948  44.338  14.750   4.079
39634W        W11949  17.061  38.580  12.030
39635W        W11950  10.777  28.990  11.847
39636W        W11951  25.020  15.737   0.821
39637W        W11952  11.171  36.814   2.712
39638W        W11953  34.556  22.224  13.445
39639W        W11954   9.869  22.233   2.723
39640W        W11955  44.711  44.856   1.361
39641W        W11956  34.516  34.052  11.613
39642W        W11957   9.226  41.845   4.041
39643W        W11958  19.966  21.729   4.629
39644W        W11959  11.904  42.438  11.132
39645W        W11960  33.013  19.216  12.028
39646W        W11961  41.039   4.347   2.640
39647W        W11962   9.293   9.626  12.206
39648W        W11963  10.036  18.592  14.834
39649W        W11964  39.025  17.819   0.137
39650W        W11965  15.265  35.395  13.741
39651W        W11966  42.708  25.584   0.716
39652W        W11967  26.161   3.669   5.490
39653W        W11968  29.636   2.487   1.848
39654W        W11969  15.158  10.154  11.157
39655W        W11970  27.537  25.742  11.719
39656W        W11971  23.545  38.884  10.855
39657W        W11972   1.902  40.263  14.290
39658W        W11973  11.388  35.099  13.089
39659W        W11974  16.685   7.403   2.396
39660W        W11975  17.514  39.458   4.283
39661W        W11976   2.782  16.176  14.677
39662W        W11977  21.259  42.095  11.959
39663W        W11978  10.846  38.288  14.788
39664W        W11979  18.679   3.666   3.666
39665W        W11980  24.416   5.427   3.426
39666W        W11981   3.206   1.422   1.177
39667W        W11982  29.981  15.559  12.145
39668W        W11983  36.356  33.588   1.777
39669W        W11984  29.605   4.954  12.949
39670W        W11985  44.376  26.314  12.271
39671W        W11986  32.456  13.790  12.908
39672W        W11987  19.563  36.560   3.048
39673W        W11988  40.956  20.777   0.341
39674W        W11989  13.566  24.730  12.572
39675W        W11990  15.033  41.897   4.606
39676W        W11991   8.761  27.867   4.621
39677W        W11992  42.476  28.661  14.883
39678W        W11993  15.401  12.155  12.706
39679W        W11994  30.569  29.566  12.030
39680W        W11995  36.513   7.414  10.870
39681W        W11996  21.961   8.706   3.651
39682W        W11997  44.822  14.867   0.583
39683W        W11998  27.450  23.595  14.487
39684W        W11999  32.967   1.027  10.401
39685W        W12000  32.512  34.758   5.126
39686W        W12001  16.879  23.175  10.349
39687W        W12002  26.397   3.738  14.312
39688W        W12003  11.601  39.683  13.023
39689W        W12004  42.353  36.092   3.773
39690W        W12005  43.062  14.124   2.704
39691W        W12006  23.461   6.780   4.567
39692W        W12007  26.601  34.127   4.092
39693W        W12008  18.354   7.861  14.476
39694W        W12009  42.972   8.641   0.367
39695W        W12010  16.599  40.329  12.029
39696W        W12011  14.552  19.050  14.865
39697W        W12012  10.890  18.020  13.817
39698W        W12013  20.626  34.702   1.410
39699W        W12014  37.927   1.480   4.197
39700W        W12015  29.168  18.394   1.749
39701W        W12016  38.538  23.638  10.607
39702W        W12017  19.766  13.609   4.398
39703W        W12018  18.706  19.589  11.446
39704W        W12019  18.320  36.076  14.211
39705W        W12020  10.441   4.262   3.809
39706W        W12021  28.879   3.912   2.866
39707W        W12022   6.674  23.587   0.729
39708W        W12023  42.362  13.431   0.848
39709W        W12024  41.103   2.907   4.862
39710W        W12025  11.680   5.273  14.540
39711W        W12026  41.483   3.858   0.431
39712W        W12027  29.702   8.896  10.779
39713W        W12028  35.378  36.402  11.483
39714W        W12029  23.757   5.677   2.231
39715W        W12030   4.161  27.621   0.854
39716W        W12031  23.519  34.327  10.702
39717W        W12032   6.241   6.736  13.931
39718W        W12033   5.189  10.642   1.139
39719W        W12034  30.664  31.723  12.366
39720W        W12035  43.899   3.205  11.967
39721W        W12036   3.859  29.600   4.611
39722W        W12037  32.559  33.325  12.557
39723W        W12038  18.545   7.083  12.430
39724W        W12039  10.913   0.045   2.120
39725W        W12040  31.105   9.831   4.598
39726W        W12041   0.642  36.516   9.761
39727W        W12042  14.362   7.655  13.824
39728W        W12043  41.959  26.555  11.238
39729W        W12044  27.430   1.789  11.439
39730W        W12045   4.899   9.287  12.137
39731W        W12046  20.717  41.416   1.359
39732W        W12047  41.040   9.198  10.725
39733W        W12048   8.789  36.510   4.971
39734W        W12049   6.935   1.834   0.797
39735W        W12050  10.363  37.506   0.002
39736W        W12051   3.726  35.044   4.662
39737W        W12052   8.348  29.853  12.061
39738W        W12053  44.383  37.043  14.777
39739W        W12054  44.551  41.240   4.556
39740W        W12055   7.358  21.710   3.434
39741W        W12056  19.311  29.469  12.605
39742W        W12057  37.610  15.665   3.773
39743W        W12058  28.582   4.839  14.585
39744W        W12059  30.781  42.301   1.171
39745W        W12060  18.807  25.123   0.182
39746W        W12061  19.411  32.605   1.213
39747W        W12062  23.889  19.616   1.370
39748W        W12063  13.630  32.396  13.904
39749W        W12064  23.190  26.135   2.849
39750W        W12065  12.857  21.852  10.473
39751W        W12066   2.736  34.984   1.166
39752W        W12067  37.740  35.364  13.906
39753W        W12068   3.721  16.272   4.578
39754W        W12069  19.825  37.091   2.304
39755W        W12070  24.121  14.670   1.663
39756W        W12071  38.023  21.205  12.634
39757W        W12072  44.371   7.458   2.312
39758W        W12073  16.632  35.762  11.136
39759W        W12074   7.785   9.650  12.698
39760W        W12075   8.848  44.297  10.664
39761W        W12076  26.848   2.359   2.757
39762W        W12077  22.929  21.752   4.645
39763W        W12078  14.881  35.325  12.003
39764W        W12079   4.137  41.470  11.559
39765W        W12080  35.046  11.914   3.710
39766W        W12081   2.408  42.451   0.841
39767W        W12082   8.274  30.348  11.994
39768W        W12083  36.044  10.143  12.440
39769W        W12084  27.490  16.504   3.038
39770W        W12085   1.899  11.247   1.233
39771W        W12086  44.420  33.992  11.474
39772W        W12087  15.176  32.707   3.735
39773W        W12088  21.012   1.202   0.659
39774W        W12089  11.208   9.404   4.018
39775W        W12090   3.622   0.979   3.656
39776W        W12091   3.418  24.084  11.684
39777W        W12092  27.815  20.578  14.800
39778W        W12093  31.569   5.269  12.336
39779W        W12094  10.394   8.888   3.693
39780W        W12095   5.468   5.712  11.697
39781W        W12096  37.194   8.491  12.971
39782W        W12097  34.031  11.719  10.583
39783W        W12098  13.906  36.039   0.708
39784W        W12099  27.439  11.412  12.466
39785W        W12100  16.816  42.536  10.738
39786W        W12101  22.233  32.089   3.848
39787W        W12102  28.663  28.649  12.457
39788W        W12103  23.595   6.645   4.092
39789W        W12104  29.168  41.231   0.284
39790W        W12105  32.494  23.979  13.472
39791W        W12106  21.176  37.789  13.052
39792W        W12107  29.199   5.341   1.718
39793W        W12108  21.179  10.318   2.941
39794W        W12109  12.659  25.053   2.584
39795W        W12110   0.540   1.205  13.020
39796W        W12111  41.079  29.474  10.735
39797W        W12112  16.240   5.798  13.395
39798W        W12113  15.774  22.118   1.187
39799W        W12114  24.306  40.066   3.574
39800W        W12115  44.872   2.259   3.229
39801W        W12116  32.144  44.744  14.899
39802W        W12117  11.042  40.053  11.569
39803W        W12118   4.677  44.231  13.261
39804W        W12119   1.438  31.674  11.096
39805W        W12120  41.744  14.573   1.915
39806W        W12121  24.608  44.438  11.239
39807W        W12122  27.459   6.451  10.691
39808W        W12123  33.530  34.849   1.713
39809W        W12124  40.071   2.029   0.822
39810W        W12125   7.775  21.480   3.650
39811W        W12126  11.371  14.882  13.410
39812W        W12127  29.605  36.127   3.171
39813W        W12128  15.018   6.864   4.539
39814W        W12129  11.161  12.793  11.995
39815W        W12130  22.450   8.883   0.433
39816W        W12131  37.097   6.827   0.386
39817W        W12132   3.655  34.945  13.401
39818W        W12133  27.652   4.850   0.374
39819W        W12134  33.599   4.854  11.766
39820W        W12135  19.028  27.545   2.865
39821W        W12136  32.062  34.955  14.065
39822W        W12137   8.637  21.657  12.672
39823W        W12138  41.986   4.695   0.712
39824W        W12139   8.414  21.658  11.438
39825W        W12140  16.105  25.109   3.207
39826W        W12141  20.120   7.227  14.724
39827W        W12142  12.791  18.626   2.487
39828W        W12143  38.422  23.240   0.975
39829W        W12144   9.284  44.325  13.823
39830W        W12145   7.147  26.522   5.072
39831W        W12146  10.758  35.491  13.989
39832W        W12147  14.258   9.587  11.824
39833W        W12148  15.655  30.564  10.613
39834W        W12149  27.475  15.874  14.483
39835W        W12150  29.169  41.035  12.580
39836W        W12151  12.721  17.504  14.210
39837W        W12152   1.901  42.075   0.181
39838W        W12153  32.851  36.488  13.711
39839W        W12154   8.726   2.947   0.896
39840W        W12155  17.631  43.991   1.176
39841W        W12156  30.493  35.497   4.615
39842W        W12157  36.469   6.471  14.776
39843W        W12158  30.126  17.150   2.294
39844W        W12159  13.523  33.397  14.847
39845W        W12160  23.164  27.188  13.902
39846W        W12161  12.265  36.825  12.878
39847W        W12162  29.202   4.281   0.719
39848W        W12163  15.820  26.695   0.515
39849W        W12164  31.982  36.605   3.395
39850W        W12165  21.204  13.879   1.255
39851W        W12166  43.905  23.131  14.908
39852W        W12167  41.308   5.255  14.842
39853W        W12168  15.252  29.196   1.288
39854W        W12169  22.593   7.286   2.994
39855W        W12170   7.286  43.133   5.226
39856W        W12171   9.361   4.701  12.078
39857W        W12172  25.102   6.373   1.761
39858W        W12173   2.440  23.532   3.350
39859W        W12174  10.213  22.721  11.190
39860W        W12175  20.083   7.930   2.806
39861W        W12176   9.236  29.449   0.028
39862W        W12177   6.221  14.164   0.482
39863W        W12178  39.483  39.026  12.446
39864W        W12179   3.832  37.404   3.232
39865W        W12180  37.879  10.555   3.157
39866W        W12181  15.402  44.484   1.911
39867W        W12182  18.237  28.414  12.324
39868W        W12183  14.700  29.455   0.370
39869W        W12184  32.412  11.195   0.997
39870W        W12185   0.438  16.182   2.258
39871W        W12186  30.626  11.363   0.276
39872W        W12187  31.431  44.710   2.243
39873W        W12188  26.706  28.115   1.304
39874W        W12189  34.960  23.134  11.895
39875W        W12190  30.566   1.369  12.169
39876W        W12191   0.512  32.287   3.322
39877W        W12192  36.556   1.293   1.029
39878W        W12193  37.371  35.607  11.984
39879W        W12194  33.461  19.506   1.712
39880W        W12195   8.877  20.269  10.635
39881W        W12196  43.341  43.722  14.274
39882W        W12197   2.301  25.207   5.070
39883W        W12198  22.180  34.090   0.092
39884W        W12199  28.524  32.760  10.686
39885W        W12200  30.544   2.174  13.641
39886W        W12201  34.100  14.280   4.449
39887W        W12202  11.629  10.789   3.089
39888W        W12203  40.116  12.380   1.412
39889W        W12204  38.839  44.929  10.776
39890W        W12205  44.159  36.829  11.648
39891W        W12206  32.082  29.915   0.275
39892W        W12207  22.974  18.892   0.298
39893W        W12208  37.109  25.099  14.961
39894W        W12209  35.562  26.816  12.701
39895W        W12210   8.991  16.562   3.735
39896W        W12211  26.149  23.972   2.371
39897W        W12212  27.619  28.177  13.354
39898W        W12213  12.886  12.647  11.515
39899W        W12214  12.378  42.306  11.294
39900W        W12215   3.686  37.984  10.838
39901W        W12216  42.640  27.519   3.842
39902W        W12217   3.137  23.558  14.385
39903W        W12218  37.906  16.696  14.529
39904W        W12219  39.910   2.025   4.625
39905W        W12220  28.595   1.255  11.043
39906W        W12221  40.940  42.317  11.161
39907W        W12222  18.744  28.797  14.768
39908W        W12223  26.488  21.088   9.924
39909W        W12224  37.521  13.096   4.499
39910W        W12225  36.678   3.193   2.694
39911W        W12226  16.296  33.090   0.888
39912W        W12227   5.991  40.390   4.248
39913W        W12228  34.411  38.825   4.230
39914W        W12229   1.043   2.300  14.772
39915W        W12230  25.098  17.368  11.549
39916W        W12231  42.024  17.903  14.562
39917W        W12232  32.710  32.974   3.623
39918W        W12233  37.479  29.563  11.680
39919W        W12234  37.370  30.935  12.575
39920W        W12235  41.964  43.396  14.238
39921W        W12236  22.580  29.133   1.114
39922W        W12237  14.232  10.809  11.912
39923W        W12238  33.952  30.067  13.123
39924W        W12239  14.334  23.253   0.804
39925W        W12240  22.567  12.694  14.865
39926W        W12241  11.777   2.910   1.317
39927W        W12242  14.342  21.590   3.265
39928W        W12243  27.564   9.856  14.716
39929W        W12244   6.817  39.573   4.533
39930W        W12245  42.326  16.768  12.589
39931W        W12246  26.592  20.826   4.546
39932W        W12247  36.642  37.141  11.879
39933W        W12248  20.285  36.511   1.914
39934W        W12249   1.765  27.585  10.783
39935W        W12250  24.772  18.165  10.946
39936W        W12251  30.052  24.614  11.970
39937W        W12252  23.555   0.232   1.063
39938W        W12253  42.325  26.221  11.474
39939W        W12254  11.441  12.394  14.522
39940W        W12255   5.213  15.122   0.789
39941W        W12256   3.761  42.709   0.345
39942W        W12257  10.447  21.368  10.215
39943W        W12258  26.376  21.977  12.497
39944W        W12259   6.430  34.068   3.604
39945W        W12260   5.381  14.671   3.888
39946W        W12261  30.783  37.443   3.890
39947W        W12262   5.240  21.989  13.446
39948W        W12263  34.326  14.858  11.271
39949W        W12264  36.093  31.323   0.811
39950W        W12265  32.166   2.951  10.727
39951W        W12266   7.025  17.861  10.697
39952W        W12267   5.204  39.581  12.748
39953W        W12268  10.325  28.412   0.485
39954W        W12269  24.658  36.543  11.295
39955W        W12270  35.742  31.790   3.977
39956W        W12271  35.556  44.948  13.129
39957W        W12272  22.199  36.151  12.041
39958W        W12273  20.143  20.315  12.674
39959W        W12274  42.834  34.809  13.823
39960W        W12275  26.596  38.887  10.474
39961W        W12276  37.796  43.982   4.790
39962W        W12277  15.526  15.445  11.196
39963W        W12278   8.442  23.082   1.427
39964W        W12279  19.608  36.483   4.529
39965W        W12280  24.753   9.559  13.006
39966W        W12281   7.277  37.282  14.524
39967W        W12282   2.518   5.891  12.796
39968W        W12283  30.508  23.575  12.079
39969W        W12284  32.808  42.130   3.601
39970W        W12285  29.925  15.179  13.877
39971W        W12286   7.298  10.054   4.505
39972W        W12287  29.299  28.834  13.015
39973W        W12288  12.574  21.690   1.616
39974W        W12289  24.559  34.189  13.345
39975W        W12290  32.212  24.528   4.501
39976W        W12291  16.380   5.294  13.449
39977W        W12292   8.953   2.798  13.571
39978W        W12293  30.533   2.516   1.267
39979W        W12294  21.244  44.505   2.642
39980W        W12295   2.528   0.232   3.130
39981W        W12296  14.631  15.598  13.054
39982W        W12297   3.193   4.902   3.034
39983W        W12298  25.220   5.252   9.929
39984W        W12299   0.479  39.562  13.335
39985W        W12300  34.099  17.093   0.854
39986W        W12301  29.584   7.991   2.404
39987W        W12302  27.972  43.867   0.449
39988W        W12303  32.972  17.338   3.668
39989W        W12304  27.552  32.922   0.860
39990W        W12305  32.327  20.613   0.824
39991W        W12306  24.591  39.660  12.352
39992W        W12307  10.039  26.316  11.013
39993W        W12308   2.473  23.982   1.814
39994W        W12309  43.287  27.366  12.590
39995W        W12310   4.227  10.397   0.326
39996W        W12311  28.434  16.348  11.533
39997W        W12312  27.218  28.985   0.902
39998W        W12313  19.701  26.362   5.170
39999W        W12314  21.892  13.802   3.565
40000W        W12315  30.286  43.077  10.823
40001W        W12316  43.444  14.198  12.198
40002W        W12317  18.017  30.031   0.336
40003W        W12318   5.928  12.257  12.674
40004W        W12319  21.637  29.896  10.779
40005W        W12320  44.219  33.375  13.730
40006W        W12321  19.302  44.237  14.697
40007W        W12322  34.940  14.771  13.830
40008W        W12323  32.193  22.093  12.181
40009W        W12324   1.402  25.599   1.480
40010W        W12325   7.962  39.480   3.242
40011W        W12326   2.155   1.395   0.230
40012W        W12327   7.189  33.136  12.622
40013W        W12328   8.693  44.204  13.001
40014W        W12329  24.011  14.569  10.218
40015W        W12330  34.618  30.712   2.314
40016W        W12331  29.501   3.890   3.725
40017W        W12332  39.304   8.746  14.380
40018W        W12333  42.094  44.905   4.188
40019W        W12334   7.416  34.718   4.566
40020W        W12335   0.133  15.744   3.359
40021W        W12336  37.377  24.558  14.062
40022W        W12337  18.070  41.364   1.861
40023W        W12338  40.553  24.844   3.306
40024W        W12339  30.222  29.695   2.172
40025W        W12340   7.628  26.029  14.051
40026W        W12341  43.547   0.463   0.933
40027W        W12342   2.776  16.652   0.427
40028W        W12343   1.842   4.863   1.812
40029W        W12344  33.453   5.106   0.937
40030W        W12345  13.579  33.011  10.689
40031W        W12346  38.093  21.631   0.858
40032W        W12347  19.083   1.429   1.683
40033W        W12348  25.013  22.754   4.580
40034W        W12349  17.541   5.556   2.228
40035W        W12350   2.962  26.693   1.279
40036W        W12351  12.540  33.226   1.286
40037W        W12352   7.755  25.114  11.137
40038W        W12353  35.860  29.187  11.301
40039W        W12354  21.058  44.440  11.560
40040W        W12355  37.402  40.032   1.377
40041W        W12356   4.037  20.169   2.017
40042W        W12357  11.001  11.644  11.123
40043W        W12358  32.207  14.688   3.376
40044W        W12359  15.507  16.203  13.400
40045W        W12360   8.609  25.758  14.947
40046W        W12361   5.473  24.239   4.219
40047W        W12362  44.012  29.413  10.687
40048W        W12363   8.887  27.035  13.151
40049W        W12364  31.491  29.068  14.895
40050W        W12365  37.368   6.713   2.323
40051W        W12366  44.519   5.910  12.210
40052W        W12367   7.725  41.524   0.343
40053W        W12368  22.782   8.234   3.436
40054W        W12369   1.306   2.423   2.707
40055W        W12370   0.946  43.311  13.478
40056W        W12371  36.765  14.636   1.923
40057W        W12372   4.483  35.003   3.481
40058W        W12373  41.975  13.881   4.167
40059W        W12374   4.383  39.021  11.552
40060W        W12375  34.772  30.979  13.326
40061W        W12376  38.509  27.770   4.883
40062W        W12377  27.646  37.624   2.469
40063W        W12378  44.972  20.650   0.537
40064W        W12379  29.106  40.058   4.489
40065W        W12380   3.700  36.566  12.083
40066W        W12381   1.112  20.136   2.677
40067W        W12382  31.086  40.415  14.346
40068W        W12383   2.826  39.883   4.055
40069W        W12384  16.229  16.718   0.940
40070W        W12385  29.506   8.098   4.234
40071W        W12386  24.990  14.198   2.470
40072W        W12387  41.432  24.668  10.572
40073W        W12388   7.618  34.578   2.666
40074W        W12389  38.532  34.470  10.723
40075W        W12390  24.029  35.975   2.193
40076W        W12391  19.174  26.285   2.315
40077W        W12392  32.339  37.375   0.025
40078W        W12393   6.363  44.209  11.692
40079W        W12394  25.059  42.367   2.197
40080W        W12395  26.537   2.334  14.374
40081W        W12396  10.257   7.235  12.434
40082W        W12397   7.599  10.208  14.139
40083W        W12398  43.944   6.374   1.054
40084W        W12399  37.546  16.169   1.356
40085W        W12400  21.440  10.383  12.845
40086W        W12401  16.567   3.730  14.109
40087W        W12402  11.289  15.243   2.630
40088W        W12403  26.318   5.890   3.514
40089W        W12404  40.292  35.102   3.360
40090W        W12405  29.156  24.353   2.936
40091W        W12406   6.862  42.184  11.627
40092W        W12407  32.025  37.814   2.234
40093W        W12408  39.954   7.231   0.455
40094W        W12409   0.869  15.823  11.236
40095W        W12410  25.050   9.807  11.831
40096W        W12411   1.877  32.638  14.548
40097W        W12412   2.814  38.584  14.851
40098W        W12413  18.687  10.382   5.108
40099W        W12414  35.525  27.981  10.746
40100W        W12415   9.207   0.194   4.488
40101W        W12416  27.683  22.228  11.201
40102W        W12417   1.343  21.357   3.846
40103W        W12418   9.229  27.170   1.275
40104W        W12419  23.116  44.637  14.331
40105W        W12420  14.262  12.299   3.115
40106W        W12421  21.870   4.636   0.466
40107W        W12422  19.094  22.562   3.222
40108W        W12423   9.849   9.157  14.862
40109W        W12424  27.580  41.813  14.739
40110W        W12425  23.286  15.838   2.170
40111W        W12426  43.454  26.484   3.197
40112W        W12427  32.591  25.793   0.252
40113W        W12428   5.208  35.613  14.305
40114W        W12429  38.602   4.112   1.102
40115W        W12430  13.304  12.281  14.849
40116W        W12431  24.775  19.298   1.116
40117W        W12432  34.111  26.045  12.364
40118W        W12433  25.561  22.284  10.148
40119W        W12434  12.364  19.346   2.994
40120W        W12435  36.876  23.047  12.919
40121W        W12436  30.648   0.398   3.276
40122W        W12437  21.581  19.568   2.573
40123W        W12438   4.409  16.235   1.260
40124W        W12439  13.087  31.449   2.374
40125W        W12440  19.280   4.887   4.605
40126W        W12441  22.530  22.492  11.487
40127W        W12442  29.535  32.262  11.552
40128W        W12443  23.259  33.006  10.741
40129W        W12444  24.804   4.387  14.614
40130W        W12445   4.724  29.732  11.183
40131W        W12446   7.614  24.949  12.136
40132W        W12447  40.806  14.496  11.069
40133W        W12448  31.040   5.962  13.063
40134W        W12449  27.933  28.477  11.145
40135W        W12450   4.512  17.790  10.743
40136W        W12451  14.732  34.872  14.870
40137W        W12452  23.110   7.691   0.526
40138W        W12453  17.147  24.022  12.772
40139W        W12454  24.261   0.575   1.480
40140W        W12455   7.409   4.152  12.015
40141W        W12456   4.954  18.777   2.821
40142W        W12457   3.448  32.621  11.154
40143W        W12458  11.196  29.466  12.161
40144W        W12459   0.454  44.386  12.659
40145W        W12460  43.613  31.700   3.316
40146W        W12461   7.789  29.736  14.704
40147W        W12462  30.519  18.802   0.717
40148W        W12463  43.697   2.826   3.619
40149W        W12464  11.390  33.133   4.241
40150W        W12465  37.775  38.513  10.853
40151W        W12466  38.615  25.935  10.606
40152W        W12467   7.983  34.997   1.845
40153W        W12468   5.082   6.601   3.229
40154W        W12469  20.345  11.823  11.619
40155W        W12470  33.882  26.707  11.239
40156W        W12471  37.531  44.887  11.091
40157W        W12472   9.992   6.443   4.655
40158W        W12473  27.621  24.954  10.672
40159W        W12474  13.269  34.287  10.679
40160W        W12475  18.607  18.074   3.311
40161W        W12476  25.056  14.345  10.666
40162W        W12477  17.146  11.213  11.459
40163W        W12478  36.424  41.349  13.947
40164W        W12479  27.289   6.297   1.140
40165W        W12480  41.367  20.032  12.468
40166W        W12481   0.708  18.114   2.302
40167W        W12482  19.160  43.276   2.793
40168W        W12483  28.026  38.871   0.892
40169W        W12484  23.912  17.040   3.649
40170W        W12485  22.762  14.179   2.099
40171W        W12486   1.264  37.300  11.115
40172W        W12487  14.098  10.720   4.368
40173W        W12488  13.434  37.630   2.230
40174W        W12489  20.782  22.539  12.629
40175W        W12490   4.335   9.926  11.567
40176W        W12491   8.907  31.898  10.715
40177W        W12492  12.072   0.614   1.889
40178W        W12493  40.095   0.468  11.473
40179W        W12494  13.342  32.141   1.799
40180W        W12495  38.900  19.829   0.980
40181W        W12496   8.165  31.435   1.195
40182W        W12497  37.941  38.294   3.127
40183W        W12498   1.109  22.557  13.953
40184W        W12499  23.194  17.184   4.721
40185W        W12500  31.831  27.943   1.426
40186W        W12501   7.989  35.251   0.402
40187W        W12502  28.040   9.805   4.855
40188W        W12503  20.611  16.879   3.905
40189W        W12504   0.737  16.343  11.306
40190W        W12505  31.129  15.170  11.886
40191W        W12506  26.730   4.085  11.663
40192W        W12507  31.409  33.605  11.934
40193W        W12508  32.825  15.664  13.907
40194W        W12509   9.372  11.514   1.721
40195W        W12510   9.173  18.656   0.482
40196W        W12511  32.345  24.190  13.941
40197W        W12512   3.713  40.785   2.997
40198W        W12513  23.924  43.904   2.078
40199W        W12514  34.049  34.050   0.403
40200W        W12515  21.861  14.828   0.666
40201W        W12516   8.653  22.000  13.506
40202W        W12517  37.922  35.572   0.897
40203W        W12518   8.715  27.050   4.258
40204W        W12519  31.648   6.692   0.338
40205W        W12520  32.746   8.215  11.518
40206W        W12521  40.301  24.965  11.939
40207W        W12522   9.340  42.359   2.573
40208W        W12523  33.131   1.511   4.573
40209W        W12524  32.872   5.388  14.892
40210W        W12525   8.255   2.759  11.749
40211W        W12526  18.715  38.995   1.676
40212W        W12527  32.478  21.280  12.495
40213W        W12528  41.448  24.565  13.043
40214W        W12529  39.817   8.093   2.759
40215W        W12530  24.070  13.058  14.017
40216W        W12531  10.774  21.611  12.419
40217W        W12532   4.780  22.322   2.707
40218W        W12533   4.130  24.744   0.528
40219W        W12534  21.881  31.365  14.897
40220W        W12535  26.139  23.080   4.169
40221W        W12536  25.095  20.692  12.164
40222W        W12537  35.493  22.024   0.933
40223W        W12538  34.604  43.884   0.505
40224W        W12539  32.344  34.536   3.324
40225W        W12540  36.531  44.309   0.063
40226W        W12541   4.257  28.379   2.685
40227W        W12542  18.475  41.734  14.375
40228W        W12543  28.063  23.246   4.465
40229W        W12544  20.544  29.484   0.390
40230W        W12545  36.495  26.496  12.636
40231W        W12546  30.909  32.441   1.321
40232W        W12547  38.825  22.459   0.223
40233W        W12548  16.941  19.706  11.552
40234W        W12549   4.514  44.461   9.756
40235W        W12550  38.187  23.658  14.552
40236W        W12551   5.669  11.847  11.978
40237W        W12552  16.818  25.161  13.927
40238W        W12553  25.810   1.417  13.481
40239W        W12554  30.979  40.859  12.547
40240W        W12555  35.454  41.338  10.731
40241W        W12556  38.611  28.750  11.520
40242W        W12557  41.768  16.224   1.256
40243W        W12558  36.633  25.534  13.135
40244W        W12559  41.947   1.236   4.504
40245W        W12560  14.745  11.353  13.986
40246W        W12561  27.005   7.039  12.891
40247W        W12562  37.652  24.026  13.384
40248W        W12563  15.082   9.717   0.350
40249W        W12564  29.002  33.492  10.551
40250W        W12565   6.825  32.230   2.790
40251W        W12566   3.040  32.218   3.616
40252W        W12567  29.900  31.177  10.825
40253W        W12568  37.462  35.428   0.165
40254W        W12569   1.440  30.530  12.046
40255W        W12570  30.572  32.086   1.177
40256W        W12571  37.594   1.702  12.541
40257W        W12572  14.145  30.648   1.822
40258W        W12573  38.332  22.966   1.412
40259W        W12574  38.328  32.576   1.892
40260W        W12575  23.740  42.016  12.084
40261W        W12576  10.544  28.451   3.282
40262W        W12577   5.488  23.723   3.323
40263W        W12578  39.948  21.288  11.515
40264W        W12579  17.557  28.634  11.509
40265W        W12580   5.460  16.738   0.203
40266W        W12581   5.868   1.710   1.302
40267W        W12582  17.791  11.125   4.229
40268W        W12583  21.595  20.224  12.802
40269W        W12584  28.543  39.395   0.325
40270W        W12585  30.759  34.110  12.668
40271W        W12586  10.140  26.806   2.123
40272W        W12587  37.798  10.705   0.646
40273W        W12588  32.660  40.447   1.917
40274W        W12589   6.673  31.996  13.825
40275W        W12590   2.380  43.235  14.913
40276W        W12591   4.365  12.201  13.136
40277W        W12592  36.599   3.983   2.217
40278W        W12593   1.201  13.792  10.668
40279W        W12594  33.092  21.477   1.268
40280W        W12595   3.677  27.588   4.232
40281W        W12596  42.980  12.250   4.701
40282W        W12597   8.716   2.417   3.126
40283W        W12598  41.953  36.794  14.196
40284W        W12599  18.683  15.212  11.113
40285W        W12600  25.465  43.813  14.060
40286W        W12601  39.383   8.163   4.673
40287W        W12602  34.406  33.204   2.741
40288W        W12603  36.825  20.041  12.235
40289W        W12604  38.796  11.679   1.138
40290W        W12605  33.936  21.245  10.172
40291W        W12606  23.199  11.665  11.619
40292W        W12607   3.775  12.291   0.387
40293W        W12608  41.060  27.948   3.336
40294W        W12609  44.529   6.263  11.072
40295W        W12610   3.355  11.861  12.091
40296W        W12611  35.047  16.818   0.411
40297W        W12612  14.765  34.431  12.926
40298W        W12613   7.442  42.301   3.264
40299W        W12614  33.117  43.745   4.150
40300W        W12615  15.367  40.507   3.230
40301W        W12616   5.820  35.966   0.394
40302W        W12617  33.988   3.205  12.960
40303W        W12618  35.040  14.683  12.069
40304W        W12619  14.809  22.185  13.395
40305W        W12620  16.512  31.951  10.970
40306W        W12621  37.211  21.810  13.356
40307W        W12622  23.271  38.550   2.573
40308W        W12623  40.542  44.937   3.570
40309W        W12624  12.922  22.331  13.443
40310W        W12625   0.823   6.038   5.045
40311W        W12626   0.348   8.356   4.154
40312W        W12627   6.104  20.479   1.416
40313W        W12628  38.171  20.280  11.159
40314W        W12629  36.083  31.546  10.699
40315W        W12630  17.112   8.319   2.468
40316W        W12631   0.850  28.656   3.328
40317W        W12632  19.626  37.446   1.258
40318W        W12633  14.583  31.336   0.786
40319W        W12634  28.404  21.541  12.999
40320W        W12635  22.665   1.875   1.815
40321W        W12636   1.978   4.427   4.445
40322W        W12637  16.634  27.515  14.323
40323W        W12638  32.460  29.573  12.418
40324W        W12639  29.350   7.482  12.794
40325W        W12640  25.616  44.467  12.133
40326W        W12641   0.869  32.688  13.274
40327W        W12642   7.812  44.619   3.043
40328W        W12643  34.148  10.721  11.632
40329W        W12644  33.416  34.883   4.667
40330W        W12645  38.833   3.190  14.762
40331W        W12646  16.826  29.237   3.407
40332W        W12647  41.899  24.666   3.074
40333W        W12648  26.116   1.491   3.740
40334W        W12649  37.446  41.022   2.745
40335W        W12650  10.796  17.823   4.759
40336W        W12651  19.989  29.206   0.380
40337W        W12652  37.977  37.092  14.930
40338W        W12653  32.968  35.938   2.297
40339W        W12654  25.576  43.080   2.159
40340W        W12655  42.062  31.175  13.835
40341W        W12656  31.562  10.328   2.298
40342W        W12657   8.551  34.060   0.692
40343W        W12658   4.448  36.882   3.739
40344W        W12659   6.611  11.578   1.789
40345W        W12660  27.460  27.048   4.595
40346W        W12661  18.017  23.262   0.888
40347W        W12662  43.404  27.565   1.728
40348W        W12663  29.487  44.579  12.758
40349W        W12664  43.916  17.380   4.223
40350W        W12665  21.193  44.437  13.835
40351W        W12666  33.010  33.985  13.824
40352W        W12667  20.118   6.089   5.065
40353W        W12668  25.509  33.400   1.786
40354W        W12669  31.010  43.359  12.647
40355W        W12670  23.513  18.978  13.355
40356W        W12671  23.550  35.362  10.742
40357W        W12672  25.781   5.650  10.504
40358W        W12673  19.031   9.049  13.350
40359W        W12674   8.362  28.364  11.460
40360W        W12675  24.494   4.266   1.010
40361W        W12676  33.435  24.960   2.160
40362W        W12677  26.788  30.303   5.020
40363W        W12678  23.656  16.965   0.812
40364W        W12679  25.995   8.673  11.589
40365W        W12680   2.758  20.307  12.842
40366W        W12681  32.866  16.083   4.169
40367W        W12682  44.419  34.925  12.477
40368W        W12683  40.869  28.017   2.751
40369W        W12684  23.932  42.995   2.123
40370W        W12685  17.702  10.351  12.396
40371W        W12686  20.979  19.533   3.767
40372W        W12687  14.210   3.944   1.295
40373W        W12688  29.386  10.324   4.696
40374W        W12689   2.464  18.345   0.846
40375W        W12690   2.291   8.040  13.869
40376W        W12691  25.089  11.399  13.931
40377W        W12692  39.981  26.182   2.719
40378W        W12693  21.985  21.017  12.340
40379W        W12694  34.377  38.498  10.591
40380W        W12695  40.903  10.698  12.976
40381W        W12696  19.238   8.153  14.307
40382W        W12697  42.984  42.443  14.986
40383W        W12698  25.764   2.907   0.842
40384W        W12699  14.651  23.180  11.117
40385W        W12700  14.315  37.007  12.904
40386W        W12701  15.159  21.429   2.229
40387W        W12702  42.821  24.707  12.176
40388W        W12703   2.354  38.521  14.003
40389W        W12704  16.595  35.015   2.449
40390W        W12705  16.562  11.465   3.836
40391W        W12706  12.312  34.371  13.003
40392W        W12707  21.382  17.422   2.807
40393W        W12708  10.085  14.849  12.889
40394W        W12709  37.723  16.633   0.020
40395W        W12710  24.669  29.460  13.443
40396W        W12711   7.260  28.762   2.320
40397W        W12712  11.235  25.262  11.968
40398W        W12713  35.955  31.563   1.264
40399W        W12714  42.882  40.032   2.876
40400W        W12715  31.286  14.598   0.584
40401W        W12716  14.977  44.544   2.825
40402W        W12717  15.169  27.485  11.990
40403W        W12718  40.381  13.785  11.665
40404W        W12719  34.186   5.889   2.736
40405W        W12720  20.953  17.025  11.604
40406W        W12721  35.303  21.472  12.538
40407W        W12722  29.479  36.800  14.742
40408W        W12723   7.319   9.448  11.151
40409W        W12724  39.753   2.811  13.981
40410W        W12725  25.005  22.199  14.374
40411W        W12726  40.538  36.567  13.116
40412W        W12727  34.068  34.473   2.633
40413W        W12728  32.909  32.607  12.123
40414W        W12729  14.815   2.761   0.431
40415W        W12730  28.513   4.679  13.576
40416W        W12731  18.527   8.113   2.351
40417W        W12732  22.196  18.706   3.595
40418W        W12733  26.112  30.572   2.548
40419W        W12734  28.859   2.245   0.001
40420W        W12735   5.252  13.220  11.234
40421W        W12736  25.187  11.082  12.215
40422W        W12737  10.398  21.745   2.013
40423W        W12738  44.954  17.392  12.385
40424W        W12739   3.184  13.398   0.848
40425W        W12740  34.552  39.913  12.361
40426W        W12741   5.708  38.330   3.354
40427W        W12742   6.963  31.383   0.660
40428W        W12743  42.946   3.858   2.150
40429W        W12744  18.219  38.822  13.455
40430W        W12745  25.283  37.177  13.424
40431W        W12746  16.204  40.812   1.848
40432W        W12747  44.720  34.851  13.336
40433W        W12748  11.830  20.318  10.501
40434W        W12749   3.683  20.543   4.596
40435W        W12750  27.123  34.988   2.816
40436W        W12751   2.625  36.014   0.051
40437W        W12752   0.446  14.569   2.672
40438W        W12753  33.719  11.029  13.576
40439W        W12754  14.675   2.908   1.341
40440W        W12755   6.448  24.381   0.286
40441W        W12756  34.331  12.705  10.587
40442W        W12757  35.361   1.320   1.504
40443W        W12758  24.853  41.295   2.232
40444W        W12759  24.383  24.203  13.927
40445W        W12760  13.160  12.241   2.365
40446W        W12761  15.347  18.626   2.301
40447W        W12762  17.050  11.561   5.117
40448W        W12763   0.720  36.908   0.639
40449W        W12764  24.891  11.375  13.436
40450W        W12765  36.931  43.776   0.388
40451W        W12766  12.797  10.566  11.057
40452W        W12767  11.834  21.440   3.146
40453W        W12768  33.160   2.044   2.442
40454W        W12769  13.597   4.228   1.270
40455W        W12770   9.718  40.756   3.691
40456W        W12771   6.425  13.748   0.186
40457W        W12772  17.150  12.119  12.963
40458W        W12773  44.916  35.331  13.211
40459W        W12774  38.073  24.276  11.154
40460W        W12775  19.801  40.299   4.968
40461W        W12776  24.180  10.784   3.779
40462W        W12777  29.985  31.419   1.771
40463W        W12778  37.860  30.015  12.491
40464W        W12779  32.673  44.781  10.652
40465W        W12780  15.098  22.248   0.500
40466W        W12781  29.716   7.720  12.444
40467W        W12782  20.102  24.304  13.402
40468W        W12783  25.810  42.083   2.620
40469W        W12784  20.573   2.742   2.680
40470W        W12785  21.278  41.765  13.267
40471W        W12786   6.205  38.538  11.661
40472W        W12787  22.461   0.343   2.158
40473W        W12788  28.011  34.817   0.153
40474W        W12789  31.976  22.673  13.412
40475W        W12790  37.345  23.504  14.274
40476W        W12791  19.300  34.198   4.540
40477W        W12792  36.581  25.958   3.212
40478W        W12793  19.201   7.752  12.030
40479W        W12794  22.965  41.469   0.890
40480W        W12795  27.562  25.079   3.984
40481W        W12796  10.720  29.512  11.953
40482W        W12797  43.467  23.184   2.691
40483W        W12798   7.187  17.807  12.013
40484W        W12799  10.422   5.736   2.775
40485W        W12800   1.034  18.618  11.516
40486W        W12801   0.366  17.488   0.798
40487W        W12802  20.806   1.742   1.290
40488W        W12803  10.132  44.323  12.091
40489W        W12804  33.105  22.256   0.297
40490W        W12805  15.820  10.792   3.177
40491W        W12806  10.388  40.904  13.409
40492W        W12807  21.212  12.186  10.674
40493W        W12808  31.706  41.804   4.255
40494W        W12809   0.929  26.575  11.196
40495W        W12810  15.114   0.732  11.053
40496W        W12811  22.567  14.157   0.967
40497W        W12812  22.470  19.498  11.468
40498W        W12813  20.699  33.918  11.010
40499W        W12814  16.183  12.108   4.675
40500W        W12815  18.262   1.505  10.688
40501W        W12816  26.151   6.074  14.427
40502W        W12817  19.771  34.847  11.922
40503W        W12818   6.257  41.483   1.409
40504W        W12819   7.868  21.185   4.473
40505W        W12820  11.561  32.157   0.793
40506W        W12821   1.431  21.972   3.196
40507W        W12822  37.121  18.337   0.514
40508W        W12823  38.626   8.439  14.333
40509W        W12824   3.731   3.916   1.999
40510W        W12825  30.171   8.312   3.857
40511W        W12826  23.556  13.543  10.492
40512W        W12827   9.975  13.067   3.171
40513W        W12828   2.657  34.303   4.340
40514W        W12829  11.657   8.628   3.090
40515W        W12830   9.863  33.109  13.809
40516W        W12831  36.810  22.517   3.818
40517W        W12832  31.486  14.047  13.309
40518W        W12833  16.216  13.565  11.068
40519W        W12834  24.351  39.335  11.171
40520W        W12835  18.899   8.337   1.274
40521W        W12836   2.008  43.464  11.934
40522W        W12837  32.512   8.249   0.490
40523W        W12838   4.350  32.541   2.908
40524W        W12839  19.768  17.576   1.413
40525W        W12840  31.517   1.161  11.539
40526W        W12841  15.809  38.410  13.579
40527W        W12842   1.785  18.582   2.003
40528W        W12843   0.283  41.472   1.845
40529W        W12844  33.659  12.704   0.349
40530W        W12845  24.667  19.454  10.093
40531W        W12846   3.850  20.139   0.689
40532W        W12847  28.782   9.211  14.939
40533W        W12848  28.565   3.670  11.578
40534W        W12849  13.465  40.483   0.828
40535W        W12850  40.703   5.173   0.708
40536W        W12851  36.316  21.617  11.508
40537W        W12852  28.217  34.813   2.730
40538W        W12853  41.081   1.461  14.562
40539W        W12854  10.461   2.896   0.297
40540W        W12855  24.686   5.323  14.962
40541W        W12856   2.188  22.095  14.107
40542W        W12857  44.886   6.208  12.472
40543W        W12858   7.253  21.079   0.657
40544W        W12859  35.562  39.876  10.445
40545W        W12860  20.276  20.785  14.612
40546W        W12861  24.952  38.480  12.763
40547W        W12862  34.436  19.713   1.490
40548W        W12863   8.088  11.844   2.709
40549W        W12864  40.092  42.837  13.037
40550W        W12865   8.702  20.486   2.171
40551W        W12866  35.872   4.126  13.454
40552W        W12867  28.452   4.695   0.046
40553W        W12868   9.974  43.844   0.843
40554W        W12869  13.642  25.337  14.323
40555W        W12870  29.563  30.580   0.982
40556W        W12871  16.984  22.131  14.912
40557W        W12872   5.728   4.311   0.839
40558W        W12873   7.071  18.787   1.185
40559W        W12874  30.547   0.781   2.714
40560W        W12875  20.580   5.001   1.216
40561W        W12876   0.149  18.044  11.340
40562W        W12877  16.511  37.348   1.796
40563W        W12878  40.908  41.031  12.568
40564W        W12879  39.479  27.913   1.842
40565W        W12880  33.033  33.454   1.104
40566W        W12881  26.319  34.130   2.593
40567W        W12882   4.321  39.825  14.255
40568W        W12883   4.955  30.568  11.612
40569W        W12884  25.192  39.975  13.813
40570W        W12885  34.987  39.082   2.490
40571W        W12886  20.551  27.658  11.985
40572W        W12887   7.644  37.621  14.949
40573W        W12888  25.974  38.804  11.076
40574W        W12889  11.936   9.937   1.676
40575W        W12890  41.065  10.636   4.204
40576W        W12891  34.653  43.421   3.353
40577W        W12892   9.316  26.920   1.736
40578W        W12893  31.291  35.561   2.693
40579W        W12894  20.777  43.546   0.776
40580W        W12895  19.200  36.685   4.285
40581W        W12896  34.518  18.006  10.618
40582W        W12897  41.893  39.040   0.381
40583W        W12898  41.835  33.746   3.161
40584W        W12899  16.059  10.252   4.998
40585W        W12900  28.664  14.639   4.938
40586W        W12901  44.457  12.833   4.213
40587W        W12902   6.291  37.427   0.317
40588W        W12903   2.445  21.658   4.501
40589W        W12904   3.316   9.734   1.299
40590W        W12905  21.586   2.123  13.273
40591W        W12906  30.315  42.475   4.234
40592W        W12907   1.824   5.887  14.228
40593W        W12908  30.514  41.795  13.390
40594W        W12909  33.649  27.033   3.630
40595W        W12910  15.819  26.225   1.935
40596W        W12911  31.908   7.605  11.445
40597W        W12912  35.341   5.026   0.522
40598W        W12913  24.189  14.567   0.696
40599W        W12914   5.203  39.057   1.924
40600W        W12915  27.391   0.447   2.816
40601W        W12916  24.201   1.368   0.380
40602W        W12917   9.280  41.040   3.614
40603W        W12918  42.025  38.941   2.334
40604W        W12919  13.702   2.334  11.632
40605W        W12920  22.914  34.666   2.121
40606W        W12921   6.935  24.257   4.956
40607W        W12922  13.143   6.697   0.456
40608W        W12923  42.906  34.066   4.679
40609W        W12924  19.378  40.358  10.639
40610W        W12925   9.900  31.616  12.376
40611W        W12926  32.135   6.096   2.029
40612W        W12927  33.349  35.404   4.681
40613W        W12928  34.948  38.787   4.273
40614W        W12929  32.650  14.805   3.135
40615W        W12930  37.028  39.885   2.425
40616W        W12931   6.315  38.785  11.224
40617W        W12932   3.767  34.467  10.910
40618W        W12933   6.258  44.502  13.957
40619W        W12934  25.196  34.446  13.035
40620W        W12935  10.287   7.246   0.399
40621W        W12936  21.200  43.860   1.879
40622W        W12937  42.107  27.382  13.382
40623W        W12938  18.532  42.381  14.829
40624W        W12939  30.654  42.997   2.685
40625W        W12940  24.544  42.383   4.235
40626W        W12941  38.557   9.288   2.893
40627W        W12942  19.887  27.355   0.449
40628W        W12943  21.208  32.874  11.495
40629W        W12944  20.215   6.389   3.104
40630W        W12945   1.350   4.446  12.112
40631W        W12946  40.069  12.908   3.624
40632W        W12947  24.654   6.695   2.259
40633W        W12948  40.086  24.833  12.697
40634W        W12949  39.696  17.233   3.259
40635W        W12950  26.174  27.006   1.680
40636W        W12951  15.481  30.053  12.151
40637W        W12952  10.921  32.171  11.187
40638W        W12953  38.784  17.161   4.984
40639W        W12954  43.365  11.000   3.996
40640W        W12955  34.420   7.064  11.177
40641W        W12956  15.818  36.165  14.748
40642W        W12957   6.591  18.520  13.919
40643W        W12958  39.355  11.840  12.177
40644W        W12959  43.358  19.247   0.484
40645W        W12960  38.818   5.809  14.507
40646W        W12961  21.161  30.413   2.494
40647W        W12962  26.986  11.193  10.624
40648W        W12963  42.077  32.443  11.585
40649W        W12964  12.390  34.395   2.770
40650W        W12965   8.675  22.445   0.757
40651W        W12966  25.729   8.738   0.871
40652W        W12967  31.432   8.260   2.200
40653W        W12968   8.378  30.197   3.935
40654W        W12969  29.790  37.561   2.971
40655W        W12970  42.077  14.504   4.968
40656W        W12971  19.984  32.576   0.013
40657W        W12972  19.857  32.018  11.223
40658W        W12973  43.329  33.368  13.513
40659W        W12974  17.739  14.265   3.875
40660W        W12975  10.423  23.748  13.967
40661W        W12976  18.659  28.603   3.397
40662W        W12977   8.624   9.219   2.673
40663W        W12978   0.504  41.217  12.287
40664W        W12979  40.523   1.907   2.222
40665W        W12980  15.114  25.251   1.841
40666W        W12981   4.235  13.721   4.251
40667W        W12982  21.242  43.712   0.970
40668W        W12983   1.205  22.150  13.087
40669W        W12984  23.660  15.302   2.220
40670W        W12985  35.663   0.451  13.317
40671W        W12986  31.353   4.713   4.548
40672W        W12987  12.111  12.344   0.835
40673W        W12988  43.799  28.246  13.408
40674W        W12989   1.370  17.319   0.064
40675W        W12990  22.000  20.202   1.917
40676W        W12991  43.524  32.196  11.656
40677W        W12992  32.204  19.594   2.174
40678W        W12993  20.581  22.502   4.912
40679W        W12994  37.824  23.324  14.422
40680W        W12995  15.226   6.483   1.952
40681W        W12996   2.097  15.726  12.339
40682W        W12997  39.434   2.225  12.458
40683W        W12998   1.993  35.021  13.522
40684W        W12999  24.118  39.119   2.683
40685W        W13000  25.012  29.249   4.899
40686W        W13001  32.210  38.301  14.968
40687W        W13002  34.060   1.684   2.240
40688W        W13003  12.688  22.341  11.203
40689W        W13004  41.101  25.810   1.434
40690W        W13005  40.272  16.137   2.458
40691W        W13006   6.647  20.043   2.330
40692W        W13007   4.201  24.666  10.628
40693W        W13008  34.498  20.593  11.821
40694W        W13009  26.073  34.904   2.716
40695W        W13010  28.702  42.504  11.466
40696W        W13011   3.860   2.804   1.364
40697W        W13012  20.130  13.877   2.721
40698W        W13013   5.850  44.439   2.787
40699W        W13014  29.692  21.345   4.590
40700W        W13015  14.762  41.419  12.432
40701W        W13016   7.400  14.250  13.824
40702W        W13017  17.552  11.440  12.175
40703W        W13018  15.091  29.437  10.716
40704W        W13019  26.934   7.565   2.930
40705W        W13020  31.443  42.460   4.888
40706W        W13021  16.932  12.823   1.318
40707W        W13022  44.001   1.374   3.757
40708W        W13023  11.040  31.530  13.883
40709W        W13024  22.150  19.473  10.252
40710W        W13025   7.263  34.107  13.375
40711W        W13026  18.814  39.562  12.999
40712W        W13027  41.163   1.462   1.304
40713W        W13028   7.706  28.202  11.595
40714W        W13029   1.276  12.092   3.128
40715W        W13030  39.907   2.851   1.689
40716W        W13031   3.490  12.392  12.919
40717W        W13032  13.750  25.860   1.317
40718W        W13033  26.461  27.478   2.914
40719W        W13034  41.493  28.007   3.640
40720W        W13035  44.355  42.771  13.928
40721W        W13036  14.199  37.059   1.602
40722W        W13037  15.116  37.339   4.036
40723W        W13038  10.454  24.522  11.154
40724W        W13039  38.603   8.386   3.970
40725W        W13040  22.061  20.474   5.339
40726W        W13041  30.078  37.105   0.777
40727W        W13042  14.224  23.518  11.116
40728W        W13043  27.201  27.798  13.471
40729W        W13044  39.869  15.145   3.693
40730W        W13045  28.426   4.194  14.912
40731W        W13046  30.925  37.911   4.155
40732W        W13047  35.451  33.423   3.240
40733W        W13048   1.895  14.090   3.945
40734W        W13049  22.486  23.125  14.026
40735W        W13050  35.826   2.927   1.177
40736W        W13051   0.839  22.259  12.386
40737W        W13052  15.854   6.226   4.765
40738W        W13053  25.188  38.789   4.796
40739W        W13054  11.785  35.500  13.742
40740W        W13055  29.165   4.875   4.562
40741W        W13056  33.507  17.855   3.262
40742W        W13057   7.251  36.336   3.105
40743W        W13058  33.934  16.825   1.294
40744W        W13059  14.077  10.156   2.336
40745W        W13060   0.962  28.736   1.229
40746W        W13061  14.100  26.165  11.660
40747W        W13062  19.674   5.069   4.309
40748W        W13063  32.635  14.905  10.804
40749W        W13064  38.901   1.937   4.588
40750W        W13065  35.365  23.755  14.952
40751W        W13066   1.697   7.973   2.340
40752W        W13067  11.555  27.490   3.741
40753W        W13068  25.540  40.207   1.668
40754W        W13069  37.851  39.599   0.334
40755W        W13070  38.246  13.752   1.261
40756W        W13071  42.381  25.477  11.861
40757W        W13072   6.902   1.078   1.997
40758W        W13073   0.537   3.670  12.903
40759W        W13074  40.503  41.264   1.397
40760W        W13075  32.175  28.049   1.002
40761W        W13076  16.690  21.763   4.439
40762W        W13077   6.982  14.645   2.461
40763W        W13078  27.192   6.330   5.026
40764W        W13079  37.963   4.896  11.139
40765W        W13080  29.880  28.412  14.040
40766W        W13081  11.152  37.488   1.432
40767W        W13082  36.105  23.757  12.514
40768W        W13083  12.782  36.128  14.852
40769W        W13084   5.828  11.687   1.450
40770W        W13085  24.776  26.954  12.227
40771W        W13086  25.184  42.298  11.969
40772W        W13087   9.222  35.862   1.000
40773W        W13088  38.134  44.721  14.455
40774W        W13089  17.533  44.334   3.614
40775W        W13090  40.441   8.731  10.438
40776W        W13091  41.154  34.924  10.700
40777W        W13092   5.507   7.977   3.722
40778W        W13093   9.313  30.338   0.867
40779W        W13094   6.562  43.635  14.109
40780W        W13095  28.935  23.914  11.567
40781W        W13096  41.901  22.453  14.207
40782W        W13097  33.277  36.370  13.970
40783W        W13098  10.792  21.921   3.679
40784W        W13099  39.061  43.880  12.080
40785W        W13100  24.930  28.574  10.634
40786W        W13101  38.457  14.388   3.720
40787W        W13102  10.236  23.292   1.152
40788W        W13103   1.509  44.268   3.137
40789W        W13104   9.204  13.500   3.192
40790W        W13105  31.913  18.761  14.075
40791W        W13106   5.587  23.647  12.226
40792W        W13107  22.695  34.872   0.893
40793W        W13108  21.727  36.070   1.779
40794W        W13109  12.265  40.323   4.568
40795W        W13110   1.909   3.601  14.949
40796W        W13111  42.430   8.708  14.655
40797W        W13112   2.309  21.496   1.156
40798W        W13113  13.393   4.337  11.692
40799W        W13114  44.165  24.200   3.193
40800W        W13115  35.968   6.106   1.018
40801W        W13116  29.524  18.736  12.958
40802W        W13117   6.424  21.408   3.282
40803W        W13118  26.637  26.003   4.419
40804W        W13119   7.977  12.969  11.151
40805W        W13120  39.804  42.433   0.298
40806W        W13121   8.830  44.765  11.065
40807W        W13122  23.000   0.605  13.562
40808W        W13123  20.020  36.890   2.735
40809W        W13124  29.548  29.876  14.916
40810W        W13125  19.258  39.359   0.482
40811W        W13126  13.721  29.980  12.987
40812W        W13127  15.957   2.415  11.468
40813W        W13128  13.731  19.029   3.681
40814W        W13129  19.490  10.351   3.957
40815W        W13130  12.314   1.895  10.865
40816W        W13131  25.081  42.175  11.473
40817W        W13132  43.378  41.561   4.185
40818W        W13133  42.459   3.221   0.827
40819W        W13134  13.328  30.467  14.028
40820W        W13135  10.118   0.312   2.409
40821W        W13136  16.857  26.923  13.300
40822W        W13137  18.713   0.331   0.317
40823W        W13138  21.036  17.266   2.460
40824W        W13139  33.527   9.402  14.465
40825W        W13140  28.548  32.963   4.492
40826W        W13141  38.083   1.876  12.446
40827W        W13142  28.435  43.544   3.584
40828W        W13143  36.089  42.836  11.686
40829W        W13144   7.897  20.541  12.817
40830W        W13145   1.377  15.290  10.746
40831W        W13146  32.022   1.259  12.111
40832W        W13147  20.570  38.013   0.792
40833W        W13148  17.625   2.150   3.702
40834W        W13149  22.999   5.825   4.552
40835W        W13150  19.089   0.246  12.055
40836W        W13151  43.109  33.032   3.260
40837W        W13152   4.686  37.823   3.140
40838W        W13153  40.944  36.850   3.137
40839W        W13154  37.390  18.895   2.448
40840W        W13155  12.707  39.501   3.097
40841W        W13156  15.842  21.961   5.008
40842W        W13157   6.323  40.012  14.277
40843W        W13158   1.833  27.446  13.442
40844W        W13159  19.706   7.767   4.006
40845W        W13160  16.422   5.350   1.703
40846W        W13161   8.284   7.824   0.420
40847W        W13162  32.332  17.561   1.846
40848W        W13163  28.726   1.801  14.061
40849W        W13164  14.136   3.830  14.933
40850W        W13165  12.892  37.073   3.397
40851W        W13166  43.016  19.638   0.507
40852W        W13167   0.722  44.838  13.419
40853W        W13168  10.418  20.485  10.615
40854W        W13169  27.960  30.020  12.124
40855W        W13170   1.727  12.772  13.596
40856W        W13171  34.986  34.850  11.393
40857W        W13172  19.114  14.359   3.898
40858W        W13173  19.510   0.572  13.299
40859W        W13174  35.365   4.220  13.598
40860W        W13175  32.333  23.667  13.886
40861W        W13176  44.913  28.079   0.928
40862W        W13177  12.348  34.898  13.092
40863W        W13178  29.678   7.920  13.827
40864W        W13179  30.061   9.004   0.410
40865W        W13180  11.098  12.944  13.531
40866W        W13181  28.743   9.638   3.736
40867W        W13182  16.998  44.080  11.636
40868W        W13183  34.914  21.408   4.683
40869W        W13184  12.840  41.436   0.455
40870W        W13185  41.372  26.396   4.466
40871W        W13186  44.884  31.637   4.159
40872W        W13187   4.806  32.112  13.787
40873W        W13188  35.522  14.239  10.741
40874W        W13189  10.622  32.937   2.698
40875W        W13190   0.517  40.821  10.599
40876W        W13191   6.556   3.671   3.680
40877W        W13192  26.988  13.778  10.541
40878W        W13193  43.555   6.664   0.138
40879W        W13194  15.188  30.655  11.532
40880W        W13195  27.075  25.511  13.300
40881W        W13196  20.156  35.794   0.789
40882W        W13197  34.166   0.761   3.149
40883W        W13198  41.972  19.234  11.546
40884W        W13199  21.987  12.652  10.737
40885W        W13200  38.509  32.597  12.865
40886W        W13201   7.182  30.089  12.461
40887W        W13202  22.596  37.660  13.392
40888W        W13203  11.141  19.077  11.412
40889W        W13204  26.569  32.365   4.745
40890W        W13205  26.772  10.717   1.623
40891W        W13206   6.384  42.418   0.021
40892W        W13207  23.186  28.247  11.084
40893W        W13208  43.932  22.187  10.375
40894W        W13209  16.052  35.904  11.417
40895W        W13210  27.689  39.856  11.531
40896W        W13211  13.151  31.496   0.710
40897W        W13212   4.460  16.296   2.115
40898W        W13213  15.159  40.785   1.002
40899W        W13214  41.430   9.222   4.720
40900W        W13215   1.826  25.192   2.845
40901W        W13216  10.089  26.442   4.085
40902W        W13217  43.303  18.692  11.565
40903W        W13218  13.645  36.495   4.788
40904W        W13219  28.024   8.783   2.677
40905W        W13220  25.260  15.799  14.320
40906W        W13221  19.764  24.912  14.766
40907W        W13222  12.617  27.865  13.962
40908W        W13223  16.340  18.304   2.804
40909W        W13224  38.258  33.027  11.046
40910W        W13225  26.967  10.832   2.862
40911W        W13226   5.118  33.619   2.283
40912W        W13227  13.286  25.528  11.579
40913W        W13228  14.623  41.373  13.784
40914W        W13229   1.009  24.011  14.350
40915W        W13230   6.905  40.193   2.738
40916W        W13231  34.597  12.191   3.671
40917W        W13232  18.324  27.960   2.369
40918W        W13233  21.768  37.114   2.278
40919W        W13234  18.117  44.391   2.729
40920W        W13235  30.783   0.834  14.344
40921W        W13236  24.643  44.325  10.740
40922W        W13237  34.942  44.292  13.598
40923W        W13238  23.084  10.134   2.930
40924W        W13239  11.847  39.656  11.129
40925W        W13240  14.205   4.272  13.465
40926W        W13241  25.505   6.896   4.632
40927W        W13242  14.157  31.127  14.990
40928W        W13243  22.698   8.801  14.398
40929W        W13244  19.701   2.818  11.045
40930W        W13245  16.579  36.515  12.525
40931W        W13246  39.548  25.587   4.256
40932W        W13247  15.797  33.744  11.957
40933W        W13248  43.798   0.907  14.078
40934W        W13249  23.980  34.966   1.331
40935W        W13250  25.955  25.184   0.225
40936W        W13251  39.111  30.003  14.835
40937W        W13252  26.520   7.635  14.545
40938W        W13253   3.184  41.301   3.607
40939W        W13254  25.061   9.275   0.263
40940W        W13255   8.219  18.488   4.619
40941W        W13256  15.024   7.177   2.645
40942W        W13257  19.651  25.445   2.371
40943W        W13258  12.324   8.362  11.448
40944W        W13259  15.340  23.561  12.541
40945W        W13260  40.003   2.346  13.872
40946W        W13261   8.920  30.914  13.443
40947W        W13262  27.196   3.201  11.869
40948W        W13263  13.734  25.726   1.807
40949W        W13264  40.614   7.359   3.884
40950W        W13265   0.190  32.680   3.258
40951W        W13266   7.731   2.550  13.992
40952W        W13267   7.979  26.036  12.913
40953W        W13268   0.889  30.060   2.390
40954W        W13269  11.812  41.261   0.019
40955W        W13270  31.380   1.777   3.187
40956W        W13271  36.491  26.067   1.014
40957W        W13272  41.524  10.347  11.241
40958W        W13273  42.434   0.615   3.468
40959W        W13274  35.333  29.623  10.553
40960W        W13275   3.289  41.890   5.184
40961W        W13276  44.416  10.723  12.494
40962W        W13277   8.075  40.224   3.490
40963W        W13278  21.180  31.988   4.551
40964W        W13279  17.574  35.482  13.342
40965W        W13280  11.718  43.230  14.524
40966W        W13281  24.528  39.518  11.844
40967W        W13282  26.818  16.868   2.708
40968W        W13283  17.689   5.207  12.177
40969W        W13284  32.875   8.721   3.732
40970W        W13285   3.651   8.363   4.080
40971W        W13286   7.647  32.955   4.772
40972W        W13287   3.882   5.903  14.470
40973W        W13288  35.305  33.570  12.150
40974W        W13289  16.775  24.168   5.132
40975W        W13290  18.203  42.869   0.755
40976W        W13291  36.066  12.327  10.678
40977W        W13292  43.826  15.881   1.899
40978W        W13293  22.164   2.700   4.223
40979W        W13294   8.304  17.534  10.695
40980W        W13295  34.474  38.412   2.891
40981W        W13296  34.609  13.641   3.187
40982W        W13297  40.464   9.262  13.486
40983W        W13298  36.614  30.202   0.470
40984W        W13299  41.817  26.671   3.783
40985W        W13300  43.303  35.406   3.640
40986W        W13301   1.752  38.896  13.486
40987W        W13302  39.015   0.811   1.789
40988W        W13303  30.596  27.950   2.362
40989W        W13304  44.762   6.749   3.222
40990W        W13305  18.052  18.582  11.524
40991W        W13306   0.788   1.380   3.352
40992W        W13307  17.049  24.773   1.692
40993W        W13308  34.173  12.581   0.994
40994W        W13309  32.777  12.901   2.374
40995W        W13310  30.960  28.454   2.853
40996W        W13311  20.228  29.473  13.514
40997W        W13312  39.587  44.233   4.893
40998W        W13313   2.703  17.670  11.518
40999W        W13314   6.957   0.791  14.889
41000W        W13315  42.948  13.018  13.604
41001W        W13316  43.378   5.786   1.020
41002W        W13317   7.671  40.915   3.177
41003W        W13318  23.124  28.752  10.798
41004W        W13319  11.546   6.347   2.890
41005W        W13320   5.361   7.719   4.704
41006W        W13321  37.426   3.755  10.869
41007W        W13322   9.867   9.629   1.433
41008W        W13323  24.185  17.730   0.978
41009W        W13324   1.382  32.116  12.189
41010W        W13325  15.838   2.389  13.990
41011W        W13326  29.954  15.379  14.854
41012W        W13327  14.179  20.102   2.374
41013W        W13328   1.687  36.874  12.110
41014W        W13329   2.157   2.928   1.726
41015W        W13330  29.081  11.699  12.521
41016W        W13331  17.564  16.182   2.766
41017W        W13332  18.250  17.703  14.000
41018W        W13333  40.754  35.086   5.236
41019W        W13334  17.797  22.934  11.425
41020W        W13335  30.380  16.871  13.836
41021W        W13336  40.303  42.723   2.583
41022W        W13337  19.151  25.908   0.819
41023W        W13338  39.251  27.095   1.131
41024W        W13339  39.477   7.363   3.688
41025W        W13340  37.745  41.423  10.731
41026W        W13341  19.586  17.823   0.976
41027W        W13342  36.519  36.787   0.283
41028W        W13343  35.678  11.737   1.217
41029W        W13344  13.672  32.142   3.729
41030W        W13345  41.620  37.467   0.361
41031W        W13346  13.463  38.533   1.035
41032W        W13347  11.859  15.615  12.414
41033W        W13348  24.738  37.441  14.437
41034W        W13349  21.186  28.526  13.770
41035W        W13350  43.516  24.333   1.614
41036W        W13351  25.020   5.404   0.363
41037W        W13352  23.680  40.584   1.246
41038W        W13353  36.635  11.717   4.171
41039W        W13354   9.447   7.253   0.825
41040W        W13355   6.599   1.600  11.616
41041W        W13356  33.416   1.664   3.330
41042W        W13357  10.974  17.525   4.387
41043W        W13358  33.010  11.859  10.684
41044W        W13359  23.444  17.557  12.055
41045W        W13360  40.439   5.850  10.696
41046W        W13361  16.277  37.283   3.229
41047W        W13362  27.504  15.110  14.790
41048W        W13363  28.199  30.458  12.892
41049W        W13364  38.561  15.125  12.389
41050W        W13365  29.626  30.088   4.723
41051W        W13366  13.441  22.308  13.448
41052W        W13367   2.112  22.712  13.857
41053W        W13368   7.472  14.647   1.560
41054W        W13369  31.615  29.670   4.722
41055W        W13370  15.249   2.281   4.992
41056W        W13371  38.563  16.075  10.202
41057W        W13372  25.808  37.884  10.908
41058W        W13373  35.803  25.119  13.004
41059W        W13374  31.845  11.668   3.676
41060W        W13375  42.167   1.722  11.933
41061W        W13376  23.589   1.182  12.034
41062W        W13377   3.479  12.820  13.188
41063W        W13378  44.932  29.943  12.648
41064W        W13379  12.366  38.376   4.239
41065W        W13380  20.316  39.337  12.476
41066W        W13381  16.097  14.755   4.084
41067W        W13382  34.661  30.482   3.664
41068W        W13383  27.176   6.473   0.329
41069W        W13384  42.070  13.512   1.314
41070W        W13385  44.100  23.518  11.220
41071W        W13386  43.123  18.626   3.251
41072W        W13387  29.633  43.716   0.067
41073W        W13388   1.997  39.360  13.533
41074W        W13389  42.390  35.339   2.581
41075W        W13390  30.885  24.222   0.337
41076W        W13391  32.116  43.442   2.879
41077W        W13392  37.092  10.210  13.107
41078W        W13393   5.723  28.676  12.224
41079W        W13394  39.264  24.562   1.404
41080W        W13395  34.357  28.426   3.206
41081W        W13396  24.096  31.811   2.249
41082W        W13397   0.954   2.618  12.618
41083W        W13398  11.825  34.946   0.377
41084W        W13399  35.452  17.704  11.900
41085W        W13400   2.767  24.734  14.696
41086W        W13401  42.927  23.678   1.336
41087W        W13402  43.339  24.088   4.563
41088W        W13403  39.126  16.363   2.197
41089W        W13404  35.914  42.212   1.404
41090W        W13405  39.871  31.149   4.590
41091W        W13406  10.145  35.643  11.386
41092W        W13407   4.580   0.406   9.872
41093W        W13408  40.297   0.080  12.925
41094W        W13409   7.232  17.963  14.804
41095W        W13410  34.317  15.315  10.700
41096W        W13411  12.854  28.218   4.487
41097W        W13412  22.975  44.672  13.707
41098W        W13413   5.378  13.715   2.294
41099W        W13414  24.229   6.658  13.141
41100W        W13415   7.014  35.658   3.661
41101W        W13416  19.908  17.439  12.521
41102W        W13417  25.777  38.376   1.147
41103W        W13418   1.350  38.780  14.346
41104W        W13419  20.588  10.862   4.220
41105W        W13420   2.703  23.459  13.427
41106W        W13421  28.598  41.779  10.914
41107W        W13422  27.589  38.350   2.822
41108W        W13423   8.625   2.345  13.494
41109W        W13424  38.428  14.612   2.594
41110W        W13425   0.466  39.768  12.849
41111W        W13426  21.073   8.755  11.140
41112W        W13427   5.782  30.072  10.949
41113W        W13428  42.427  18.436   0.886
41114W        W13429   6.423  30.505  12.110
41115W        W13430  26.473  32.203   2.639
41116W        W13431  28.562  41.212  13.992
41117W        W13432  44.581   8.356   4.488
41118W        W13433  31.311  32.357  14.019
41119W        W13434  19.147  13.083   1.926
41120W        W13435  20.020   0.313  14.771
41121W        W13436  10.241  42.484   0.333
41122W        W13437   3.980  36.366  12.507
41123W        W13438  23.512  17.596   1.791
41124W        W13439  44.782   4.068  14.793
41125W        W13440  42.322  19.234  12.130
41126W        W13441  24.514  35.548  11.180
41127W        W13442   0.294  39.837   2.919
41128W        W13443  20.089  10.064   2.210
41129W        W13444  24.714  43.330  11.935
41130W        W13445   9.120  39.347   0.527
41131W        W13446  23.227  38.012  13.879
41132W        W13447   3.035  26.527   3.743
41133W        W13448   6.506  26.471  12.311
41134W        W13449  21.737  32.856  10.426
41135W        W13450  42.575  25.720  13.893
41136W        W13451  22.644   9.887   2.791
41137W        W13452   8.170  11.443  12.205
41138W        W13453  38.331  31.039   1.661
41139W        W13454   2.357  20.214  14.460
41140W        W13455   1.564   8.905  12.930
41141W        W13456  34.906  16.457   3.187
41142W        W13457  13.144  36.894   4.417
41143W        W13458  31.369  19.640   3.214
41144W        W13459   4.321  38.254   3.617
41145W        W13460  40.370  38.485   4.119
41146W        W13461  16.189   8.273  13.629
41147W        W13462  15.256  31.610  11.864
41148W        W13463   6.290  19.816  13.290
41149W        W13464  33.031   2.336   0.121
41150W        W13465  44.376  28.949  12.857
41151W        W13466  11.900   2.850   2.326
41152W        W13467  29.130  14.343  11.066
41153W        W13468  34.893  37.652  10.665
41154W        W13469  24.235   8.291  10.648
41155W        W13470   7.240  22.174  12.009
41156W        W13471  10.353   0.349  10.987
41157W        W13472  22.053   0.909   0.531
41158W        W13473  16.152  33.792  13.732
41159W        W13474  43.561   1.687  14.741
41160W        W13475  28.930  31.984   1.900
41161W        W13476  22.024  39.426  14.061
41162W        W13477  41.269   0.296   2.246
41163W        W13478   8.035   9.159  12.057
41164W        W13479  43.491   0.910   2.574
41165W        W13480   2.787  12.690  12.364
41166W        W13481   4.575   2.494  14.308
41167W        W13482  30.657   7.363  12.138
41168W        W13483   8.108  33.942  12.171
41169W        W13484  43.900  24.275  13.964
41170W        W13485   6.229  34.166  11.860
41171W        W13486   7.466  32.700  11.770
41172W        W13487  11.254  41.607   1.415
41173W        W13488  44.895  38.425  11.033
41174W        W13489  29.421   8.720  10.376
41175W        W13490  25.282  41.056   4.151
41176W        W13491  31.682  38.859   3.716
41177W        W13492  15.764   6.113  11.930
41178W        W13493   7.847  19.742  12.052
41179W        W13494   2.014  31.931   3.755
41180W        W13495  32.382  42.514  13.412
41181W        W13496  14.692   4.165  11.170
41182W        W13497  24.061   0.949   2.825
41183W        W13498   6.859   5.113  12.977
41184W        W13499  42.921  44.242  11.655
41185W        W13500   3.681   4.665  12.050
41186W        W13501  27.473  41.527  13.286
41187W        W13502   9.668   1.728   0.413
41188W        W13503   6.183  36.539  12.189
41189W        W13504  28.757  23.992  14.476
41190W        W13505  43.026  23.184   4.362
41191W        W13506  34.553  39.064   1.804
41192W        W13507  31.049  22.003   0.760
41193W        W13508  21.890   6.584   2.331
41194W        W13509   4.137  21.556  10.988
41195W        W13510  19.582   3.142   2.257
41196W        W13511  10.893   9.167   4.838
41197W        W13512   9.231  13.828  13.346
41198W        W13513  18.141   1.494   1.921
41199W        W13514   0.814  37.554  11.581
41200W        W13515   2.608  42.361  10.722
41201W        W13516  25.381  42.379   2.619
41202W        W13517  43.960  41.284   4.981
41203W        W13518   7.713  40.805  10.348
41204W        W13519  26.075  28.118  12.994
41205W        W13520  39.177  33.153  14.377
41206W        W13521   0.100  16.750  14.264
41207W        W13522  37.863  28.773   2.712
41208W        W13523  26.010  18.982   2.213
41209W        W13524  11.359  25.746  12.478
41210W        W13525  41.159  29.087   0.769
41211W        W13526   6.952   3.926   4.408
41212W        W13527  16.930  31.758  12.436
41213W        W13528  25.940  20.409   3.411
41214W        W13529  26.295  19.993   2.162
41215W        W13530   0.796  17.228   2.114
41216W        W13531  32.048  13.621  12.598
41217W        W13532  26.685   4.725  12.935
41218W        W13533  18.797  43.752   1.691
41219W        W13534  34.355  16.612  12.563
41220W        W13535  12.124  33.641  12.333
41221W        W13536  20.503   5.292   0.813
41222W        W13537  16.819   6.602   3.693
41223W        W13538  28.932   0.038  10.683
41224W        W13539  13.103   0.079   3.178
41225W        W13540  25.265  24.650  13.832
41226W        W13541  10.460  43.736   2.214
41227W        W13542  44.512  38.663  13.937
41228W        W13543   6.167  23.617   1.509
41229W        W13544   3.552  37.252   2.476
41230W        W13545  24.111   4.226  11.726
41231W        W13546  12.774  26.240   1.407
41232W        W13547  21.987   4.141   0.562
41233W        W13548  18.276  44.925   2.715
41234W        W13549  42.397  21.772  12.930
41235W        W13550  12.326  41.506   1.299
41236W        W13551  32.859  40.759   0.833
41237W        W13552  40.506   4.460   2.727
41238W        W13553  36.551  34.454   0.483
41239W        W13554  31.498  13.522  13.265
41240W        W13555  12.613  40.464  12.024
41241W        W13556  10.594  37.365  12.143
41242W        W13557  33.354  16.139   2.316
41243W        W13558  17.294  18.066  12.399
41244W        W13559  23.520  20.899   2.804
41245W        W13560  25.512   1.955   3.113
41246W        W13561  35.084  22.398  14.779
41247W        W13562  36.632  15.585   1.041
41248W        W13563  11.055  22.817   1.639
41249W        W13564  22.236  33.993  14.573
41250W        W13565  36.956  27.566  12.506
41251W        W13566  36.935  40.842   1.885
41252W        W13567  37.583  27.109  11.073
41253W        W13568  12.759  34.136  10.651
41254W        W13569  13.171  38.298   3.684
41255W        W13570  18.558  21.266   1.045
41256W        W13571  20.140  21.809   3.783
41257W        W13572  14.416  44.977   2.273
41258W        W13573  33.123   2.315  12.635
41259W        W13574   6.448   3.306  12.825
41260W        W13575  41.531  27.694   3.229
41261W        W13576  26.301  22.233   3.629
41262W        W13577   1.952   2.790   3.660
41263W        W13578  32.134  33.398  14.867
41264W        W13579  28.172  35.027   0.707
41265W        W13580  27.663   0.520   0.818
41266W        W13581  11.845  31.627   4.641
41267W        W13582  32.589  17.033  12.599
41268W        W13583  36.373  11.212   3.555
41269W        W13584  13.382  12.985   0.423
41270W        W13585  37.580  38.821  11.631
41271W        W13586   4.690   4.356  12.482
41272W        W13587  34.590  26.987   0.270
41273W        W13588  41.995  43.484   0.734
41274W        W13589  32.894  27.609  13.870
41275W        W13590  36.035  37.708  12.685
41276W        W13591  12.348   4.356   4.204
41277W        W13592   1.968  39.062   1.430
41278W        W13593   9.633  10.920  14.549
41279W        W13594  20.064   5.784   1.702
41280W        W13595  19.821  22.512  13.870
41281W        W13596  19.274  36.013   2.217
41282W        W13597  29.958  28.605   3.629
41283W        W13598  44.645  18.635  10.255
41284W        W13599  18.976  33.060   3.849
41285W        W13600   9.382  37.387   2.912
41286W        W13601  15.122   7.033   2.176
41287W        W13602  39.411   7.259  13.893
41288W        W13603  18.996  24.068   1.538
41289W        W13604   3.156  21.257   0.787
41290W        W13605  11.007  10.687  13.344
41291W        W13606   0.262  42.337   1.683
41292W        W13607  14.313  24.686  13.780
41293W        W13608  21.096  19.217   1.019
41294W        W13609  16.643  43.970   3.436
41295W        W13610   5.908  37.858   3.284
41296W        W13611   2.795  31.628  13.282
41297W        W13612   9.190  32.908   3.706
41298W        W13613  43.172  20.354   3.357
41299W        W13614  29.395   5.979   9.743
41300W        W13615  13.743  17.164   0.391
41301W        W13616  13.609  21.286  13.404
41302W        W13617   5.676   0.724  13.422
41303W        W13618  13.608   2.350   3.697
41304W        W13619  43.960  13.592   3.747
41305W        W13620   9.101  21.500  12.535
41306W        W13621  23.020  43.726  11.638
41307W        W13622  43.640  14.672  13.516
41308W        W13623   3.380  15.813  12.078
41309W        W13624  26.400   7.428  11.525
41310W        W13625  38.085  29.565   4.276
41311W        W13626  18.657  36.967   4.097
41312W        W13627   3.179  38.422   2.665
41313W        W13628  41.920  42.248   2.798
41314W        W13629   1.863  13.853   3.465
41315W        W13630   9.725   6.407  11.501
41316W        W13631  33.396  44.475  12.490
41317W        W13632  14.685  10.587  11.963
41318W        W13633  22.806   3.317   4.160
41319W        W13634   0.248  13.279   4.090
41320W        W13635  12.847  14.300   2.923
41321W        W13636  13.797  21.116   0.725
41322W        W13637  34.969  40.155  14.030
41323W        W13638  33.821  23.710  13.873
41324W        W13639  36.864  16.328  11.204
41325W        W13640   9.485   5.770  14.357
41326W        W13641  29.900  39.577  11.968
41327W        W13642   4.707  22.853   0.018
41328W        W13643  44.392  36.506  13.894
41329W        W13644  13.077  24.446  12.484
41330W        W13645  17.122  40.347   5.295
41331W        W13646  36.150  42.421  12.013
41332W        W13647  39.365  37.857   0.368
41333W        W13648  10.098  40.963   0.183
41334W        W13649  43.249   3.462  10.692
41335W        W13650  10.950  26.422  12.420
41336W        W13651   6.353   7.873  11.549
41337W        W13652   0.431  20.975  12.090
41338W        W13653  33.162  19.264  13.887
41339W        W13654  35.798   4.506   4.222
41340W        W13655  30.704  27.230  13.542
41341W        W13656  26.700  22.809   3.111
41342W        W13657  40.842  13.039  11.602
41343W        W13658  24.000  37.921  11.614
41344W        W13659  43.753  28.481   3.852
41345W        W13660  31.297  39.628   3.395
41346W        W13661   6.494  12.941   3.633
41347W        W13662   9.300  35.976   0.059
41348W        W13663  33.101  12.921   4.336
41349W        W13664  22.151  33.134   4.527
41350W        W13665  35.304  27.513   0.326
41351W        W13666  12.707  32.309  13.653
41352W        W13667   0.811  11.991   4.454
41353W        W13668  15.832   0.023  14.987
41354W        W13669  22.282  10.617   1.437
41355W        W13670   8.834  18.946  12.579
41356W        W13671  12.559   2.761   3.146
41357W        W13672  25.579  34.689   1.352
41358W        W13673  19.068  27.846   0.755
41359W        W13674  28.622   7.429   4.602
41360W        W13675  32.556  23.909  10.456
41361W        W13676  22.224   3.186   0.335
41362W        W13677   3.921  39.743  11.154
41363W        W13678  13.768  29.094   0.743
41364W        W13679  15.837  16.593   1.668
41365W        W13680  22.242  35.899   2.641
41366W        W13681   4.543  26.081  10.699
41367W        W13682  14.768  32.091   2.720
41368W        W13683  23.500  38.533   1.967
41369W        W13684  20.148   2.145   0.382
41370W        W13685   2.307  24.644   0.903
41371W        W13686  18.030  26.644  11.834
41372W        W13687  19.758  41.360   0.462
41373W        W13688   1.938   7.118   2.239
41374W        W13689  32.985  12.405  10.659
41375W        W13690  24.167  44.454   0.934
41376W        W13691  30.493  22.158  10.803
41377W        W13692  38.483  16.385  12.127
41378W        W13693  26.682   7.450   1.366
41379W        W13694  13.671   9.705   0.746
41380W        W13695   4.342  33.938   2.379
41381W        W13696  24.941  12.139  12.152
41382W        W13697   0.243  42.387  14.158
41383W        W13698  44.873  38.863   2.926
41384W        W13699  31.578  15.375   1.738
41385W        W13700  35.779  44.313   0.657
41386W        W13701  33.068   3.793  14.807
41387W        W13702  10.119  26.533  11.958
41388W        W13703  17.152  30.820  11.333
41389W        W13704  32.058   6.291  11.617
41390W        W13705  19.492   6.910   4.090
41391W        W13706  33.369   0.753  12.772
41392W        W13707  44.685  39.437   1.243
41393W        W13708  19.447   8.709  13.437
41394W        W13709  30.690  16.640  12.994
41395W        W13710   9.752  44.712   1.356
41396W        W13711  17.628  26.308  14.453
41397W        W13712  42.010  40.898   1.691
41398W        W13713  34.069  21.183   1.267
41399W        W13714  42.992  12.892   0.722
41400W        W13715  43.843  14.627  12.894
41401W        W13716  20.511  37.546  13.474
41402W        W13717  18.394  15.746   3.801
41403W        W13718  41.846  25.235   0.960
41404W        W13719   8.816  36.073   4.648
41405W        W13720  12.467  38.899  10.675
41406W        W13721  28.177  15.549   1.385
41407W        W13722  42.774  22.296   2.865
41408W        W13723  17.104  39.060  13.978
41409W        W13724  39.474  36.958   0.839
41410W        W13725  33.096  44.202  13.720
41411W        W13726  30.018   5.414   1.289
41412W        W13727  30.935  20.860   1.568
41413W        W13728   8.623   0.701   2.913
41414W        W13729   0.228  33.406   1.306
41415W        W13730  29.569   0.736  10.994
41416W        W13731  12.399  38.623  12.698
41417W        W13732  15.568  24.188  11.697
41418W        W13733   3.202  12.869   0.830
41419W        W13734   0.738  33.906  12.522
41420W        W13735  41.236  38.426  13.110
41421W        W13736  44.621  29.389  12.028
41422W        W13737  37.117  38.464  12.113
41423W        W13738  34.891  10.305  12.006
41424W        W13739  12.792  32.167   2.862
41425W        W13740   2.447  13.081  12.211
41426W        W13741   1.516  27.571  14.551
41427W        W13742  27.660  23.112  14.269
41428W        W13743  12.886  27.185  11.949
41429W        W13744  28.450  22.457   4.809
41430W        W13745  36.295  25.321  13.551
41431W        W13746  34.666  33.389  10.972
41432W        W13747  26.433  11.395   1.190
41433W        W13748   0.912  14.783   2.885
41434W        W13749  14.220  36.450   4.175
41435W        W13750  17.412  43.535  12.777
41436W        W13751  10.495  20.166   2.204
41437W        W13752  40.316   7.791   4.640
41438W        W13753  12.272  30.233   1.252
41439W        W13754  27.490  32.385  14.514
41440W        W13755  21.948  20.540   9.655
41441W        W13756  11.374   8.354  11.702
41442W        W13757  15.092  39.555   3.526
41443W        W13758  15.404  14.071  13.082
41444W        W13759  12.735  40.876  14.777
41445W        W13760   4.952   0.064   4.015
41446W        W13761  40.436  39.976  13.086
41447W        W13762   5.626   6.728  14.880
41448W        W13763  44.943  22.788   3.338
41449W        W13764  27.224  27.746   4.092
41450W        W13765  39.805  14.708  13.255
41451W        W13766  44.708   9.797   1.307
41452W        W13767   4.558   1.667  13.322
41453W        W13768  13.441  34.387  14.989
41454W        W13769  17.744   0.134   1.646
41455W        W13770  31.879  13.427  11.589
41456W        W13771  35.837  27.181  12.486
41457W        W13772  13.565  11.677   2.759
41458W        W13773  30.218  34.822  14.398
41459W        W13774  10.171  32.026   0.359
41460W        W13775  32.671   6.004  11.092
41461W        W13776  10.873  19.512   1.742
41462W        W13777  13.275  32.381   2.804
41463W        W13778  15.024  21.276  12.963
41464W        W13779  30.157  16.308  11.663
41465W        W13780  11.087  22.987  10.497
41466W        W13781  36.911  19.214   2.378
41467W        W13782  40.334  43.081  11.039
41468W        W13783  16.879   5.227  13.364
41469W        W13784  16.851   3.327   4.091
41470W        W13785  11.921   4.103  11.589
41471W        W13786   3.018  30.802  14.830
41472W        W13787  43.484  25.532  11.403
41473W        W13788  24.255  34.943  11.878
41474W        W13789  26.995  27.006  11.972
41475W        W13790   9.871  39.739   1.688
41476W        W13791  42.054   1.935  13.407
41477W        W13792   3.850   9.608  12.544
41478W        W13793  23.082  21.826   4.171
41479W        W13794  33.107   8.239   3.732
41480W        W13795  31.592  35.516  11.861
41481W        W13796  23.139  16.311  12.931
41482W        W13797  30.379  41.648   3.311
41483W        W13798   3.915  10.170  10.742
41484W        W13799  24.770  19.333   9.610
41485W        W13800  42.895   7.010   2.641
41486W        W13801  27.281  39.328  14.312
41487W        W13802   1.401  13.086   1.250
41488W        W13803  44.312  34.317  11.915
41489W        W13804  18.770  31.831  12.543
41490W        W13805  38.341  43.815  13.937
41491W        W13806  35.486   1.624   3.392
41492W        W13807  11.109   4.375   2.756
41493W        W13808   0.975  36.240   1.289
41494W        W13809  43.887  40.061   4.265
41495W        W13810  35.519  43.502  14.291
41496W        W13811  27.736  36.254   1.197
41497W        W13812  30.342  25.981   2.421
41498W        W13813  41.067  35.558   3.716
41499W        W13814  14.131  27.492   1.680
41500W        W13815   2.509  18.840   3.705
41501W        W13816  41.785  32.671   4.224
41502W        W13817   1.919   9.378  11.636
41503W        W13818  28.536  31.881   4.230
41504W        W13819  14.795   4.348   1.836
41505W        W13820  17.088  12.977  11.966
41506W        W13821  41.462  35.752   0.503
41507W        W13822  27.050  26.848   2.863
41508W        W13823  12.745  30.981  14.984
41509W        W13824  28.899  19.713   1.666
41510W        W13825  17.651  23.673   0.215
41511W        W13826  36.219   3.722  13.425
41512W        W13827   5.457  13.621   4.222
41513W        W13828  40.449   6.361   0.244
41514W        W13829  10.374  18.638  12.554
41515W        W13830   1.857  24.739   0.614
41516W        W13831  33.602   5.726   4.656
41517W        W13832  21.676   0.670  14.506
41518W        W13833  11.164  32.728  11.000
41519W        W13834   6.813   1.050  11.143
41520W        W13835   9.404  29.837  11.118
41521W        W13836  30.928  44.288  12.469
41522W        W13837  43.942   3.173  12.943
41523W        W13838  32.308  14.679  14.769
41524W        W13839  39.994  15.037   2.825
41525W        W13840  29.801  32.909  11.586
41526W        W13841   4.510   5.990  10.977
41527W        W13842  11.329  34.309  13.992
41528W        W13843   7.243  18.100   0.665
41529W        W13844  32.495   9.133   2.676
41530W        W13845  29.161   6.041  10.196
41531W        W13846  10.340   8.967  13.359
41532W        W13847  34.666   1.965  10.765
41533W        W13848   4.721  27.318  14.348
41534W        W13849  19.261  35.364  14.949
41535W        W13850  15.061  42.338  14.863
41536W        W13851   3.374  26.019  12.309
41537W        W13852  43.790  34.361  11.301
41538W        W13853  42.976  21.468   2.654
41539W        W13854  12.289  17.130   2.746
41540W        W13855  16.725  22.100   1.231
41541W        W13856  40.771  44.092   1.800
41542W        W13857  11.776  39.321  12.141
41543W        W13858   1.242  14.182   2.346
41544W        W13859  12.810  10.633  13.511
41545W        W13860   1.373  17.949   3.696
41546W        W13861  14.567  36.432  12.479
41547W        W13862   0.243  10.792   0.687
41548W        W13863  43.686  42.573   4.300
41549W        W13864  16.573   0.766   1.733
41550W        W13865  36.237  18.206   0.699
41551W        W13866  33.654  11.722   9.914
41552W        W13867   6.655  20.374   0.108
41553W        W13868  38.893  33.324  10.452
41554W        W13869  44.489   4.860  10.927
41555W        W13870  11.690  29.574  14.375
41556W        W13871  43.884  20.993   1.774
41557W        W13872  41.527   1.776  14.721
41558W        W13873  21.788  29.184  13.567
41559W        W13874  34.376  36.906   4.272
41560W        W13875  31.886  40.537  14.708
41561W        W13876   2.196  14.645   3.276
41562W        W13877  35.521  44.424  14.890
41563W        W13878  19.391  39.955  13.381
41564W        W13879  44.438   0.214  12.633
41565W        W13880  26.933  40.837  13.469
41566W        W13881  18.708   9.580  13.229
41567W        W13882  32.134  12.310  11.950
41568W        W13883  15.652   2.725   3.716
41569W        W13884  42.530   8.346  14.234
41570W        W13885   8.308   4.588  14.755
41571W        W13886   0.841  13.867   2.195
41572W        W13887  15.033  35.410   1.286
41573W        W13888  35.483  38.686   1.884
41574W        W13889   3.323  20.061  13.773
41575W        W13890  24.246  41.110  12.350
41576W        W13891  37.480   8.824  13.798
41577W        W13892  31.033  28.346   1.028
41578W        W13893  12.882  19.025  12.557
41579W        W13894   3.833   2.172  11.078
41580W        W13895  24.017   7.182   4.097
41581W        W13896  26.754  35.947  11.101
41582W        W13897  29.587   9.385  10.892
41583W        W13898  36.507  40.937  11.035
41584W        W13899  30.861  14.596   4.221
41585W        W13900  12.584  43.528  12.803
41586W        W13901   1.934  33.556  12.195
41587W        W13902  15.455  30.121   4.318
41588W        W13903  35.881  24.225   2.764
41589W        W13904  25.488  19.704   2.459
41590W        W13905   7.642  38.164   3.807
41591W        W13906  38.473  25.219  12.361
41592W        W13907  11.611  17.539   3.281
41593W        W13908   7.194  26.095   1.650
41594W        W13909  25.597  28.636   1.619
41595W        W13910  17.224  23.083  12.730
41596W        W13911   4.255  35.202   1.403
41597W        W13912  18.258  39.084  12.974
41598W        W13913  23.505  32.499  13.913
41599W        W13914   6.166   4.752   1.518
41600W        W13915  10.015  37.777  14.334
41601W        W13916  34.029  40.637  14.959
41602W        W13917   6.503  14.625   0.499
41603W        W13918  37.842   0.819   4.613
41604W        W13919  19.745  35.144  13.882
41605W        W13920  38.626  29.983  13.895
41606W        W13921   3.579  33.604   0.839
41607W        W13922   2.480  21.713  13.292
41608W        W13923  41.950  22.963  13.356
41609W        W13924  38.410  14.810   4.025
41610W        W13925   3.218  22.658   1.787
41611W        W13926  37.643  12.666  11.039
41612W        W13927  40.100  35.911   3.771
41613W        W13928   3.736  32.465   0.801
41614W        W13929  36.996   3.729  11.197
41615W        W13930   5.462  24.558   4.633
41616W        W13931  41.776  37.796  14.709
41617W        W13932   9.076   1.879  14.002
41618W        W13933  19.457  14.823  10.631
41619W        W13934  41.115  24.222   3.589
41620W        W13935  39.990   6.849   1.418
41621W        W13936  37.895  17.799  10.715
41622W        W13937  39.037  23.219  14.950
41623W        W13938  31.191  23.194   0.987
41624W        W13939  18.078  42.860   2.151
41625W        W13940  29.124  34.020   1.851
41626W        W13941  37.880  27.944  11.957
41627W        W13942   2.041  22.563   2.331
41628W        W13943  13.606   3.497  10.872
41629W        W13944  28.525  30.818   4.207
41630W        W13945  23.549  16.309  14.529
41631W        W13946   1.540  10.263  13.459
41632W        W13947  15.162  43.354  11.999
41633W        W13948  20.809  21.642  12.555
41634W        W13949  25.686  39.247  11.046
41635W        W13950  41.276   0.463  12.879
41636W        W13951  25.068   4.731   4.150
41637W        W13952  18.070  33.416  11.975
41638W        W13953  15.888  24.170  10.859
41639W        W13954  26.051  28.767   3.353
41640W        W13955  34.329  22.484  10.994
41641W        W13956  37.572  29.547   0.474
41642W        W13957  33.908  22.894  11.058
41643W        W13958  30.599   8.616  13.900
41644W        W13959  17.795  26.516  11.378
41645W        W13960   1.740   8.788   2.726
41646W        W13961   4.726  42.039   0.440
41647W        W13962  39.427  12.144   2.201
41648W        W13963  26.365  33.584  11.198
41649W        W13964  22.837  36.737   2.751
41650W        W13965  24.766  15.567  11.685
41651W        W13966  24.225  34.189   2.823
41652W        W13967  39.577   6.883   3.765
41653W        W13968  27.714  23.598   0.831
41654W        W13969  26.698  13.173  13.055
41655W        W13970   7.877  30.960  13.803
41656W        W13971  24.086  13.180  14.837
41657W        W13972  18.626   8.836   4.603
41658W        W13973  29.907  25.124  11.508
41659W        W13974   1.236  24.001   1.248
41660W        W13975  15.101  35.926  14.057
41661W        W13976  40.806   8.926   2.825
41662W        W13977  28.239  33.543  12.926
41663W        W13978  41.861  43.707  12.923
41664W        W13979   5.070  24.483  13.919
41665W        W13980  32.919   9.430  11.988
41666W        W13981   9.493  36.354  14.545
41667W        W13982   6.727  17.843  14.388
41668W        W13983  37.557  21.725   2.877
41669W        W13984  15.330  19.634  13.638
41670W        W13985  42.452  23.406  11.789
41671W        W13986  18.259  22.252  13.391
41672W        W13987  23.135  37.093  12.862
41673W        W13988   0.285   3.890  14.732
41674W        W13989  37.112  44.323   2.262
41675W        W13990  36.378  20.979  10.324
41676W        W13991   5.437   0.250   4.084
41677W        W13992  33.850  35.625   2.881
41678W        W13993  37.451  39.373   0.726
41679W        W13994  43.046   0.856   1.791
41680W        W13995  21.529  11.601  13.951
41681W        W13996   4.353  42.725   0.925
41682W        W13997  23.268  28.416  11.608
41683W        W13998  25.412  44.610  11.034
41684W        W13999  18.494  13.036   3.236
41685W        W14000  39.032  36.021  12.026
41686W        W14001   3.064  26.479  10.785
41687W        W14002  25.175   5.927   3.091
41688W        W14003  13.085  27.088   3.085
41689W        W14004  33.255  33.906  14.507
41690W        W14005  41.753   8.325   4.598
41691W        W14006  29.407   1.287  12.111
41692W        W14007   9.172   0.254   3.585
41693W        W14008  28.911  24.595  10.585
41694W        W14009  34.114  18.942   4.514
41695W        W14010  30.639  20.540   3.684
41696W        W14011  42.537  44.169   0.464
41697W        W14012  34.514  27.895   0.502
41698W        W14013  15.033  17.700  13.423
41699W        W14014  39.441  42.808   1.645
41700W        W14015  27.720  34.570  12.001
41701W        W14016  41.206  38.704  11.731
41702W        W14017  14.767  42.328   4.448
41703W        W14018   3.233  24.421  10.704
41704W        W14019  10.822   7.936   0.638
41705W        W14020   8.858  26.879   4.850
41706W        W14021  44.270  41.318  12.116
41707W        W14022  38.796  40.991  14.640
41708W        W14023  37.913  39.958  12.809
41709W        W14024  34.358  24.205   2.905
41710W        W14025  30.898   0.486   1.903
41711W        W14026  42.050   8.064  13.326
41712W        W14027  27.135  30.405  11.112
41713W        W14028   2.329   2.267   2.329
41714W        W14029   0.195  13.628  13.382
41715W        W14030   2.268  43.884  11.812
41716W        W14031  22.172  27.965   1.013
41717W        W14032  12.055  32.028   0.907
41718W        W14033   6.607  44.427   2.421
41719W        W14034  34.511  44.372   0.324
41720W        W14035  37.631  32.302  11.735
41721W        W14036  30.763  41.599  10.263
41722W        W14037   3.213   8.626  13.959
41723W        W14038  26.090  32.958   2.903
41724W        W14039  43.192   5.986  13.395
41725W        W14040  11.197   8.766  11.985
41726W        W14041   2.232  34.189  13.530
41727W        W14042  34.565  33.560   4.398
41728W        W14043  38.506  24.672   0.862
41729W        W14044  21.276  11.110   3.164
41730W        W14045  27.962  11.366  12.045
41731W        W14046   0.915  35.314  12.485
41732W        W14047  10.410   6.472   3.159
41733W        W14048  42.717  35.532   0.244
41734W        W14049   5.116  21.519  11.612
41735W        W14050   4.440  32.499   4.872
41736W        W14051   2.054  10.314  13.560
41737W        W14052  19.049  30.699  14.433
41738W        W14053  42.065  33.803  14.249
41739W        W14054  12.733  26.659   4.228
41740W        W14055  24.492  36.909   0.267
41741W        W14056  16.183  30.853   0.008
41742W        W14057  27.794  33.202   0.486
41743W        W14058  28.571  22.570   0.040
41744W        W14059   4.393  19.450   4.156
41745W        W14060   8.019  18.741   5.048
41746W        W14061  38.914  20.341   2.479
41747W        W14062   4.513   0.942   0.385
41748W        W14063  13.510  16.252   4.291
41749W        W14064  33.453   8.121   3.343
41750W        W14065  41.478  35.580  11.053
41751W        W14066  43.747   8.152   2.769
41752W        W14067   9.321  29.118   4.785
41753W        W14068  19.767  10.662  11.979
41754W        W14069   1.916  33.939  11.868
41755W        W14070  10.791  35.506   4.217
41756W        W14071  24.732  24.114   2.369
41757W        W14072   4.185  40.024   4.483
41758W        W14073   3.826  23.594   3.229
41759W        W14074  27.704  39.524   2.308
41760W        W14075  44.848  10.295  13.597
41761W        W14076   1.648  36.598   5.125
41762W        W14077  20.815  40.557  14.279
41763W        W14078  42.043  19.261   4.122
41764W        W14079  29.045  11.782   2.822
41765W        W14080  43.880  30.106   1.673
41766W        W14081  22.571  41.688   2.340
41767W        W14082  44.558   9.881  11.646
41768W        W14083  27.827   7.680  11.370
41769W        W14084  14.702  25.484  10.670
41770W        W14085  31.536  30.826  11.105
41771W        W14086  10.086  42.727   3.702
41772W        W14087  44.378   9.402   3.155
41773W        W14088  19.896   6.727   2.581
41774W        W14089  41.850  24.751  13.325
41775W        W14090  12.629   0.798  11.167
41776W        W14091   7.357  26.156   3.168
41777W        W14092  23.713  21.289  10.316
41778W        W14093  18.686   0.294  12.933
41779W        W14094  13.902  10.366  11.710
41780W        W14095  33.706  20.041   1.259
41781W        W14096  11.766  32.690  13.518
41782W        W14097  36.565   8.145   1.719
41783W        W14098  32.825   9.827  12.807
41784W        W14099   9.647  21.485  10.998
41785W        W14100  39.860   8.184  14.892
41786W        W14101  17.854  31.185   1.760
41787W        W14102   6.077   8.709  12.553
41788W        W14103   5.097  28.129  14.798
41789W        W14104  13.159  36.110   0.459
41790W        W14105  35.766   5.004   9.971
41791W        W14106  37.547   1.466  13.879
41792W        W14107   7.205   9.140  11.606
41793W        W14108   2.001   2.821  10.988
41794W        W14109  10.596  31.917   4.087
41795W        W14110  21.538  44.006  13.781
41796W        W14111  25.076  19.324   4.066
41797W        W14112  39.964   1.026   0.527
41798W        W14113  34.866  35.065   0.652
41799W        W14114  36.884  27.777  11.913
41800W        W14115  26.621  25.281  14.077
41801W        W14116  13.117  30.038   2.236
41802W        W14117  17.077   3.441   3.639
41803W        W14118  24.448   0.428   0.757
41804W        W14119  21.580  28.212   2.262
41805W        W14120  29.783  42.076   2.605
41806W        W14121  36.696  42.607  11.694
41807W        W14122  23.282  41.875  13.749
41808W        W14123  36.963  36.275   1.319
41809W        W14124  14.392   1.853  10.589
41810W        W14125  27.971  34.310  10.999
41811W        W14126  38.467  24.389  12.008
41812W        W14127  29.041   5.262   0.385
41813W        W14128  43.240   6.670   1.410
41814W        W14129  18.080  38.978   0.375
41815W        W14130  16.558  29.005  12.981
41816W        W14131   3.801  44.564   1.801
41817W        W14132  24.139  12.715   0.977
41818W        W14133  27.252   1.880   4.918
41819W        W14134   8.397  41.441  10.686
41820W        W14135  10.792  42.084   4.645
41821W        W14136   8.269   2.342   2.187
41822W        W14137  11.345  22.889   3.985
41823W        W14138   2.349   3.727   1.753
41824W        W14139  36.803   0.348   3.682
41825W        W14140   4.307  42.008   2.926
41826W        W14141  28.225  34.021   2.252
41827W        W14142  44.236   2.396   4.393
41828W        W14143  32.549  37.309  11.173
41829W        W14144  37.666  12.300   2.747
41830W        W14145  22.508  25.059   2.702
41831W        W14146  41.703  42.647  11.536
41832W        W14147   3.237   1.457   2.428
41833W        W14148  15.749  12.361   2.345
41834W        W14149  33.456  14.340   1.531
41835W        W14150   5.901   5.807   0.279
41836W        W14151  16.766  19.560   1.908
41837W        W14152  14.116  42.072  14.713
41838W        W14153  29.577   8.896  13.956
41839W        W14154   5.103  27.001   1.853
41840W        W14155  24.431  43.458  14.418
41841W        W14156  11.822  16.723   3.265
41842W        W14157  43.495   1.895  13.472
41843W        W14158  43.570   7.373   1.584
41844W        W14159  27.777  12.301   3.158
41845W        W14160   8.795  39.170   1.433
41846W        W14161   3.520  18.652  10.686
41847W        W14162   5.814  18.543   4.492
41848W        W14163   1.947  18.639  11.189
41849W        W14164  43.026  35.264  14.927
41850W        W14165  16.051   9.686   0.065
41851W        W14166  29.923   8.784  12.417
41852W        W14167  15.341   3.504  12.842
41853W        W14168  41.882   0.081   0.004
41854W        W14169  20.555  14.103  13.600
41855W        W14170  13.782  39.626  12.847
41856W        W14171  28.878  14.871  10.873
41857W        W14172  44.436  30.658  10.576
41858W        W14173  17.340   8.833  12.840
41859W        W14174  36.392  44.867   4.060
41860W        W14175  11.702  19.336  11.433
41861W        W14176  43.958  37.275  11.018
41862W        W14177  37.178  12.272  14.031
41863W        W14178  38.293  10.418   3.777
41864W        W14179   9.730  10.467  10.617
41865W        W14180  32.529  33.358   4.260
41866W        W14181   2.237  23.765  14.437
41867W        W14182   1.838  40.721  13.331
41868W        W14183  33.037  29.683   2.841
41869W        W14184  33.631  19.077   1.953
41870W        W14185  38.541   9.576   0.326
41871W        W14186  23.125   7.307  11.104
41872W        W14187  39.171  32.127  11.187
41873W        W14188  40.075  16.647   1.298
41874W        W14189  11.762  30.695  12.389
41875W        W14190  44.314  30.767   4.153
41876W        W14191  32.548  41.888   3.240
41877W        W14192  38.565  36.963   3.854
41878W        W14193  26.092   0.394   3.340
41879W        W14194  16.032  17.789   1.306
41880W        W14195  38.993  33.787  12.933
41881W        W14196  22.302  16.588  13.065
41882W        W14197  21.101   9.411  12.547
41883W        W14198  20.618  34.921  10.668
41884W        W14199  40.527  29.463  13.057
41885W        W14200   0.107  26.486  13.461
41886W        W14201  18.992  35.943  11.528
41887W        W14202  41.383  36.675  10.662
41888W        W14203   3.741  12.267   2.168
41889W        W14204  34.869  23.133   4.426
41890W        W14205  13.960   6.323   0.343
41891W        W14206  42.244  12.667   4.580
41892W        W14207  16.225  15.719  12.145
41893W        W14208   7.961   4.401  13.999
41894W        W14209  37.401  32.942   3.096
41895W        W14210  17.410   2.473   4.203
41896W        W14211  24.643  15.076   4.740
41897W        W14212  43.557  39.562  11.150
41898W        W14213   4.806  25.437   1.673
41899W        W14214  29.724  36.256   2.664
41900W        W14215  35.642  41.553   0.852
41901W        W14216  30.944   8.765   3.622
41902W        W14217  39.796  16.699   3.654
41903W        W14218  20.016  40.337   4.174
41904W        W14219  18.871  17.043  13.516
41905W        W14220  23.197  31.801  12.031
41906W        W14221  12.272   3.913   2.068
41907W        W14222  40.086  36.932   1.070
41908W        W14223  27.553  29.076  12.293
41909W        W14224   8.453  40.017  12.027
41910W        W14225   7.014  12.891  11.667
41911W        W14226  28.039  37.850   3.376
41912W        W14227  41.542  14.425  10.757
41913W        W14228  19.583  13.165   2.708
41914W        W14229  13.578   4.245  12.963
41915W        W14230  23.004   9.213   2.132
41916W        W14231  11.247  44.517  12.118
41917W        W14232  17.707  27.888   4.169
41918W        W14233   1.898   7.588   1.285
41919W        W14234  44.347  25.566  13.881
41920W        W14235  38.648  42.183   0.980
41921W        W14236   2.405   8.922   5.013
41922W        W14237  41.571  43.747  13.392
41923W        W14238  13.277   6.492   4.993
41924W        W14239  29.930  41.450   0.953
41925W        W14240   5.831   3.174   3.953
41926W        W14241  30.893  35.472  14.198
41927W        W14242  13.066  30.481   0.402
41928W        W14243  26.904  21.336   3.110
41929W        W14244  39.048   6.820   1.401
41930W        W14245  26.029  17.778  13.058
41931W        W14246  36.730  17.263  13.064
41932W        W14247  31.043   0.899   4.741
41933W        W14248  17.602  35.639  14.734
41934W        W14249  21.699  16.683   2.380
41935W        W14250  33.816  22.260   1.341
41936W        W14251  29.232  11.274   0.739
41937W        W14252  29.115   6.579   0.177
41938W        W14253  38.397   3.517   0.308
41939W        W14254  11.645  35.954   4.181
41940W        W14255  44.658  20.042   2.252
41941W        W14256  16.130   3.307   1.649
41942W        W14257   6.448  19.521   2.392
41943W        W14258  38.378  26.348  14.268
41944W        W14259  34.342  23.444   3.548
41945W        W14260  37.004   6.439   3.695
41946W        W14261  44.318  35.646   2.194
41947W        W14262  40.282  41.590  14.086
41948W        W14263  25.198  36.203   2.371
41949W        W14264  40.953  21.466  10.830
41950W        W14265  16.390  37.271  14.074
41951W        W14266  43.429  21.453   2.946
41952W        W14267   5.838   5.911   0.782
41953W        W14268  36.929  24.584  11.190
41954W        W14269  23.866  15.923  13.209
41955W        W14270   3.543  32.231  12.379
41956W        W14271   6.323  29.570   4.692
41957W        W14272  26.902  44.837  10.985
41958W        W14273  11.671  28.951   2.244
41959W        W14274  17.837  27.616   5.129
41960W        W14275  43.008  32.498   1.871
41961W        W14276  18.780  26.489   4.515
41962W        W14277   8.182   0.086   3.697
41963W        W14278  41.525   0.396  13.806
41964W        W14279   4.899  35.688   0.734
41965W        W14280   1.474  24.828   2.244
41966W        W14281  43.417  30.154   1.418
41967W        W14282  23.245  17.710  11.587
41968W        W14283  19.263   3.365  13.607
41969W        W14284  22.461  30.709  11.158
41970W        W14285  41.525  33.189  10.527
41971W        W14286  24.205   2.323   3.771
41972W        W14287  43.944  26.934  11.392
41973W        W14288  38.085  36.344   2.641
41974W        W14289  17.151   9.351   3.638
41975W        W14290  40.744   4.413   0.324
41976W        W14291  31.071  36.405   2.231
41977W        W14292  23.376  10.457  11.920
41978W        W14293  26.109  22.700  13.447
41979W        W14294  32.654  33.893  13.293
41980W        W14295  10.931  16.072  11.071
41981W        W14296   6.710   2.677   0.973
41982W        W14297   6.375   1.899   3.194
41983W        W14298  25.142  13.241   1.587
41984W        W14299  17.176  30.174   1.454
41985W        W14300  15.357  20.331  12.803
41986W        W14301  14.629  39.357   1.403
41987W        W14302  17.744  17.349  13.418
41988W        W14303  39.417  23.221  13.054
41989W        W14304  18.203  22.472  12.251
41990W        W14305   3.697  24.631  10.656
41991W        W14306  21.081  36.205   1.716
41992W        W14307  40.934  25.739   9.803
41993W        W14308  43.048  43.961   3.094
41994W        W14309  22.601  27.891   1.671
41995W        W14310  27.709   4.204  12.396
41996W        W14311  13.340  39.051   4.175
41997W        W14312  17.440  37.864   0.357
41998W        W14313  20.284  34.434   2.714
41999W        W14314  25.480  43.590  14.550
42000W        W14315  21.301  29.183   2.810
42001W        W14316  42.941  16.027   2.927
42002W        W14317  28.947  36.521   1.990
42003W        W14318  24.074  18.781   2.036
42004W        W14319   6.838   4.451   4.628
42005W        W14320   2.809  27.655   4.857
42006W        W14321   9.252  39.973   2.275
42007W        W14322  24.182  30.586   2.801
42008W        W14323  31.022  28.734  14.774
42009W        W14324  25.232  25.406  10.636
42010W        W14325  27.857  29.944  12.648
42011W        W14326   2.127  32.969   1.781
42012W        W14327  21.718  27.982   0.259
42013W        W14328  14.783  37.710   2.185
42014W        W14329  14.295  27.798  12.896
42015W        W14330   8.243  13.177   3.386
42016W        W14331   8.380  22.197   3.960
42017W        W14332  34.934  10.239   5.055
42018W        W14333  23.111  27.745   4.634
42019W        W14334  32.037  22.956  13.841
42020W        W14335  34.909   2.562   2.122
42021W        W14336  10.157  16.855   5.428
42022W        W14337  44.676  31.387  10.562
42023W        W14338  25.943  12.133  11.051
42024W        W14339  28.930  29.780  13.933
42025W        W14340  28.042  33.802   1.830
42026W        W14341  21.708  11.467  12.669
42027W        W14342  37.416  23.736   0.818
42028W        W14343   2.836  22.638   0.664
42029W        W14344  13.318  39.949   2.313
42030W        W14345  19.551  19.660  14.433
42031W        W14346  38.785  27.255   4.180
42032W        W14347  28.334  44.449  10.990
42033W        W14348  29.286   2.271  12.068
42034W        W14349  21.378  30.849  12.366
42035W        W14350  32.952   8.792   2.701
42036W        W14351   7.189  29.612   4.532
42037W        W14352  32.208  42.082  11.970
42038W        W14353  31.108  19.969   0.818
42039W        W14354   1.152   3.417  14.741
42040W        W14355  27.140  29.750   2.197
42041W        W14356   5.216   1.994  11.582
42042W        W14357  38.796  39.116  13.873
42043W        W14358  42.008   5.111   1.688
42044W        W14359   7.926  40.705   4.114
42045W        W14360  33.087   4.835  13.679
42046W        W14361  10.898  42.359  14.320
42047W        W14362   2.897  38.371   2.216
42048W        W14363   8.440  14.508  14.020
42049W        W14364  38.494  28.559   0.964
42050W        W14365  33.422   0.504  10.654
42051W        W14366  44.920  24.236   2.266
42052W        W14367  13.072  12.605  11.040
42053W        W14368  35.618  36.559   4.644
42054W        W14369  35.135  22.656  10.770
42055W        W14370  12.425  32.308   4.263
42056W        W14371  39.253  18.246   3.208
42057W        W14372  25.932  14.772  13.488
42058W        W14373  25.945  23.799  13.300
42059W        W14374   2.986   3.129  11.102
42060W        W14375  22.256  27.496  14.543
42061W        W14376  42.072   5.733   0.854
42062W        W14377  34.416  38.151   0.091
42063W        W14378  43.317   6.352   2.242
42064W        W14379   3.912  39.284  11.415
42065W        W14380  22.676  39.378  14.271
42066W        W14381   4.328  35.088  13.158
42067W        W14382  41.323   2.428  11.152
42068W        W14383  11.321  27.616   0.504
42069W        W14384  40.990  22.501  10.679
42070W        W14385  10.172  31.641   2.350
42071W        W14386  10.336  11.835   3.316
42072W        W14387  35.079   9.424  14.914
42073W        W14388   7.407  36.024   4.384
42074W        W14389  44.579  15.663  12.537
42075W        W14390  12.811  31.231  14.423
42076W        W14391  35.651  31.959   3.077
42077W        W14392  29.367  43.797  14.584
42078W        W14393  36.101  28.046   2.402
42079W        W14394  33.090  25.138  12.699
42080W        W14395  27.958   0.453   0.372
42081W        W14396   8.695  15.541  13.504
42082W        W14397  21.953  22.004  11.928
42083W        W14398  32.520  17.135  13.221
42084W        W14399  24.164  13.812  11.702
42085W        W14400  40.357  32.298   0.427
42086W        W14401  12.750  36.084   1.393
42087W        W14402  44.321  22.705  12.534
42088W        W14403  28.211   0.601  14.949
42089W        W14404  25.098   4.948   2.291
42090W        W14405  37.896  32.581  10.820
42091W        W14406  20.771   0.186  12.958
42092W        W14407  26.280  10.289  10.072
42093W        W14408   5.252   9.061  11.821
42094W        W14409  39.869  10.337  12.703
42095W        W14410  26.229  12.964  11.593
42096W        W14411  26.860  27.356  10.254
42097W        W14412   3.700  27.692   2.397
42098W        W14413  23.968   6.790   4.427
42099W        W14414  13.364   6.832  13.873
42100W        W14415  34.580   3.002  10.585
42101W        W14416  31.699  10.775  13.533
42102W        W14417  30.273  31.445   3.537
42103W        W14418  36.295   7.730  13.322
42104W        W14419  39.434   2.283   3.827
42105W        W14420  35.137   1.955  12.111
42106W        W14421  35.748  12.273   0.093
42107W        W14422  22.721  32.445   2.707
42108W        W14423  17.567  34.192  13.422
42109W        W14424  39.699   9.704   2.762
42110W        W14425  39.296  28.119  14.515
42111W        W14426  10.622  19.164  12.034
42112W        W14427  34.016  17.765   2.191
42113W        W14428  40.853  17.548  14.064
42114W        W14429  32.145  26.105  13.838
42115W        W14430  43.380  21.777   3.341
42116W        W14431  32.380  24.985   1.714
42117W        W14432   3.701   8.739   1.790
42118W        W14433  19.714  30.235  11.523
42119W        W14434   0.578  12.643   5.012
42120W        W14435  12.527  41.903  10.779
42121W        W14436   8.922  27.447   2.585
42122W        W14437   4.275  28.130  12.534
42123W        W14438  11.880  37.350  12.441
42124W        W14439  44.965  34.069  11.538
42125W        W14440  28.066  37.135   4.821
42126W        W14441  42.879  31.487   0.937
42127W        W14442  26.909  23.624   0.786
42128W        W14443   7.474  36.357   3.555
42129W        W14444  19.563  37.052  13.891
42130W        W14445  28.040   5.296   4.514
42131W        W14446   4.625  38.045   4.124
42132W        W14447   8.199  38.498   4.439
42133W        W14448  24.967  11.295  12.618
42134W        W14449  38.355  31.451   4.834
42135W        W14450  18.728  39.867  12.037
42136W        W14451  36.574   4.249  11.598
42137W        W14452  20.919  18.210   2.398
42138W        W14453  25.637  24.976   2.001
42139W        W14454  43.810  38.552  10.964
42140W        W14455  13.647  19.585  10.482
42141W        W14456  16.290  33.884  11.856
42142W        W14457  19.643   9.628   0.614
42143W        W14458   1.516  38.763  11.121
42144W        W14459  44.729  14.902   0.064
42145W        W14460  39.455  26.863   4.659
42146W        W14461  13.302  28.781   3.483
42147W        W14462   0.705  18.108  10.714
42148W        W14463  22.792  24.081  13.382
42149W        W14464  24.666  18.953  14.258
42150W        W14465  34.122  35.091  11.715
42151W        W14466  40.823  11.628   2.606
42152W        W14467  27.156  19.074  12.516
42153W        W14468  13.319  35.834  13.093
42154W        W14469  31.176  18.601  11.821
42155W        W14470  28.439   2.897  12.034
42156W        W14471  15.885  11.404  12.742
42157W        W14472   8.200  33.145   3.239
42158W        W14473  42.109  27.458  11.233
42159W        W14474  38.067   7.317   0.836
42160W        W14475  17.147  28.877   3.229
42161W        W14476  32.320  40.585  13.519
42162W        W14477  17.727  12.807  12.053
42163W        W14478   3.378  42.301  11.160
42164W        W14479  18.275  34.935   0.353
42165W        W14480  27.590  29.555  13.129
42166W        W14481  35.929  43.035   5.076
42167W        W14482   0.961  10.414   3.628
42168W        W14483  33.011  34.525   4.260
42169W        W14484  43.597   0.555   3.337
42170W        W14485  24.525  21.284   5.089
42171W        W14486   4.576  10.862   0.270
42172W        W14487   8.936  31.992   2.217
42173W        W14488  35.584  29.233   1.431
42174W        W14489   4.403  40.322  11.902
42175W        W14490  13.141  21.134   3.290
42176W        W14491  36.491  28.488  13.500
42177W        W14492  17.836  35.365  10.360
42178W        W14493  24.458  24.240  11.415
42179W        W14494   6.808   6.871  12.867
42180W        W14495  29.396   3.693   0.733
42181W        W14496  28.614   0.586   3.499
42182W        W14497  21.775  37.594   0.991
42183W        W14498  26.008  10.886  14.499
42184W        W14499  25.085  37.609  12.768
42185W        W14500  19.620  40.954   3.903
42186W        W14501   3.222   1.147   3.328
42187W        W14502  40.472  31.899   2.848
42188W        W14503  41.563  15.242  11.491
42189W        W14504   3.496  42.902   3.758
42190W        W14505   9.258  35.602  11.669
42191W        W14506  12.917  38.514  13.416
42192W        W14507   7.955  44.827   1.775
42193W        W14508  18.695  37.089   3.596
42194W        W14509  19.349  10.767  13.028
42195W        W14510  31.597  14.664  10.670
42196W        W14511   6.204  37.242   3.984
42197W        W14512  11.673   5.832   3.255
42198W        W14513   4.863  28.251   1.460
42199W        W14514  36.110   2.445   3.219
42200W        W14515   9.703  36.089  13.281
42201W        W14516   1.221   4.111   3.188
42202W        W14517  28.580   4.202   4.272
42203W        W14518   0.159  42.822   0.385
42204W        W14519  22.721   3.925   1.836
42205W        W14520  18.734  29.598  12.009
42206W        W14521  40.644   4.274  13.925
42207W        W14522  24.046  37.422  13.722
42208W        W14523  14.207  16.857   3.572
42209W        W14524  15.186   9.597  14.876
42210W        W14525   4.431  21.640  14.732
42211W        W14526  39.302  28.906   3.421
42212W        W14527   3.725  39.910  14.520
42213W        W14528  37.262   5.257  11.464
42214W        W14529  27.395  34.189  12.138
42215W        W14530  32.268  35.833   3.687
42216W        W14531  42.592  28.742  14.027
42217W        W14532   2.491   2.970  11.035
42218W        W14533  32.176  20.779  12.050
42219W        W14534   5.813   8.185   4.295
42220W        W14535  15.672   5.639   0.352
42221W        W14536  29.669  21.494   0.441
42222W        W14537  30.764  40.773  10.710
42223W        W14538  15.387  17.179  11.297
42224W        W14539   1.529  19.763  13.946
42225W        W14540   1.978  40.344   0.310
42226W        W14541  41.402   1.291   0.900
42227W        W14542  14.636   7.891  11.771
42228W        W14543  37.211  23.584  13.545
42229W        W14544   3.509   5.488  14.760
42230W        W14545  36.105   8.283  14.438
42231W        W14546   9.972  28.610  11.495
42232W        W14547  16.208   8.260   0.443
42233W        W14548   6.349  33.445  10.107
42234W        W14549  16.030  19.250  13.963
42235W        W14550  40.350   8.958  14.329
42236W        W14551   8.766  20.984   4.880
42237W        W14552  25.766  10.734  12.718
42238W        W14553  43.043  31.109   4.905
42239W        W14554  34.404  10.801   3.287
42240W        W14555  26.731  35.278  10.552
42241W        W14556  15.880  35.377   1.208
42242W        W14557  20.741   5.029   0.242
42243W        W14558  12.616  44.772   1.801
42244W        W14559  30.542  39.355  14.005
42245W        W14560  27.260  18.673  13.378
42246W        W14561   7.321   4.684   0.461
42247W        W14562  10.437  13.563  12.510
42248W        W14563  35.431   0.795   0.581
42249W        W14564  37.449  27.958   1.945
42250W        W14565  27.104  19.107   2.940
42251W        W14566  39.276  17.299  11.113
42252W        W14567  22.984  20.108  14.524
42253W        W14568  22.679  10.504   4.596
42254W        W14569  19.504  30.305   3.807
42255W        W14570  38.321  15.635  12.567
42256W        W14571  16.102  17.027  11.408
42257W        W14572  22.273  31.861   2.093
42258W        W14573   7.377  15.182  11.020
42259W        W14574  25.549   4.257   0.907
42260W        W14575   9.408  19.580  13.096
42261W        W14576  22.755  24.875  12.164
42262W        W14577  12.846  18.542  12.404
42263W        W14578  30.480  26.285  12.547
42264W        W14579  44.678  37.916   0.033
42265W        W14580  31.993  35.708  13.116
42266W        W14581   8.473  11.139   2.266
42267W        W14582  21.252  31.178   4.182
42268W        W14583  25.364  10.186  14.279
42269W        W14584   9.895  19.657   1.879
42270W        W14585   8.747  41.571   1.880
42271W        W14586  34.302  30.550   2.717
42272W        W14587  17.094   7.673   1.153
42273W        W14588  34.534  15.703  14.314
42274W        W14589  28.496  26.387   1.009
42275W        W14590  14.666  30.758   4.165
42276W        W14591  27.424  29.116  10.395
42277W        W14592  26.981  24.641  14.532
42278W        W14593  26.689  21.523  10.657
42279W        W14594  17.810  32.927  11.124
42280W        W14595  12.549  33.344  11.553
42281W        W14596  27.462  32.605   2.005
42282W        W14597  16.798  33.844  11.127
42283W        W14598   1.246  44.988   2.978
42284W        W14599   3.144  36.808   1.083
42285W        W14600  19.080  14.386  12.306
42286W        W14601  44.762  41.021  12.477
42287W        W14602  42.788  34.167   1.057
42288W        W14603  17.161  18.937   3.854
42289W        W14604  33.037  11.615  13.995
42290W        W14605  43.308  19.668  11.062
42291W        W14606  32.233  38.562  11.118
42292W        W14607  34.555   2.459  14.889
42293W        W14608  21.099  12.800  14.740
42294W        W14609  41.757  41.881  13.864
42295W        W14610  20.714   8.428   3.188
42296W        W14611  31.080  27.181  13.202
42297W        W14612  40.362  11.669   1.257
42298W        W14613  17.274  10.444   4.812
42299W        W14614  15.398  41.037   2.351
42300W        W14615   5.265  21.697   4.732
42301W        W14616   1.801   8.884  11.681
42302W        W14617  44.481   5.308   3.799
42303W        W14618  23.131  17.382  13.885
42304W        W14619  13.116  30.001   1.336
42305W        W14620   4.966  11.762   1.445
42306W        W14621  10.893  35.092  14.345
42307W        W14622  42.570  42.187  13.876
42308W        W14623  33.214  27.934   3.424
42309W        W14624  21.231  19.130  11.627
42310W        W14625  33.506  44.941  13.947
42311W        W14626  17.266   8.207   2.944
42312W        W14627  37.541   3.930  11.872
42313W        W14628   0.346   5.369   4.747
42314W        W14629  16.709  21.899  13.132
42315W        W14630  15.151  12.035   1.675
42316W        W14631  13.010  29.494  11.307
42317W        W14632  31.123  18.006  12.436
42318W        W14633  22.140  39.129  11.113
42319W        W14634  37.154  22.462   0.780
42320W        W14635  40.410  39.412   1.958
42321W        W14636  13.669   6.716  13.260
42322W        W14637   9.983   1.722  13.079
42323W        W14638  12.012   7.325   4.963
42324W        W14639  26.158  29.611   2.369
42325W        W14640   5.620  37.074   2.441
42326W        W14641  42.106  13.631  14.133
42327W        W14642  39.003  17.661   5.228
42328W        W14643   7.373  24.507   3.657
42329W        W14644  40.850  37.035   3.616
42330W        W14645  12.178  34.535   3.265
42331W        W14646  11.081  35.529   4.695
42332W        W14647   0.454   2.535   0.779
42333W        W14648  13.263  25.525   1.972
42334W        W14649  13.744   8.524   3.570
42335W        W14650  30.237  37.956  13.542
42336W        W14651  16.845  28.484  10.989
42337W        W14652  24.523   3.391   0.724
42338W        W14653  19.223  23.744   3.881
42339W        W14654  27.191  35.939   4.591
42340W        W14655  26.523  11.767  11.999
42341W        W14656  30.882  36.223   4.120
42342W        W14657  20.206   3.379   4.174
42343W        W14658  37.325  21.746  13.847
42344W        W14659  34.285  43.210  11.801
42345W        W14660   7.442   6.206  13.876
42346W        W14661  10.832  44.448   0.063
42347W        W14662  42.200  28.497   0.335
42348W        W14663   1.357  27.519   1.934
42349W        W14664   4.732  32.177   1.759
42350W        W14665  10.923  26.927  12.353
42351W        W14666  14.020  44.548   3.138
42352W        W14667  14.142  17.052  13.981
42353W        W14668   8.625  16.772  13.014
42354W        W14669   7.428  28.008   1.045
42355W        W14670   4.882  38.858  12.464
42356W        W14671   5.176  32.486  11.356
42357W        W14672  29.920  17.596   3.091
42358W        W14673  23.018  10.162   3.748
42359W        W14674  38.712  40.923   3.383
42360W        W14675  28.722   7.670  13.797
42361W        W14676   8.611  12.097  11.138
42362W        W14677  41.971   6.829  11.694
42363W        W14678  16.156  11.254   3.614
42364W        W14679  28.010  41.296  13.918
42365W        W14680  31.726  11.597   2.733
42366W        W14681  38.976  13.801  13.648
42367W        W14682  44.677  40.385  14.133
42368W        W14683  30.718  26.470   3.346
42369W        W14684   0.775  42.335  11.569
42370W        W14685  40.811  44.933  11.234
42371W        W14686  21.211   8.946   2.647
42372W        W14687  33.444   7.640  12.996
42373W        W14688  19.776  26.963   3.911
42374W        W14689  39.916  17.060  13.771
42375W        W14690  30.019  12.343  14.949
42376W        W14691  43.911  29.199  12.900
42377W        W14692  33.076  33.542   2.955
42378W        W14693  12.812  13.347   1.798
42379W        W14694   9.129  37.411  14.809
42380W        W14695  29.986  38.761   2.221
42381W        W14696  32.516  27.466  11.185
42382W        W14697  25.998   3.629   1.866
42383W        W14698   0.693  42.860  11.562
42384W        W14699  33.086   2.039  13.075
42385W        W14700  26.607   9.626   0.434
42386W        W14701  27.740  23.516   1.775
42387W        W14702   3.489  27.733  11.081
42388W        W14703  39.029  20.284  12.329
42389W        W14704  25.072  33.857   3.118
42390W        W14705  21.408   2.848   0.391
42391W        W14706   1.716  23.653   4.442
42392W        W14707   8.039  28.688   1.310
42393W        W14708  12.605  11.837  10.348
42394W        W14709  13.112  16.736  11.435
42395W        W14710  22.246  21.257   3.277
42396W        W14711  30.561  25.677  14.467
42397W        W14712  38.113  41.081  11.639
42398W        W14713  44.586  24.163   0.020
42399W        W14714  42.044  24.790   0.774
42400W        W14715  30.941   6.899   2.653
42401W        W14716  43.266  44.352  10.684
42402W        W14717  38.887  41.343  10.717
42403W        W14718  15.024  24.629   2.858
42404W        W14719  21.705  42.585   0.485
42405W        W14720  41.602  20.048  11.916
42406W        W14721  34.376  41.471   3.719
42407W        W14722  14.010   5.424   0.294
42408W        W14723  39.203  24.417   4.661
42409W        W14724  30.201  11.250   1.155
42410W        W14725  35.961  42.486  12.940
42411W        W14726  29.483  36.444   0.823
42412W        W14727  28.385  24.812   3.326
42413W        W14728  26.633  24.622   3.825
42414W        W14729  29.424   7.030   9.874
42415W        W14730  42.233  18.787  11.629
42416W        W14731  13.703  30.436   0.739
42417W        W14732  20.277  23.372   0.453
42418W        W14733  39.578  32.625   4.591
42419W        W14734  18.575  36.948   2.017
42420W        W14735  18.861  32.585  10.711
42421W        W14736  17.167  31.245  10.533
42422W        W14737  35.179   2.826  11.645
42423W        W14738  15.200  29.702   1.223
42424W        W14739  23.789  10.696  13.901
42425W        W14740  31.441  27.154   3.148
42426W        W14741  40.376   9.266   1.146
42427W        W14742  26.185  38.721  12.426
42428W        W14743  15.215  19.273  14.480
42429W        W14744  30.909  22.237   4.222
42430W        W14745   8.340  34.859   2.887
42431W        W14746  28.641  14.618   3.949
42432W        W14747  37.429  15.565  12.021
42433W        W14748  39.402  18.134   4.129
42434W        W14749  21.831  39.553  11.124
42435W        W14750  29.487  11.281   1.408
42436W        W14751  15.730  23.522  14.921
42437W        W14752  12.307   1.924  10.348
42438W        W14753   8.922   9.095  13.249
42439W        W14754   1.826  41.908   1.472
42440W        W14755   3.637  15.253  11.020
42441W        W14756  33.170   3.390   1.001
42442W        W14757   0.903  36.010  14.307
42443W        W14758  29.127   3.109   3.166
42444W        W14759  37.181  25.175   1.787
42445W        W14760  27.516   6.179   0.085
42446W        W14761  29.065  25.968  11.194
42447W        W14762  25.505  40.370   3.062
42448W        W14763  24.668  21.093   3.527
42449W        W14764  11.105  33.009  10.585
42450W        W14765  38.065  32.611   2.347
42451W        W14766  26.123  38.392  11.937
42452W        W14767  38.620   0.711  12.647
42453W        W14768  35.148   4.506  13.950
42454W        W14769  36.142   9.717   3.189
42455W        W14770  30.747  32.161   4.602
42456W        W14771  42.328  25.715  11.396
42457W        W14772  39.963  26.507   4.544
42458W        W14773   4.225  42.828   1.891
42459W        W14774  16.454  41.291   0.772
42460W        W14775  22.302  11.475  13.446
42461W        W14776   9.703  43.279  12.109
42462W        W14777  27.430  41.846   3.093
42463W        W14778  15.140   5.980   1.799
42464W        W14779   8.752  14.241   2.624
42465W        W14780  41.603  21.733  11.858
42466W        W14781  11.209  21.282   2.392
42467W        W14782  29.475  21.597  14.944
42468W        W14783  36.508  40.109  12.559
42469W        W14784   5.239  30.995   0.328
42470W        W14785   4.181   8.856  10.825
42471W        W14786  29.377  40.553  11.624
42472W        W14787  33.501   8.428  12.593
42473W        W14788  13.594   7.942   2.227
42474W        W14789   7.251  44.280  11.093
42475W        W14790  42.525  35.453   1.974
42476W        W14791  38.565   5.744   0.469
42477W        W14792   1.379   9.362   0.971
42478W        W14793  17.047  17.330   3.121
42479W        W14794   1.376  30.006   2.772
42480W        W14795  34.690  38.792   3.802
42481W        W14796   8.951  44.161  11.640
42482W        W14797  41.079  23.040  14.340
42483W        W14798  32.794  27.122  14.805
42484W        W14799  21.734  44.509  12.898
42485W        W14800  31.090  19.582  10.739
42486W        W14801  39.525   9.365  12.583
42487W        W14802  24.788  22.733   3.205
42488W        W14803  43.536  10.144   3.412
42489W        W14804  11.098  14.237  14.547
42490W        W14805   2.282   2.286  12.475
42491W        W14806  29.959  17.301  10.664
42492W        W14807  44.956  10.594  10.752
42493W        W14808  41.913  35.167  11.875
42494W        W14809  16.215   7.209   0.353
42495W        W14810  23.034  29.449  12.912
42496W        W14811  44.323  19.270  14.226
42497W        W14812  31.894   2.629   3.355
42498W        W14813  12.744  16.635   3.624
42499W        W14814  12.412  16.262  13.029
42500W        W14815  31.522  42.476   1.929
42501W        W14816  17.276  21.100   0.455
42502W        W14817  32.575  42.921  13.128
42503W        W14818  30.132   8.444  11.549
42504W        W14819  36.322  25.502   3.208
42505W        W14820  38.573  43.760  14.395
42506W        W14821  30.933  10.304  13.377
42507W        W14822  30.546   4.949   1.662
42508W        W14823  41.829   2.431  13.948
42509W        W14824  29.005  31.910  14.461
42510W        W14825   4.773   6.803  13.929
42511W        W14826  15.788  12.320   0.875
42512W        W14827  23.584  40.632  12.077
42513W        W14828  28.906  14.300  13.468
42514W        W14829  23.733  10.188   1.326
42515W        W14830  16.187   8.266   4.632
42516W        W14831  36.707   9.576   4.711
42517W        W14832  41.915   8.231  10.640
42518W        W14833   6.413  44.311   3.244
42519W        W14834  37.967  16.096  12.942
42520W        W14835   8.827  29.114  13.142
42521W        W14836  24.614  33.635  10.657
42522W        W14837   4.261  16.332  11.938
42523W        W14838   5.926  29.189   2.185
42524W        W14839  38.782  24.888  11.123
42525W        W14840   2.270   0.671  10.258
42526W        W14841  40.412  12.228   4.207
42527W        W14842  14.713  18.780  12.649
42528W        W14843  20.490   0.072   0.938
42529W        W14844   8.458  13.114  11.064
42530W        W14845  11.888   7.708  13.534
42531W        W14846  22.739  38.034  14.081
42532W        W14847  29.009  17.299   2.662
42533W        W14848  26.761   7.957   4.161
42534W        W14849  16.110  44.763   1.803
42535W        W14850  16.429  37.070   0.308
42536W        W14851  18.788   5.897  13.473
42537W        W14852  11.627  17.589  12.052
42538W        W14853   4.826  35.936   3.713
42539W        W14854  36.304  34.421  12.169
42540W        W14855  26.852  16.201  11.212
42541W        W14856   9.641   3.710  10.841
42542W        W14857  38.363  43.406   1.238
42543W        W14858  37.924  23.720   1.706
42544W        W14859   7.553   4.958  13.492
42545W        W14860  36.833  34.041   0.678
42546W        W14861  42.933  43.828   4.676
42547W        W14862   4.381  44.297  10.720
42548W        W14863   4.233  15.466   3.221
42549W        W14864  28.391  30.623   3.423
42550W        W14865  14.561  17.060  11.951
42551W        W14866   9.682  11.463  11.686
42552W        W14867  37.850  43.386  11.930
42553W        W14868  17.494   3.668   0.880
42554W        W14869   9.834  42.282   3.787
42555W        W14870  20.713   8.689   5.089
42556W        W14871  17.816  34.516  11.555
42557W        W14872   7.633  14.805  10.662
42558W        W14873   6.751  30.254  10.713
42559W        W14874  26.621  14.114   2.876
42560W        W14875  40.993  28.330  13.304
42561W        W14876  16.179  41.830   2.029
42562W        W14877  24.240  17.444   1.408
42563W        W14878   1.833  26.525  10.201
42564W        W14879  14.517  38.446   2.034
42565W        W14880   9.908  37.484   0.295
42566W        W14881  21.174   0.719  14.450
42567W        W14882  42.395  36.202  11.031
42568W        W14883   2.166  41.189  14.896
42569W        W14884   0.442  29.215   3.804
42570W        W14885  13.066  39.551  11.944
42571W        W14886  37.693  25.742  12.843
42572W        W14887  19.071  26.427   0.739
42573W        W14888  29.952  34.980   3.383
42574W        W14889  26.445   3.904  12.893
42575W        W14890  15.126   7.000   4.046
42576W        W14891   7.900  37.720  12.889
42577W        W14892  14.200  18.195  14.788
42578W        W14893  33.327  34.427  10.636
42579W        W14894  39.755   1.910  13.963
42580W        W14895  39.353  19.293   0.331
42581W        W14896  28.583  31.341   4.175
42582W        W14897  35.407   6.802   0.804
42583W        W14898  24.157  29.458  14.306
42584W        W14899  40.412  13.291   2.819
42585W        W14900   3.459  34.351  11.562
42586W        W14901  36.884  35.492   4.143
42587W        W14902  10.098  31.825  13.051
42588W        W14903  17.111  15.823  12.215
42589W        W14904   1.387   7.682  12.432
42590W        W14905  10.619  35.051  11.533
42591W        W14906  38.276   2.318  14.825
42592W        W14907   4.941   9.781   2.710
42593W        W14908  25.973  24.232  14.793
42594W        W14909  37.491  21.936   3.802
42595W        W14910  27.165  37.457   2.582
42596W        W14911   1.929   7.365   2.739
42597W        W14912  29.115  30.003   1.687
42598W        W14913   7.374   0.470   1.724
42599W        W14914   5.792  16.801  14.512
42600W        W14915  17.509  11.586   4.252
42601W        W14916  44.072   0.557  14.382
42602W        W14917  43.274   3.272   0.413
42603W        W14918  37.861   6.370   3.115
42604W        W14919  27.988   4.936  14.957
42605W        W14920  31.931   5.469  12.874
42606W        W14921   3.208   4.642   0.249
42607W        W14922  44.525  44.030   2.562
42608W        W14923  37.247  38.069   4.583
42609W        W14924  26.053  32.572  13.420
42610W        W14925  37.792   2.389   4.761
42611W        W14926  31.119  19.086  11.504
42612W        W14927  37.923  21.966   4.089
42613W        W14928  18.590   1.127  13.044
42614W        W14929  32.881  16.585  11.138
42615W        W14930  43.751  12.719  12.509
42616W        W14931  20.105  16.078  11.529
42617W        W14932   0.048  41.445  12.393
42618W        W14933  14.920  41.265   4.230
42619W        W14934  32.171  23.663   0.879
42620W        W14935  35.869  35.917   0.403
42621W        W14936   7.338   6.732   2.121
42622W        W14937  36.378  28.996  13.432
42623W        W14938  17.242  23.738  14.872
42624W        W14939  31.316  39.823  14.913
42625W        W14940  19.158   6.942   0.842
42626W        W14941  28.597  29.928   1.768
42627W        W14942  37.521   7.908   0.231
42628W        W14943   2.210   1.388  14.250
42629W        W14944   1.484  27.065  11.465
42630W        W14945   8.506   6.852  13.943
42631W        W14946  35.904  20.974   3.846
42632W        W14947   8.919  12.245   4.149
42633W        W14948   4.386  33.400  11.536
42634W        W14949  32.704  30.017   3.156
42635W        W14950  10.695   4.893   4.560
42636W        W14951  18.016  34.459   0.642
42637W        W14952  31.792  34.899  11.277
42638W        W14953   3.201   9.275   4.117
42639W        W14954  34.890  14.779  11.240
42640W        W14955   9.727   3.754  11.340
42641W        W14956   4.021   8.063   1.880
42642W        W14957  37.165  21.644   1.278
42643W        W14958  23.067  14.707   1.182
42644W        W14959  12.745  23.040   3.287
42645W        W14960  30.731  25.438  11.174
42646W        W14961  25.733  37.395  13.904
42647W        W14962  19.024  20.428  14.120
42648W        W14963  42.133  37.574  13.380
42649W        W14964   9.377  13.037   2.482
42650W        W14965  42.332  16.633   1.909
42651W        W14966   4.951   3.078  10.212
42652W        W14967   2.808  31.166  14.497
42653W        W14968  30.673   4.458   3.687
42654W        W14969  29.260  29.159  14.318
42655W        W14970  15.522  37.528   0.446
42656W        W14971  26.589   9.724   3.074
42657W        W14972   7.440   9.477  13.865
42658W        W14973  13.107  31.640  12.653
42659W        W14974  41.590  21.970  12.829
42660W        W14975  14.632  21.180   4.504
42661W        W14976  37.436  27.156   2.314
42662W        W14977  44.962   9.866   0.067
42663W        W14978  25.483  26.271   0.335
42664W        W14979  40.012  40.947   1.880
42665W        W14980  29.654  42.024   0.359
42666W        W14981  31.238  44.280  11.427
42667W        W14982  15.051  19.575   3.254
42668W        W14983  43.253  38.923   3.103
42669W        W14984   7.264  40.614  12.441
42670W        W14985  40.327   8.741   2.621
42671W        W14986  41.412  19.780   2.755
42672W        W14987  34.290  24.459   4.127
42673W        W14988  21.923   7.349  14.904
42674W        W14989   9.702  23.480   3.825
42675W        W14990  13.389  24.419   0.336
42676W        W14991   9.633  30.975  10.432
42677W        W14992  20.506  41.760   3.396
42678W        W14993  23.325  41.275   1.418
42679W        W14994  34.584   8.844  11.376
42680W        W14995  26.063  31.409  11.404
42681W        W14996  36.880   3.727  14.838
42682W        W14997  36.602  20.735   0.771
42683W        W14998   3.663  25.603  12.313
42684W        W14999  12.019  40.677  13.943
42685W        W15000  20.571  38.852   4.779
42686W        W15001   1.065  37.949   4.644
42687W        W15002  21.118  29.673   2.884
42688W        W15003  39.301  35.295  13.445
42689W        W15004   9.642  44.435  13.035
42690W        W15005  23.631  16.365  13.062
42691W        W15006  23.199  27.473   2.190
42692W        W15007  31.043   3.978   0.730
42693W        W15008  24.467  20.643   3.226
42694W        W15009  36.638  42.739   2.400
42695W        W15010   0.386   0.969   1.314
42696W        W15011   5.038   4.699  11.156
42697W        W15012  21.176  30.554  14.556
42698W        W15013   9.706  22.659  14.172
42699W        W15014  28.631  24.139   2.733
42700W        W15015  27.552  42.556  13.389
42701W        W15016  28.028  19.556  14.854
42702W        W15017  12.544  22.118  12.488
42703W        W15018  28.242  17.190   1.406
42704W        W15019  13.804  40.151  12.784
42705W        W15020  24.969  30.000  11.507
42706W        W15021   7.666  26.792   2.712
42707W        W15022  37.588  25.029  12.471
42708W        W15023   7.510  22.592   4.890
42709W        W15024  33.250  15.191  12.918
42710W        W15025  16.405  21.761   1.789
42711W        W15026   2.377   0.401  12.115
42712W        W15027  37.836  25.478   4.694
42713W        W15028  29.863  33.913  14.803
42714W        W15029  18.893   4.402   0.839
42715W        W15030  10.299   6.043   1.290
42716W        W15031  30.088  22.253  11.961
42717W        W15032  37.604   0.298  14.954
42718W        W15033  11.164  35.644   0.784
42719W        W15034  28.467  31.505   2.332
42720W        W15035  15.660  22.143  12.357
42721W        W15036   7.387  20.776   2.547
42722W        W15037  25.946  36.522   3.367
42723W        W15038  19.928  38.470  12.387
42724W        W15039   7.867  15.318  11.912
42725W        W15040  10.671  23.318   0.849
42726W        W15041  35.862  30.101  14.331
42727W        W15042  31.824  43.440  14.048
42728W        W15043  15.033  34.027   1.351
42729W        W15044  44.825  11.495  13.345
42730W        W15045  18.234  29.470  12.072
42731W        W15046   7.040  14.255   2.841
42732W        W15047  30.889  29.266  13.535
42733W        W15048  25.652  34.899   0.875
42734W        W15049  29.527  39.654  14.499
42735W        W15050  16.613   8.908   1.469
42736W        W15051  29.666  36.950  10.595
42737W        W15052  44.328   3.982   0.832
42738W        W15053   9.683   1.273  11.543
42739W        W15054  10.372  12.658  10.726
42740W        W15055  36.488  23.979  11.535
42741W        W15056  13.814   9.004   3.705
42742W        W15057  29.345  15.660  10.689
42743W        W15058  44.855  26.958  12.324
42744W        W15059  23.622  39.599  11.997
42745W        W15060  36.192  36.092   3.384
42746W        W15061  22.803   9.689   2.306
42747W        W15062   9.663  28.121  11.424
42748W        W15063   4.319  28.547   2.194
42749W        W15064  14.794  41.799   4.171
42750W        W15065  31.506  40.651   1.605
42751W        W15066  14.674  36.157   0.268
42752W        W15067  19.993  18.605   4.130
42753W        W15068  10.851  13.821  12.976
42754W        W15069  26.390  29.450  14.988
42755W        W15070   6.245  36.514   4.074
42756W        W15071  12.365   4.694   0.993
42757W        W15072  20.379  28.732  14.033
42758W        W15073  11.316  20.757   0.415
42759W        W15074  40.105  44.248   4.823
42760W        W15075  31.369  25.134   0.433
42761W        W15076  36.552  11.247   0.051
42762W        W15077  26.692  16.413  10.777
42763W        W15078  33.464  44.009   2.878
42764W        W15079  18.500  42.563   3.641
42765W        W15080  15.731  17.036   2.661
42766W        W15081  37.112   6.216   2.357
42767W        W15082  40.349  10.667   4.481
42768W        W15083   5.659   2.362  13.470
42769W        W15084   0.822  11.119   3.221
42770W        W15085  16.153  11.755   0.802
42771W        W15086  19.299  29.715   1.827
42772W        W15087  36.860  18.222   1.986
42773W        W15088  23.632  35.487  14.301
42774W        W15089  39.878  29.664  11.188
42775W        W15090  17.633   2.207   0.813
42776W        W15091   3.248   8.291   1.415
42777W        W15092  12.902  26.505   0.904
42778W        W15093  30.035  35.007  13.895
42779W        W15094  29.107  19.706  12.181
42780W        W15095  35.105  14.181  11.981
42781W        W15096  17.124  14.280  14.906
42782W        W15097  14.380  11.306  12.074
42783W        W15098  28.941  37.515   2.839
42784W        W15099  34.577  25.761  12.224
42785W        W15100  39.257   7.209  13.408
42786W        W15101   3.986   1.795   1.327
42787W        W15102  33.309  24.795   2.867
42788W        W15103  34.404  18.551  14.879
42789W        W15104  40.387  31.781   0.363
42790W        W15105   1.740  28.990  10.800
42791W        W15106   0.227  36.586   2.881
42792W        W15107  35.088   3.468   1.009
42793W        W15108  21.915  17.136  12.445
42794W        W15109   8.129  39.108  12.057
42795W        W15110  38.630   4.938  13.484
42796W        W15111   0.787   5.080  10.616
42797W        W15112   7.694  31.993  13.868
42798W        W15113  18.791  31.507   2.601
42799W        W15114  34.855  36.110  10.668
42800W        W15115  27.815  14.885  12.911
42801W        W15116   3.720   6.281   3.556
42802W        W15117  37.880  35.844   1.333
42803W        W15118  36.085  32.604   3.662
42804W        W15119   4.304   7.346   0.905
42805W        W15120   6.292  39.811  10.696
42806W        W15121  42.948   1.978  11.534
42807W        W15122   1.505   5.751   0.163
42808W        W15123  41.053  16.765   2.303
42809W        W15124  18.639  24.785   5.186
42810W        W15125  13.817  27.422   3.282
42811W        W15126  37.073  12.108  10.705
42812W        W15127   3.381  27.547   0.091
42813W        W15128  28.806   1.959  14.550
42814W        W15129  30.054  17.525  13.376
42815W        W15130  31.366  37.176   0.800
42816W        W15131  37.832  41.591  13.024
42817W        W15132  37.032  18.691  13.738
42818W        W15133  13.219   8.719   1.461
42819W        W15134  12.681   4.362   3.724
42820W        W15135   4.764   9.294   2.654
42821W        W15136  39.410  14.620  14.939
42822W        W15137  12.564  15.652   2.298
42823W        W15138  28.217  30.049  11.627
42824W        W15139  15.072  17.500   1.387
42825W        W15140  28.849  38.405  11.623
42826W        W15141  12.659  27.493  14.928
42827W        W15142  36.497  37.027   5.000
42828W        W15143  22.091  28.143  14.071
42829W        W15144  41.432  32.933  12.843
42830W        W15145   3.000  29.934   3.225
42831W        W15146  35.783  34.892   4.138
42832W        W15147   9.305   8.405  11.159
42833W        W15148  15.383  12.712   0.165
42834W        W15149  10.225  14.732   2.166
42835W        W15150  38.422  29.420  13.259
42836W        W15151  35.133  35.289   1.771
42837W        W15152  33.450  30.039  12.957
42838W        W15153  35.500  22.274  12.902
42839W        W15154  38.493  12.206   4.187
42840W        W15155  11.085   1.713   0.320
42841W        W15156  40.849  13.254   3.147
42842W        W15157  36.949  10.145  14.108
42843W        W15158  25.475  20.597   3.573
42844W        W15159  37.641  18.634  10.952
42845W        W15160  10.699  25.177   2.147
42846W        W15161   1.232  43.000  10.724
42847W        W15162  15.545  41.938  13.888
42848W        W15163  29.287  21.861  12.461
42849W        W15164  35.794  17.919  14.820
42850W        W15165   5.425  35.182   0.362
42851W        W15166  16.003  42.824   4.739
42852W        W15167  44.381  34.192  12.849
42853W        W15168  21.383  28.422   0.954
42854W        W15169   4.890  15.122  14.934
42855W        W15170  27.690  35.986  14.354
42856W        W15171  25.424  16.176  13.990
42857W        W15172  12.620  44.448  13.109
42858W        W15173   0.850  31.031  11.228
42859W        W15174  36.877   6.320   0.511
42860W        W15175  18.572  28.587  10.329
42861W        W15176  39.289  19.468   4.467
42862W        W15177  10.652  24.942  12.538
42863W        W15178   5.149  12.235  14.038
42864W        W15179  38.489  11.287   2.771
42865W        W15180  26.173  35.470   1.522
42866W        W15181  13.851  18.503  11.559
42867W        W15182  43.778   9.724   0.499
42868W        W15183  29.216   0.213  11.579
42869W        W15184  22.713  14.842   1.746
42870W        W15185  17.395  24.683   2.444
42871W        W15186  25.515   4.785   0.108
42872W        W15187   8.329  37.877  12.156
42873W        W15188  31.606  22.546  14.356
42874W        W15189  27.080  44.520  14.409
42875W        W15190  21.257  35.020  14.772
42876W        W15191  33.483   3.774  13.254
42877W        W15192   1.155  19.629  10.789
42878W        W15193  39.427  38.579   1.399
42879W        W15194  34.845  44.696   1.182
42880W        W15195  38.694   0.891   2.599
42881W        W15196  13.444  10.622   1.677
42882W        W15197  20.750  40.516  10.487
42883W        W15198  36.838  14.305   1.190
42884W        W15199  21.200  22.985  12.013
42885W        W15200  22.767  19.075  11.593
42886W        W15201  32.059  19.218  11.167
42887W        W15202  37.537  19.824   2.855
42888W        W15203  33.532  15.556   3.690
42889W        W15204  28.672  36.895   2.202
42890W        W15205  15.072  20.836   0.638
42891W        W15206   7.165  25.278  12.945
42892W        W15207  42.451   5.727  12.390
42893W        W15208   0.286  38.323   4.544
42894W        W15209  44.776   7.870   3.594
42895W        W15210  29.390   2.178  12.958
42896W        W15211   9.428  11.299   4.264
42897W        W15212  21.804  18.665   2.347
42898W        W15213   4.858  37.729  11.531
42899W        W15214  40.744  43.728  13.925
42900W        W15215  28.532  19.055   0.232
42901W        W15216  14.000   4.722   3.777
42902W        W15217  30.502   2.122  14.156
42903W        W15218  26.273  43.589   3.187
42904W        W15219  25.731  14.161   3.220
42905W        W15220  36.081  14.027  11.873
42906W        W15221  16.082  21.473  10.793
42907W        W15222  34.029  44.721   1.880
42908W        W15223  18.010  41.510  14.274
42909W        W15224   4.332  26.933  14.422
42910W        W15225   2.199  16.778   1.686
42911W        W15226  27.919  15.238  13.896
42912W        W15227  25.718  19.097   4.567
42913W        W15228  29.892  20.092  10.939
42914W        W15229  37.862  18.215  14.767
42915W        W15230  41.508   5.174   1.874
42916W        W15231  15.893   3.342  13.984
42917W        W15232  35.225  32.166   1.270
42918W        W15233  20.605  15.787   1.020
42919W        W15234  37.157  44.203  11.378
42920W        W15235  13.062   0.811   2.028
42921W        W15236  31.501  15.804  14.477
42922W        W15237  26.657  25.732  13.841
42923W        W15238  15.754  16.708   2.171
42924W        W15239  18.663  22.575  12.514
42925W        W15240   2.947  37.040   1.965
42926W        W15241   5.156  11.794  11.501
42927W        W15242  18.695   8.378   3.312
42928W        W15243  32.450  22.295  12.582
42929W        W15244  34.377   7.338  14.811
42930W        W15245  30.012  16.060  12.123
42931W        W15246  11.837   9.442  11.155
42932W        W15247  30.165  12.859   2.936
42933W        W15248  22.036  21.453   3.723
42934W        W15249  12.669   4.830   2.822
42935W        W15250   8.776  32.331  12.541
42936W        W15251  10.526  32.898  11.552
42937W        W15252  31.630   4.624   4.139
42938W        W15253  36.826   6.399   1.517
42939W        W15254   4.503  22.573   3.251
42940W        W15255  21.260  31.152  10.696
42941W        W15256  36.096   2.500   1.312
42942W        W15257  15.979  42.394   3.708
42943W        W15258  15.573  37.927   1.297
42944W        W15259   6.385  26.692   1.395
42945W        W15260  40.779   0.292  12.843
42946W        W15261   3.680  18.165  10.774
42947W        W15262  37.636   8.860   1.490
42948W        W15263  31.131  44.784   1.470
42949W        W15264  44.462  36.525   0.954
42950W        W15265  15.999   4.270   0.254
42951W        W15266   1.297   3.676   3.480
42952W        W15267  10.766   8.829  14.750
42953W        W15268  12.692  33.306   0.290
42954W        W15269   7.801  42.054  10.774
42955W        W15270  42.826  30.468   0.410
42956W        W15271  34.637  24.518   3.700
42957W        W15272  42.362  44.538  13.407
42958W        W15273   3.338   2.699   2.153
42959W        W15274  27.474  23.033   2.772
42960W        W15275  40.292  43.966  13.884
42961W        W15276  34.701   0.832   3.085
42962W        W15277  20.175  24.244  10.522
42963W        W15278  18.625  13.069  12.591
42964W        W15279   3.382  26.927  12.569
42965W        W15280  19.271   9.920   3.665
42966W        W15281  13.866  31.949   1.872
42967W        W15282  42.181  23.066   0.476
42968W        W15283  25.713   3.872  11.546
42969W        W15284  34.284  11.707  13.423
42970W        W15285  38.026  30.535   3.176
42971W        W15286  26.629  33.586  10.177
42972W        W15287  44.850   2.679   1.559
42973W        W15288  26.966  30.823  13.007
42974W        W15289  18.065  33.195   4.201
42975W        W15290  27.025  29.683   3.083
42976W        W15291   1.628  38.847   2.901
42977W        W15292   2.519  34.525   3.056
42978W        W15293  10.494  14.352   5.008
42979W        W15294   9.749  19.789   4.184
42980W        W15295  35.609  25.993  14.806
42981W        W15296  16.187   5.706   0.367
42982W        W15297   2.211  31.741   1.369
42983W        W15298  38.592  37.818  12.375
42984W        W15299  31.852  30.864   0.777
42985W        W15300  32.632   6.819  10.588
42986W        W15301  28.452  32.186  10.686
42987W        W15302  21.044  22.895  11.513
42988W        W15303  36.420   7.402   3.254
42989W        W15304  25.698  17.607  14.808
42990W        W15305   6.830  10.225   3.773
42991W        W15306  13.232  43.247   1.256
42992W        W15307  33.439  40.984   3.325
42993W        W15308  24.295  12.755   1.452
42994W        W15309  13.851  21.794  14.277
42995W        W15310  21.112  11.123  10.046
42996W        W15311   2.024  28.677   4.066
42997W        W15312   3.908  11.432   0.409
42998W        W15313   2.363  24.593   2.415
42999W        W15314  40.379  24.907  10.664
43000W        W15315  18.687  35.602  13.122
43001W        W15316   7.382  42.533  12.973
43002W        W15317  18.133   4.265   2.118
43003W        W15318  37.571  38.492   1.827
43004W        W15319  34.836  22.583   3.275
43005W        W15320  35.741  41.486  11.605
43006W        W15321  20.512  18.097   1.981
43007W        W15322  31.499  37.445  13.462
43008W        W15323  38.927   4.925  14.990
43009W        W15324  27.532  42.598   1.725
43010W        W15325  42.756  36.121   2.581
43011W        W15326  13.756  30.897  13.163
43012W        W15327   9.216  17.783   3.850
43013W        W15328  38.675  35.564  12.892
43014W        W15329  23.455   7.219   2.732
43015W        W15330  16.544  11.013  12.526
43016W        W15331   9.662  14.100  13.456
43017W        W15332  44.672   9.228   1.534
43018W        W15333  12.386  25.796   0.736
43019W        W15334   5.988  42.755  13.905
43020W        W15335  39.533  32.411  13.035
43021W        W15336  44.845  39.087   4.669
43022W        W15337  13.018   9.879   1.472
43023W        W15338  31.346   4.809   1.003
43024W        W15339  32.826   5.469   0.843
43025W        W15340  35.766  35.698  13.564
43026W        W15341  25.687  22.215   0.917
43027W        W15342  14.616  19.902  14.361
43028W        W15343  39.515  34.461  14.586
43029W        W15344  43.353  26.485  13.900
43030W        W15345  17.097   1.766   2.321
43031W        W15346  14.732  32.948  13.926
43032W        W15347  11.316  16.588  14.873
43033W        W15348  18.089  43.849   0.984
43034W        W15349  17.596   1.182  12.046
43035W        W15350   6.510  27.543   1.797
43036W        W15351  38.772  27.414  11.506
43037W        W15352  30.394  16.522  13.407
43038W        W15353   4.842  40.278   2.604
43039W        W15354  31.645  35.062  14.372
43040W        W15355  33.782  43.646  12.519
43041W        W15356  44.466  17.366  10.608
43042W        W15357  38.368  37.354   0.140
43043W        W15358  44.355   7.381   3.695
43044W        W15359  17.305  33.419   4.754
43045W        W15360  30.404  35.405   2.269
43046W        W15361  39.121  39.507  13.847
43047W        W15362  23.483  10.196  10.595
43048W        W15363   8.224  12.798   2.405
43049W        W15364   5.293   4.834   1.383
43050W        W15365  19.970  41.279   4.128
43051W        W15366  19.626  41.425  11.420
43052W        W15367  19.808  21.666  11.212
43053W        W15368  28.665  16.578   3.650
43054W        W15369  18.553  43.473  12.021
43055W        W15370  25.867  27.258  13.935
43056W        W15371  42.271  30.455   3.698
43057W        W15372  42.303  20.278   3.098
43058W        W15373  33.574  30.795  13.474
43059W        W15374  39.451  23.088  13.691
43060W        W15375  44.387  22.290   1.754
43061W        W15376   5.650   5.412   1.821
43062W        W15377  34.877  25.704   1.412
43063W        W15378  39.496  15.451   3.919
43064W        W15379  11.341  31.100  13.780
43065W        W15380  34.679   4.178   4.640
43066W        W15381   9.982  29.696  13.928
43067W        W15382  22.258   0.471   2.664
43068W        W15383  28.113  34.369  10.494
43069W        W15384  41.107   9.169  14.787
43070W        W15385  35.437  16.701  13.012
43071W        W15386   3.067  11.381  12.116
43072W        W15387   1.267  34.102   0.515
43073W        W15388  21.642  26.784  14.132
43074W        W15389  43.377  26.457  12.854
43075W        W15390  12.686   2.898  12.539
43076W        W15391  22.287  44.295   1.645
43077W        W15392  33.447  38.479   4.704
43078W        W15393  44.345   2.780   0.054
43079W        W15394  15.927  23.748   4.177
43080W        W15395  16.831  17.527   1.866
43081W        W15396  18.237  10.425  14.002
43082W        W15397  42.570  23.404   4.121
43083W        W15398   3.680  26.154   1.274
43084W        W15399  20.151  26.869   3.220
43085W        W15400  30.739   7.831  14.995
43086W        W15401  40.483  40.384   0.348
43087W        W15402  44.889   2.045   1.789
43088W        W15403  28.683  13.380  11.949
43089W        W15404   9.901  16.213  11.108
43090W        W15405   8.416  32.381  11.048
43091W        W15406  38.692  12.846   2.262
43092W        W15407   1.362  41.492  14.754
43093W        W15408  30.040  40.089   2.828
43094W        W15409  35.547  35.053   4.708
43095W        W15410  30.169   4.195  12.904
43096W        W15411  23.871  36.413  14.819
43097W        W15412  41.427  19.602   3.627
43098W        W15413  11.333   6.837   0.741
43099W        W15414  22.008  19.404   4.531
43100W        W15415  40.476   9.907   0.168
43101W        W15416  38.881  18.029   3.898
43102W        W15417  41.333  16.059  12.064
43103W        W15418  15.270  10.350  14.419
43104W        W15419  19.239  19.864   2.693
43105W        W15420   6.604  43.913  11.344
43106W        W15421  11.550  30.623   0.258
43107W        W15422  21.006  31.408  14.336
43108W        W15423  43.739   9.174  11.942
43109W        W15424  40.263   8.271  13.924
43110W        W15425  39.391  12.782   1.530
43111W        W15426   5.000  27.303   4.555
43112W        W15427   9.888   3.231   1.664
43113W        W15428  32.520  30.222   3.607
43114W        W15429  19.160  27.884  14.812
43115W        W15430   5.220  11.048   3.158
43116W        W15431   4.389  36.605   4.198
43117W        W15432  33.696  12.489   0.816
43118W        W15433  33.986  41.244  13.073
43119W        W15434  42.197  39.426  13.307
43120W        W15435  39.343  36.137   2.975
43121W        W15436  17.230  12.708  11.563
43122W        W15437  20.147  12.787   2.139
43123W        W15438   0.353   5.049  10.933
43124W        W15439  42.060  43.876  10.403
43125W        W15440  21.964  26.217  14.784
43126W        W15441   0.297  41.532   0.939
43127W        W15442  41.779  21.064   4.915
43128W        W15443  13.112  23.189   4.022
43129W        W15444  23.145  40.105   4.444
43130W        W15445  32.475  42.115   2.777
43131W        W15446  19.721   5.139   3.812
43132W        W15447  43.526  12.170   2.816
43133W        W15448   4.747  35.774  12.158
43134W        W15449  13.853  29.033   1.730
43135W        W15450  29.805   9.957   1.275
43136W        W15451  11.126  29.590   1.566
43137W        W15452  33.237   7.643  11.106
43138W        W15453  40.500  19.750   0.529
43139W        W15454   4.681  26.050   0.372
43140W        W15455  29.006   8.672   1.259
43141W        W15456  40.181  31.086  13.914
43142W        W15457  27.098   5.728   9.757
43143W        W15458  39.953  43.300   3.210
43144W        W15459  23.075  31.786   3.198
43145W        W15460   7.049   2.447  11.267
43146W        W15461  32.993  18.180   4.792
43147W        W15462  10.133  19.115  10.261
43148W        W15463  30.577  18.151   1.414
43149W        W15464  28.052  40.794  11.652
43150W        W15465  29.213  26.175   3.083
43151W        W15466  10.673  33.238  13.407
43152W        W15467  10.209  39.947  10.082
43153W        W15468  39.346  21.018   1.762
43154W        W15469  12.922  17.008  14.192
43155W        W15470  30.596  37.534   2.385
43156W        W15471  10.318  17.181  14.121
43157W        W15472  41.620  22.313  11.616
43158W        W15473  24.589  16.043  11.656
43159W        W15474  15.738   5.793  14.453
43160W        W15475  28.252  23.008  14.158
43161W        W15476   2.545  11.691   2.238
43162W        W15477   9.216  41.355  11.131
43163W        W15478  37.085   2.263  14.347
43164W        W15479  44.562   4.950   4.589
43165W        W15480  38.334  33.041   1.242
43166W        W15481  32.165  28.162  12.594
43167W        W15482  35.122  14.762  14.307
43168W        W15483  38.800  14.834  14.428
43169W        W15484   5.970  43.568   0.189
43170W        W15485  33.678   1.780   2.853
43171W        W15486  44.722  27.741  13.090
43172W        W15487  33.316  36.864  12.392
43173W        W15488  21.602   4.180  11.545
43174W        W15489   2.740  23.179   1.332
43175W        W15490   0.660  28.002   4.151
43176W        W15491   3.743  23.652   1.697
43177W        W15492   0.495   1.818  14.315
43178W        W15493  21.689   1.947   4.530
43179W        W15494  41.330   6.829   1.286
43180W        W15495  15.531  21.231  12.899
43181W        W15496  23.722  44.578   2.756
43182W        W15497  10.458   0.829   1.818
43183W        W15498  31.609  40.986   4.691
43184W        W15499  24.183  30.319  14.846
43185W        W15500  44.174  23.435  14.452
43186W        W15501  15.675  25.244   3.450
43187W        W15502  36.288  11.799  11.640
43188W        W15503  14.285  25.625  13.481
43189W        W15504   4.161  18.772  13.032
43190W        W15505  35.869  39.729  14.823
43191W        W15506  21.884  14.672   3.368
43192W        W15507  29.747   2.489  12.034
43193W        W15508  33.469  28.908   2.366
43194W        W15509  38.726   3.700   1.953
43195W        W15510  43.981   0.416  14.890
43196W        W15511   3.924  14.267   3.985
43197W        W15512  20.613  24.549   1.911
43198W        W15513  27.261  19.679  13.408
43199W        W15514  24.641  37.550  11.518
43200W        W15515  26.155  29.467  12.580
43201W        W15516  26.983   8.937  13.643
43202W        W15517  19.849   4.150   3.599
43203W        W15518  22.592  19.590  10.477
43204W        W15519   7.876  33.614  12.843
43205W        W15520  18.166   7.997  12.420
43206W        W15521  23.257  34.081   2.657
43207W        W15522   8.651  30.939  14.346
43208W        W15523  28.533  34.331  13.991
43209W        W15524  37.763   1.347  11.468
43210W        W15525  36.537  43.990  14.256
43211W        W15526  36.179  44.699  12.063
43212W        W15527   8.903  13.283  12.948
43213W        W15528  23.405  11.925   0.814
43214W        W15529  16.191  39.690   4.023
43215W        W15530  29.692  20.924   3.781
43216W        W15531  30.163  40.131  12.921
43217W        W15532  38.888  26.861   9.810
43218W        W15533  20.219  24.248   2.644
43219W        W15534  33.972  41.316   0.322
43220W        W15535  39.206  31.159   2.767
43221W        W15536  42.748  30.516   1.794
43222W        W15537  27.070   9.961  10.883
43223W        W15538  20.572   8.620  11.089
43224W        W15539  38.540   3.172  12.970
43225W        W15540  39.012  14.358  10.767
43226W        W15541  27.597   3.078   4.769
43227W        W15542  26.189   1.759  13.088
43228W        W15543  39.473  37.539   4.015
43229W        W15544  20.762  21.855  10.931
43230W        W15545  17.021  20.960  12.118
43231W        W15546   9.276  16.143  10.949
43232W        W15547  38.313  40.493   2.333
43233W        W15548  16.177  30.372   3.221
43234W        W15549  11.765  38.961   1.968
43235W        W15550  25.029  18.858  11.598
43236W        W15551  34.431  36.227  14.798
43237W        W15552  14.755  19.982  13.363
43238W        W15553  21.653  23.284   3.711
43239W        W15554  19.080  42.034  14.433
43240W        W15555  19.555   1.437   2.849
43241W        W15556  21.637   0.839  13.141
43242W        W15557  10.741  20.436   0.543
43243W        W15558   0.515   6.968  11.586
43244W        W15559  40.543   9.756   1.182
43245W        W15560  23.150  24.443  14.309
43246W        W15561  41.745  19.967   1.329
43247W        W15562  38.621  25.624   0.431
43248W        W15563  37.471   9.387  12.592
43249W        W15564  42.920  10.947  10.022
43250W        W15565  29.741  23.744   4.486
43251W        W15566  35.681   1.312   3.799
43252W        W15567  31.854  39.858  12.638
43253W        W15568   9.457  28.572  11.621
43254W        W15569  33.119  12.621  14.771
43255W        W15570   6.293  33.979   4.108
43256W        W15571  18.109  26.156   3.700
43257W        W15572  38.338  35.926   4.751
43258W        W15573  24.854  17.877   2.869
43259W        W15574  36.517  15.627   3.164
43260W        W15575  15.060  31.164   4.180
43261W        W15576  28.995   2.248   3.159
43262W        W15577  30.428  25.200   1.893
43263W        W15578  16.604  17.750   4.516
43264W        W15579  10.977  21.363   3.704
43265W        W15580  10.270   4.910   4.266
43266W        W15581   0.910  27.510  10.944
43267W        W15582   3.150  38.586  12.843
43268W        W15583   2.886  38.466  11.404
43269W        W15584  14.102   3.478   2.630
43270W        W15585  15.639  32.323  14.901
43271W        W15586  37.965  12.764   4.637
43272W        W15587   5.945   9.823  11.642
43273W        W15588  37.480  24.740  10.490
43274W        W15589   7.322  44.729  11.912
43275W        W15590  14.914  19.128  12.964
43276W        W15591  23.293  25.271  13.865
43277W        W15592   2.505   7.744   0.818
43278W        W15593  21.183  10.874  14.963
43279W        W15594  24.089   4.707  14.049
43280W        W15595  37.930   4.291   2.240
43281W        W15596  41.660  10.208   3.302
43282W        W15597  42.330  14.096   1.320
43283W        W15598   8.688   8.631   0.845
43284W        W15599  22.250  25.786  12.400
43285W        W15600  25.645  11.286  12.018
43286W        W15601  38.022  21.148   0.488
43287W        W15602   6.479  18.102   0.293
43288W        W15603   1.857  21.569  12.026
43289W        W15604  28.656  37.853  12.144
43290W        W15605  32.663   7.294   4.097
43291W        W15606  33.039  28.715   3.664
43292W        W15607  41.069  15.630   2.315
43293W        W15608  13.214  21.596   2.317
43294W        W15609  35.929  28.506   4.100
43295W        W15610  40.445  42.302  11.506
43296W        W15611  13.099  27.610   4.653
43297W        W15612  30.042  12.337  10.580
43298W        W15613   7.674  15.838   0.781
43299W        W15614  25.318  16.787  11.171
43300W        W15615  40.407  31.108  12.522
43301W        W15616  22.145  20.567   2.625
43302W        W15617  34.898  19.995  11.519
43303W        W15618  27.761   1.605   1.787
43304W        W15619   1.595  42.352   4.341
43305W        W15620  12.688  13.081   3.262
43306W        W15621  21.601  15.847   5.066
43307W        W15622  14.055  23.025   4.036
43308W        W15623   9.769   4.202   1.241
43309W        W15624  44.397  30.147  10.761
43310W        W15625  43.405   4.486  13.443
43311W        W15626  14.864  18.055   4.596
43312W        W15627  29.645   1.211   2.259
43313W        W15628   1.708  39.526  13.133
43314W        W15629  20.880  12.573  11.416
43315W        W15630   6.705  14.230   0.255
43316W        W15631  26.640  29.037   3.311
43317W        W15632  16.126  41.038  12.513
43318W        W15633  38.577  10.529   0.770
43319W        W15634  13.265  43.441   0.781
43320W        W15635   6.672  12.561   0.747
43321W        W15636  26.971  41.525   3.451
43322W        W15637  36.820  33.048   1.171
43323W        W15638  38.318  15.421  11.596
43324W        W15639  19.216   0.290  12.989
43325W        W15640  33.149  27.909  10.592
43326W        W15641  35.621  23.992  13.737
43327W        W15642   4.870  16.630  10.646
43328W        W15643  22.977   4.793  10.451
43329W        W15644  24.006   8.983  11.213
43330W        W15645  22.720  44.227  12.956
43331W        W15646  28.541  14.730   3.321
43332W        W15647  28.233   9.118   0.971
43333W        W15648   3.768   6.200  14.879
43334W        W15649  33.194  44.571  13.380
43335W        W15650  13.882  30.656   2.254
43336W        W15651  42.419  37.188   4.956
43337W        W15652  32.793   5.024  12.826
43338W        W15653  35.063  30.458  10.075
43339W        W15654  13.437  16.233  13.056
43340W        W15655   0.259  42.062   2.310
43341W        W15656  20.582  28.531  13.141
43342W        W15657  15.049  16.121  14.389
43343W        W15658   1.283   9.333   0.010
43344W        W15659  41.768  44.941  14.529
43345W        W15660  10.379  37.164   3.174
43346W        W15661  33.458  21.699   0.314
43347W        W15662   7.876   4.830  14.944
43348W        W15663  30.042  42.256  10.889
43349W        W15664  11.603  16.701   5.111
43350W        W15665  13.582  33.084   0.408
43351W        W15666  33.612   7.343  14.354
43352W        W15667   7.617  41.633   4.989
43353W        W15668   9.693  35.135  13.715
43354W        W15669   4.167  37.763   4.858
43355W        W15670  17.065   0.727   4.438
43356W        W15671  40.407  32.922   3.376
43357W        W15672  13.823  42.953  14.253
43358W        W15673  23.054  31.284  11.996
43359W        W15674  32.933   0.770  10.847
43360W        W15675  42.395  14.072  13.361
43361W        W15676  24.630  43.040  14.732
43362W        W15677   1.695  41.423  12.851
43363W        W15678  43.605  21.758  10.429
43364W        W15679  44.649   8.856   0.997
43365W        W15680  27.198  25.301  11.556
43366W        W15681  39.461  36.063  14.057
43367W        W15682   5.108  35.994  11.260
43368W        W15683   6.568   2.853   4.320
43369W        W15684  19.456  41.383  13.450
43370W        W15685  16.878   3.389   2.717
43371W        W15686  20.588  12.493   3.292
43372W        W15687  44.899   7.843   1.744
43373W        W15688  43.115  37.467  11.061
43374W        W15689  39.002  19.286   0.903
43375W        W15690  29.819  34.564  11.246
43376W        W15691  31.200   2.980   5.056
43377W        W15692  35.626   2.798  10.686
43378W        W15693  28.061   7.999   2.314
43379W        W15694  44.854   9.094   4.133
43380W        W15695  27.181  33.946   9.802
43381W        W15696  39.501  25.184  10.217
43382W        W15697  28.998  29.808   3.552
43383W        W15698  15.655  43.802  12.442
43384W        W15699   3.441  25.713   0.334
43385W        W15700  21.328   9.890  13.218
43386W        W15701  17.794  20.199  11.746
43387W        W15702  29.315  34.134   4.543
43388W        W15703  40.830  14.094   2.572
43389W        W15704   3.505  36.469   4.027
43390W        W15705  39.511  21.516   3.835
43391W        W15706  24.460   0.319  12.791
43392W        W15707   5.399   0.893  14.868
43393W        W15708  44.276  29.748  12.502
43394W        W15709  34.618  23.500   4.024
43395W        W15710  31.184   8.317   3.660
43396W        W15711  19.947  12.816  11.542
43397W        W15712  19.011  32.375  14.732
43398W        W15713   9.516   9.248   1.268
43399W        W15714  23.608  42.018  11.576
43400W        W15715   3.858  38.857  13.555
43401W        W15716  21.552  16.107   1.320
43402W        W15717   4.642  35.652  11.429
43403W        W15718  32.734   6.897   3.590
43404W        W15719   0.134  15.282   0.763
43405W        W15720   2.131   4.875   3.160
43406W        W15721  30.493  40.558  12.451
43407W        W15722  24.017  41.851   3.713
43408W        W15723   3.925  39.243  10.367
43409W        W15724  39.851  44.808  13.460
43410W        W15725  33.529   3.541  14.742
43411W        W15726  31.409  30.422   3.213
43412W        W15727  29.919  25.500   4.134
43413W        W15728  38.090   5.735   0.256
43414W        W15729  29.681   1.399  13.287
43415W        W15730  26.599  20.394  11.651
43416W        W15731  24.641  26.138  13.832
43417W        W15732   9.230  27.178   4.661
43418W        W15733  42.452  33.117  12.561
43419W        W15734  36.710  38.154   3.519
43420W        W15735  22.681  24.592  14.090
43421W        W15736   2.392  33.445  11.924
43422W        W15737  33.189  38.599  12.514
43423W        W15738   1.995  34.615   3.098
43424W        W15739  26.618  13.018  14.469
43425W        W15740   5.787  20.922  11.296
43426W        W15741  41.004  40.375   1.388
43427W        W15742  30.453  40.085   3.793
43428W        W15743  42.093  17.089   0.816
43429W        W15744   8.872  31.942  13.498
43430W        W15745  20.150   8.419   0.491
43431W        W15746  23.972  24.757   1.341
43432W        W15747  41.201  30.459  10.776
43433W        W15748  38.436   2.932  14.388
43434W        W15749   5.715  22.363  14.916
43435W        W15750  12.280  26.057   0.145
43436W        W15751  11.076  17.781  14.251
43437W        W15752  14.267  32.935  14.263
43438W        W15753  29.652  12.162   0.882
43439W        W15754  43.183  36.513   1.317
43440W        W15755  35.385  26.370   2.216
43441W        W15756  27.434  14.434  11.986
43442W        W15757  13.816  39.386  11.493
43443W        W15758  20.676   7.749   1.696
43444W        W15759  25.588  34.963  11.649
43445W        W15760   2.308   0.926  14.464
43446W        W15761  16.760   8.928  10.767
43447W        W15762  17.730  25.292  10.572
43448W        W15763  13.829  13.576  11.087
43449W        W15764  24.549  27.031   3.582
43450W        W15765  43.856  21.548   2.609
43451W        W15766   5.130   9.782  14.799
43452W        W15767   8.546  25.271   3.193
43453W        W15768  35.751  15.889  11.110
43454W        W15769  28.511  40.741   1.931
43455W        W15770  15.874  23.984  12.055
43456W        W15771   1.756   9.729  12.855
43457W        W15772  40.360  21.994  11.124
43458W        W15773   3.585  32.914   4.121
43459W        W15774  12.547  11.933  13.970
43460W        W15775  36.065  44.064   1.296
43461W        W15776  10.515  44.981  13.879
43462W        W15777  42.304  12.792  11.695
43463W        W15778  34.376  30.360   0.205
43464W        W15779  38.419   4.286  11.613
43465W        W15780  34.283  10.849   0.996
43466W        W15781   9.155   8.890  13.873
43467W        W15782  26.553  39.595  13.894
43468W        W15783   7.657  34.404  12.548
43469W        W15784  20.147   3.781  12.468
43470W        W15785   1.242   7.809  11.560
43471W        W15786   0.581  41.756   3.423
43472W        W15787  30.450   3.902  12.533
43473W        W15788   4.831  29.982  11.639
43474W        W15789  39.191  40.332  14.877
43475W        W15790  25.193  42.811   1.920
43476W        W15791  41.459   8.974  10.531
43477W        W15792  19.177  17.338   2.631
43478W        W15793  12.980  35.614   4.074
43479W        W15794   8.625  32.382   1.333
43480W        W15795  36.068  26.160  10.672
43481W        W15796  24.591  38.423   4.746
43482W        W15797  17.758   4.902  14.020
43483W        W15798  14.677  12.659   2.606
43484W        W15799   5.868  21.315  10.972
43485W        W15800  35.410  17.394   4.271
43486W        W15801   9.849   6.531  12.878
43487W        W15802  36.821   5.780   0.814
43488W        W15803  44.059  40.389   0.338
43489W        W15804  40.455  21.623   3.340
43490W        W15805  43.852   2.454  11.469
43491W        W15806  30.978  30.427  12.705
43492W        W15807  37.482  32.416   4.277
43493W        W15808   1.084  33.390   4.142
43494W        W15809  14.651  19.120  13.944
43495W        W15810  23.602  19.593   3.247
43496W        W15811   7.760   9.244   4.619
43497W        W15812  11.341  33.375  14.934
43498W        W15813  39.899  23.037  11.924
43499W        W15814   3.735  23.685  13.544
43500W        W15815  40.522  41.013   1.859
43501W        W15816  12.353   6.072   4.907
43502W        W15817  35.497   8.368  10.801
43503W        W15818  13.464  18.387   4.599
43504W        W15819   7.831  31.921   0.677
43505W        W15820  41.792   6.888   1.488
43506W        W15821  28.866  26.106   2.699
43507W        W15822   7.099   9.927  11.111
43508W        W15823  23.567  38.466   2.968
43509W        W15824  27.230   6.839  14.966
43510W        W15825   1.201  24.510  14.343
43511W        W15826  29.104  39.465  10.910
43512W        W15827  12.274  33.754  11.857
43513W        W15828  21.523  32.855   1.706
43514W        W15829  10.012  25.524  10.584
43515W        W15830  44.980   9.637   1.714
43516W        W15831  43.249  15.791  12.095
43517W        W15832  41.328   7.171   3.393
43518W        W15833  16.655  36.064  10.726
43519W        W15834   6.953  17.323   0.296
43520W        W15835  19.077   2.918   1.942
43521W        W15836  25.743  39.483   0.204
43522W        W15837  35.062  11.702   5.042
43523W        W15838   3.847  39.691  13.104
43524W        W15839  36.288  31.067  11.740
43525W        W15840  32.942  34.362   0.889
43526W        W15841  13.643  35.403   0.028
43527W        W15842  10.385   9.070   4.168
43528W        W15843  23.495   5.509  12.854
43529W        W15844   9.756  10.123   2.678
43530W        W15845  35.405  39.183   1.742
43531W        W15846  43.884  16.535  11.678
43532W        W15847  26.596  33.226  11.497
43533W        W15848  15.109   2.904  13.786
43534W        W15849  23.724  32.213   0.239
43535W        W15850   8.281  14.683  13.561
43536W        W15851  29.525   7.176   2.976
43537W        W15852  44.408  36.330  13.421
43538W        W15853  19.902   3.289  14.453
43539W        W15854  21.136   0.741   0.438
43540W        W15855  23.687  14.208   4.376
43541W        W15856  20.976   4.179   5.056
43542W        W15857  12.234   0.477  10.740
43543W        W15858  11.287  11.894   2.931
43544W        W15859  10.473  36.623   4.160
43545W        W15860  22.564  24.159   4.614
43546W        W15861  15.162  33.581  13.257
43547W        W15862  11.690  10.645   4.060
43548W        W15863   9.241  15.077  12.969
43549W        W15864   6.798  19.099  10.564
43550W        W15865  26.480  27.176   0.385
43551W        W15866  24.079  11.328  14.018
43552W        W15867  31.645  21.481   4.611
43553W        W15868   0.338  20.169   0.635
43554W        W15869  30.027   3.946   3.658
43555W        W15870  13.125  12.222   1.006
43556W        W15871  44.250  26.054   1.854
43557W        W15872  19.583   3.715   3.763
43558W        W15873   8.739   3.530  13.978
43559W        W15874  23.415  33.485   1.718
43560W        W15875  32.861   5.706   2.307
43561W        W15876  30.580  25.541   2.287
43562W        W15877  30.721  11.579  12.752
43563W        W15878  25.327   5.558  10.735
43564W        W15879  18.166   9.284  13.334
43565W        W15880  34.474  15.172   2.222
43566W        W15881   0.058  33.211  10.004
43567W        W15882  23.040  13.598  14.010
43568W        W15883   5.473  41.438  14.497
43569W        W15884  27.045   0.208   4.475
43570W        W15885  26.010  37.536   5.186
43571W        W15886   2.337  44.996  12.427
43572W        W15887   5.018  39.807   4.090
43573W        W15888  33.090  43.772  13.993
43574W        W15889   6.925   7.255  14.965
43575W        W15890  10.311  17.998  11.032
43576W        W15891   8.560   7.240   4.471
43577W        W15892  23.583  35.110   0.150
43578W        W15893  44.250   0.856  13.023
43579W        W15894  14.730  33.898   4.654
43580W        W15895  36.044   8.512   2.878
43581W        W15896  16.177  15.683  12.691
43582W        W15897  36.082  38.233   0.838
43583W        W15898  30.873  44.858   0.449
43584W        W15899  20.781   2.239   4.083
43585W        W15900  22.239   3.452  12.125
43586W        W15901  33.454  42.046  12.489
43587W        W15902  27.035  35.098  11.722
43588W        W15903  21.212  37.879   3.717
43589W        W15904   2.420  38.468  14.534
43590W        W15905  15.820  37.962  10.808
43591W        W15906  10.715  28.484  13.495
43592W        W15907  25.221  13.290  14.009
43593W        W15908  37.561  32.984   3.584
43594W        W15909  10.677  22.666  10.542
43595W        W15910  35.405  15.700   4.090
43596W        W15911  32.020  30.606  11.086
43597W        W15912  10.424  43.456   3.114
43598W        W15913  27.201   8.571   2.289
43599W        W15914   5.720  39.861   0.796
43600W        W15915  32.557  20.285   3.194
43601W        W15916  10.413  31.583   1.837
43602W        W15917  40.228  40.571   3.534
43603W        W15918  17.079  24.975   1.220
43604W        W15919  10.420  20.340  11.428
43605W        W15920  26.147  22.252  11.629
43606W        W15921  12.744  26.521  13.500
43607W        W15922  12.740  10.643   4.166
43608W        W15923  33.138  14.663  11.700
43609W        W15924  12.947  10.605   1.805
43610W        W15925  19.797  32.054  13.044
43611W        W15926  39.850  13.618  10.714
43612W        W15927  30.820  28.078  12.173
43613W        W15928   2.171   2.694   2.581
43614W        W15929  31.408  11.164  10.943
43615W        W15930   4.722   0.400  11.596
43616W        W15931  42.440  19.230  10.672
43617W        W15932  32.542  15.276  12.366
43618W        W15933  40.328  25.108   2.894
43619W        W15934  19.689  37.424   4.057
43620W        W15935  37.634  38.596   4.694
43621W        W15936   3.708  29.188   1.666
43622W        W15937  39.849   9.699   4.128
43623W        W15938  33.470  39.083  13.326
43624W        W15939  33.929  30.791  11.990
43625W        W15940   3.959  42.912   1.413
43626W        W15941  41.092  17.231  12.405
43627W        W15942   9.970  39.459  12.419
43628W        W15943  43.918  41.987  13.969
43629W        W15944   8.614   4.734  13.346
43630W        W15945  16.345  12.639  14.560
43631W        W15946  28.019  17.142  11.671
43632W        W15947   8.754  37.329  10.399
43633W        W15948   4.915   0.547   4.170
43634W        W15949   8.352  21.841  13.138
43635W        W15950  31.516   8.501   0.953
43636W        W15951  37.461  25.237  12.026
43637W        W15952  17.600  32.197  10.408
43638W        W15953  20.553   1.996   4.611
43639W        W15954  13.831  14.282   0.715
43640W        W15955   0.773  23.623  13.428
43641W        W15956  43.935  12.665  11.114
43642W        W15957  12.383  15.474   1.832
43643W        W15958  26.321   3.896  10.879
43644W        W15959   8.292   4.703   3.038
43645W        W15960   4.656   6.384  12.583
43646W        W15961  27.709  42.878   3.682
43647W        W15962  32.583  12.292  11.622
43648W        W15963   2.320  35.132   4.521
43649W        W15964  22.249  15.840  14.759
43650W        W15965  28.607  27.894  13.514
43651W        W15966   2.052  31.125  14.948
43652W        W15967   1.463  43.224   0.800
43653W        W15968  10.237  24.055  10.389
43654W        W15969  12.719  16.132   3.185
43655W        W15970  42.409  24.249  12.866
43656W        W15971  10.853  30.005   3.744
43657W        W15972  18.952  22.623   2.273
43658W        W15973  22.941   3.808  14.533
43659W        W15974  17.165  41.972   1.865
43660W        W15975   6.758   9.262  12.566
43661W        W15976  40.427   1.148   3.202
43662W        W15977   3.715  25.640  11.436
43663W        W15978  21.009   1.041  10.657
43664W        W15979  27.921  28.257  14.745
43665W        W15980   1.504   6.311   0.802
43666W        W15981   5.096  35.940   3.283
43667W        W15982  37.371  27.122   0.768
43668W        W15983  22.534  28.463  11.143
43669W        W15984  29.629  37.579   4.046
43670W        W15985  19.923  39.934  13.370
43671W        W15986  19.983   0.023  14.254
43672W        W15987  28.403  41.589   3.076
43673W        W15988  20.999  44.638  13.383
43674W        W15989  10.292  33.834   3.707
43675W        W15990  25.182   3.672  14.803
43676W        W15991  22.799  11.637  13.451
43677W        W15992  32.391  32.555  11.265
43678W        W15993  39.118  43.334   1.614
43679W        W15994  11.790  35.927  10.467
43680W        W15995  18.191  42.613   3.218
43681W        W15996  40.262   6.423  14.469
43682W        W15997  42.363  16.642   0.958
43683W        W15998  31.202  38.495  12.097
43684W        W15999   3.203   1.337  11.885
43685W        W16000   0.078  40.270   1.420
43686W        W16001  43.839  11.403   3.954
43687W        W16002  19.353  37.466   3.247
43688W        W16003  14.352  11.508  13.322
43689W        W16004  37.926   9.513   1.305
43690W        W16005  27.953  10.768   4.759
43691W        W16006  44.931  20.618  14.488
43692W        W16007  19.712  38.854   3.627
43693W        W16008  18.797   7.512   1.171
43694W        W16009  10.954  25.567   2.577
43695W        W16010  35.899  35.499  14.047
43696W        W16011  19.639  29.908  10.581
43697W        W16012   5.763  27.394   3.676
43698W        W16013  26.273  40.172  14.415
43699W        W16014   1.805   4.684  12.101
43700W        W16015   5.200   0.966   1.878
43701W        W16016  35.390   2.449  13.175
43702W        W16017  12.774  13.619   0.806
43703W        W16018  44.021   5.265  13.851
43704W        W16019   7.100  40.340  13.426
43705W        W16020  19.040  27.088  12.474
43706W        W16021  31.544  22.519   1.327
43707W        W16022  42.109  30.436  10.761
43708W        W16023   8.290   4.719  13.756
43709W        W16024   6.463  41.249   4.059
43710W        W16025  23.913  36.091  10.391
43711W        W16026  36.425  10.575   1.802
43712W        W16027  30.063  25.989   4.100
43713W        W16028  12.666  13.006   0.777
43714W        W16029  17.314  28.870   0.853
43715W        W16030  20.694   6.953   4.177
43716W        W16031  31.481  44.368   1.852
43717W        W16032  37.951  41.864   0.711
43718W        W16033   1.895  19.224   0.708
43719W        W16034  14.445   9.270  12.733
43720W        W16035  26.064  19.714   1.758
43721W        W16036   1.669  15.807  11.558
43722W        W16037  26.495  26.245   3.554
43723W        W16038  21.204  32.480   3.413
43724W        W16039  37.926  34.545   4.149
43725W        W16040   4.182  28.720   1.298
43726W        W16041   3.730  20.046  14.776
43727W        W16042  20.575  43.343   3.574
43728W        W16043  15.200  23.630   1.706
43729W        W16044  13.091  21.795   4.072
43730W        W16045  42.268  36.406   3.336
43731W        W16046  42.328  23.165  11.368
43732W        W16047  18.944  39.814  11.137
43733W        W16048  22.619  20.340   2.492
43734W        W16049  11.690  12.567   4.101
43735W        W16050  16.340  38.140   3.661
43736W        W16051   2.322   4.874  14.736
43737W        W16052  24.009  37.974  14.806
43738W        W16053  10.431  11.217   4.476
43739W        W16054   8.225  44.989  13.536
43740W        W16055  43.280  25.401  12.898
43741W        W16056  42.032  11.847  14.432
43742W        W16057  18.538  27.578   1.623
43743W        W16058  14.991   6.232  12.367
43744W        W16059  21.544  42.288  12.364
43745W        W16060  29.671  42.838   3.661
43746W        W16061  26.394  40.911  10.685
43747W        W16062  38.181  16.509  11.738
43748W        W16063  15.819  30.929  13.060
43749W        W16064   9.847  14.071   4.201
43750W        W16065  31.989  36.636  13.537
43751W        W16066  31.982   7.706   1.946
43752W        W16067  22.665  30.185  13.471
43753W        W16068  30.018  15.262  12.857
43754W        W16069  40.444  37.491   4.090
43755W        W16070  17.653  14.359  12.934
43756W        W16071  25.779  20.982  11.454
43757W        W16072  20.821  31.980  12.088
43758W        W16073   6.974  35.943   2.888
43759W        W16074  39.767   0.442  11.076
43760W        W16075  16.628  20.392   4.057
43761W        W16076  10.563   2.268  10.435
43762W        W16077  23.522   4.068  12.377
43763W        W16078  11.210  42.055  11.579
43764W        W16079  24.919  25.143   3.271
43765W        W16080  37.851   3.403   1.152
43766W        W16081  24.544  19.227   2.219
43767W        W16082  24.014  32.944   4.060
43768W        W16083  15.765  33.871   3.569
43769W        W16084  36.376   9.322   4.344
43770W        W16085  37.297  16.439   3.246
43771W        W16086  39.674  31.031  13.925
43772W        W16087   0.667  11.773  13.842
43773W        W16088  26.231   8.808  11.122
43774W        W16089  18.788   9.688  13.746
43775W        W16090  32.110   3.773  14.974
43776W        W16091  11.242   1.652   2.392
43777W        W16092  27.226  18.775   3.707
43778W        W16093  33.462   3.978  11.610
43779W        W16094   5.119  42.342  13.863
43780W        W16095  19.651  12.147   1.372
43781W        W16096  12.726  34.825   2.612
43782W        W16097  43.249  26.482   0.740
43783W        W16098  41.902  38.387  14.940
43784W        W16099   9.655  20.997   0.423
43785W        W16100  19.576  41.880  12.750
43786W        W16101   2.201   1.870   0.504
43787W        W16102  13.890   5.676   3.578
43788W        W16103  21.478  28.187  11.524
43789W        W16104  43.269  10.070   3.843
43790W        W16105   2.160  10.253  12.181
43791W        W16106  33.535   2.928   3.866
43792W        W16107  18.718  14.639   2.166
43793W        W16108  44.734  39.886  10.763
43794W        W16109  36.814   0.776  13.752
43795W        W16110   5.932  24.966   2.823
43796W        W16111  34.816  14.184   0.358
43797W        W16112   9.183   9.575   4.566
43798W        W16113  32.235  42.005   4.141
43799W        W16114  16.680   8.767  13.856
43800W        W16115  32.489   2.748   0.203
43801W        W16116  39.433  15.307   3.380
43802W        W16117   2.382  44.896  11.906
43803W        W16118  16.245  14.462   3.645
43804W        W16119  19.594  15.292  11.569
43805W        W16120   1.210   0.075  14.315
43806W        W16121  14.799   4.318   2.819
43807W        W16122  23.231   1.002   0.715
43808W        W16123  31.561  10.593  14.863
43809W        W16124  34.364  18.642  12.467
43810W        W16125   8.809  40.220   0.368
43811W        W16126   9.894  42.487  14.292
43812W        W16127  13.150   7.535  11.435
43813W        W16128  10.078  19.102   5.006
43814W        W16129  22.822  40.423  13.345
43815W        W16130  24.564  13.880   0.040
43816W        W16131  15.816  20.656  14.373
43817W        W16132  26.785  19.604   4.071
43818W        W16133  28.657  40.556   2.374
43819W        W16134  28.706  40.524  14.396
43820W        W16135  29.226  13.213   1.781
43821W        W16136  37.505  33.888   3.139
43822W        W16137  22.139  41.942  12.304
43823W        W16138  29.689   8.168  11.603
43824W        W16139  16.229   2.448  14.311
43825W        W16140  13.725   3.447  11.357
43826W        W16141  26.613  24.618   0.478
43827W        W16142  32.473   8.007  11.105
43828W        W16143  42.386   7.223   4.594
43829W        W16144  27.026  31.990   9.769
43830W        W16145  33.193  21.309   2.399
43831W        W16146  36.512  24.617  10.400
43832W        W16147  16.787  18.242  10.655
43833W        W16148   3.703  18.754  14.289
43834W        W16149   7.647  41.169   2.725
43835W        W16150  32.631  34.602  13.881
43836W        W16151  44.379   8.884  14.268
43837W        W16152  37.033  42.316  14.830
43838W        W16153  28.575  42.740   1.776
43839W        W16154  27.230  39.372  13.359
43840W        W16155  22.699   4.445  12.369
43841W        W16156   0.862   8.638   4.340
43842W        W16157  33.868  20.789  12.605
43843W        W16158   9.908  32.448  13.013
43844W        W16159  35.360  43.542   1.164
43845W        W16160  39.861  12.169   3.512
43846W        W16161   5.296  29.491   0.005
43847W        W16162  42.895   7.387   4.691
43848W        W16163  27.424  15.143  13.861
43849W        W16164  29.022  15.256  10.557
43850W        W16165  33.110  10.965  10.661
43851W        W16166  15.840  39.496  10.533
43852W        W16167  44.699  41.200   2.704
43853W        W16168  38.425  29.077  13.624
43854W        W16169  32.651  13.720  11.557
43855W        W16170  36.407  39.058  13.433
43856W        W16171  26.495   3.354  13.076
43857W        W16172  42.597  37.266  13.921
43858W        W16173  22.009  43.664   0.368
43859W        W16174  37.346  43.297  11.950
43860W        W16175  10.766   5.661  14.623
43861W        W16176  28.004   5.857  11.239
43862W        W16177  30.606  28.115  11.695
43863W        W16178  27.504  12.711   3.906
43864W        W16179  16.838  17.397   0.339
43865W        W16180  13.022  22.276  14.356
43866W        W16181  44.372  17.640   1.968
43867W        W16182   6.087  36.863   2.315
43868W        W16183  20.146  42.077  11.341
43869W        W16184  12.407  38.049  12.040
43870W        W16185  26.681   7.674  12.494
43871W        W16186  41.760  36.431   1.838
43872W        W16187  20.973  44.422   4.186
43873W        W16188  32.555  20.003   2.721
43874W        W16189  29.643  37.440  12.624
43875W        W16190  30.403   2.968   2.636
43876W        W16191  37.639   5.317  12.453
43877W        W16192   9.642  40.188  11.682
43878W        W16193  13.113  14.226  11.722
43879W        W16194   4.841   3.187  12.030
43880W        W16195  31.611  38.652   1.904
43881W        W16196   2.754  26.601  13.958
43882W        W16197  16.238  11.650   2.291
43883W        W16198  20.236  21.062  11.914
43884W        W16199  35.161   5.785  13.530
43885W        W16200  41.441   9.922  10.940
43886W        W16201  11.624   7.844  13.053
43887W        W16202   2.289   0.976   4.685
43888W        W16203   3.752  11.126  12.442
43889W        W16204  38.795  23.118   4.266
43890W        W16205  40.370  15.635  14.878
43891W        W16206  32.941   0.263   4.313
43892W        W16207  29.586  17.331   9.907
43893W        W16208   3.364  20.821   3.837
43894W        W16209  29.094  42.975   1.178
43895W        W16210  33.547  20.613  11.201
43896W        W16211  32.400  27.115  12.469
43897W        W16212  27.069  31.980   0.298
43898W        W16213  43.996  33.408  11.029
43899W        W16214  19.512   2.393  14.804
43900W        W16215  10.787  18.043   0.711
43901W        W16216   5.782  42.833  10.681
43902W        W16217  13.694   2.868  14.951
43903W        W16218   8.068  20.706  14.948
43904W        W16219  35.163  23.120   0.404
43905W        W16220  25.903  43.596  13.934
43906W        W16221   2.054  15.471  12.839
43907W        W16222  14.752  18.833  10.677
43908W        W16223  13.095  34.982   4.316
43909W        W16224  34.408  17.212  11.754
43910W        W16225  28.068   6.819  11.908
43911W        W16226  18.791   1.567  13.868
43912W        W16227  40.746  24.623   0.422
43913W        W16228  12.925  30.995   2.158
43914W        W16229  14.227  20.627  13.844
43915W        W16230  36.958  39.444   3.347
43916W        W16231  42.913  17.739   3.196
43917W        W16232  14.795  19.016   3.938
43918W        W16233  36.961  11.330  14.733
43919W        W16234  18.314  34.582  14.066
43920W        W16235  27.392   7.287  14.103
43921W        W16236  17.166  35.943  10.667
43922W        W16237  39.848  26.892  11.848
43923W        W16238  33.893  24.999   2.369
43924W        W16239   1.726  37.531   2.149
43925W        W16240  40.163  41.384   2.661
43926W        W16241  24.416  17.298   4.341
43927W        W16242   2.000  15.495   3.295
43928W        W16243  30.372  15.598  10.723
43929W        W16244  19.298  31.193  13.411
43930W        W16245  40.291  37.264   0.686
43931W        W16246  33.358  40.908   0.819
43932W        W16247  17.001   2.858  11.539
43933W        W16248   6.271  38.779  10.713
43934W        W16249  21.616  43.126   1.668
43935W        W16250   5.523  27.877   0.716
43936W        W16251  21.593   9.803   0.658
43937W        W16252  38.387  42.864  14.848
43938W        W16253  24.959  23.815   1.812
43939W        W16254  32.531  30.204   4.361
43940W        W16255   0.240  40.561   1.813
43941W        W16256  43.383   8.703  12.502
43942W        W16257  32.742   2.778  11.837
43943W        W16258  19.112  35.856  10.613
43944W        W16259   1.993  25.464  13.828
43945W        W16260   3.326  21.541  14.198
43946W        W16261  34.995   5.681  12.695
43947W        W16262   5.369  44.846  14.263
43948W        W16263   9.425  10.231   4.409
43949W        W16264   5.258   7.925   2.842
43950W        W16265  30.003  44.840  11.676
43951W        W16266   1.277  10.729   0.269
43952W        W16267  30.645  24.052   5.150
43953W        W16268  30.887  19.114   2.486
43954W        W16269   0.487  13.342   1.631
43955W        W16270   4.440  22.210  10.622
43956W        W16271  22.333  30.099  12.123
43957W        W16272  40.149  30.116  13.849
43958W        W16273  32.814  31.391  10.619
43959W        W16274   3.550  32.965  11.731
43960W        W16275  31.411  15.120   0.794
43961W        W16276  19.673  39.507  10.592
43962W        W16277  21.025  15.865   4.509
43963W        W16278   1.450   0.255  13.579
43964W        W16279   8.116  42.075   2.757
43965W        W16280   7.288  13.777  13.626
43966W        W16281  32.538  16.706   0.432
43967W        W16282   7.383  20.282   2.688
43968W        W16283  11.789   7.506  11.590
43969W        W16284  36.162  30.586   4.515
43970W        W16285  30.030  35.455   3.675
43971W        W16286  24.032   8.616  11.587
43972W        W16287   2.858   9.846   0.345
43973W        W16288  16.685  39.066  14.293
43974W        W16289  29.694  29.107   2.670
43975W        W16290  26.628  33.696   3.182
43976W        W16291   1.888  22.564  13.419
43977W        W16292   4.968  28.572  13.359
43978W        W16293  15.141  34.906   3.682
43979W        W16294  26.036   6.724   9.599
43980W        W16295   2.275  27.032   2.717
43981W        W16296  44.608  16.099  14.739
43982W        W16297  11.250  11.924  14.486
43983W        W16298   3.483  22.934   0.691
43984W        W16299  44.749  17.295   1.788
43985W        W16300  24.029  29.902  13.363
43986W        W16301  29.096  36.893  12.055
43987W        W16302  10.408  40.181   1.664
43988W        W16303  16.155  37.548   4.703
43989W        W16304   1.543  18.725  13.664
43990W        W16305  18.059  11.573   5.171
43991W        W16306  14.070   4.533  11.999
43992W        W16307  30.971  34.981   4.687
43993W        W16308  10.813   4.102  11.754
43994W        W16309  26.184  34.508  14.838
43995W        W16310  15.759  42.412  10.716
43996W        W16311   3.001   4.721   1.324
43997W        W16312  25.087  35.320   4.252
43998W        W16313   1.273  23.759  10.712
43999W        W16314  30.560  16.886  12.152
44000W        W16315  26.004  41.398   0.781
44001W        W16316   0.706  20.686  13.823
44002W        W16317  40.630  14.387  10.584
44003W        W16318  23.773  20.020   1.693
44004W        W16319  16.782  18.921  14.495
44005W        W16320  16.626  11.168   0.251
44006W        W16321  33.728  11.402  14.563
44007W        W16322   7.184  11.150  13.483
44008W        W16323   8.850  30.436  14.304
44009W        W16324  42.706  17.215  14.511
44010W        W16325  28.146   3.494  12.730
44011W        W16326   2.363  16.461   4.219
44012W        W16327   2.917   6.749   2.862
44013W        W16328  32.428  43.120   2.547
44014W        W16329  32.027   9.282  10.748
44015W        W16330   7.654  15.697  11.645
44016W        W16331  28.931  33.540   4.171
44017W        W16332  30.488  20.040   1.396
44018W        W16333   4.683  33.682   5.041
44019W        W16334  44.479  37.259   3.850
44020W        W16335  20.039  30.948   0.919
44021W        W16336   7.815  27.691  13.371
44022W        W16337   7.924  42.520  13.398
44023W        W16338   3.782  17.813  13.450
44024W        W16339  31.898  41.357   4.928
44025W        W16340   4.470   2.251  10.554
44026W        W16341  16.041  43.626   5.053
44027W        W16342  41.306  23.339  12.543
44028W        W16343  21.339   3.233   5.182
44029W        W16344  32.354  12.894   2.705
44030W        W16345  22.166  29.218  12.061
44031W        W16346   4.354  36.583   2.921
44032W        W16347  14.693  39.559   4.891
44033W        W16348  28.854  41.205  13.571
44034W        W16349   9.117  17.772  12.047
44035W        W16350  38.557   0.435   0.427
44036W        W16351  37.937  19.732  12.434
44037W        W16352   0.297   5.315  14.487
44038W        W16353   7.838  12.935   2.048
44039W        W16354  36.970  43.448   4.009
44040W        W16355  39.117  30.066  12.043
44041W        W16356  28.707   3.242   2.815
44042W        W16357  10.196  22.138  13.499
44043W        W16358  40.877  13.136   2.620
44044W        W16359  33.638  36.919   1.432
44045W        W16360   1.285   6.235   0.323
44046W        W16361  20.877  24.422   3.763
44047W        W16362  20.564  21.172  12.801
44048W        W16363  43.334  32.155   0.457
44049W        W16364  14.686  40.052  13.871
44050W        W16365  11.970  23.029   4.567
44051W        W16366  21.331   0.297   4.202
44052W        W16367  23.732  29.408  12.568
44053W        W16368   5.933  30.053   1.627
44054W        W16369  16.101   9.332  10.636
44055W        W16370  22.292  32.207   0.468
44056W        W16371  11.753   4.778  13.757
44057W        W16372  23.603   2.842  13.832
44058W        W16373   9.114  39.283   1.834
44059W        W16374  42.847  40.884  11.590
44060W        W16375  20.544  35.516   3.392
44061W        W16376  24.172  16.116   3.968
44062W        W16377   8.469  18.952  12.201
44063W        W16378  32.160  12.097  13.921
44064W        W16379  11.653  37.159  14.789
44065W        W16380   6.198   5.899   2.988
44066W        W16381  19.405   7.675  14.355
44067W        W16382   3.770   8.101  12.699
44068W        W16383  12.366  39.247   1.192
44069W        W16384  39.267   3.970  11.145
44070W        W16385  14.906  13.954  14.944
44071W        W16386   2.223  12.650  13.740
44072W        W16387  41.428  10.218   2.349
44073W        W16388  17.064  25.987  13.757
44074W        W16389  14.384   5.851  10.417
44075W        W16390   0.820  10.936   1.839
44076W        W16391  19.839  37.594   3.189
44077W        W16392  37.773  16.698   4.191
44078W        W16393  24.523  34.984  14.221
44079W        W16394   3.364  21.980   1.704
44080W        W16395  28.084  11.711   1.891
44081W        W16396  15.747   0.199   3.863
44082W        W16397  41.468   0.470  10.703
44083W        W16398  28.477  26.488   3.623
44084W        W16399  43.871   4.113   0.623
44085W        W16400  31.119  33.487   4.417
44086W        W16401  12.276  43.474   0.165
44087W        W16402  43.938  30.856  14.418
44088W        W16403  30.875  31.637   1.696
44089W        W16404   2.855  19.178   2.842
44090W        W16405  26.128   1.892   1.376
44091W        W16406   3.423   8.359  14.470
44092W        W16407  24.693  15.131  14.731
44093W        W16408  21.863  14.627  12.619
44094W        W16409  11.967  33.018  14.333
44095W        W16410   2.633  33.628  10.004
44096W        W16411  36.577  20.352   3.700
44097W        W16412  22.011  24.767   2.841
44098W        W16413  15.931  24.367   3.727
44099W        W16414  27.648  35.609  12.122
44100W        W16415  22.185   3.854  12.418
44101W        W16416   3.251  22.323  10.365
44102W        W16417   4.059  12.590   3.470
44103W        W16418  19.728  34.004  11.680
44104W        W16419  35.385  23.651   2.317
44105W        W16420  24.198  23.669   0.272
44106W        W16421  38.793  23.040   2.363
44107W        W16422   4.425   2.736  13.871
44108W        W16423  34.792  16.559  12.940
44109W        W16424  22.853   4.381  11.320
44110W        W16425  10.482  23.759   3.653
44111W        W16426  15.692  17.826   2.186
44112W        W16427   2.498  28.545   0.021
44113W        W16428  27.983  13.353  13.435
44114W        W16429   4.632  41.287  13.910
44115W        W16430  23.820  21.925   2.681
44116W        W16431  19.076  32.818   4.279
44117W        W16432  43.888   2.132   4.117
44118W        W16433   3.294  43.086  13.963
44119W        W16434  33.496  24.046   1.233
44120W        W16435  44.299  35.376   3.765
44121W        W16436  23.345  12.704  13.024
44122W        W16437  36.331  36.561   0.775
44123W        W16438  40.897  43.916   1.305
44124W        W16439  39.619   5.939  13.376
44125W        W16440  29.531  17.675   0.851
44126W        W16441  20.709  30.522   1.349
44127W        W16442  38.927  43.228  13.816
44128W        W16443   6.939  40.347   4.018
44129W        W16444   9.154  37.965  14.410
44130W        W16445  12.713  20.338  13.022
44131W        W16446  21.220   3.336   1.421
44132W        W16447  23.589  16.064  10.654
44133W        W16448  23.407  38.473  11.158
44134W        W16449   4.126  40.562   4.528
44135W        W16450  11.356  25.774   0.724
44136W        W16451   1.641   6.196  14.896
44137W        W16452  24.519   0.382   1.878
44138W        W16453  27.461  23.996  12.503
44139W        W16454   0.256   3.256  14.027
44140W        W16455   6.234  14.221  14.460
44141W        W16456  27.955   1.132  13.026
44142W        W16457   7.726  33.114  11.100
44143W        W16458  12.822  20.251   2.136
44144W        W16459  19.105  28.427   9.570
44145W        W16460   1.786  24.678   3.746
44146W        W16461  30.683  43.756  12.759
44147W        W16462   0.229   2.710  12.949
44148W        W16463   4.706   6.838   2.296
44149W        W16464  29.161  36.395  13.799
44150W        W16465  16.738  43.398   4.361
44151W        W16466  41.302   9.973  10.442
44152W        W16467  43.821  43.966  14.297
44153W        W16468  31.039   9.838  14.005
44154W        W16469  29.947  44.582  13.552
44155W        W16470  11.947  30.489   2.836
44156W        W16471   3.545  17.268   2.003
44157W        W16472  29.190  20.215  12.932
44158W        W16473  41.447  24.810  14.924
44159W        W16474  33.514  34.123  13.668
44160W        W16475  36.363  25.752   4.521
44161W        W16476  20.196   2.778  10.774
44162W        W16477  44.075   0.362   0.928
44163W        W16478  24.510  20.644   3.729
44164W        W16479  17.754  25.122   4.170
44165W        W16480   4.168   5.280  14.221
44166W        W16481  42.781  21.729   0.240
44167W        W16482  24.560   2.189   0.415
44168W        W16483   3.852  17.619  12.127
44169W        W16484  25.717  16.179  13.552
44170W        W16485  44.235  10.264   4.127
44171W        W16486   6.750  17.680   1.674
44172W        W16487  26.608  33.648  14.025
44173W        W16488  41.049  15.607   3.686
44174W        W16489   4.207  17.634  14.406
44175W        W16490  41.949  16.127  12.662
44176W        W16491  36.027  16.820   2.729
44177W        W16492  43.387  39.337  14.314
44178W        W16493  37.249   5.747  12.134
44179W        W16494  19.659  44.930   2.469
44180W        W16495  11.824   3.798  13.332
44181W        W16496  39.703  19.404  10.835
44182W        W16497  19.634  12.542   3.437
44183W        W16498  32.699   1.139  11.176
44184W        W16499   2.162   1.799  13.852
44185W        W16500  15.106  35.140  10.398
44186W        W16501  30.216  38.014   1.713
44187W        W16502  25.704  39.108  12.975
44188W        W16503  10.366   1.393  14.917
44189W        W16504   9.178   3.800   3.531
44190W        W16505  27.596   8.236   2.362
44191W        W16506  39.634  19.234  14.072
44192W        W16507  36.020  13.887   2.244
44193W        W16508   9.316  40.745  14.889
44194W        W16509  35.962   8.362   3.821
44195W        W16510  15.056  42.552   0.863
44196W        W16511  39.354  16.973   1.815
44197W        W16512  35.417  18.278  14.063
44198W        W16513  21.094  23.105  10.618
44199W        W16514  30.529   9.640   3.557
44200W        W16515  11.940  21.027  11.905
44201W        W16516  15.691  31.850  11.220
44202W        W16517  25.590  28.023  12.575
44203W        W16518  17.343  14.395  13.540
44204W        W16519  10.275   4.756   0.442
44205W        W16520  16.592  16.751   2.253
44206W        W16521  34.726  29.064  11.226
44207W        W16522  41.852  17.781  11.622
44208W        W16523  27.192  16.562  10.984
44209W        W16524  14.467  31.115  11.988
44210W        W16525   0.434  29.682   3.593
44211W        W16526  15.758   3.991  10.466
44212W        W16527  17.052  28.479  13.907
44213W        W16528  34.484  19.174  13.042
44214W        W16529   2.012  31.097  12.554
44215W        W16530  10.738   0.811   0.175
44216W        W16531  24.610   4.171   3.793
44217W        W16532  34.934  33.346   4.105
44218W        W16533   5.819  31.964  11.433
44219W        W16534  40.382  10.177   1.431
44220W        W16535  31.721  22.037   2.576
44221W        W16536  40.517   3.478   1.800
44222W        W16537  14.824  33.650   0.235
44223W        W16538  16.916  39.396   0.752
44224W        W16539   0.292  34.972  14.102
44225W        W16540   8.928  31.862  14.377
44226W        W16541  17.777  27.079  12.579
44227W        W16542   6.639  22.360  12.164
44228W        W16543  17.353  28.468  10.986
44229W        W16544  28.091  29.583  12.371
44230W        W16545  33.845  30.075  14.488
44231W        W16546  35.371   9.629  14.475
44232W        W16547   8.865  38.825   1.805
44233W        W16548  23.267  21.767  13.896
44234W        W16549  41.327   2.783   1.768
44235W        W16550  31.011  25.680  14.170
44236W        W16551  29.620   9.127   1.703
44237W        W16552  30.645  43.832   3.671
44238W        W16553   5.547   4.199  10.339
44239W        W16554  34.988  34.885   3.147
44240W        W16555   3.492   6.251  14.452
44241W        W16556   6.178  16.126  10.576
44242W        W16557  29.382   7.966  10.740
44243W        W16558   8.926  18.277  14.722
44244W        W16559  12.641   4.818  11.383
44245W        W16560  39.944  29.890   1.815
44246W        W16561  29.588   3.927  13.551
44247W        W16562  33.422   8.305  10.955
44248W        W16563  37.375   4.611   1.399
44249W        W16564  33.451  42.450   0.279
44250W        W16565  11.101  21.479  14.923
44251W        W16566  28.991  13.475   3.513
44252W        W16567  37.927  44.217   1.169
44253W        W16568   1.530  22.173   1.736
44254W        W16569  40.557  44.429   1.417
44255W        W16570   2.361   0.318  13.605
44256W        W16571  31.949  39.415  14.344
44257W        W16572  43.514  15.748   2.577
44258W        W16573  19.260   4.232   0.468
44259W        W16574  37.489  33.901   1.770
44260W        W16575  24.683  13.698  12.471
44261W        W16576  29.966  19.862   1.296
44262W        W16577  28.004  28.544   1.847
44263W        W16578  10.781   4.885   3.678
44264W        W16579  14.251  25.092   0.477
44265W        W16580  37.396  33.178  14.884
44266W        W16581  44.540   0.477   1.187
44267W        W16582  34.683  37.806  10.219
44268W        W16583  17.179  17.197  12.458
44269W        W16584  17.368   4.960   0.814
44270W        W16585   8.851  14.178   2.112
44271W        W16586  19.022  18.956  12.412
44272W        W16587  10.710  19.526   0.453
44273W        W16588  22.137  32.215   3.354
44274W        W16589  36.056  37.425  13.195
44275W        W16590  17.167   3.733   3.222
44276W        W16591   8.230  23.529   1.571
44277W        W16592  35.701  29.848   0.823
44278W        W16593  40.307   7.337   1.282
44279W        W16594  23.658  25.226   0.967
44280W        W16595  31.976   7.402  12.990
44281W        W16596  38.527  33.309   3.177
44282W        W16597  16.700  24.301  12.565
44283W        W16598  35.557  15.406  12.059
44284W        W16599  44.472  24.649  14.824
44285W        W16600   9.736  33.524   1.595
44286W        W16601   0.271  28.860   4.164
44287W        W16602   6.400  21.239   1.692
44288W        W16603   9.789   1.228  10.619
44289W        W16604  38.095  37.269   3.309
44290W        W16605  36.863  31.497  11.861
44291W        W16606  16.101  20.520  13.941
44292W        W16607  35.791   4.488  14.761
44293W        W16608   2.424   4.890  12.757
44294W        W16609  41.750  37.456   3.609
44295W        W16610  11.454   8.849  11.563
44296W        W16611   4.476  35.679   1.396
44297W        W16612   7.693  18.531   3.680
44298W        W16613  22.042  43.421   4.753
44299W        W16614  36.294  44.482  11.153
44300W        W16615  30.740  18.423   2.876
44301W        W16616   5.786  32.100  12.999
44302W        W16617  43.692  37.581   1.813
44303W        W16618   4.492  22.313   4.507
44304W        W16619  42.820  31.453  12.527
44305W        W16620  28.416  16.843  11.561
44306W        W16621  22.225  30.958  12.610
44307W        W16622  23.976  32.947  12.588
44308W        W16623  12.681  20.794  14.480
44309W        W16624  14.228   0.070  12.992
44310W        W16625  39.029  21.642   3.692
44311W        W16626  39.594   5.303   3.157
44312W        W16627  29.018  34.116   0.455
44313W        W16628   7.165   4.673  11.919
44314W        W16629  43.267   4.721   4.265
44315W        W16630  16.652  35.226  11.944
44316W        W16631  32.138  10.749  12.292
44317W        W16632  42.418  27.998   1.882
44318W        W16633   7.341  18.259  12.954
44319W        W16634  38.384  32.360  13.826
44320W        W16635  10.420  25.488   4.147
44321W        W16636   5.358  37.756   1.309
44322W        W16637   5.353  23.981   1.380
44323W        W16638   8.831  41.697  11.601
44324W        W16639  41.855  36.628   0.514
44325W        W16640   8.069   5.822   4.170
44326W        W16641  43.410   2.437  13.005
44327W        W16642  32.661  28.642   0.507
44328W        W16643  43.110  43.900  12.413
44329W        W16644  41.344  30.625  13.943
44330W        W16645  34.865  42.728  10.066
44331W        W16646   2.409  42.805   4.255
44332W        W16647  35.824  13.582  11.704
44333W        W16648  21.430  24.486   4.874
44334W        W16649  31.763   2.244  13.312
44335W        W16650  27.589  37.437  11.206
44336W        W16651  25.815  38.561   0.276
44337W        W16652   9.013  21.581   0.324
44338W        W16653  39.557  24.047  13.460
44339W        W16654  40.199  25.238  12.382
44340W        W16655  41.358   6.440  13.176
44341W        W16656  14.563  26.869   0.304
44342W        W16657  35.959  32.021  10.580
44343W        W16658  36.816  11.436   1.833
44344W        W16659   6.936   6.313   3.215
44345W        W16660   9.441  13.755  12.425
44346W        W16661   4.902  12.370  13.432
44347W        W16662  31.573  20.136   3.450
44348W        W16663   2.911  28.738   2.757
44349W        W16664  36.573  15.183   4.333
44350W        W16665   2.251  31.927  12.052
44351W        W16666  33.034  20.737  11.195
44352W        W16667  43.373  23.057   4.771
44353W        W16668   9.597   4.363   2.728
44354W        W16669  15.141  41.075  12.321
44355W        W16670  41.064  29.595  13.842
44356W        W16671  26.961  40.570   0.299
44357W        W16672  35.843  21.136   4.886
44358W        W16673  33.212  15.766   3.331
44359W        W16674  27.508  39.621   3.860
44360W        W16675  31.485  43.258   0.666
44361W        W16676  13.235   8.040  11.515
44362W        W16677  24.904  10.105  14.603
44363W        W16678   7.715  19.455   2.144
44364W        W16679  10.251  23.248   0.304
44365W        W16680  21.534  18.544  14.422
44366W        W16681   8.422  44.473   4.472
44367W        W16682  11.007  32.150   2.444
44368W        W16683  32.197  17.760   2.722
44369W        W16684  12.757   8.673  14.954
44370W        W16685   7.834  30.524   4.989
44371W        W16686  44.522   4.710   0.328
44372W        W16687   1.237  16.826  11.981
44373W        W16688   0.688  16.536   1.934
44374W        W16689  22.337  32.141  11.634
44375W        W16690  41.603  43.553  12.446
44376W        W16691  39.073  25.107  11.505
44377W        W16692   7.073  19.815  11.206
44378W        W16693  27.404  23.003   3.310
44379W        W16694  29.104  25.760  12.438
44380W        W16695  14.265  37.862   0.721
44381W        W16696   6.425  44.905  12.053
44382W        W16697  23.969  26.374   2.247
44383W        W16698  31.433   5.291   0.761
44384W        W16699   6.729   0.841  14.436
44385W        W16700  38.296   7.787  10.837
44386W        W16701  23.210  38.547  10.675
44387W        W16702  16.621  38.992   0.938
44388W        W16703  12.519  11.349  11.028
44389W        W16704  30.815   4.750  12.459
44390W        W16705  20.597  23.132  11.442
44391W        W16706  25.423  10.098   1.652
44392W        W16707  41.533  13.691  12.069
44393W        W16708  17.354  41.639   1.368
44394W        W16709  38.393  10.577  11.247
44395W        W16710   1.769  20.496   1.988
44396W        W16711  21.466  26.635  12.206
44397W        W16712  14.107  14.176   2.202
44398W        W16713  16.689  11.914   2.401
44399W        W16714  15.115   1.373   1.448
44400W        W16715  34.086  25.615  12.072
44401W        W16716  31.926  29.575  12.462
44402W        W16717  10.617  17.586   1.891
44403W        W16718   9.309  32.147   0.737
44404W        W16719   2.390  38.393   0.082
44405W        W16720  26.599  26.130  10.169
44406W        W16721   0.662  24.534   2.789
44407W        W16722  41.531  17.308   3.658
44408W        W16723  23.138  14.940  14.437
44409W        W16724  21.806  28.975   1.705
44410W        W16725  15.688  30.237   9.798
44411W        W16726  30.517  31.060  11.128
44412W        W16727   4.881  14.369  11.935
44413W        W16728  30.775   0.805  13.418
44414W        W16729  19.447   3.404  14.238
44415W        W16730   3.733   6.449   3.052
44416W        W16731  14.047  14.927   4.208
44417W        W16732  15.252  38.995   3.656
44418W        W16733  26.488  20.032  13.468
44419W        W16734  19.973  17.775   2.657
44420W        W16735  23.238  28.901   0.888
44421W        W16736  11.443   7.033  13.003
44422W        W16737  35.072  15.697  14.328
44423W        W16738   3.790   7.782   2.693
44424W        W16739  10.087  16.173  12.930
44425W        W16740  41.328  38.654   4.576
44426W        W16741  29.757   1.807  12.972
44427W        W16742  29.655   6.906  12.939
44428W        W16743  20.477  19.189  10.613
44429W        W16744  13.886  16.834  11.959
44430W        W16745  26.180  44.375  13.403
44431W        W16746  37.403   8.933  12.819
44432W        W16747   1.917   2.335   4.991
44433W        W16748  11.094  31.063   4.159
44434W        W16749  22.122   4.065   0.025
44435W        W16750  37.079  32.568   3.249
44436W        W16751   1.385  32.524   4.364
44437W        W16752  27.003   2.182  11.052
44438W        W16753  41.433  38.812  13.415
44439W        W16754  36.967  37.086   0.451
44440W        W16755   6.846  15.274  13.071
44441W        W16756  16.087   5.296  12.160
44442W        W16757  15.332  30.440   0.716
44443W        W16758   8.092  28.512  12.446
44444W        W16759   1.590  29.081   4.548
44445W        W16760  30.085   4.430   0.992
44446W        W16761  43.720  30.423  14.253
44447W        W16762  11.681   0.182   2.705
44448W        W16763   2.700  20.284   4.193
44449W        W16764  26.613  24.633   1.385
44450W        W16765  33.267  12.140  11.023
44451W        W16766  14.796  39.834   2.568
44452W        W16767   7.231  16.459   1.731
44453W        W16768   1.596  28.025   1.755
44454W        W16769   8.288  25.135   3.846
44455W        W16770  16.836  43.071  10.738
44456W        W16771   3.169  31.503  10.687
44457W        W16772  19.121  26.140   0.300
44458W        W16773  37.051  19.598  10.966
44459W        W16774   8.308  32.401  11.933
44460W        W16775  33.370  28.141  12.009
44461W        W16776  29.922  37.414   0.302
44462W        W16777  10.166   6.987  11.156
44463W        W16778  23.533  27.387   0.025
44464W        W16779  38.796  29.013   0.919
44465W        W16780  41.818  34.130   1.322
44466W        W16781  32.666  19.825   3.571
44467W        W16782  42.296  41.493  11.909
44468W        W16783  41.574   2.303  11.589
44469W        W16784  35.082  19.241   2.297
44470W        W16785   9.384  42.704  13.983
44471W        W16786   0.891   8.547   2.686
44472W        W16787  23.957  12.779   3.592
44473W        W16788  25.682  18.631   1.028
44474W        W16789   7.010  44.851  12.771
44475W        W16790  10.377  31.023   4.955
44476W        W16791  17.286   8.441   3.736
44477W        W16792   7.237   1.004  10.808
44478W        W16793  24.237  20.322   2.879
44479W        W16794  25.101  44.452   1.913
44480W        W16795  11.085   2.118  11.597
44481W        W16796  35.816  26.037  11.103
44482W        W16797  20.345  36.664  12.053
44483W        W16798  21.625  28.003  13.274
44484W        W16799   4.470  12.853   0.332
44485W        W16800   9.369  10.911   0.879
44486W        W16801  40.546  34.938   2.649
44487W        W16802  30.535  13.854   0.457
44488W        W16803   1.687  28.577   3.668
44489W        W16804  28.677  25.378   0.862
44490W        W16805  40.391  42.376   0.258
44491W        W16806  26.181  22.586  11.002
44492W        W16807   5.969   4.550   4.158
44493W        W16808   1.184  16.384   1.864
44494W        W16809  25.633  12.354   3.689
44495W        W16810   0.614   1.528  10.228
44496W        W16811  41.891   3.528  13.892
44497W        W16812  11.632  37.098   3.574
44498W        W16813  33.926   7.421   1.687
44499W        W16814   1.779  16.483  10.760
44500W        W16815   4.953   5.779  11.143
44501W        W16816  15.135  34.974   2.357
44502W        W16817   6.826  13.383   0.325
44503W        W16818  10.054  31.026  13.328
44504W        W16819  31.543   5.186   1.811
44505W        W16820  17.753  22.221   1.197
44506W        W16821  43.073  30.464   4.845
44507W        W16822   7.424  27.223  12.901
44508W        W16823  28.696  14.574  11.245
44509W        W16824   6.980  20.556   3.337
44510W        W16825  28.696  34.890   2.559
44511W        W16826   7.870  17.246  10.753
44512W        W16827   4.200  10.321   4.770
44513W        W16828  10.939  11.832  13.066
44514W        W16829  24.526  20.688  11.418
44515W        W16830  40.943   6.847  11.998
44516W        W16831  42.744   2.016  12.875
44517W        W16832  21.452  14.763   0.343
44518W        W16833  19.766   9.342  10.865
44519W        W16834  19.781   3.046   4.280
44520W        W16835  21.529   6.764   1.975
44521W        W16836  36.163  22.962   0.026
44522W        W16837  11.753  11.860   1.140
44523W        W16838  26.657  31.866   4.614
44524W        W16839  44.091   8.260   1.487
44525W        W16840   6.945  19.292  12.057
44526W        W16841  34.379  37.006   3.388
44527W        W16842  16.173  11.340  11.826
44528W        W16843  34.336  41.525  13.869
44529W        W16844  10.260  19.817  13.239
44530W        W16845  29.703  25.498  11.206
44531W        W16846  22.524  29.145  10.402
44532W        W16847   5.459   1.521  12.422
44533W        W16848  28.537  41.659   0.803
44534W        W16849  24.707  27.758   0.829
44535W        W16850   9.476  21.775   0.286
44536W        W16851  10.655  18.093   1.267
44537W        W16852  38.856  23.730   4.251
44538W        W16853  42.868  16.522   2.852
44539W        W16854  36.953  43.072   4.846
44540W        W16855   2.219  33.823  11.033
44541W        W16856  25.427  10.729  13.169
44542W        W16857  17.104  12.685   1.833
44543W        W16858  12.066  33.038  11.640
44544W        W16859  40.508   5.362   2.923
44545W        W16860  44.041  40.522  13.129
44546W        W16861  10.828  20.939   0.427
44547W        W16862  16.530   6.375   3.073
44548W        W16863  32.010  33.926  10.662
44549W        W16864   3.583  18.717   4.535
44550W        W16865  13.243  31.955   3.077
44551W        W16866  24.717  28.739  12.056
44552W        W16867  30.662  42.367  11.419
44553W        W16868  38.116  35.055  12.431
44554W        W16869  12.366  15.173   0.303
44555W        W16870   8.294  35.834   1.482
44556W        W16871  11.074  41.067  10.678
44557W        W16872  26.406   3.779   4.895
44558W        W16873  35.337  30.972   3.247
44559W        W16874  25.135  42.490  14.815
44560W        W16875   7.034  10.611   1.735
44561W        W16876  43.947  28.951   3.792
44562W        W16877  18.037  40.468  14.924
44563W        W16878  25.378  37.889   2.789
44564W        W16879  24.203  30.653  10.771
44565W        W16880  17.122  34.399   0.894
44566W        W16881  29.642  29.608   2.829
44567W        W16882  28.050  40.807   1.675
44568W        W16883  22.104  12.917  14.812
44569W        W16884  32.134   6.924   4.718
44570W        W16885  28.201  32.961   4.091
44571W        W16886  40.361  38.263   2.606
44572W        W16887   3.531   9.655   3.337
44573W        W16888  25.146  38.954   4.286
44574W        W16889   9.029  31.179   0.984
44575W        W16890  31.033  11.695   2.681
44576W        W16891  35.922  29.422  12.927
44577W        W16892  23.039   0.124  11.623
44578W        W16893  15.697  19.216   4.456
44579W        W16894  19.557  29.078  12.919
44580W        W16895  35.128  33.101  10.922
44581W        W16896  32.148  42.239   3.163
44582W        W16897  14.740  29.194   0.834
44583W        W16898   5.813  37.515   2.225
44584W        W16899  40.009   3.758   4.066
44585W        W16900   1.259   8.895   2.804
44586W        W16901  35.911   1.340   4.266
44587W        W16902  25.193   4.916   3.657
44588W        W16903   8.089   4.823  13.284
44589W        W16904  30.234  28.541   4.082
44590W        W16905  37.982  39.126  11.582
44591W        W16906   2.033  44.218  11.495
44592W        W16907  26.403   6.930  11.475
44593W        W16908  36.009  30.582  12.541
44594W        W16909   9.290   7.751  11.553
44595W        W16910  28.577   4.479  12.878
44596W        W16911  33.510  16.545  12.989
44597W        W16912  39.709  40.358  14.871
44598W        W16913  42.738  22.890  10.729
44599W        W16914  13.831   9.890  12.965
44600W        W16915  26.745  17.695   4.640
44601W        W16916   2.494  12.611  10.931
44602W        W16917  14.630  28.028  12.578
44603W        W16918   2.227  42.859  11.546
44604W        W16919  22.058  26.676   3.658
44605W        W16920  36.408   7.175  12.175
44606W        W16921   8.611   9.903   4.858
44607W        W16922  32.999   1.196  12.427
44608W        W16923  37.354  25.952  14.436
44609W        W16924  13.892   6.356  12.453
44610W        W16925  11.993  12.320   0.328
44611W        W16926  20.818  13.131  14.438
44612W        W16927  15.706  15.795   1.720
44613W        W16928  17.996  37.297  10.636
44614W        W16929  26.738  32.548   0.882
44615W        W16930  20.445   7.382  11.532
44616W        W16931  18.203  18.608   2.324
44617W        W16932   8.729   9.789   0.236
44618W        W16933  22.245  33.732  13.040
44619W        W16934  37.574  31.848  14.022
44620W        W16935  28.660  13.147   1.204
44621W        W16936  40.377   5.150  12.462
44622W        W16937   6.735  16.705  13.094
44623W        W16938  26.446  40.534   0.364
44624W        W16939  12.145  12.273  13.440
44625W        W16940  32.479  28.474   4.261
44626W        W16941  37.635  25.664   0.386
44627W        W16942  31.568  41.315   4.040
44628W        W16943  18.027   7.816  10.664
44629W        W16944  18.208  36.384   0.592
44630W        W16945  39.538  20.596   3.781
44631W        W16946  32.481   8.685  12.064
44632W        W16947   9.025   7.755  12.984
44633W        W16948  34.949  40.444  10.776
44634W        W16949  25.915  31.543   1.674
44635W        W16950  17.054  34.544  14.052
44636W        W16951  28.349  33.941  14.248
44637W        W16952  31.937  12.669  12.729
44638W        W16953  36.581   2.622   0.405
44639W        W16954  13.641  18.044   2.764
44640W        W16955  16.567  40.464   9.827
44641W        W16956  37.830  43.240   1.301
44642W        W16957  23.474  28.531  13.012
44643W        W16958  25.040   4.250  11.028
44644W        W16959  38.130   9.299  12.774
44645W        W16960   5.198  19.746   4.452
44646W        W16961  31.455  33.491   2.777
44647W        W16962  43.505  28.571   2.191
44648W        W16963   1.460   5.795   1.708
44649W        W16964  37.103   4.227  11.115
44650W        W16965  18.983  38.027   3.242
44651W        W16966  21.273  21.750  10.613
44652W        W16967  10.148  20.080  10.465
44653W        W16968  26.678  29.562   4.668
44654W        W16969   1.101  21.884  12.632
44655W        W16970  38.985  37.486  12.129
44656W        W16971  14.331  21.396  12.526
44657W        W16972  13.172  19.313   2.780
44658W        W16973   3.468  28.801  11.113
44659W        W16974  41.407  21.339   2.323
44660W        W16975  31.082  37.990   2.699
44661W        W16976   4.073  39.475  12.319
44662W        W16977  14.622  19.649  12.959
44663W        W16978   3.487  14.303   1.810
44664W        W16979  21.537  12.279   4.635
44665W        W16980  24.794   6.773   4.672
44666W        W16981  20.196  11.777   1.735
44667W        W16982  33.416  43.817  14.943
44668W        W16983  33.086  27.913  12.369
44669W        W16984  41.391  14.155   0.939
44670W        W16985  25.875  34.095   0.656
44671W        W16986   7.365  14.318   2.347
44672W        W16987  43.222  26.072  13.364
44673W        W16988  14.779  40.943  12.655
44674W        W16989  31.520   9.600  14.900
44675W        W16990  24.529   0.650  14.414
44676W        W16991  23.276  41.083   0.954
44677W        W16992  12.182  22.809   0.232
44678W        W16993  36.848   8.149   3.329
44679W        W16994  32.512  36.302   3.601
44680W        W16995  22.413  36.628  10.868
44681W        W16996  41.446  17.768   3.877
44682W        W16997  11.712  24.955  11.178
44683W        W16998   3.304  44.042  11.481
44684W        W16999  25.925  18.104   4.943
44685W        W17000   5.722  39.885  14.856
44686W        W17001  37.941  32.575  13.615
44687W        W17002  31.601  32.145   2.670
44688W        W17003  21.149  22.516   2.941
44689W        W17004   6.861   3.783  13.852
44690W        W17005  22.217  28.763   1.966
44691W        W17006   5.130  13.869   0.789
44692W        W17007  25.436   1.118   3.343
44693W        W17008   7.159  10.761   0.822
44694W        W17009   8.274  18.266   2.745
44695W        W17010  26.405   0.281   2.803
44696W        W17011   7.897  15.212   2.304
44697W        W17012   1.097  38.159  12.355
44698W        W17013   7.324  24.135   0.743
44699W        W17014  13.860  13.080   1.254
44700W        W17015  17.536  35.018  13.549
44701W        W17016  16.818  21.309  12.453
44702W        W17017  10.269  31.043  14.235
44703W        W17018  42.823  43.661  11.082
44704W        W17019   2.099  41.538  10.932
44705W        W17020   2.208  32.989  11.789
44706W        W17021  44.994  12.739  10.204
44707W        W17022   5.930  36.438  13.021
44708W        W17023  41.929  31.454  10.712
44709W        W17024  23.724  39.117  11.817
44710W        W17025  28.472  35.707  14.061
44711W        W17026   0.325  22.266   4.045
44712W        W17027  16.246   8.202  12.629
44713W        W17028  44.784  37.264  12.824
44714W        W17029  35.187  41.244  12.452
44715W        W17030  30.299  26.875  14.416
44716W        W17031  28.382  40.521  11.409
44717W        W17032  14.634   7.763   4.094
44718W        W17033  32.679   5.905  12.824
44719W        W17034  38.864   5.208   0.754
44720W        W17035  17.084   8.240  10.645
44721W        W17036  20.095  12.351  14.815
44722W        W17037   2.062  27.664   3.244
44723W        W17038  41.271  35.768  11.504
44724W        W17039  43.981  30.648   0.753
44725W        W17040  35.389  36.135   1.426
44726W        W17041   0.511  31.323   1.466
44727W        W17042  39.318  26.494  12.374
44728W        W17043  28.880  20.586   2.805
44729W        W17044  30.034  18.999   3.334
44730W        W17045  43.648  44.839  11.735
44731W        W17046  36.113  36.831  11.119
44732W        W17047  18.687  25.006   2.310
44733W        W17048   4.827  37.359   3.734
44734W        W17049   7.309  11.474   3.741
44735W        W17050   0.187   0.927  13.823
44736W        W17051  43.037   2.348   5.012
44737W        W17052  17.879  39.273  11.314
44738W        W17053   9.805  10.101   3.591
44739W        W17054  19.530   5.948  11.240
44740W        W17055  16.577  10.935   3.729
44741W        W17056  28.225  15.373   4.109
44742W        W17057   1.182  20.328   0.272
44743W        W17058  16.524  19.643  12.938
44744W        W17059  42.351  16.594   2.810
44745W        W17060  23.339  40.907   4.603
44746W        W17061  14.687  10.842   4.703
44747W        W17062  13.182  19.141  10.918
44748W        W17063  18.012  24.210   1.840
44749W        W17064  40.563   3.324  14.242
44750W        W17065  14.177  42.998  11.918
44751W        W17066  11.776  21.023   2.832
44752W        W17067  43.085  34.519  12.479
44753W        W17068   7.748  23.697   4.788
44754W        W17069   1.922  20.024   3.208
44755W        W17070  36.665  18.416  10.138
44756W        W17071  16.838  21.746  11.088
44757W        W17072  32.598  32.096   1.352
44758W        W17073  44.032  12.274  12.584
44759W        W17074  30.491  23.858   4.713
44760W        W17075   1.428   4.741  11.673
44761W        W17076  25.692  15.206  13.843
44762W        W17077  16.203  30.341   9.904
44763W        W17078   3.911  38.497   3.383
44764W        W17079  42.734   1.848  11.084
44765W        W17080  18.286  36.372   2.078
44766W        W17081  14.167  40.807   1.914
44767W        W17082  28.646  25.668   1.317
44768W        W17083  36.639  34.383   4.511
44769W        W17084   4.245  25.465  12.916
44770W        W17085  29.853  26.539  13.168
44771W        W17086  23.270  19.997  13.320
44772W        W17087   9.685  19.226   4.190
44773W        W17088  35.722  37.548   3.033
44774W        W17089  30.360   6.194   2.312
44775W        W17090  25.890   6.837   4.157
44776W        W17091  33.694  20.984   2.516
44777W        W17092  33.594   0.443   2.678
44778W        W17093  33.411  18.584   1.722
44779W        W17094   9.373   5.745  13.036
44780W        W17095  32.877  14.223  11.558
44781W        W17096  17.922  38.429  14.738
44782W        W17097  44.063  10.488   0.728
44783W        W17098   7.887   7.282   3.591
44784W        W17099   9.148   6.161   3.588
44785W        W17100  44.571  24.194   0.596
44786W        W17101   6.388  11.904   5.103
44787W        W17102  16.116  12.441   2.787
44788W        W17103  39.883  26.702   2.661
44789W        W17104  21.507   9.632   2.821
44790W        W17105  30.874   9.692   4.076
44791W        W17106  28.392  31.940  11.986
44792W        W17107   3.499  30.110   3.962
44793W        W17108  37.282  24.274  10.603
44794W        W17109  34.177  30.657   3.619
44795W        W17110  20.125  24.937   3.217
44796W        W17111  42.924   5.138   4.258
44797W        W17112  20.017  17.402  14.814
44798W        W17113  10.757  22.821  10.042
44799W        W17114  10.428  41.730  11.824
44800W        W17115  31.411  24.242   2.861
44801W        W17116  44.996  19.741   3.069
44802W        W17117  24.293  39.656   3.196
44803W        W17118  43.056  36.376  12.869
44804W        W17119  44.554   0.309   2.298
44805W        W17120  41.483  13.837  10.696
44806W        W17121  25.304  29.660   0.798
44807W        W17122  13.384  32.814   3.391
44808W        W17123  16.312  25.818   5.028
44809W        W17124  21.147  16.854   1.655
44810W        W17125  43.406  18.915  14.306
44811W        W17126  43.755  10.277   4.928
44812W        W17127  21.719   0.204  11.607
44813W        W17128  35.026  39.042  13.159
44814W        W17129  32.313  13.558   0.206
44815W        W17130   7.270  11.618   0.254
44816W        W17131  12.149  37.202  14.963
44817W        W17132   8.910  38.608  13.044
44818W        W17133  26.006  42.617  13.974
44819W        W17134  44.160  24.158  13.515
44820W        W17135  37.608   5.840  12.516
44821W        W17136   9.055  18.107  11.561
44822W        W17137   6.459   0.059   3.833
44823W        W17138  25.204  27.145  12.819
44824W        W17139  21.794  25.243  11.699
44825W        W17140  42.193  42.543  13.396
44826W        W17141  17.060  39.784   1.395
44827W        W17142  15.609  34.409  10.246
44828W        W17143  18.720   3.025  12.102
44829W        W17144  16.056  29.453   3.374
44830W        W17145  26.206  12.921  14.753
44831W        W17146  25.744  18.269   9.975
44832W        W17147  27.100  22.956  10.621
44833W        W17148  29.330  12.779   0.172
44834W        W17149  23.035  37.131   1.408
44835W        W17150  31.375   5.694  14.054
44836W        W17151   4.617   2.850  12.982
44837W        W17152  32.489  30.180   0.064
44838W        W17153   1.792  34.915   2.724
44839W        W17154  19.512  35.957  11.560
44840W        W17155   6.693  35.900   0.978
44841W        W17156  23.120  22.969  11.032
44842W        W17157  18.380   6.194   3.849
44843W        W17158  13.275  15.000   0.907
44844W        W17159  32.390  22.844   4.340
44845W        W17160  42.416  30.168   0.517
44846W        W17161  17.391  23.673   4.622
44847W        W17162  13.407   3.564  14.215
44848W        W17163  15.611  19.681  12.011
44849W        W17164  37.506  15.145  14.586
44850W        W17165  14.158   8.534  14.979
44851W        W17166  31.012   6.087   3.656
44852W        W17167   1.019   7.928   3.680
44853W        W17168  30.233  32.335  12.009
44854W        W17169   8.299  35.445  13.012
44855W        W17170  31.155  13.192  12.021
44856W        W17171   5.756   0.714   0.241
44857W        W17172  25.027  19.236  13.977
44858W        W17173  15.763  14.879  12.892
44859W        W17174  18.085  29.116  14.405
44860W        W17175  12.202  20.144   3.293
44861W        W17176   5.240  25.415   1.398
44862W        W17177   2.275  15.058   2.999
44863W        W17178  44.400  16.064   2.703
44864W        W17179   3.322  24.841   1.985
44865W        W17180  33.880  37.533   4.494
44866W        W17181  38.448  33.710   4.945
44867W        W17182  20.555   4.179  11.663
44868W        W17183  13.169   7.197  12.043
44869W        W17184  42.571  43.274  12.606
44870W        W17185   5.135  42.591  10.823
44871W        W17186   1.836  33.484  13.070
44872W        W17187  33.159  39.064   0.517
44873W        W17188   0.385  30.034  12.407
44874W        W17189  28.702   2.293   2.724
44875W        W17190  30.642  39.899  10.644
44876W        W17191  14.112  21.073   4.568
44877W        W17192  44.375   4.959   1.173
44878W        W17193  30.719  41.340  14.642
44879W        W17194   7.736  11.378   1.133
44880W        W17195  32.777  39.953   1.752
44881W        W17196  36.870   4.456  14.518
44882W        W17197  14.865  35.212  14.483
44883W        W17198   4.831   4.401   3.585
44884W        W17199  32.701  19.643   2.323
44885W        W17200  39.940   8.141   0.421
44886W        W17201  33.984  12.850  14.565
44887W        W17202  36.448  38.270  11.587
44888W        W17203  37.576  19.788  13.862
44889W        W17204  19.428  16.768   3.227
44890W        W17205  33.574  43.048   4.387
44891W        W17206  16.333  15.121   0.774
44892W        W17207   1.305   9.602   1.839
44893W        W17208   2.720  38.138   2.663
44894W        W17209   7.297   8.842  12.432
44895W        W17210  44.340  30.543   0.368
44896W        W17211  14.348  15.604  11.491
44897W        W17212  30.530  31.027   1.316
44898W        W17213  14.392  32.773   3.317
44899W        W17214  13.522  41.988  12.425
44900W        W17215   0.422  20.090  14.275
44901W        W17216  32.952  42.173  12.426
44902W        W17217  17.098  21.137   1.875
44903W        W17218  25.298  15.110  11.134
44904W        W17219  31.139  40.640  11.095
44905W        W17220  24.520  13.405   3.228
44906W        W17221  33.952  17.858  14.346
44907W        W17222  17.059  35.102  10.677
44908W        W17223  41.997  15.248   0.825
44909W        W17224  43.259  23.492   3.304
44910W        W17225   2.777  22.502  14.360
44911W        W17226  29.239   1.036   1.906
44912W        W17227  27.516  34.882  11.613
44913W        W17228  38.582  25.039   4.395
44914W        W17229  27.992  23.091   3.186
44915W        W17230   1.170  38.382  14.060
44916W        W17231   7.201  40.115  13.925
44917W        W17232  25.487   2.719   3.574
44918W        W17233   6.845  37.014   3.635
44919W        W17234  44.148  27.080   2.404
44920W        W17235   1.373   9.098  12.473
44921W        W17236  19.903  13.170   0.430
44922W        W17237  21.194  35.293   1.859
44923W        W17238  34.911  24.045   4.554
44924W        W17239  37.325   6.392   0.269
44925W        W17240  21.024  38.344  10.364
44926W        W17241  30.626  23.601  10.837
44927W        W17242  34.875  34.269   1.696
44928W        W17243  34.501  43.578  13.235
44929W        W17244  33.603  11.309   3.643
44930W        W17245   7.902  20.520   0.432
44931W        W17246  22.364  23.083   3.271
44932W        W17247  27.461  10.874   2.242
44933W        W17248  19.339   9.920   0.958
44934W        W17249  29.894   5.765  10.686
44935W        W17250  34.132  36.160   4.131
44936W        W17251  15.278  18.662   0.806
44937W        W17252  23.155   7.964   0.976
44938W        W17253  33.351  34.128  14.987
44939W        W17254  31.029   3.795  13.849
44940W        W17255  29.735  37.555   3.537
44941W        W17256  37.083   1.517   4.051
44942W        W17257  32.121   7.434   9.963
44943W        W17258  43.028  39.957  12.883
44944W        W17259   7.866  35.095  10.626
44945W        W17260  44.372  42.263  13.894
44946W        W17261  44.414  19.499   1.098
44947W        W17262  34.455  13.198  13.365
44948W        W17263   2.211   9.417   4.146
44949W        W17264   6.663  19.173  14.674
44950W        W17265   6.178   8.168  13.420
44951W        W17266   4.416  14.552  12.079
44952W        W17267  11.867  16.483  12.601
44953W        W17268  26.308  31.629   4.246
44954W        W17269  40.355  16.053   1.404
44955W        W17270  44.840  32.206   2.330
44956W        W17271  37.570  43.785  12.077
44957W        W17272  22.855  39.829  12.629
44958W        W17273  32.533  37.159   2.378
44959W        W17274  38.423  29.593   1.868
44960W        W17275  39.614   3.777  14.796
44961W        W17276  24.926  28.960  13.297
44962W        W17277  37.455  42.504  13.084
44963W        W17278  12.346   2.428  11.594
44964W        W17279  21.706  23.708  12.029
44965W        W17280  25.921  19.195   4.069
44966W        W17281   5.370  10.984  12.483
44967W        W17282  17.844  41.983  11.155
44968W        W17283  24.024   7.209  11.646
44969W        W17284   7.806   1.506  13.995
44970W        W17285   6.953  31.749  13.415
44971W        W17286  31.759  40.109   2.752
44972W        W17287  40.462   7.636  13.068
44973W        W17288  39.535  33.803   0.489
44974W        W17289   8.931  13.714  12.670
44975W        W17290   7.271  23.421  13.370
44976W        W17291  16.754  10.706   0.467
44977W        W17292  25.500  44.295   0.759
44978W        W17293  33.021  32.064  12.623
44979W        W17294   6.425   7.630   1.971
44980W        W17295  29.689  31.604  13.951
44981W        W17296  36.422  38.563  14.358
44982W        W17297  19.308  38.161   4.121
44983W        W17298  24.247  29.548  12.547
44984W        W17299   3.040  40.267  11.525
44985W        W17300   1.549  20.050   1.197
44986W        W17301  24.912  16.049  11.250
44987W        W17302  32.583   8.481  12.553
44988W        W17303  22.239  25.446  10.675
44989W        W17304  41.535   6.301   2.670
44990W        W17305   1.872   6.747   3.505
44991W        W17306  26.836  10.031  13.950
44992W        W17307  21.368  31.840  12.999
44993W        W17308  37.429  40.066  10.117
44994W        W17309   4.605  41.113   2.304
44995W        W17310  39.457  14.100  10.720
44996W        W17311  12.268   5.614   1.366
44997W        W17312  16.182  30.974   3.833
44998W        W17313  17.151   1.463  11.968
44999W        W17314  19.668   1.697   1.842
45000W        W17315  21.005  29.421  12.679
45001W        W17316  36.804  38.167   1.236
45002W        W17317  18.134  23.692   3.120
45003W        W17318  25.177  27.320  10.992
45004W        W17319   9.813  14.810   1.867
45005W        W17320  43.355  32.833   3.665
45006W        W17321  43.023  29.709   4.076
45007W        W17322  40.299  22.415  13.779
45008W        W17323  13.614  37.312  12.393
45009W        W17324  35.333  39.856   2.855
45010W        W17325  10.747  25.489  13.270
45011W        W17326  18.367  34.704  12.434
45012W        W17327  40.340  22.532  11.160
45013W        W17328  32.006  23.950   3.680
45014W        W17329   9.656  26.529   2.678
45015W        W17330  30.574  25.745  11.569
45016W        W17331  36.048  28.951  13.823
45017W        W17332  40.957  41.093   1.553
45018W        W17333  19.249  15.780   0.483
45019W        W17334  34.555  23.274  13.580
45020W        W17335  19.169   8.572   2.609
45021W        W17336  29.099   0.054  13.938
45022W        W17337  31.900  17.140  12.851
45023W        W17338   2.015  24.708   1.601
45024W        W17339   1.036  11.725   4.873
45025W        W17340  14.362   3.029   2.793
45026W        W17341  32.928  20.512  11.645
45027W        W17342  10.906   2.149   4.010
45028W        W17343   1.362   6.257   3.778
45029W        W17344  23.511  38.055  11.627
45030W        W17345  17.618   3.900  10.540
45031W        W17346  34.107  22.217  13.755
45032W        W17347  31.320  29.231   0.484
45033W        W17348  41.359  44.555  10.475
45034W        W17349  33.014  43.282   1.791
45035W        W17350   5.213  24.700   4.200
45036W        W17351  18.369  37.032  14.345
45037W        W17352  38.819  31.489  11.951
45038W        W17353  25.795   6.225  12.892
45039W        W17354  39.889   1.828  13.088
45040W        W17355  31.941   5.313   0.951
45041W        W17356   2.939  14.255  11.630
45042W        W17357   6.842  33.586   3.205
45043W        W17358   1.241  23.524   0.998
45044W        W17359  43.528  36.721  13.918
45045W        W17360   6.851  18.690   4.294
45046W        W17361  30.960  21.187   2.417
45047W        W17362  43.434  36.671  14.819
45048W        W17363  30.127  34.032   2.808
45049W        W17364  42.435   2.494  14.395
45050W        W17365   4.398  19.283  12.288
45051W        W17366  43.281  11.043   0.294
45052W        W17367   7.851  33.344   2.795
45053W        W17368  44.283   3.271  10.616
45054W        W17369  17.870   4.021   4.685
45055W        W17370   1.778  34.366   1.803
45056W        W17371  15.828  31.433  13.935
45057W        W17372   6.969  27.327  12.657
45058W        W17373  20.164   5.300   3.610
45059W        W17374  40.326   1.410   2.266
45060W        W17375  20.542  26.226   4.760
45061W        W17376  15.876  12.662   0.356
45062W        W17377  14.295  33.016   2.837
45063W        W17378  41.868  24.883  10.834
45064W        W17379  23.801   4.728   5.163
45065W        W17380  29.559   1.759   1.272
45066W        W17381  23.696   2.167   0.790
45067W        W17382  19.623  22.113   2.645
45068W        W17383  39.882  28.532  12.651
45069W        W17384  43.868  43.578   2.747
45070W        W17385  31.510  22.885   3.165
45071W        W17386  35.406  44.086  13.423
45072W        W17387  43.039  25.160  13.881
45073W        W17388  34.307  30.841  13.499
45074W        W17389  35.663  21.700   3.721
45075W        W17390   1.336  14.759  10.697
45076W        W17391  21.295  19.142  14.464
45077W        W17392  34.958  26.232  12.451
45078W        W17393   3.172  13.037   1.377
45079W        W17394   9.378  18.732   5.006
45080W        W17395   4.443  35.489  12.843
45081W        W17396   9.706  26.943   4.801
45082W        W17397  22.504   2.481  12.731
45083W        W17398  22.143  41.183   0.165
45084W        W17399  34.658  11.868   4.164
45085W        W17400  18.273  21.135   2.897
45086W        W17401   6.496  27.676   3.228
45087W        W17402  40.829  34.508   0.277
45088W        W17403  28.999  41.897   4.106
45089W        W17404  27.441  32.101  11.532
45090W        W17405   3.440  43.531   4.854
45091W        W17406  35.835   2.851  14.216
45092W        W17407  13.940  27.686   0.328
45093W        W17408  23.943  34.422   3.632
45094W        W17409  41.001  25.503   2.422
45095W        W17410  18.711  18.790   2.294
45096W        W17411  18.495  14.418  12.114
45097W        W17412  38.030  15.352  10.482
45098W        W17413  27.081  19.540   4.500
45099W        W17414  12.729   1.227  10.864
45100W        W17415  32.501  34.658   4.214
45101W        W17416  39.748   0.729   4.434
45102W        W17417  30.539  30.456  10.444
45103W        W17418  31.659  39.638  13.967
45104W        W17419  40.813  13.544   3.657
45105W        W17420  16.689  27.282   4.595
45106W        W17421  15.006  29.949   4.131
45107W        W17422  28.326  30.891   1.744
45108W        W17423  28.628  31.384  14.585
45109W        W17424   3.836  20.882  11.398
45110W        W17425  25.261  34.085  11.304
45111W        W17426   0.502  26.383   0.372
45112W        W17427  29.453  31.189  11.956
45113W        W17428  44.737  17.595   3.960
45114W        W17429  42.289  21.938   2.245
45115W        W17430   3.618  32.847  10.119
45116W        W17431  40.799   4.685  13.136
45117W        W17432  33.592  35.873  11.607
45118W        W17433  40.187  37.097  12.486
45119W        W17434   8.556  12.640   4.244
45120W        W17435  37.894   2.890   1.439
45121W        W17436  11.744  43.728   0.791
45122W        W17437  30.100  11.837  14.014
45123W        W17438  24.668   1.908  13.964
45124W        W17439  36.886   4.194  12.089
45125W        W17440  36.130  13.510  13.830
45126W        W17441  18.454   8.194   0.276
45127W        W17442  18.618   9.861   1.610
45128W        W17443  31.510  27.281  12.032
45129W        W17444  22.444   8.256  10.763
45130W        W17445  25.171  30.886   0.249
45131W        W17446  11.738  43.529  13.524
45132W        W17447  37.925  11.751  12.533
45133W        W17448  29.428   9.417  14.204
45134W        W17449  18.677  21.537  10.670
45135W        W17450  21.759  29.606   3.369
45136W        W17451  33.004  15.109   2.940
45137W        W17452   1.386  34.018   1.816
45138W        W17453  22.517  14.691   2.228
45139W        W17454  44.552   8.342   3.706
45140W        W17455  23.271  37.950  11.185
45141W        W17456  25.000  28.927  14.280
45142W        W17457  17.532  16.727  13.356
45143W        W17458   0.181  29.666   2.209
45144W        W17459  44.330  13.949  14.485
45145W        W17460  31.069   6.401   4.650
45146W        W17461  22.548   7.675  10.550
45147W        W17462  15.276  43.383  14.021
45148W        W17463  41.342  27.312   4.210
45149W        W17464  37.199  15.734   2.283
45150W        W17465  13.713  11.445   4.223
45151W        W17466  27.943  22.960  12.989
45152W        W17467  10.429  28.314  13.879
45153W        W17468  39.512  40.795  10.214
45154W        W17469  10.680  36.473  12.604
45155W        W17470   6.077  24.912   5.019
45156W        W17471  21.403  37.947   1.869
45157W        W17472  25.526  15.654   2.531
45158W        W17473   5.357  21.185   4.663
45159W        W17474  34.033  38.331   1.818
45160W        W17475  21.117  20.928  11.721
45161W        W17476  25.990  35.334   3.775
45162W        W17477  19.492  34.870   4.183
45163W        W17478  40.388  32.323   1.983
45164W        W17479  44.240  28.811   0.908
45165W        W17480   3.794  26.986  13.624
45166W        W17481  21.112  10.819   4.144
45167W        W17482   0.119   7.377   0.003
45168W        W17483  43.254  16.639   3.701
45169W        W17484   7.815  32.904   0.978
45170W        W17485  13.933  44.837   2.383
45171W        W17486  35.659   6.648  11.608
45172W        W17487  38.238  23.532  11.015
45173W        W17488   4.894   9.356   0.890
45174W        W17489  41.561  19.875  12.915
45175W        W17490  43.306  16.271  12.959
45176W        W17491   9.250  34.585   4.584
45177W        W17492  26.915  37.788   0.750
45178W        W17493  13.584  21.014  12.957
45179W        W17494  11.259  40.387   2.675
45180W        W17495  31.996  13.298   0.931
45181W        W17496  33.424  32.433   4.736
45182W        W17497  14.169  10.368  11.078
45183W        W17498  25.062  21.837   4.076
45184W        W17499  11.116  16.699  10.113
45185W        W17500  12.566  11.796  14.887
45186W        W17501  41.798  10.541   2.589
45187W        W17502   5.845  34.388  12.542
45188W        W17503   5.957  19.251   0.345
45189W        W17504   2.793  37.002   4.930
45190W        W17505  12.656  35.553  11.025
45191W        W17506  24.437  34.551  13.688
45192W        W17507  30.007  26.498  12.650
45193W        W17508  26.645  37.234   2.124
45194W        W17509  22.689   0.979   3.383
45195W        W17510   1.965  40.103  14.800
45196W        W17511  20.988  26.857  10.251
45197W        W17512  38.905  20.416   4.327
45198W        W17513  33.149  44.275  12.086
45199W        W17514  20.739  37.829   1.251
45200W        W17515  35.133  10.650   4.664
45201W        W17516  16.120  44.375  11.846
45202W        W17517   9.527  32.591   4.505
45203W        W17518   2.164   6.247  14.929
45204W        W17519  14.205  13.513  12.516
45205W        W17520  40.921  28.710  11.208
45206W        W17521  14.361  29.593   2.367
45207W        W17522  34.897  15.205  13.574
45208W        W17523  20.530  24.722  14.321
45209W        W17524   9.539   9.240  14.040
45210W        W17525  28.909  32.582  11.450
45211W        W17526  18.636  16.057   2.809
45212W        W17527  37.299  24.550   1.490
45213W        W17528   3.434  13.552  10.699
45214W        W17529  18.525  31.029   3.271
45215W        W17530   9.232   2.717  12.039
45216W        W17531  20.853  17.873  14.847
45217W        W17532  11.578   1.748   3.213
45218W        W17533  28.180   4.031   4.006
45219W        W17534  22.183   4.753  11.040
45220W        W17535   3.740  18.607  12.780
45221W        W17536  27.010  17.784  13.175
45222W        W17537  29.888  18.140   0.172
45223W        W17538  37.022  28.076  12.525
45224W        W17539  32.410  18.145   4.010
45225W        W17540  41.517   8.629   3.270
45226W        W17541  22.018  16.508   3.613
45227W        W17542  25.789  31.603   4.060
45228W        W17543   9.421  44.803   1.801
45229W        W17544  36.571  12.176   2.635
45230W        W17545  41.926  11.392   2.267
45231W        W17546  42.329  33.538  11.959
45232W        W17547  16.821  33.334  13.446
45233W        W17548  40.912   9.449  12.462
45234W        W17549   9.271  41.390   0.564
45235W        W17550   3.280  17.155  14.752
45236W        W17551  37.137  21.208   0.422
45237W        W17552  23.619  10.710  14.405
45238W        W17553  29.509   1.024   1.063
45239W        W17554  38.959  35.896  11.509
45240W        W17555  35.183  29.884   3.815
45241W        W17556   2.975  43.748   2.434
45242W        W17557  29.947  11.070   0.473
45243W        W17558  27.010   7.281  12.433
45244W        W17559   1.925  10.162  13.087
45245W        W17560   6.814  21.378  13.061
45246W        W17561  28.874  19.325  13.069
45247W        W17562   9.722  15.750  11.293
45248W        W17563   2.487  12.273  12.107
45249W        W17564   4.874  21.313  13.845
45250W        W17565  36.310  20.499  14.469
45251W        W17566  25.239   1.771  10.758
45252W        W17567   3.783  28.700  14.327
45253W        W17568  15.047  14.650   0.896
45254W        W17569  24.652  11.895  14.921
45255W        W17570  10.114  28.510  12.380
45256W        W17571  42.496   3.798   4.897
45257W        W17572  25.171  32.460   2.713
45258W        W17573   2.709  14.244  12.571
45259W        W17574  30.146  34.243   1.111
45260W        W17575  38.809   1.247  13.904
45261W        W17576  20.139   7.255   4.661
45262W        W17577   6.274  20.764   1.875
45263W        W17578  35.483   3.748  13.445
45264W        W17579   8.206   6.298  12.458
45265W        W17580  22.003  27.673  11.196
45266W        W17581  40.960  31.715  11.238
45267W        W17582  37.517  14.369  10.829
45268W        W17583  22.559  40.276  14.207
45269W        W17584  39.808  29.095  13.836
45270W        W17585   4.424   4.855   1.030
45271W        W17586   5.216  21.696   3.238
45272W        W17587   0.436  38.590  11.968
45273W        W17588  21.283  13.316  14.303
45274W        W17589  31.105  21.128  12.380
45275W        W17590  29.076  30.656  14.660
45276W        W17591  15.260  36.771   2.657
45277W        W17592  12.266  22.756   4.884
45278W        W17593   4.752  43.358   4.420
45279W        W17594   2.896  37.629   2.647
45280W        W17595   9.454  13.353  12.054
45281W        W17596  31.575  44.989  13.998
45282W        W17597  27.916   5.399  11.822
45283W        W17598  21.559   7.141   2.815
45284W        W17599  19.469  21.578   4.562
45285W        W17600  19.747  20.119   0.081
45286W        W17601   9.852  17.810  12.612
45287W        W17602  19.029  28.003  12.471
45288W        W17603  27.928  41.456   3.222
45289W        W17604  44.594  18.621  11.096
45290W        W17605   0.233  34.449  14.869
45291W        W17606  36.373  40.318   0.846
45292W        W17607   1.056  14.079  10.231
45293W        W17608  39.816  29.103  11.045
45294W        W17609  12.909  17.556   0.862
45295W        W17610   3.264  11.257  10.248
45296W        W17611  14.120  33.396  13.373
45297W        W17612   7.824  21.044   3.014
45298W        W17613  40.410  15.706  14.002
45299W        W17614  32.297  44.385  13.379
45300W        W17615  20.598  15.785   4.812
45301W        W17616  30.650   9.001   0.723
45302W        W17617   9.216  19.230  12.388
45303W        W17618   9.972  24.958  12.095
45304W        W17619  36.012   6.587  14.257
45305W        W17620  23.219  42.356   4.521
45306W        W17621   7.648  37.073   2.333
45307W        W17622  16.179  32.464  14.206
45308W        W17623  13.218  40.406   1.299
45309W        W17624  35.416  19.679  13.372
45310W        W17625   9.137  18.634  13.020
45311W        W17626  22.977  17.269  11.540
45312W        W17627  29.656   7.354  12.039
45313W        W17628   9.129  19.684  12.671
45314W        W17629   2.055  23.049   2.500
45315W        W17630  13.572  10.174   1.448
45316W        W17631  11.937  29.495  14.849
45317W        W17632  18.924  40.208   5.429
45318W        W17633  18.693  10.568   2.365
45319W        W17634  12.650  20.823  11.605
45320W        W17635  26.441  19.586   2.475
45321W        W17636  38.727   5.956  11.246
45322W        W17637  13.267   6.353  10.721
45323W        W17638  20.852  19.527   0.694
45324W        W17639  11.407  15.272   1.760
45325W        W17640  36.835  33.518   1.889
45326W        W17641  12.654  23.673  14.093
45327W        W17642  38.035  38.489  13.480
45328W        W17643  41.433   4.343   4.015
45329W        W17644  31.993   4.924   1.697
45330W        W17645  44.779  28.559   4.173
45331W        W17646  13.148  34.475   5.140
45332W        W17647  28.356   2.468  12.928
45333W        W17648  16.396  40.197   4.139
45334W        W17649  25.929  42.424   0.323
45335W        W17650   1.331  24.131   4.869
45336W        W17651   9.398  17.283  13.169
45337W        W17652  38.076  11.932   3.169
45338W        W17653  35.270  16.150  12.431
45339W        W17654  26.671  12.018  11.558
45340W        W17655  29.843  22.524   0.788
45341W        W17656   2.646   6.805   1.130
45342W        W17657  20.152   2.725  13.577
45343W        W17658   6.400  30.144   2.974
45344W        W17659  17.258  41.332   0.587
45345W        W17660  44.004   8.092  13.955
45346W        W17661   8.987   7.349  11.572
45347W        W17662  22.492  29.437   4.619
45348W        W17663  29.963   8.163  11.146
45349W        W17664  33.029  16.158  11.989
45350W        W17665   0.182  22.602  13.505
45351W        W17666  38.315   8.781  14.646
45352W        W17667  12.073  30.891   3.172
45353W        W17668  39.426  25.159   4.592
45354W        W17669  37.017  11.347   4.173
45355W        W17670  19.270  18.640  12.045
45356W        W17671  19.081  25.674   3.138
45357W        W17672  33.332   3.021   2.325
45358W        W17673  32.386  13.557  11.960
45359W        W17674  15.229  17.847   3.135
45360W        W17675  22.432  28.644   0.958
45361W        W17676  42.120  24.267   2.298
45362W        W17677   5.007  10.923  13.326
45363W        W17678  40.553  40.925  11.390
45364W        W17679  27.976  34.534   2.237
45365W        W17680  41.768  29.308  11.051
45366W        W17681  24.350  18.534  12.131
45367W        W17682  28.068   4.223  11.967
45368W        W17683  37.558   2.088   1.178
45369W        W17684   0.180  27.108  14.869
45370W        W17685  21.348  13.695  12.867
45371W        W17686   9.190  20.491  12.933
45372W        W17687  38.404  35.155  13.190
45373W        W17688  33.840  44.766  14.771
45374W        W17689  37.529  27.566  13.674
45375W        W17690   0.016  30.180  13.999
45376W        W17691  21.965   7.219   0.989
45377W        W17692  23.115  27.594  14.815
45378W        W17693   8.633   5.439  12.608
45379W        W17694  31.925  12.798  13.250
45380W        W17695  27.935  25.686  12.972
45381W        W17696  21.748  29.041  13.062
45382W        W17697  28.170  40.528  14.422
45383W        W17698  31.611   7.243  11.727
45384W        W17699  39.503   1.352   2.678
45385W        W17700  13.110  31.177  12.417
45386W        W17701  29.161  23.972  14.828
45387W        W17702  22.615  19.419  12.422
45388W        W17703  33.805  26.148  14.533
45389W        W17704   3.261  25.399  12.949
45390W        W17705  20.813  15.726   3.364
45391W        W17706  19.509  38.998  13.524
45392W        W17707  14.629   2.142   2.795
45393W        W17708  20.087   4.773  13.579
45394W        W17709  11.795   0.841   4.804
45395W        W17710  31.654  41.486   3.557
45396W        W17711  13.861  23.679   2.216
45397W        W17712  17.493  32.591   1.177
45398W        W17713  12.894  31.472   1.415
45399W        W17714  13.702  26.667  12.002
45400W        W17715  18.842  16.057   2.329
45401W        W17716   3.326  43.624   1.286
45402W        W17717  17.794  11.368   0.814
45403W        W17718   6.851   1.598  11.156
45404W        W17719  26.262   3.421   1.435
45405W        W17720  40.729  19.879   1.407
45406W        W17721  12.187  33.434  13.018
45407W        W17722  27.150  20.803  12.415
45408W        W17723  44.434  22.005   3.314
45409W        W17724  34.970  28.382  10.738
45410W        W17725   2.695  21.031  12.121
45411W        W17726  20.184  37.695  11.696
45412W        W17727  42.790   0.922   2.286
45413W        W17728  20.174  37.908   2.907
45414W        W17729  24.595  39.012  11.539
45415W        W17730  41.495  22.741   4.144
45416W        W17731  36.923  36.987   4.339
45417W        W17732   0.378  28.329   2.049
45418W        W17733  19.975  26.097  12.752
45419W        W17734  21.168  22.973  14.839
45420W        W17735  10.626  31.410   4.167
45421W        W17736   3.420  20.511  14.059
45422W        W17737   5.199  34.406  11.572
45423W        W17738  37.907  30.103   2.410
45424W        W17739  31.974   5.159   2.910
45425W        W17740  21.716  38.934  11.346
45426W        W17741   4.461   0.380   2.703
45427W        W17742   4.689  31.136  12.047
45428W        W17743  36.084  36.494  12.865
45429W        W17744  35.125  41.391   3.421
45430W        W17745  23.746  15.557  12.876
45431W        W17746   0.464   4.866   4.637
45432W        W17747  26.430  38.990   3.813
45433W        W17748  42.207  25.456  10.955
45434W        W17749  32.598   7.313  14.989
45435W        W17750  40.139   8.406  12.847
45436W        W17751  29.067   7.754  14.250
45437W        W17752  19.217  23.560   4.396
45438W        W17753  16.238  33.803   4.197
45439W        W17754   7.848  24.162   2.153
45440W        W17755  28.747  24.057  12.564
45441W        W17756  28.822  44.257   4.273
45442W        W17757  22.429  42.161   3.144
45443W        W17758  41.551  39.071  14.404
45444W        W17759  35.133  30.135  14.983
45445W        W17760  15.740   6.666   0.095
45446W        W17761   3.846  17.344   4.581
45447W        W17762  43.001  43.051  12.759
45448W        W17763  19.237   3.859   4.151
45449W        W17764  41.759  41.962   2.334
45450W        W17765  23.753   7.157  12.449
45451W        W17766   8.923  19.737   1.904
45452W        W17767  14.778  30.380  14.856
45453W        W17768  19.678   3.589  11.637
45454W        W17769  17.018  29.552   3.762
45455W        W17770  38.574  19.771   3.635
45456W        W17771  40.856  37.359   3.221
45457W        W17772  31.133   7.221  11.469
45458W        W17773  19.143  21.663   1.363
45459W        W17774   9.919   7.509   2.796
45460W        W17775   4.398  23.756  11.573
45461W        W17776  36.586  28.414  12.471
45462W        W17777  21.734  27.396   1.829
45463W        W17778  40.680  42.275   0.707
45464W        W17779  39.075  22.715  14.880
45465W        W17780  42.743  15.507   3.728
45466W        W17781  40.388  37.331  14.740
45467W        W17782  14.152   1.454   4.553
45468W        W17783  25.783  29.429  10.863
45469W        W17784   9.075  23.732   2.128
45470W        W17785  24.212  13.189  11.038
45471W        W17786  19.061  20.251  10.831
45472W        W17787  35.624  23.663  12.403
45473W        W17788  38.005   1.325  12.455
45474W        W17789  38.338   0.355  12.337
45475W        W17790  18.736  12.612  10.304
45476W        W17791  42.244   1.256   4.076
45477W        W17792  25.007   8.820   0.514
45478W        W17793  11.232  33.458   2.188
45479W        W17794  26.995  10.261  11.675
45480W        W17795  20.579  37.573  12.682
45481W        W17796  26.353   0.794   2.737
45482W        W17797  31.207  38.519   4.713
45483W        W17798  31.685   6.429   3.798
45484W        W17799  36.961  35.333   2.219
45485W        W17800  37.980  28.930   0.436
45486W        W17801  32.685   3.962   4.039
45487W        W17802  10.000  32.614   3.365
45488W        W17803   1.390  11.237  11.200
45489W        W17804  41.775   8.127  11.127
45490W        W17805  20.202  29.434  11.642
45491W        W17806  42.500  43.183  10.539
45492W        W17807  14.738   9.712  12.013
45493W        W17808  41.440  42.642   1.665
45494W        W17809  23.228  16.785  13.135
45495W        W17810  24.882  22.259   2.789
45496W        W17811   7.903  12.614  12.505
45497W        W17812  40.266   4.924   2.748
45498W        W17813  23.324  13.159   2.805
45499W        W17814  19.284  37.835   0.019
45500W        W17815   3.343   4.967   4.535
45501W        W17816  32.963   4.931   0.776
45502W        W17817  41.226   2.427  12.536
45503W        W17818  16.229  40.505   5.188
45504W        W17819   3.101  11.082   2.677
45505W        W17820   0.261  27.547  11.895
45506W        W17821  35.862  21.003  11.047
45507W        W17822   9.251  15.600   2.927
45508W        W17823  43.998  18.200   0.819
45509W        W17824  29.536  34.020   0.462
45510W        W17825  18.586  31.863  14.766
45511W        W17826  41.835  19.822  12.424
45512W        W17827  19.483  14.969   4.221
45513W        W17828  25.252  24.629  12.838
45514W        W17829  26.906  25.774  12.334
45515W        W17830   4.972   0.932  11.603
45516W        W17831   0.085  44.989  11.522
45517W        W17832  23.741  21.198  12.918
45518W        W17833   8.200  18.134   0.863
45519W        W17834   3.956  34.648  14.496
45520W        W17835  19.118  32.211  13.433
45521W        W17836  33.402  40.437   0.357
45522W        W17837  41.529  44.786  11.177
45523W        W17838  34.209   3.068  12.009
45524W        W17839   1.278   3.155  13.896
45525W        W17840  41.817  31.234   3.734
45526W        W17841  32.107  17.514  10.913
45527W        W17842  15.080  24.546  12.415
45528W        W17843  26.468  35.901   2.833
45529W        W17844  11.275  12.579  13.886
45530W        W17845  31.567   2.233   3.366
45531W        W17846   5.932  22.549   3.493
45532W        W17847  31.797  30.129   1.908
45533W        W17848  20.226  19.865  14.838
45534W        W17849   9.828  28.515   4.385
45535W        W17850   9.671  41.133  13.019
45536W        W17851   5.416  28.032  14.385
45537W        W17852  14.176   4.744   2.595
45538W        W17853  44.575  16.201   0.806
45539W        W17854  26.612  26.383   0.780
45540W        W17855  10.885  14.225   2.689
45541W        W17856  37.930  37.475  14.274
45542W        W17857  16.530   9.127  12.834
45543W        W17858  34.639  27.483   3.673
45544W        W17859  31.124  20.058  14.288
45545W        W17860   2.286  30.648   5.062
45546W        W17861  15.964  25.612   3.257
45547W        W17862  20.712  27.763  12.485
45548W        W17863  41.880  12.231   3.740
45549W        W17864   5.472   2.423  11.704
45550W        W17865  17.661  33.592  12.865
45551W        W17866  11.889  27.030   3.748
45552W        W17867   1.194  32.085  14.854
45553W        W17868  20.721  20.843   4.875
45554W        W17869  25.247  26.029  14.935
45555W        W17870  33.215  42.383  14.808
45556W        W17871  31.853  27.515   3.098
45557W        W17872  27.813  27.070  13.978
45558W        W17873  40.790  17.662  13.128
45559W        W17874  24.326  27.940  12.964
45560W        W17875  19.388  20.616   3.373
45561W        W17876   4.916  11.406   4.200
45562W        W17877  35.055   7.181  13.458
45563W        W17878  14.251  38.841  10.941
45564W        W17879  19.635  10.829  10.252
45565W        W17880   7.058  21.363  13.521
45566W        W17881  28.686  38.483   1.293
45567W        W17882  21.024   2.822  13.569
45568W        W17883  43.744   0.344   4.150
45569W        W17884  41.514  15.528   2.823
45570W        W17885  18.226  26.022  10.674
45571W        W17886  44.035  25.590   4.620
45572W        W17887   0.900   7.170   0.397
45573W        W17888   0.252  25.495   3.801
45574W        W17889  23.445  37.877  14.885
45575W        W17890  20.677  18.319   4.259
45576W        W17891  12.991  33.062  14.662
45577W        W17892  18.630  29.168  13.798
45578W        W17893   7.025  34.942   0.957
45579W        W17894  33.566  38.429  11.167
45580W        W17895  17.758  24.661   0.797
45581W        W17896  19.276  32.073   0.481
45582W        W17897  32.457   1.919  13.925
45583W        W17898  27.867  43.829   2.395
45584W        W17899  37.430  13.879  13.935
45585W        W17900  26.171  32.456   0.241
45586W        W17901  39.974   2.341   0.316
45587W        W17902  24.719   3.181   3.316
45588W        W17903  42.940  36.901   1.561
45589W        W17904  15.824  19.551   3.431
45590W        W17905  22.740  31.977   2.362
45591W        W17906   0.755  33.137  14.040
45592W        W17907   2.264  31.436  10.454
45593W        W17908  42.268  33.036   0.341
45594W        W17909  15.429  16.587  14.182
45595W        W17910  11.558  36.062   4.980
45596W        W17911  39.471  26.336   4.624
45597W        W17912  20.748  27.672  14.500
45598W        W17913  15.120   5.342  12.506
45599W        W17914  36.346  41.437  11.747
45600W        W17915  14.742  29.705  11.941
45601W        W17916   1.277   5.441   2.859
45602W        W17917   5.289  27.287   4.114
45603W        W17918  41.291  39.558  10.763
45604W        W17919  20.468   9.823   1.946
45605W        W17920  22.107  40.531  11.223
45606W        W17921  18.600  41.116  10.325
45607W        W17922  10.214  19.291   3.257
45608W        W17923   5.192  16.240  10.771
45609W        W17924   3.585   9.869  12.156
45610W        W17925   9.420  37.985   4.156
45611W        W17926  16.371  31.238  10.565
45612W        W17927  35.239  21.631   3.413
45613W        W17928  19.106  43.405   3.768
45614W        W17929  10.404  22.272  11.015
45615W        W17930  38.519  11.831   5.033
45616W        W17931  26.173  31.218  11.880
45617W        W17932  11.423  16.152   3.053
45618W        W17933   1.953  34.743   1.452
45619W        W17934  25.723  14.269  12.082
45620W        W17935   7.088   9.551   2.367
45621W        W17936   1.808  28.105   0.407
45622W        W17937  20.586   1.771  10.791
45623W        W17938  30.734  14.314  14.778
45624W        W17939   0.063  16.689   3.211
45625W        W17940   7.974   5.841  14.382
45626W        W17941  12.202  11.807   4.338
45627W        W17942  11.919  15.360   0.116
45628W        W17943  38.516  37.374  14.070
45629W        W17944  35.609  30.171   3.669
45630W        W17945  16.349  22.044  14.091
45631W        W17946  38.756   1.959  14.167
45632W        W17947  12.779  15.152  14.996
45633W        W17948   3.849   8.645  10.485
45634W        W17949  29.994  43.234   0.971
45635W        W17950  20.095  29.574   2.694
45636W        W17951  32.101  17.292   4.240
45637W        W17952  39.042   9.312  14.581
45638W        W17953  34.301  37.954  13.092
45639W        W17954   5.665  15.556   0.954
45640W        W17955   2.029   5.127   0.864
45641W        W17956  13.659  38.946   1.544
45642W        W17957  44.991  24.236   4.761
45643W        W17958   4.775  15.683  13.040
45644W        W17959   2.034  33.477   0.097
45645W        W17960  35.329  32.408  13.304
45646W        W17961  34.444  43.434   2.232
45647W        W17962  44.304   3.300  14.985
45648W        W17963  29.375  20.066  13.972
45649W        W17964  23.258   8.220  14.878
45650W        W17965   2.817   9.400  14.859
45651W        W17966  44.745  36.413   4.704
45652W        W17967   8.875  33.060  13.918
45653W        W17968  36.780   1.119   2.126
45654W        W17969  22.423  10.351  12.073
45655W        W17970  34.094  15.669  12.026
45656W        W17971  39.015  18.551  14.302
45657W        W17972   2.898   0.792   1.815
45658W        W17973   2.353  29.252   1.655
45659W        W17974  30.460  13.080   1.429
45660W        W17975   4.930  29.688  12.054
45661W        W17976  39.530  28.949   1.645
45662W        W17977  15.110  31.702  13.346
45663W        W17978  31.765  40.546   2.475
45664W        W17979  10.137   1.851   4.613
45665W        W17980  44.275  32.573  14.541
45666W        W17981  34.029  25.957  13.398
45667W        W17982  43.548  12.798   2.307
45668W        W17983  25.516   7.850   4.647
45669W        W17984   1.940  25.575  12.886
45670W        W17985  30.631   1.890  12.069
45671W        W17986  11.671   7.479  10.330
45672W        W17987  12.179  41.379  12.270
45673W        W17988  23.586  39.089   0.162
45674W        W17989  44.845  11.282   1.430
45675W        W17990  37.108  19.043  11.304
45676W        W17991  10.889  44.066  11.133
45677W        W17992  35.909  44.304  13.858
45678W        W17993  38.072  16.439   1.556
45679W        W17994  26.488  36.122  14.901
45680W        W17995  13.846   1.226   4.159
45681W        W17996  42.064  42.424  12.032
45682W        W17997   4.227  11.871  10.978
45683W        W17998  15.662  26.942   9.918
45684W        W17999  34.853  27.769   4.939
45685W        W18000   2.798  11.131  13.455
45686W        W18001   0.262  14.347  14.396
45687W        W18002  34.678  42.474  14.724
45688W        W18003  37.957   5.914  12.894
45689W        W18004  39.021  29.752   3.538
45690W        W18005  42.780  29.382   0.252
45691W        W18006  20.950  42.369   0.918
45692W        W18007   7.630  33.149  12.886
45693W        W18008   6.984  16.640   2.702
45694W        W18009  34.353  30.002  10.485
45695W        W18010   6.101  20.991  13.374
45696W        W18011  17.068  37.110   4.809
45697W        W18012  10.574  24.338  11.627
45698W        W18013  36.391  20.491  13.104
45699W        W18014  23.737  44.820  12.024
45700W        W18015  20.955   6.481   1.415
45701W        W18016  34.450  16.367  13.561
45702W        W18017   7.352  12.689   3.812
45703W        W18018  19.527  17.092  12.481
45704W        W18019  44.961  23.080  14.375
45705W        W18020  26.749  21.058  14.440
45706W        W18021  27.210  12.026  11.550
45707W        W18022  23.225  17.513   2.949
45708W        W18023   2.078   8.684   0.561
45709W        W18024   5.008   5.297   2.260
45710W        W18025  43.578  40.759  11.746
45711W        W18026  20.309   1.915  14.044
45712W        W18027  35.626  23.224   0.011
45713W        W18028   1.714  42.980   2.248
45714W        W18029  42.752  21.976   0.688
45715W        W18030  23.577  44.911  12.977
45716W        W18031  37.087  11.771   3.253
45717W        W18032  38.031   8.540   1.393
45718W        W18033   9.020  17.971   5.105
45719W        W18034  32.933  30.862  12.975
45720W        W18035   2.742  36.374  12.454
45721W        W18036   8.288  17.076  11.628
45722W        W18037  22.672  42.534   2.883
45723W        W18038  40.981  27.568  13.985
45724W        W18039  13.194  25.374   3.802
45725W        W18040  37.441   1.780  13.090
45726W        W18041  17.326  12.243  11.006
45727W        W18042  39.399  26.038   0.859
45728W        W18043  38.050  33.057   2.657
45729W        W18044  35.064  41.483   4.178
45730W        W18045   2.360  20.578  12.565
45731W        W18046   4.798  36.518   2.663
45732W        W18047  27.375  35.609   2.236
45733W        W18048  29.568  41.564   4.332
45734W        W18049  27.041   7.595   2.392
45735W        W18050  27.603   9.468  13.946
45736W        W18051  18.103  14.778   2.900
45737W        W18052  20.560  27.666   4.809
45738W        W18053  33.359  10.377   1.124
45739W        W18054  22.983  11.386   4.215
45740W        W18055   5.362   2.454   2.740
45741W        W18056   6.287  37.558   3.033
45742W        W18057  25.662  15.154  10.741
45743W        W18058   4.884   3.699   4.143
45744W        W18059  40.464  17.365  13.706
45745W        W18060  32.071   2.982  12.489
45746W        W18061  25.077  24.634   3.311
45747W        W18062  40.510  13.377  14.349
45748W        W18063  19.094  42.920  14.361
45749W        W18064  31.803  24.790   3.264
45750W        W18065   5.194  31.857  14.939
45751W        W18066   8.143  16.046   2.724
45752W        W18067  35.918  42.330  11.030
45753W        W18068  27.149  38.905   3.208
45754W        W18069  27.069  29.817   0.454
45755W        W18070  35.644   0.396  13.859
45756W        W18071  32.080  14.639   4.886
45757W        W18072  17.043  41.106  10.751
45758W        W18073  23.991  26.504   0.683
45759W        W18074  27.917   9.398  12.351
45760W        W18075  24.506   5.736   4.676
45761W        W18076  39.864  42.948   1.389
45762W        W18077   3.837  19.755  12.012
45763W        W18078   4.064  39.508   0.692
45764W        W18079   1.781  24.580  11.553
45765W        W18080   0.261   8.032   2.271
45766W        W18081   8.885   7.342   2.724
45767W        W18082   2.819  24.584  13.118
45768W        W18083  31.383   5.839  12.670
45769W        W18084  16.137  11.240   0.992
45770W        W18085  31.528   3.752   2.358
45771W        W18086  23.746  15.055  13.023
45772W        W18087  44.463  40.842  14.326
45773W        W18088   1.220  15.364   4.649
45774W        W18089   5.078  12.424  10.712
45775W        W18090  13.928  12.024   2.830
45776W        W18091  13.094  43.805  14.982
45777W        W18092  33.020  42.549  11.619
45778W        W18093  19.266  17.078   3.688
45779W        W18094  36.385   1.904  13.764
45780W        W18095   5.478  14.840   4.908
45781W        W18096  42.965  14.570  11.720
45782W        W18097  22.027  10.919   4.081
45783W        W18098  33.849  16.317   2.276
45784W        W18099  43.688  41.970   2.220
45785W        W18100  15.933  24.620   0.922
45786W        W18101  38.824  22.501  11.947
45787W        W18102  16.831  18.798  12.129
45788W        W18103  38.059  12.562  11.958
45789W        W18104  36.518   2.376   2.853
45790W        W18105  17.632   1.551   0.235
45791W        W18106  22.757  41.041  11.185
45792W        W18107  25.880   0.784   0.549
45793W        W18108  37.521  16.539   2.787
45794W        W18109  14.097   5.218  14.367
45795W        W18110  39.909   7.277   0.960
45796W        W18111   0.986  18.192  14.898
45797W        W18112  17.512  24.561   1.792
45798W        W18113   9.389  18.020  13.830
45799W        W18114   6.471   4.662  10.108
45800W        W18115  15.841  12.611   4.095
45801W        W18116  40.951  43.852   4.220
45802W        W18117   1.275  19.794  12.025
45803W        W18118  10.105  30.952   4.096
45804W        W18119  23.774  24.119   4.227
45805W        W18120   0.753  23.474   3.722
45806W        W18121  32.503  29.143  11.136
45807W        W18122  21.359  26.138   3.022
45808W        W18123  30.511  33.918  10.340
45809W        W18124  37.156  34.340  12.080
45810W        W18125  12.661  35.937   0.346
45811W        W18126  39.034  10.597  11.585
45812W        W18127  19.402   5.582   0.234
45813W        W18128  12.174  39.748   0.820
45814W        W18129  32.476   7.695   2.725
45815W        W18130  16.429  43.911  10.477
45816W        W18131  32.076  10.195  13.034
45817W        W18132  30.352  35.023  12.524
45818W        W18133   5.951  41.630  12.531
45819W        W18134  19.257  38.343   0.281
45820W        W18135   3.190  29.170   1.642
45821W        W18136  20.617   0.968  12.595
45822W        W18137   3.829  12.069   4.756
45823W        W18138  23.985  41.710   4.641
45824W        W18139  44.639  21.654  10.529
45825W        W18140  14.149  44.009   4.350
45826W        W18141  42.797  29.485   4.986
45827W        W18142  39.513  32.336   4.158
45828W        W18143  15.872   4.994  12.520
45829W        W18144  33.410  41.576   1.646
45830W        W18145   4.445   2.517   0.166
45831W        W18146  29.007  28.750  14.498
45832W        W18147  14.363  37.444   1.927
45833W        W18148   9.692  38.776   1.382
45834W        W18149  20.279   8.142   3.253
45835W        W18150  34.777  33.632  12.126
45836W        W18151  22.855   8.604  10.751
45837W        W18152  12.737  26.021  13.333
45838W        W18153  23.423   8.776  13.048
45839W        W18154  39.531  32.889   0.882
45840W        W18155   1.695  30.949   2.474
45841W        W18156   0.127  14.311   0.705
45842W        W18157  38.824   6.496   2.705
45843W        W18158  30.463  15.905  11.922
45844W        W18159   0.226  26.027   3.758
45845W        W18160  13.379  40.466   2.268
45846W        W18161  42.888  29.944   4.819
45847W        W18162  29.756   4.672   2.095
45848W        W18163  29.349  32.160  12.025
45849W        W18164   6.885  20.003  12.609
45850W        W18165  28.465  10.235   4.544
45851W        W18166  36.683  11.877  12.011
45852W        W18167  17.525   3.672  11.904
45853W        W18168  41.271  19.756  14.401
45854W        W18169  29.713  41.070   1.911
45855W        W18170  22.520   3.713   3.205
45856W        W18171  17.097  39.472  11.058
45857W        W18172  11.099  38.478  14.329
45858W        W18173   3.082  22.135  12.838
45859W        W18174   2.228  43.055   2.245
45860W        W18175  12.904  35.279  12.538
45861W        W18176  36.483  26.652   5.009
45862W        W18177  25.720  38.122  13.568
45863W        W18178  28.436  36.957   4.462
45864W        W18179  25.131   0.475   3.908
45865W        W18180  32.892  41.983  14.527
45866W        W18181  23.033  15.854  13.464
45867W        W18182   9.422  23.723   0.822
45868W        W18183  14.273  44.582   0.867
45869W        W18184  14.062  19.466   1.330
45870W        W18185  29.732  23.027   0.072
45871W        W18186  28.051  16.085  10.940
45872W        W18187  23.554  25.493  12.953
45873W        W18188   0.310   4.619   2.890
45874W        W18189  14.678  23.162  13.563
45875W        W18190  22.488  40.486   1.697
45876W        W18191  13.391  43.820  14.561
45877W        W18192   2.366   4.725   0.778
45878W        W18193   0.481   8.905  13.421
45879W        W18194  35.379  20.310   4.549
45880W        W18195  10.369  20.573   2.730
45881W        W18196  34.560   9.285   0.817
45882W        W18197  29.540  38.173   1.303
45883W        W18198  14.425  44.091   0.832
45884W        W18199  27.457  33.069  12.432
45885W        W18200   7.828  35.843   1.859
45886W        W18201  12.877  24.920   3.707
45887W        W18202  36.492   9.417   2.346
45888W        W18203  32.152  43.491  13.620
45889W        W18204  38.789  15.789  11.067
45890W        W18205  33.115  35.462  11.255
45891W        W18206   2.845  23.612   2.655
45892W        W18207  16.485  34.950   1.013
45893W        W18208   2.811  32.621  14.509
45894W        W18209   8.911  18.728  13.531
45895W        W18210  32.005  24.191  13.514
45896W        W18211  16.176  39.405   3.580
45897W        W18212  18.105  13.861   2.422
45898W        W18213  14.641  34.521  10.383
45899W        W18214  35.889  20.528  12.964
45900W        W18215  44.761  12.650   2.675
45901W        W18216  27.502  38.784   0.168
45902W        W18217  15.679  23.735  10.592
45903W        W18218  34.877   6.689   3.154
45904W        W18219  34.392  44.963   1.215
45905W        W18220  40.524  25.432   4.254
45906W        W18221   6.650  27.051   1.642
45907W        W18222   0.398  15.917   4.184
45908W        W18223   0.768  15.573  10.770
45909W        W18224  24.066  40.816  11.968
45910W        W18225  29.921  27.388  13.846
45911W        W18226  26.051  18.711  11.590
45912W        W18227   5.343  17.877   3.399
45913W        W18228  27.145  23.211  13.365
45914W        W18229  14.282   6.212   1.794
45915W        W18230  23.732  22.327  12.098
45916W        W18231  28.377  11.681  12.033
45917W        W18232  17.104   8.238  13.276
45918W        W18233  24.019   5.981  14.401
45919W        W18234  37.853   1.351   4.683
45920W        W18235  17.295   1.194  13.977
45921W        W18236  33.475  27.607   0.678
45922W        W18237  35.121  11.743  10.819
45923W        W18238  23.388  10.859  11.005
45924W        W18239  32.907  13.700  10.920
45925W        W18240   9.663  18.591  13.035
45926W        W18241  30.327   5.782   4.753
45927W        W18242  29.614  33.248   3.678
45928W        W18243  44.927   1.805  11.565
45929W        W18244   3.310  37.128   3.273
45930W        W18245  38.261  17.223  13.815
45931W        W18246  38.352  12.016  12.664
45932W        W18247  28.751   2.508   0.998
45933W        W18248  34.361  32.987  14.730
45934W        W18249  11.325  26.570  11.470
45935W        W18250  41.235  10.218   0.780
45936W        W18251  27.052   3.273   0.938
45937W        W18252  19.889  29.439   4.958
45938W        W18253   6.392   8.789  11.533
45939W        W18254   3.572  10.085  11.104
45940W        W18255   2.920  44.462   4.067
45941W        W18256   5.741  34.380  11.643
45942W        W18257  40.036  20.006  13.014
45943W        W18258  26.632  22.537  12.834
45944W        W18259  39.667  26.602  10.085
45945W        W18260  19.588  41.939  14.494
45946W        W18261  33.870  12.125   2.773
45947W        W18262   0.720  31.640  11.580
45948W        W18263   3.450  30.014   2.442
45949W        W18264  23.076   5.190   3.807
45950W        W18265  21.118   6.895   1.678
45951W        W18266  27.642  43.490   1.525
45952W        W18267  44.807   5.779  11.130
45953W        W18268  15.247  22.057  10.707
45954W        W18269  41.973   6.432   3.324
45955W        W18270  28.970  40.272   0.468
45956W        W18271  14.515  44.380   0.412
45957W        W18272  34.904  39.412   0.801
45958W        W18273   9.652  37.961   0.326
45959W        W18274  43.957  25.173  12.874
45960W        W18275   6.149  10.185  12.020
45961W        W18276  14.588  19.823   3.187
45962W        W18277  30.521  35.144   0.794
45963W        W18278  33.363   4.693   4.738
45964W        W18279  44.973  35.972  12.039
45965W        W18280  43.994  20.607   3.149
45966W        W18281  39.780  28.655   3.444
45967W        W18282   0.810   4.979  12.494
45968W        W18283  17.006  21.803  13.583
45969W        W18284  11.874   2.339   4.402
45970W        W18285  21.629  31.852  13.862
45971W        W18286  44.079  14.764   3.347
45972W        W18287  11.797  42.150  12.882
45973W        W18288  37.862   1.915  13.979
45974W        W18289   9.245   4.427   1.172
45975W        W18290  29.207   4.397   2.957
45976W        W18291   1.985   7.352   0.272
45977W        W18292  21.988  22.072   5.502
45978W        W18293  43.305   0.804  14.200
45979W        W18294  31.106  28.962   1.750
45980W        W18295  44.793  41.196  14.098
45981W        W18296  20.863  34.541  13.288
45982W        W18297  27.894  14.752   0.863
45983W        W18298  41.817  17.575  13.671
45984W        W18299   5.243  27.515  11.441
45985W        W18300  22.585   3.667  11.174
45986W        W18301  21.420  30.372  13.025
45987W        W18302  44.093  26.447   4.591
45988W        W18303  34.908  34.919   2.229
45989W        W18304   9.901  34.519  14.907
45990W        W18305   0.743  36.392  13.508
45991W        W18306  37.495  11.443  12.636
45992W        W18307   9.208  16.741  11.966
45993W        W18308  17.736   8.396  10.707
45994W        W18309  13.911  25.039   3.347
45995W        W18310  42.370  40.932  11.389
45996W        W18311  44.350  38.775   3.740
45997W        W18312  34.655  26.217   4.106
45998W        W18313  15.145  26.076   1.323
45999W        W18314   4.296  28.614  14.855
46000W        W18315   8.902  18.223  11.075
46001W        W18316  20.732  22.142   0.869
46002W        W18317  41.353  27.825   4.140
46003W        W18318   1.018  35.778   5.044
46004W        W18319   8.931  11.277   4.142
46005W        W18320   2.144  13.172   2.315
46006W        W18321   6.282  15.079   1.378
46007W        W18322   5.325   2.800  10.582
46008W        W18323   5.877   0.796   2.543
46009W        W18324  20.541   1.517   3.421
46010W        W18325  23.649  15.363   4.151
46011W        W18326  32.946  15.135  11.466
46012W        W18327  37.282  17.954  13.283
46013W        W18328  22.757  19.948   4.223
46014W        W18329  17.282  34.564   3.169
46015W        W18330  31.215  15.037  12.383
46016W        W18331  30.173   2.094  11.906
46017W        W18332  31.428  13.091  14.843
46018W        W18333  10.072   6.024   0.825
46019W        W18334  30.952   5.000  12.022
46020W        W18335  35.955   4.879  12.780
46021W        W18336  33.433  22.588  13.447
46022W        W18337  24.544  31.679   4.204
46023W        W18338  22.299  31.492   2.925
46024W        W18339  31.137   0.029  11.001
46025W        W18340  11.818  40.741  11.814
46026W        W18341  43.478  13.369   4.856
46027W        W18342  21.165  19.830  10.922
46028W        W18343   6.293  22.123  11.037
46029W        W18344  24.550  31.643  14.863
46030W        W18345   2.311  12.145  10.726
46031W        W18346  22.966  26.717  13.967
46032W        W18347   3.071  32.135  12.556
46033W        W18348  22.241  37.424   0.741
46034W        W18349  39.224  22.737  12.977
46035W        W18350   8.149  36.463  14.867
46036W        W18351  44.497   4.783  10.419
46037W        W18352  12.109  27.300   2.923
46038W        W18353  11.539  42.680  12.940
46039W        W18354   0.689   4.959   1.216
46040W        W18355  40.113   9.249  11.564
46041W        W18356   7.383  38.062  14.912
46042W        W18357  29.024  15.744   3.596
46043W        W18358  29.673  21.665  14.350
46044W        W18359   4.343  38.796  13.361
46045W        W18360  43.084  13.060  12.938
46046W        W18361  22.129   9.638   1.976
46047W        W18362  10.264   8.958   1.933
46048W        W18363  25.937   6.062   5.025
46049W        W18364  15.787  21.637   3.685
46050W        W18365  13.183   8.794  13.881
46051W        W18366   5.748  17.531  13.566
46052W        W18367  21.997   9.093  12.164
46053W        W18368  26.413  28.282   3.872
46054W        W18369  24.136  43.392  10.685
46055W        W18370  44.122   2.208  11.114
46056W        W18371   2.590   3.330   5.046
46057W        W18372  26.260  18.882   3.817
46058W        W18373  19.170  41.226  11.574
46059W        W18374  18.865  13.770   0.166
46060W        W18375  15.663   3.217  14.427
46061W        W18376  38.295  27.942  14.376
46062W        W18377  23.021  28.634   4.657
46063W        W18378  43.017  37.179   0.265
46064W        W18379  16.404  35.885   2.712
46065W        W18380  25.458  32.586   2.259
46066W        W18381  19.282  14.702  11.103
46067W        W18382   1.318  44.996   4.844
46068W        W18383   2.483  37.444  14.286
46069W        W18384  23.036  44.803  10.811
46070W        W18385  23.681  13.815   0.182
46071W        W18386  19.497  33.347  11.716
46072W        W18387  17.178  42.836   0.914
46073W        W18388  16.327  20.198   0.507
46074W        W18389  39.640  15.219  11.125
46075W        W18390  25.122  25.080   4.718
46076W        W18391  25.555  12.846  11.186
46077W        W18392  38.782   6.312  13.361
46078W        W18393   8.925   4.711  12.892
46079W        W18394  33.777  12.310   4.106
46080W        W18395  19.553  30.385   3.305
46081W        W18396   1.196  17.650   4.079
46082W        W18397  18.813  38.119  13.974
46083W        W18398  33.027  31.721   1.711
46084W        W18399  42.782  26.807  14.858
46085W        W18400  38.846  15.504  12.612
46086W        W18401  24.492  16.746   2.619
46087W        W18402  31.252   9.623  14.441
46088W        W18403   9.078  39.874  13.896
46089W        W18404  29.558   7.470  14.681
46090W        W18405  39.569  24.279  12.999
46091W        W18406   3.329  20.534   0.381
46092W        W18407  42.775   6.260   2.041
46093W        W18408  27.100   7.540  10.033
46094W        W18409  41.334  33.587   2.809
46095W        W18410  27.606  10.771  13.199
46096W        W18411  39.980  32.192  14.754
46097W        W18412  38.425   4.313   0.347
46098W        W18413  10.345  14.181  14.974
46099W        W18414   8.600  44.821  10.603
46100W        W18415  31.427  10.098  14.770
46101W        W18416  28.407  19.625  11.480
46102W        W18417   3.841  23.614   2.714
46103W        W18418   0.741  10.896   3.683
46104W        W18419  42.989  34.741  10.946
46105W        W18420  43.474  36.782  10.691
46106W        W18421   1.769  11.742   1.124
46107W        W18422  14.619  39.067   0.967
46108W        W18423  24.484  11.676   2.807
46109W        W18424  14.081  31.572  12.801
46110W        W18425  36.315   9.605   1.803
46111W        W18426  28.100  27.997  13.375
46112W        W18427  31.136  15.735  10.212
46113W        W18428  15.134  25.519   3.527
46114W        W18429  17.983  12.453   4.535
46115W        W18430  17.202  44.359   1.800
46116W        W18431   2.072  25.990  13.551
46117W        W18432   4.564  22.846   4.460
46118W        W18433  32.455  14.488  14.320
46119W        W18434  32.832  26.748  13.734
46120W        W18435  27.879  16.778  13.373
46121W        W18436   7.301  30.421   3.058
46122W        W18437   8.326  40.759  14.419
46123W        W18438  36.022  16.610  10.681
46124W        W18439   6.310  17.179  13.192
46125W        W18440  43.304  23.173  10.939
46126W        W18441   2.941   3.531   4.225
46127W        W18442  29.685  18.200   0.912
46128W        W18443  32.115  21.489  14.795
46129W        W18444  19.327  41.747  14.072
46130W        W18445  27.602  28.947  11.814
46131W        W18446  28.370  25.063  12.619
46132W        W18447   3.404  13.270   1.817
46133W        W18448  25.062   3.132  13.396
46134W        W18449  15.140  40.282  11.979
46135W        W18450  33.435  30.036   2.837
46136W        W18451  22.686   0.639   3.800
46137W        W18452  28.418  14.335  12.050
46138W        W18453   3.984   7.801  13.066
46139W        W18454   3.784   7.733  10.669
46140W        W18455  15.980  10.738   4.871
46141W        W18456  16.355  27.037   0.501
46142W        W18457   8.835  33.400   3.764
46143W        W18458  20.751   8.739   9.746
46144W        W18459   3.995  14.122  12.952
46145W        W18460  27.009  32.120  14.296
46146W        W18461  22.075  16.096   4.422
46147W        W18462  29.457  14.849   3.756
46148W        W18463  19.238   7.155   1.668
46149W        W18464  24.092  29.065  11.549
46150W        W18465   8.709   6.062  11.079
46151W        W18466  38.874  44.838   3.228
46152W        W18467   0.349   9.762  13.796
46153W        W18468  37.340   0.683   4.465
46154W        W18469  16.649   5.179  11.525
46155W        W18470  12.392  18.498   1.793
46156W        W18471  24.730  10.746  10.640
46157W        W18472   8.680   4.703  10.807
46158W        W18473  23.094  30.354   3.749
46159W        W18474   9.165   1.902   4.953
46160W        W18475  15.830   7.171   4.492
46161W        W18476  16.689  24.048   1.447
46162W        W18477  40.270  40.512   0.805
46163W        W18478  27.653   2.155   3.128
46164W        W18479  24.287   4.860  11.108
46165W        W18480  26.130  40.954  13.834
46166W        W18481   0.732  28.507  10.934
46167W        W18482  40.106  23.036  10.952
46168W        W18483  17.498   6.430  14.781
46169W        W18484  23.699   4.242   3.286
46170W        W18485  24.803  14.455  11.967
46171W        W18486  31.543  20.549  12.110
46172W        W18487  38.711  13.941   4.967
46173W        W18488  44.887  37.353  11.373
46174W        W18489  22.656  39.346   4.142
46175W        W18490  14.376  23.786  10.701
46176W        W18491   3.287  31.420   1.372
46177W        W18492  17.631  35.392   4.453
46178W        W18493  31.615   1.977  11.879
46179W        W18494  40.032  10.261   4.209
46180W        W18495  44.727  34.175  11.068
46181W        W18496  31.591  11.030  10.468
46182W        W18497  28.171  10.341  13.225
46183W        W18498  17.833  38.115   5.369
46184W        W18499  44.911  35.874   2.887
46185W        W18500  10.697  12.438   2.292
46186W        W18501  27.095  17.299   2.848
46187W        W18502  37.084  33.419  14.064
46188W        W18503  21.092   7.676  14.271
46189W        W18504  20.153  18.592   0.548
46190W        W18505   9.644  19.754   1.400
46191W        W18506  41.404  18.675   0.373
46192W        W18507  11.365  36.840  10.632
46193W        W18508   7.616   9.307   0.002
46194W        W18509  13.225  16.326  13.569
46195W        W18510   4.869  11.166  14.857
46196W        W18511  19.241  25.642  13.284
46197W        W18512   2.314   3.027   4.740
46198W        W18513   3.043   0.343   3.927
46199W        W18514  21.175  19.789  13.972
46200W        W18515  24.102  21.731  10.640
46201W        W18516  39.036   1.358   0.438
46202W        W18517   6.722  25.987  13.195
46203W        W18518  13.806  16.098   4.693
46204W        W18519  39.995  12.907   0.748
46205W        W18520  24.747  12.156  11.656
46206W        W18521  13.277  12.162  11.873
46207W        W18522  19.828  27.411  13.295
46208W        W18523  19.669  22.684   0.719
46209W        W18524  22.695  12.600   3.288
46210W        W18525  31.880  25.915   2.902
46211W        W18526  24.210  14.160   1.762
46212W        W18527  30.118  16.104  13.585
46213W        W18528   8.412  44.976  12.876
46214W        W18529  13.653  22.576   0.895
46215W        W18530   2.905  37.754  14.413
46216W        W18531   9.147  26.755   4.375
46217W        W18532   5.397  15.600  10.698
46218W        W18533  16.622  35.527  12.550
46219W        W18534  40.966  25.945   0.497
46220W        W18535   6.957  29.528   3.355
46221W        W18536  12.326  24.089  14.438
46222W        W18537  24.135  35.475   1.430
46223W        W18538  40.795   4.403  10.635
46224W        W18539  12.720  34.487   1.280
46225W        W18540  43.538  39.963  11.981
46226W        W18541  41.780  23.760   2.748
46227W        W18542  39.197  14.146  14.855
46228W        W18543  35.198  39.860  14.403
46229W        W18544  12.119  28.226  10.949
46230W        W18545  41.474   2.334   0.814
46231W        W18546  24.237   7.427   4.514
46232W        W18547   1.119  38.460   1.878
46233W        W18548  27.497   4.930  13.407
46234W        W18549   8.534   2.805   1.365
46235W        W18550  11.625  25.463   1.231
46236W        W18551   1.359  37.849   2.885
46237W        W18552  41.310  26.600   4.937
46238W        W18553  21.078  33.222  13.782
46239W        W18554  32.920  33.777   2.461
46240W        W18555  23.009   1.736  13.508
46241W        W18556  22.517  17.644  14.485
46242W        W18557  44.258  13.384   5.031
46243W        W18558  40.068  10.928   2.318
46244W        W18559  12.835  33.592  11.157
46245W        W18560  22.823  44.307   3.456
46246W        W18561  39.441  20.265   4.208
46247W        W18562  18.951   5.807   0.091
46248W        W18563  27.946  15.859   2.755
46249W        W18564   6.694   8.729  11.947
46250W        W18565   1.988  41.062   4.575
46251W        W18566  34.074  39.829  11.560
46252W        W18567  30.534  27.857   0.440
46253W        W18568   1.490  44.343  13.413
46254W        W18569  41.630  33.222  13.221
46255W        W18570  15.174  33.014   4.372
46256W        W18571   4.725   1.020   1.670
46257W        W18572  13.126   6.843   4.069
46258W        W18573  29.586   5.386  10.487
46259W        W18574   4.210   6.487   2.810
46260W        W18575  19.570   4.792  13.402
46261W        W18576  32.616   8.687  10.773
46262W        W18577  28.086  36.576  13.933
46263W        W18578  30.170  22.148  14.836
46264W        W18579  20.548   7.412  10.717
46265W        W18580  10.641  14.119  11.535
46266W        W18581  43.360  34.815  13.730
46267W        W18582  30.351   3.425  13.588
46268W        W18583  40.872  11.516   4.517
46269W        W18584  13.874  31.251   4.858
46270W        W18585  26.801  27.570   0.475
46271W        W18586  18.140  22.566  12.782
46272W        W18587   5.245   3.632  14.050
46273W        W18588  31.581   3.922   0.728
46274W        W18589  41.323   4.230   3.161
46275W        W18590  31.392   5.230  14.813
46276W        W18591   5.700   5.346  13.514
46277W        W18592   1.830  39.850   4.105
46278W        W18593  10.658  26.514  10.174
46279W        W18594  41.954  18.171   0.931
46280W        W18595  23.235   4.678   0.470
46281W        W18596  20.994  42.781  10.512
46282W        W18597  20.128  24.378  14.257
46283W        W18598  32.281  44.975  13.534
46284W        W18599  17.156   7.433   0.351
46285W        W18600  41.512  11.081  11.526
46286W        W18601   2.534  32.132   1.463
46287W        W18602  13.614  12.613   3.303
46288W        W18603  11.326  38.556   2.470
46289W        W18604  22.985  24.644   0.546
46290W        W18605  27.031  33.026  11.260
46291W        W18606  40.886  26.448  11.177
46292W        W18607   9.266   8.873   2.879
46293W        W18608  39.059   0.040  14.421
46294W        W18609   6.306  26.100   2.068
46295W        W18610   3.430  38.936   4.223
46296W        W18611  23.747  26.025   0.032
46297W        W18612   9.670  18.789   3.888
46298W        W18613  44.008   1.612  14.325
46299W        W18614  23.479  25.137  12.554
46300W        W18615  25.515  30.800   2.272
46301W        W18616  20.032  25.287  13.652
46302W        W18617  16.612  30.644   3.152
46303W        W18618  21.460   9.384  10.627
46304W        W18619  42.735  26.974  13.535
46305W        W18620  32.389  32.665   0.392
46306W        W18621  25.985  26.260  11.703
46307W        W18622  12.400  23.269   4.781
46308W        W18623  35.962  26.821  14.865
46309W        W18624  16.392  39.188  13.063
46310W        W18625  13.748  28.258   2.884
46311W        W18626   9.811  21.952   2.111
46312W        W18627  31.646  44.530   0.570
46313W        W18628   4.821  29.469  10.737
46314W        W18629  22.917  37.160  14.553
46315W        W18630  31.515  31.477  10.408
46316W        W18631  44.370  11.633  14.765
46317W        W18632   3.693  20.584  14.602
46318W        W18633  29.449   8.178   1.239
46319W        W18634   1.668   9.267   2.467
46320W        W18635   0.848  21.710  14.468
46321W        W18636   6.456  30.843  11.607
46322W        W18637  40.602  39.009  14.014
46323W        W18638  19.784   5.285  10.714
46324W        W18639  14.798  13.141   2.762
46325W        W18640  14.087  36.583  11.121
46326W        W18641  30.374  36.669   3.671
46327W        W18642  31.431  30.984   2.142
46328W        W18643  16.580   7.636  10.990
46329W        W18644   0.421  28.515  11.814
46330W        W18645  16.113  19.728   0.413
46331W        W18646   6.429  44.583   4.088
46332W        W18647   2.931   7.220   1.270
46333W        W18648   9.000  21.201  10.257
46334W        W18649  36.960  37.382  10.959
46335W        W18650   1.204  27.091  14.756
46336W        W18651  44.982  42.706   0.875
46337W        W18652   0.748  28.926  13.063
46338W        W18653  38.489  11.800   2.865
46339W        W18654  41.448   7.966  10.768
46340W        W18655  10.847  27.191   4.191
46341W        W18656  10.637  23.460   1.779
46342W        W18657  25.031  10.015   3.863
46343W        W18658  21.428  37.982   2.383
46344W        W18659  34.393  25.648  10.806
46345W        W18660   4.964  29.144  14.776
46346W        W18661  18.775   4.303   2.744
46347W        W18662  38.925  13.346  13.353
46348W        W18663  14.437  28.153  14.929
46349W        W18664   5.221  19.699   1.838
46350W        W18665  30.333  32.023  11.423
46351W        W18666  28.982  12.945   3.626
46352W        W18667  27.622  40.548  10.892
46353W        W18668   1.386  26.390  11.101
46354W        W18669  13.204  41.236   2.729
46355W        W18670  30.578  22.094   3.803
46356W        W18671  16.528   1.829   1.450
46357W        W18672  19.498   5.456   0.747
46358W        W18673   5.931   0.876  14.784
46359W        W18674  36.944  30.973   4.862
46360W        W18675  37.941  14.649  12.558
46361W        W18676  44.102  23.245  13.943
46362W        W18677  26.300   6.502   1.230
46363W        W18678  15.350  31.209   2.008
46364W        W18679  20.691  14.903   0.821
46365W        W18680  30.970  36.427   0.807
46366W        W18681  44.755   8.054   4.091
46367W        W18682  40.289  16.072   2.977
46368W        W18683   3.325  38.589  10.072
46369W        W18684  26.372  41.975   3.221
46370W        W18685  31.360  20.223   0.111
46371W        W18686   0.716  29.572   4.065
46372W        W18687  44.789  35.040   0.850
46373W        W18688  42.006  10.701  10.592
46374W        W18689  31.792  38.085   4.237
46375W        W18690   8.622   1.246  10.986
46376W        W18691  29.010  38.833  13.296
46377W        W18692  12.266   4.484  10.738
46378W        W18693  44.355   7.121  14.722
46379W        W18694   8.406  42.162   4.238
46380W        W18695  28.724  32.403  11.895
46381W        W18696  44.775  24.640   4.438
46382W        W18697   1.060   8.894   1.685
46383W        W18698   7.434  36.281  14.423
46384W        W18699  15.614  14.658   2.786
46385W        W18700  34.910  37.930   4.255
46386W        W18701   6.447  32.519   1.796
46387W        W18702  17.895  28.674  14.746
46388W        W18703  35.079   7.556   0.739
46389W        W18704   5.926   5.349   4.541
46390W        W18705  15.587  25.243  12.027
46391W        W18706  43.488  19.203  14.986
46392W        W18707  16.089  15.114   2.818
46393W        W18708  19.226  16.183   3.826
46394W        W18709  31.214   8.215  11.623
46395W        W18710  30.322   3.521  11.138
46396W        W18711  45.000  17.200  14.968
46397W        W18712   8.443  22.293   1.187
46398W        W18713  10.637   1.884   4.740
46399W        W18714  28.055  13.735  14.002
46400W        W18715  16.143  41.312   1.933
46401W        W18716  40.337  30.376  11.254
46402W        W18717  38.883  23.463   0.374
46403W        W18718  39.885  24.926  11.048
46404W        W18719  27.430  42.913  11.195
46405W        W18720  32.868  18.553  12.439
46406W        W18721  31.218  27.929  14.336
46407W        W18722   2.305  10.765  14.358
46408W        W18723   9.741  41.285   3.723
46409W        W18724  23.284  35.019   2.135
46410W        W18725  44.592  17.227   0.358
46411W        W18726  23.284  13.619   0.429
46412W        W18727  42.584  24.753   3.768
46413W        W18728  35.411  39.151   4.166
46414W        W18729  11.080  23.246   1.959
46415W        W18730  18.197  29.127  11.660
46416W        W18731  15.685  29.422   2.376
46417W        W18732  18.808  22.773   1.729
46418W        W18733  40.928   2.838  12.426
46419W        W18734  25.629  18.188  11.545
46420W        W18735  11.708  14.213  11.430
46421W        W18736   4.507  34.430   2.300
46422W        W18737  25.982  33.648   0.895
46423W        W18738   0.205  24.632  12.809
46424W        W18739  27.197   3.706   3.724
46425W        W18740   7.757   0.542   2.657
46426W        W18741  10.604   5.259   2.900
46427W        W18742  41.412   6.091   2.196
46428W        W18743   3.453  20.536  13.554
46429W        W18744   9.579  42.586   2.140
46430W        W18745  12.840   9.837  14.754
46431W        W18746  43.264  22.263   2.308
46432W        W18747  23.098   2.462  11.627
46433W        W18748  32.550   0.760   0.593
46434W        W18749  33.360   6.193  13.546
46435W        W18750   8.741  24.982   0.780
46436W        W18751  40.065  11.203  11.646
46437W        W18752  12.207  22.630  11.291
46438W        W18753  44.366   4.563  12.232
46439W        W18754   0.341  15.250   2.080
46440W        W18755  14.814  19.190   1.404
46441W        W18756  15.672  23.979   2.873
46442W        W18757   6.092   6.342   1.338
46443W        W18758  18.130  38.575  12.952
46444W        W18759   3.769  34.973   2.765
46445W        W18760  40.970  11.588  10.447
46446W        W18761  19.251  13.492   2.349
46447W        W18762   9.625  24.759   0.867
46448W        W18763  18.224  37.174   4.280
46449W        W18764  44.030  39.903  13.783
46450W        W18765   0.390  16.142  12.570
46451W        W18766  31.715  21.613  13.417
46452W        W18767   5.246  31.133  10.786
46453W        W18768  39.320  29.851   0.289
46454W        W18769  26.475   3.467  11.620
46455W        W18770  21.670  42.123  10.714
46456W        W18771  27.411  42.739   3.223
46457W        W18772  16.544  25.870  14.420
46458W        W18773  13.349  27.155   4.467
46459W        W18774  29.634  32.498  10.274
46460W        W18775  42.041  17.271   3.647
46461W        W18776  40.062  39.348  11.164
46462W        W18777  15.301  41.750  11.082
46463W        W18778   1.911  41.377   0.909
46464W        W18779  31.188  15.608  11.055
46465W        W18780  42.161  20.427  12.694
46466W        W18781  26.646  23.987   2.150
46467W        W18782  17.569  29.477   4.634
46468W        W18783  44.067   9.994  11.547
46469W        W18784  10.066  41.495  11.477
46470W        W18785  40.425  39.331   0.268
46471W        W18786  15.248   3.403   1.808
46472W        W18787   9.349  24.193   2.137
46473W        W18788  25.754   1.227   0.775
46474W        W18789  43.966  37.944   4.621
46475W        W18790  18.161  38.849  11.502
46476W        W18791   8.717  11.728  13.846
46477W        W18792  39.362  15.962   4.003
46478W        W18793  27.489  14.403  12.879
46479W        W18794   7.276   1.508  14.378
46480W        W18795  18.728  39.363   5.066
46481W        W18796  35.555  16.592  12.434
46482W        W18797  34.478   8.321  10.674
46483W        W18798  25.288  25.773  11.565
46484W        W18799  31.374  15.194  11.396
46485W        W18800  10.289  14.852   4.085
46486W        W18801  38.592  24.834  14.834
46487W        W18802   4.789  12.569   1.644
46488W        W18803  26.880   1.762   2.667
46489W        W18804   7.633  44.281   2.633
46490W        W18805   2.536  30.958  14.912
46491W        W18806  16.189   1.683   4.499
46492W        W18807  27.676  20.197  13.962
46493W        W18808  37.787  24.266  12.709
46494W        W18809  27.503  25.989  10.701
46495W        W18810  16.286  30.635   5.006
46496W        W18811  42.498  30.530  14.282
46497W        W18812  20.001  11.091  14.040
46498W        W18813   8.189  31.835   0.300
46499W        W18814  30.129  26.663   1.917
46500W        W18815   0.925  24.278  11.536
46501W        W18816   8.100   4.385   4.242
46502W        W18817  21.156  27.392   4.163
46503W        W18818  30.130   1.785   0.004
46504W        W18819  24.967  14.260  11.508
46505W        W18820   1.222  19.550  13.556
46506W        W18821  32.259  42.868   3.693
46507W        W18822  24.044  21.104  13.329
46508W        W18823  11.364  11.185  13.420
46509W        W18824   2.465  14.160   5.052
46510W        W18825  23.950   6.897  14.542
46511W        W18826   6.668  12.213   4.319
46512W        W18827   4.939  20.689   4.246
46513W        W18828  17.103  30.913   0.025
46514W        W18829  10.754  15.339  13.155
46515W        W18830  12.388   9.545   3.617
46516W        W18831  34.403  17.119   4.815
46517W        W18832  35.009  19.054   0.749
46518W        W18833  32.942  18.797  13.841
46519W        W18834  27.095   5.369  11.049
46520W        W18835  42.424  11.404   4.270
46521W        W18836  40.119  43.226   1.856
46522W        W18837  14.521   4.547   3.815
46523W        W18838  18.854  42.749  13.892
46524W        W18839  13.583  18.310  12.857
46525W        W18840   3.209  33.998  11.945
46526W        W18841   3.819  42.035  12.433
46527W        W18842  33.058  12.856  14.304
46528W        W18843  10.217  22.500   0.794
46529W        W18844  16.738  21.543   2.135
46530W        W18845   2.877  16.298   1.269
46531W        W18846  37.559  13.573  11.518
46532W        W18847  28.370  35.910   0.544
46533W        W18848  41.552  11.847   1.968
46534W        W18849  10.164   7.327   1.500
46535W        W18850  15.520  25.123  13.898
46536W        W18851  30.075   3.738  11.546
46537W        W18852  35.451  12.656   1.222
46538W        W18853  10.400  27.653  13.846
46539W        W18854  31.680  22.738   1.790
46540W        W18855  40.263  22.912   4.590
46541W        W18856  37.648  28.793   4.216
46542W        W18857  13.768   9.952   2.691
46543W        W18858  30.397  13.177   3.656
46544W        W18859  32.044  41.993   2.365
46545W        W18860  35.377  28.615  14.061
46546W        W18861  23.736   4.399  10.534
46547W        W18862  16.196   9.199   3.215
46548W        W18863  22.263  11.115   4.513
46549W        W18864  10.797   3.118   0.638
46550W        W18865  40.512  17.089   2.997
46551W        W18866  29.106  31.945  13.168
46552W        W18867   0.954  23.510  11.470
46553W        W18868  15.102  33.338  14.014
46554W        W18869  41.514  11.979  12.831
46555W        W18870  11.400  43.307  11.160
46556W        W18871  22.522   6.304  10.759
46557W        W18872  24.705  38.971   2.360
46558W        W18873  15.235  25.577  14.551
46559W        W18874  34.664  23.139  10.736
46560W        W18875  12.232  13.337   3.639
46561W        W18876  10.361  35.635   0.356
46562W        W18877  31.190   4.655   9.944
46563W        W18878  20.040   7.620  13.905
46564W        W18879  34.940  15.253  14.550
46565W        W18880  38.616  35.814  11.024
46566W        W18881  44.279  35.389  11.685
46567W        W18882  31.732  10.175   5.024
46568W        W18883  22.740  24.916  14.892
46569W        W18884  18.534  30.710   4.634
46570W        W18885   6.406  16.726  11.511
46571W        W18886  18.635   3.955  13.499
46572W        W18887   7.528   6.804  14.513
46573W        W18888  18.323  22.098   4.103
46574W        W18889  23.594  44.922  11.511
46575W        W18890  23.128  27.161  12.518
46576W        W18891  21.895   9.670   1.514
46577W        W18892  10.857  23.057   2.385
46578W        W18893  28.086  40.041   0.246
46579W        W18894  35.112  11.625  14.789
46580W        W18895  24.547  16.017  14.791
46581W        W18896  30.059   7.805   1.686
46582W        W18897   9.218  16.829   2.381
46583W        W18898  12.641  37.948  13.045
46584W        W18899  15.833  23.714  11.081
46585W        W18900   2.881  30.209   1.445
46586W        W18901  16.115  20.158  10.746
46587W        W18902   8.642   0.446  10.065
46588W        W18903  16.507   0.233  13.323
46589W        W18904  44.911  33.708   9.940
46590W        W18905   8.228  14.997  14.869
46591W        W18906  36.844  14.729   0.869
46592W        W18907  31.969  10.692  10.485
46593W        W18908  17.214  31.359   5.063
46594W        W18909  36.991  10.764   2.387
46595W        W18910  32.912   1.015  14.598
46596W        W18911   8.170  30.082  13.320
46597W        W18912  33.537  23.923  14.482
46598W        W18913  10.618   9.835   3.224
46599W        W18914   0.918  19.937  10.462
46600W        W18915  21.271  27.901   0.993
46601W        W18916  26.537  41.344   2.216
46602W        W18917  38.305   8.682  10.612
46603W        W18918  44.994  16.035   3.856
46604W        W18919  43.855  36.389  11.338
46605W        W18920  42.354  17.515   0.982
46606W        W18921   6.950  16.245  13.166
46607W        W18922  27.042   2.929  12.495
46608W        W18923   7.367  19.574  13.458
46609W        W18924  22.954  33.570  11.497
46610W        W18925   7.755  23.176   3.087
46611W        W18926  20.318  42.215   3.488
46612W        W18927  36.380  14.160   0.229
46613W        W18928  41.019  31.651   1.359
46614W        W18929  38.619  33.897  12.024
46615W        W18930  38.850  29.489  14.614
46616W        W18931  21.698  13.969  11.385
46617W        W18932   1.563  17.209  12.132
46618W        W18933  37.595  33.400   0.517
46619W        W18934  32.638  15.664   2.453
46620W        W18935  16.551  16.680   3.678
46621W        W18936  34.955  33.397  14.828
46622W        W18937  17.356  13.125   1.711
46623W        W18938  34.499  44.676   1.628
46624W        W18939  28.754  44.583  14.447
46625W        W18940  23.015  12.659  10.798
46626W        W18941  39.339  40.122  10.572
46627W        W18942  15.187   5.253   3.866
46628W        W18943  34.281   4.127   0.986
46629W        W18944   9.456   8.434  13.555
46630W        W18945  44.426  40.485  14.973
46631W        W18946  35.879  35.317   3.532
46632W        W18947   2.220  11.694  12.888
46633W        W18948  15.124  35.947   9.977
46634W        W18949  39.493  26.522  10.587
46635W        W18950   9.818  25.444   2.586
46636W        W18951   6.955  43.845  12.903
46637W        W18952   1.416  40.897  12.582
46638W        W18953  13.085   6.830  14.314
46639W        W18954  30.057  24.995  12.466
46640W        W18955   2.021  11.698   0.153
46641W        W18956  38.844  23.555   2.496
46642W        W18957  43.448   6.753   4.262
46643W        W18958   0.417  42.484  14.637
46644W        W18959  17.716  37.625  10.364
46645W        W18960  17.700   3.992   0.499
46646W        W18961  11.248   0.175   0.280
46647W        W18962  18.575   4.775  10.765
46648W        W18963  22.490  11.139   0.744
46649W        W18964  33.986  24.001   3.183
46650W        W18965  17.490  30.951   2.380
46651W        W18966  42.987  44.001   4.167
46652W        W18967   8.185  21.257   2.202
46653W        W18968   9.980  41.677  10.159
46654W        W18969  10.148  22.620  13.245
46655W        W18970  40.673   7.359  11.866
46656W        W18971   7.663  33.167  14.431
46657W        W18972  35.743   8.283   0.377
46658W        W18973  36.961  24.522  11.718
46659W        W18974  37.031  35.969   4.354
46660W        W18975  44.849   5.691  12.513
46661W        W18976  36.481  10.287  14.674
46662W        W18977  43.299  39.049  12.527
46663W        W18978  24.743   5.677   0.728
46664W        W18979  13.681  24.131  10.762
46665W        W18980  30.045  36.988   1.939
46666W        W18981  27.092  33.926   1.872
46667W        W18982  24.561   6.103   0.938
46668W        W18983  20.680  35.849   2.303
46669W        W18984  18.294  27.073   3.585
46670W        W18985  10.282  27.069  10.604
46671W        W18986  27.160  41.360   1.806
46672W        W18987  36.463  27.647   4.638
46673W        W18988  24.466  31.449  14.372
46674W        W18989  10.738  38.130  10.524
46675W        W18990  42.054  33.203  13.517
46676W        W18991   5.587  24.032  13.184
46677W        W18992  28.424  11.725  11.124
46678W        W18993   8.560  40.450   2.287
46679W        W18994  38.486  30.493   2.900
46680W        W18995   7.886  20.582   2.780
46681W        W18996  11.715  44.854  11.657
46682W        W18997  22.235  10.023   4.149
46683W        W18998  37.532  12.516   4.538
46684W        W18999  16.976  19.109  10.676
46685W        W19000  38.876  27.662  11.063
46686W        W19001  24.552  19.013  11.453
46687W        W19002  43.876  28.294  14.509
46688W        W19003  13.301  10.646  11.054
46689W        W19004  27.990  12.778   3.159
46690W        W19005  23.912   1.198  11.648
46691W        W19006  19.553  27.537   1.728
46692W        W19007  15.045  21.021   1.923
46693W        W19008  43.960  24.363   1.971
46694W        W19009  42.402  30.773  13.856
46695W        W19010   4.739   6.675   4.131
46696W        W19011   3.126   2.363   2.698
46697W        W19012  41.455  16.636  13.547
46698W        W19013  33.604  10.800   3.757
46699W        W19014  15.907   9.185  11.536
46700W        W19015  43.472   0.778   1.326
46701W        W19016  18.064   3.740   3.317
46702W        W19017   9.435  31.929  14.347
46703W        W19018  30.018  16.201  10.684
46704W        W19019  32.485  23.519  10.858
46705W        W19020  39.601   6.982   0.153
46706W        W19021  38.892  17.739  13.480
46707W        W19022  30.569   1.254  11.635
46708W        W19023  26.859  41.105   4.160
46709W        W19024  28.420  15.331  11.631
46710W        W19025  24.738  28.466  13.527
46711W        W19026  11.805   1.845  12.583
46712W        W19027  39.898  34.150   0.413
46713W        W19028  25.273  43.618   2.991
46714W        W19029  34.153  42.359  14.518
46715W        W19030  30.519  23.611  13.518
46716W        W19031  10.673  12.942   2.280
46717W        W19032  42.472   7.360  10.108
46718W        W19033   3.317   4.394  12.899
46719W        W19034  27.163   4.312  10.040
46720W        W19035  35.891   2.750   4.581
46721W        W19036  31.586  23.426   4.050
46722W        W19037   5.565  37.232  13.225
46723W        W19038  41.513  19.762   0.266
46724W        W19039  37.080  41.271  13.564
46725W        W19040  43.000  25.203  12.467
46726W        W19041  38.064  25.067  12.642
46727W        W19042  12.150  23.612  14.450
46728W        W19043  28.040   9.139  14.668
46729W        W19044  27.188  13.641   3.227
46730W        W19045  23.264  10.731  11.479
46731W        W19046   3.302  39.974   0.838
46732W        W19047  25.048  30.957   2.104
46733W        W19048  20.460  26.011   0.741
46734W        W19049  35.094  13.224  10.522
46735W        W19050   6.191  35.005   2.547
46736W        W19051   1.723  23.549  13.463
46737W        W19052  38.600  19.236  11.610
46738W        W19053  31.908  43.493  12.145
46739W        W19054   1.654  42.443   1.253
46740W        W19055  14.297  13.868  11.104
46741W        W19056   8.374   9.810   1.955
46742W        W19057  32.420   7.388   2.010
46743W        W19058   2.984  15.972  14.239
46744W        W19059  39.130   9.199   2.204
46745W        W19060  30.183  11.165  11.433
46746W        W19061  31.617  32.003   1.123
46747W        W19062  17.829  42.047  13.472
46748W        W19063  35.748  26.265   0.540
46749W        W19064  16.710   2.030   0.698
46750W        W19065   8.634  14.296   0.227
46751W        W19066   1.624   2.166  14.025
46752W        W19067   8.611   2.796   4.705
46753W        W19068  15.347  15.285   4.354
46754W        W19069  42.297  23.832  13.255
46755W        W19070  37.561  42.794   1.250
46756W        W19071  10.547  35.529   4.674
46757W        W19072  12.794  39.973   2.213
46758W        W19073   9.116  21.498  11.828
46759W        W19074  13.023  40.276   2.625
46760W        W19075  11.115  38.593   1.623
46761W        W19076  10.712   7.649  13.843
46762W        W19077  31.526  30.783   2.691
46763W        W19078   2.065  12.845   1.430
46764W        W19079  28.954  23.416   0.288
46765W        W19080  23.133   2.225  11.178
46766W        W19081  12.762   7.752   2.656
46767W        W19082  32.461  13.513  14.352
46768W        W19083   0.759  25.227  14.857
46769W        W19084  34.664  11.458   0.413
46770W        W19085   2.208  44.519  12.274
46771W        W19086  18.294  23.246   0.443
46772W        W19087  21.213  30.483   1.517
46773W        W19088  26.043  38.875   4.178
46774W        W19089  15.846  28.909   2.317
46775W        W19090   8.209  33.614   1.814
46776W        W19091   2.799  13.738   4.406
46777W        W19092   9.797  35.844   1.867
46778W        W19093  38.105   5.932   4.177
46779W        W19094  14.342   1.768  11.371
46780W        W19095   4.382  36.144  14.522
46781W        W19096  18.671  16.096  14.477
46782W        W19097   9.856  14.600  11.613
46783W        W19098  27.658   5.550   1.390
46784W        W19099  43.028   6.806  10.561
46785W        W19100  26.108  24.493   3.324
46786W        W19101  43.575   2.800  11.199
46787W        W19102   2.312   0.372  11.618
46788W        W19103  37.504  18.127  12.845
46789W        W19104  36.160  39.616  14.394
46790W        W19105  12.662  20.308  11.623
46791W        W19106   9.380  27.929   0.813
46792W        W19107  15.994   1.944   2.248
46793W        W19108  32.809  29.222   2.786
46794W        W19109  30.357  18.090  12.127
46795W        W19110  11.685  44.036   2.173
46796W        W19111  35.093  19.796  14.973
46797W        W19112  18.151  33.601   1.975
46798W        W19113  42.032   2.161  14.360
46799W        W19114  40.407  33.556   4.543
46800W        W19115   2.484  16.888  11.139
46801W        W19116  37.864   6.266  10.905
46802W        W19117   2.953  31.246   2.976
46803W        W19118  15.641  29.936   2.464
46804W        W19119   2.754   3.701  13.043
46805W        W19120  23.061   0.560   2.214
46806W        W19121  22.217  32.622  14.529
46807W        W19122  31.227  21.143  12.913
46808W        W19123  31.120   1.899   2.289
46809W        W19124  24.027   4.818  13.316
46810W        W19125   1.783  38.586  10.709
46811W        W19126   7.037  10.499  11.855
46812W        W19127  23.485  43.410   0.973
46813W        W19128  12.937  40.729   2.337
46814W        W19129  39.277  44.271   1.837
46815W        W19130  18.126  23.747  14.340
46816W        W19131  14.446  10.822   3.400
46817W        W19132  44.334  31.835  13.920
46818W        W19133  18.208  28.137  11.064
46819W        W19134  35.361  15.618  11.612
46820W        W19135  30.690  41.437   3.684
46821W        W19136   0.810   0.270  12.459
46822W        W19137  44.964  29.934   4.231
46823W        W19138  11.419  41.407   3.708
46824W        W19139  19.174  15.167  11.304
46825W        W19140   4.404  24.135   1.806
46826W        W19141  34.979  40.336   1.949
46827W        W19142  26.809   2.313  14.831
46828W        W19143  32.170  44.204  14.785
46829W        W19144  42.793  34.348  11.941
46830W        W19145  32.337  17.801   0.704
46831W        W19146  24.944  23.872  12.806
46832W        W19147  10.761  24.295  14.652
46833W        W19148  20.061  44.854   0.213
46834W        W19149   6.675  13.387  14.332
46835W        W19150  23.056  16.174   4.536
46836W        W19151   6.814  11.636  12.103
46837W        W19152   7.693  22.592  13.193
46838W        W19153  35.725  21.809  14.926
46839W        W19154  21.023   1.764   2.906
46840W        W19155  43.002  30.442  10.682
46841W        W19156  17.584  19.355  13.085
46842W        W19157  23.534  40.241   0.806
46843W        W19158  20.094  15.186  10.609
46844W        W19159   9.272   4.738  13.859
46845W        W19160  42.612  13.598  14.005
46846W        W19161  17.271   1.476   2.716
46847W        W19162  33.839  27.075  14.903
46848W        W19163  22.182  26.854   3.133
46849W        W19164  42.595  36.039   0.253
46850W        W19165  30.034   2.544   3.836
46851W        W19166  16.585   5.713  12.528
46852W        W19167   9.161  29.843  10.678
46853W        W19168  22.280  35.532  12.560
46854W        W19169   7.436  43.390  13.288
46855W        W19170   5.975  32.533  14.547
46856W        W19171  41.073  14.951  11.137
46857W        W19172  31.353  35.647   3.189
46858W        W19173  25.225  27.952   1.216
46859W        W19174  32.662  26.658  10.707
46860W        W19175  14.799  24.544   3.714
46861W        W19176  18.030  22.445   2.926
46862W        W19177   3.865  21.543  12.607
46863W        W19178   1.510  36.538   9.729
46864W        W19179  10.884  16.754  14.650
46865W        W19180  42.770   3.809   4.204
46866W        W19181  31.033  31.101   3.725
46867W        W19182  23.718   7.677  12.481
46868W        W19183  39.979   7.765   1.199
46869W        W19184  21.874   0.335  14.826
46870W        W19185  43.062   9.984   3.204
46871W        W19186  16.279  35.050  14.188
46872W        W19187   3.907  37.597  13.036
46873W        W19188  29.463  33.121  10.289
46874W        W19189  17.836  15.201  11.693
46875W        W19190  15.968   9.731  11.481
46876W        W19191  13.312   5.368   0.739
46877W        W19192  36.958  22.706   2.848
46878W        W19193  42.410  24.922   4.252
46879W        W19194  26.572  11.197   3.332
46880W        W19195  28.143  10.777  12.487
46881W        W19196  35.483   9.371   2.013
46882W        W19197  13.771   1.192  12.329
46883W        W19198  13.488   6.414   2.818
46884W        W19199  16.820   5.400  10.129
46885W        W19200  15.763  26.908  12.367
46886W        W19201  27.575   2.809   9.838
46887W        W19202  30.824  19.709   3.263
46888W        W19203  40.880  20.263  13.379
46889W        W19204  25.267   7.784  13.823
46890W        W19205  11.843  24.496   4.550
46891W        W19206  37.492  41.896  12.363
46892W        W19207  37.747  34.342   9.682
46893W        W19208  10.979   3.976  12.620
46894W        W19209  22.423   2.711  14.106
46895W        W19210  17.161  26.719  11.516
46896W        W19211   7.337   5.726   2.357
46897W        W19212  34.061  36.483  12.049
46898W        W19213  16.664  38.700  11.466
46899W        W19214  13.079   0.631  12.378
46900W        W19215  26.802  33.631  12.069
46901W        W19216  14.995  17.570   2.726
46902W        W19217  22.431  34.569  11.583
46903W        W19218  42.959  33.918   3.712
46904W        W19219  32.035  11.156   4.512
46905W        W19220  24.007   3.387   0.754
46906W        W19221  29.496   6.125  11.605
46907W        W19222  20.569  15.270  10.872
46908W        W19223  21.038  23.012  12.502
46909W        W19224  32.951  41.355   4.129
46910W        W19225  11.812  27.187  13.759
46911W        W19226   1.280  35.324   0.509
46912W        W19227  17.104  40.775   5.581
46913W        W19228  42.746  40.405  13.986
46914W        W19229   8.422  16.255   2.333
46915W        W19230  28.719  26.292   3.199
46916W        W19231  14.433  30.889  14.375
46917W        W19232  41.445  43.806   0.230
46918W        W19233  15.516  15.135   2.957
46919W        W19234   3.758  21.746  14.399
46920W        W19235  39.003  26.117  10.982
46921W        W19236  17.208   3.370   2.307
46922W        W19237   9.554  30.016  13.898
46923W        W19238  27.134   5.937  11.025
46924W        W19239  24.706  15.199   4.236
46925W        W19240  41.275  15.760   1.867
46926W        W19241  28.570   9.151   3.678
46927W        W19242  21.736  43.334   1.201
46928W        W19243  15.647  26.224  11.098
46929W        W19244  38.328   1.176   1.172
46930W        W19245  31.625  10.727  12.247
46931W        W19246  25.593  10.639  14.334
46932W        W19247  10.247  26.623  14.036
46933W        W19248  37.947  32.661   3.674
46934W        W19249  22.765  31.655  10.898
46935W        W19250  37.130  39.774   4.156
46936W        W19251   0.266  35.363  10.188
46937W        W19252  17.770   3.672   3.774
46938W        W19253  13.265  19.812  12.500
46939W        W19254  11.251  37.327   4.380
46940W        W19255  34.468  23.153  11.727
46941W        W19256  39.841  24.799  10.122
46942W        W19257  33.979  29.575   0.311
46943W        W19258  15.711  19.820  13.335
46944W        W19259   2.418  36.560   5.536
46945W        W19260   1.482   9.632  11.673
46946W        W19261  16.597   2.880   3.963
46947W        W19262  44.528   2.314  14.861
46948W        W19263  43.000  18.394   4.548
46949W        W19264  18.330  23.947  10.930
46950W        W19265  29.968  44.514   4.523
46951W        W19266  23.602   2.184   4.567
46952W        W19267  18.236   4.757  13.841
46953W        W19268  30.550  38.443  12.568
46954W        W19269  12.254  17.693  13.081
46955W        W19270  20.085   2.895  12.209
46956W        W19271  13.760  15.800  13.958
46957W        W19272  30.383  23.453  14.246
46958W        W19273   7.840  10.734   2.851
46959W        W19274  42.414  30.393   4.197
46960W        W19275  11.070  10.106   2.441
46961W        W19276  27.988  15.977  14.517
46962W        W19277  35.410   7.924   2.715
46963W        W19278  40.115   9.441  12.026
46964W        W19279  30.043  33.514  14.483
46965W        W19280   0.352   7.203   1.885
46966W        W19281   4.736  11.295   3.723
46967W        W19282  39.328   4.937   1.751
46968W        W19283  21.999  28.524   4.525
46969W        W19284  21.174  39.653  11.727
46970W        W19285  21.773  10.121  14.758
46971W        W19286  34.440  29.121  13.388
46972W        W19287  41.782   7.801   2.016
46973W        W19288  14.206  17.035  12.619
46974W        W19289  40.012   0.989  13.570
46975W        W19290  34.158  37.302  11.073
46976W        W19291  27.673  23.741   4.159
46977W        W19292  37.567  17.256  10.739
46978W        W19293  44.528   2.774  14.561
46979W        W19294  10.943  19.094  12.917
46980W        W19295  32.320   5.941   1.465
46981W        W19296  10.987  36.624  12.225
46982W        W19297   7.110  15.718   4.528
46983W        W19298   2.794  42.403   2.427
46984W        W19299  43.475  31.528   2.777
46985W        W19300  25.917  37.870  13.978
46986W        W19301  43.486  34.950   3.787
46987W        W19302  41.019  23.781   4.226
46988W        W19303  27.683  32.491   2.457
46989W        W19304  24.590  10.892  14.741
46990W        W19305   4.000   6.401  11.794
46991W        W19306  12.168  38.809   0.889
46992W        W19307  25.858   5.343   4.033
46993W        W19308  15.150  37.530   4.513
46994W        W19309  15.578   4.991   2.630
46995W        W19310  38.486  18.262  13.009
46996W        W19311  36.560   9.476  14.985
46997W        W19312  26.108  10.730  10.364
46998W        W19313  33.948   8.657  13.407
46999W        W19314  36.471  10.785   0.281
47000W        W19315  28.453   2.914   0.360
47001W        W19316  40.998  13.057   3.757
47002W        W19317  22.758  41.331   1.361
47003W        W19318  14.043  36.540   0.815
47004W        W19319  22.177   9.707  10.850
47005W        W19320  37.589  36.051   2.687
47006W        W19321  18.289  34.551   1.635
47007W        W19322  33.417  16.793  13.977
47008W        W19323  24.957  23.661  11.887
47009W        W19324  43.318  31.635  10.751
47010W        W19325  28.081  37.548  11.185
47011W        W19326   1.786  29.121  13.954
47012W        W19327  31.810  35.448   2.759
47013W        W19328   8.135  12.989  14.828
47014W        W19329  36.152   0.929   3.161
47015W        W19330  17.356  31.373  13.902
47016W        W19331  27.967  18.518   4.178
47017W        W19332  41.205  32.693  12.409
47018W        W19333  15.906  19.587  11.501
47019W        W19334   4.886   1.178  11.152
47020W        W19335  43.781  14.180  13.825
47021W        W19336  30.099  19.410   2.075
47022W        W19337  34.392   2.851   4.387
47023W        W19338  34.013   0.259   3.004
47024W        W19339  36.477   0.854   0.738
47025W        W19340  20.436   9.720  10.163
47026W        W19341  27.557   4.619  10.100
47027W        W19342  44.688  11.223  13.813
47028W        W19343  19.266  35.372   4.036
47029W        W19344  41.480  22.987  12.943
47030W        W19345  17.817  41.863   0.009
47031W        W19346  44.432  40.965   3.767
47032W        W19347  13.435  35.500  13.580
47033W        W19348  25.568  41.538   0.463
47034W        W19349   9.428  42.011   4.519
47035W        W19350  33.562  34.366   3.634
47036W        W19351  14.268  13.748   2.456
47037W        W19352  30.058  42.151   4.559
47038W        W19353  35.459  44.583  11.542
47039W        W19354  15.105  14.623  12.485
47040W        W19355  37.392  39.377  10.661
47041W        W19356  27.275  12.537  12.017
47042W        W19357   9.408  15.744  12.388
47043W        W19358  19.193  39.072  13.916
47044W        W19359   1.914  44.548   1.374
47045W        W19360  20.544   1.245  10.773
47046W        W19361   9.326  12.389  14.836
47047W        W19362  11.241  29.369  13.586
47048W        W19363  11.373  44.171  11.158
47049W        W19364  42.735  32.671  12.380
47050W        W19365   1.821  16.587  13.591
47051W        W19366  12.548  39.777   3.537
47052W        W19367  37.759  13.386   0.960
47053W        W19368  40.532   9.756   2.407
47054W        W19369  25.439   9.310   3.253
47055W        W19370  30.650  44.501   4.127
47056W        W19371  10.402  16.572  10.675
47057W        W19372  16.309  22.445   0.444
47058W        W19373  21.571  43.211   4.903
47059W        W19374  41.443  25.995   4.149
47060W        W19375  35.176   4.041   1.739
47061W        W19376  20.638   9.596   0.008
47062W        W19377  13.538  18.311  14.178
47063W        W19378   4.185  40.063   3.686
47064W        W19379  30.436  27.097  11.039
47065W        W19380  38.850  10.453   1.217
47066W        W19381   2.878  31.137   2.484
47067W        W19382  11.634  41.865   1.201
47068W        W19383  23.115  42.508   1.674
47069W        W19384  33.618  44.856  13.396
47070W        W19385  24.414   7.414   2.613
47071W        W19386   4.725  26.554  14.484
47072W        W19387  34.028  25.757  13.876
47073W        W19388  34.556  35.358  11.631
47074W        W19389  23.886  23.291   9.997
47075W        W19390  42.664  42.674  10.984
47076W        W19391  12.900  30.597   4.087
47077W        W19392  42.072   5.898  12.694
47078W        W19393  38.382   6.165  13.091
47079W        W19394   4.821   1.640  14.393
47080W        W19395  25.376  34.024  10.788
47081W        W19396  24.145  19.672   1.831
47082W        W19397  21.143  29.375  14.145
47083W        W19398  22.077   5.368  10.376
47084W        W19399  15.513  22.585  14.108
47085W        W19400  14.862  33.944   2.751
47086W        W19401  17.493  14.852  12.931
47087W        W19402  13.285  43.118  12.619
47088W        W19403   4.477  18.258  10.509
47089W        W19404  15.780   2.708   2.813
47090W        W19405  37.937  24.136   3.941
47091W        W19406  36.531   8.631   2.746
47092W        W19407  14.360  24.105   4.954
47093W        W19408   4.306   0.451  12.486
47094W        W19409  30.006  43.270  12.491
47095W        W19410  44.078  20.640   4.647
47096W        W19411  42.458  31.189  10.486
47097W        W19412  15.537  17.295  14.821
47098W        W19413  27.983  19.750  10.748
47099W        W19414  32.474  41.722   3.744
47100W        W19415  30.407   8.873   1.860
47101W        W19416  21.110  25.479   4.694
47102W        W19417  15.627  28.712   3.712
47103W        W19418  14.814  23.495   2.544
47104W        W19419  11.661  22.599   2.228
47105W        W19420  20.039  34.620   4.571
47106W        W19421   1.948   3.956  11.391
47107W        W19422  24.930  23.159  12.040
47108W        W19423  12.672  15.617   3.414
47109W        W19424  26.480  16.242  13.967
47110W        W19425   7.273   2.822   0.888
47111W        W19426  12.711   3.503   3.551
47112W        W19427  34.414  38.896   2.635
47113W        W19428  27.137  37.094  13.886
47114W        W19429   9.225  39.311  12.913
47115W        W19430  31.423  11.154  13.758
47116W        W19431  16.306   5.159   1.251
47117W        W19432  13.711  23.000  11.571
47118W        W19433  32.525   7.389   1.011
47119W        W19434  21.675  41.819  12.504
47120W        W19435  32.992  37.078  11.221
47121W        W19436   0.347  15.396  14.042
47122W        W19437   0.014  35.169   2.486
47123W        W19438   2.946  12.880   0.333
47124W        W19439  34.046  22.674  10.604
47125W        W19440  39.243   3.760  12.145
47126W        W19441   8.820  24.720   1.240
47127W        W19442  35.307  27.008   2.771
47128W        W19443  19.439   9.860   4.135
47129W        W19444  10.817  18.669   5.360
47130W        W19445  17.642  13.610  11.624
47131W        W19446  16.624  24.560   2.186
47132W        W19447   6.429   5.790   0.282
47133W        W19448  22.995  18.161  10.557
47134W        W19449  14.045  21.774   1.936
47135W        W19450  12.051  37.270  11.100
47136W        W19451  32.894  15.915   3.687
47137W        W19452   8.776  11.837  12.457
47138W        W19453  25.635  25.058  10.639
47139W        W19454  13.536  30.809  12.378
47140W        W19455  36.514  14.699   4.549
47141W        W19456  12.183  30.674   3.629
47142W        W19457   3.752  16.015  13.885
47143W        W19458   7.368  16.486  10.781
47144W        W19459  30.594   1.254  13.699
47145W        W19460   9.397  25.537   2.933
47146W        W19461  32.437  25.238   0.286
47147W        W19462  40.597  12.877   3.422
47148W        W19463  21.763  11.806   0.704
47149W        W19464  33.659  25.405   0.317
47150W        W19465  17.530  26.173  12.079
47151W        W19466  22.632  10.115  14.950
47152W        W19467  41.896   6.806   0.047
47153W        W19468  37.298   8.774   4.083
47154W        W19469  40.660  17.420   1.332
47155W        W19470   0.463  19.206   1.418
47156W        W19471  44.423  24.942   3.572
47157W        W19472   9.244  35.702   3.905
47158W        W19473  31.526  10.615  13.993
47159W        W19474  22.025  42.300  12.648
47160W        W19475  32.691   5.757  13.943
47161W        W19476   7.619  25.541  14.584
47162W        W19477  32.888  22.609   4.095
47163W        W19478   2.899   5.663  13.032
47164W        W19479  14.660  12.140  11.003
47165W        W19480  22.971  37.595  13.769
47166W        W19481  18.063  16.715   0.804
47167W        W19482   8.956  21.714  10.480
47168W        W19483  25.665  39.043  13.535
47169W        W19484  36.654   2.787   0.874
47170W        W19485  28.922   1.293  11.970
47171W        W19486  11.261  11.380   2.866
47172W        W19487  28.221  10.309  12.272
47173W        W19488  43.810  44.949  14.626
47174W        W19489  43.370  33.904   2.311
47175W        W19490  27.915  13.546   1.251
47176W        W19491  34.847  24.770   0.745
47177W        W19492  23.180  44.252  12.054
47178W        W19493  40.539   1.378   0.439
47179W        W19494  24.424  10.112  14.220
47180W        W19495   7.577   8.549   4.039
47181W        W19496  29.556   6.225  13.450
47182W        W19497  24.734  44.339   0.235
47183W        W19498  44.270  27.543  13.474
47184W        W19499  39.090   1.479  12.435
47185W        W19500  26.475  29.945  13.979
47186W        W19501  38.277  22.483  12.917
47187W        W19502  43.335   6.212   4.186
47188W        W19503  26.868   2.518  10.691
47189W        W19504  23.967   2.053  14.796
47190W        W19505  36.159   5.447   4.662
47191W        W19506  19.582  22.588   2.924
47192W        W19507  10.646  13.174   3.694
47193W        W19508  28.033  18.097  10.216
47194W        W19509  23.551  36.327   2.893
47195W        W19510   9.312   1.663  13.181
47196W        W19511   6.189  21.036  14.782
47197W        W19512  22.000   8.247  10.514
47198W        W19513  30.200  28.413   1.890
47199W        W19514  13.261  18.783   3.221
47200W        W19515   1.326  25.164  12.502
47201W        W19516  15.801  44.464   4.297
47202W        W19517  36.021  41.697  10.999
47203W        W19518  38.299  40.856   1.447
47204W        W19519   0.775  42.129  12.099
47205W        W19520  24.016  40.102   3.122
47206W        W19521  14.318   5.077  13.126
47207W        W19522  37.817  28.451  11.728
47208W        W19523  42.122  15.033  12.059
47209W        W19524  23.538  22.823   2.790
47210W        W19525  36.631  16.610   1.548
47211W        W19526   4.302   0.391  10.955
47212W        W19527  31.121  21.299  14.336
47213W        W19528  43.341  31.089   2.397
47214W        W19529   2.483  17.130  13.577
47215W        W19530  30.046  39.584   1.910
47216W        W19531  43.862   9.361   3.221
47217W        W19532  35.500   1.109   3.365
47218W        W19533  18.562  43.691  13.607
47219W        W19534  42.389  29.507  14.502
47220W        W19535  22.293  33.934   0.588
47221W        W19536  15.532  39.177  11.392
47222W        W19537  12.032  25.637   3.072
47223W        W19538  31.089  37.336   3.293
47224W        W19539   1.416  42.831   1.536
47225W        W19540   5.311   3.324   2.614
47226W        W19541  38.470  34.559  12.595
47227W        W19542  31.371   5.595   1.524
47228W        W19543  34.609   5.578   2.784
47229W        W19544  27.953  15.131   3.622
47230W        W19545  10.372   9.819  11.183
47231W        W19546  34.895  21.541   1.486
47232W        W19547  12.657  25.736   1.330
47233W        W19548  19.733   1.312   0.864
47234W        W19549   2.377  33.938  12.077
47235W        W19550  10.097  28.033  12.655
47236W        W19551  21.697  24.708   1.896
47237W        W19552   2.126   5.245   4.055
47238W        W19553  33.527   7.602  13.863
47239W        W19554  10.799  41.450  12.540
47240W        W19555  25.950  18.274  12.468
47241W        W19556  40.001  40.926   3.837
47242W        W19557  43.268  34.085   1.235
47243W        W19558   0.545  37.032   4.530
47244W        W19559  18.079   0.439   2.824
47245W        W19560  19.276  40.920  12.852
47246W        W19561   8.973  29.066   1.395
47247W        W19562  34.183  29.747   2.262
47248W        W19563   1.515   8.182  12.251
47249W        W19564  25.469   5.771  14.342
47250W        W19565  37.334   7.064  14.974
47251W        W19566  14.658  42.296  13.842
47252W        W19567  30.073  34.856   4.849
47253W        W19568   5.187  42.019   4.118
47254W        W19569  28.652   9.418   0.842
47255W        W19570  21.659  42.057   0.454
47256W        W19571   5.577  30.555  13.140
47257W        W19572  40.942  24.983  14.005
47258W        W19573   2.922  17.191  11.175
47259W        W19574  29.676  29.690  14.375
47260W        W19575  38.754  33.952   2.423
47261W        W19576   7.056  21.563  14.875
47262W        W19577  12.815  27.501   3.309
47263W        W19578  26.549  34.605   4.772
47264W        W19579  20.034  17.183  12.967
47265W        W19580  37.235   9.325  11.030
47266W        W19581   4.100  37.367   2.385
47267W        W19582  35.776  41.057   2.582
47268W        W19583  13.255  20.617  12.990
47269W        W19584   4.398  25.692   2.747
47270W        W19585  26.799  39.578   0.238
47271W        W19586  40.409  43.605  12.149
47272W        W19587   7.215   8.222   2.199
47273W        W19588  34.574  23.032   3.318
47274W        W19589   6.879  40.087   4.456
47275W        W19590   2.189  15.778   0.183
47276W        W19591   9.684  26.580  14.021
47277W        W19592  14.622  31.865  10.746
47278W        W19593  44.156  41.741   2.220
47279W        W19594  25.304  14.152   1.499
47280W        W19595   3.579  32.022  12.857
47281W        W19596  39.353  17.485   1.779
47282W        W19597  20.255   6.162   2.643
47283W        W19598  34.806   3.679   2.658
47284W        W19599   3.000  28.808   4.126
47285W        W19600  42.508  19.267  13.985
47286W        W19601  16.184  21.744  12.545
47287W        W19602   7.238  28.490   2.766
47288W        W19603  23.133  41.286  12.925
47289W        W19604  21.669  20.676   2.831
47290W        W19605  36.031  41.764   1.807
47291W        W19606  38.385  34.457  13.978
47292W        W19607   8.117  23.505   0.187
47293W        W19608  25.522   4.822   1.397
47294W        W19609  22.046  33.679   2.967
47295W        W19610  25.115  21.062  13.051
47296W        W19611   6.529  10.881  10.754
47297W        W19612  35.115  13.760  13.922
47298W        W19613  28.097  22.568   2.326
47299W        W19614  32.069  26.332  14.665
47300W        W19615   8.835  16.174  12.316
47301W        W19616  44.780  29.880  14.633
47302W        W19617   0.515  10.703  11.466
47303W        W19618  28.730  33.098   4.032
47304W        W19619  28.360  23.690   2.581
47305W        W19620   8.358  33.967   3.750
47306W        W19621  21.841  17.806  13.828
47307W        W19622  22.051  11.604  13.997
47308W        W19623  31.884  10.371  14.435
47309W        W19624  12.773  10.424   3.702
47310W        W19625   1.041  32.883   4.209
47311W        W19626   6.994  17.864   0.266
47312W        W19627  17.271  38.792   5.425
47313W        W19628  11.740   3.829   3.266
47314W        W19629  13.552   7.999  14.125
47315W        W19630  19.073  13.211  12.223
47316W        W19631   8.081  14.872  14.004
47317W        W19632  21.609   8.890   3.293
47318W        W19633  34.499  32.669   3.629
47319W        W19634  35.517  14.885  12.018
47320W        W19635  14.100   0.751   1.708
47321W        W19636  35.328  19.201  13.558
47322W        W19637  30.713  17.733  12.252
47323W        W19638  17.048  39.589   4.570
47324W        W19639  33.653   9.394   3.852
47325W        W19640   3.070  18.976  11.591
47326W        W19641   5.700  18.317  12.048
47327W        W19642  19.908  36.152   0.437
47328W        W19643   3.735   9.257   3.608
47329W        W19644  40.978  34.631   0.910
47330W        W19645  26.079  26.623  14.983
47331W        W19646  44.871   0.180  11.065
47332W        W19647  30.570  10.193  11.584
47333W        W19648  34.837  11.608   4.575
47334W        W19649  34.933  32.392   0.906
47335W        W19650   7.312  22.279   1.992
47336W        W19651  26.972  16.541  11.545
47337W        W19652  10.715  16.531  13.869
47338W        W19653  37.597  27.668   2.395
47339W        W19654  28.606  33.541   5.408
47340W        W19655  13.220  28.608   1.276
47341W        W19656  18.171  14.889  13.458
47342W        W19657  40.080   3.263   3.186
47343W        W19658   4.777  21.469   3.104
47344W        W19659  10.321  11.112  14.877
47345W        W19660  35.505  16.754   3.642
47346W        W19661   2.772  11.265  10.662
47347W        W19662  42.213  38.429   3.695
47348W        W19663  32.069  25.198  12.533
47349W        W19664   9.899   9.200   4.085
47350W        W19665  32.978  25.676   1.944
47351W        W19666   6.253  18.297  13.564
47352W        W19667  37.350   2.677   4.627
47353W        W19668  14.108  21.924  12.564
47354W        W19669   3.428  31.951  10.584
47355W        W19670  11.111  15.147  14.369
47356W        W19671  19.205  40.042  12.882
47357W        W19672  13.038   6.979  10.127
47358W        W19673  11.005   2.363   2.729
47359W        W19674  28.499  32.430   0.999
47360W        W19675  12.168  18.123   2.839
47361W        W19676  25.757  20.629  14.783
47362W        W19677  20.254  25.136  11.197
47363W        W19678  38.836  19.337  13.170
47364W        W19679  24.256  44.019  13.403
47365W        W19680  35.544  33.579  14.029
47366W        W19681  10.305  37.287  11.727
47367W        W19682  44.740  41.773  11.185
47368W        W19683  21.770   1.504   4.116
47369W        W19684   1.424  25.739  12.909
47370W        W19685  29.964  33.751   1.871
47371W        W19686  26.549  31.861   2.206
47372W        W19687  17.365  13.345  11.228
47373W        W19688   8.913  20.840   1.178
47374W        W19689  37.969  21.546  12.045
47375W        W19690  40.897  32.092   2.580
47376W        W19691   6.372   2.855   1.911
47377W        W19692   2.915  18.150  13.153
47378W        W19693   2.788  36.866  14.153
47379W        W19694  17.364   5.723   4.207
47380W        W19695  17.330  44.617   3.001
47381W        W19696  20.104  40.036   1.443
47382W        W19697  28.711  17.175   0.067
47383W        W19698   3.664  41.341  14.933
47384W        W19699  24.544   4.139   3.001
47385W        W19700  13.511  20.140  10.598
47386W        W19701   3.032  13.988  12.864
47387W        W19702  42.506  29.636   0.819
47388W        W19703  32.593   5.664   4.223
47389W        W19704  24.795  44.795  14.940
47390W        W19705  34.981  19.370  11.946
47391W        W19706  19.700  21.173   0.122
47392W        W19707  38.368  27.976  12.095
47393W        W19708  23.874  16.009   1.748
47394W        W19709  23.535   6.838  14.827
47395W        W19710  14.381  11.313   1.199
47396W        W19711   0.986  36.933   3.074
47397W        W19712   8.500  24.747  11.234
47398W        W19713   3.376  17.167   1.516
47399W        W19714  24.155  28.639   2.850
47400W        W19715  17.528  35.860   4.771
47401W        W19716  44.708  24.766  11.928
47402W        W19717  13.578  27.188  12.635
47403W        W19718  34.964   9.458  13.440
47404W        W19719  31.055   2.300   3.378
47405W        W19720  15.796  43.349   3.218
47406W        W19721  21.985  27.167   3.853
47407W        W19722  14.798  43.295  14.208
47408W        W19723  11.888  18.745   2.399
47409W        W19724   8.218  14.450  11.671
47410W        W19725  35.839  22.296  11.638
47411W        W19726  31.908  40.527   0.240
47412W        W19727  13.235  31.404  13.100
47413W        W19728  34.634  28.033   2.923
47414W        W19729  28.693  15.396  14.354
47415W        W19730  11.229  20.265   0.446
47416W        W19731  27.681  33.709   0.360
47417W        W19732   1.735  41.718  12.239
47418W        W19733   3.133   1.979   0.195
47419W        W19734   7.381  43.001   0.250
47420W        W19735  41.431  23.030  11.185
47421W        W19736  26.974  44.013   2.589
47422W        W19737  44.005  19.450   1.413
47423W        W19738   5.352  28.665  10.693
47424W        W19739  15.147  22.052   3.785
47425W        W19740  44.733  16.785   1.654
47426W        W19741  39.433  44.783   4.257
47427W        W19742  10.111  33.723  11.673
47428W        W19743  14.624  36.696   2.274
47429W        W19744   1.710  20.342   0.374
47430W        W19745  33.173   0.016   1.965
47431W        W19746  32.371  21.902   1.098
47432W        W19747  43.029  30.943  13.849
47433W        W19748   8.174  22.262  13.477
47434W        W19749  12.853  18.666   1.978
47435W        W19750  40.246  41.379  13.191
47436W        W19751  18.157  21.265  13.416
47437W        W19752  31.714  11.591   0.858
47438W        W19753  16.508  37.817   0.490
47439W        W19754  34.917  23.419   2.316
47440W        W19755  32.858  43.433  11.559
47441W        W19756  39.438  36.829  11.169
47442W        W19757   1.468  38.321   4.166
47443W        W19758  39.534  14.413  11.915
47444W        W19759  24.702  37.372   0.377
47445W        W19760  15.728  31.492  11.672
47446W        W19761  18.172  37.186   1.804
47447W        W19762   2.655  37.955   1.489
47448W        W19763   3.958  33.014  13.789
47449W        W19764  29.456  37.319  14.539
47450W        W19765   6.498  30.605  11.158
47451W        W19766  14.681  21.679   4.730
47452W        W19767  30.994   1.411   4.619
47453W        W19768  41.589  34.927   2.698
47454W        W19769  42.186  34.015   0.451
47455W        W19770  35.309  14.478  11.144
47456W        W19771  33.873   3.953  14.821
47457W        W19772  43.280  33.954  14.781
47458W        W19773   6.192  20.534  14.912
47459W        W19774  28.074  27.578   4.171
47460W        W19775   5.204  18.560  12.913
47461W        W19776  21.025  42.281   3.327
47462W        W19777  44.974  20.110   2.685
47463W        W19778  20.586  38.392  14.457
47464W        W19779   3.500   6.689   1.329
47465W        W19780  39.830  36.057   0.162
47466W        W19781  24.521  39.807  13.354
47467W        W19782  38.421   2.325  10.487
47468W        W19783  15.366  21.912   5.248
47469W        W19784  35.635  41.369  14.241
47470W        W19785  39.325  40.358   4.189
47471W        W19786   4.990  25.665   0.507
47472W        W19787  18.484   8.143  10.244
47473W        W19788   4.257  29.223   4.119
47474W        W19789  34.762  31.097   3.286
47475W        W19790  23.616  13.698  12.721
47476W        W19791  31.861  35.885  10.287
47477W        W19792  17.955   9.101   0.264
47478W        W19793  11.370  18.707   2.636
47479W        W19794   8.616  23.056  13.407
47480W        W19795  42.605  31.395   1.373
47481W        W19796  44.217   1.272  11.475
47482W        W19797  32.491  24.990  13.353
47483W        W19798   7.683  35.089  11.424
47484W        W19799   2.295   6.004   3.594
47485W        W19800  40.450  13.887  13.451
47486W        W19801  16.810  43.668   4.802
47487W        W19802  36.390  21.765   3.668
47488W        W19803   0.910  18.291   0.837
47489W        W19804  20.263   2.470   2.364
47490W        W19805  22.220   0.987   2.713
47491W        W19806  12.092  14.013  12.614
47492W        W19807  35.230  22.791  11.296
47493W        W19808  15.839   8.327  12.954
47494W        W19809  36.210  31.606   0.030
47495W        W19810  16.245   1.203   2.151
47496W        W19811   2.387  34.882  12.782
47497W        W19812   1.202  15.478  13.467
47498W        W19813  35.705  39.236  11.173
47499W        W19814  11.680   6.338  13.222
47500W        W19815  44.821  21.231   3.218
47501W        W19816  36.793  32.029  13.504
47502W        W19817  44.896  13.248   2.349
47503W        W19818  23.529  31.012   3.772
47504W        W19819  42.943  19.300  13.705
47505W        W19820  34.790  11.878  13.471
47506W        W19821  10.677  26.738  14.308
47507W        W19822   4.894  43.588   2.661
47508W        W19823   6.395  24.397  11.150
47509W        W19824  21.955  38.534  14.037
47510W        W19825  10.610  30.902   4.178
47511W        W19826   9.940  31.006   3.611
47512W        W19827  32.465  11.905   1.282
47513W        W19828  28.051  12.914  11.820
47514W        W19829   6.821  13.326   3.741
47515W        W19830  22.531  17.418  12.770
47516W        W19831  14.272  12.590  10.660
47517W        W19832  13.660  26.665  14.068
47518W        W19833   5.843   2.885  13.414
47519W        W19834  44.767  24.512  14.031
47520W        W19835   7.160  26.194  13.903
47521W        W19836  27.650   9.298   2.283
47522W        W19837  26.797  37.527  13.908
47523W        W19838   8.217  12.747  12.058
47524W        W19839   6.120  34.960   2.027
47525W        W19840  10.342  10.604  11.709
47526W        W19841  26.037  13.695   1.625
47527W        W19842  22.230  28.095  12.196
47528W        W19843  23.348  40.615  12.553
47529W        W19844  31.929  38.409   0.396
47530W        W19845  31.881   8.879   1.884
47531W        W19846   1.809  12.024   1.976
47532W        W19847  15.589  22.172  14.393
47533W        W19848  29.301  14.649  12.426
47534W        W19849   7.856   9.623   3.642
47535W        W19850  12.839  40.932  11.964
47536W        W19851  42.711   8.208   0.847
47537W        W19852  20.654  33.725  14.338
47538W        W19853   2.795   2.783  12.898
47539W        W19854   5.953  29.140  10.517
47540W        W19855  20.195   9.575   5.051
47541W        W19856  26.963  24.195  14.829
47542W        W19857  20.495  16.257  13.028
47543W        W19858   9.822   9.863   0.267
47544W        W19859   5.208  11.719   4.534
47545W        W19860   8.004  15.132   3.654
47546W        W19861  10.139   7.700  12.169
47547W        W19862  30.002   8.234   3.356
47548W        W19863  38.018  43.709  14.344
47549W        W19864   6.204  26.589   4.825
47550W        W19865  27.673  32.015   4.267
47551W        W19866  12.013  37.544   1.748
47552W        W19867   2.683  15.703   0.322
47553W        W19868  16.581  24.234  13.993
47554W        W19869  30.139  34.694   1.429
47555W        W19870  35.964  37.513   3.634
47556W        W19871  35.790   9.707  12.832
47557W        W19872  27.896   2.269  10.623
47558W        W19873  12.164  27.277  12.109
47559W        W19874  42.889  35.054   1.292
47560W        W19875  31.660  27.450  11.201
47561W        W19876   3.909   5.345  13.724
47562W        W19877  38.464   6.296  11.575
47563W        W19878  29.615  37.933   0.830
47564W        W19879  34.754  44.244   0.937
47565W        W19880  40.386   2.414   2.871
47566W        W19881  14.584   2.047  13.925
47567W        W19882  32.044  36.258  10.618
47568W        W19883  35.528  18.815  14.346
47569W        W19884  20.041  21.276  12.951
47570W        W19885  39.001  25.231   3.413
47571W        W19886  33.458  35.938   3.736
47572W        W19887  43.581   0.348  11.566
47573W        W19888  21.933  21.057   9.729
47574W        W19889  41.128  10.022  11.331
47575W        W19890   0.190  27.814   4.296
47576W        W19891  14.138  12.762  13.862
47577W        W19892  16.010  10.775  14.714
47578W        W19893  10.850  28.414  10.659
47579W        W19894  37.503  34.182  14.271
47580W        W19895  13.564  44.267   3.231
47581W        W19896  15.615   6.774  10.300
47582W        W19897  29.613  22.432  12.097
47583W        W19898   2.463  36.325  12.940
47584W        W19899  27.191  35.602  11.822
47585W        W19900  30.695   7.660   3.198
47586W        W19901  17.622  25.644   2.640
47587W        W19902  13.779   1.532   1.824
47588W        W19903  28.519   1.640  12.572
47589W        W19904  31.346  42.765  14.872
47590W        W19905  10.920  14.828   0.180
47591W        W19906   1.726  27.036   2.783
47592W        W19907  28.221   0.764   1.876
47593W        W19908  43.529  15.880   1.187
47594W        W19909  18.373  37.641   4.103
47595W        W19910  32.599   4.361   3.721
47596W        W19911  22.501  17.678   0.329
47597W        W19912  12.584  37.573   4.792
47598W        W19913  13.750  34.155  14.376
47599W        W19914   8.166   6.925  13.545
47600W        W19915  18.279  22.049  12.918
47601W        W19916  25.273  31.126   4.593
47602W        W19917  29.086  32.489   2.713
47603W        W19918  32.992  20.962   1.325
47604W        W19919  32.165  38.419   3.054
47605W        W19920  12.908  44.330   3.745
47606W        W19921  34.528  32.466   2.161
47607W        W19922  31.858  14.706   1.928
47608W        W19923  40.065  26.123  12.170
47609W        W19924  36.893  15.311   3.700
47610W        W19925   0.962   5.208   2.292
47611W        W19926  30.068  26.922  10.707
47612W        W19927   2.349   5.187   0.452
47613W        W19928   0.782  43.909   1.021
47614W        W19929  43.140  25.101   2.711
47615W        W19930  22.352  18.763   2.289
47616W        W19931  39.347  42.282  12.972
47617W        W19932  25.627  12.372  13.886
47618W        W19933  31.421  27.624   3.389
47619W        W19934  35.579  42.306  14.979
47620W        W19935  30.635  17.225   2.243
47621W        W19936  17.301  22.248   4.335
47622W        W19937  40.447   4.771   3.206
47623W        W19938   5.442  33.327   0.071
47624W        W19939  13.282  36.144  11.669
47625W        W19940   7.662  28.604   1.968
47626W        W19941  28.195  44.991  10.915
47627W        W19942  11.845  21.112  14.120
47628W        W19943  14.341  33.281   2.383
47629W        W19944  19.022  11.336   2.042
47630W        W19945  43.250   0.655   2.208
47631W        W19946  23.162  41.821   3.617
47632W        W19947  24.266  30.920   1.223
47633W        W19948   0.933   5.730   0.782
47634W        W19949  27.903  11.196  14.780
47635W        W19950  13.331  29.661  13.433
47636W        W19951  37.947  39.849  13.972
47637W        W19952  13.228  23.724  11.701
47638W        W19953  12.657   0.873  12.169
47639W        W19954   1.898  44.712   4.148
47640W        W19955  14.304  13.200   0.004
47641W        W19956   2.538   5.800  10.620
47642W        W19957  19.724  44.054  11.577
47643W        W19958   0.371  28.383  11.309
47644W        W19959   5.779   5.438  14.929
47645W        W19960  19.098  42.476  12.138
47646W        W19961  33.080  32.230   1.571
47647W        W19962  28.033   3.417  14.071
47648W        W19963  40.450  18.575   2.770
47649W        W19964  33.906  10.437  11.155
47650W        W19965  28.700   6.206   4.635
47651W        W19966  35.339  13.212   2.366
47652W        W19967  13.633  13.744  14.834
47653W        W19968  36.420  34.454   2.265
47654W        W19969  43.816  39.494   0.129
47655W        W19970  15.521  13.455   3.178
47656W        W19971  12.906  12.254   2.827
47657W        W19972  12.865  37.346   1.695
47658W        W19973  13.343  10.705   2.174
47659W        W19974  20.631   6.688   1.760
47660W        W19975  26.737  12.173   3.141
47661W        W19976   4.391  35.870  11.799
47662W        W19977  36.049  43.158   1.868
47663W        W19978   6.853  15.542  13.944
47664W        W19979  35.044  38.871  14.967
47665W        W19980  43.906  31.811   2.700
47666W        W19981  35.342  13.708  11.619
47667W        W19982  22.309  25.761   4.102
47668W        W19983  28.921   0.568  14.364
47669W        W19984  43.589  44.451  12.857
47670W        W19985  27.583  41.560   2.684
47671W        W19986  19.772   9.945  14.600
47672W        W19987  10.762   3.781  12.197
47673W        W19988  22.933  11.906   1.006
47674W        W19989  41.920  12.908  11.062
47675W        W19990   1.327   8.164  14.552
47676W        W19991  20.078   1.845   1.219
47677W        W19992  24.244  36.816  13.112
47678W        W19993   0.582  21.814  12.502
47679W        W19994   7.427   6.090   0.257
47680W        W19995  14.174  41.102  11.693
47681W        W19996  27.467   3.666   2.862
47682W        W19997   3.915  19.364   0.411
47683W        W19998  30.300  18.015   2.591
47684W        W19999  27.469  31.656  13.454
47685W        W20000  31.380  11.189   0.820
47686W        W20001  21.926   0.825  10.511
47687W        W20002  39.240   1.921  13.971
47688W        W20003  14.240  13.088  11.538
47689W        W20004  23.059  27.404   3.219
47690W        W20005  42.909  34.628  14.334
47691W        W20006  18.055  41.830  10.671
47692W        W20007  26.588   1.772  14.323
47693W        W20008   5.354   9.097   4.127
47694W        W20009   3.306  31.966  11.997
47695W        W20010  38.329  43.289  14.520
47696W        W20011  13.678  21.125   3.308
47697W        W20012   1.205  19.719  14.838
47698W        W20013   9.160   9.106   3.359
47699W        W20014  14.043  10.193   3.102
47700W        W20015  19.873   0.714  12.942
47701W        W20016  31.464   6.909  12.669
47702W        W20017  30.424  14.568  13.426
47703W        W20018  14.195  29.226   0.460
47704W        W20019  12.295   6.301  10.442
47705W        W20020  13.497  44.781   0.517
47706W        W20021  27.232  15.668  10.082
47707W        W20022   1.232  40.434  13.958
47708W        W20023  10.360  40.022  13.335
47709W        W20024  12.798  31.907  12.207
47710W        W20025  15.741  38.844  13.943
47711W        W20026  20.187  25.180  11.768
47712W        W20027  18.328  33.128  14.536
47713W        W20028   3.235  19.331  14.667
47714W        W20029   3.242  13.742  14.569
47715W        W20030  39.824  39.553   0.473
47716W        W20031  37.142   7.323   4.504
47717W        W20032  10.869  31.029  13.987
47718W        W20033   8.497  29.411  12.914
47719W        W20034  39.933   9.223   2.792
47720W        W20035   2.123   9.771   3.279
47721W        W20036  14.437   9.430  13.988
47722W        W20037   3.881  33.068  13.261
47723W        W20038  36.052  38.607   3.736
47724W        W20039   5.389   9.975  13.335
47725W        W20040  13.535  23.748  13.435
47726W        W20041   0.503   8.425   1.320
47727W        W20042  24.123  23.183  12.838
47728W        W20043  31.688  16.533   0.812
47729W        W20044  37.962  15.374  14.648
47730W        W20045  25.458  38.805  11.143
47731W        W20046  33.410  21.856   4.014
47732W        W20047   9.352  11.245  10.926
47733W        W20048  15.228  34.118  12.054
47734W        W20049  37.617  10.590  11.589
47735W        W20050  14.226  18.752   4.242
47736W        W20051   4.666  16.742   2.440
47737W        W20052  13.692  26.317  12.595
47738W        W20053  15.743  40.253  10.143
47739W        W20054  34.947  25.083  12.382
47740W        W20055  32.069   7.133  11.474
47741W        W20056  22.944  30.982   4.696
47742W        W20057  38.917   2.866   0.557
47743W        W20058  41.883  29.518  13.771
47744W        W20059  40.926  21.053  10.507
47745W        W20060  16.268  23.068   3.642
47746W        W20061  39.528  38.235   0.021
47747W        W20062   5.987  10.692  12.014
47748W        W20063  18.892   6.536   3.337
47749W        W20064   1.656  21.771  11.103
47750W        W20065   1.060  20.990   9.884
47751W        W20066  40.840  22.022  13.355
47752W        W20067  14.174  20.609   2.238
47753W        W20068   1.045  33.488   1.164
47754W        W20069   7.478   8.367  10.988
47755W        W20070   1.251  33.047  12.482
47756W        W20071   9.383   3.065  13.392
47757W        W20072   0.748  36.414   3.570
47758W        W20073  11.523  42.373   2.887
47759W        W20074  41.118  33.532   2.327
47760W        W20075  19.782   3.175  11.384
47761W        W20076  21.579  17.552   1.348
47762W        W20077  34.755  22.748  11.093
47763W        W20078  23.581  21.545   0.762
47764W        W20079   1.316  13.152   3.255
47765W        W20080  40.296  12.768   4.992
47766W        W20081  28.514  27.114  10.884
47767W        W20082   9.899   0.009  12.877
47768W        W20083  17.828  21.634  11.065
47769W        W20084  21.271  28.916   4.085
47770W        W20085  34.475  36.369  11.553
47771W        W20086  41.520  37.261  11.506
47772W        W20087  39.448  14.118   1.802
47773W        W20088   7.026  28.357  11.093
47774W        W20089   6.935  37.842  11.561
47775W        W20090   2.718  33.280   4.829
47776W        W20091  32.912  19.754   4.305
47777W        W20092  33.499  12.302  10.604
47778W        W20093  29.527  39.011   3.226
47779W        W20094   2.899  24.384  14.327
47780W        W20095  41.993  28.589  13.074
47781W        W20096  14.231  30.588   3.906
47782W        W20097  26.546  26.692  13.904
47783W        W20098  29.733  22.182  14.520
47784W        W20099  38.314  44.463  13.011
47785W        W20100  44.759  14.330   3.218
47786W        W20101  40.408  12.275  10.492
47787W        W20102  39.759  14.853   3.277
47788W        W20103  44.817  25.726   3.612
47789W        W20104  39.877  16.079  11.645
47790W        W20105  20.719  16.652   1.928
47791W        W20106  12.181  16.231  10.373
47792W        W20107  35.964  10.204   3.230
47793W        W20108  14.933   8.744  14.311
47794W        W20109  42.673  20.719  12.054
47795W        W20110   1.750  22.106  13.236
47796W        W20111   6.727  35.461  14.323
47797W        W20112  43.894   6.915   0.830
47798W        W20113  41.784   6.774   0.952
47799W        W20114  37.564  42.434  14.577
47800W        W20115  39.998  13.641   4.450
47801W        W20116  36.445  10.293   0.472
47802W        W20117   1.925  38.940   1.948
47803W        W20118   5.288  38.848   1.378
47804W        W20119  12.272  15.779   3.730
47805W        W20120   9.767  36.343   2.716
47806W        W20121  27.077  28.509   0.738
47807W        W20122  26.927   8.336   1.874
47808W        W20123  38.371   6.304   2.901
47809W        W20124  28.953  24.518  13.074
47810W        W20125  19.696  17.218   3.225
47811W        W20126   6.779  41.560  14.223
47812W        W20127  39.338  41.259   1.883
47813W        W20128  22.978  29.098  14.267
47814W        W20129  35.159   9.843  12.072
47815W        W20130  38.300  20.545  12.854
47816W        W20131  26.448  12.517  14.521
47817W        W20132  44.227  38.975   3.139
47818W        W20133  15.636  11.665  13.366
47819W        W20134  18.207  25.466  13.038
47820W        W20135  26.203  11.208  11.185
47821W        W20136  26.538  14.238   4.964
47822W        W20137  18.217  29.938   0.831
47823W        W20138  27.179  20.484  13.817
47824W        W20139   0.489   0.317  12.850
47825W        W20140  28.205   3.620   9.760
47826W        W20141  13.734   5.365   3.180
47827W        W20142   3.826  38.641   0.484
47828W        W20143  15.307  42.608   1.322
47829W        W20144  18.005   6.630   1.552
47830W        W20145  29.011   6.754   3.314
47831W        W20146   6.983  20.626   3.860
47832W        W20147  26.262  28.437  11.502
47833W        W20148   4.593  21.322   1.664
47834W        W20149  34.909  40.100   4.112
47835W        W20150  21.269  10.389   4.517
47836W        W20151  31.880  28.867  13.518
47837W        W20152  14.286  32.432  14.401
47838W        W20153  41.264  37.473   2.376
47839W        W20154  26.023   3.868   1.396
47840W        W20155  44.909   5.795  13.393
47841W        W20156  16.810   3.367  12.994
47842W        W20157  34.417  24.170   3.424
47843W        W20158  16.101  23.183  14.974
47844W        W20159  26.968   5.426  13.886
47845W        W20160  20.309   0.445  12.972
47846W        W20161  36.612  41.371  14.784
47847W        W20162   5.688  10.329   2.806
47848W        W20163  19.099   7.095  10.651
47849W        W20164   7.145   6.684   3.532
47850W        W20165  17.299  21.755   3.174
47851W        W20166  16.833  35.329   3.259
47852W        W20167  13.666  12.692   0.066
47853W        W20168  25.276   7.510  13.373
47854W        W20169  24.036  19.374   4.171
47855W        W20170  33.267   9.911   0.923
47856W        W20171   7.869  32.406  11.546
47857W        W20172  23.811  32.091  12.144
47858W        W20173  33.288  22.205   1.438
47859W        W20174  16.163  14.260   4.570
47860W        W20175  15.020  30.034   4.628
47861W        W20176  29.925  15.678   3.967
47862W        W20177  41.769   9.766  10.537
47863W        W20178   0.077   0.259   2.252
47864W        W20179  13.244  13.055   1.875
47865W        W20180   9.850   9.640   3.823
47866W        W20181  36.855  24.488  13.569
47867W        W20182  18.037  38.735   2.310
47868W        W20183  36.033   9.668   4.109
47869W        W20184   9.904  27.166  10.979
47870W        W20185  34.833  20.497  11.435
47871W        W20186   6.877  21.100   4.067
47872W        W20187  29.716  43.753   0.868
47873W        W20188  28.969  19.692   2.619
47874W        W20189  21.244  39.259  14.788
47875W        W20190  36.723  42.165  11.439
47876W        W20191   4.288  32.054   2.694
47877W        W20192   4.937  26.991   4.975
47878W        W20193  34.927   7.633  13.798
47879W        W20194  30.393  11.562   3.705
47880W        W20195   6.337  24.653  13.965
47881W        W20196  32.831  10.125  11.495
47882W        W20197  38.067   9.137   2.710
47883W        W20198  18.163   5.449   0.465
47884W        W20199  37.015   8.755  13.580
47885W        W20200   8.672  34.977  13.859
47886W        W20201   4.810  12.434   4.123
47887W        W20202  10.174  30.391  12.013
47888W        W20203  42.378  33.870  14.965
47889W        W20204  31.354  21.652  12.996
47890W        W20205  25.554  36.917  11.652
47891W        W20206  10.150  10.878  14.421
47892W        W20207   8.539  38.542  10.476
47893W        W20208  29.892  43.999   2.335
47894W        W20209  16.793  37.598  14.174
47895W        W20210  37.134  11.530  10.658
47896W        W20211  18.685  21.253  14.048
47897W        W20212  17.691   6.835  13.367
47898W        W20213  17.284  11.111   4.195
47899W        W20214   2.849  15.674   0.814
47900W        W20215  16.960  42.924   2.188
47901W        W20216  18.237  10.897   4.121
47902W        W20217  43.964  22.498  10.808
47903W        W20218  17.497  43.005   1.302
47904W        W20219  19.944  30.406  14.428
47905W        W20220  17.305  29.118   3.682
47906W        W20221  21.040  29.939  11.893
47907W        W20222   5.410  11.921   2.243
47908W        W20223   9.234  21.545   3.098
47909W        W20224   8.556  28.949  12.123
47910W        W20225   0.154  33.908  10.818
47911W        W20226  41.948  24.052  11.172
47912W        W20227  19.519   2.858   1.228
47913W        W20228   0.843   7.027  13.361
47914W        W20229  34.340  34.170   3.123
47915W        W20230  27.545  39.971   2.108
47916W        W20231  31.506   8.231   0.131
47917W        W20232  44.443  34.858  13.796
47918W        W20233  32.894  29.208  12.178
47919W        W20234  30.504  24.156   1.831
47920W        W20235  19.490  29.126  14.378
47921W        W20236  38.574  21.261  13.444
47922W        W20237  28.756  26.646  13.946
47923W        W20238  21.326  17.362   0.901
47924W        W20239   6.261  18.288   4.591
47925W        W20240  33.315  21.939  14.055
47926W        W20241  31.663  40.801  13.342
47927W        W20242  30.441  23.736   2.737
47928W        W20243   0.526  21.767   4.662
47929W        W20244  21.147  12.272   4.111
47930W        W20245  23.473  22.784  11.457
47931W        W20246  17.484  37.370   4.944
47932W        W20247   5.388  41.327   0.934
47933W        W20248  39.615   1.894   1.822
47934W        W20249  36.772  26.251   0.281
47935W        W20250  43.764  35.394  11.744
47936W        W20251  21.775  11.400  14.392
47937W        W20252  28.266   9.070  10.961
47938W        W20253  15.133   6.269  13.559
47939W        W20254  43.461  30.804   5.020
47940W        W20255  33.305  15.806   2.820
47941W        W20256  35.440  15.437  14.551
47942W        W20257  43.541   5.264   3.123
47943W        W20258  43.720  36.971   0.836
47944W        W20259  14.530  12.767  14.210
47945W        W20260  35.945  20.256  12.542
47946W        W20261   8.237   0.100  10.829
47947W        W20262  35.634  39.549   2.075
47948W        W20263  28.162  23.101   2.264
47949W        W20264  28.933  31.268  13.764
47950W        W20265  37.914   3.558   0.665
47951W        W20266  36.315  32.133   0.295
47952W        W20267   0.914  34.371   0.272
47953W        W20268   9.191  18.807   3.613
47954W        W20269   1.951   3.562  14.256
47955W        W20270  19.180  42.241  12.649
47956W        W20271  20.821   5.288  11.194
47957W        W20272  37.007  42.559   3.074
47958W        W20273  12.840  29.074  13.397
47959W        W20274  32.154   1.956  13.493
47960W        W20275  42.955  16.713  14.523
47961W        W20276   6.137  40.719  11.437
47962W        W20277   7.997  31.485   2.019
47963W        W20278  41.512  31.094   1.844
47964W        W20279   6.638   4.706  12.074
47965W        W20280  40.968  22.804   4.232
47966W        W20281   1.391  30.593   4.721
47967W        W20282  33.471  22.151   0.944
47968W        W20283  24.480   1.678   4.497
47969W        W20284  29.688  22.631  11.601
47970W        W20285  38.548  18.585   1.445
47971W        W20286  18.614   6.943  10.539
47972W        W20287  30.544   3.951   3.758
47973W        W20288  18.527  15.181  14.458
47974W        W20289  24.112   2.174   3.270
47975W        W20290  29.771  35.652  10.182
47976W        W20291  43.836  27.761   3.202
47977W        W20292  44.403   9.038  14.756
47978W        W20293  38.786   7.485  11.188
47979W        W20294  21.123   3.411   2.299
47980W        W20295  44.291  39.437  11.811
47981W        W20296  17.919  16.815  14.925
47982W        W20297  30.943   5.187   2.704
47983W        W20298  26.240  25.457   3.312
47984W        W20299  21.967  36.498  10.596
47985W        W20300  26.046  11.930  14.452
47986W        W20301   3.762  39.487   0.263
47987W        W20302  37.347  29.260  14.743
47988W        W20303   4.271   2.876  10.763
47989W        W20304   0.502  15.725   1.559
47990W        W20305  36.387  32.690   0.500
47991W        W20306  28.114  27.164   3.209
47992W        W20307  41.671  24.512   2.262
47993W        W20308  35.333  22.437  11.670
47994W        W20309  30.977  44.717  11.362
47995W        W20310   3.919  18.373   3.655
47996W        W20311  30.909  22.295  12.712
47997W        W20312  13.801  19.695   2.295
47998W        W20313   9.424   2.706  13.051
47999W        W20314  40.790  24.188   2.661
48000W        W20315  41.053  34.006   4.714
48001W        W20316  23.630  10.755   2.823
48002W        W20317  32.166  24.221  12.473
48003W        W20318  14.759  22.729   0.341
48004W        W20319  19.015  13.201   4.855
48005W        W20320   1.446   4.277  12.969
48006W        W20321  19.627   0.045  14.971
48007W        W20322  34.408  43.915   3.334
48008W        W20323   8.442  31.995  14.455
48009W        W20324  26.529  36.985   0.624
48010W        W20325  40.253   2.873  13.956
48011W        W20326  36.905   9.105   3.549
48012W        W20327  39.773  28.966  12.901
48013W        W20328  39.357  10.573   4.201
48014W        W20329  11.120   4.445  14.241
48015W        W20330   9.727  27.885   1.538
48016W        W20331  38.518   8.335  12.655
48017W        W20332  33.651  43.916  14.473
48018W        W20333  26.936  17.771   2.678
48019W        W20334  33.363   5.870   0.427
48020W        W20335   2.692  25.796  14.937
48021W        W20336   0.477  13.286  10.605
48022W        W20337  15.205  13.724   2.834
48023W        W20338  11.843   1.775  10.083
48024W        W20339  10.191  17.390   2.103
48025W        W20340   5.265  22.755  14.316
48026W        W20341   6.428  13.665  13.025
48027W        W20342  38.658  13.463   3.845
48028W        W20343  35.365  21.990  12.487
48029W        W20344  10.320  16.733   0.963
48030W        W20345  23.980  21.943  11.093
48031W        W20346  37.772  35.026   0.961
48032W        W20347  39.592   2.267  14.308
48033W        W20348  37.957  35.872  12.652
48034W        W20349   6.210  40.454   1.630
48035W        W20350  42.687   6.039  13.299
48036W        W20351   3.291  40.940   2.687
48037W        W20352  23.195   9.964  10.996
48038W        W20353  39.726  29.515   1.513
48039W        W20354  13.182  26.761  13.339
48040W        W20355  21.164  24.281   3.083
48041W        W20356  26.121  33.081   5.203
48042W        W20357  23.162   0.757   4.690
48043W        W20358  18.124   6.796  10.618
48044W        W20359  12.139   1.359   2.634
48045W        W20360   9.454  17.485  12.547
48046W        W20361   5.958  44.008  12.351
48047W        W20362  36.052  33.049   0.297
48048W        W20363  10.489  43.491  11.559
48049W        W20364  24.795  24.081  10.608
48050W        W20365  11.684  38.085   4.568
48051W        W20366  24.534  25.551  11.145
48052W        W20367  43.093  14.701   5.249
48053W        W20368   4.608  29.364   3.614
48054W        W20369  25.088   4.420   2.298
48055W        W20370  40.752  11.123   0.245
48056W        W20371  42.277  12.877  12.749
48057W        W20372  41.554  17.750  14.358
48058W        W20373  33.256  12.759   0.683
48059W        W20374  31.646   5.569   2.135
48060W        W20375  23.732   5.534  14.387
48061W        W20376  25.114  17.327  10.646
48062W        W20377  44.449  29.824   0.944
48063W        W20378  26.098  35.633   4.188
48064W        W20379  21.595   1.969  14.963
48065W        W20380  11.328   1.036   1.764
48066W        W20381  23.233  41.708   2.704
48067W        W20382  16.647  16.427  10.999
48068W        W20383   8.745  34.178   1.183
48069W        W20384   6.762   8.805   1.674
48070W        W20385  39.394   8.284   1.469
48071W        W20386  18.816  36.896   4.579
48072W        W20387  28.353  28.121  14.481
48073W        W20388   0.638  29.078  12.035
48074W        W20389  29.600   4.473  14.523
48075W        W20390  23.389   5.029  12.953
48076W        W20391  38.754   1.365  14.777
48077W        W20392   7.455  42.243  13.411
48078W        W20393   0.848  15.613  14.849
48079W        W20394  25.946   8.835   2.682
48080W        W20395  39.959   5.437  10.737
48081W        W20396   0.427   4.310   1.391
48082W        W20397   2.522  11.157   3.563
48083W        W20398   7.911  28.130   2.230
48084W        W20399   9.909  28.228  14.583
48085W        W20400  38.578  29.910  14.778
48086W        W20401  23.938  34.650  13.520
48087W        W20402   9.968   2.979   0.330
48088W        W20403  37.819  21.149   4.046
48089W        W20404  44.795   6.225   4.364
48090W        W20405  34.795   4.391   1.751
48091W        W20406  41.022  27.749   2.249
48092W        W20407  23.039  25.181  10.942
48093W        W20408  30.977   4.402   3.235
48094W        W20409  25.660  29.676  13.478
48095W        W20410  32.788   1.959  12.023
48096W        W20411  15.070  19.247  11.352
48097W        W20412   0.996  43.227  14.391
48098W        W20413  33.928  13.293  13.507
48099W        W20414  35.858  36.457   3.200
48100W        W20415  40.013   8.102  11.013
48101W        W20416  22.168  20.738   0.738
48102W        W20417  18.000  29.630   2.964
48103W        W20418  33.564   7.228   5.120
48104W        W20419   3.962  17.328  13.493
48105W        W20420  19.169   7.658   1.638
48106W        W20421  39.531  27.291  14.059
48107W        W20422   6.360  26.707   3.374
48108W        W20423  27.109  39.974   0.032
48109W        W20424  16.613  31.676   0.863
48110W        W20425  20.459  38.457   9.763
48111W        W20426  24.186   7.880   0.900
48112W        W20427  31.683  32.041   1.623
48113W        W20428  13.349   9.750   3.644
48114W        W20429  12.580   4.764  11.898
48115W        W20430  29.678   2.872  11.653
48116W        W20431   2.271  12.047   4.765
48117W        W20432  25.122   0.136   2.583
48118W        W20433  42.129  32.502  11.092
48119W        W20434  22.572  28.150   0.731
48120W        W20435   3.776   6.856  11.972
48121W        W20436   6.250  10.404   2.790
48122W        W20437  37.377  10.659  14.644
48123W        W20438  37.008   0.480  11.719
48124W        W20439  35.553  35.420  14.438
48125W        W20440   8.059  10.337  13.916
48126W        W20441   4.872  43.091  10.270
48127W        W20442  21.162  36.506   1.275
48128W        W20443   8.092   6.850   2.720
48129W        W20444  34.826  26.528  10.727
48130W        W20445  43.888  24.786   0.982
48131W        W20446   9.295  29.343  10.774
48132W        W20447  11.257  34.372   0.814
48133W        W20448   0.642  10.578   3.270
48134W        W20449  36.551   2.753  12.549
48135W        W20450  18.492  11.191  14.480
48136W        W20451  19.461  33.303   1.948
48137W        W20452  16.032  33.375  14.011
48138W        W20453   4.786  30.903  10.724
48139W        W20454  18.568  17.037  12.436
48140W        W20455   3.536   8.633  11.920
48141W        W20456   0.010  31.149   4.260
48142W        W20457   8.140  35.448   3.199
48143W        W20458  37.754  24.644   1.133
48144W        W20459   0.856   7.835  12.490
48145W        W20460  20.312  32.045   2.369
48146W        W20461  26.013   4.840   3.908
48147W        W20462  23.057  21.182   1.389
48148W        W20463  14.305  43.617   2.263
48149W        W20464  16.537  12.134   1.937
48150W        W20465   1.592  27.347  12.148
48151W        W20466   1.024   1.447  12.060
48152W        W20467  28.482   8.590   0.298
48153W        W20468  23.627  27.946  10.401
48154W        W20469  39.089  12.877  11.045
48155W        W20470  15.344   9.248   4.339
48156W        W20471  27.977  30.339  10.521
48157W        W20472  27.674  44.001   0.859
48158W        W20473  37.802  22.722   2.228
48159W        W20474  24.815  21.949   4.528
48160W        W20475  20.500  11.618  13.959
48161W        W20476   2.896   6.481  13.476
48162W        W20477  38.416  31.551  10.326
48163W        W20478  30.894  31.741  13.614
48164W        W20479  32.761  30.874  10.604
48165W        W20480  31.984  27.008  13.705
48166W        W20481  11.676  14.119   5.215
48167W        W20482  24.541  31.164   3.628
48168W        W20483  17.118  29.966   0.651
48169W        W20484  17.780  23.243   2.635
48170W        W20485   7.823  39.677   0.077
48171W        W20486  37.398   0.925   3.298
48172W        W20487  23.979   2.303   1.850
48173W        W20488  37.061  13.197   0.223
48174W        W20489   5.827   4.611   2.767
48175W        W20490  36.081  14.834   3.217
48176W        W20491  16.693  20.175  12.197
48177W        W20492  11.477  26.965  14.128
48178W        W20493   5.654  30.965  11.083
48179W        W20494   8.183   7.809  13.515
48180W        W20495  25.582  41.286   0.008
48181W        W20496  30.146  19.568  14.177
48182W        W20497  44.219  23.778  12.586
48183W        W20498  12.316  13.283  13.765
48184W        W20499   1.152  35.906  12.879
48185W        W20500   8.738   4.340   1.015
48186W        W20501  10.111  35.592   2.250
48187W        W20502  12.196  38.061  14.666
48188W        W20503  26.639  40.513  14.368
48189W        W20504  43.501  20.161   1.745
48190W        W20505  36.421  31.663   0.515
48191W        W20506  44.686  30.144   0.191
48192W        W20507  30.517  10.951   0.806
48193W        W20508  26.468   1.008   2.264
48194W        W20509  33.658  43.957  13.893
48195W        W20510  40.786   1.550  12.124
48196W        W20511   5.169  32.000  11.211
48197W        W20512  21.485   1.977   2.712
48198W        W20513  10.526  26.537   1.398
48199W        W20514  13.757   9.165  10.474
48200W        W20515   0.947  36.220  10.669
48201W        W20516  27.566  35.488  14.500
48202W        W20517  19.675   5.987  14.069
48203W        W20518  17.070  20.977  12.789
48204W        W20519  13.945  17.603   0.743
48205W        W20520  26.591  16.644   3.178
48206W        W20521   4.553  39.455   0.486
48207W        W20522  36.563  33.868   4.623
48208W        W20523  40.957  14.189   1.455
48209W        W20524  19.232  40.807   1.792
48210W        W20525  13.098  36.525  12.902
48211W        W20526  13.653  42.909  14.756
48212W        W20527  30.971  19.602  11.635
48213W        W20528  39.685  28.941   4.222
48214W        W20529  14.837  28.052  11.636
48215W        W20530  23.185   7.612   0.026
48216W        W20531  34.583  34.860  11.688
48217W        W20532  23.569  15.131   1.235
48218W        W20533  35.460  35.165  13.966
48219W        W20534  33.534  13.917  13.804
48220W        W20535  39.063   7.623   1.746
48221W        W20536  11.204  29.216   2.466
48222W        W20537  40.003  28.456  12.160
48223W        W20538  18.033   0.327  10.573
48224W        W20539  31.489  33.905   4.419
48225W        W20540  41.223  30.508   4.188
48226W        W20541  10.227  37.033  14.787
48227W        W20542   2.500  18.578  10.558
48228W        W20543  33.840  19.689  14.323
48229W        W20544  22.185  40.693  14.932
48230W        W20545  35.844  14.180   0.251
48231W        W20546   9.241  33.478   1.409
48232W        W20547  20.556   2.477  12.486
48233W        W20548  38.318  34.088   2.664
48234W        W20549  40.872  36.885  10.463
48235W        W20550  15.944  25.906  13.011
48236W        W20551   0.675  37.128  11.907
48237W        W20552  23.429  20.557  10.746
48238W        W20553  29.510   4.138   4.192
48239W        W20554  39.983  29.622  13.885
48240W        W20555  42.835   0.336   3.635
48241W        W20556   2.026  39.540   3.752
48242W        W20557   1.273  11.403   2.827
48243W        W20558  37.950  26.590  14.040
48244W        W20559  19.026  44.038   1.322
48245W        W20560  17.838  22.516  13.424
48246W        W20561  29.699  36.672   4.631
48247W        W20562  44.491   7.111  10.458
48248W        W20563  10.151  15.249  10.616
48249W        W20564  33.237   5.892  13.108
48250W        W20565  18.091  41.219   0.982
48251W        W20566  19.669  11.355   5.087
48252W        W20567   3.396  37.059  13.369
48253W        W20568   5.180  26.262   1.267
48254W        W20569  27.197  43.686  12.418
48255W        W20570  42.334  31.450   1.841
48256W        W20571  12.449  41.364   0.817
48257W        W20572  36.287  30.586   0.694
48258W        W20573  23.008  18.162  11.512
48259W        W20574  32.098  27.480   0.246
48260W        W20575  22.043   4.045   4.095
48261W        W20576  13.338  15.320  11.868
48262W        W20577  15.316  42.813  11.953
48263W        W20578  38.148  23.417  13.110
48264W        W20579  22.451  16.259  12.659
48265W        W20580  18.695  37.960   3.733
48266W        W20581  40.865  18.831   4.383
48267W        W20582  14.813  22.653  12.716
48268W        W20583  43.264  19.110   4.613
48269W        W20584  10.702  40.443   0.262
48270W        W20585  26.577  15.898   3.326
48271W        W20586  25.101  38.442  11.019
48272W        W20587  24.310  42.174   0.243
48273W        W20588  21.795  22.728   4.086
48274W        W20589  25.614  20.301   0.165
48275W        W20590  43.751  34.021  12.170
48276W        W20591  36.943  26.299   4.802
48277W        W20592  34.198  40.857   0.415
48278W        W20593  43.802  11.222  11.113
48279W        W20594  40.006  15.309   0.274
48280W        W20595  42.239  30.578   1.760
48281W        W20596  14.801  14.450   4.043
48282W        W20597  10.810  40.482  11.100
48283W        W20598  18.650  30.975  11.108
48284W        W20599  39.656  26.968   0.832
48285W        W20600  30.483   0.790  13.852
48286W        W20601  29.903  10.248  13.514
48287W        W20602  19.215  42.287   1.251
48288W        W20603   1.167  10.401  12.024
48289W        W20604  36.455  24.754   4.672
48290W        W20605  28.711  34.267   4.922
48291W        W20606  43.424   9.898   4.307
48292W        W20607  21.724  11.128   1.326
48293W        W20608   9.599  43.730   4.325
48294W        W20609  42.995  27.880  11.141
48295W        W20610   0.010  15.293  13.350
48296W        W20611   2.319  11.712  11.025
48297W        W20612  31.206   4.277  13.887
48298W        W20613  25.508  32.182  10.745
48299W        W20614  13.043  14.834   3.220
48300W        W20615  26.588  35.076  11.501
48301W        W20616  44.306  22.227  13.898
48302W        W20617   0.037   2.907   2.370
48303W        W20618  35.532   3.510   0.766
48304W        W20619  23.921   8.195   1.719
48305W        W20620  11.286  12.072   2.454
48306W        W20621  37.619  26.111  12.345
48307W        W20622  43.939  16.272   4.809
48308W        W20623  27.998  13.162   0.928
48309W        W20624  12.944  12.880   1.272
48310W        W20625  14.597  20.483   0.621
48311W        W20626  17.663  33.079  13.891
48312W        W20627  38.904  10.865   4.249
48313W        W20628  22.188  12.526   0.802
48314W        W20629  37.377   1.231   2.851
48315W        W20630  30.925  16.339  14.933
48316W        W20631  22.100  39.581   4.498
48317W        W20632  21.086   6.974   0.154
48318W        W20633  38.445  25.976  12.939
48319W        W20634  16.057  20.687   1.377
48320W        W20635  22.069  29.025  10.701
48321W        W20636  27.736   0.896  10.461
48322W        W20637  22.462  36.897  12.377
48323W        W20638   5.762  42.810   0.705
48324W        W20639  39.374  35.021  14.467
48325W        W20640  20.684  17.115  11.161
48326W        W20641   9.855   8.231  13.298
48327W        W20642  27.921  24.495  11.554
48328W        W20643  41.383   7.523   4.746
48329W        W20644   4.874  18.683   1.419
48330W        W20645  37.967  31.807   0.922
48331W        W20646  34.472  18.776  13.467
48332W        W20647  44.948  11.064   1.903
48333W        W20648  42.704  34.325  13.960
48334W        W20649  20.752  21.286  11.823
48335W        W20650  15.294   1.448  14.852
48336W        W20651   0.865  13.421   3.264
48337W        W20652   7.346  12.415  13.966
48338W        W20653  15.574  11.800   1.512
48339W        W20654  16.090   2.780   3.350
48340W        W20655  40.448  17.921   1.230
48341W        W20656   5.167  28.571   4.683
48342W        W20657  33.991  28.048   3.152
48343W        W20658  13.381   0.876  13.627
48344W        W20659  26.706  17.766   3.701
48345W        W20660  13.998  18.737   0.504
48346W        W20661   7.428  30.190   4.935
48347W        W20662  12.581  31.310   2.387
48348W        W20663   9.153  11.761   4.141
48349W        W20664  12.406   0.284   3.617
48350W        W20665  14.322  31.032  10.688
48351W        W20666  43.518   8.379  11.553
48352W        W20667  26.587  34.485   2.856
48353W        W20668  18.214  39.359   3.294
48354W        W20669  13.593  27.441  10.392
48355W        W20670   5.691  19.604  11.556
48356W        W20671  43.780  39.731  13.334
48357W        W20672  17.626   4.325   1.981
48358W        W20673   5.036  42.327  12.435
48359W        W20674  20.587  43.389   4.093
48360W        W20675  26.713  30.385  13.791
48361W        W20676  35.873  30.100   3.222
48362W        W20677   3.775  25.464   3.903
48363W        W20678  31.025  39.133   4.026
48364W        W20679  15.065  27.885   3.587
48365W        W20680  36.365  25.167   2.072
48366W        W20681   5.936  10.291   2.369
48367W        W20682  15.614  12.112  11.486
48368W        W20683   4.204  30.772   1.371
48369W        W20684  28.928   4.591  10.225
48370W        W20685  31.157  31.960   2.473
48371W        W20686   8.809  13.780   3.463
48372W        W20687  42.803  35.782  12.616
48373W        W20688   6.353  13.106   1.396
48374W        W20689  13.281  14.971  11.023
48375W        W20690  10.493  35.593  10.778
48376W        W20691   4.434   8.478  14.129
48377W        W20692  12.445  44.710  11.962
48378W        W20693  18.161   4.106  10.620
48379W        W20694  37.337  38.317   0.390
48380W        W20695  26.529  18.033  11.163
48381W        W20696  30.355   5.326  11.748
48382W        W20697   0.822  11.174  10.206
48383W        W20698  17.462  43.079  14.504
48384W        W20699  16.207   0.970   3.516
48385W        W20700   0.247  35.378  11.037
48386W        W20701  20.168   9.804   1.249
48387W        W20702  20.756   3.322   5.099
48388W        W20703  34.864  28.468   3.136
48389W        W20704  16.016  21.644   1.426
48390W        W20705  16.634  31.501  12.781
48391W        W20706  36.173  40.483  12.772
48392W        W20707  37.051   9.719  10.758
48393W        W20708  44.875  36.448   0.654
48394W        W20709  43.275  28.167  12.241
48395W        W20710   8.552  21.239  11.704
48396W        W20711  17.827  40.856   3.832
48397W        W20712  30.981  38.379   3.309
48398W        W20713  31.005  16.224  13.070
48399W        W20714  15.041  23.126   1.796
48400W        W20715  38.003  43.222  10.688
48401W        W20716   1.684  28.486  10.575
48402W        W20717  41.339  30.170   4.567
48403W        W20718  30.325  21.322   4.272
48404W        W20719  12.191  36.028   4.170
48405W        W20720  24.589   3.891   1.796
48406W        W20721  32.069  42.794  13.060
48407W        W20722  11.349  30.584   4.168
48408W        W20723  18.326  26.101   0.947
48409W        W20724  10.871  27.148  11.062
48410W        W20725  37.629  29.035  11.652
48411W        W20726  26.422  43.983  10.556
48412W        W20727  30.675  22.794  12.922
48413W        W20728   8.335  27.110   3.193
48414W        W20729  16.545  36.957   1.012
48415W        W20730  14.367  34.833   3.152
48416W        W20731  17.097  29.300  14.398
48417W        W20732  33.322  37.563   2.768
48418W        W20733  37.899  17.408  10.364
48419W        W20734  31.665  28.233   4.987
48420W        W20735  36.207  22.165  14.232
48421W        W20736  23.192  36.147  12.172
48422W        W20737  43.371  10.696   9.885
48423W        W20738  35.597  12.631  14.742
48424W        W20739   7.251  20.161  11.580
48425W        W20740   9.798   6.148   1.337
48426W        W20741  13.261  34.797  13.115
48427W        W20742   1.388  27.392  11.081
48428W        W20743  11.752  14.078  11.928
48429W        W20744  18.671  15.400  10.640
48430W        W20745  42.323  28.993  14.413
48431W        W20746  22.315  35.618  11.156
48432W        W20747   6.939  38.700   1.391
48433W        W20748  12.552  42.550   4.665
48434W        W20749  11.197  15.314   1.263
48435W        W20750  30.166  44.343   4.076
48436W        W20751  24.410  29.080  11.165
48437W        W20752  16.190  27.418   9.837
48438W        W20753  14.730   0.431   2.324
48439W        W20754  22.730  34.029   3.867
48440W        W20755  22.897   8.026  10.745
48441W        W20756  16.236  24.481   4.849
48442W        W20757  19.317  13.413   3.375
48443W        W20758  30.975  35.135  12.927
48444W        W20759  31.851  27.081   2.147
48445W        W20760  29.063  39.800   4.040
48446W        W20761   9.374  16.303   2.317
48447W        W20762  43.064  16.327   3.339
48448W        W20763  36.054  23.442   2.963
48449W        W20764  25.444  32.990   3.507
48450W        W20765  32.525  30.332  14.559
48451W        W20766  44.164  13.891   4.292
48452W        W20767  11.913  23.630   1.286
48453W        W20768  40.485   7.586   1.698
48454W        W20769  36.968  42.336  13.297
48455W        W20770   7.288   2.798  12.931
48456W        W20771  19.026  17.696  10.875
48457W        W20772  26.527  12.555  12.422
48458W        W20773  44.289  43.890   3.605
48459W        W20774   0.473   7.352   4.165
48460W        W20775   4.216  21.493   4.129
48461W        W20776  15.933  16.524  14.282
48462W        W20777  27.730  17.126  12.326
48463W        W20778  33.619   9.694  13.069
48464W        W20779  36.383  31.885  11.702
48465W        W20780  13.327  27.998   1.784
48466W        W20781   7.156   3.151   1.325
48467W        W20782   7.905  13.842   0.039
48468W        W20783   1.989   1.240  12.968
48469W        W20784  26.976   5.094  11.477
48470W        W20785  44.793  24.675  10.501
48471W        W20786  41.634   7.120  12.442
48472W        W20787  41.799  37.781   4.044
48473W        W20788   7.411  44.457   3.324
48474W        W20789  39.484  35.907   0.521
48475W        W20790  19.754  40.838   4.940
48476W        W20791  10.885  23.180  14.483
48477W        W20792  10.225   7.754   3.833
48478W        W20793   2.400  22.804  12.182
48479W        W20794  41.015  31.064   1.952
48480W        W20795  21.985   6.002   0.398
48481W        W20796  43.946  26.303   1.272
48482W        W20797  26.396   4.467  11.533
48483W        W20798  24.485  40.978  10.594
48484W        W20799  23.760   2.536   3.649
48485W        W20800  12.734  26.137  12.830
48486W        W20801  12.431  22.621   3.345
48487W        W20802   5.511  18.227   1.918
48488W        W20803  42.288  19.025   3.676
48489W        W20804  23.706  18.879  14.540
48490W        W20805  24.799  14.273   3.308
48491W        W20806  21.498  30.181  14.364
48492W        W20807   4.989  24.904   2.329
48493W        W20808  10.581  44.025  14.256
48494W        W20809  14.837  39.195  12.518
48495W        W20810  26.487  29.094  10.434
48496W        W20811  43.048  29.484  13.018
48497W        W20812  40.877   0.834   3.216
48498W        W20813  19.175  30.867   1.168
48499W        W20814  43.923  40.448   3.358
48500W        W20815  18.062  13.309   4.119
48501W        W20816  41.259  10.825  11.113
48502W        W20817   4.865  13.768   2.317
48503W        W20818  32.507  10.839  12.931
48504W        W20819  34.600  20.540  12.344
48505W        W20820   9.252   8.740   5.017
48506W        W20821  26.494  24.443  14.745
48507W        W20822  34.614   1.730   2.372
48508W        W20823  28.614  12.241   3.707
48509W        W20824  38.781  20.859   4.102
48510W        W20825  16.345  39.987  11.042
48511W        W20826  19.171  39.984  14.085
48512W        W20827  36.359  31.011   4.229
48513W        W20828   6.692  18.720  12.897
48514W        W20829  21.305   7.102  10.393
48515W        W20830   9.857  27.024  12.646
48516W        W20831  18.219  38.826  10.764
48517W        W20832  25.290  44.831   4.670
48518W        W20833  11.637  16.227  13.566
48519W        W20834  25.162   0.673   3.408
48520W        W20835   8.369   6.403  11.429
48521W        W20836  26.630  32.254   0.423
48522W        W20837   4.581   5.816  13.987
48523W        W20838  29.906  44.407  10.741
48524W        W20839  29.503  42.961  11.177
48525W        W20840  24.038  14.409   5.117
48526W        W20841  32.255   8.651  14.769
48527W        W20842  35.968  29.582  14.800
48528W        W20843  18.352  12.442   2.380
48529W        W20844  24.201  28.954  14.765
48530W        W20845  15.195  30.631  13.411
48531W        W20846   6.468  29.349   3.310
48532W        W20847  25.215  24.152   2.611
48533W        W20848  15.755  20.095   3.217
48534W        W20849  33.016   0.029  13.085
48535W        W20850  30.076  17.740   0.743
48536W        W20851   3.574  27.968   3.391
48537W        W20852  21.490  42.276   4.809
48538W        W20853  22.092  13.263   3.861
48539W        W20854  19.228  28.972  14.863
48540W        W20855  15.594  12.287  10.572
48541W        W20856  37.989   3.645  11.896
48542W        W20857  18.715   8.266  14.277
48543W        W20858  11.245   0.729   4.110
48544W        W20859   4.767  20.791  13.032
48545W        W20860  40.537  18.383   3.245
48546W        W20861  41.068  38.970  14.255
48547W        W20862   4.746  17.049   4.989
48548W        W20863  31.559   7.110   1.446
48549W        W20864  35.159  31.785  10.299
48550W        W20865  10.672  34.218  11.102
48551W        W20866  14.241   3.893  14.282
48552W        W20867  43.452  29.137   3.297
48553W        W20868  44.259  13.661  13.157
48554W        W20869  26.729  20.388   3.616
48555W        W20870  17.586  14.164   3.332
48556W        W20871  22.217  37.610  14.310
48557W        W20872  42.312  39.866  14.991
48558W        W20873  38.864  11.491  10.471
48559W        W20874  36.200  27.618   3.764
48560W        W20875   6.325   6.205   1.804
48561W        W20876  33.365  13.244  13.399
48562W        W20877  18.640   6.767  11.486
48563W        W20878  28.081   6.392   4.002
48564W        W20879  25.602  42.081  14.540
48565W        W20880   5.361  28.404   3.059
48566W        W20881  29.177   7.703   1.172
48567W        W20882   0.546  12.325  10.692
48568W        W20883   5.978  41.569   0.244
48569W        W20884  33.902  20.513   3.406
48570W        W20885  13.726   3.743   1.372
48571W        W20886  36.750  25.970  12.740
48572W        W20887  32.943  40.773   4.580
48573W        W20888  16.274  17.821   4.113
48574W        W20889  30.541   3.737  13.039
48575W        W20890  18.140  15.080  10.929
48576W        W20891  25.178  12.349  13.611
48577W        W20892  20.269  26.695   0.297
48578W        W20893  32.631  24.528   0.380
48579W        W20894  14.056  22.303   1.955
48580W        W20895  10.908  41.044  14.536
48581W        W20896   4.978   5.450  10.703
48582W        W20897  37.984  40.474   1.780
48583W        W20898  40.552   5.868  13.332
48584W        W20899  11.349   7.567   0.140
48585W        W20900  26.717  41.838  12.192
48586W        W20901   2.790   7.862  11.975
48587W        W20902  37.605  25.086  14.786
48588W        W20903  30.168  23.655   3.516
48589W        W20904   0.555  44.420   2.359
48590W        W20905  19.539  42.677   0.298
48591W        W20906  38.055  33.856  10.945
48592W        W20907  40.297  43.238   4.641
48593W        W20908  29.834   6.402   3.271
48594W        W20909  11.675  41.616  12.170
48595W        W20910  21.608  12.315   2.852
48596W        W20911  25.271   8.675  12.886
48597W        W20912  40.915  11.747   1.255
48598W        W20913  13.344  13.048  13.077
48599W        W20914  38.116  31.098  12.067
48600W        W20915  23.944  30.259   1.245
48601W        W20916   6.253  36.664  11.680
48602W        W20917  36.548  42.752   1.426
48603W        W20918  22.770   6.774  13.508
48604W        W20919  43.284  16.194  10.650
48605W        W20920  35.214  19.772  12.922
48606W        W20921  15.893   5.882  11.478
48607W        W20922  42.296  23.661  13.746
48608W        W20923  42.149  35.156   1.705
48609W        W20924  40.895   4.778   2.402
48610W        W20925  36.422  37.916  14.883
48611W        W20926  15.528  42.023  12.381
48612W        W20927  38.812  42.224  10.721
48613W        W20928  18.519   0.554  14.890
48614W        W20929  14.081  25.446  11.461
48615W        W20930  40.982  32.914  13.678
48616W        W20931  44.773  17.081  13.931
48617W        W20932  38.249  26.267   3.668
48618W        W20933  38.640  31.177  13.041
48619W        W20934  38.857  18.856  12.822
48620W        W20935   3.749  33.139   1.732
48621W        W20936  37.807  29.107   1.423
48622W        W20937  22.021  30.936   4.518
48623W        W20938   5.780  11.636   2.499
48624W        W20939   6.703  44.212   0.285
48625W        W20940  37.488  15.838  12.960
48626W        W20941  41.987  23.539  12.493
48627W        W20942  16.318   1.461  13.147
48628W        W20943  41.757  13.287   2.622
48629W        W20944  13.173   7.288   0.058
48630W        W20945   3.660  11.646   4.482
48631W        W20946  16.314  20.818  14.512
48632W        W20947  29.846  29.482  11.308
48633W        W20948   7.196   7.590   1.248
48634W        W20949  24.646  30.844   1.697
48635W        W20950  44.477   2.029  13.439
48636W        W20951   9.034  42.740  11.575
48637W        W20952   0.782   6.939   4.847
48638W        W20953   5.412  24.019  13.662
48639W        W20954  11.341   7.277  10.700
48640W        W20955  12.671  13.987  10.517
48641W        W20956  13.495  34.500  11.642
48642W        W20957  10.894   9.958   1.314
48643W        W20958  10.338  37.395   2.718
48644W        W20959  31.399  18.333  11.182
48645W        W20960  42.846  35.925  13.102
48646W        W20961  18.348   0.214   4.529
48647W        W20962   2.407   6.849   4.377
48648W        W20963  20.799  20.618   2.236
48649W        W20964  27.342  22.003  10.860
48650W        W20965   0.256   3.889  12.435
48651W        W20966  29.221  17.076   1.470
48652W        W20967  29.999  34.887   0.398
48653W        W20968  28.361   9.412  10.385
48654W        W20969  11.106  22.603   3.122
48655W        W20970   3.604   3.240   0.453
48656W        W20971  35.207   0.902   2.991
48657W        W20972   5.064  11.800  10.983
48658W        W20973  13.618   8.473  13.923
48659W        W20974  30.939  32.022  12.674
48660W        W20975  30.453  41.603   1.870
48661W        W20976  18.085  37.660  12.514
48662W        W20977  24.673  40.994   1.825
48663W        W20978  19.921   8.943   1.773
48664W        W20979  41.713  35.010  14.660
48665W        W20980  22.652  40.144   3.601
48666W        W20981   8.381   8.219   0.757
48667W        W20982  17.115  34.148  11.527
48668W        W20983  27.753   2.694   0.885
48669W        W20984  12.737  26.026  11.398
48670W        W20985  32.594  40.357   3.451
48671W        W20986  41.376   9.463  10.314
48672W        W20987  40.739  30.451   4.427
48673W        W20988   5.974  41.056   0.145
48674W        W20989  33.289  41.831  12.999
48675W        W20990  33.687   7.358   1.041
48676W        W20991  26.187  39.781  11.284
48677W        W20992  15.784  10.164   3.179
48678W        W20993  34.148  38.082  11.688
48679W        W20994  39.898  40.046  12.770
48680W        W20995  36.057  24.930   2.422
48681W        W20996   3.810   7.087  14.843
48682W        W20997  30.406   9.868  13.216
48683W        W20998  41.986  38.161   3.077
48684W        W20999  28.055  23.945   3.860
48685W        W21000  11.387  17.732  12.499
48686W        W21001  40.809  27.562  12.569
48687W        W21002  17.239  27.416  12.036
48688W        W21003   1.492  42.825  13.116
48689W        W21004  26.566  30.767   2.680
48690W        W21005  39.771  17.397   1.446
48691W        W21006   6.146  11.381   1.752
48692W        W21007   9.304   9.639  11.712
48693W        W21008  26.532  19.793  11.306
48694W        W21009  32.640  14.724  11.606
48695W        W21010  31.986  34.412  11.115
48696W        W21011  25.180   2.824   4.515
48697W        W21012  11.806  20.773   3.835
48698W        W21013  19.687   4.247   1.375
48699W        W21014  34.391  31.524   2.428
48700W        W21015   5.393  22.019  11.489
48701W        W21016  44.796  21.171   0.744
48702W        W21017  37.124  12.694  11.044
48703W        W21018   8.245   7.474   1.816
48704W        W21019  28.998  13.302  14.959
48705W        W21020   1.216  44.545   4.612
48706W        W21021  37.393  16.518  13.473
48707W        W21022  33.437   5.169   1.475
48708W        W21023   3.036   9.145  12.612
48709W        W21024   0.490   2.326   4.931
48710W        W21025  12.818  34.458  14.090
48711W        W21026  20.774  43.695   1.665
48712W        W21027  27.265  36.062  14.076
48713W        W21028   2.000   0.549  14.751
48714W        W21029  42.375  24.124   0.444
48715W        W21030  37.360   0.748  13.874
48716W        W21031  28.595  18.140  12.124
48717W        W21032  13.708   0.304   2.333
48718W        W21033  17.858  41.842   3.385
48719W        W21034  36.045   5.817  13.044
48720W        W21035  19.877   5.650   0.424
48721W        W21036   3.279   3.751   2.361
48722W        W21037   3.275  40.076   3.279
48723W        W21038  27.245  12.827  12.445
48724W        W21039  16.151  10.762  11.606
48725W        W21040  32.232  23.578  12.072
48726W        W21041  21.047  23.586  14.923
48727W        W21042   2.712   7.238   4.203
48728W        W21043  41.423  21.544  13.072
48729W        W21044   0.901  39.492  10.582
48730W        W21045  44.332  43.798   0.329
48731W        W21046  31.872  24.458  13.950
48732W        W21047  24.964  31.076   2.770
48733W        W21048  38.300  42.851  10.463
48734W        W21049   7.849   4.132  11.191
48735W        W21050   5.100  37.553   0.725
48736W        W21051  33.411   2.456  10.674
48737W        W21052   4.005  34.874   3.732
48738W        W21053  37.810  30.696  14.699
48739W        W21054  12.322  26.108   2.301
48740W        W21055  11.895  17.797  12.437
48741W        W21056  22.554  20.546  13.270
48742W        W21057  28.967  39.230   0.064
48743W        W21058   2.020  27.535  14.488
48744W        W21059  24.174  20.574  12.411
48745W        W21060  25.754  35.605   1.256
48746W        W21061  28.071  18.330  14.263
48747W        W21062  28.884  36.032   1.466
48748W        W21063  32.650  11.553   2.579
48749W        W21064  11.895  23.047  12.995
48750W        W21065  18.820   8.362   0.647
48751W        W21066  22.968  40.766   2.465
48752W        W21067  40.650  36.374   0.490
48753W        W21068   2.782  33.557   2.450
48754W        W21069   5.380  12.678  13.877
48755W        W21070  20.932  40.607   1.340
48756W        W21071  17.642  19.694   4.641
48757W        W21072   9.082  29.125   0.451
48758W        W21073  19.622  21.252  12.643
48759W        W21074  36.671  33.880  11.476
48760W        W21075   9.335  38.067  11.522
48761W        W21076  40.554  31.286  12.053
48762W        W21077  17.720  38.427   0.971
48763W        W21078  17.194   7.919   0.225
48764W        W21079  22.179  14.460   2.978
48765W        W21080   7.214  33.943   3.127
48766W        W21081   5.346  44.344  14.410
48767W        W21082  16.789  20.459   0.855
48768W        W21083  18.325  44.424  13.889
48769W        W21084  21.763  23.445   4.544
48770W        W21085  31.619  39.013   4.687
48771W        W21086   4.674  43.944  10.475
48772W        W21087  33.766  19.755  12.015
48773W        W21088  28.107   0.463  12.421
48774W        W21089  29.940  18.342  10.515
48775W        W21090  44.259   6.578   3.223
48776W        W21091  17.290  20.586   4.652
48777W        W21092  23.552  35.087   4.426
48778W        W21093  27.437   1.795  14.186
48779W        W21094   0.378   4.841  11.437
48780W        W21095  23.724  26.443  12.500
48781W        W21096  14.606  17.121   4.408
48782W        W21097  39.466   6.883  11.233
48783W        W21098  36.526  41.850   4.663
48784W        W21099   8.615  34.423   3.746
48785W        W21100   3.944  39.451   2.429
48786W        W21101  43.224   4.920   3.357
48787W        W21102  38.169  22.588  10.774
48788W        W21103  28.064  37.219  10.720
48789W        W21104   3.883  27.159  11.685
48790W        W21105  12.270   1.434  10.584
48791W        W21106  30.031  16.597   1.820
48792W        W21107  21.144  36.173   3.972
48793W        W21108  21.049   5.078   2.273
48794W        W21109  20.495  37.103  12.477
48795W        W21110  27.587  25.110   1.517
48796W        W21111  16.344  38.079  10.711
48797W        W21112  36.233   9.774   4.593
48798W        W21113  12.376  18.525   9.877
48799W        W21114  38.085  29.441   3.593
48800W        W21115  20.640  12.340  10.992
48801W        W21116   4.360  42.365  14.488
48802W        W21117  11.692   2.796  12.620
48803W        W21118  24.161   6.767   2.856
48804W        W21119  39.905  31.538   0.510
48805W        W21120   0.718  31.112  13.364
48806W        W21121  25.195  14.654   1.651
48807W        W21122  15.601  31.483   2.833
48808W        W21123  13.761   2.401  13.295
48809W        W21124  29.481  38.574   3.562
48810W        W21125   9.556  29.513  13.698
48811W        W21126   5.042   2.231  14.344
48812W        W21127  35.725  31.921  14.458
48813W        W21128  35.722  29.742   1.500
48814W        W21129  37.908  34.178   1.901
48815W        W21130  11.449  21.776  13.431
48816W        W21131  38.914  40.282   2.608
48817W        W21132  42.831  34.947  12.369
48818W        W21133  37.262  33.293   5.330
48819W        W21134   3.076  39.346   0.875
48820W        W21135  26.486   1.462  12.090
48821W        W21136  19.492  38.114  13.546
48822W        W21137  35.183  40.216  11.170
48823W        W21138  11.945   1.233   1.161
48824W        W21139   1.473   8.715   4.550
48825W        W21140  32.011  43.348   0.829
48826W        W21141   6.954   1.857  10.675
48827W        W21142   5.032  12.766  10.281
48828W        W21143  38.609  32.019   1.846
48829W        W21144  37.952   3.432  10.879
48830W        W21145  23.218  13.367  12.492
48831W        W21146  43.628   0.882  11.690
48832W        W21147  23.632  32.906  13.504
48833W        W21148  26.150   9.895  10.407
48834W        W21149   3.211  10.169   2.721
48835W        W21150  39.600   4.734   2.172
48836W        W21151  37.389  12.994   0.991
48837W        W21152  32.343  14.659  11.147
48838W        W21153  34.615  20.997  12.125
48839W        W21154  23.638   1.722   1.052
48840W        W21155  35.485  33.547  13.110
48841W        W21156  43.276  17.100   4.379
48842W        W21157  38.832  26.423  11.722
48843W        W21158  41.390  35.879   3.353
48844W        W21159   1.807  33.781  11.343
48845W        W21160  24.920  17.249   3.769
48846W        W21161  22.013  13.566   2.599
48847W        W21162   3.642   5.542  14.173
48848W        W21163  29.157  42.503  10.486
48849W        W21164  11.926  33.665   4.644
48850W        W21165  36.594   8.684   0.347
48851W        W21166  40.412   6.244   3.507
48852W        W21167  16.735  21.046  10.536
48853W        W21168  28.148  10.974  14.327
48854W        W21169  27.009  18.878   0.761
48855W        W21170  21.129  13.462   4.190
48856W        W21171  43.847   2.772   4.538
48857W        W21172  21.198  44.689  10.623
48858W        W21173  32.305  24.616   3.194
48859W        W21174  10.706   5.916   2.323
48860W        W21175  20.690  29.765   4.194
48861W        W21176  18.378   2.768  10.659
48862W        W21177  31.904   9.757  12.481
48863W        W21178  16.652  10.743  13.431
48864W        W21179  25.942  40.830  11.516
48865W        W21180  35.420  25.431   3.878
48866W        W21181  23.027  20.559   3.249
48867W        W21182  26.692  32.112  12.068
48868W        W21183  36.526  20.045  10.982
48869W        W21184  22.639  29.667   3.266
48870W        W21185  33.118  31.397  11.999
48871W        W21186  24.734   3.443  12.794
48872W        W21187  11.900  26.010  11.022
48873W        W21188  41.689  41.853  14.749
48874W        W21189  22.890   3.279   4.890
48875W        W21190  30.128  36.605  13.955
48876W        W21191  17.304  35.191   1.282
48877W        W21192  17.384  34.651   1.859
48878W        W21193  35.801  44.873   2.199
48879W        W21194  21.224   1.521  12.840
48880W        W21195  26.244  19.069  12.058
48881W        W21196  38.653  27.047   2.345
48882W        W21197  15.843  22.492   4.239
48883W        W21198  19.305  32.411  11.600
48884W        W21199   3.186  18.880   0.669
48885W        W21200  26.959  23.135  14.800
48886W        W21201  30.611   2.786  10.659
48887W        W21202  15.071   0.802   1.899
48888W        W21203  38.782  24.641  14.100
48889W        W21204  42.120  28.500   2.106
48890W        W21205  25.862  20.103  10.469
48891W        W21206   9.789  32.211  11.706
48892W        W21207  34.437  44.468  11.485
48893W        W21208  12.706  22.967   3.802
48894W        W21209  31.661  36.902  14.428
48895W        W21210  24.782   3.157   3.817
48896W        W21211   2.748  43.759  13.346
48897W        W21212  39.787  16.559   4.602
48898W        W21213  36.265   1.758   0.264
48899W        W21214   1.424  44.052  12.955
48900W        W21215  23.451  18.262   3.020
48901W        W21216   6.944  18.096  13.909
48902W        W21217  35.503  28.423  13.121
48903W        W21218  25.069   7.253  12.946
48904W        W21219  18.517  19.381   0.976
48905W        W21220  27.244  15.252  13.366
48906W        W21221  24.622  31.869   1.187
48907W        W21222   4.686  43.643  12.127
48908W        W21223  13.479  38.186   1.470
48909W        W21224  27.335  35.038   4.292
48910W        W21225  18.641  32.013   3.259
48911W        W21226   8.687  25.473   3.716
48912W        W21227  41.477   9.694   3.359
48913W        W21228  22.420  31.091  12.149
48914W        W21229  31.991  44.323   1.191
48915W        W21230  38.577   6.281  14.956
48916W        W21231  26.663  15.377   1.250
48917W        W21232  14.845  34.516  13.714
48918W        W21233  23.609  18.054  14.939
48919W        W21234   5.847   6.247  12.122
48920W        W21235   8.287  42.525  14.630
48921W        W21236  10.244  10.204   2.445
48922W        W21237  35.181  39.406   1.250
48923W        W21238   1.037  14.357  12.051
48924W        W21239  34.948  21.724  14.413
48925W        W21240  17.886  18.685   3.261
48926W        W21241  44.290  39.396   2.084
48927W        W21242  26.053  41.437  14.759
48928W        W21243   3.189  12.368  12.516
48929W        W21244  15.214  36.094   3.302
48930W        W21245  29.908   1.344  12.158
48931W        W21246   8.873  19.141  14.877
48932W        W21247  15.448  43.775  13.466
48933W        W21248  36.262   7.818   2.331
48934W        W21249  19.318   7.619  11.533
48935W        W21250  39.836  26.404   1.696
48936W        W21251  40.051   5.715  14.843
48937W        W21252  17.341  10.360   5.520
48938W        W21253  23.504   2.964   3.705
48939W        W21254   2.322  21.789  11.972
48940W        W21255  27.661  28.887  11.325
48941W        W21256   0.823  28.183  12.065
48942W        W21257  16.893  25.129  10.782
48943W        W21258  36.892   3.177  14.809
48944W        W21259  44.858   3.048  11.757
48945W        W21260   3.999  23.070   0.672
48946W        W21261  20.752  11.283  13.527
48947W        W21262  15.881  40.110   4.074
48948W        W21263  20.208  34.099   3.167
48949W        W21264  18.927  17.443   9.788
48950W        W21265  17.494   9.603   4.101
48951W        W21266  11.419   4.413  13.835
48952W        W21267  23.226  18.762  14.305
48953W        W21268   2.569  34.148  10.122
48954W        W21269  11.061   2.656  13.995
48955W        W21270  35.399  10.066  11.655
48956W        W21271  13.870  27.128  12.205
48957W        W21272   2.833  15.536   1.819
48958W        W21273  15.203  12.725  11.474
48959W        W21274  13.016  30.066  13.349
48960W        W21275  16.649  38.548  14.294
48961W        W21276  27.068  12.728   3.103
48962W        W21277  28.522  19.042   3.073
48963W        W21278  25.403   0.658  13.947
48964W        W21279  34.332   5.818   2.226
48965W        W21280   3.289   2.923   4.429
48966W        W21281  36.022  44.194  12.937
48967W        W21282  33.182  19.491  12.993
48968W        W21283  22.604   9.307   1.223
48969W        W21284  12.101  18.156  11.740
48970W        W21285  10.704  27.415   4.638
48971W        W21286   5.852   8.263   0.868
48972W        W21287  30.756   3.848   0.002
48973W        W21288  11.067  18.312   1.513
48974W        W21289  31.984  11.712  13.270
48975W        W21290  34.849   6.936   1.780
48976W        W21291   8.346  10.709   3.178
48977W        W21292  27.388   5.216  14.147
48978W        W21293  28.985  10.807   0.833
48979W        W21294  18.229  29.454  13.605
48980W        W21295  24.635  16.190  10.725
48981W        W21296  39.358  10.636   2.401
48982W        W21297  18.096   7.018   4.170
48983W        W21298  11.635  20.797  12.259
48984W        W21299  18.722  29.431   3.720
48985W        W21300  19.654  15.454   0.532
48986W        W21301  26.099  29.623   2.875
48987W        W21302   2.489  22.782   0.296
48988W        W21303  30.649  37.147  10.724
48989W        W21304   1.529  14.869   3.782
48990W        W21305  31.529  36.140   2.271
48991W        W21306  44.266  43.278  14.006
48992W        W21307   9.481  13.760  14.260
48993W        W21308  12.906   7.831  11.104
48994W        W21309  22.124   7.946  12.449
48995W        W21310  21.404  11.898  12.504
48996W        W21311   8.951  27.331  11.862
48997W        W21312  32.712  39.855  11.548
48998W        W21313  24.207  25.519   2.299
48999W        W21314   2.143   4.452  14.444
49000W        W21315  12.523   5.896   1.747
49001W        W21316  35.857   1.713   0.864
49002W        W21317  10.159  36.524  12.557
49003W        W21318  28.688  10.071  14.490
49004W        W21319  36.562  23.178   0.287
49005W        W21320  36.337   7.610  11.900
49006W        W21321  30.069  41.902   0.739
49007W        W21322  30.999  18.166   1.104
49008W        W21323  43.445  17.814  13.781
49009W        W21324   2.346   1.393  12.599
49010W        W21325  37.345   5.669  14.101
49011W        W21326   2.321   0.896  13.403
49012W        W21327  41.999  10.117  11.344
49013W        W21328  13.868  35.104   0.425
49014W        W21329  12.636  16.977   1.704
49015W        W21330  13.348  19.298   3.265
49016W        W21331  43.237  38.089   0.242
49017W        W21332  44.899  13.020   1.869
49018W        W21333  44.049   0.234  13.839
49019W        W21334  23.855  16.219   2.979
49020W        W21335   2.303  44.929  13.248
49021W        W21336   9.612  31.584  13.959
49022W        W21337  23.173  40.309   2.291
49023W        W21338   0.449  28.152   0.793
49024W        W21339  11.875  42.195   0.365
49025W        W21340  37.913  11.445   0.054
49026W        W21341   1.355  13.437   3.703
49027W        W21342   0.263  24.897  11.545
49028W        W21343  26.737  22.252   3.373
49029W        W21344  44.996   1.681  14.309
49030W        W21345   0.947  29.982   4.269
49031W        W21346   2.874  30.703  14.302
49032W        W21347  40.376   0.655   2.997
49033W        W21348   3.859  20.073  11.043
49034W        W21349   1.275  25.156  10.418
49035W        W21350  43.446  22.499   4.414
49036W        W21351  25.451   8.679   2.777
49037W        W21352  14.039  21.670  13.299
49038W        W21353  14.135  12.724  14.812
49039W        W21354   9.080  43.815  10.475
49040W        W21355   8.287  35.575  13.537
49041W        W21356  12.255  27.979   1.139
49042W        W21357  36.941   4.177   3.284
49043W        W21358  40.047  30.166   0.967
49044W        W21359  28.367   6.016  10.021
49045W        W21360  29.364  19.485  11.196
49046W        W21361  23.792   1.465  11.220
49047W        W21362  12.144  37.804   1.285
49048W        W21363   2.282  13.323   1.245
49049W        W21364  41.403  42.316  12.501
49050W        W21365  42.298  12.645   1.214
49051W        W21366  27.912  38.147  12.868
49052W        W21367  13.102  33.617   4.951
49053W        W21368   0.763  14.093  11.714
49054W        W21369  41.464  44.204   2.107
49055W        W21370  20.717  10.699  11.591
49056W        W21371  36.266   0.047   3.125
49057W        W21372  24.488   3.356  11.325
49058W        W21373  26.593   4.653   4.589
49059W        W21374   6.780  19.111   2.334
49060W        W21375   5.228  34.388  14.845
49061W        W21376  32.986  15.718  14.413
49062W        W21377  25.784  40.047  12.476
49063W        W21378  38.724  27.947  11.514
49064W        W21379  10.728  22.992  12.169
49065W        W21380  36.058  43.606   0.425
49066W        W21381  29.181  13.869   2.622
49067W        W21382   8.671  42.944   3.696
49068W        W21383  25.435  20.088   0.945
49069W        W21384  33.020  25.548  11.494
49070W        W21385  30.080  12.787  11.619
49071W        W21386  28.641  43.828   4.517
49072W        W21387   8.258  24.431  12.480
49073W        W21388  31.987  16.293   1.626
49074W        W21389  22.280   0.118   9.960
49075W        W21390  35.463  26.389  12.440
49076W        W21391  10.425   9.362   2.236
49077W        W21392  21.300   4.541   4.221
49078W        W21393   0.961  21.652  12.191
49079W        W21394   6.614  35.413   0.699
49080W        W21395  17.440   1.220  14.846
49081W        W21396  16.023  26.002  10.810
49082W        W21397  15.602  37.452  14.481
49083W        W21398  34.036   0.305   2.489
49084W        W21399   5.967   0.330   0.514
49085W        W21400  21.706  10.343   4.847
49086W        W21401  17.686  44.366  10.723
49087W        W21402  24.028  35.399  10.972
49088W        W21403  13.237   7.428  13.546
49089W        W21404   3.835  25.684   1.504
49090W        W21405  10.234  19.797   4.421
49091W        W21406   0.397  17.609   3.652
49092W        W21407  37.842  24.359  14.297
49093W        W21408  43.967  35.519   0.875
49094W        W21409  30.983  13.058  12.610
49095W        W21410  20.735  15.254   1.228
49096W        W21411  28.121  37.037  14.468
49097W        W21412  16.830  15.482   1.173
49098W        W21413  35.619  16.519  13.453
49099W        W21414   6.249  38.386   4.539
49100W        W21415  16.400  43.749   2.111
49101W        W21416  15.131  15.818   3.662
49102W        W21417  22.695  15.164  13.221
49103W        W21418  11.221  15.546   2.189
49104W        W21419  22.639  27.093  12.685
49105W        W21420  32.949   5.697  13.498
49106W        W21421   6.032   0.782   3.576
49107W        W21422   7.276  44.854  13.249
49108W        W21423  29.442   9.197  13.522
49109W        W21424  31.076   0.978  13.057
49110W        W21425  35.585   6.014   2.802
49111W        W21426   6.374  19.349   3.758
49112W        W21427  43.401  42.274   2.687
49113W        W21428  38.049  27.577   0.758
49114W        W21429   4.797  36.448   4.553
49115W        W21430  42.916   1.229   4.579
49116W        W21431  14.641  31.079  11.094
49117W        W21432  13.956   2.621   2.691
49118W        W21433   9.314  14.759  10.719
49119W        W21434   8.301  36.051  10.652
49120W        W21435  34.417   6.131  13.289
49121W        W21436  22.801  32.135  12.938
49122W        W21437  15.372  23.483  14.361
49123W        W21438  19.888   7.279  12.358
49124W        W21439  19.649  17.275  10.524
49125W        W21440  39.545   3.883  10.698
49126W        W21441  28.428  40.482  11.933
49127W        W21442  10.016  13.766   2.647
49128W        W21443   1.240   5.609  13.553
49129W        W21444  26.402  12.749  10.295
49130W        W21445   5.170  33.538  11.973
49131W        W21446  14.378  40.067   2.311
49132W        W21447  29.860  38.397  12.988
49133W        W21448  11.723  19.317   9.660
49134W        W21449   5.970   4.456   2.261
49135W        W21450  13.827  17.243  11.083
49136W        W21451  21.345   9.111   0.721
49137W        W21452  26.973  38.015  11.917
49138W        W21453  33.369  20.718  13.493
49139W        W21454  12.268  29.940   0.802
49140W        W21455  17.548  15.146  12.514
49141W        W21456   8.875   0.940  14.925
49142W        W21457  39.152  25.962   9.751
49143W        W21458   9.343  15.571  12.881
49144W        W21459  38.992  17.168  11.572
49145W        W21460  13.941  14.453  12.631
49146W        W21461  44.772  36.955   0.913
49147W        W21462  15.721  30.832  14.776
49148W        W21463  44.534  22.254  14.866
49149W        W21464  37.041  35.378  14.173
49150W        W21465  36.415  11.148  12.817
49151W        W21466  32.486  34.054   2.626
49152W        W21467  15.304  26.126   3.400
49153W        W21468   5.457  40.333  13.775
49154W        W21469   1.183   5.727  11.123
49155W        W21470  39.376  35.604  14.350
49156W        W21471  23.316   8.627  13.530
49157W        W21472   3.983  10.346   4.290
49158W        W21473  41.101  38.311  12.613
49159W        W21474  20.048  10.248  12.060
49160W        W21475  24.994   3.363   0.926
49161W        W21476  19.693  16.534  11.068
49162W        W21477   2.331  35.113   1.449
49163W        W21478  10.592  21.460  13.731
49164W        W21479  26.842   2.434  13.958
49165W        W21480  25.931  18.268   0.730
49166W        W21481   4.345  20.514  12.867
49167W        W21482  30.887  18.598  11.392
49168W        W21483  42.682  29.976   4.355
49169W        W21484  38.918  41.932  14.827
49170W        W21485  40.522  25.195   3.796
49171W        W21486  28.515  43.362  11.310
49172W        W21487  33.574  14.660   4.975
49173W        W21488  34.948  30.792   0.716
49174W        W21489  35.053  28.955   2.254
49175W        W21490   3.708  29.623   1.376
49176W        W21491  34.728   3.974  10.943
49177W        W21492  15.153  34.625  10.450
49178W        W21493   9.330  14.513  13.893
49179W        W21494   6.911  21.527   3.710
49180W        W21495   9.817  26.265  14.411
49181W        W21496   2.726  29.193  11.669
49182W        W21497  37.542  30.581   1.892
49183W        W21498  35.440  36.470  14.396
49184W        W21499  23.753  33.818  13.357
49185W        W21500   4.119   5.809   4.859
49186W        W21501  35.904   3.401   2.305
49187W        W21502  19.072   5.245   0.489
49188W        W21503  15.295  20.680  14.472
49189W        W21504  40.879  24.426  10.307
49190W        W21505  36.429  42.998  12.931
49191W        W21506  23.236  23.194   9.723
49192W        W21507   9.668   6.251   4.312
49193W        W21508   8.739   0.493   2.434
49194W        W21509  36.074  30.909   3.793
49195W        W21510  11.649  40.444   3.397
49196W        W21511  12.610  38.946   3.936
49197W        W21512  15.518  37.594   2.085
49198W        W21513  17.930  20.756   4.063
49199W        W21514  30.560  30.008   2.406
49200W        W21515   5.180  38.908  12.062
49201W        W21516  15.694  15.111   2.467
49202W        W21517  42.529  39.141  11.887
49203W        W21518  23.803  18.632   2.855
49204W        W21519   5.998  10.353   4.583
49205W        W21520   6.405   8.320  12.530
49206W        W21521  38.139   8.302  14.517
49207W        W21522  16.078  44.835   4.066
49208W        W21523  15.907  33.754   2.840
49209W        W21524  37.543   2.603   1.185
49210W        W21525   5.437  27.924  11.201
49211W        W21526  25.225  37.919   1.725
49212W        W21527  40.492   6.875   4.305
49213W        W21528  35.079  19.651   0.495
49214W        W21529  43.116  18.878   0.213
49215W        W21530  36.888  15.556  10.803
49216W        W21531  24.935   8.655   1.004
49217W        W21532  11.665  44.513   0.393
49218W        W21533  31.564  38.749   1.352
49219W        W21534  26.749  41.365  11.941
49220W        W21535  19.256  11.714  12.836
49221W        W21536   9.143  10.781   1.327
49222W        W21537  21.976  31.657  13.373
49223W        W21538  20.024  18.198  14.877
49224W        W21539   9.602  38.537   0.934
49225W        W21540  34.188   6.106   1.415
49226W        W21541  22.748  21.741  13.776
49227W        W21542   8.670  15.605   3.638
49228W        W21543   1.373  41.038   1.533
49229W        W21544  39.833  39.929   1.898
49230W        W21545   4.290   9.849   1.443
49231W        W21546  15.608  37.065  13.354
49232W        W21547  11.468  29.744  14.813
49233W        W21548  11.177   6.414  13.150
49234W        W21549  25.151  25.212  12.198
49235W        W21550  19.664  42.019   1.209
49236W        W21551  30.110   6.590  11.141
49237W        W21552   6.251  31.139   1.359
49238W        W21553  33.500  11.796  10.462
49239W        W21554  11.691  42.450   1.876
49240W        W21555  33.693  17.679   4.707
49241W        W21556  17.954  38.306   3.820
49242W        W21557  28.060  16.303  13.459
49243W        W21558   8.598  27.181  10.458
49244W        W21559  34.087   2.721  12.810
49245W        W21560   6.531  25.112   4.123
49246W        W21561  30.958  33.353  13.870
49247W        W21562  27.070  10.560   4.874
49248W        W21563   8.124  13.570   3.713
49249W        W21564  29.856  24.714   2.073
49250W        W21565   1.974  30.528  10.636
49251W        W21566  12.653  30.897  13.541
49252W        W21567  32.178   1.220   3.747
49253W        W21568  15.753  11.091  11.654
49254W        W21569   8.340  24.022   1.963
49255W        W21570  31.471  39.800   1.419
49256W        W21571   8.831  20.642   1.641
49257W        W21572  41.859  32.469  14.575
49258W        W21573   2.106   2.878  11.854
49259W        W21574  39.889   0.348   3.077
49260W        W21575  36.241  15.889  11.227
49261W        W21576  44.010  39.141   3.605
49262W        W21577  42.259  24.287   2.996
49263W        W21578  17.451  12.830  13.551
49264W        W21579   8.216  40.663   0.790
49265W        W21580  16.141  44.993   0.866
49266W        W21581  40.281   1.493  11.984
49267W        W21582   2.745   8.967   4.027
49268W        W21583   3.455  41.417  14.473
49269W        W21584  13.224  34.290  12.915
49270W        W21585   6.450  15.725  14.370
49271W        W21586  20.698  39.506  11.922
49272W        W21587  30.128  28.204   2.390
49273W        W21588  27.485  31.942  12.997
49274W        W21589  41.414  36.533   4.547
49275W        W21590  31.861  10.981   1.937
49276W        W21591  11.330   0.789   3.101
49277W        W21592   2.677  16.878   4.148
49278W        W21593  24.200  40.155  11.579
49279W        W21594  25.576  25.435  12.377
49280W        W21595  43.814  25.055   4.766
49281W        W21596  38.566   5.029  12.104
49282W        W21597  43.339   8.243   3.644
49283W        W21598  20.645  39.276  10.898
49284W        W21599  16.048   4.116  12.562
49285W        W21600  18.639  25.245  10.596
49286W        W21601  35.260  13.735   2.646
49287W        W21602   6.382  35.117  14.498
49288W        W21603  36.514  30.899  13.823
49289W        W21604  23.324  16.501   1.293
49290W        W21605   1.867  29.607   2.664
49291W        W21606   4.487  12.328   0.421
49292W        W21607  20.600  12.248  11.853
49293W        W21608  31.956  29.495  14.922
49294W        W21609  36.469  34.753   1.750
49295W        W21610   2.759  17.489   0.418
49296W        W21611  39.238  30.548   0.003
49297W        W21612  25.229  16.942   4.044
49298W        W21613  43.828  29.408   3.028
49299W        W21614  44.528  15.019   3.659
49300W        W21615  36.819  26.986  11.650
49301W        W21616  30.697  36.803   2.160
49302W        W21617   2.336  38.933   4.115
49303W        W21618  20.041  10.527   0.903
49304W        W21619  19.230   8.635   0.425
49305W        W21620   8.743  21.064   4.377
49306W        W21621  27.237  10.627   1.841
49307W        W21622  22.523  43.745  12.894
49308W        W21623  10.630   2.919   4.530
49309W        W21624   1.660  24.543   3.287
49310W        W21625  35.534  13.299  10.774
49311W        W21626  35.105  36.340  11.056
49312W        W21627  40.549  36.986   4.336
49313W        W21628  15.971  30.213   0.229
49314W        W21629   2.259  22.110  13.563
49315W        W21630   8.616  20.446  14.824
49316W        W21631  19.781  18.506   0.203
49317W        W21632  16.085   2.259   2.889
49318W        W21633  25.179  29.445   3.203
49319W        W21634  10.501   9.202  12.330
49320W        W21635  10.885  20.603  10.458
49321W        W21636  14.467   1.948   4.576
49322W        W21637  12.020  18.148   1.778
49323W        W21638  27.689  10.330  13.437
49324W        W21639  38.767  13.729   2.123
49325W        W21640  17.758  23.752   2.753
49326W        W21641  40.006  36.883  13.831
49327W        W21642  10.303  28.466   4.117
49328W        W21643  32.838  30.075  13.516
49329W        W21644  31.521   1.273   1.433
49330W        W21645   8.770   9.142   0.698
49331W        W21646  23.823   2.726  12.438
49332W        W21647  35.010  17.814   3.315
49333W        W21648  18.267  39.220  14.456
49334W        W21649  44.372  34.439  10.131
49335W        W21650   5.772  16.632  12.043
49336W        W21651  34.340   3.853  14.593
49337W        W21652  15.190  30.081  14.820
49338W        W21653  29.083  19.268  11.914
49339W        W21654  26.180   5.139  13.404
49340W        W21655  34.338  13.870  12.941
49341W        W21656  30.947  26.048   4.819
49342W        W21657  17.509  44.856  11.204
49343W        W21658  27.966  30.282  13.327
49344W        W21659  32.596   8.728  13.834
49345W        W21660  15.625  17.355   4.502
49346W        W21661  40.033  27.590  12.182
49347W        W21662   8.044  17.032  13.421
49348W        W21663   4.349   3.657   4.072
49349W        W21664  21.990  11.067   0.866
49350W        W21665   5.311  42.852   2.778
49351W        W21666   7.608  27.510  13.813
49352W        W21667  22.723  30.941   0.998
49353W        W21668   7.336  13.262  13.001
49354W        W21669   0.738   6.688  11.179
49355W        W21670  16.255   0.325  10.813
49356W        W21671  42.759   1.051  13.028
49357W        W21672  44.287  30.530   3.695
49358W        W21673  22.177  22.608   3.236
49359W        W21674   8.465  22.092   0.342
49360W        W21675  26.071  30.240   1.713
49361W        W21676   4.187  38.167   0.784
49362W        W21677  37.539   4.367  13.747
49363W        W21678  29.589  22.304  10.688
49364W        W21679  26.133  44.906   0.447
49365W        W21680  25.526  23.715  11.212
49366W        W21681  36.905  38.573  11.626
49367W        W21682  37.113  34.387  14.553
49368W        W21683  31.023  14.299   1.957
49369W        W21684   5.623  44.778  13.801
49370W        W21685   2.943  18.022   3.526
49371W        W21686  32.579  17.935  14.870
49372W        W21687  38.521   7.385  10.609
49373W        W21688   6.996  12.817   1.601
49374W        W21689  21.461   6.811   4.603
49375W        W21690  44.016   8.724  11.911
49376W        W21691  20.163  21.704   1.915
49377W        W21692   3.227  11.144   0.817
49378W        W21693   2.804  13.022  11.010
49379W        W21694  11.999  41.610  14.687
49380W        W21695  30.235   9.682   4.692
49381W        W21696  29.633  43.940  10.714
49382W        W21697  43.528  25.500  10.891
49383W        W21698  13.459  19.540  13.939
49384W        W21699  39.592  39.308  13.917
49385W        W21700  24.599  40.478  10.696
49386W        W21701  15.173  30.491  12.369
49387W        W21702  40.843  18.705  13.351
49388W        W21703  15.372  28.119  11.646
49389W        W21704  13.086  22.592  13.031
49390W        W21705  21.980  30.587  13.810
49391W        W21706  29.163  14.061   2.148
49392W        W21707  28.934   9.230   4.052
49393W        W21708  19.309  43.740  14.883
49394W        W21709  21.668  41.416  13.466
49395W        W21710  28.977   4.729   0.916
49396W        W21711  38.768   2.544   4.587
49397W        W21712  19.491  20.258   0.543
49398W        W21713   6.898  14.362   3.789
49399W        W21714  21.582   2.721   1.264
49400W        W21715   5.978  25.833  12.582
49401W        W21716   6.094  44.471   2.322
49402W        W21717  41.859  28.090   0.312
49403W        W21718  29.076  26.064   2.219
49404W        W21719  18.490   5.196  11.582
49405W        W21720  14.971  18.043  13.035
49406W        W21721  23.290  38.880  13.936
49407W        W21722   2.030   5.732   1.740
49408W        W21723  41.958  38.745  13.071
49409W        W21724   2.189   5.791  13.779
49410W        W21725  26.562  40.840   4.461
49411W        W21726  14.351   2.237   3.966
49412W        W21727  23.608  36.471  14.319
49413W        W21728   2.352   2.737   4.333
49414W        W21729  20.418  20.627   3.220
49415W        W21730  15.310  29.619   0.341
49416W        W21731  33.182  21.023  11.973
49417W        W21732  24.917   8.490   4.267
49418W        W21733  27.189  30.206   3.566
49419W        W21734  25.797  11.086  10.657
49420W        W21735  26.975  36.433  12.619
49421W        W21736   2.354  30.723  14.464
49422W        W21737  22.358  13.384   4.278
49423W        W21738  29.154  27.572  10.631
49424W        W21739  39.581  21.998  13.069
49425W        W21740  13.118  38.830   3.746
49426W        W21741  33.350  36.864   0.562
49427W        W21742  37.797   8.109   2.718
49428W        W21743  30.886  24.088  11.293
49429W        W21744   4.285  17.014  14.899
49430W        W21745  17.214  25.415   4.463
49431W        W21746  14.906  24.992  10.738
49432W        W21747  32.145  38.208   2.582
49433W        W21748  20.524   9.826  13.477
49434W        W21749  33.863  21.852  14.042
49435W        W21750  18.966   1.208   0.141
49436W        W21751   5.708  23.447   3.726
49437W        W21752   1.806  38.878  12.480
49438W        W21753  25.770  28.068  14.817
49439W        W21754   1.069  25.331  12.938
49440W        W21755  28.670  24.114   4.124
49441W        W21756  43.493  10.384   4.180
49442W        W21757   8.399   0.446   1.252
49443W        W21758  37.066  31.701   2.771
49444W        W21759   8.837  12.251  14.951
49445W        W21760  32.881  37.093   0.252
49446W        W21761  17.486  32.959   3.663
49447W        W21762  26.707  39.284  13.462
49448W        W21763   1.543  25.656   3.698
49449W        W21764  39.820  37.470   4.973
49450W        W21765  36.987  43.794  12.996
49451W        W21766  43.433  16.901   1.413
49452W        W21767   7.583  13.379   2.146
49453W        W21768  10.010   1.180  14.581
49454W        W21769   4.149  11.919   0.354
49455W        W21770  11.292  18.991   0.754
49456W        W21771  39.958  23.702  13.620
49457W        W21772  10.773   9.207   1.889
49458W        W21773  17.949  37.645  14.421
49459W        W21774   3.834  15.913   0.124
49460W        W21775  19.364  11.392   4.627
49461W        W21776  17.045  30.088   5.012
49462W        W21777  25.446   6.481  14.846
49463W        W21778  32.389   0.854   2.332
49464W        W21779  38.268  22.688   3.626
49465W        W21780  22.418  17.158  12.332
49466W        W21781   0.502   0.859  12.375
49467W        W21782  27.445  12.063  12.023
49468W        W21783  15.153   6.276   1.344
49469W        W21784  11.416  17.705   0.892
49470W        W21785  21.814  17.357   3.668
49471W        W21786   8.261   0.237   4.162
49472W        W21787  38.020  19.124   3.336
49473W        W21788   2.004  14.199   3.121
49474W        W21789   9.710   3.862   3.608
49475W        W21790  17.724  32.540   3.462
49476W        W21791  16.698  42.055   2.098
49477W        W21792  31.356  22.156  14.059
49478W        W21793  26.477  21.216  14.990
49479W        W21794   7.654  36.075  13.413
49480W        W21795  14.722   3.013   3.749
49481W        W21796  35.338  36.847   1.605
49482W        W21797  12.829   2.274   2.188
49483W        W21798  41.871  21.222   0.271
49484W        W21799   0.336  12.585  11.907
49485W        W21800  31.704  16.837  12.042
49486W        W21801  31.105  32.692  13.452
49487W        W21802  33.022  14.081   1.670
49488W        W21803  19.310   1.941   2.706
49489W        W21804  30.835   3.375  10.492
49490W        W21805  25.928   2.752   2.134
49491W        W21806  10.931  16.574  10.575
49492W        W21807   0.117  44.796   4.710
49493W        W21808  12.823  32.272   0.482
49494W        W21809  43.393  14.280   0.777
49495W        W21810  26.649  38.364   0.017
49496W        W21811  11.436  39.020  12.394
49497W        W21812  43.327   7.743   1.317
49498W        W21813   0.225  19.098  11.851
49499W        W21814  44.483  37.846   4.654
49500W        W21815   0.864  14.245   2.753
49501W        W21816  24.214  43.484  11.918
49502W        W21817   1.823  29.949  11.211
49503W        W21818   2.819   6.938  11.888
49504W        W21819   3.796  12.424  13.905
49505W        W21820  33.203  13.100  11.239
49506W        W21821   7.918  35.971  12.805
49507W        W21822  19.780  41.696  11.003
49508W        W21823  41.496  23.206   1.030
49509W        W21824  29.563  18.788   5.001
49510W        W21825   6.353  36.820   3.640
49511W        W21826  17.099  18.396  14.412
49512W        W21827  34.903  38.009  14.747
49513W        W21828  20.107   6.406  13.519
49514W        W21829  22.283  26.455  10.674
49515W        W21830  43.027  30.046  14.821
49516W        W21831  31.695   7.338   2.857
49517W        W21832   1.308  31.802   4.242
49518W        W21833  31.419   2.930  14.193
49519W        W21834   8.480  10.268   4.148
49520W        W21835   8.576  11.774   1.943
49521W        W21836  11.878  30.405  11.012
49522W        W21837  22.957  26.601   2.168
49523W        W21838   2.989   7.439  11.769
49524W        W21839  13.990  21.493   4.310
49525W        W21840  35.095   2.960  13.592
49526W        W21841  10.083  11.264   0.320
49527W        W21842  40.690  15.824  12.528
49528W        W21843  19.620  37.006   0.966
49529W        W21844  16.799  24.494   3.583
49530W        W21845  11.690  19.528  14.488
49531W        W21846   2.790  13.179  11.512
49532W        W21847  29.493  31.567   2.831
49533W        W21848  26.241  36.871   0.212
49534W        W21849  17.710  33.919  13.835
49535W        W21850  30.229   4.675   0.121
49536W        W21851  25.744  15.211   3.271
49537W        W21852   0.138  38.968  13.879
49538W        W21853  31.912   6.621   0.804
49539W        W21854   7.200  18.276   4.555
49540W        W21855   2.939  29.348  12.627
49541W        W21856  12.748  31.633   2.770
49542W        W21857  16.131  31.545  12.613
49543W        W21858  42.039  29.065  11.509
49544W        W21859  36.639   5.935  14.467
49545W        W21860  20.285   9.850   3.708
49546W        W21861   7.296  38.854   0.372
49547W        W21862   8.686  13.326   2.625
49548W        W21863  40.557  28.206   9.736
49549W        W21864  15.565   6.603   3.245
49550W        W21865  11.720  23.432   0.850
49551W        W21866  13.035  36.942   3.876
49552W        W21867  16.609   1.998  11.101
49553W        W21868  11.528  33.554   1.765
49554W        W21869  14.401  22.723   0.745
49555W        W21870   0.073   4.976  12.819
49556W        W21871  42.071  35.975   1.918
49557W        W21872  12.373  41.402  11.280
49558W        W21873  40.769  44.490   4.161
49559W        W21874  38.135  20.650  11.507
49560W        W21875  37.065   5.610  13.152
49561W        W21876  13.959  40.919  10.679
49562W        W21877  13.379  25.423   4.300
49563W        W21878  39.317   6.814   2.285
49564W        W21879  28.672  25.460  12.495
49565W        W21880  18.753  38.941  13.607
49566W        W21881  38.327  36.915  12.760
49567W        W21882   1.805  20.136  11.019
49568W        W21883   8.220  13.486   4.252
49569W        W21884  32.879  22.490  11.509
49570W        W21885  20.190  37.176   3.354
49571W        W21886   0.567   9.065   4.615
49572W        W21887   6.368  41.438  10.768
49573W        W21888   6.153   0.201   4.632
49574W        W21889  44.701  36.066   4.273
49575W        W21890  43.080  35.836   2.833
49576W        W21891   8.074  23.422   0.682
49577W        W21892  40.648  43.398  14.336
49578W        W21893   1.952  30.004   1.498
49579W        W21894  43.056   8.605  13.978
49580W        W21895  32.612  27.418   1.909
49581W        W21896  15.757  29.613  10.900
49582W        W21897  24.043  36.708  14.457
49583W        W21898  40.485  27.934  12.450
49584W        W21899  11.206  30.644  13.972
49585W        W21900  30.515   7.926   1.871
49586W        W21901  13.909  30.964  12.016
49587W        W21902  29.433  31.921   4.227
49588W        W21903   8.577  25.324  11.169
49589W        W21904  28.717  43.187   3.821
49590W        W21905  12.588   5.640   0.631
49591W        W21906   5.947   5.519  11.603
49592W        W21907  16.348   6.772  13.461
49593W        W21908  28.167   7.711  10.964
49594W        W21909   1.375  21.063   3.444
49595W        W21910  26.551  23.475  11.482
49596W        W21911  38.528  21.769  11.256
49597W        W21912   2.490  12.264  13.992
49598W        W21913  31.688  33.166  13.952
49599W        W21914   0.534  14.341  12.135
49600W        W21915  19.385  22.504  14.741
49601W        W21916  24.081  42.043   2.302
49602W        W21917  42.904  27.967   1.179
49603W        W21918   5.377  41.421   2.932
49604W        W21919  32.046  42.872   1.244
49605W        W21920  31.087  39.302  13.886
49606W        W21921   8.704   1.548  13.780
49607W        W21922  12.992  39.764   3.776
49608W        W21923   5.428  44.941  14.761
49609W        W21924  19.522  11.122  11.990
49610W        W21925  27.742   6.677   3.638
49611W        W21926  36.261  23.997   4.928
49612W        W21927  25.566  43.484   4.058
49613W        W21928  42.193  15.286   4.459
49614W        W21929  11.801  26.007   0.332
49615W        W21930  33.121   4.986  14.683
49616W        W21931  44.582  15.182   1.686
49617W        W21932   1.877   5.623   0.887
49618W        W21933  29.505   0.256   1.684
49619W        W21934  20.503   4.246   4.352
49620W        W21935  11.321  17.041  14.532
49621W        W21936  24.301  32.479  11.578
49622W        W21937   0.776  29.947   0.280
49623W        W21938   9.439   6.304   3.195
49624W        W21939  13.667  43.352   1.535
49625W        W21940   1.412  40.826   2.821
49626W        W21941   4.367  31.978  13.532
49627W        W21942  34.932   4.717   2.867
49628W        W21943   0.768  33.997   9.915
49629W        W21944  23.362  19.631   3.711
49630W        W21945  40.813  19.491  14.562
49631W        W21946  21.772  16.311  14.093
49632W        W21947  17.339   5.097   1.913
49633W        W21948  37.932  12.155  14.351
49634W        W21949   5.884  26.707  14.416
49635W        W21950  14.311  42.081   3.238
49636W        W21951  37.145  25.676   1.953
49637W        W21952  23.741   4.260   1.409
49638W        W21953   3.110  20.952  13.955
49639W        W21954  38.336  40.166  14.817
49640W        W21955  25.715   5.498  14.896
49641W        W21956  10.277   8.476  13.516
49642W        W21957  38.751   9.611  11.552
49643W        W21958  16.709  40.272   0.425
49644W        W21959  19.690  44.419  13.888
49645W        W21960  24.896  37.333   5.041
49646W        W21961  40.153   1.219  10.726
49647W        W21962  22.570  16.617  11.399
49648W        W21963  38.800   7.066  12.862
49649W        W21964  43.834  28.765   4.281
49650W        W21965   7.155  30.369  13.926
49651W        W21966  22.607  12.572  13.373
49652W        W21967  38.446   5.684  12.929
49653W        W21968  26.069  11.186  14.038
49654W        W21969   1.247  19.014  14.285
49655W        W21970  11.251  32.230  11.611
49656W        W21971  27.039  18.706  13.854
49657W        W21972  40.589  40.406  12.079
49658W        W21973  13.149   4.416  14.596
49659W        W21974  22.823  21.210  13.066
49660W        W21975   4.707   6.063  10.198
49661W        W21976   1.718   2.403   0.529
49662W        W21977  43.509   7.279   3.417
49663W        W21978  11.668  10.412  12.879
49664W        W21979  15.290  23.449  13.599
49665W        W21980  36.002  19.678   0.588
49666W        W21981  35.769  16.398  11.074
49667W        W21982   1.916  20.551   2.907
49668W        W21983  36.828  15.157  12.931
49669W        W21984  28.543  34.634   4.503
49670W        W21985  13.998  20.562   4.210
49671W        W21986  36.043  13.173  11.474
49672W        W21987  35.364   4.449  14.450
49673W        W21988  35.032  33.439   1.703
49674W        W21989   3.364  33.917  13.019
49675W        W21990  18.015  35.431   1.010
49676W        W21991  36.335  44.263  12.425
49677W        W21992   9.716  33.539  13.543
49678W        W21993  28.512  44.470  13.602
49679W        W21994  26.535  21.663   3.270
49680W        W21995  27.794  17.634  14.828
49681W        W21996   4.987  14.833   4.694
49682W        W21997  39.606   5.578  12.986
49683W        W21998  18.683  31.583   3.600
49684W        W21999   6.322   0.446   4.159
49685W        W22000  18.727  22.067   3.756
49686W        W22001  36.637  36.938   3.320
49687W        W22002  29.440   1.542   0.346
49688W        W22003   6.713  38.418  12.546
49689W        W22004   9.121  16.248   9.977
49690W        W22005  37.592  26.469  13.693
49691W        W22006  38.336  28.337  10.633
49692W        W22007  37.671  13.613   3.674
49693W        W22008  12.303  26.026  14.632
49694W        W22009  14.526  41.825   3.688
49695W        W22010  18.711  12.423   0.678
49696W        W22011   9.120   2.790   4.668
49697W        W22012  21.467  12.736  10.686
49698W        W22013  17.293  22.566  11.044
49699W        W22014  36.573  18.106  11.509
49700W        W22015   3.291  17.355  12.829
49701W        W22016  26.811  44.994  12.455
49702W        W22017   4.293  44.223   4.069
49703W        W22018  18.781   7.322  13.746
49704W        W22019   0.084  36.130   5.143
49705W        W22020  16.508  17.368  13.110
49706W        W22021   1.531   5.994  12.002
49707W        W22022  16.621  26.221  14.055
49708W        W22023  10.083  11.334   4.904
49709W        W22024  20.604  14.203  10.653
49710W        W22025  13.970  18.229   3.154
49711W        W22026  17.756   5.289   1.214
49712W        W22027  39.903  37.869   1.270
49713W        W22028  20.516  35.522   3.919
49714W        W22029  16.691  30.085   0.956
49715W        W22030  19.190  28.242  14.388
49716W        W22031  21.257  18.603  13.924
49717W        W22032  11.437  34.151  14.487
49718W        W22033  34.447   0.185   1.680
49719W        W22034   1.727  42.726  11.660
49720W        W22035   7.694   6.145   4.034
49721W        W22036  44.839   6.510  12.044
49722W        W22037  37.969  31.580  14.831
49723W        W22038  18.942  41.045  12.024
49724W        W22039  32.909   1.522   3.118
49725W        W22040  20.298  44.191  13.975
49726W        W22041  10.853  37.550   0.735
49727W        W22042  28.192   1.515   4.972
49728W        W22043  23.965  42.822   2.637
49729W        W22044   1.309   1.424  13.614
49730W        W22045  22.988   1.505  10.605
49731W        W22046  24.268  27.543  13.374
49732W        W22047  43.798  34.516  10.278
49733W        W22048   4.260  31.981   4.168
49734W        W22049  41.784  24.744   0.318
49735W        W22050  29.275   2.909   1.904
49736W        W22051  38.873  12.684   4.673
49737W        W22052  17.196   8.156   4.149
49738W        W22053  32.136  29.612   2.409
49739W        W22054  13.685  32.134   4.667
49740W        W22055   2.006  11.025   2.894
49741W        W22056  30.813  33.428  11.113
49742W        W22057  21.140   5.395   0.201
49743W        W22058  26.616  24.766   4.854
49744W        W22059  31.843  40.092  11.096
49745W        W22060  28.985   2.900  12.461
49746W        W22061  36.891  13.735   1.898
49747W        W22062   7.239  35.160  13.447
49748W        W22063   4.192  42.468   2.638
49749W        W22064  34.438   1.450  11.621
49750W        W22065  44.955  20.008   4.628
49751W        W22066  36.138  13.695  12.639
49752W        W22067  44.547  11.359  11.886
49753W        W22068  20.614  32.587   4.578
49754W        W22069  10.934  19.796   3.893
49755W        W22070  28.167  30.334   2.635
49756W        W22071   1.333  35.390   1.433
49757W        W22072   1.241  44.017  12.021
49758W        W22073  17.621  10.148  13.357
49759W        W22074  42.767  21.487  13.973
49760W        W22075  40.847  27.531   3.556
49761W        W22076  23.817  37.511  14.951
49762W        W22077  13.888  25.617  13.836
49763W        W22078  19.002  10.703  11.139
49764W        W22079   9.296  17.170   5.429
49765W        W22080  25.568  11.514   1.701
49766W        W22081   0.434   5.678   3.740
49767W        W22082   3.432  17.708   3.067
49768W        W22083   9.652  33.196   2.643
49769W        W22084   8.895   8.090   4.118
49770W        W22085  32.930  31.551  13.460
49771W        W22086  44.051  39.085  14.845
49772W        W22087  11.327   1.848  12.403
49773W        W22088  14.803  13.410  14.828
49774W        W22089   4.324  17.793  11.221
49775W        W22090   6.462   9.553   3.295
49776W        W22091  18.252  40.474   0.426
49777W        W22092  21.282  35.557  11.046
49778W        W22093  16.111   0.706  10.218
49779W        W22094  19.828  32.461  14.480
49780W        W22095  16.622  19.522   3.700
49781W        W22096  31.888  34.406   0.223
49782W        W22097  32.941  39.722  14.985
49783W        W22098   9.268   4.011   3.058
49784W        W22099  13.416  17.430  14.552
49785W        W22100   3.019  10.265   3.231
49786W        W22101  20.199  17.801   1.186
49787W        W22102  39.797  20.094  14.311
49788W        W22103  41.240  21.551   0.882
49789W        W22104  35.967  23.040  12.972
49790W        W22105   8.696  37.390  12.346
49791W        W22106  41.863   6.517   1.843
49792W        W22107  35.162   3.727  10.704
49793W        W22108   7.429   7.733  10.374
49794W        W22109  18.847  23.206  14.121
49795W        W22110  34.223  15.207  13.017
49796W        W22111   4.857  16.202   4.011
49797W        W22112  35.057   1.822   3.197
49798W        W22113  13.301  31.002   1.259
49799W        W22114  28.869   3.793   4.460
49800W        W22115  20.784  23.799   1.411
49801W        W22116  35.169  11.532  13.412
49802W        W22117  19.852   1.807  13.813
49803W        W22118   1.937  13.130  12.065
49804W        W22119  22.378  44.302   3.184
49805W        W22120   4.375  31.159  12.473
49806W        W22121  19.876  30.160   4.511
49807W        W22122   7.916   4.235  14.645
49808W        W22123   6.766  27.681   0.317
49809W        W22124  21.918  37.430  10.662
49810W        W22125  19.797   5.868   3.680
49811W        W22126  18.203  21.992   1.192
49812W        W22127  26.140   7.164   0.051
49813W        W22128  12.181   3.240   2.687
49814W        W22129  30.501  31.358  14.510
49815W        W22130  18.145  14.749   2.394
49816W        W22131   6.728  40.986  14.279
49817W        W22132  37.311   7.827   1.327
49818W        W22133  31.400  24.250  14.045
49819W        W22134  20.022  15.055  11.502
49820W        W22135  19.934  33.229  13.909
49821W        W22136   7.389  16.287   2.222
49822W        W22137   6.873  25.015  14.747
49823W        W22138  15.800  19.323  10.671
49824W        W22139  24.228  26.556  12.512
49825W        W22140  24.174   8.850   1.464
49826W        W22141   2.420  18.158   3.703
49827W        W22142   5.848  23.616  11.375
49828W        W22143  27.542  25.496   3.168
49829W        W22144   2.153  30.649   3.066
49830W        W22145  39.741  39.144  12.008
49831W        W22146  31.369  32.629   0.339
49832W        W22147  20.546  11.133   1.792
49833W        W22148  37.784  17.695  12.112
49834W        W22149   5.571  44.830   3.145
49835W        W22150  14.250  44.937   2.786
49836W        W22151  29.927   8.419   1.232
49837W        W22152  23.780   8.434  12.928
49838W        W22153   3.473  39.993  10.987
49839W        W22154  11.681   3.473  12.013
49840W        W22155   6.631   6.389  13.554
49841W        W22156  35.119  18.719   0.375
49842W        W22157  15.173  13.141   4.955
49843W        W22158  10.313   4.822  10.718
49844W        W22159   0.228  37.269   3.473
49845W        W22160  35.173  34.666   1.247
49846W        W22161   3.779  21.787  12.174
49847W        W22162   8.402   7.438   0.753
49848W        W22163   9.090   2.367  13.257
49849W        W22164  16.538  29.926  13.273
49850W        W22165  43.287  10.919  12.123
49851W        W22166  19.382  16.648  11.832
49852W        W22167  23.339  38.373  11.976
49853W        W22168  32.345  20.969   2.160
49854W        W22169  26.413  36.125   4.952
49855W        W22170  43.442  11.749  12.600
49856W        W22171  36.598   6.764  13.447
49857W        W22172  26.455  43.031   1.969
49858W        W22173  44.713  37.823   1.294
49859W        W22174  40.413  42.838  10.591
49860W        W22175  37.213   8.671   3.357
49861W        W22176   9.227  13.295  13.356
49862W        W22177  34.353   1.290   2.343
49863W        W22178  14.955  34.784  12.556
49864W        W22179  40.349  34.202  10.533
49865W        W22180   8.623  24.304  14.897
49866W        W22181  17.369  10.321  10.608
49867W        W22182  44.215  41.836   3.622
49868W        W22183  10.758  36.707   1.848
49869W        W22184   9.315  23.687  14.967
49870W        W22185  25.491  14.770  14.831
49871W        W22186  22.692   0.008  13.390
49872W        W22187   4.893  12.064   0.172
49873W        W22188  10.800  22.539   1.278
49874W        W22189   9.683   0.039  13.441
49875W        W22190  42.390  26.495   0.662
49876W        W22191  39.359  33.454  13.862
49877W        W22192  17.008  18.529  13.497
49878W        W22193   8.097  28.917   2.836
49879W        W22194  21.646  43.735  11.532
49880W        W22195  19.618  13.093   3.686
49881W        W22196  26.416  43.256   3.563
49882W        W22197  34.893   8.158  13.734
49883W        W22198  15.636  39.958  10.741
49884W        W22199  33.174  32.027  11.182
49885W        W22200  21.697  26.179  11.439
49886W        W22201  16.266  26.315  10.461
49887W        W22202   0.758   6.253   2.922
49888W        W22203  11.893  38.052  12.116
49889W        W22204  20.188  12.368   4.196
49890W        W22205  43.799  30.339   2.810
49891W        W22206  16.234  20.174   1.396
49892W        W22207  28.644   0.786  10.611
49893W        W22208  36.943  19.182   4.857
49894W        W22209  16.635  17.784   2.289
49895W        W22210   6.792  37.165   3.153
49896W        W22211  25.830  25.435  14.281
49897W        W22212  13.356  37.229   1.865
49898W        W22213  20.272  11.050  13.469
49899W        W22214  43.021  30.611  13.428
49900W        W22215  28.712  28.303   3.247
49901W        W22216  16.809  18.053   2.836
49902W        W22217  14.495  42.540   1.661
49903W        W22218   2.116  29.445  14.818
49904W        W22219  43.884   4.432  14.010
49905W        W22220   4.235  21.704  10.511
49906W        W22221  33.127  41.854   4.645
49907W        W22222  18.321  21.774  14.330
49908W        W22223   0.522  14.071  14.754
49909W        W22224   9.784   3.429   2.191
49910W        W22225  39.137  21.720  14.891
49911W        W22226  41.838  14.100   3.691
49912W        W22227  19.594   0.847   2.109
49913W        W22228  29.519  42.009  11.617
49914W        W22229   1.793  25.554  13.370
49915W        W22230  14.884  17.171  11.177
49916W        W22231   4.406   4.445  14.844
49917W        W22232  15.550  33.180  10.617
49918W        W22233  21.203  38.766  10.628
49919W        W22234   1.733   2.305   2.421
49920W        W22235  18.582  11.683  11.301
49921W        W22236   3.558  17.603   0.691
49922W        W22237   8.089  40.901  13.981
49923W        W22238  22.067  34.884  11.340
49924W        W22239  23.623   9.906   1.771
49925W        W22240   4.269   6.914   4.102
49926W        W22241  13.327  14.858   1.431
49927W        W22242  19.721  29.385   3.338
49928W        W22243  32.095  28.739   3.525
49929W        W22244   5.992   4.816   4.617
49930W        W22245  25.746   3.395   1.455
49931W        W22246  20.749  41.263   3.305
49932W        W22247  12.903   3.529  14.836
49933W        W22248  27.005  35.285   4.589
49934W        W22249  26.719  36.155  10.219
49935W        W22250   9.303  21.869   4.002
49936W        W22251  32.022  17.070  14.510
49937W        W22252  43.667   7.417  10.666
49938W        W22253  12.611  23.346   0.897
49939W        W22254  13.049  26.315   4.572
49940W        W22255  40.424  12.465   0.913
49941W        W22256   6.635  29.206   0.384
49942W        W22257   2.499  24.901   1.633
49943W        W22258  16.331  41.978  12.020
49944W        W22259  16.268  11.140   2.315
49945W        W22260  41.063  13.294   1.307
49946W        W22261   9.357  38.334   1.359
49947W        W22262  32.154  28.415   3.127
49948W        W22263  32.386  12.354   0.898
49949W        W22264   8.681  24.067  14.033
49950W        W22265  13.848  12.344   4.321
49951W        W22266   8.770  30.984   2.773
49952W        W22267  19.171  37.069   1.266
49953W        W22268  37.607  40.026  11.728
49954W        W22269  27.582  23.243   0.460
49955W        W22270  35.516  12.179   0.556
49956W        W22271  38.660  26.941  12.857
49957W        W22272  11.221  41.834  11.131
49958W        W22273  28.556  14.778   2.269
49959W        W22274  43.042  25.665   2.961
49960W        W22275   6.618   0.917   2.390
49961W        W22276  44.070  20.180   4.933
49962W        W22277  34.397  15.174  13.504
49963W        W22278  14.600  19.025   2.742
49964W        W22279  32.649  31.207  11.868
49965W        W22280  27.525   2.642   1.704
49966W        W22281  14.163   3.751  11.584
49967W        W22282  31.943  19.025  12.634
49968W        W22283  26.987  44.330   3.312
49969W        W22284  14.946  32.682   3.275
49970W        W22285  11.366  28.451  14.063
49971W        W22286  19.725   5.447  11.196
49972W        W22287   8.763  38.319  14.462
49973W        W22288  12.784  28.359  13.974
49974W        W22289   9.630  44.382   2.200
49975W        W22290  31.012   8.241  14.844
49976W        W22291  43.758  31.848  10.543
49977W        W22292  16.082  36.676  12.426
49978W        W22293  42.109  44.950  11.952
49979W        W22294   0.749  37.294  11.123
49980W        W22295   8.218   4.999   1.753
49981W        W22296  23.602  34.017   3.789
49982W        W22297   7.914  11.985  14.886
49983W        W22298   1.135  25.652  12.446
49984W        W22299  27.623  11.918  10.692
49985W        W22300  30.455  36.968  12.667
49986W        W22301   6.977  44.729   3.228
49987W        W22302   6.426  17.528  14.089
49988W        W22303  35.780  43.208   2.349
49989W        W22304  44.837  16.661  13.118
49990W        W22305  31.928  19.510   1.174
49991W        W22306  41.685  39.951   1.643
49992W        W22307  27.195  13.031  11.930
49993W        W22308  35.908  24.417   0.245
49994W        W22309  17.620  20.224   1.911
49995W        W22310  14.221  32.267  12.676
49996W        W22311  27.152  25.300   1.290
49997W        W22312  16.649  20.157  13.593
49998W        W22313   0.308   6.415   1.488
49999W        W22314  25.550   7.216   1.706
50000W        W22315  17.830  37.924   0.837
50001W        W22316  28.549  41.161   0.975
50002W        W22317  14.182  44.105   0.031
50003W        W22318  16.108  39.468  12.362
50004W        W22319  12.461  19.612  13.921
50005W        W22320  39.361  15.779   4.475
50006W        W22321  21.981   6.348   0.032
50007W        W22322  36.813  29.896   3.655
50008W        W22323  44.345  27.077  11.675
50009W        W22324   7.977  11.504  13.389
50010W        W22325  30.172   1.504  14.550
50011W        W22326   2.397  29.684   4.106
50012W        W22327  11.970  32.895   2.344
50013W        W22328  36.951  12.670  13.828
50014W        W22329  44.529   3.979  11.009
50015W        W22330   7.124  44.970   1.264
50016W        W22331   3.230  42.976  13.418
50017W        W22332  22.784  11.750  10.733
50018W        W22333   6.032   7.763   0.882
50019W        W22334  17.732  42.710   4.215
50020W        W22335  26.437   3.858   0.078
50021W        W22336  17.722  18.377   4.112
50022W        W22337  26.035   5.824   5.478
50023W        W22338  35.500  31.417  11.538
50024W        W22339  25.524  33.406  14.785
50025W        W22340  43.535  18.283  10.277
50026W        W22341   0.404  41.046   1.118
50027W        W22342  19.754  33.193  11.294
50028W        W22343  30.139  21.742  11.986
50029W        W22344  21.758  37.987  10.930
50030W        W22345   3.239   6.167   3.683
50031W        W22346  29.451   0.830  13.396
50032W        W22347  44.108  16.607  13.611
50033W        W22348   7.295  12.360  12.414
50034W        W22349  20.642  23.866  13.773
50035W        W22350  31.565  18.281   3.365
50036W        W22351  22.006  10.678   4.555
50037W        W22352   5.789  20.142  14.849
50038W        W22353   0.304   9.810  11.969
50039W        W22354  39.746  40.419   0.741
50040W        W22355   1.201  40.863   0.057
50041W        W22356  38.839  43.045  11.882
50042W        W22357  30.365  19.489  14.817
50043W        W22358  15.494   7.127  13.505
50044W        W22359  35.582  14.546  14.944
50045W        W22360  19.180  14.731   3.380
50046W        W22361  16.302  27.641  11.739
50047W        W22362  25.784  29.158  13.081
50048W        W22363   0.527   9.172  10.747
50049W        W22364   4.161  29.651  13.526
50050W        W22365  28.538   4.699  11.597
50051W        W22366  29.772  18.186  14.601
50052W        W22367  36.493  24.519   4.230
50053W        W22368  20.803   4.150  14.784
50054W        W22369  26.185  38.518   3.832
50055W        W22370  34.342  11.249  14.983
50056W        W22371  15.212  23.942  13.457
50057W        W22372  44.523  20.255   1.269
50058W        W22373  37.815   8.844   2.346
50059W        W22374  35.025   9.635  11.600
50060W        W22375  39.369   8.878  11.873
50061W        W22376  22.349  15.786  13.002
50062W        W22377  25.177  21.972  14.877
50063W        W22378  41.471  39.030   3.247
50064W        W22379  36.195  13.334  14.789
50065W        W22380  34.502  18.330   0.731
50066W        W22381  16.066  27.811   0.399
50067W        W22382  37.914  11.321  11.069
50068W        W22383  28.627  29.750  13.513
50069W        W22384  33.615  17.213   0.926
50070W        W22385  22.101  19.267  12.974
50071W        W22386  22.377  17.412   0.752
50072W        W22387  38.330   8.202   2.701
50073W        W22388  36.431  15.908   1.936
50074W        W22389  15.401  18.866  14.171
50075W        W22390  20.594  34.617   0.813
50076W        W22391  29.506  21.289  11.553
50077W        W22392  28.165  27.066   4.096
50078W        W22393  30.310  26.706   3.593
50079W        W22394   3.637  16.622   4.181
50080W        W22395   7.584   7.797   2.880
50081W        W22396  33.210  26.090   4.198
50082W        W22397  10.825  25.376  11.217
50083W        W22398  20.984  30.679   0.528
50084W        W22399  38.359   5.998  11.964
50085W        W22400  20.247  40.322   2.348
50086W        W22401  29.464  37.167   3.755
50087W        W22402  36.926   6.127  14.056
50088W        W22403  29.359  15.724  12.862
50089W        W22404  28.422  26.504   2.347
50090W        W22405   4.945  15.693   2.356
50091W        W22406  19.323  27.537  12.466
50092W        W22407  26.105  38.757  13.591
50093W        W22408  40.316  37.865  11.101
50094W        W22409  31.267  30.948  11.996
50095W        W22410  13.926  43.073   3.269
50096W        W22411   9.241  31.079   1.450
50097W        W22412   6.825  20.653   1.096
50098W        W22413   3.883   7.237   2.368
50099W        W22414  28.798  38.018   1.877
50100W        W22415  17.510  23.068   0.885
50101W        W22416  31.446  25.065   0.933
50102W        W22417  38.053   2.924  10.743
50103W        W22418   0.917  13.214   2.807
50104W        W22419  34.344  31.651  13.746
50105W        W22420  29.132  10.971  10.830
50106W        W22421  24.921  28.018  11.457
50107W        W22422  22.555  23.187   1.321
50108W        W22423  26.002  19.494   2.211
50109W        W22424  18.517  13.728   1.683
50110W        W22425  22.252  35.080  14.283
50111W        W22426  10.852  16.407   2.546
50112W        W22427  18.155  11.141  12.930
50113W        W22428  30.551  35.101  14.135
50114W        W22429  40.795   9.228   0.789
50115W        W22430  25.973  33.083   1.882
50116W        W22431  10.834  14.397   3.463
50117W        W22432   8.597  34.613  14.450
50118W        W22433  23.706  38.377  10.732
50119W        W22434  14.161  38.788   1.832
50120W        W22435  15.574   3.972   1.282
50121W        W22436  44.545  40.986  14.890
50122W        W22437  43.011  34.513   1.783
50123W        W22438  12.395  39.918  13.269
50124W        W22439  18.871  37.546   3.422
50125W        W22440  22.268  30.432   3.618
50126W        W22441  17.715  29.113  11.371
50127W        W22442  30.075  10.116  12.930
50128W        W22443  38.317  23.236  10.311
50129W        W22444   4.396  40.359  13.302
50130W        W22445  24.734  16.229   1.930
50131W        W22446  23.161  10.191  12.754
50132W        W22447  36.403  23.086  14.343
50133W        W22448   7.484  27.475   2.732
50134W        W22449   2.064  19.357  13.386
50135W        W22450  19.298   4.906   2.317
50136W        W22451  31.158   6.842   4.380
50137W        W22452  44.906  17.041   4.123
50138W        W22453  28.083   9.129   1.470
50139W        W22454  13.114   7.715   4.498
50140W        W22455  20.074  15.366  11.083
50141W        W22456  39.742   1.341  12.013
50142W        W22457  37.356  20.757  13.063
50143W        W22458  29.123   5.767   0.207
50144W        W22459   8.882   1.043  13.903
50145W        W22460  35.544  35.533  12.073
50146W        W22461  13.703   5.750  13.572
50147W        W22462  10.669  20.230  14.750
50148W        W22463  43.214  32.023  12.851
50149W        W22464  38.877  26.191   0.906
50150W        W22465  25.882   3.235   2.292
50151W        W22466  11.534  40.287   3.864
50152W        W22467  38.395  10.227   1.148
50153W        W22468  16.344  41.320  11.492
50154W        W22469  16.677  38.192  11.535
50155W        W22470  38.796   7.782   1.316
50156W        W22471  11.676  34.889  11.759
50157W        W22472  11.657   2.875   3.196
50158W        W22473   1.506  34.058   2.330
50159W        W22474  22.120  35.435   2.415
50160W        W22475  41.646  20.556  11.332
50161W        W22476   2.497  32.019   4.565
50162W        W22477  28.260  19.416   2.234
50163W        W22478  15.134  42.706  13.315
50164W        W22479  33.821   3.225   0.182
50165W        W22480   1.679  11.241  10.668
50166W        W22481   8.903  42.352  13.386
50167W        W22482  25.566  17.739   2.734
50168W        W22483   3.944  37.337  10.264
50169W        W22484  30.951   8.103  13.448
50170W        W22485  17.286  13.299   2.207
50171W        W22486  20.921  24.901   3.627
50172W        W22487  16.470  18.117   0.469
50173W        W22488  26.436  19.612   0.522
50174W        W22489  43.369   3.489   2.868
50175W        W22490   7.981  37.099  13.446
50176W        W22491  40.092  30.976  12.100
50177W        W22492  12.275  30.569  13.859
50178W        W22493  26.330  29.325   0.954
50179W        W22494  40.721  12.897   4.700
50180W        W22495  38.329  21.001  13.039
50181W        W22496  26.981  20.448  14.331
50182W        W22497  17.100  12.260  14.353
50183W        W22498  16.726  27.559  11.449
50184W        W22499  31.687  15.113   4.125
50185W        W22500  38.898  32.831  10.252
50186W        W22501  35.672  44.776  12.115
50187W        W22502  26.540  35.029  14.130
50188W        W22503  23.677  23.298   2.108
50189W        W22504  24.159  35.101   2.790
50190W        W22505  28.518  19.854   2.413
50191W        W22506  23.583   7.431  13.859
50192W        W22507   3.731  10.885   0.870
50193W        W22508  42.829   0.857   2.826
50194W        W22509   9.118   4.434   3.298
50195W        W22510  11.704  32.218  13.320
50196W        W22511  23.976  11.059  13.549
50197W        W22512   3.826   3.877  12.484
50198W        W22513  40.817  36.871  12.538
50199W        W22514  44.424  43.988   0.792
50200W        W22515  18.149  30.852  13.685
50201W        W22516  42.611   2.960   1.250
50202W        W22517  35.955  10.929   2.885
50203W        W22518  29.663   1.967   1.805
50204W        W22519  32.108   1.739   3.867
50205W        W22520   8.654  13.859  10.728
50206W        W22521   9.245  27.774   3.924
50207W        W22522  25.471  17.874  14.411
50208W        W22523  36.375  38.509  12.535
50209W        W22524  44.173  26.755  14.934
50210W        W22525  30.374   6.171  13.869
50211W        W22526  31.865  12.890   2.508
50212W        W22527  13.106  26.724  10.715
50213W        W22528  15.970  34.504  14.908
50214W        W22529  31.383  14.653   4.346
50215W        W22530  10.710  17.208   4.095
50216W        W22531  36.575  15.931  14.847
50217W        W22532  35.611   5.405  14.762
50218W        W22533  25.606  38.286   2.274
50219W        W22534  18.834   2.407  13.471
50220W        W22535  44.562  19.616  12.530
50221W        W22536  18.680  13.604  12.574
50222W        W22537  41.845  36.114   3.171
50223W        W22538  39.082   8.147  10.496
50224W        W22539  34.517  39.577   1.889
50225W        W22540  30.688  25.687   4.520
50226W        W22541  20.142  31.332   4.700
50227W        W22542  42.366  38.336   0.798
50228W        W22543  21.554  13.651  14.597
50229W        W22544  10.150  38.129  13.371
50230W        W22545  26.092  14.903  13.974
50231W        W22546  17.230  37.764  14.341
50232W        W22547  16.573   9.998  11.770
50233W        W22548  29.590  30.932   3.982
50234W        W22549  22.161  41.736   0.236
50235W        W22550   1.235  27.251  13.347
50236W        W22551  44.468  28.969  13.376
50237W        W22552  34.318  25.564  14.659
50238W        W22553  19.664  35.973   4.450
50239W        W22554  13.151  22.960  12.418
50240W        W22555  18.728  44.210   1.917
50241W        W22556  10.726   6.182  14.504
50242W        W22557  34.119  17.062  14.578
50243W        W22558  27.742  24.158   0.262
50244W        W22559  44.848  16.276   2.827
50245W        W22560  23.742   3.397   0.318
50246W        W22561  24.553   4.698   2.877
50247W        W22562   4.080  39.677   1.911
50248W        W22563  16.083  37.288  10.830
50249W        W22564   4.754   2.713   3.302
50250W        W22565  19.860  31.465   0.882
50251W        W22566  14.235  32.908   4.856
50252W        W22567  41.448   3.746  14.902
50253W        W22568  12.335  18.987   1.648
50254W        W22569  13.136  19.312  14.311
50255W        W22570  12.912  40.553   0.876
50256W        W22571  13.081  29.383  13.093
50257W        W22572  36.610   4.447  12.451
50258W        W22573  43.963  44.088   2.773
50259W        W22574  30.012   1.450   4.649
50260W        W22575  24.633   5.744   3.764
50261W        W22576   8.804  44.315  14.028
50262W        W22577   8.096  18.665  14.916
50263W        W22578  44.694  26.688  14.012
50264W        W22579   0.073  16.140  13.683
50265W        W22580  39.132  12.754   5.153
50266W        W22581  15.146  34.013   3.263
50267W        W22582  40.521  20.510  11.588
50268W        W22583   9.259   5.740  12.045
50269W        W22584  37.617  23.479   0.407
50270W        W22585  15.059   3.946  12.847
50271W        W22586  38.528  31.496  13.453
50272W        W22587  24.267   1.670  12.516
50273W        W22588  42.360  40.289  10.704
50274W        W22589  10.935  10.676   1.794
50275W        W22590  15.609  39.886   0.912
50276W        W22591  10.918   6.174   0.430
50277W        W22592   7.001   0.090  11.140
50278W        W22593  44.362  38.886   4.654
50279W        W22594  30.051  24.098   2.688
50280W        W22595  37.720  18.852   4.568
50281W        W22596  37.545  31.705  10.580
50282W        W22597  36.500  24.467  14.058
50283W        W22598  33.639  28.026  12.983
50284W        W22599  41.586   4.869   1.440
50285W        W22600   0.195  11.008  10.534
50286W        W22601  42.112  30.170  14.853
50287W        W22602   7.362  16.230  13.482
50288W        W22603  39.358  43.430  11.158
50289W        W22604   9.866  43.825   1.562
50290W        W22605  17.806   2.418  13.356
50291W        W22606  16.304  37.471   2.273
50292W        W22607  44.765   0.849   0.863
50293W        W22608  29.195  28.555   4.129
50294W        W22609  28.424  23.993   1.384
50295W        W22610  16.693  11.614  10.642
50296W        W22611  23.445  42.427  12.120
50297W        W22612  22.732  44.480  12.088
50298W        W22613  28.422  40.326  14.004
50299W        W22614  27.223  17.684   2.227
50300W        W22615   5.751  42.047   0.242
50301W        W22616   9.703  29.842   4.197
50302W        W22617  26.168   3.016  12.659
50303W        W22618  12.427  38.081   2.599
50304W        W22619  40.792  37.924   4.750
50305W        W22620  11.897  42.647   0.651
50306W        W22621   1.942  24.880   2.466
50307W        W22622  23.986  29.470  12.102
50308W        W22623   9.900  32.119  13.446
50309W        W22624  14.147   7.975   4.174
50310W        W22625  36.552   4.614   0.379
50311W        W22626   7.781  13.378   3.167
50312W        W22627  29.278   2.851   4.922
50313W        W22628  34.904   0.844  10.281
50314W        W22629  34.614  18.197  13.872
50315W        W22630  37.174  20.192   1.497
50316W        W22631   7.427  33.425   5.200
50317W        W22632  24.643  35.088   3.022
50318W        W22633  11.945  40.667   0.860
50319W        W22634  22.398  42.340  13.952
50320W        W22635  27.534  26.980  10.379
50321W        W22636   2.347   0.486  12.623
50322W        W22637  43.855  21.088  11.479
50323W        W22638  34.868  16.519  13.835
50324W        W22639  10.120   0.850  10.792
50325W        W22640   4.934   0.155  13.388
50326W        W22641  40.584  17.927  12.354
50327W        W22642   7.847  26.225  11.046
50328W        W22643   4.969  34.168   3.856
50329W        W22644  28.232   5.288   0.818
50330W        W22645  19.158   9.947  10.748
50331W        W22646  39.879  39.997   3.361
50332W        W22647  37.523  31.479   4.617
50333W        W22648   4.045  24.967  14.441
50334W        W22649   3.667   4.375   0.348
50335W        W22650   4.947  15.174  13.857
50336W        W22651  11.316  24.765   0.855
50337W        W22652  37.951  18.200   2.646
50338W        W22653  36.632  36.590  11.942
50339W        W22654  34.465  30.406  13.265
50340W        W22655  31.435  30.012  11.598
50341W        W22656  41.069  20.920   3.194
50342W        W22657  11.285  19.535   3.661
50343W        W22658  17.587  13.046   3.265
50344W        W22659  21.973  32.811  11.220
50345W        W22660   4.145  34.765   0.059
50346W        W22661   2.938  27.585   1.435
50347W        W22662  10.694  19.047   9.560
50348W        W22663  12.759  14.091   1.077
50349W        W22664  12.322  28.498   0.527
50350W        W22665   4.407  20.408   3.159
50351W        W22666  20.472  13.924   1.778
50352W        W22667  30.836   5.932   0.888
50353W        W22668  20.484  27.111  10.709
50354W        W22669  39.150  15.270   4.582
50355W        W22670  10.681  20.868  10.872
50356W        W22671  19.383  43.980  13.811
50357W        W22672  15.984  31.715   4.199
50358W        W22673  25.726  36.536  14.887
50359W        W22674  25.133  25.781   0.383
50360W        W22675   7.320  27.119  10.816
50361W        W22676   5.197  38.687   2.277
50362W        W22677  35.639  20.981  13.055
50363W        W22678  13.697  31.609   3.731
50364W        W22679   6.235  10.372  14.853
50365W        W22680  18.172   0.162  14.941
50366W        W22681  38.975  27.926  13.746
50367W        W22682  19.903  41.014   0.104
50368W        W22683  11.857  35.036  14.522
50369W        W22684  15.161  19.176   4.342
50370W        W22685  17.652  30.525   4.537
50371W        W22686  43.663  32.922   0.403
50372W        W22687  18.846   5.204  12.394
50373W        W22688  24.030  42.380  10.681
50374W        W22689  38.955  19.220   3.300
50375W        W22690   3.544   8.272   1.853
50376W        W22691  32.732  29.493   3.254
50377W        W22692   3.009  12.645   2.168
50378W        W22693   9.000  33.575  13.852
50379W        W22694  36.590  34.530  12.604
50380W        W22695  43.282  36.924  13.489
50381W        W22696  17.883  36.863  14.361
50382W        W22697  14.288   6.638   3.753
50383W        W22698  21.573   1.527   2.478
50384W        W22699  26.476  17.713   3.203
50385W        W22700  27.687   1.192   2.533
50386W        W22701  20.548  43.350  14.918
50387W        W22702  32.670  13.421  14.813
50388W        W22703  18.602  34.243   1.327
50389W        W22704  44.725   2.969  12.343
50390W        W22705  33.154   6.612  13.250
50391W        W22706  41.908  36.373  11.511
50392W        W22707  42.947   7.765  10.897
50393W        W22708  27.518  21.994   4.197
50394W        W22709   4.828  38.982   4.562
50395W        W22710  15.434  29.065   1.750
50396W        W22711  13.532  14.696   3.375
50397W        W22712   5.518  26.095  12.754
50398W        W22713  11.216  33.261   3.442
50399W        W22714  25.331  41.431   4.988
50400W        W22715  34.091   8.776   4.571
50401W        W22716  42.215   5.089   5.041
50402W        W22717  22.717  34.035  11.588
50403W        W22718  26.431  21.318   4.402
50404W        W22719  12.870   2.399  12.932
50405W        W22720  35.699  37.709  11.051
50406W        W22721  23.727   0.247  10.617
50407W        W22722  17.653  19.176   4.807
50408W        W22723  33.004   5.629   3.716
50409W        W22724  11.720  22.470  14.112
50410W        W22725  14.678   4.717   0.371
50411W        W22726  17.054  39.250   3.272
50412W        W22727   2.446  27.461   2.927
50413W        W22728  38.809  22.988  14.522
50414W        W22729  24.763  12.900   1.370
50415W        W22730  11.647   0.518  11.994
50416W        W22731  24.702  21.565   3.758
50417W        W22732   1.999  21.488  12.523
50418W        W22733  44.158   5.450  12.122
50419W        W22734  13.241  26.091  14.746
50420W        W22735  25.045   8.122   1.003
50421W        W22736  44.654  33.395  10.268
50422W        W22737   8.703  26.515   0.983
50423W        W22738   9.402   4.421   4.154
50424W        W22739  18.215  29.332   3.779
50425W        W22740   6.980   4.489   1.384
50426W        W22741  21.418  19.877   3.799
50427W        W22742  43.472   3.316   5.036
50428W        W22743  30.078   7.073  13.152
50429W        W22744  41.763   8.609  10.305
50430W        W22745  13.905  25.255  10.830
50431W        W22746   2.052  11.339   3.333
50432W        W22747  14.663  18.956   4.458
50433W        W22748  23.425  28.367  10.637
50434W        W22749  28.391  29.192   3.465
50435W        W22750  19.284  13.854  10.645
50436W        W22751  33.393  14.214  11.499
50437W        W22752  37.885  19.715  11.933
50438W        W22753  27.865  29.095  13.161
50439W        W22754  17.665   9.605  14.855
50440W        W22755  19.536  25.934  12.981
50441W        W22756  43.412  24.431  13.827
50442W        W22757  18.496  15.121   0.855
50443W        W22758  35.529   0.367   2.273
50444W        W22759  38.280  37.788  11.091
50445W        W22760  20.945  14.930  12.630
50446W        W22761   8.753   0.405   1.932
50447W        W22762   7.350  33.109   0.885
50448W        W22763  42.852   1.467  11.404
50449W        W22764   1.723  26.715  12.954
50450W        W22765  40.398   8.674   4.076
50451W        W22766  30.461  29.333   0.188
50452W        W22767  25.526   0.419   0.672
50453W        W22768  11.084  42.397   2.580
50454W        W22769   7.363  34.071  11.133
50455W        W22770  33.819  13.193   0.520
50456W        W22771   5.512  37.141   3.607
50457W        W22772  41.875  44.733  11.551
50458W        W22773   2.988  43.208  13.025
50459W        W22774  29.978   6.704  14.633
50460W        W22775  39.796  27.631  12.660
50461W        W22776  25.341  32.020   2.888
50462W        W22777  28.203  28.671  11.602
50463W        W22778  23.599   2.066   3.742
50464W        W22779   5.846   0.904   4.033
50465W        W22780  25.782  25.018   5.126
50466W        W22781  20.108  14.612  13.012
50467W        W22782   0.725  10.106  11.824
50468W        W22783  28.520   4.187  11.594
50469W        W22784  43.825  36.162   3.747
50470W        W22785  19.480   0.645  12.132
50471W        W22786   3.374   5.825   2.728
50472W        W22787  21.010  25.600   1.765
50473W        W22788   2.445  25.521  11.064
50474W        W22789   3.359  30.339   0.537
50475W        W22790  43.497  21.190   3.980
50476W        W22791  28.947   0.786  13.234
50477W        W22792  27.454  36.044  11.427
50478W        W22793  29.443  30.429  13.356
50479W        W22794  28.248  34.712  10.091
50480W        W22795  12.458  43.792  11.485
50481W        W22796  40.347  37.117   2.381
50482W        W22797  13.263  30.569  11.989
50483W        W22798   9.052  31.710   0.879
50484W        W22799   3.307  26.822   4.189
50485W        W22800  21.222  30.472   4.411
50486W        W22801   2.283  26.586  11.906
50487W        W22802  40.011  13.444   4.941
50488W        W22803  11.375  44.416   4.563
50489W        W22804  20.051   2.459  14.975
50490W        W22805  36.566  17.748   4.325
50491W        W22806  10.308  20.723  12.366
50492W        W22807  40.038  41.758  12.480
50493W        W22808  15.186   2.358  10.901
50494W        W22809  23.517  11.274  12.496
50495W        W22810  29.984  32.359   3.618
50496W        W22811  15.524  27.517  14.568
50497W        W22812   3.190  43.676  14.854
50498W        W22813  31.541  43.354  12.497
50499W        W22814   4.898  27.627   1.848
50500W        W22815  41.315  28.925  14.900
50501W        W22816   7.238  11.855  12.391
50502W        W22817  27.706   4.684   3.034
50503W        W22818   4.939   5.498   1.080
50504W        W22819   9.676  42.988   1.341
50505W        W22820   2.321  11.568   1.788
50506W        W22821  40.030   1.439   0.217
50507W        W22822   8.296  30.874  12.857
50508W        W22823  17.563   9.204   2.284
50509W        W22824  21.712  44.700  11.687
50510W        W22825  15.020   9.348   3.954
50511W        W22826  22.656   1.363  12.371
50512W        W22827   8.098  28.732  14.317
50513W        W22828  14.349  37.999  14.446
50514W        W22829  40.805  40.023  12.370
50515W        W22830  37.951  15.565  12.922
50516W        W22831  25.069   4.485  12.567
50517W        W22832  34.624  28.332   0.256
50518W        W22833  41.343   5.804  13.949
50519W        W22834  22.693  35.623   0.243
50520W        W22835  10.369  42.743  13.548
50521W        W22836  38.957  37.085   0.752
50522W        W22837  18.606  12.015   2.553
50523W        W22838  36.028  26.990   2.343
50524W        W22839  22.441   7.909  12.877
50525W        W22840  12.340  35.063   9.955
50526W        W22841  32.504  32.863  14.364
50527W        W22842  43.509   4.906  11.592
50528W        W22843  38.904  10.302  12.045
50529W        W22844  10.904  26.246   1.215
50530W        W22845  21.020  22.312  10.966
50531W        W22846   2.276  25.165   0.757
50532W        W22847   5.313   6.405   2.764
50533W        W22848  25.224   9.073  12.522
50534W        W22849   2.226  13.594  12.139
50535W        W22850  17.139  14.118   4.528
50536W        W22851   4.736   5.663   1.537
50537W        W22852   1.845  20.006  10.522
50538W        W22853  25.848  31.556  14.072
50539W        W22854  33.180  34.702  14.228
50540W        W22855  30.141   0.374   3.252
50541W        W22856   2.469   6.194  13.575
50542W        W22857   9.524  35.366   3.629
50543W        W22858  44.282  34.267   1.146
50544W        W22859  36.114   5.355   2.379
50545W        W22860  23.032  26.002   0.689
50546W        W22861  21.368   2.031  11.218
50547W        W22862  13.693  17.058   3.306
50548W        W22863  21.987   2.962  13.985
50549W        W22864  39.788  40.711  11.101
50550W        W22865   9.218   1.980   1.375
50551W        W22866  23.779  38.585   2.459
50552W        W22867  43.411  42.784  11.524
50553W        W22868  14.320  25.532   0.180
50554W        W22869   2.030  16.116  11.361
50555W        W22870  33.052  29.651  12.398
50556W        W22871   7.439   9.752  14.322
50557W        W22872   1.050  25.013   1.376
50558W        W22873  43.458   8.653  11.134
50559W        W22874   2.769  14.061  11.191
50560W        W22875  18.891   8.876  10.001
50561W        W22876   0.015  36.885  13.088
50562W        W22877  43.603  40.821  13.033
50563W        W22878  37.081  44.528  11.794
50564W        W22879  11.153  40.151   4.706
50565W        W22880  26.208  37.541  12.979
50566W        W22881  14.081  35.117   0.957
50567W        W22882   0.815  22.089   3.051
50568W        W22883   0.438   5.284   2.305
50569W        W22884  17.670  13.452   4.431
50570W        W22885  32.932  43.693  12.532
50571W        W22886  18.285  31.194  11.488
50572W        W22887  20.688  24.217   2.883
50573W        W22888  26.076   7.913  14.367
50574W        W22889   7.322  40.486  11.949
50575W        W22890  28.189  13.838   4.111
50576W        W22891  29.225   4.049  14.868
50577W        W22892  37.053  21.727   2.830
50578W        W22893  31.544  20.133   0.582
50579W        W22894  21.054  32.123  11.141
50580W        W22895  44.794  13.095   0.960
50581W        W22896  13.200  42.503   3.676
50582W        W22897   0.907  17.606  11.417
50583W        W22898  35.204  31.547  10.747
50584W        W22899  10.362   1.338  13.027
50585W        W22900  30.057  35.470  12.521
50586W        W22901   1.836  28.567   1.221
50587W        W22902  10.803  41.015   1.856
50588W        W22903  40.849   1.526   2.349
50589W        W22904  10.391  30.625  12.418
50590W        W22905  11.315  42.935   4.834
50591W        W22906   6.677   2.834   0.483
50592W        W22907  27.647  37.284  14.096
50593W        W22908  12.240  24.184  11.458
50594W        W22909   6.460  41.877  12.993
50595W        W22910  24.246  13.244  10.521
50596W        W22911  22.148  19.223   4.100
50597W        W22912  35.863  30.905   4.793
50598W        W22913  33.327  30.592   0.745
50599W        W22914   7.816  44.738   3.545
50600W        W22915  28.244   8.630  11.238
50601W        W22916  25.958  36.092   1.308
50602W        W22917   0.314  19.521  12.190
50603W        W22918   3.460  25.082  10.516
50604W        W22919  12.434  29.349  14.955
50605W        W22920  18.586   7.171   4.094
50606W        W22921  34.060  10.187  13.466
50607W        W22922  16.785  22.245   0.366
50608W        W22923  21.627   5.368  13.895
50609W        W22924   0.926  38.695  12.532
50610W        W22925  19.906  20.635   3.327
50611W        W22926  17.285  27.129   1.778
50612W        W22927  12.267   0.823   1.360
50613W        W22928  18.517   9.664  11.427
50614W        W22929  14.670   3.995  14.856
50615W        W22930  18.839  32.887  11.147
50616W        W22931  19.469  33.730  10.516
50617W        W22932   5.514  23.456  11.760
50618W        W22933  44.815   6.305   1.334
50619W        W22934  27.139  12.600   0.834
50620W        W22935   8.889  14.651  14.269
50621W        W22936  38.287  30.958   2.586
50622W        W22937  25.532  36.466  10.732
50623W        W22938   2.677  20.574  11.214
50624W        W22939   7.934  25.183   1.388
50625W        W22940  35.552  40.825  14.112
50626W        W22941   2.991   8.166   2.637
50627W        W22942  44.026  20.656  12.166
50628W        W22943  16.599  10.933  11.031
50629W        W22944  23.671   3.578  12.167
50630W        W22945  17.466  36.885  12.064
50631W        W22946  20.650  38.350   3.822
50632W        W22947  12.459   6.456  12.958
50633W        W22948  44.206  36.299   4.834
50634W        W22949  27.524  24.985   5.051
50635W        W22950  40.976  36.796   0.447
50636W        W22951  26.481  14.061   3.769
50637W        W22952   3.562   1.916  10.712
50638W        W22953  13.583  12.416  13.555
50639W        W22954  38.253  10.636   1.663
50640W        W22955  35.300  37.448  11.567
50641W        W22956  28.531  43.922   0.525
50642W        W22957  43.075  44.997   3.980
50643W        W22958  19.059  31.515  11.932
50644W        W22959  34.383  20.200  10.686
50645W        W22960  27.892  21.561   1.037
50646W        W22961  35.071  32.060  13.575
50647W        W22962  36.733  28.101  11.101
50648W        W22963  17.680   7.629   3.300
50649W        W22964  39.722   2.262   2.211
50650W        W22965  31.710  42.959   3.607
50651W        W22966  31.629   0.680  12.434
50652W        W22967   4.155  15.893   0.965
50653W        W22968   7.601   1.031   2.817
50654W        W22969  28.710  34.826   2.028
50655W        W22970  15.370   1.762   2.912
50656W        W22971   0.795  33.428   0.692
50657W        W22972  10.845  30.240  13.164
50658W        W22973  39.311  22.479   1.892
50659W        W22974  14.815   5.349  13.890
50660W        W22975  31.645  21.685  14.883
50661W        W22976  29.584  14.413   2.218
50662W        W22977   9.672  35.001   4.959
50663W        W22978  15.110  42.944  13.766
50664W        W22979  23.337   4.188  14.540
50665W        W22980   1.313  14.786  14.924
50666W        W22981  34.104   8.179   3.992
50667W        W22982  15.088  10.374   2.736
50668W        W22983  17.558  39.664  11.243
50669W        W22984  11.169  26.103  11.686
50670W        W22985  12.982  11.746   2.185
50671W        W22986   6.895   4.244  12.038
50672W        W22987  20.534  43.761  13.798
50673W        W22988  38.984  24.903   4.707
50674W        W22989  12.411  23.924   3.273
50675W        W22990  17.916  44.744  14.010
50676W        W22991  30.147   5.718   2.439
50677W        W22992  24.432   8.335   1.642
50678W        W22993  41.370  43.963  12.192
50679W        W22994  43.697  17.258   4.678
50680W        W22995  18.074  16.862   2.541
50681W        W22996   8.399  36.054   0.145
50682W        W22997   2.846  19.186   4.674
50683W        W22998  22.480  14.181  14.532
50684W        W22999  20.234  22.177  11.922
50685W        W23000  33.613  32.178  10.890
50686W        W23001  30.505  41.003  12.694
50687W        W23002  18.113  28.636   9.675
50688W        W23003  22.498  38.003  14.554
50689W        W23004  23.155  33.880  13.957
50690W        W23005  39.725   0.123  11.470
50691W        W23006  19.791  14.256   1.256
50692W        W23007  36.285   3.271   3.750
50693W        W23008   5.007   4.385   3.087
50694W        W23009  39.357  39.429  13.367
50695W        W23010  13.340  14.849  13.338
50696W        W23011   3.734   3.641  12.034
50697W        W23012   9.386  40.415  12.506
50698W        W23013   4.231   5.386   3.539
50699W        W23014   2.833   1.473   3.188
50700W        W23015  31.919  20.711  10.430
50701W        W23016  24.450   2.943   4.144
50702W        W23017   6.907  35.166  12.982
50703W        W23018  35.744  29.903   4.086
50704W        W23019  22.596   6.358  12.053
50705W        W23020  39.344  32.504  14.393
50706W        W23021  13.257  37.800   4.342
50707W        W23022  11.196  29.447   0.587
50708W        W23023  44.499   8.692  13.278
50709W        W23024  23.087  18.518  12.794
50710W        W23025   6.878  11.593   3.283
50711W        W23026  44.441  41.358  11.143
50712W        W23027  11.808  21.335  10.356
50713W        W23028  40.926  18.710   3.374
50714W        W23029  21.929   4.431   0.981
50715W        W23030  14.315  38.387  13.464
50716W        W23031   9.586  29.675  11.565
50717W        W23032  26.227   7.645  13.400
50718W        W23033  33.178   9.131   1.260
50719W        W23034  31.087  30.534   1.859
50720W        W23035   0.910  30.311  12.948
50721W        W23036  43.161  21.550  10.608
50722W        W23037  42.515  25.630  10.595
50723W        W23038   4.244   5.404   4.541
50724W        W23039   4.241  12.656   0.754
50725W        W23040   9.648  35.915  12.026
50726W        W23041  15.099  39.963  13.059
50727W        W23042  31.015  16.620   0.366
50728W        W23043  11.492   4.105  11.225
50729W        W23044  18.236  29.939  13.812
50730W        W23045  30.670  11.223  12.336
50731W        W23046  29.092   7.040  14.925
50732W        W23047   6.793  23.151  14.503
50733W        W23048  26.816   0.843  14.012
50734W        W23049   9.386  34.118   2.237
50735W        W23050  23.496  42.828   4.337
50736W        W23051  33.394   5.889  10.649
50737W        W23052  40.644   3.001   1.347
50738W        W23053  40.574  20.097   0.945
50739W        W23054  39.440  40.274  11.083
50740W        W23055  18.569  39.881   1.229
50741W        W23056  33.441  39.260  10.548
50742W        W23057  31.600  36.395  11.665
50743W        W23058  34.578   1.183  11.177
50744W        W23059  27.267  31.944  10.210
50745W        W23060  19.120  42.514   1.730
50746W        W23061  13.157  22.747  10.690
50747W        W23062   4.417  10.279  12.827
50748W        W23063  40.370  33.630   5.055
50749W        W23064  29.245  18.694  12.530
50750W        W23065  40.268   9.447   0.134
50751W        W23066  35.110  19.925  13.787
50752W        W23067  16.176  40.810  10.713
50753W        W23068  19.926  44.889   3.451
50754W        W23069  14.094   4.202  12.954
50755W        W23070   6.680  16.677  12.570
50756W        W23071   7.943  36.456  14.383
50757W        W23072  29.521  15.889   3.359
50758W        W23073  44.490   7.637  14.797
50759W        W23074  34.377   5.274  12.099
50760W        W23075  20.814  18.650  10.878
50761W        W23076  12.629  32.697  13.264
50762W        W23077  42.128   8.039   4.856
50763W        W23078  17.554  11.697   5.165
50764W        W23079  23.477  31.223   0.359
50765W        W23080  22.758   6.625  11.585
50766W        W23081  26.555  42.008  13.193
50767W        W23082   9.563  21.660   2.696
50768W        W23083   4.805  13.112   4.639
50769W        W23084  33.265   2.089  12.097
50770W        W23085  32.846  12.334   1.765
50771W        W23086  38.840  44.252   1.587
50772W        W23087   1.864  35.467   4.627
50773W        W23088  39.139  23.783   3.427
50774W        W23089  36.081   2.757   2.188
50775W        W23090   4.813  24.612  13.065
50776W        W23091   3.283   3.264  14.576
50777W        W23092  21.922  44.718   2.279
50778W        W23093   7.421  44.872  10.449
50779W        W23094  27.430   6.797  11.611
50780W        W23095  26.056   0.186  12.992
50781W        W23096   1.241   2.008   4.430
50782W        W23097   5.729  43.191   3.622
50783W        W23098  33.140  40.934   0.348
50784W        W23099  41.787  13.060   0.420
50785W        W23100  27.205  19.228   2.009
50786W        W23101  39.380  14.318   0.790
50787W        W23102   9.233   7.380   1.313
50788W        W23103  23.708  30.539   3.635
50789W        W23104   0.804   3.965   1.303
50790W        W23105   1.023  18.242  13.013
50791W        W23106  29.033   3.916  11.584
50792W        W23107   0.517  40.427  10.253
50793W        W23108  23.936   2.581   4.160
50794W        W23109   1.786   0.101  11.088
50795W        W23110  11.365  23.826   0.833
50796W        W23111  10.510  14.605  12.996
50797W        W23112  27.730  10.762  14.550
50798W        W23113  18.566  44.475   0.237
50799W        W23114  15.819  30.521  12.102
50800W        W23115  26.321  26.253  14.071
50801W        W23116   9.647  17.228   3.307
50802W        W23117  31.682   3.120   3.142
50803W        W23118  12.712  33.838  12.502
50804W        W23119  19.367  39.435  11.530
50805W        W23120   7.280  41.457  14.036
50806W        W23121  32.653  21.143   3.715
50807W        W23122  26.820  34.639   1.593
50808W        W23123  26.594   8.619  13.842
50809W        W23124  27.819  21.777   3.817
50810W        W23125  15.111  38.629  10.600
50811W        W23126  32.871   1.510  13.705
50812W        W23127  11.325  39.252  12.839
50813W        W23128   7.773  14.828  13.027
50814W        W23129   9.939   9.451  14.347
50815W        W23130  35.745  32.020   1.335
50816W        W23131  10.220  32.939  11.016
50817W        W23132  27.460  34.633   2.184
50818W        W23133  12.879   7.283   3.353
50819W        W23134  37.775  17.893  13.472
50820W        W23135  10.218  18.727  11.587
50821W        W23136  21.299  33.589   3.428
50822W        W23137   2.052   6.207   2.234
50823W        W23138  43.864  19.113  14.058
50824W        W23139   1.517  35.375   3.791
50825W        W23140  15.708  29.394   4.662
50826W        W23141  32.461  13.079   0.386
50827W        W23142  24.193  18.273  12.832
50828W        W23143  27.208  41.806  13.641
50829W        W23144   5.595  18.448  13.827
50830W        W23145  19.483  39.082   4.062
50831W        W23146  33.654   7.842  10.274
50832W        W23147  18.155   8.958   2.199
50833W        W23148   6.052   0.775   1.121
50834W        W23149  18.803  29.327  11.563
50835W        W23150   6.104  43.578   3.644
50836W        W23151  41.113  37.281  11.181
50837W        W23152  44.301   1.989   1.246
50838W        W23153  25.252   6.548  13.422
50839W        W23154  30.961  27.692  13.268
50840W        W23155  24.336  21.171  12.453
50841W        W23156  39.545  34.110   0.027
50842W        W23157   8.212   5.243  12.407
50843W        W23158   3.300   0.014  14.076
50844W        W23159  42.790  20.165   2.201
50845W        W23160  42.215  35.416   4.879
50846W        W23161  19.201   7.858   2.249
50847W        W23162  28.996  32.981  12.113
50848W        W23163  25.477  18.645   2.309
50849W        W23164  29.919  19.876   2.230
50850W        W23165   2.098  11.300   3.858
50851W        W23166   5.797  23.578  10.849
50852W        W23167  25.970  32.508  10.076
50853W        W23168  42.134  33.694   2.258
50854W        W23169  36.717  42.795  11.216
50855W        W23170  30.545  18.358   0.952
50856W        W23171  23.536  22.615  14.094
50857W        W23172  17.354   8.321  13.726
50858W        W23173  35.041  12.303  12.568
50859W        W23174  22.534  34.847  11.132
50860W        W23175  10.221  25.616  13.329
50861W        W23176  42.917   0.390  14.936
50862W        W23177  35.830   3.199  12.394
50863W        W23178  13.389  38.767  13.502
50864W        W23179   4.049  13.299   3.972
50865W        W23180  36.413   7.159   3.716
50866W        W23181  34.127  12.743   4.010
50867W        W23182  13.965  40.532   0.673
50868W        W23183  37.523  29.377  11.216
50869W        W23184  38.679  22.727   4.976
50870W        W23185  21.586   8.386   3.490
50871W        W23186  21.580  19.261  12.938
50872W        W23187  44.464   9.686   1.755
50873W        W23188  17.547  32.461  11.129
50874W        W23189  11.461  32.595   4.142
50875W        W23190   6.622  36.351  11.975
50876W        W23191  39.894  43.829   3.371
50877W        W23192  17.013  32.871  13.290
50878W        W23193   6.482  26.203   3.249
50879W        W23194  29.346  24.318   3.787
50880W        W23195  41.542  23.960   1.503
50881W        W23196  22.267  29.766   4.251
50882W        W23197  44.946  27.517  11.054
50883W        W23198  29.816  36.819  11.083
50884W        W23199  36.330  41.064  13.508
50885W        W23200  12.799  29.958  14.025
50886W        W23201   3.223   3.921  13.138
50887W        W23202  25.552  37.637  13.464
50888W        W23203  13.546  34.019   3.159
50889W        W23204  43.248   4.981   2.816
50890W        W23205  40.896   3.466   2.617
50891W        W23206  28.697  35.138   4.445
50892W        W23207  35.938  30.823   1.731
50893W        W23208  16.726  40.539   3.092
50894W        W23209  42.919  40.841  12.090
50895W        W23210  16.517  31.380  12.297
50896W        W23211  35.546  11.156   0.548
50897W        W23212   2.906  24.717  11.117
50898W        W23213  16.001  38.452   1.882
50899W        W23214  32.090   2.543  11.484
50900W        W23215  25.674  29.598  10.375
50901W        W23216   2.234  15.571  10.731
50902W        W23217  23.337   9.716  10.542
50903W        W23218  35.959  14.128  12.365
50904W        W23219  15.019  25.237  13.901
50905W        W23220   5.394  17.425  13.956
50906W        W23221   7.374  26.577   0.494
50907W        W23222  44.231   3.570  11.088
50908W        W23223  31.041   7.973  11.045
50909W        W23224   6.453  43.343  13.397
50910W        W23225  38.468  22.838   4.527
50911W        W23226  17.269  41.784  14.033
50912W        W23227  12.081  29.278  12.650
50913W        W23228   6.212  11.374  12.907
50914W        W23229  40.627  12.526  12.733
50915W        W23230  13.551  22.487  12.863
50916W        W23231   6.796  30.074  14.263
50917W        W23232  11.316  28.936   2.912
50918W        W23233  28.991   1.351   3.044
50919W        W23234  24.026  44.871   1.231
50920W        W23235  33.218  40.509   2.864
50921W        W23236  11.866  29.903  12.666
50922W        W23237  11.350   3.964   1.811
50923W        W23238  39.621  32.900   1.768
50924W        W23239  31.041  10.314   1.855
50925W        W23240  44.334   1.855   4.120
50926W        W23241   4.666  29.770  13.423
50927W        W23242  36.898   7.190   4.058
50928W        W23243  17.162  19.972   2.097
50929W        W23244   5.471  25.086  12.495
50930W        W23245  38.255  20.168  14.399
50931W        W23246  23.351  31.935   5.284
50932W        W23247  21.039  27.488   5.057
50933W        W23248  30.869  34.871   3.348
50934W        W23249  38.819  28.883   3.242
50935W        W23250  26.083  19.794   0.861
50936W        W23251  30.633  42.429  14.798
50937W        W23252  37.895  36.073  10.695
50938W        W23253  33.955   0.639  14.989
50939W        W23254  28.480  19.123   4.512
50940W        W23255  41.871   6.346  10.426
50941W        W23256  38.165  29.905   0.789
50942W        W23257   9.803   8.190  11.016
50943W        W23258   0.980   2.760  14.039
50944W        W23259   2.333  27.111  12.629
50945W        W23260   5.280  35.141  13.780
50946W        W23261  15.166  41.871   2.785
50947W        W23262  11.155  26.522  10.352
50948W        W23263   2.947   8.610  14.404
50949W        W23264  28.469   6.607  14.847
50950W        W23265   1.346  35.758   9.908
50951W        W23266  21.662  22.042  11.409
50952W        W23267  44.285   8.240  13.070
50953W        W23268   4.749  43.045   3.651
50954W        W23269  21.761  13.284  12.448
50955W        W23270  38.065  19.802   1.874
50956W        W23271  10.764   9.473   1.450
50957W        W23272   7.683  15.692   1.397
50958W        W23273   6.966  10.375   4.248
50959W        W23274  20.448  21.160   2.475
50960W        W23275   1.233  33.965  12.624
50961W        W23276  36.153  26.027   1.474
50962W        W23277   6.410  14.121   0.945
50963W        W23278  28.497  12.616   5.016
50964W        W23279   0.699  44.983  14.299
50965W        W23280  36.884  11.833   4.637
50966W        W23281  30.522  27.152   2.681
50967W        W23282  20.084  41.301  11.139
50968W        W23283  29.519  42.789   4.991
50969W        W23284  29.206  33.370   2.847
50970W        W23285  11.888  26.579  12.434
50971W        W23286  10.635  18.496   3.415
50972W        W23287   7.970  27.559   2.138
50973W        W23288  26.499  35.413   3.863
50974W        W23289  25.481  44.070   1.279
50975W        W23290  39.205  12.377  11.210
50976W        W23291   1.431  12.561   1.410
50977W        W23292   5.402  39.414   0.645
50978W        W23293  22.919  43.839  13.835
50979W        W23294  43.954  14.869  10.526
50980W        W23295  25.881  32.595   1.141
50981W        W23296  22.789  43.881  14.719
50982W        W23297  43.740  21.417   0.007
50983W        W23298   2.679  40.988   0.377
50984W        W23299  24.439  38.383   1.721
50985W        W23300  34.915  33.377   0.726
50986W        W23301  13.791   4.562   2.915
50987W        W23302  19.316  17.297  13.466
50988W        W23303  23.138   1.778  12.993
50989W        W23304  16.349   9.911  14.308
50990W        W23305   8.201  26.184   0.222
50991W        W23306   9.935  12.445  11.582
50992W        W23307   2.892   6.251   0.428
50993W        W23308  16.280  12.360   0.025
50994W        W23309  11.601  11.383   1.245
50995W        W23310  33.074  14.471   3.109
50996W        W23311  10.788  32.520  13.079
50997W        W23312   7.653  33.667   3.155
50998W        W23313  44.343  11.362   2.171
50999W        W23314  13.119  43.396  11.966
51000W        W23315   2.891  32.153  10.447
51001W        W23316  26.652  31.216  13.150
51002W        W23317  27.911   1.433   3.492
51003W        W23318  41.144   5.301  11.792
51004W        W23319  21.032  43.586   3.664
51005W        W23320  17.498  41.067  13.397
51006W        W23321   1.343  33.537  12.363
51007W        W23322  15.098  16.200   4.025
51008W        W23323  33.331   5.234   3.840
51009W        W23324  13.819  21.524   2.403
51010W        W23325  16.435   6.536  12.996
51011W        W23326  22.401  39.745  12.385
51012W        W23327   6.621  27.583   3.998
51013W        W23328   6.983  40.854  13.435
51014W        W23329  18.428  13.565   0.392
51015W        W23330  19.023  40.886  10.581
51016W        W23331  10.252  17.259   1.124
51017W        W23332   9.537  12.044   2.239
51018W        W23333   5.965  32.512   0.869
51019W        W23334  11.646   2.292  14.812
51020W        W23335  21.123  16.287  11.160
51021W        W23336  35.225  37.410   3.141
51022W        W23337  41.577  39.742   4.422
51023W        W23338  26.317  37.948   1.702
51024W        W23339  42.897  20.463   1.004
51025W        W23340  20.254  26.915   3.722
51026W        W23341  40.863  21.787  11.237
51027W        W23342   0.938  33.039  10.160
51028W        W23343  24.369   1.482  13.980
51029W        W23344  29.154   5.412  14.241
51030W        W23345  22.097   0.413   3.598
51031W        W23346   9.770  12.362   0.949
51032W        W23347  24.603   7.883  12.039
51033W        W23348  11.445  32.966   2.308
51034W        W23349  16.751  43.387   2.256
51035W        W23350  40.994   6.727   4.524
51036W        W23351  43.747  17.350   3.099
51037W        W23352   7.625   4.793  13.011
51038W        W23353   9.647   3.719  14.960
51039W        W23354  24.493  36.560  11.765
51040W        W23355   9.363  42.091   2.118
51041W        W23356  16.765  37.215  11.588
51042W        W23357   5.745  40.008  14.371
51043W        W23358  42.930  30.236  11.568
51044W        W23359  34.636  12.232   4.539
51045W        W23360   4.313  43.459  12.448
51046W        W23361  33.532  32.139  12.899
51047W        W23362  17.494  31.020   3.329
51048W        W23363  25.053   9.394   2.195
51049W        W23364   4.294  28.572  14.323
51050W        W23365  39.563  25.120   1.233
51051W        W23366  40.474  42.205   2.353
51052W        W23367  27.907  39.295   3.651
51053W        W23368   5.970  19.795   3.797
51054W        W23369  35.546  20.144  13.622
51055W        W23370   4.587  23.450   3.382
51056W        W23371  34.369  36.072  12.020
51057W        W23372  44.128  11.684  11.945
51058W        W23373   0.736  28.668  10.056
51059W        W23374  22.402  40.560   4.640
51060W        W23375  38.782  32.355  10.419
51061W        W23376  29.419  40.336  12.093
51062W        W23377   8.616   8.331  11.716
51063W        W23378  30.374  16.001   0.764
51064W        W23379  21.158  16.288  14.546
51065W        W23380  24.986  14.669   4.829
51066W        W23381  17.675  43.009  10.701
51067W        W23382  12.929  41.843  13.239
51068W        W23383   7.670  32.644  12.904
51069W        W23384  39.370  32.457   1.877
51070W        W23385  10.301  16.226   0.791
51071W        W23386  20.799  33.074  12.740
51072W        W23387  18.871  41.611   3.623
51073W        W23388  13.130  41.621   4.076
51074W        W23389  37.909   8.717   4.561
51075W        W23390   9.946  11.781  12.914
51076W        W23391   4.384   0.529   4.541
51077W        W23392  14.824  26.809   3.743
51078W        W23393  22.430   6.374  13.443
51079W        W23394  34.910   8.476   1.045
51080W        W23395  21.342  17.594  13.818
51081W        W23396  37.403  10.682   4.615
51082W        W23397  33.153  22.162   2.869
51083W        W23398  24.570  35.387   2.591
51084W        W23399  44.038  27.931  11.579
51085W        W23400  29.454  30.067  13.982
51086W        W23401  18.322  20.690   4.409
51087W        W23402  28.649   8.839  11.504
51088W        W23403   1.808  36.169   4.066
51089W        W23404  20.020  12.288   3.670
51090W        W23405   7.900  16.255   2.296
51091W        W23406  15.409   0.885   2.828
51092W        W23407   4.497  22.539  13.973
51093W        W23408  40.517   0.396  13.694
51094W        W23409  17.273  37.366  11.638
51095W        W23410  24.696   6.142   2.278
51096W        W23411  20.160  19.099  12.809
51097W        W23412  34.421   7.229   1.701
51098W        W23413  42.807  28.126   2.188
51099W        W23414  21.019  25.147  12.653
51100W        W23415  13.741  19.568   2.827
51101W        W23416  32.724  24.560   4.682
51102W        W23417   6.469  10.287   2.330
51103W        W23418  20.029  39.841   5.005
51104W        W23419  41.315  40.235  12.471
51105W        W23420  35.617  24.200  14.848
51106W        W23421   2.099   1.803   4.074
51107W        W23422  21.095   8.665  10.642
51108W        W23423  20.924   2.930   3.743
51109W        W23424  20.558  37.402   4.607
51110W        W23425  41.461  23.135   3.274
51111W        W23426  18.073   4.627  11.543
51112W        W23427   6.844  31.764  10.740
51113W        W23428  41.233   4.746   1.983
51114W        W23429  24.211  20.476   2.378
51115W        W23430  20.750  34.289  14.970
51116W        W23431   6.989  31.111  14.912
51117W        W23432  20.184   1.422  12.330
51118W        W23433  37.381   6.909  10.705
51119W        W23434   8.983  21.147   1.600
51120W        W23435  19.830  42.488  10.567
51121W        W23436  36.839  33.189  10.796
51122W        W23437  12.578  24.490   3.704
51123W        W23438  27.106  12.246   3.698
51124W        W23439  18.614  21.052  11.256
51125W        W23440   1.393  11.309   4.988
51126W        W23441  39.223  10.826   1.949
51127W        W23442  41.309  39.551   0.756
51128W        W23443   6.963   6.610   1.346
51129W        W23444  33.451   6.351  10.148
51130W        W23445  31.516  29.249   1.913
51131W        W23446   2.861  24.175  10.941
51132W        W23447  10.373  32.642  12.508
51133W        W23448   5.257  32.835  13.931
51134W        W23449  41.254  42.951   1.282
51135W        W23450  24.530   1.500   3.842
51136W        W23451   8.714  35.484   1.718
51137W        W23452  21.008  21.811   4.636
51138W        W23453  29.324  25.207   3.842
51139W        W23454  22.795   4.966   0.245
51140W        W23455  42.043  40.327  12.033
51141W        W23456  13.342  30.891   0.269
51142W        W23457  11.546  41.082   3.127
51143W        W23458  13.071   1.025   0.185
51144W        W23459   5.276  18.764   1.759
51145W        W23460  32.131  15.816  11.612
51146W        W23461  24.182   2.025   0.751
51147W        W23462   4.920   6.419   5.175
51148W        W23463  34.458  35.780  13.395
51149W        W23464  35.415  33.842  14.489
51150W        W23465  19.486  17.155   4.996
51151W        W23466  18.670  21.607   0.310
51152W        W23467  34.919  29.561  10.222
51153W        W23468  26.750   8.134  12.684
51154W        W23469  44.670  12.003  13.381
51155W        W23470  13.141  17.845   0.456
51156W        W23471  27.566  16.551  14.143
51157W        W23472  42.490   5.686  12.941
51158W        W23473  32.058   5.126   3.779
51159W        W23474  29.170  32.698  10.198
51160W        W23475  36.291  32.366   4.080
51161W        W23476  21.989  26.439  13.972
51162W        W23477  16.618   4.909   4.904
51163W        W23478  17.524  31.575  11.150
51164W        W23479  17.030  31.755  10.974
51165W        W23480  18.554  38.289  12.784
51166W        W23481  32.976  27.123   0.309
51167W        W23482  32.852  15.216  14.188
51168W        W23483  41.334   6.952   3.949
51169W        W23484  24.456  18.968   0.379
51170W        W23485  34.820  24.674  14.859
51171W        W23486  22.314  25.968   3.361
51172W        W23487  10.632   9.950  11.624
51173W        W23488  13.657   0.488   1.817
51174W        W23489  19.781  43.518  11.613
51175W        W23490  27.161   8.374  12.479
51176W        W23491   3.932  29.164   1.193
51177W        W23492  17.815  18.612   1.399
51178W        W23493  18.144  24.439  11.732
51179W        W23494  23.833  38.536  13.438
51180W        W23495   0.851  21.176   3.552
51181W        W23496  40.708   0.410   1.375
51182W        W23497  33.922  21.532  10.611
51183W        W23498  28.075  44.184   2.083
51184W        W23499  44.344   0.964   4.621
51185W        W23500  34.514   2.255  13.332
51186W        W23501   7.352  28.422  10.684
51187W        W23502  20.133  26.576   2.798
51188W        W23503  17.168  23.514   0.355
51189W        W23504  21.495  15.116  10.661
51190W        W23505  14.392  27.341   3.874
51191W        W23506  39.533   1.923  14.876
51192W        W23507  40.367   7.196   5.406
51193W        W23508  31.712  25.719   5.100
51194W        W23509  10.841   0.454  12.555
51195W        W23510  41.862  32.055  13.248
51196W        W23511  24.630  33.234   2.380
51197W        W23512   8.003  30.435   0.556
51198W        W23513  28.178  29.548   4.425
51199W        W23514   4.648  33.000  12.347
51200W        W23515  33.742  39.376   4.142
51201W        W23516  24.387  37.918   2.891
51202W        W23517  16.511  33.001  11.625
51203W        W23518  28.711  33.304   0.385
51204W        W23519   8.997  28.471  10.580
51205W        W23520   8.771  43.784  10.914
51206W        W23521   0.933  26.955   1.733
51207W        W23522  25.493   3.597   3.739
51208W        W23523  10.322  37.409   3.613
51209W        W23524   8.780  30.719   3.263
51210W        W23525  36.708  12.899  13.036
51211W        W23526  32.944   5.185  13.325
51212W        W23527  22.579  27.439   4.495
51213W        W23528  17.300  38.027   4.648
51214W        W23529   3.940  16.101   3.612
51215W        W23530   3.715   3.958  11.601
51216W        W23531  38.716  39.457   4.671
51217W        W23532   0.937  30.648   1.653
51218W        W23533  25.278  12.349   2.015
51219W        W23534  41.251   3.349  11.227
51220W        W23535  20.352   7.954   0.353
51221W        W23536  37.998  17.423  12.546
51222W        W23537  24.393  22.093   2.192
51223W        W23538  39.480   8.356   0.402
51224W        W23539   5.832  34.438   4.753
51225W        W23540  14.636  24.533   1.546
51226W        W23541  21.811  35.613  10.991
51227W        W23542  11.596  11.155  10.713
51228W        W23543   1.717   9.992   2.708
51229W        W23544   7.704   3.073  12.601
51230W        W23545   3.342  15.088  13.848
51231W        W23546  44.390  25.770   3.933
51232W        W23547  38.601  43.557  14.875
51233W        W23548  29.373  33.792  14.993
51234W        W23549  41.421  38.213  14.984
51235W        W23550  26.638  36.531   0.250
51236W        W23551   9.367  17.182  14.541
51237W        W23552  23.221  19.986  12.442
51238W        W23553   2.453  11.997   0.853
51239W        W23554  43.472  17.946  10.673
51240W        W23555  12.844  19.296   4.172
51241W        W23556  42.304  33.077   2.370
51242W        W23557  14.162  14.140  13.705
51243W        W23558  34.883  13.556   1.854
51244W        W23559  12.282  28.043   3.672
51245W        W23560  14.013  10.170  14.533
51246W        W23561   0.228  13.019   5.052
51247W        W23562  43.089  13.609   1.417
51248W        W23563  15.174   1.939   0.673
51249W        W23564   6.945  34.103   2.242
51250W        W23565   5.914  28.954   4.752
51251W        W23566  22.732  44.051   1.273
51252W        W23567  10.214  29.522  12.116
51253W        W23568  34.447   0.503   1.267
51254W        W23569  31.554  15.175  10.896
51255W        W23570  19.537   8.624   3.426
51256W        W23571  30.639  41.047  11.641
51257W        W23572  42.893  22.184   1.649
51258W        W23573  23.605  30.110   3.320
51259W        W23574  20.149  31.308   1.336
51260W        W23575   3.399  31.833   3.778
51261W        W23576   7.159  32.442   2.220
51262W        W23577  31.411  39.235  13.057
51263W        W23578  40.907   6.962   2.346
51264W        W23579  43.703  42.496  12.473
51265W        W23580   8.759  36.916  14.067
51266W        W23581  26.146  15.670  13.842
51267W        W23582  36.327   0.984  13.835
51268W        W23583  39.991  16.111  10.695
51269W        W23584  32.458  15.983   0.214
51270W        W23585  35.395  15.932   4.701
51271W        W23586  32.949  34.220   3.377
51272W        W23587   2.557  33.814   4.170
51273W        W23588  34.393   3.407   3.622
51274W        W23589  12.694  19.116  13.925
51275W        W23590  12.197   1.951  11.862
51276W        W23591  18.841  15.571   2.898
51277W        W23592  27.426  41.853  14.184
51278W        W23593  42.368  42.002  12.023
51279W        W23594   8.735  20.949  14.878
51280W        W23595   3.165   4.587  12.010
51281W        W23596  19.106  44.474  12.662
51282W        W23597  29.233  14.518   1.305
51283W        W23598  41.799   2.484  12.268
51284W        W23599  16.343  39.548  10.355
51285W        W23600   2.480  30.163  12.491
51286W        W23601  15.716  32.633   4.320
51287W        W23602  23.959  28.154   0.542
51288W        W23603  42.970  19.695  14.202
51289W        W23604  30.957   2.294  12.034
51290W        W23605  19.298  32.572  14.347
51291W        W23606  18.541  27.106   2.297
51292W        W23607  44.896  16.769  11.833
51293W        W23608  27.560  18.737  14.842
51294W        W23609  15.730  26.699  13.956
51295W        W23610   6.428  18.612   1.879
51296W        W23611   9.289   9.368   1.716
51297W        W23612  13.434   5.917   2.670
51298W        W23613  25.294  20.732  12.624
51299W        W23614   2.904  28.714  13.867
51300W        W23615  40.293  22.550   2.885
51301W        W23616  31.897   9.253   1.245
51302W        W23617  27.409  37.916   0.159
51303W        W23618   6.865  27.980   4.872
51304W        W23619   7.369  25.658   1.439
51305W        W23620  34.272  15.571  13.859
51306W        W23621  28.154  40.363   1.986
51307W        W23622  17.479   7.461   2.829
51308W        W23623   5.228  19.787   3.207
51309W        W23624  39.589  25.060  11.515
51310W        W23625  21.059   7.119   4.494
51311W        W23626  29.202  13.133  14.126
51312W        W23627   0.786   3.202   3.887
51313W        W23628  18.059   3.317  14.938
51314W        W23629  40.172   3.399  11.107
51315W        W23630  33.367  21.059   0.070
51316W        W23631   8.296   3.262  13.793
51317W        W23632  18.283  39.973  13.802
51318W        W23633  24.089  12.597   3.136
51319W        W23634  12.296  14.475  12.727
51320W        W23635  16.652   2.022   4.242
51321W        W23636   8.981  40.869   4.148
51322W        W23637  29.542  19.242  10.781
51323W        W23638  20.169  26.606   0.826
51324W        W23639  31.625  35.650   4.047
51325W        W23640  28.567  16.359   0.340
51326W        W23641   9.896   8.262  14.770
51327W        W23642  40.740  39.549   4.195
51328W        W23643  20.223   9.000  14.557
51329W        W23644  20.426  23.918  14.239
51330W        W23645   5.332   7.686   3.347
51331W        W23646   2.938  33.376  11.533
51332W        W23647  14.568   8.156   4.421
51333W        W23648  30.571   5.264   4.112
51334W        W23649  26.594   2.534  11.908
51335W        W23650  15.401  19.629   2.281
51336W        W23651   0.924  23.124  11.982
51337W        W23652  24.212   5.448   2.219
51338W        W23653   7.361   7.843   0.453
51339W        W23654  37.892  25.192  11.143
51340W        W23655  41.844  12.107  10.587
51341W        W23656   5.952   0.728  13.907
51342W        W23657   8.293  29.510  13.923
51343W        W23658  31.553   5.685  13.178
51344W        W23659  15.338   8.880   0.773
51345W        W23660  15.078  19.514  12.683
51346W        W23661   1.095  37.348   3.781
51347W        W23662  33.674  30.417  10.063
51348W        W23663  17.054  41.454   1.872
51349W        W23664  33.177  42.782   4.605
51350W        W23665  41.431  19.956   3.243
51351W        W23666  37.530  12.599   4.038
51352W        W23667  20.262  43.035  12.797
51353W        W23668  22.817  10.656   2.325
51354W        W23669   5.475  38.818   4.081
51355W        W23670  17.095  23.915   4.226
51356W        W23671   9.885  35.540   1.331
51357W        W23672   9.560  14.192  11.681
51358W        W23673  12.580  31.962  14.851
51359W        W23674  17.018  37.819  11.627
51360W        W23675  14.335   9.545  11.031
51361W        W23676  33.110  16.982  10.337
51362W        W23677  31.402  14.867   3.057
51363W        W23678  23.220  23.646  10.527
51364W        W23679  20.799  10.307   1.229
51365W        W23680   1.343  34.526   4.554
51366W        W23681  39.566  31.349  12.403
51367W        W23682  25.968  27.539   4.581
51368W        W23683  19.262  41.253   3.652
51369W        W23684  10.285  42.034   2.313
51370W        W23685  20.190  36.550   1.410
51371W        W23686   3.353   6.555   1.821
51372W        W23687  19.308  15.893  12.742
51373W        W23688  16.148  28.088   1.648
51374W        W23689  18.169  40.612  11.083
51375W        W23690  38.861  28.124   0.459
51376W        W23691  37.702  36.776   0.270
51377W        W23692  42.915  30.390   2.632
51378W        W23693  24.689   0.815  10.652
51379W        W23694  27.567  10.124  12.467
51380W        W23695  36.457  16.449  11.930
51381W        W23696   8.271  12.801   1.779
51382W        W23697   5.379  37.552  14.777
51383W        W23698  16.978  43.415   0.202
51384W        W23699  21.575  35.015   1.006
51385W        W23700  20.229  40.817   4.182
51386W        W23701   7.451  30.508   2.564
51387W        W23702  31.725  44.269   2.293
51388W        W23703  25.217  31.537   2.854
51389W        W23704   5.521   4.836  11.021
51390W        W23705  42.928   2.552   1.450
51391W        W23706  27.685  16.329   1.254
51392W        W23707   4.215  13.128   2.339
51393W        W23708  24.693   7.890   0.715
51394W        W23709  19.691   2.660   0.788
51395W        W23710  12.656  16.226  10.561
51396W        W23711  34.950  20.672  12.674
51397W        W23712  22.554   1.905   4.668
51398W        W23713  35.142  42.464   3.295
51399W        W23714  35.467  36.889   1.036
51400W        W23715   5.603  39.122  14.317
51401W        W23716   7.266  20.132  13.101
51402W        W23717  39.894  17.408  14.564
51403W        W23718  17.617  40.446  13.945
51404W        W23719  24.522  37.505   1.398
51405W        W23720  42.941  33.152  12.362
51406W        W23721  16.591  27.727   3.774
51407W        W23722  41.962   8.735   0.932
51408W        W23723  20.278  42.713  14.655
51409W        W23724   2.773  12.076   3.361
51410W        W23725  27.666  40.739  14.807
51411W        W23726  41.849  40.195   4.368
51412W        W23727   6.422  15.593   2.060
51413W        W23728  26.123  26.891  13.673
51414W        W23729  15.831  36.239  14.226
51415W        W23730  16.666  30.503  12.583
51416W        W23731  42.555  36.380   2.178
51417W        W23732  14.908   6.705  13.913
51418W        W23733  43.720  16.293  13.795
51419W        W23734  16.831   8.677  10.306
51420W        W23735  34.117  42.800   1.810
51421W        W23736  28.406   6.733   3.346
51422W        W23737   7.202   6.306  14.381
51423W        W23738  17.667  41.321   0.093
51424W        W23739   4.772  44.743  13.099
51425W        W23740  32.047  27.016   4.454
51426W        W23741  32.102  26.011   0.069
51427W        W23742  39.731   0.385   4.059
51428W        W23743   4.051  28.089  12.060
51429W        W23744  23.360  40.434  14.942
51430W        W23745   9.880   5.503   0.685
51431W        W23746   9.740   2.835  12.221
51432W        W23747  16.822  17.438  11.294
51433W        W23748  13.066  28.075  12.739
51434W        W23749  12.913  35.849   4.852
51435W        W23750  40.423   1.675  14.561
51436W        W23751   0.715   3.632   4.736
51437W        W23752  15.588   3.727  14.427
51438W        W23753  36.350   2.528  12.988
51439W        W23754  44.972  39.394   3.238
51440W        W23755   0.932  22.291  14.794
51441W        W23756  28.157  14.751  10.869
51442W        W23757   7.640  24.609  13.163
51443W        W23758   5.360  25.489  10.697
51444W        W23759  30.882  12.832   1.224
51445W        W23760  31.102  37.888  14.084
51446W        W23761  34.033  42.136   2.978
51447W        W23762  40.335  17.280  11.134
51448W        W23763  38.829  23.693   1.039
51449W        W23764  43.749  15.234  14.759
51450W        W23765  25.281  36.437  12.896
51451W        W23766   3.231  18.687  14.084
51452W        W23767  27.985  41.962   4.372
51453W        W23768  42.740  29.689  13.401
51454W        W23769  19.360  28.748  11.152
51455W        W23770  13.144  43.845  14.126
51456W        W23771  31.674  31.147  13.358
51457W        W23772  38.658  22.160  13.007
51458W        W23773  18.313  21.689   3.731
51459W        W23774  33.453  35.980   2.718
51460W        W23775  44.991  36.648   5.128
51461W        W23776  26.051  12.382  12.381
51462W        W23777  20.210  25.810   1.174
51463W        W23778  10.799  38.497   4.201
51464W        W23779  13.512  23.531   4.133
51465W        W23780  11.433  37.850  12.193
51466W        W23781  11.751  32.178   3.675
51467W        W23782  41.348   5.986  12.903
51468W        W23783  13.071   4.226  12.091
51469W        W23784  36.911   6.222  14.970
51470W        W23785  28.594  16.660  12.899
51471W        W23786   7.352  43.963   3.437
51472W        W23787  24.979  22.955  12.514
51473W        W23788   6.775  41.910  11.134
51474W        W23789  18.624   1.798  10.901
51475W        W23790  40.230  41.022   3.300
51476W        W23791  30.685  23.230  12.412
51477W        W23792  24.728   4.303  12.217
51478W        W23793   4.640  30.031   0.273
51479W        W23794  42.904  38.417  12.065
51480W        W23795  29.094  27.017   2.726
51481W        W23796  16.617   2.630  14.940
51482W        W23797  15.092  36.320  11.251
51483W        W23798  27.681  25.510   4.232
51484W        W23799  38.118   5.709   1.198
51485W        W23800  37.514   6.903  12.512
51486W        W23801  23.618  22.834   9.911
51487W        W23802   9.875   5.480   3.692
51488W        W23803  17.123  35.978   3.435
51489W        W23804  15.158   2.322  10.387
51490W        W23805  33.940  42.293   0.354
51491W        W23806  22.717  41.312  10.403
51492W        W23807  12.728  32.350   2.026
51493W        W23808  12.587   6.179  14.061
51494W        W23809  38.517   4.210  12.448
51495W        W23810  13.363   4.821  13.364
51496W        W23811  39.370  41.523  10.762
51497W        W23812   9.080  22.780  11.008
51498W        W23813  17.068  15.880  12.751
51499W        W23814  36.170  44.545   1.405
51500W        W23815  34.122  23.064  13.392
51501W        W23816  14.791  26.853  12.483
51502W        W23817  35.249  44.453   0.886
51503W        W23818   0.763  41.145   2.313
51504W        W23819  42.180  27.209  12.349
51505W        W23820  39.867  39.307  13.482
51506W        W23821  15.537  30.213  13.528
51507W        W23822  12.107  24.239   2.291
51508W        W23823   0.308   8.207   0.881
51509W        W23824  21.607  19.233  11.942
51510W        W23825  34.620  43.401   0.739
51511W        W23826  43.516  44.994  14.008
51512W        W23827  41.807  13.095  14.096
51513W        W23828  24.179  21.478  11.142
51514W        W23829   4.857  37.001   2.399
51515W        W23830   2.258  32.908  11.153
51516W        W23831  13.645  43.884  14.989
51517W        W23832   9.328  28.817  10.794
51518W        W23833  13.775  17.597  10.681
51519W        W23834  39.484  15.033   4.240
51520W        W23835  35.718  12.819  10.650
51521W        W23836   5.345  15.896  11.116
51522W        W23837  44.441  19.083   1.442
51523W        W23838  28.247  34.174   0.912
51524W        W23839  36.267  32.237  13.033
51525W        W23840  37.546  30.495  14.294
51526W        W23841  20.457  18.582   2.667
51527W        W23842  11.608  29.481   1.353
51528W        W23843  18.440   7.282   2.716
51529W        W23844   8.816  17.167   2.392
51530W        W23845  38.033  32.904  12.801
51531W        W23846  26.020   1.946  11.713
51532W        W23847  12.322   8.361  14.789
51533W        W23848  22.051  38.400  10.712
51534W        W23849  14.191  20.764   0.816
51535W        W23850  35.402  13.083  13.484
51536W        W23851  30.965  43.437   4.635
51537W        W23852  31.565  23.727  11.254
51538W        W23853  22.568  30.439   1.672
51539W        W23854  28.765  39.814   1.648
51540W        W23855   0.900  34.591   0.744
51541W        W23856   3.009  27.561   0.457
51542W        W23857  28.921  28.114   2.048
51543W        W23858  43.499  33.604   0.404
51544W        W23859   6.679   6.188   2.763
51545W        W23860  40.715  40.380   3.623
51546W        W23861   7.685  39.246  13.693
51547W        W23862  39.351   0.759   4.088
51548W        W23863  43.267   4.897  14.418
51549W        W23864   7.228   2.861   3.628
51550W        W23865  26.560  14.410   1.635
51551W        W23866  36.819  11.249   2.327
51552W        W23867  44.387  20.263  14.442
51553W        W23868   6.196  42.272  13.959
51554W        W23869  30.806   6.766   4.004
51555W        W23870  15.186   8.073  12.553
51556W        W23871   8.313  27.460  14.505
51557W        W23872  31.904  20.016   4.492
51558W        W23873  40.240  14.749   0.916
51559W        W23874  34.626  11.680  14.937
51560W        W23875   3.370   4.134  13.600
51561W        W23876  21.690  37.640  14.197
51562W        W23877   7.281  23.068  14.704
51563W        W23878  20.720  33.354   2.231
51564W        W23879  33.010  24.870   2.436
51565W        W23880  15.593  28.062   4.260
51566W        W23881  13.622   3.787  11.706
51567W        W23882  39.039  10.821  14.564
51568W        W23883   0.239  30.124   4.810
51569W        W23884  25.410  32.472  13.943
51570W        W23885  18.509  11.385   9.999
51571W        W23886  39.467   7.445  12.452
51572W        W23887  29.138  34.468  12.788
51573W        W23888  18.882  38.475   2.869
51574W        W23889  41.316  35.109   1.376
51575W        W23890  37.891  40.031   0.989
51576W        W23891  30.585  35.434   1.280
51577W        W23892  37.533  14.097  14.424
51578W        W23893   0.267  18.437   0.357
51579W        W23894  44.840  23.318  11.256
51580W        W23895  33.099  28.108  12.861
51581W        W23896   7.019  27.570  10.743
51582W        W23897  29.499   9.853  10.689
51583W        W23898  10.647   3.865  11.226
51584W        W23899  41.137  17.653  11.142
51585W        W23900   2.364  22.297  12.090
51586W        W23901  14.090   0.741   4.078
51587W        W23902  36.871  39.771  13.355
51588W        W23903   1.403  19.741  10.326
51589W        W23904  37.809   3.251  14.888
51590W        W23905  33.471  26.648   9.918
51591W        W23906   7.028   8.362   2.876
51592W        W23907  20.656  32.531   1.767
51593W        W23908  28.491   3.632   1.816
51594W        W23909  34.450  43.873   3.834
51595W        W23910  11.192  34.977   0.088
51596W        W23911   5.967  22.513  13.041
51597W        W23912   0.576  27.475  12.852
51598W        W23913  21.482   4.040   3.294
51599W        W23914   9.725   9.208  11.059
51600W        W23915  24.177  33.873  14.962
51601W        W23916  13.683  36.206   2.133
51602W        W23917  39.358  30.661   2.824
51603W        W23918  11.053  22.054  12.472
51604W        W23919  44.938  37.557  12.406
51605W        W23920  15.203  22.752  12.376
51606W        W23921  10.976   7.300  14.901
51607W        W23922  42.456  27.005  11.081
51608W        W23923  26.175   6.124  13.246
51609W        W23924  24.344  41.343   2.727
51610W        W23925  11.236  16.878   1.377
51611W        W23926  32.934  33.399   3.863
51612W        W23927  36.368  43.789  13.366
51613W        W23928  18.818  19.825   0.983
51614W        W23929   1.855   7.434  14.453
51615W        W23930   4.715  38.360  13.808
51616W        W23931  38.899  35.159  13.114
51617W        W23932  37.088   2.015   4.179
51618W        W23933  43.815  41.598  14.393
51619W        W23934  13.686  23.233   0.223
51620W        W23935  16.756  30.474   1.322
51621W        W23936  17.076  17.093   1.693
51622W        W23937   0.171   4.790  13.279
51623W        W23938   4.191   8.882  13.913
51624W        W23939   2.220  31.027  10.766
51625W        W23940  18.262  25.520   4.477
51626W        W23941  42.292  30.692  12.454
51627W        W23942   5.445   5.116   0.956
51628W        W23943   2.101  43.891  13.987
51629W        W23944   0.865  27.477   1.750
51630W        W23945   0.677  36.647  10.641
51631W        W23946  16.901  22.610  10.102
51632W        W23947   2.804   6.259   4.444
51633W        W23948  16.165   9.958  13.291
51634W        W23949   9.954  21.003  11.414
51635W        W23950  32.901  15.360   3.390
51636W        W23951   9.369   4.939   0.945
51637W        W23952  11.332  25.692   3.792
51638W        W23953  40.471  33.963   3.739
51639W        W23954  34.403   7.829   2.226
51640W        W23955  26.683  18.195   1.193
51641W        W23956   0.608   9.852  13.344
51642W        W23957  32.577  22.091   1.988
51643W        W23958  12.036  11.405  11.427
51644W        W23959  36.239  33.937   2.381
51645W        W23960  22.992   2.377  12.117
51646W        W23961  38.175   1.923   4.150
51647W        W23962   9.397  30.625  10.779
51648W        W23963  29.847  30.992  14.948
51649W        W23964  37.196  29.843  10.560
51650W        W23965  16.614  40.495   3.587
51651W        W23966  34.694   0.893   4.434
51652W        W23967  13.631  38.575   3.738
51653W        W23968   1.987  10.897  14.830
51654W        W23969  13.499   2.337   2.698
51655W        W23970  17.946  23.961   2.292
51656W        W23971  29.839   3.446  13.532
51657W        W23972   8.151  13.916  11.621
51658W        W23973  14.723  21.165  11.918
51659W        W23974  11.598  36.420   1.436
51660W        W23975  39.844   2.334   1.694
51661W        W23976  15.243  25.898  13.358
51662W        W23977  11.099   1.241   4.539
51663W        W23978  11.955   3.658   5.049
51664W        W23979  23.471  27.507  10.695
51665W        W23980   6.971   8.893   4.286
51666W        W23981  33.734   7.741   5.044
51667W        W23982  15.317  31.454  13.756
51668W        W23983   1.855  19.197   4.324
51669W        W23984  34.199  12.204  10.712
51670W        W23985  21.764  28.891  12.071
51671W        W23986   9.774  33.565   4.643
51672W        W23987  26.534  15.521   3.693
51673W        W23988  15.323  10.193   3.608
51674W        W23989  12.621   9.926  12.330
51675W        W23990  30.412  17.086   3.725
51676W        W23991   0.181  14.761  11.672
51677W        W23992  31.010  35.516   4.616
51678W        W23993  31.590  23.740   1.681
51679W        W23994  17.592  30.677  14.412
51680W        W23995   4.738  37.548   0.271
51681W        W23996  41.135  26.724   0.864
51682W        W23997  35.502  27.572  12.473
51683W        W23998  28.717  42.801  12.953
51684W        W23999  16.047  42.848   2.391
51685W        W24000   7.661  31.657  10.420
51686W        W24001   6.761  26.079   4.378
51687W        W24002  37.344  18.570   4.367
51688W        W24003  29.380  36.359  10.675
51689W        W24004  35.199   8.047   0.883
51690W        W24005  11.364  10.785   4.479
51691W        W24006  24.211  29.059   1.815
51692W        W24007  10.257  41.016  11.005
51693W        W24008  44.077   9.922  12.427
51694W        W24009   4.452  16.190   3.684
51695W        W24010  28.285  13.559   1.657
51696W        W24011  12.393   7.626   3.704
51697W        W24012  28.689  28.086   4.119
51698W        W24013   7.957  15.834  13.854
51699W        W24014  17.973  39.328   2.793
51700W        W24015  16.410  32.492  13.737
51701W        W24016  24.199  10.416   1.326
51702W        W24017  15.188  33.585   3.584
51703W        W24018   1.902   5.964   0.444
51704W        W24019  32.861  39.531   0.484
51705W        W24020  23.151  14.294   4.541
51706W        W24021  35.049  43.961  12.576
51707W        W24022   7.646  35.392   3.308
51708W        W24023  28.736   2.328   4.157
51709W        W24024  32.678   4.267  12.422
51710W        W24025  39.057  25.650   4.172
51711W        W24026  32.383  24.368   0.780
51712W        W24027  10.594  36.080   0.538
51713W        W24028  25.995  43.284  11.122
51714W        W24029   8.390   6.345  13.868
51715W        W24030  26.896   6.707  11.529
51716W        W24031  38.950  11.892   3.103
51717W        W24032  16.434  16.527  14.435
51718W        W24033  24.638  19.564   3.197
51719W        W24034   7.748  41.117  12.986
51720W        W24035  11.310   0.384  14.787
51721W        W24036  39.254  36.647  14.422
51722W        W24037   8.405  28.157   3.388
51723W        W24038  27.508  26.100  12.086
51724W        W24039  37.650  36.985  11.881
51725W        W24040  20.264  15.110   3.307
51726W        W24041  27.012   5.300   3.424
51727W        W24042  32.858   3.759  10.988
51728W        W24043  28.655  27.967   2.854
51729W        W24044  41.214  17.304   3.203
51730W        W24045   9.241  19.002   4.089
51731W        W24046  11.199  13.826   2.796
51732W        W24047  22.041  18.140   1.675
51733W        W24048  20.609   9.048  10.155
51734W        W24049  17.009  16.099  11.435
51735W        W24050  11.835  21.998  12.035
51736W        W24051  14.103  44.471  11.592
51737W        W24052  23.482  30.505   1.210
51738W        W24053  43.505  40.950   1.365
51739W        W24054  38.932  26.952   3.586
51740W        W24055  21.226  38.239  14.963
51741W        W24056   9.224  26.603  12.063
51742W        W24057  14.983  17.600   3.644
51743W        W24058  17.672  18.573   4.978
51744W        W24059  15.075  41.373  14.639
51745W        W24060  14.475  40.373   4.980
51746W        W24061   4.457  23.009   2.798
51747W        W24062  26.063  21.280  12.968
51748W        W24063   7.393   4.461  11.142
51749W        W24064  19.319  20.667  11.034
51750W        W24065   2.290  14.443  11.014
51751W        W24066  28.998  13.829  14.970
51752W        W24067  22.100  38.518   2.015
51753W        W24068  34.541  19.066   1.755
51754W        W24069  14.002   9.401  12.978
51755W        W24070  25.480  16.795  12.977
51756W        W24071  31.689   5.722   4.495
51757W        W24072  21.552  31.646   4.376
51758W        W24073  41.407  32.113   2.716
51759W        W24074  19.463  24.488   3.582
51760W        W24075  43.479  13.179  12.607
51761W        W24076  21.684   7.398  10.573
51762W        W24077  10.339  12.162  12.946
51763W        W24078  18.041   5.878   2.321
51764W        W24079  40.530  17.140  11.706
51765W        W24080  40.509   2.955  11.123
51766W        W24081   3.677  43.882  10.470
51767W        W24082  20.697  29.621  14.069
51768W        W24083   8.206  40.366   1.224
51769W        W24084  28.712  16.061  13.464
51770W        W24085  17.676  29.323   2.346
51771W        W24086   6.304   0.877  11.252
51772W        W24087  21.034   2.706   0.764
51773W        W24088  43.503  19.800   3.519
51774W        W24089  12.297  36.842  14.075
51775W        W24090  24.487  28.120  11.172
51776W        W24091  18.548  11.611  13.519
51777W        W24092   6.280  44.683   1.020
51778W        W24093   6.754  22.264  11.237
51779W        W24094   9.974  11.763  12.035
51780W        W24095  29.261  26.764  11.525
51781W        W24096  40.069   1.911  14.955
51782W        W24097   3.464  17.802  11.067
51783W        W24098   2.934  41.863   0.155
51784W        W24099  13.850  37.174  14.215
51785W        W24100  39.058  33.549  14.679
51786W        W24101  22.438   6.869   4.714
51787W        W24102  39.800   5.299   0.234
51788W        W24103  24.074  21.909   9.580
51789W        W24104  20.230  40.093  14.690
51790W        W24105  11.745   6.486   1.609
51791W        W24106  24.792  24.903  12.995
51792W        W24107  26.131  42.262  14.314
51793W        W24108  26.705  32.088  14.932
51794W        W24109  37.114  19.408   0.849
51795W        W24110  42.082  42.923  11.796
51796W        W24111   8.362  39.468   1.374
51797W        W24112   2.676  21.317   4.146
51798W        W24113  24.929   3.175   2.341
51799W        W24114  17.010  29.874   4.157
51800W        W24115  20.097  14.275   1.741
51801W        W24116  35.779  12.772  12.566
51802W        W24117   5.379   8.573  10.592
51803W        W24118  43.339   7.810  10.581
51804W        W24119  30.360  16.705  12.586
51805W        W24120  34.889   3.469  14.790
51806W        W24121  14.445  19.529   3.636
51807W        W24122  33.973  28.340  12.500
51808W        W24123  14.207  33.943  11.186
51809W        W24124  33.120  28.352   4.625
51810W        W24125  26.864  34.607  11.600
51811W        W24126  10.287  20.288   3.547
51812W        W24127  18.105   8.639  11.015
51813W        W24128  26.662   4.480   1.459
51814W        W24129  40.030   8.159  13.299
51815W        W24130  38.375  43.519   2.310
51816W        W24131  12.412  30.636   2.667
51817W        W24132  11.391  10.298   3.699
51818W        W24133  10.176  24.724  12.512
51819W        W24134  24.855  28.731  11.142
51820W        W24135  20.030  15.830  11.991
51821W        W24136  25.523  29.127   1.474
51822W        W24137  35.084  17.746  12.236
51823W        W24138  42.967  16.765   4.115
51824W        W24139   0.370  23.496  12.253
51825W        W24140   3.712  20.508   1.028
51826W        W24141  36.016  23.021   4.240
51827W        W24142  24.447  23.190  14.911
51828W        W24143  26.597  18.169  11.651
51829W        W24144  44.490  23.587  12.156
51830W        W24145  22.659  16.645  12.335
51831W        W24146  16.790   5.836  12.023
51832W        W24147  24.533  17.637   2.092
51833W        W24148  37.615  38.567  12.060
51834W        W24149  36.892   8.618  10.688
51835W        W24150  42.564  18.004  13.309
51836W        W24151  13.449  43.406   4.700
51837W        W24152  33.919   5.309  13.404
51838W        W24153   8.345  27.349   1.819
51839W        W24154  43.483  16.163   3.645
51840W        W24155  36.204  33.954   3.287
51841W        W24156  31.966   7.386   1.257
51842W        W24157   7.747  17.284   5.032
51843W        W24158  15.783  42.935   3.688
51844W        W24159   6.577  14.050  12.097
51845W        W24160   8.191   1.184   0.905
51846W        W24161  21.795  35.409  12.455
51847W        W24162  40.223   0.449   2.217
51848W        W24163  36.138  40.750  11.839
51849W        W24164   2.831   1.718   4.708
51850W        W24165  11.675   9.694   3.171
51851W        W24166  23.707   7.395  12.912
51852W        W24167  29.685   4.413  12.760
51853W        W24168  22.584   5.463   4.631
51854W        W24169  17.143   6.172   4.266
51855W        W24170  21.489  34.214   2.285
51856W        W24171  23.349  10.351   3.320
51857W        W24172  24.648   1.823   2.038
51858W        W24173   8.309  39.879  10.679
51859W        W24174   1.494  28.469   4.128
51860W        W24175  22.087  14.546   2.486
51861W        W24176  16.422  16.499  12.616
51862W        W24177  28.554  18.551   3.244
51863W        W24178  20.969  12.652  13.348
51864W        W24179  11.939  24.225   0.365
51865W        W24180  38.425  19.282   3.608
51866W        W24181  27.948  33.019  13.309
51867W        W24182  13.866  40.311   2.149
51868W        W24183   1.533  38.045  11.599
51869W        W24184  14.026  25.542   0.616
51870W        W24185  27.934   6.011  13.973
51871W        W24186  27.399  24.476  10.734
51872W        W24187  43.044  31.221  14.291
51873W        W24188   7.320  29.987  14.271
51874W        W24189  10.188  18.566  13.034
51875W        W24190  25.370  31.520  13.844
51876W        W24191  18.665  23.085  11.187
51877W        W24192  38.519   9.271   3.405
51878W        W24193  10.980  15.225  14.860
51879W        W24194   7.103   1.890   4.585
51880W        W24195  42.715  44.853   1.652
51881W        W24196  11.694  41.672   4.663
51882W        W24197  10.853  38.079   0.752
51883W        W24198  14.733  39.446  13.478
51884W        W24199   3.352  12.751   1.779
51885W        W24200  34.050   5.399   4.500
51886W        W24201  36.966  24.234  13.994
51887W        W24202  40.627   1.797  13.678
51888W        W24203  29.589  18.426   1.389
51889W        W24204  18.584  12.839  12.121
51890W        W24205  33.737  31.681  13.836
51891W        W24206  31.593  40.891   0.521
51892W        W24207  42.628  34.482  11.459
51893W        W24208   3.908  34.464   3.023
51894W        W24209   8.697  17.973   2.671
51895W        W24210  17.715  23.895   3.413
51896W        W24211  10.845  31.027   0.638
51897W        W24212  38.089  25.044   4.546
51898W        W24213  18.624  22.750   4.276
51899W        W24214  16.547  35.971  11.602
51900W        W24215   1.720  38.018   0.057
51901W        W24216  12.898   0.972   0.668
51902W        W24217  32.873  31.441   4.061
51903W        W24218  36.187  25.132  12.619
51904W        W24219   7.132  40.058   1.211
51905W        W24220  13.303   8.557  11.535
51906W        W24221  29.064  32.240  11.092
51907W        W24222  23.513  34.091  12.013
51908W        W24223   2.486  32.394  13.394
51909W        W24224  37.088   8.676   0.591
51910W        W24225  20.254  24.641  13.030
51911W        W24226  37.333   0.802  12.053
51912W        W24227  18.649  25.195   1.725
51913W        W24228  17.499   8.878   3.599
51914W        W24229  37.924  25.556  12.425
51915W        W24230  44.284  15.881  14.382
51916W        W24231  22.998   8.688  14.909
51917W        W24232  32.203   4.516   1.448
51918W        W24233  17.856   6.813   2.842
51919W        W24234  23.828   7.267  14.905
51920W        W24235   4.878  18.786   4.296
51921W        W24236  13.804  24.542   3.355
51922W        W24237  28.936  24.313   3.439
51923W        W24238   3.282   0.957  14.398
51924W        W24239   7.171  39.357  10.799
51925W        W24240  14.840  31.202  14.341
51926W        W24241   9.420  24.752  11.033
51927W        W24242   8.433  13.990  13.906
51928W        W24243   2.804  41.063   2.785
51929W        W24244  18.037  13.292   3.253
51930W        W24245  43.988  39.445  11.412
51931W        W24246  32.874  13.691  12.036
51932W        W24247  42.009  14.588   2.357
51933W        W24248   7.903  14.341   4.124
51934W        W24249  24.738  12.092   2.660
51935W        W24250  33.379  41.561  13.952
51936W        W24251  22.261   8.334   0.692
51937W        W24252  12.951  14.773  10.667
51938W        W24253   2.439   4.356  14.900
51939W        W24254  16.698  21.801  12.629
51940W        W24255  23.537  38.113  13.449
51941W        W24256   5.645  14.470   3.466
51942W        W24257  42.716  25.220  10.333
51943W        W24258   5.142  35.930  13.072
51944W        W24259   8.758  14.101  11.161
51945W        W24260  16.655  43.304  12.063
51946W        W24261  12.781   7.435   1.323
51947W        W24262  29.701  37.918  12.853
51948W        W24263  43.991  40.820   0.640
51949W        W24264   1.332  14.187  12.884
51950W        W24265  40.842  32.073   0.350
51951W        W24266  11.376   8.141  14.918
51952W        W24267  28.057   5.712  12.638
51953W        W24268   7.231  12.903  14.902
51954W        W24269  34.501   3.999   2.931
51955W        W24270  27.927  15.591  10.744
51956W        W24271  35.416  31.129  11.991
51957W        W24272  12.137  31.070  12.444
51958W        W24273  43.745  38.073  12.063
51959W        W24274  35.782  25.530  11.064
51960W        W24275  20.887  18.434   3.690
51961W        W24276  32.858  36.826   4.147
51962W        W24277  16.997  12.915  11.153
51963W        W24278   5.862  38.886  11.504
51964W        W24279  11.590   3.730  11.587
51965W        W24280  16.275  28.518   5.363
51966W        W24281  38.100  18.869  10.995
51967W        W24282  24.598  21.635  10.907
51968W        W24283  42.615  12.185   4.246
51969W        W24284  34.693   6.116  11.107
51970W        W24285  19.203   2.386  11.551
51971W        W24286  17.573  28.086   5.582
51972W        W24287  12.680   1.821  13.852
51973W        W24288  34.745  36.328   0.970
51974W        W24289  36.176  43.119   1.363
51975W        W24290  35.851  24.066  11.197
51976W        W24291  11.622  25.552   4.949
51977W        W24292  41.278  14.136  12.162
51978W        W24293  31.870  25.232   0.269
51979W        W24294   5.174  27.049   3.274
51980W        W24295   1.705  24.247  13.816
51981W        W24296  30.759  10.681  12.637
51982W        W24297   4.179  44.821   4.066
51983W        W24298  36.601  23.015  12.489
51984W        W24299  21.330  17.264  14.473
51985W        W24300  13.625  13.279   0.799
51986W        W24301  38.470   0.849   4.387
51987W        W24302  13.070  22.228   1.980
51988W        W24303  30.028  24.862  14.463
51989W        W24304  28.746  23.463   0.777
51990W        W24305  36.623  40.567  13.580
51991W        W24306   3.379  24.123   0.058
51992W        W24307  33.214   3.206   4.173
51993W        W24308  19.488  16.275   4.447
51994W        W24309  26.063  22.125   4.071
51995W        W24310  38.311  26.811   1.480
51996W        W24311  14.864   1.709  12.819
51997W        W24312  27.890   2.199   0.908
51998W        W24313  11.663  17.257   5.011
51999W        W24314  10.912  27.959  14.745
52000W        W24315  14.755  38.042   0.831
52001W        W24316  38.567  16.619   2.315
52002W        W24317  39.720  31.044   2.710
52003W        W24318  19.087   4.920  13.270
52004W        W24319   0.044  43.860  14.897
52005W        W24320  10.448  13.313   3.215
52006W        W24321  29.994   3.796   1.261
52007W        W24322  35.474  22.513  14.382
52008W        W24323  19.231  20.490  13.126
52009W        W24324   7.276  43.194   3.016
52010W        W24325   4.328  44.924  13.881
52011W        W24326   8.455  36.703   2.182
52012W        W24327  10.406  37.857   0.841
52013W        W24328  27.396  11.192  14.597
52014W        W24329  40.789  10.983   4.502
52015W        W24330  20.056   6.969   2.100
52016W        W24331  23.636  13.749   4.608
52017W        W24332  27.179  14.005  13.073
52018W        W24333  38.841  15.730  14.898
52019W        W24334  35.545  25.274   1.239
52020W        W24335   1.421   6.615  14.673
52021W        W24336  31.160  14.757   1.195
52022W        W24337  30.010  41.007   0.688
52023W        W24338  32.151  25.636   0.470
52024W        W24339   1.261  18.958  11.080
52025W        W24340   1.744  19.088  11.050
52026W        W24341  24.624  15.868   2.718
52027W        W24342  16.617  30.128   3.294
52028W        W24343  14.632   7.990   4.902
52029W        W24344  34.497  34.888  12.583
52030W        W24345  30.686  36.494   4.966
52031W        W24346  22.018   7.422   3.653
52032W        W24347  33.585  34.401  12.447
52033W        W24348  14.847   5.426  10.998
52034W        W24349   1.279  31.640   3.317
52035W        W24350  22.091  13.891  12.397
52036W        W24351  19.525   7.478   0.723
52037W        W24352   1.441  38.466   2.330
52038W        W24353   0.318  35.241   3.572
52039W        W24354  17.049  15.554  13.714
52040W        W24355   5.021  41.773   5.112
52041W        W24356   0.693  13.728  10.427
52042W        W24357  42.400  44.956   2.857
52043W        W24358  10.671  29.408  10.506
52044W        W24359  38.107  43.371  14.983
52045W        W24360  25.425  44.450   5.053
52046W        W24361   8.668   9.661   0.755
52047W        W24362   8.736  16.187   3.222
52048W        W24363  27.508  16.884  14.520
52049W        W24364  11.653  12.559  12.017
52050W        W24365  33.147  42.883   1.336
52051W        W24366   1.023   3.903  12.927
52052W        W24367  26.515  10.669   0.767
52053W        W24368  21.967  17.051  10.688
52054W        W24369  10.766  36.882   3.308
52055W        W24370   8.454  34.187  14.194
52056W        W24371  16.055  28.121   2.668
52057W        W24372  42.428  24.690   1.615
52058W        W24373   9.591  43.888   2.447
52059W        W24374  36.955  12.903   1.236
52060W        W24375   5.572  11.774  11.173
52061W        W24376  10.624  20.411  14.272
52062W        W24377  28.506   6.790   9.340
52063W        W24378  14.511   6.738   1.416
52064W        W24379  10.739   1.282   4.128
52065W        W24380   0.275  19.596   1.711
52066W        W24381  22.658   1.725  13.974
52067W        W24382  31.625  22.354   3.083
52068W        W24383  39.865  27.222  10.583
52069W        W24384  37.917   3.727  14.216
52070W        W24385   9.374  16.683   1.907
52071W        W24386   2.005  33.048   3.203
52072W        W24387   6.592  26.987  14.825
52073W        W24388   4.857  12.914   1.254
52074W        W24389   2.867   9.736  11.490
52075W        W24390  42.219   5.305  12.581
52076W        W24391  42.613  25.865   3.140
52077W        W24392  27.954  27.202   4.530
52078W        W24393   9.812  11.787   3.640
52079W        W24394  35.822   2.284   3.686
52080W        W24395  24.661  10.629   1.906
52081W        W24396  41.503  26.001   3.159
52082W        W24397  16.868  29.653  13.809
52083W        W24398   6.165   9.766  13.973
52084W        W24399   4.016  28.623  12.103
52085W        W24400  18.340  42.785   4.534
52086W        W24401  44.509  15.672   2.372
52087W        W24402  42.265  37.525   3.608
52088W        W24403  39.078  22.541  14.379
52089W        W24404  32.913  26.043  11.614
52090W        W24405  28.082  16.319  14.906
52091W        W24406  39.281   4.813  11.314
52092W        W24407  12.482  31.892   0.633
52093W        W24408  32.969   0.758  11.368
52094W        W24409  15.699  28.406   2.394
52095W        W24410  33.059  41.581   1.256
52096W        W24411  14.196  36.975   2.806
52097W        W24412  43.734  16.137  10.359
52098W        W24413  10.626   0.318   1.765
52099W        W24414  43.939  40.730   2.051
52100W        W24415  22.970  18.070   1.224
52101W        W24416  38.962  35.076   1.758
52102W        W24417  34.019  36.915   2.691
52103W        W24418   4.908   0.643  11.152
52104W        W24419  12.493  29.670   4.608
52105W        W24420  14.522  33.300  12.432
52106W        W24421  12.840  14.035   2.470
52107W        W24422   6.993  21.033   3.540
52108W        W24423  14.038  12.585   1.001
52109W        W24424  27.978  19.018   2.422
52110W        W24425  37.418   9.597   1.881
52111W        W24426  27.744   3.556  10.317
52112W        W24427  25.915  36.959   0.834
52113W        W24428  19.043   9.972   0.530
52114W        W24429  27.556  17.238  11.425
52115W        W24430  34.073  12.771  11.976
52116W        W24431   7.500  17.712   3.394
52117W        W24432  41.062  34.583  12.518
52118W        W24433  17.980  43.287  14.626
52119W        W24434  26.028  11.730   1.830
52120W        W24435  13.865  20.815  13.424
52121W        W24436  25.709  11.798   1.293
52122W        W24437  29.816  13.770   0.819
52123W        W24438  34.021  24.231   3.743
52124W        W24439  19.000   8.911  11.163
52125W        W24440   9.454  12.656   3.879
52126W        W24441  42.439  43.205   4.046
52127W        W24442  29.700  13.329  12.236
52128W        W24443  22.215  25.523   1.109
52129W        W24444   4.867   9.888   4.669
52130W        W24445   5.388  43.230   3.231
52131W        W24446  19.792   8.846  11.591
52132W        W24447  19.582  38.747  12.050
52133W        W24448  20.152   1.668   2.126
52134W        W24449  15.656   0.509  14.944
52135W        W24450  28.593  27.415   0.824
52136W        W24451  18.284  13.260  11.421
52137W        W24452  26.772  17.823  14.058
52138W        W24453  37.798  40.977   5.011
52139W        W24454  33.200  28.647  12.054
52140W        W24455  19.582   1.825   4.307
52141W        W24456  15.857  19.892   4.217
52142W        W24457  21.682  17.084   4.122
52143W        W24458  35.418  10.910  14.016
52144W        W24459  30.636  25.413   0.887
52145W        W24460  16.218   6.430  13.867
52146W        W24461  25.594  19.741   1.470
52147W        W24462  35.985  28.191  14.302
52148W        W24463  35.098  27.144  14.056
52149W        W24464  19.202  37.022  12.995
52150W        W24465  27.944   9.905   1.968
52151W        W24466  11.122   4.387  13.424
52152W        W24467  44.816  13.708   4.534
52153W        W24468  42.510  32.113  13.889
52154W        W24469  43.303  20.741   1.183
52155W        W24470   8.731  41.463  13.396
52156W        W24471  33.567  37.252  12.615
52157W        W24472   1.154  30.545  12.509
52158W        W24473   6.790   4.388   0.906
52159W        W24474  33.342  26.723   1.533
52160W        W24475   5.512  43.412   0.438
52161W        W24476  20.881  19.970  10.166
52162W        W24477  25.237  22.688   4.123
52163W        W24478   5.565  28.273  13.949
52164W        W24479  33.526  21.809   2.840
52165W        W24480  37.090   8.242   0.274
52166W        W24481  19.163  17.775  14.224
52167W        W24482   8.627  10.784  11.160
52168W        W24483  31.839  43.462   0.337
52169W        W24484  18.820  38.031   1.337
52170W        W24485   3.179  40.940   3.181
52171W        W24486  38.263  41.554  11.547
52172W        W24487  41.149  37.462  13.616
52173W        W24488  27.411   5.386  13.630
52174W        W24489  32.349  11.846  11.834
52175W        W24490  34.140  43.476   3.269
52176W        W24491  34.552  22.674   4.591
52177W        W24492  35.064  29.340   3.701
52178W        W24493  17.828   7.317  10.666
52179W        W24494  12.191   4.137   3.757
52180W        W24495  35.045  19.238  14.845
52181W        W24496  12.905  12.277  14.109
52182W        W24497  23.824  40.476  11.641
52183W        W24498  38.070   5.422   4.597
52184W        W24499  23.499  32.744  11.629
52185W        W24500  25.125  31.879   3.355
52186W        W24501  44.216  12.693  13.973
52187W        W24502   4.975   3.376   0.257
52188W        W24503  30.209  23.587   0.800
52189W        W24504  17.317  27.697   5.106
52190W        W24505  11.621  11.638  13.914
52191W        W24506  12.907  40.827  14.301
52192W        W24507  41.442  20.197  10.914
52193W        W24508   6.292  18.278  14.831
52194W        W24509  29.828   6.880  10.757
52195W        W24510  34.010   2.238  12.455
52196W        W24511  18.156  29.140   3.136
52197W        W24512  37.277   9.814  11.222
52198W        W24513  11.381  44.771   4.201
52199W        W24514  35.705  36.269  13.181
52200W        W24515  21.566  40.924   3.759
52201W        W24516  31.867  42.901  11.252
52202W        W24517  25.408  31.404   0.354
52203W        W24518  38.892  24.778  13.561
52204W        W24519  43.411  27.978  13.207
52205W        W24520  38.959  40.397   0.331
52206W        W24521  43.972  40.068  12.880
52207W        W24522  20.238  13.424   4.318
52208W        W24523  31.418  37.789   1.522
52209W        W24524  38.283  28.992   0.833
52210W        W24525  18.959  36.366   2.014
52211W        W24526  20.757  29.233   3.269
52212W        W24527  33.747  16.073   3.668
52213W        W24528  27.932   9.608  10.607
52214W        W24529   0.907  38.997   3.027
52215W        W24530   7.304  13.196   3.866
52216W        W24531  43.204  38.322   4.837
52217W        W24532  17.071   4.692  13.352
52218W        W24533  40.249  13.500  12.511
52219W        W24534  37.460   2.923   4.158
52220W        W24535  39.374   8.500   1.940
52221W        W24536  10.633  10.281  14.739
52222W        W24537  16.617  16.942   4.458
52223W        W24538  42.882   8.126   0.361
52224W        W24539  12.795  28.038   3.517
52225W        W24540  38.671  31.441   3.181
52226W        W24541  43.920  30.751  11.695
52227W        W24542  10.195  25.097   3.175
52228W        W24543  18.641   2.214   1.691
52229W        W24544  11.205  36.930  13.329
52230W        W24545  15.928  31.534   0.243
52231W        W24546  18.340   5.889  13.787
52232W        W24547  14.672  43.005   4.946
52233W        W24548  13.400   2.027  12.499
52234W        W24549  10.226  15.779   4.205
52235W        W24550   7.384  10.976   3.815
52236W        W24551  24.087  10.495  14.280
52237W        W24552  25.366  42.479  13.064
52238W        W24553  23.690  40.505   4.615
52239W        W24554  19.374  36.304  11.933
52240W        W24555  42.356   6.200   0.405
52241W        W24556  13.843  29.604   1.561
52242W        W24557  29.528  30.035  10.513
52243W        W24558   1.694  30.274   3.194
52244W        W24559   8.424   8.354   2.907
52245W        W24560  17.517  19.314   3.843
52246W        W24561  38.969  38.535   1.649
52247W        W24562   7.904  44.313   0.496
52248W        W24563  26.966  37.018   2.810
52249W        W24564   1.535   0.265   1.755
52250W        W24565   2.306   3.289   0.896
52251W        W24566  26.624  28.037  14.434
52252W        W24567  27.994  25.461   1.865
52253W        W24568  24.490  34.568  11.137
52254W        W24569  14.139  34.844   1.407
52255W        W24570   0.217   9.977   1.380
52256W        W24571  36.727   4.258   4.125
52257W        W24572  26.002   6.935   2.400
52258W        W24573  16.876  34.548   1.729
52259W        W24574   3.031   1.711  11.575
52260W        W24575  37.116  37.330   3.106
52261W        W24576  18.426  22.050   2.054
52262W        W24577  39.045   5.639  12.430
52263W        W24578  35.449   9.366  11.042
52264W        W24579  34.120   2.226  10.712
52265W        W24580  43.110  38.234   1.864
52266W        W24581  44.445   3.329  11.510
52267W        W24582  25.978  33.847  10.465
52268W        W24583   7.384  27.588   3.601
52269W        W24584  26.762   9.350  13.434
52270W        W24585  42.422  23.710  14.883
52271W        W24586  42.773  14.748   1.724
52272W        W24587  13.565  32.885  14.903
52273W        W24588  34.906  40.762  13.299
52274W        W24589  25.681  18.182  11.023
52275W        W24590  42.818   0.709  14.385
52276W        W24591  22.498   9.336   1.730
52277W        W24592  25.984   8.127  13.388
52278W        W24593   5.444  35.191  11.575
52279W        W24594  33.324   5.917   2.457
52280W        W24595  31.055  24.199  10.818
52281W        W24596  13.596  35.496   4.897
52282W        W24597  15.030  35.007   4.540
52283W        W24598  40.922   8.056   3.042
52284W        W24599  31.158  36.918  14.519
52285W        W24600  42.445  36.619  12.613
52286W        W24601  11.624  43.027   0.400
52287W        W24602  10.014   1.974  10.429
52288W        W24603   9.064   2.334  13.788
52289W        W24604  15.298   6.166   3.850
52290W        W24605  31.333   6.684  10.596
52291W        W24606  41.343  24.223   4.093
52292W        W24607   0.342  23.430  10.738
52293W        W24608  26.930  39.385   2.001
52294W        W24609  25.990  41.862  11.528
52295W        W24610   2.903  39.434  13.738
52296W        W24611  40.393  16.734  13.047
52297W        W24612  34.144   5.889   0.951
52298W        W24613  27.207  15.275  14.376
52299W        W24614   6.410   3.000  12.099
52300W        W24615  29.477  37.574   5.071
52301W        W24616   4.472   0.259   4.112
52302W        W24617  35.421  11.845   0.187
52303W        W24618   6.520  32.577   0.498
52304W        W24619  32.981  15.588   4.084
52305W        W24620  21.220  22.019   5.108
52306W        W24621  36.426   4.704  10.587
52307W        W24622  39.585  12.871  11.205
52308W        W24623  12.317   2.351   2.963
52309W        W24624  15.593  10.504   1.332
52310W        W24625  19.977  23.565  13.331
52311W        W24626  34.303  16.491  13.085
52312W        W24627  28.555   8.285   4.837
52313W        W24628   6.760   1.743   1.293
52314W        W24629  19.611  43.558   3.677
52315W        W24630  21.235  36.682  12.041
52316W        W24631   2.721  43.605  12.862
52317W        W24632  15.550  12.378  11.061
52318W        W24633  12.163   8.409   2.981
52319W        W24634  28.167  35.940   1.946
52320W        W24635  24.516  44.410  12.600
52321W        W24636  39.030  29.265   3.661
52322W        W24637  13.522  23.901   1.396
52323W        W24638   6.197  32.051   4.548
52324W        W24639  33.437   0.436  11.550
52325W        W24640  25.034  19.796  10.341
52326W        W24641   0.345  17.891   1.131
52327W        W24642  13.705  17.180   0.915
52328W        W24643  33.133   4.802  11.945
52329W        W24644  27.453  21.641  12.974
52330W        W24645  21.830  33.751  13.787
52331W        W24646  28.158   1.479  14.844
52332W        W24647  15.330   9.343  11.037
52333W        W24648  33.569  33.848   3.694
52334W        W24649  35.087  24.489  14.438
52335W        W24650  19.053  11.302   3.684
52336W        W24651  44.224  11.432  13.748
52337W        W24652  37.401  15.616   5.022
52338W        W24653  20.185  39.100  13.793
52339W        W24654  25.716   6.712  12.534
52340W        W24655   2.120  39.837  13.339
52341W        W24656  30.533  37.262   1.937
52342W        W24657  31.420  21.464  10.332
52343W        W24658  18.805  27.542  12.418
52344W        W24659  34.406   7.940  11.625
52345W        W24660  15.890  13.873  13.015
52346W        W24661   7.722   6.390  12.293
52347W        W24662  37.333   6.222   4.962
52348W        W24663  32.732  13.303  11.191
52349W        W24664  36.649  15.429  14.726
52350W        W24665   4.591   5.286   0.718
52351W        W24666   9.372  40.002  12.166
52352W        W24667  35.486  33.931   1.055
52353W        W24668  29.015   8.043   0.776
52354W        W24669  22.238  44.442   0.360
52355W        W24670  40.145   0.133   1.792
52356W        W24671  19.499  34.086  12.965
52357W        W24672  22.527  22.497  12.298
52358W        W24673  29.682   5.735  13.504
52359W        W24674  26.584  28.226  13.034
52360W        W24675   6.190  31.914   0.727
52361W        W24676  23.889  21.764   1.430
52362W        W24677   7.478  41.275  10.461
52363W        W24678  16.773  29.190  12.109
52364W        W24679  24.228  27.674  11.129
52365W        W24680  36.038  28.135   4.485
52366W        W24681  21.685  20.752  13.401
52367W        W24682  32.734  27.999   3.203
52368W        W24683  34.968  18.084  14.222
52369W        W24684  39.888  44.560   2.651
52370W        W24685  27.459   6.182   3.732
52371W        W24686  32.926  22.128   4.298
52372W        W24687  44.759  24.594   0.323
52373W        W24688  19.837   5.216  13.521
52374W        W24689  37.520  15.384   0.043
52375W        W24690  34.759  20.956   0.782
52376W        W24691  33.607  17.023   4.783
52377W        W24692  21.089  41.508  11.290
52378W        W24693  16.937  34.463  14.759
52379W        W24694  20.008   1.737  14.423
52380W        W24695  22.452  23.678  11.700
52381W        W24696  15.058  36.539  12.609
52382W        W24697  20.671   5.465  12.197
52383W        W24698  40.536  33.117  10.754
52384W        W24699  38.187  39.542  12.637
52385W        W24700  34.035  13.572   0.052
52386W        W24701  21.152  37.017   3.331
52387W        W24702  37.894  38.012   2.673
52388W        W24703  34.086   0.363  14.032
52389W        W24704  23.653  36.368   0.759
52390W        W24705  17.492  28.988  10.927
52391W        W24706  27.114   3.307  10.437
52392W        W24707  17.988  35.641  12.556
52393W        W24708   5.378  40.089  11.004
52394W        W24709  10.355  11.537   2.892
52395W        W24710   8.051  26.966   3.645
52396W        W24711  24.791  23.033   0.746
52397W        W24712  38.053  16.268   4.215
52398W        W24713  12.125  19.772   0.470
52399W        W24714  11.189  26.024  10.688
52400W        W24715   8.289  30.363  12.898
52401W        W24716  35.075  36.159   0.552
52402W        W24717  44.445  10.611  13.473
52403W        W24718  11.167  40.066   2.291
52404W        W24719  17.129   0.852   0.708
52405W        W24720   4.494  23.020  12.865
52406W        W24721   1.638  10.776  10.130
52407W        W24722  38.070  36.550  11.823
52408W        W24723  33.456  29.882   0.266
52409W        W24724   3.386   5.613   1.346
52410W        W24725  44.859  18.805   2.758
52411W        W24726  33.334   0.810   2.921
52412W        W24727  34.853  32.133  14.511
52413W        W24728  10.285  20.996  12.863
52414W        W24729   8.121  43.687   3.195
52415W        W24730   7.365  29.279   1.478
52416W        W24731  13.892  20.745   1.369
52417W        W24732   0.872  33.573  12.135
52418W        W24733  15.052  21.143  14.486
52419W        W24734  13.550  42.699  11.345
52420W        W24735  28.111  35.322   2.791
52421W        W24736  14.012  41.867   3.606
52422W        W24737  38.929   0.935   3.163
52423W        W24738  42.950  39.373   0.083
52424W        W24739  29.104  20.789   1.853
52425W        W24740   8.821  40.530   1.848
52426W        W24741  11.757   9.181   3.619
52427W        W24742  41.080  43.084   0.762
52428W        W24743   5.382  32.882  13.049
52429W        W24744  40.470  19.485   3.250
52430W        W24745  24.800  12.236   2.172
52431W        W24746  10.800  30.448   0.891
52432W        W24747  42.864  14.283  13.407
52433W        W24748  36.933  16.383  14.583
52434W        W24749   5.250  29.130  12.852
52435W        W24750  23.709  19.797  14.566
52436W        W24751  18.730   9.330   2.950
52437W        W24752  43.711  20.702  11.777
52438W        W24753   2.351   7.526  13.896
52439W        W24754  43.138  25.239  11.131
52440W        W24755  44.044  34.222  13.498
52441W        W24756  15.001  37.509   0.434
52442W        W24757   3.804  33.466  12.487
52443W        W24758  10.739  29.023   2.658
52444W        W24759  38.852  22.224   1.081
52445W        W24760  44.320  10.730   3.738
52446W        W24761  28.106   9.173   3.889
52447W        W24762  16.610  40.413  13.026
52448W        W24763  42.908  15.756   4.162
52449W        W24764  38.790  18.645  13.291
52450W        W24765   3.348  43.900   0.739
52451W        W24766  21.716   3.450   1.778
52452W        W24767  41.551  20.162   0.859
52453W        W24768   4.427  27.521   1.286
52454W        W24769  15.388   9.858  12.997
52455W        W24770  19.053   3.017   2.442
52456W        W24771   2.987  22.252   1.436
52457W        W24772  14.880  35.944   1.738
52458W        W24773  15.367  25.398   1.046
52459W        W24774  37.890   7.421  14.421
52460W        W24775  37.876  29.649  14.734
52461W        W24776  43.926  42.548   3.844
52462W        W24777   8.330  27.669   1.375
52463W        W24778   8.490  18.240  13.975
52464W        W24779  29.427  24.324  13.184
52465W        W24780  10.374  20.165  12.297
52466W        W24781  38.238   5.420   4.102
52467W        W24782   9.338  33.122   3.276
52468W        W24783  13.842  44.789  13.857
52469W        W24784  16.368  24.593   3.862
52470W        W24785  35.625  26.456   0.031
52471W        W24786  25.021  25.080   0.792
52472W        W24787  10.158  41.321   4.493
52473W        W24788   3.884   9.144   0.883
52474W        W24789  33.521   2.561   0.781
52475W        W24790  20.402  15.781   2.708
52476W        W24791   1.891  39.316   0.905
52477W        W24792   2.075  15.771  14.496
52478W        W24793  25.168  30.351   0.306
52479W        W24794   4.350  23.070  14.718
52480W        W24795   1.342  32.961   4.684
52481W        W24796  41.156  43.760   0.695
52482W        W24797   2.185  15.236  12.150
52483W        W24798  18.798  43.400  14.330
52484W        W24799   8.316  34.534   3.339
52485W        W24800  21.508  30.846  13.845
52486W        W24801  17.849  30.752   2.064
52487W        W24802  29.033  26.371  14.263
52488W        W24803  21.714  42.218   2.676
52489W        W24804   3.976  38.051  14.326
52490W        W24805   7.231   2.487   3.236
52491W        W24806  27.432  36.752   4.205
52492W        W24807  32.974  15.789   0.274
52493W        W24808  10.778  22.158   2.205
52494W        W24809  31.542  13.559  10.519
52495W        W24810  39.650  37.989   2.790
52496W        W24811   9.293  12.772  14.459
52497W        W24812  16.243  44.105  14.777
52498W        W24813  33.868  28.534   3.365
52499W        W24814  32.195  22.459  13.862
52500W        W24815  22.654   5.433   3.189
52501W        W24816  41.135  35.926  14.287
52502W        W24817  28.420  15.258  13.939
52503W        W24818  17.062  14.716  13.241
52504W        W24819  21.788  24.056  13.356
52505W        W24820  33.813  11.100   0.846
52506W        W24821  40.809  35.558  11.691
52507W        W24822  38.249  39.069  12.459
52508W        W24823   4.372  14.382   0.774
52509W        W24824   0.385   3.173  10.624
52510W        W24825  20.788  44.928  11.433
52511W        W24826   7.521  12.180   3.620
52512W        W24827  34.828   0.721  13.710
52513W        W24828  32.659  24.196   1.172
52514W        W24829  19.760  39.560  14.310
52515W        W24830   5.299  23.158   2.870
52516W        W24831  27.428   5.867   2.760
52517W        W24832  37.031  23.618  12.648
52518W        W24833  21.751  32.688   3.634
52519W        W24834  32.451  25.654   4.243
52520W        W24835  23.613  21.577   1.883
52521W        W24836   9.627   1.926   3.760
52522W        W24837  40.347  18.713  13.528
52523W        W24838  19.775  22.639  12.543
52524W        W24839  36.144   3.706  14.206
52525W        W24840   6.715  37.518  12.493
52526W        W24841  21.977  15.170   1.886
52527W        W24842  23.583  19.126   3.028
52528W        W24843   8.175   6.928   3.218
52529W        W24844  32.886  43.987   4.531
52530W        W24845  38.459   4.689  14.916
52531W        W24846  10.684  23.350  12.581
52532W        W24847  40.194   3.874   1.910
52533W        W24848  15.150  41.940   1.770
52534W        W24849  20.786  30.970  10.649
52535W        W24850   5.882   5.960  10.843
52536W        W24851  10.564   3.119   4.032
52537W        W24852  25.730   8.748  13.953
52538W        W24853  20.536  29.969   3.761
52539W        W24854  29.753   0.963  12.979
52540W        W24855  31.674  35.353   4.457
52541W        W24856   9.100  34.523   2.855
52542W        W24857  17.610  38.648   3.998
52543W        W24858  42.589  33.281   1.203
52544W        W24859  36.221  41.984  12.911
52545W        W24860  42.996   2.972   2.337
52546W        W24861  39.042   5.269  10.718
52547W        W24862  27.063   5.585   2.976
52548W        W24863   3.041  44.732  14.466
52549W        W24864  29.567  26.160   4.225
52550W        W24865   3.914  22.070  12.580
52551W        W24866  26.625   2.671   3.648
52552W        W24867   3.592  28.696  10.603
52553W        W24868  42.253   4.672   1.802
52554W        W24869   2.348  20.180   3.577
52555W        W24870   0.560   7.086  14.997
52556W        W24871  24.146  14.940   4.684
52557W        W24872  37.617  33.620   0.030
52558W        W24873  29.469  28.150  10.758
52559W        W24874  16.294  38.589  10.631
52560W        W24875   4.321  38.388   4.630
52561W        W24876   0.648  18.775   0.825
52562W        W24877  40.729  37.934  12.546
52563W        W24878  22.607  30.424  13.947
52564W        W24879  19.069  34.057   0.386
52565W        W24880  37.516  44.449   1.455
52566W        W24881  20.066   5.247   3.108
52567W        W24882  41.338  19.024  12.801
52568W        W24883   3.974  19.166  13.518
52569W        W24884  26.385  10.649  13.443
52570W        W24885  34.834  23.724  13.029
52571W        W24886   5.481  43.893  13.099
52572W        W24887   9.142  40.323   3.255
52573W        W24888   4.473  14.922   4.013
52574W        W24889  38.620  31.568  12.473
52575W        W24890  25.992  33.479  10.840
52576W        W24891   0.378   9.766   3.848
52577W        W24892  15.198  23.171   2.695
52578W        W24893  36.909   8.284   2.823
52579W        W24894  17.141   4.166   1.769
52580W        W24895  34.825  15.515   1.792
52581W        W24896  42.257   7.783  10.347
52582W        W24897  17.701  28.264   0.554
52583W        W24898  25.224  28.090  14.854
52584W        W24899  44.877  32.396   0.023
52585W        W24900  21.089  32.977   0.728
52586W        W24901  14.325  33.493   0.245
52587W        W24902   3.671  11.457  12.019
52588W        W24903  29.245  18.536   0.315
52589W        W24904  31.124   5.444  13.000
52590W        W24905  23.544   9.112   4.152
52591W        W24906   7.374  31.928  10.739
52592W        W24907  37.781   4.412  10.354
52593W        W24908  35.125  32.017   3.243
52594W        W24909  12.478  33.026  14.493
52595W        W24910  33.807  33.486  11.968
52596W        W24911   2.099  22.974   4.703
52597W        W24912   3.822  10.421   0.642
52598W        W24913  22.090   3.749  10.923
52599W        W24914  35.506  17.041   0.412
52600W        W24915  10.709  29.964   2.284
52601W        W24916  26.242  44.261  10.962
52602W        W24917  33.174  31.221   0.387
52603W        W24918  24.194  22.350  14.762
52604W        W24919  39.972  41.903   2.864
52605W        W24920  40.376  18.795   4.520
52606W        W24921  24.288   9.455   3.696
52607W        W24922  11.194   9.182  14.948
52608W        W24923   2.943  10.661   2.918
52609W        W24924  13.169  26.227   3.357
52610W        W24925  23.624  35.040  13.590
52611W        W24926   3.270  12.283   2.409
52612W        W24927  22.145  38.746  14.871
52613W        W24928  31.381   3.814  13.410
52614W        W24929   0.750   2.360   4.500
52615W        W24930  43.320   4.396   1.283
52616W        W24931  27.008  21.209  14.929
52617W        W24932  33.722  32.638  12.575
52618W        W24933   5.919  33.081   0.020
52619W        W24934  16.108  33.860   2.342
52620W        W24935  42.406   7.845   3.847
52621W        W24936  10.323  14.346   4.114
52622W        W24937  22.570  35.968   1.212
52623W        W24938  19.952  37.605  11.015
52624W        W24939  17.846  34.508  12.349
52625W        W24940  33.428  10.771  14.883
52626W        W24941  19.616  36.953   1.487
52627W        W24942   7.830  19.120   3.381
52628W        W24943   2.695  12.872  13.928
52629W        W24944  19.722  36.993   0.002
52630W        W24945  14.014  33.500   2.760
52631W        W24946  10.864  44.010  12.691
52632W        W24947  39.337  28.233  14.002
52633W        W24948  16.519  28.820  10.736
52634W        W24949  26.995  33.991   4.946
52635W        W24950  36.949  44.108  10.909
52636W        W24951  33.064  23.134   0.661
52637W        W24952  43.243  21.995   2.794
52638W        W24953  13.334  15.277   0.455
52639W        W24954  24.969  35.462  12.048
52640W        W24955  23.917  42.363  12.450
52641W        W24956  41.943  43.470  11.576
52642W        W24957  28.169  18.279   0.811
52643W        W24958  14.836  42.033   0.898
52644W        W24959  16.450  24.375  11.488
52645W        W24960   1.429   7.512  11.947
52646W        W24961  33.304  12.607  11.206
52647W        W24962  36.155  26.636   1.783
52648W        W24963   5.787  27.481  14.826
52649W        W24964  22.284  18.313  11.028
52650W        W24965  25.971  22.107   0.434
52651W        W24966  33.959  18.501  11.660
52652W        W24967  12.023  34.334  14.545
52653W        W24968  27.945   1.904  11.241
52654W        W24969   8.584  24.598   4.740
52655W        W24970  35.915  40.198   0.058
52656W        W24971   4.058  40.267   0.692
52657W        W24972  18.283  43.352  14.226
52658W        W24973  25.939  34.126   3.349
52659W        W24974  44.374  38.955  10.434
52660W        W24975  28.115  44.360  14.406
52661W        W24976  29.388   5.295   4.816
52662W        W24977   4.690  40.480  10.751
52663W        W24978  44.579  29.069   4.623
52664W        W24979  26.673  18.273  10.316
52665W        W24980  37.146   8.119  14.313
52666W        W24981   8.912  13.790  14.059
52667W        W24982  33.113   7.946  12.273
52668W        W24983  29.971  34.067  11.201
52669W        W24984   0.249  22.698  12.953
52670W        W24985  25.171  41.243  11.146
52671W        W24986  12.924  22.494   3.204
52672W        W24987  17.623   6.671   2.384
52673W        W24988  34.599  27.775  10.935
52674W        W24989  36.925  27.182   2.588
52675W        W24990   8.909  16.328  13.935
52676W        W24991  15.493  19.177  12.125
52677W        W24992  19.207  24.322   2.789
52678W        W24993  33.574  31.917  14.279
52679W        W24994  26.583  37.058  13.911
52680W        W24995  43.234  16.805  14.025
52681W        W24996  34.221   1.902   2.681
52682W        W24997  29.553   3.174  14.054
52683W        W24998  38.509  41.252  14.274
52684W        W24999   3.847  24.580   4.511
52685W        W25000  27.556   1.873   4.490
52686W        W25001  26.170  30.157   3.661
52687W        W25002   2.479  36.534  14.799
52688W        W25003  14.747  26.340   4.072
52689W        W25004   3.662  35.520   4.432
52690W        W25005  40.015  13.399   2.157
52691W        W25006  17.824   8.697   3.216
52692W        W25007  35.703  37.304  12.824
52693W        W25008   4.290   0.900   1.397
52694W        W25009  31.493  17.371   0.236
52695W        W25010  11.202  13.849   1.313
52696W        W25011  17.478  17.170  13.874
52697W        W25012  36.812  40.534  14.071
52698W        W25013   4.717  14.210   0.435
52699W        W25014  29.534   7.279   0.669
52700W        W25015  30.282  42.481   3.363
52701W        W25016  24.137  21.546  10.169
52702W        W25017  42.497  18.468   4.466
52703W        W25018  27.406  41.064  13.552
52704W        W25019  12.209   6.429  13.420
52705W        W25020  20.796   0.951   1.931
52706W        W25021  30.501  11.108  14.845
52707W        W25022  12.927  30.536   2.406
52708W        W25023  33.559  32.518   1.616
52709W        W25024  18.564  19.562   0.032
52710W        W25025  31.691  40.878  11.926
52711W        W25026  40.952  29.651   3.753
52712W        W25027  18.810  16.072   0.978
52713W        W25028  34.585   6.217  14.105
52714W        W25029  38.636  17.571   2.513
52715W        W25030  44.541  23.961  13.214
52716W        W25031   8.702  25.291  13.851
52717W        W25032   7.706  21.628  14.019
52718W        W25033  19.552   9.686  10.562
52719W        W25034  44.641   8.142  14.585
52720W        W25035   0.359  21.206  11.638
52721W        W25036  24.328   6.108  10.632
52722W        W25037  18.086  40.420   1.814
52723W        W25038  32.149  32.216   1.771
52724W        W25039  32.127  15.201   3.817
52725W        W25040   7.335  37.862   1.856
52726W        W25041  38.288  18.141  13.896
52727W        W25042  33.096   1.018   4.650
52728W        W25043  27.942  26.121   4.667
52729W        W25044  21.145  39.051   2.129
52730W        W25045  12.815  14.972  14.506
52731W        W25046  31.008  11.530   1.806
52732W        W25047  31.986  17.578  14.506
52733W        W25048  42.795  17.671  12.985
52734W        W25049  36.519  44.360   4.412
52735W        W25050  21.290  38.967   3.697
52736W        W25051  21.707  36.620   2.174
52737W        W25052   2.142  41.446   1.369
52738W        W25053  17.466  40.898   0.380
52739W        W25054   8.272  34.915  14.751
52740W        W25055  34.144   7.169  13.365
52741W        W25056  10.173  33.067  13.405
52742W        W25057  28.429   9.291  13.511
52743W        W25058  18.383  23.611  11.356
52744W        W25059  11.095  19.649   2.652
52745W        W25060  20.256  17.388  11.127
52746W        W25061  26.166  44.467  11.435
52747W        W25062   0.965   4.933   0.425
52748W        W25063  18.516  36.603  14.091
52749W        W25064  31.057  23.100  13.816
52750W        W25065  35.483  23.821   4.290
52751W        W25066  14.103   4.713  12.853
52752W        W25067  22.077  18.467   3.155
52753W        W25068  31.093   4.747  13.737
52754W        W25069  44.046  19.801  12.473
52755W        W25070  34.942  16.160   4.573
52756W        W25071  33.040  29.547   3.690
52757W        W25072  12.315  31.930  12.367
52758W        W25073   0.452  14.051   2.540
52759W        W25074  32.976   7.803   0.504
52760W        W25075  17.024  35.270   2.697
52761W        W25076   8.162  38.929   4.009
52762W        W25077  18.511  29.907   1.261
52763W        W25078  20.756  22.980   1.792
52764W        W25079  25.492  30.466   4.140
52765W        W25080  42.330  44.014   1.307
52766W        W25081  10.867  15.553  12.688
52767W        W25082  29.873  21.064  11.157
52768W        W25083  28.150  44.626  12.130
52769W        W25084  32.676  19.933  13.582
52770W        W25085  36.990  40.259  13.357
52771W        W25086  20.213  16.130  10.665
52772W        W25087  17.228  10.132  13.036
52773W        W25088  35.814  43.399  12.434
52774W        W25089  40.231  14.636   2.567
52775W        W25090  43.277  12.666   4.440
52776W        W25091  18.578  18.210  12.914
52777W        W25092  13.118  27.959  13.941
52778W        W25093   6.140  26.475   2.930
52779W        W25094   4.262  22.043   4.108
52780W        W25095  12.529  42.143  11.865
52781W        W25096  12.726  33.930  13.998
52782W        W25097  38.404  28.161  13.913
52783W        W25098  10.273  23.085  12.412
52784W        W25099   0.544  35.976   4.957
52785W        W25100  38.429  44.054  14.807
52786W        W25101  26.090   2.409  11.962
52787W        W25102  42.865  11.162   4.370
52788W        W25103  21.589   5.970  13.337
52789W        W25104  28.665   6.886   0.228
52790W        W25105  23.490  44.418  14.705
52791W        W25106  44.487  33.462   3.326
52792W        W25107  19.816  25.894   2.144
52793W        W25108  36.614  42.331   2.712
52794W        W25109   7.201  18.738   2.301
52795W        W25110   7.811  25.286   3.721
52796W        W25111   7.853  21.967   4.856
52797W        W25112  44.565  27.134  13.674
52798W        W25113  31.025  36.374  13.720
52799W        W25114   1.975  16.202   0.379
52800W        W25115  43.414  35.346   1.800
52801W        W25116   1.721  15.594   2.260
52802W        W25117  18.540   0.685   1.981
52803W        W25118  30.488  21.124  14.906
52804W        W25119  27.598  33.821   4.092
52805W        W25120  30.557   9.018  13.536
52806W        W25121  40.900  37.749   4.234
52807W        W25122  30.008  14.601   0.497
52808W        W25123   6.917  32.836   0.288
52809W        W25124  15.326  16.698   2.472
52810W        W25125   1.435  37.170  13.485
52811W        W25126  18.174  36.463   2.576
52812W        W25127  24.639  14.765  12.393
52813W        W25128  38.518  42.393  11.112
52814W        W25129  39.837  19.829   4.342
52815W        W25130   8.399  32.691  12.405
52816W        W25131   2.449   9.476  12.269
52817W        W25132  38.990  14.127   1.568
52818W        W25133   3.912   3.203  11.125
52819W        W25134   4.384  16.404   4.176
52820W        W25135  30.104   5.741   1.939
52821W        W25136  29.973  18.527  11.807
52822W        W25137  14.202  31.564  11.883
52823W        W25138  25.249  27.085  14.741
52824W        W25139  24.830  22.485  13.182
52825W        W25140   9.929  44.916  10.693
52826W        W25141  30.173  43.723  12.647
52827W        W25142  22.845  19.997  10.282
52828W        W25143  29.506  14.914  13.384
52829W        W25144  33.512  20.853   3.258
52830W        W25145  26.771  42.862  14.455
52831W        W25146   4.690   1.258  12.375
52832W        W25147  31.894  28.241  12.153
52833W        W25148  13.082   9.918   3.231
52834W        W25149   5.896  30.118  10.462
52835W        W25150  17.888   3.434  12.209
52836W        W25151  25.424  38.600   3.259
52837W        W25152  11.691  37.549  12.878
52838W        W25153   2.144   1.373   2.216
52839W        W25154   0.402  39.445  13.829
52840W        W25155  32.698  32.062  13.919
52841W        W25156   3.558  27.877  11.920
52842W        W25157  33.611  12.229  11.381
52843W        W25158   9.761  37.174  13.580
52844W        W25159  40.189  28.593   4.797
52845W        W25160  13.337  21.748   1.271
52846W        W25161  30.608   2.272  11.679
52847W        W25162  19.677  31.635  14.594
52848W        W25163  30.916   6.464  13.031
52849W        W25164   1.884  22.311  12.470
52850W        W25165  44.839  27.064   3.105
52851W        W25166   1.361  38.864   1.278
52852W        W25167  25.037  38.127   0.850
52853W        W25168   8.844  38.064   0.706
52854W        W25169  41.579  32.280  11.517
52855W        W25170   7.636  17.297   4.121
52856W        W25171  16.624   3.669  12.611
52857W        W25172  13.981  11.611  11.543
52858W        W25173  44.772  42.737  11.535
52859W        W25174  17.363  33.800   0.014
52860W        W25175  22.106  24.732  13.430
52861W        W25176  33.923   7.640   2.154
52862W        W25177  38.526  42.039   4.230
52863W        W25178  43.919  12.351   5.581
52864W        W25179  29.622  28.043   2.515
52865W        W25180  40.848   5.574   2.149
52866W        W25181  42.967  38.169  12.515
52867W        W25182   5.141   7.212  14.272
52868W        W25183   4.254  29.840   2.818
52869W        W25184  42.130  19.584   1.232
52870W        W25185  43.889   6.950   3.240
52871W        W25186  37.337  26.934  11.510
52872W        W25187  22.791  42.980  11.773
52873W        W25188  10.234  23.128   1.631
52874W        W25189   0.506  31.879   1.071
52875W        W25190   9.370  30.512   4.521
52876W        W25191  12.579   3.601  10.683
52877W        W25192  21.769   1.834   1.658
52878W        W25193  37.962  35.912   4.421
52879W        W25194  16.659  21.922   0.743
52880W        W25195  28.346   3.453   3.173
52881W        W25196  32.190  24.082  11.931
52882W        W25197  15.202  38.232   3.240
52883W        W25198   4.393  10.599   4.122
52884W        W25199  39.059  22.743  10.646
52885W        W25200   6.095  13.184   0.916
52886W        W25201  20.576  17.740   4.093
52887W        W25202  13.838   2.438  14.004
52888W        W25203  44.389   6.489   0.788
52889W        W25204  10.149  18.025   4.465
52890W        W25205  29.118  21.276   1.723
52891W        W25206  41.587  10.737  12.511
52892W        W25207   5.348  28.166   2.573
52893W        W25208  16.087  37.081   1.898
52894W        W25209  10.276  38.374   2.672
52895W        W25210  43.101  43.134   4.206
52896W        W25211  42.541  38.743  10.569
52897W        W25212  12.850   6.115  11.726
52898W        W25213  35.355  41.007  13.164
52899W        W25214  10.277  41.106   2.639
52900W        W25215  29.235   3.416   0.324
52901W        W25216  31.546   3.782   1.311
52902W        W25217  42.486  25.543   0.215
52903W        W25218  27.139  25.719  14.862
52904W        W25219  38.948  41.780  10.970
52905W        W25220   4.042  27.201  10.663
52906W        W25221  21.934   2.760   0.401
52907W        W25222  27.576  24.256  12.945
52908W        W25223  33.819  37.340  14.596
52909W        W25224  25.362  23.136   4.589
52910W        W25225  24.708  10.116   4.787
52911W        W25226  30.917  33.193  13.350
52912W        W25227  39.928  21.956   1.696
52913W        W25228  24.176  42.847  12.556
52914W        W25229  44.568   0.265  13.672
52915W        W25230  21.813   6.671  14.503
52916W        W25231   5.471  33.813  13.844
52917W        W25232  14.274  13.850  12.898
52918W        W25233   9.872  16.260  13.457
52919W        W25234  20.208  43.658   4.757
52920W        W25235  25.552  19.223  14.900
52921W        W25236  20.352  19.054  13.287
52922W        W25237  12.287   2.660   0.417
52923W        W25238  33.516  38.610   2.678
52924W        W25239  34.849   8.443  11.911
52925W        W25240  43.542  16.552  10.980
52926W        W25241  35.047  25.137   3.682
52927W        W25242   6.507  42.787  13.894
52928W        W25243   2.741  35.468   0.988
52929W        W25244   6.374  18.317   3.627
52930W        W25245  32.559   5.242   0.301
52931W        W25246  11.855  26.630  11.556
52932W        W25247   7.173  19.519   4.215
52933W        W25248  36.570  25.442  11.053
52934W        W25249  26.387  34.906   3.811
52935W        W25250  25.933  36.111   4.033
52936W        W25251   4.931  18.431   4.651
52937W        W25252  22.228   9.690   3.389
52938W        W25253  12.322  32.605   1.811
52939W        W25254  11.972  20.509   2.115
52940W        W25255  22.290   1.371  14.071
52941W        W25256   3.156   3.402   1.347
52942W        W25257   2.416  29.752   1.475
52943W        W25258  26.149   5.304  10.354
52944W        W25259  27.417  20.003   3.289
52945W        W25260  44.118   9.202  10.187
52946W        W25261   5.691   4.031   1.707
52947W        W25262  17.551  44.463   0.278
52948W        W25263  25.661  28.948   0.628
52949W        W25264  16.534  41.939   1.621
52950W        W25265  42.052   2.205  12.634
52951W        W25266  23.061  41.589   3.173
52952W        W25267   2.532  24.596  12.327
52953W        W25268  32.221  21.571   3.349
52954W        W25269  32.652  29.678  13.188
52955W        W25270  32.795  40.390  13.585
52956W        W25271   3.381  39.608   1.190
52957W        W25272  35.320   2.266   0.458
52958W        W25273   9.175   7.193   0.391
52959W        W25274  36.089  41.260   4.830
52960W        W25275   7.947  38.086   4.246
52961W        W25276  34.102  17.869   1.345
52962W        W25277  33.387   4.698   1.718
52963W        W25278  18.668  34.152  13.848
52964W        W25279  22.631  25.751   0.414
52965W        W25280  40.141  33.958  13.606
52966W        W25281  32.315  37.727  12.104
52967W        W25282  23.007  40.339  13.836
52968W        W25283  13.668  28.409   3.393
52969W        W25284  34.841  31.107  14.238
52970W        W25285  33.636  42.894   1.496
52971W        W25286   2.457   5.687  11.744
52972W        W25287  28.697  30.997   3.010
52973W        W25288  14.683  13.640   2.875
52974W        W25289  44.075  18.135  12.939
52975W        W25290   7.590  15.674   3.346
52976W        W25291  11.080   9.710   0.776
52977W        W25292   8.736  39.718  11.685
52978W        W25293  35.817   1.957  11.458
52979W        W25294  11.448   3.518  11.146
52980W        W25295  44.291   3.436   4.653
52981W        W25296  38.138  21.688  12.554
52982W        W25297   6.491  25.248   1.971
52983W        W25298  27.503  26.856  10.949
52984W        W25299  18.812  27.720   3.339
52985W        W25300  26.172  27.578   2.481
52986W        W25301  24.783  23.731   3.192
52987W        W25302  24.460  42.795  11.590
52988W        W25303  32.450  22.267   0.059
52989W        W25304  40.690  18.205  10.986
52990W        W25305  10.280  11.653  10.714
52991W        W25306  43.786  27.599   0.352
52992W        W25307  39.758  14.685   3.904
52993W        W25308  39.348  36.558  11.620
52994W        W25309  29.476  20.498   0.660
52995W        W25310   3.226   5.755   0.435
52996W        W25311   3.733  43.832  12.060
52997W        W25312  19.653  26.986   4.444
52998W        W25313  32.938  10.877   0.768
52999W        W25314  43.543  38.469   1.312
53000W        W25315  36.577  30.635   2.265
53001W        W25316  26.580   9.299  11.430
53002W        W25317  26.246   3.935  11.451
53003W        W25318  28.643  43.231  10.791
53004W        W25319  13.593   5.653   4.003
53005W        W25320  20.246  44.673   4.623
53006W        W25321  16.326  24.005  11.823
53007W        W25322   3.690  44.267   2.211
53008W        W25323  42.827  12.736   1.216
53009W        W25324  41.265   6.185   4.629
53010W        W25325  33.527   8.358  14.411
53011W        W25326  36.125   2.814   0.239
53012W        W25327   9.748  22.026  12.182
53013W        W25328  19.058   8.421  10.261
53014W        W25329  42.238  39.952   3.625
53015W        W25330  38.382  31.618  10.977
53016W        W25331  30.945  40.190  14.908
53017W        W25332   7.105  24.503   4.511
53018W        W25333  37.376   7.433   0.954
53019W        W25334  30.056  28.025   1.547
53020W        W25335  12.700  25.170   4.136
53021W        W25336   4.519  27.961   0.997
53022W        W25337  11.942  22.091   0.996
53023W        W25338  44.260   7.127  11.886
53024W        W25339   4.205  16.990  10.652
53025W        W25340  20.768  22.164  11.365
53026W        W25341   3.369  35.410  14.845
53027W        W25342   7.265  42.962   0.757
53028W        W25343  40.750  30.472  10.528
53029W        W25344  10.260   2.764   3.812
53030W        W25345  15.379  40.279   4.166
53031W        W25346   9.380  39.344   1.394
53032W        W25347  40.835  37.302  14.463
53033W        W25348  10.889  26.220   0.328
53034W        W25349   7.324  19.803   2.893
53035W        W25350  30.349   9.214   1.338
53036W        W25351   2.192  37.000  14.968
53037W        W25352  31.582  22.678  12.136
53038W        W25353   3.331  34.484   3.747
53039W        W25354  40.517  29.694  13.849
53040W        W25355  20.062  44.038   3.768
53041W        W25356  31.048  37.760   2.257
53042W        W25357  35.409   6.326   4.116
53043W        W25358   3.875  44.708   0.488
53044W        W25359  30.696  34.088  13.565
53045W        W25360   6.164  11.728   2.824
53046W        W25361  29.583  30.929   4.501
53047W        W25362   4.159  22.645  11.561
53048W        W25363  11.260  17.259   4.055
53049W        W25364  28.451   1.907  12.999
53050W        W25365  35.130  26.190   1.387
53051W        W25366  41.654  41.711  10.292
53052W        W25367  43.861  33.725  13.531
53053W        W25368  25.521   1.033  14.267
53054W        W25369  34.507  12.628   2.476
53055W        W25370  22.191  41.888  10.749
53056W        W25371   3.641  19.013  14.745
53057W        W25372  33.031  37.293   0.689
53058W        W25373   4.173  36.351  13.479
53059W        W25374  33.957  43.243   2.739
53060W        W25375  16.757  10.377  14.770
53061W        W25376  26.080  28.691   2.387
53062W        W25377  38.262  14.843   3.528
53063W        W25378   9.850  23.066  13.195
53064W        W25379   5.471  22.782  13.846
53065W        W25380  17.536  40.568  12.510
53066W        W25381  24.478  33.107   0.178
53067W        W25382   3.480   8.921  12.439
53068W        W25383  10.610   3.293  13.429
53069W        W25384  29.414  23.698   4.070
53070W        W25385  20.073  38.320   1.669
53071W        W25386  24.307  31.632   3.747
53072W        W25387  42.376  11.817   1.679
53073W        W25388  13.715  14.720  11.191
53074W        W25389  32.154  33.419  13.936
53075W        W25390  16.659  14.048  14.783
53076W        W25391  36.439   5.017   1.193
53077W        W25392  29.555  32.198   0.320
53078W        W25393  11.428  29.860  12.376
53079W        W25394  40.523   4.346  11.080
53080W        W25395   3.340   6.459   4.112
53081W        W25396  31.571  15.868   3.244
53082W        W25397  15.604  42.571  13.149
53083W        W25398   3.000  34.114  11.418
53084W        W25399  24.461  25.659   2.732
53085W        W25400  29.589  44.757  11.378
53086W        W25401  40.370   5.973   4.309
53087W        W25402  38.606  25.458   5.133
53088W        W25403  16.638   0.515   4.254
53089W        W25404  35.841   3.367  11.499
53090W        W25405   1.397  20.502   2.890
53091W        W25406   5.408  36.109   3.749
53092W        W25407  39.460  36.008  12.895
53093W        W25408  29.459  25.941  12.100
53094W        W25409   3.315  43.893   2.080
53095W        W25410  37.118  18.651  10.948
53096W        W25411  22.126  41.514   2.540
53097W        W25412  32.496  32.843   4.080
53098W        W25413  21.762  13.487  11.581
53099W        W25414   9.557  22.676   2.632
53100W        W25415  25.026  16.378  11.653
53101W        W25416  41.868  11.693   2.989
53102W        W25417  32.103  29.164  13.955
53103W        W25418  27.577   6.706   5.021
53104W        W25419  19.596  38.786  12.596
53105W        W25420   2.024  17.407   4.350
53106W        W25421  22.517   9.976   3.724
53107W        W25422   3.449  12.625   1.243
53108W        W25423  37.433  23.101  13.525
53109W        W25424  38.419  21.733   0.455
53110W        W25425  23.628  13.886   3.240
53111W        W25426  40.540   7.384   4.415
53112W        W25427   4.537  23.755   1.243
53113W        W25428  35.125  21.102   1.300
53114W        W25429   1.811  19.115   2.195
53115W        W25430  21.656  30.493  14.779
53116W        W25431  37.090  24.543   3.494
53117W        W25432   3.759  32.030   4.117
53118W        W25433  21.689  20.523  14.808
53119W        W25434  42.920  26.840  11.290
53120W        W25435   4.822  21.799   2.709
53121W        W25436  17.847   0.386   4.611
53122W        W25437  21.957  40.816   2.851
53123W        W25438  23.239  39.121  12.569
53124W        W25439  32.243  21.612  13.317
53125W        W25440  24.210  15.282   3.307
53126W        W25441  19.699  38.128   0.057
53127W        W25442  40.035  29.051   2.709
53128W        W25443  37.524  24.645   3.890
53129W        W25444  34.511   3.873  13.544
53130W        W25445  41.058  38.377  12.101
53131W        W25446  27.105  43.766  10.992
53132W        W25447  13.313  18.299  12.387
53133W        W25448  29.072   1.502  11.186
53134W        W25449  44.248  42.237  13.036
53135W        W25450  20.501  37.266  13.900
53136W        W25451   6.167  14.031  13.372
53137W        W25452  26.063  37.846  11.998
53138W        W25453  32.400  34.564  14.355
53139W        W25454  10.290  36.942  10.827
53140W        W25455  44.791  37.061   3.234
53141W        W25456  16.719  11.638   0.488
53142W        W25457  36.845   0.102   4.127
53143W        W25458  25.285  44.281  13.052
53144W        W25459  29.404  33.153   1.647
53145W        W25460  43.919  31.132   4.172
53146W        W25461  28.064  22.144  13.411
53147W        W25462   2.658  28.959   0.719
53148W        W25463  27.609  37.329   1.475
53149W        W25464  40.772  30.569   3.918
53150W        W25465  26.213   2.320   2.125
53151W        W25466  10.683   4.627   4.121
53152W        W25467  36.069   8.695  11.023
53153W        W25468  24.299  10.832  13.887
53154W        W25469  11.887   8.614   2.587
53155W        W25470  37.936   4.712  13.747
53156W        W25471  44.467  35.616   2.876
53157W        W25472  13.598   2.891  14.069
53158W        W25473  32.749  40.718   1.448
53159W        W25474  10.811  12.818  13.938
53160W        W25475   5.901   2.286  13.915
53161W        W25476   7.842  22.047  14.828
53162W        W25477  20.652  19.243   1.388
53163W        W25478   5.113  15.170  10.790
53164W        W25479  31.621  43.223  10.871
53165W        W25480  37.105   4.011   4.832
53166W        W25481  12.882   5.775  10.906
53167W        W25482  42.949   3.866  11.568
53168W        W25483   7.320  13.842   0.898
53169W        W25484  35.842  24.658  14.790
53170W        W25485  16.210  16.318   3.899
53171W        W25486  41.926   2.608   0.152
53172W        W25487  21.094  27.121   0.331
53173W        W25488  38.436   3.869   2.499
53174W        W25489  31.052   1.359   3.271
53175W        W25490  38.621  39.688  13.823
53176W        W25491  17.177  23.199   1.828
53177W        W25492  26.476  29.005  13.966
53178W        W25493  19.234  15.125  11.910
53179W        W25494  24.350  26.588  14.868
53180W        W25495  37.662  32.899  14.432
53181W        W25496  15.333  40.523  14.324
53182W        W25497   6.661  23.096   2.847
53183W        W25498   4.906  34.648  13.471
53184W        W25499   9.123  33.403   0.387
53185W        W25500   7.266   1.218  14.812
53186W        W25501  22.507  19.692  12.862
53187W        W25502  23.172  32.335  12.051
53188W        W25503  32.911   9.274   2.409
53189W        W25504  23.063  30.911  14.836
53190W        W25505  39.446  28.521  11.026
53191W        W25506   5.292   4.896   0.470
53192W        W25507  29.443  32.466   3.241
53193W        W25508  28.653  43.510  14.623
53194W        W25509   5.730  35.617  13.363
53195W        W25510  21.123  36.518   3.093
53196W        W25511  27.216   4.760  14.396
53197W        W25512  35.088   5.809   2.814
53198W        W25513   1.513  31.675   2.623
53199W        W25514  23.381  14.642  11.905
53200W        W25515  41.156   2.948   1.306
53201W        W25516  23.933  10.222   5.092
53202W        W25517  19.279  43.816   4.014
53203W        W25518  44.307  29.319   0.982
53204W        W25519   0.299  20.807   4.315
53205W        W25520   5.328  17.503   0.727
53206W        W25521  41.201   7.961   4.096
53207W        W25522  38.875  41.745   0.754
53208W        W25523   8.396  39.841   3.616
53209W        W25524  10.876  35.078   4.530
53210W        W25525  34.325  18.492  10.534
53211W        W25526  14.765  43.052   2.253
53212W        W25527  34.814  11.238   4.149
53213W        W25528  34.485  32.144   0.828
53214W        W25529   4.466  10.202  14.895
53215W        W25530  19.722   6.155  10.768
53216W        W25531  40.124  33.643   4.109
53217W        W25532  20.734  38.612   2.281
53218W        W25533  41.103  11.810   0.755
53219W        W25534  16.846  21.163   2.924
53220W        W25535   0.659  43.869  11.775
53221W        W25536   5.738   3.950  13.367
53222W        W25537  16.050  11.922  13.522
53223W        W25538  37.458  28.542   3.793
53224W        W25539  28.661  20.247   0.886
53225W        W25540  26.730  23.882   0.182
53226W        W25541   8.879  31.429  13.468
53227W        W25542   2.880  23.089  10.704
53228W        W25543  11.678  34.890  12.412
53229W        W25544  39.143   0.995  10.730
53230W        W25545  22.661   5.187   1.250
53231W        W25546  35.806   4.734  11.399
53232W        W25547  21.507  10.906   1.848
53233W        W25548  32.926  15.271  10.536
53234W        W25549  19.174  28.551   1.231
53235W        W25550   8.017  38.248   2.554
53236W        W25551  20.973  36.349  12.816
53237W        W25552  14.262  39.056   2.312
53238W        W25553  33.571  31.644  14.721
53239W        W25554  11.759  20.339  11.391
53240W        W25555  12.136  35.108  12.416
53241W        W25556  37.359   6.640  12.078
53242W        W25557  26.918  36.594  10.427
53243W        W25558  41.961  36.383  10.578
53244W        W25559   4.930  17.624   5.126
53245W        W25560   3.894  42.476   0.799
53246W        W25561  36.717  27.977   2.224
53247W        W25562   6.970  44.766  12.277
53248W        W25563  28.112  20.288  10.706
53249W        W25564  39.109  40.097  12.185
53250W        W25565  15.306  14.430  10.718
53251W        W25566  29.717   9.308  13.105
53252W        W25567   2.645  25.512  12.360
53253W        W25568  16.522  44.256   0.180
53254W        W25569  18.319  23.750   1.832
53255W        W25570  28.577  40.753   3.649
53256W        W25571  21.768   9.604  13.343
53257W        W25572  20.274  18.468   4.565
53258W        W25573  39.318  37.439   0.708
53259W        W25574  36.192  10.798   1.285
53260W        W25575  22.795  33.133  12.003
53261W        W25576   4.749   9.296  14.448
53262W        W25577   0.731  40.022   2.658
53263W        W25578   0.789  10.240   1.279
53264W        W25579  44.751  24.685   1.376
53265W        W25580  33.523  11.696   2.801
53266W        W25581  29.851  27.602   2.692
53267W        W25582  16.399  25.971   0.361
53268W        W25583  24.535   1.023  12.009
53269W        W25584  14.563  17.270   1.489
53270W        W25585   9.281  22.735   4.868
53271W        W25586   9.309  33.648   2.424
53272W        W25587  21.066  24.681  10.814
53273W        W25588  41.804  13.914  11.429
53274W        W25589   7.251  39.523   1.200
53275W        W25590  43.498  26.762  11.212
53276W        W25591  28.376  35.022  12.037
53277W        W25592  25.982   1.395  11.603
53278W        W25593  17.129  38.266  14.355
53279W        W25594   2.233   6.634   0.283
53280W        W25595  16.288  12.549  12.563
53281W        W25596  20.940   9.653  12.981
53282W        W25597  14.187  33.932  14.536
53283W        W25598  18.783  32.798  14.472
53284W        W25599  15.093   4.882  13.938
53285W        W25600  41.378   1.767   1.674
53286W        W25601  13.575  10.797   3.579
53287W        W25602  38.532   5.380  10.717
53288W        W25603  35.565   7.717   4.109
53289W        W25604  17.257  23.160   3.266
53290W        W25605   6.825  12.116  12.647
53291W        W25606  26.116  11.384   3.203
53292W        W25607  37.740  40.969   0.254
53293W        W25608  17.528   4.399   4.770
53294W        W25609  22.800  33.715  10.162
53295W        W25610   5.396   2.848   2.379
53296W        W25611   5.800  41.039  14.432
53297W        W25612  37.121  42.483  11.396
53298W        W25613  22.698  37.371   1.923
53299W        W25614   9.735  33.710   2.711
53300W        W25615  11.138   2.132  13.964
53301W        W25616  40.844  40.540  11.628
53302W        W25617  33.546   6.725   4.962
53303W        W25618  14.057  12.874  11.046
53304W        W25619  22.042  13.425  14.883
53305W        W25620   7.082   1.858  13.291
53306W        W25621  33.845  38.816   1.723
53307W        W25622   1.433  23.673  11.622
53308W        W25623  14.116  33.334   3.725
53309W        W25624  10.453  17.731  13.960
53310W        W25625  36.080  11.434  14.371
53311W        W25626  28.422  25.869   0.899
53312W        W25627  17.762  23.781   3.922
53313W        W25628   9.611  13.521   2.334
53314W        W25629  37.866  17.765   9.975
53315W        W25630  18.543  35.968  13.440
53316W        W25631  22.373  27.062  10.961
53317W        W25632  23.010  12.777  14.364
53318W        W25633  37.418  22.568   2.661
53319W        W25634  41.471  17.632   0.258
53320W        W25635  12.157  14.325  12.170
53321W        W25636   7.179  36.463  10.874
53322W        W25637   4.877  18.078  13.389
53323W        W25638  36.920  39.989   4.582
53324W        W25639  26.483  40.591  12.850
53325W        W25640  19.669  31.087   1.262
53326W        W25641   1.553  35.172  10.736
53327W        W25642  10.833  12.430   4.117
53328W        W25643  23.424  28.402   0.855
53329W        W25644  23.110  39.061  14.411
53330W        W25645   8.124  25.699   2.657
53331W        W25646  24.795   4.934  11.170
53332W        W25647  14.888  44.898   4.151
53333W        W25648  39.386  12.141  10.787
53334W        W25649   9.159  30.359  12.163
53335W        W25650  28.725  23.036   1.217
53336W        W25651  38.319  25.460  13.660
53337W        W25652   8.735  11.580   2.406
53338W        W25653  29.608   0.310   4.662
53339W        W25654   0.223  37.109  10.255
53340W        W25655  13.641  14.154  13.800
53341W        W25656   4.966  17.701  13.764
53342W        W25657  28.910  30.909  11.990
53343W        W25658  36.638  37.458  14.795
53344W        W25659  24.946  39.789  11.688
53345W        W25660  10.886  35.570  14.554
53346W        W25661  20.196  24.457   1.254
53347W        W25662  42.947   6.660   2.997
53348W        W25663   6.521  21.388   5.074
53349W        W25664  32.917  39.034  12.567
53350W        W25665  30.893  17.275  12.094
53351W        W25666  40.945  37.202   1.289
53352W        W25667  16.215   6.863  11.014
53353W        W25668  13.771  34.031   3.615
53354W        W25669  28.458  26.632   0.519
53355W        W25670  11.750  34.150  14.959
53356W        W25671  16.695   9.322  13.742
53357W        W25672  18.524   3.271   4.643
53358W        W25673  35.487   3.247  13.810
53359W        W25674   6.484  19.006  12.127
53360W        W25675  29.412  43.193  12.361
53361W        W25676  38.074  29.830  10.868
53362W        W25677  41.007  38.335   0.441
53363W        W25678  28.928  38.265   2.339
53364W        W25679  10.871  19.250   4.648
53365W        W25680  32.718  18.097  11.497
53366W        W25681   9.589  35.133   1.407
53367W        W25682  11.207  35.579  14.983
53368W        W25683  37.829  33.517   1.855
53369W        W25684  18.505   1.385  14.881
53370W        W25685  37.351  30.895  11.164
53371W        W25686   4.877  27.754   1.301
53372W        W25687  14.677  42.718  13.548
53373W        W25688  18.763  38.424   4.983
53374W        W25689  36.519  36.449   1.694
53375W        W25690  26.232   2.876  14.686
53376W        W25691  17.139  27.946   4.132
53377W        W25692  39.936  19.017   2.302
53378W        W25693  30.405  30.119  11.717
53379W        W25694   7.734  12.885   0.155
53380W        W25695  23.217  28.467  13.481
53381W        W25696  34.250  16.027   2.780
53382W        W25697  21.987   0.857   3.231
53383W        W25698  23.221  36.848   4.138
53384W        W25699   6.524  21.596   0.732
53385W        W25700   4.034  10.173   3.363
53386W        W25701  40.101  20.737   1.375
53387W        W25702  14.245  24.516  14.283
53388W        W25703   8.396   1.812  12.831
53389W        W25704  14.738  12.294   1.826
53390W        W25705  20.688  18.234  14.483
53391W        W25706  37.470  32.212  14.832
53392W        W25707  21.774   3.275   3.497
53393W        W25708  27.896   5.658  14.349
53394W        W25709  23.562   6.685  12.579
53395W        W25710  25.760  42.956   9.894
53396W        W25711  16.152  23.143  12.741
53397W        W25712  16.819   3.900   3.654
53398W        W25713  14.232   8.699   3.643
53399W        W25714  16.232  36.375  11.598
53400W        W25715  33.283  28.872   1.458
53401W        W25716  29.446  32.702  12.937
53402W        W25717  25.814   6.772   0.103
53403W        W25718   4.847  18.104  12.076
53404W        W25719  32.164  27.511   2.677
53405W        W25720  25.119   8.283   2.861
53406W        W25721   5.167  23.755  13.022
53407W        W25722  14.253  34.800   0.600
53408W        W25723  13.568  42.331   3.264
53409W        W25724   3.872  14.741   2.309
53410W        W25725  27.236  20.226  11.033
53411W        W25726  10.889   1.890  10.633
53412W        W25727   8.230  22.078   2.709
53413W        W25728  29.899   2.799  11.165
53414W        W25729  26.656  16.068  14.418
53415W        W25730  11.165  28.092  11.934
53416W        W25731  23.222   1.896   2.327
53417W        W25732  44.673  35.598   4.034
53418W        W25733  14.924   0.457  14.959
53419W        W25734  29.974  44.737  14.821
53420W        W25735  20.105  23.159   1.250
53421W        W25736  41.503  15.804   1.408
53422W        W25737  19.181  13.446   1.490
53423W        W25738  36.237  31.831   4.730
53424W        W25739  38.891  17.086  12.639
53425W        W25740  42.404  11.638   0.233
53426W        W25741   1.922   8.785  13.676
53427W        W25742  10.105  44.339   4.948
53428W        W25743  23.799  23.671  14.491
53429W        W25744  21.968  34.059   2.204
53430W        W25745  14.478  38.597   3.189
53431W        W25746  19.005  22.165  12.433
53432W        W25747   9.646  39.595  13.381
53433W        W25748  33.590  18.117   1.981
53434W        W25749   7.706   9.991   0.813
53435W        W25750  11.355   2.557  12.953
53436W        W25751  32.766   1.644  14.509
53437W        W25752   3.953  13.576   0.280
53438W        W25753  13.463   9.902   0.306
53439W        W25754  14.850   0.544  13.592
53440W        W25755  37.125   6.768   1.211
53441W        W25756   2.383  16.839   2.731
53442W        W25757  27.850   4.868   4.283
53443W        W25758   5.655  21.572  11.508
53444W        W25759   0.851  20.208   0.677
53445W        W25760  24.506  39.521  13.797
53446W        W25761  33.860   8.084  14.731
53447W        W25762  20.335  16.532   4.197
53448W        W25763  17.233  35.061  13.976
53449W        W25764  37.311   4.122   1.255
53450W        W25765  42.995  16.680  10.505
53451W        W25766   9.849  23.096  10.540
53452W        W25767  41.367  30.218  12.618
53453W        W25768  11.264  42.870  11.944
53454W        W25769  11.704   8.466   9.856
53455W        W25770  36.607  31.154  12.128
53456W        W25771  38.565  34.172  12.916
53457W        W25772  41.366  24.458   1.366
53458W        W25773  19.278   3.731   0.368
53459W        W25774   3.666   4.144  14.465
53460W        W25775   3.877  15.147  14.590
53461W        W25776  15.585  40.931  11.633
53462W        W25777  25.883   2.160   1.750
53463W        W25778  42.008  41.237   3.743
53464W        W25779   0.192  10.812  14.254
53465W        W25780  32.904  16.684  13.838
53466W        W25781  11.994  27.282   1.783
53467W        W25782  17.764  11.659   0.371
53468W        W25783  37.832  20.625  13.822
53469W        W25784   7.748  23.877  12.911
53470W        W25785   3.646   5.918   3.181
53471W        W25786  18.542  14.143   1.378
53472W        W25787  11.847  40.638   4.551
53473W        W25788  15.250  15.566  13.070
53474W        W25789  29.591  21.227   1.951
53475W        W25790  35.673  31.611  12.016
53476W        W25791  21.863  35.408  11.455
53477W        W25792  17.574  12.541   3.263
53478W        W25793   6.338   2.952  14.884
53479W        W25794  24.741  30.711   3.843
53480W        W25795   1.846   6.922   0.487
53481W        W25796  20.814  21.644  11.441
53482W        W25797   0.705  28.012  11.134
53483W        W25798  12.346   5.907  11.569
53484W        W25799  10.802  43.045   3.604
53485W        W25800  15.092  10.592   1.402
53486W        W25801  44.325  36.673  14.423
53487W        W25802  21.598  38.324   3.329
53488W        W25803  17.538  35.995  12.559
53489W        W25804  40.439  11.417   3.265
53490W        W25805  29.560  35.160   4.499
53491W        W25806  43.272  10.727  14.413
53492W        W25807  12.529   2.336  13.821
53493W        W25808  29.442   0.417   0.678
53494W        W25809  31.146  27.666  11.988
53495W        W25810  27.012  19.748  11.073
53496W        W25811  35.970  13.385   0.682
53497W        W25812  11.194   0.567  14.288
53498W        W25813   2.391   6.307  12.118
53499W        W25814  27.027  15.622   4.549
53500W        W25815  43.435  27.896   2.903
53501W        W25816  19.433  33.075  13.813
53502W        W25817  10.694  13.214   4.969
53503W        W25818   6.631   0.160  12.907
53504W        W25819  23.431  11.244   0.088
53505W        W25820  40.931  23.468   2.207
53506W        W25821  37.020   6.212  11.420
53507W        W25822  39.864  43.837   0.689
53508W        W25823  29.590  29.915  13.476
53509W        W25824  25.713   9.277   2.796
53510W        W25825  20.209   7.190  11.946
53511W        W25826  21.678  40.801   2.367
53512W        W25827  43.693  23.263   3.154
53513W        W25828  31.707  32.961   3.887
53514W        W25829   1.539  40.155   1.607
53515W        W25830  31.438   4.275  14.844
53516W        W25831  25.778  35.818  12.882
53517W        W25832  37.864  36.076   0.029
53518W        W25833  40.068  26.605  13.736
53519W        W25834  26.146   3.539   2.647
53520W        W25835  37.548  19.054   3.075
53521W        W25836  28.631   0.219  11.064
53522W        W25837  41.233  25.064  14.442
53523W        W25838  26.021   2.979  11.171
53524W        W25839   2.691  13.664   0.794
53525W        W25840   2.374  44.989  11.071
53526W        W25841  36.295  33.098   1.938
53527W        W25842  12.862  24.141   3.167
53528W        W25843   5.432  37.844  11.546
53529W        W25844  10.801  25.597   3.072
53530W        W25845  15.251  39.787   2.916
53531W        W25846  25.749  18.571   3.158
53532W        W25847  38.031  28.565   3.147
53533W        W25848  28.614  40.104   2.120
53534W        W25849  42.556  29.136  10.647
53535W        W25850  41.297  14.328   1.864
53536W        W25851  22.840  32.512  13.298
53537W        W25852  18.303  10.196   1.283
53538W        W25853  42.335  17.811   0.112
53539W        W25854  36.561   0.737  12.438
53540W        W25855   6.422   2.422   3.546
53541W        W25856  42.987   5.701  11.561
53542W        W25857  36.658  42.893  13.886
53543W        W25858   1.882  43.827  12.834
53544W        W25859  28.464  27.272  12.912
53545W        W25860   7.392  30.730   1.082
53546W        W25861   5.304  19.276   4.621
53547W        W25862  13.833  23.447   1.250
53548W        W25863   2.983  18.483  11.463
53549W        W25864  18.869  36.631   1.265
53550W        W25865  16.811  41.839  14.799
53551W        W25866  25.402  36.623  13.603
53552W        W25867  15.577  34.547  10.754
53553W        W25868   3.051  36.475   4.272
53554W        W25869  28.539  24.882   0.956
53555W        W25870   8.140  19.060   2.363
53556W        W25871  31.436  30.065   1.119
53557W        W25872  23.956  22.249  10.532
53558W        W25873  41.077  27.962  12.436
53559W        W25874  17.805  19.124  13.523
53560W        W25875  44.386  20.198  12.525
53561W        W25876  21.734  16.197   0.407
53562W        W25877  30.710  28.350   4.105
53563W        W25878  21.032  35.564   3.255
53564W        W25879  13.196   5.652   3.055
53565W        W25880  40.316   6.495   5.066
53566W        W25881  12.128  33.854   2.974
53567W        W25882  24.274   9.608  13.215
53568W        W25883  18.809   0.950  13.504
53569W        W25884  44.327  16.884  14.428
53570W        W25885  14.358   7.346  10.601
53571W        W25886  33.465   5.701   2.002
53572W        W25887  26.718  27.529   3.371
53573W        W25888  34.083  26.617   0.866
53574W        W25889   5.628  12.427   2.167
53575W        W25890  32.625  44.029  13.852
53576W        W25891  30.060   5.228  14.358
53577W        W25892  22.585   6.825   1.791
53578W        W25893  39.956  39.640  13.076
53579W        W25894  31.635  26.660  10.582
53580W        W25895  18.665  18.486  10.710
53581W        W25896  30.034  28.038   0.198
53582W        W25897   4.940   7.870  11.009
53583W        W25898  10.803  13.291   0.909
53584W        W25899  34.140  26.415  13.631
53585W        W25900  18.790  12.616   0.213
53586W        W25901  24.024  20.576   1.391
53587W        W25902  22.293  21.104  14.469
53588W        W25903  36.927  41.007   4.829
53589W        W25904  37.056  19.653  13.865
53590W        W25905  19.345  27.738   4.138
53591W        W25906  15.024  23.761  12.148
53592W        W25907  16.741  13.286   0.859
53593W        W25908  37.367  10.361  11.190
53594W        W25909  19.331   4.753   4.090
53595W        W25910   4.453  42.341   1.695
53596W        W25911  18.021   2.914   1.390
53597W        W25912   6.849  30.744   2.466
53598W        W25913  21.312  25.582  11.918
53599W        W25914  42.114  14.884   4.152
53600W        W25915  24.918  10.275  10.540
53601W        W25916  15.567   8.897   4.025
53602W        W25917   4.747  32.444   1.309
53603W        W25918  35.618  11.047  12.636
53604W        W25919   8.514  26.124  12.910
53605W        W25920  37.347  30.073   1.254
53606W        W25921  36.924  20.024  10.672
53607W        W25922  13.396  29.570   1.320
53608W        W25923   6.257   8.731   5.301
53609W        W25924  16.835  25.074   3.347
53610W        W25925  25.149  37.975   2.276
53611W        W25926  28.676   2.325  14.099
53612W        W25927  11.344  21.324   3.342
53613W        W25928  40.028  40.774  12.603
53614W        W25929  27.984  43.366   2.661
53615W        W25930  14.259  32.636   1.151
53616W        W25931  18.678  21.470  12.997
53617W        W25932  26.342  32.831  11.696
53618W        W25933  25.056   8.884  11.602
53619W        W25934  11.912  28.075  14.684
53620W        W25935  27.290   9.059   4.495
53621W        W25936  19.546  43.716  11.195
53622W        W25937  27.592  41.019   1.829
53623W        W25938   2.726  24.750  14.014
53624W        W25939  42.461  39.697   4.039
53625W        W25940  30.604  37.754   2.872
53626W        W25941  31.082  38.598   0.904
53627W        W25942  22.762  38.913   4.450
53628W        W25943  17.203  23.138  11.191
53629W        W25944  28.160  31.575  14.693
53630W        W25945  44.038  40.226  11.205
53631W        W25946  28.710   4.835   0.475
53632W        W25947  16.631  29.487  14.255
53633W        W25948  28.057  38.377  12.433
53634W        W25949  17.165  30.923   2.785
53635W        W25950  13.699  37.387  11.884
53636W        W25951  44.494  23.996   2.431
53637W        W25952  33.364  36.353   2.333
53638W        W25953   8.397  20.558   2.625
53639W        W25954  32.652  14.083  11.137
53640W        W25955  22.524  28.405  13.914
53641W        W25956  13.873  13.213  13.912
53642W        W25957  43.378   7.896  11.555
53643W        W25958  37.839  41.534   3.136
53644W        W25959  37.018  27.445   3.478
53645W        W25960  33.058  34.682  13.207
53646W        W25961   6.568   2.234   0.732
53647W        W25962   1.778  20.795   4.346
53648W        W25963  28.469   6.935   4.614
53649W        W25964   9.240  12.818  13.586
53650W        W25965  34.777  31.372   2.800
53651W        W25966   6.701  32.577  13.981
53652W        W25967  12.744  11.134  14.476
53653W        W25968  11.332  18.197  14.015
53654W        W25969  40.031  26.513   3.131
53655W        W25970  15.836   9.925   0.469
53656W        W25971  41.887  16.586  14.080
53657W        W25972  22.729  35.274   3.185
53658W        W25973  15.136  37.379   1.404
53659W        W25974  44.819  11.376   2.368
53660W        W25975  42.938  17.030   2.777
53661W        W25976  14.704  38.886  14.888
53662W        W25977  20.576  21.050   1.455
53663W        W25978  11.204  43.432   4.678
53664W        W25979  28.239  34.932  14.296
53665W        W25980  13.084   7.044  11.542
53666W        W25981  35.847  16.076  13.233
53667W        W25982  27.983  31.632   2.179
53668W        W25983  11.827  30.103  11.690
53669W        W25984  10.759  29.490   2.448
53670W        W25985  18.136   6.906   2.414
53671W        W25986   2.060  17.556   2.232
53672W        W25987  26.160  40.965  14.948
53673W        W25988  22.236  26.293  12.557
53674W        W25989   1.989  10.550  10.835
53675W        W25990  17.778   2.628  11.185
53676W        W25991   8.989   1.078   2.973
53677W        W25992  31.597  39.057   0.274
53678W        W25993  35.310  32.346  11.083
53679W        W25994   8.412  36.343   1.361
53680W        W25995  39.490   9.680   3.235
53681W        W25996   2.944  25.518   0.309
53682W        W25997  39.906   9.389   1.899
53683W        W25998  18.397  35.486   4.806
53684W        W25999   7.379  36.945   2.795
53685W        W26000  22.691  34.113   4.873
53686W        W26001   8.703  19.558   3.306
53687W        W26002  19.243   5.172   1.859
53688W        W26003  33.028  23.746  14.445
53689W        W26004  26.532   0.305   4.301
53690W        W26005  14.889  25.961  12.115
53691W        W26006  10.200  39.887  12.855
53692W        W26007   4.826   4.479  13.664
53693W        W26008  14.163  36.157   1.884
53694W        W26009  28.690  16.737  14.362
53695W        W26010   7.716   3.080  10.377
53696W        W26011   9.801  39.771  11.972
53697W        W26012   4.836   0.222  12.603
53698W        W26013  28.924  40.280  11.984
53699W        W26014  16.777   9.415  13.216
53700W        W26015  29.998  41.858  11.457
53701W        W26016  40.966  35.142   0.933
53702W        W26017  39.509  19.786   0.250
53703W        W26018  31.546  22.072  13.583
53704W        W26019   1.471  43.564  11.212
53705W        W26020   3.926   1.574   1.799
53706W        W26021  15.386   1.774  14.457
53707W        W26022   2.425   3.729   3.535
53708W        W26023  31.182  21.403   1.609
53709W        W26024  26.737   1.836  12.417
53710W        W26025  41.799   5.982   0.479
53711W        W26026  28.166  15.588   2.346
53712W        W26027  33.506  14.116  11.999
53713W        W26028  33.499  13.413  13.859
53714W        W26029  23.114   0.405  13.100
53715W        W26030  24.997   5.817   4.556
53716W        W26031  41.911   3.263  11.802
53717W        W26032  18.586  16.791   0.726
53718W        W26033  36.803   8.942   4.046
53719W        W26034   2.443  22.957   2.151
53720W        W26035  35.872  17.308   1.366
53721W        W26036  27.492   5.666   0.067
53722W        W26037  21.040  27.849  11.597
53723W        W26038  42.644  15.637   2.716
53724W        W26039  11.290  13.105  11.209
53725W        W26040  31.612  28.686   3.709
53726W        W26041   0.875  40.367  13.588
53727W        W26042  43.433   5.065   4.621
53728W        W26043  18.670  44.299  11.530
53729W        W26044  12.143   7.939   1.844
53730W        W26045  39.882   6.015   1.343
53731W        W26046  11.086  38.203   3.412
53732W        W26047  34.183  34.448  13.916
53733W        W26048  17.775   9.193   4.324
53734W        W26049  21.079  13.375   1.300
53735W        W26050  44.955   5.263  13.466
53736W        W26051   3.351  25.711   1.281
53737W        W26052   0.729  26.583  13.060
53738W        W26053  23.339  17.676   1.304
53739W        W26054  41.065  20.591   2.136
53740W        W26055  32.187  38.077  13.338
53741W        W26056  21.620  15.648  14.093
53742W        W26057   3.142   6.856   0.962
53743W        W26058   4.406   0.259  14.304
53744W        W26059  44.423  10.203   4.620
53745W        W26060  13.662   3.351   2.363
53746W        W26061   8.944  13.258   0.810
53747W        W26062  21.081  22.204   3.770
53748W        W26063  40.022  32.555  14.363
53749W        W26064  40.581  31.606  12.463
53750W        W26065  30.785  20.413  13.431
53751W        W26066  33.647  36.536   2.736
53752W        W26067  20.032  43.472  11.157
53753W        W26068   5.358  30.480  12.498
53754W        W26069  37.433  26.400   1.289
53755W        W26070   4.763  26.675   2.117
53756W        W26071  26.298  33.536  12.250
53757W        W26072  42.155   9.141   1.783
53758W        W26073  24.418   7.736  14.302
53759W        W26074   8.266  22.579  13.047
53760W        W26075  13.872   3.354  14.942
53761W        W26076  37.513  20.643   4.023
53762W        W26077  17.945   8.227   0.541
53763W        W26078  36.289   1.255   1.973
53764W        W26079  28.986  30.704  12.469
53765W        W26080  41.509   2.794  12.847
53766W        W26081   8.285  11.646   4.459
53767W        W26082  13.353  11.444   0.689
53768W        W26083  18.190  19.143  12.569
53769W        W26084   7.911  23.563   3.418
53770W        W26085  34.633  37.032   3.829
53771W        W26086  17.874   7.170   3.594
53772W        W26087  38.517  17.192  10.640
53773W        W26088  25.059  37.229   1.255
53774W        W26089   2.553  26.162  13.708
53775W        W26090  15.377   2.255   1.495
53776W        W26091   5.067  40.117   0.187
53777W        W26092  14.518  26.511   4.936
53778W        W26093   3.776   4.714   1.902
53779W        W26094  23.730   8.661   2.389
53780W        W26095  23.248  35.512   1.030
53781W        W26096  30.263  29.059  14.474
53782W        W26097  41.450   0.731   2.433
53783W        W26098  20.476  26.986  11.558
53784W        W26099  12.500   9.266  14.892
53785W        W26100   0.930  26.242   1.476
53786W        W26101  40.927  17.268   2.744
53787W        W26102   0.819   4.278  11.178
53788W        W26103  36.624   8.160   2.242
53789W        W26104  14.279  41.202  12.502
53790W        W26105  29.660   2.227  14.407
53791W        W26106  23.879   8.310   0.327
53792W        W26107  33.532  38.717  14.640
53793W        W26108  43.928  26.481  11.096
53794W        W26109  31.066  37.329  11.009
53795W        W26110  10.086  30.341  12.726
53796W        W26111  37.335  32.690  11.981
53797W        W26112  13.662  17.860  13.895
53798W        W26113  21.053   6.714   0.628
53799W        W26114  18.206  10.490   2.180
53800W        W26115  30.618   5.333  12.215
53801W        W26116  37.660  30.134  13.000
53802W        W26117   1.383  36.658  14.751
53803W        W26118  17.738  17.099  14.323
53804W        W26119  14.777  33.920  10.822
53805W        W26120  33.082  43.773   1.245
53806W        W26121   8.355   5.138   1.278
53807W        W26122  29.953  40.390  14.094
53808W        W26123  36.787  33.092  11.315
53809W        W26124  37.091  27.408   1.167
53810W        W26125  32.175  13.957  13.582
53811W        W26126  22.624  28.231   3.019
53812W        W26127  26.567  39.053  13.011
53813W        W26128   4.329  27.618   1.802
53814W        W26129  13.577  35.803   3.110
53815W        W26130  14.285  12.277   1.599
53816W        W26131   2.495  17.783  14.897
53817W        W26132  43.822  23.965  14.383
53818W        W26133  15.737  29.103  13.574
53819W        W26134  26.217   9.691  11.598
53820W        W26135  35.842   4.308  11.103
53821W        W26136  20.230  43.147   4.831
53822W        W26137  36.909   4.306   1.957
53823W        W26138  39.304  21.337   1.349
53824W        W26139  32.847  29.878  14.872
53825W        W26140  17.209  31.662   3.061
53826W        W26141   1.445  34.584  11.475
53827W        W26142  13.641   1.838  10.773
53828W        W26143  43.031  22.284   4.884
53829W        W26144  30.835  14.692   0.814
53830W        W26145  28.701   5.670  14.944
53831W        W26146  25.677  28.903  11.004
53832W        W26147   9.520   0.518  13.600
53833W        W26148  15.790  27.563   4.242
53834W        W26149  42.629  31.695   2.211
53835W        W26150  32.916  34.831   2.250
53836W        W26151  35.332  24.972  14.438
53837W        W26152  10.108  30.849  12.804
53838W        W26153  36.614  38.596   4.406
53839W        W26154  27.434  25.000   0.308
53840W        W26155  35.919  27.984   0.474
53841W        W26156   7.966   3.641  11.240
53842W        W26157  40.600   9.610   4.566
53843W        W26158   1.835  11.360  10.192
53844W        W26159  18.351  30.402  13.515
53845W        W26160  42.875  39.150   4.076
53846W        W26161  37.804   8.381   0.951
53847W        W26162   5.879  33.670   4.183
53848W        W26163  32.971  28.225  10.975
53849W        W26164  40.424  24.295   2.287
53850W        W26165   2.692  14.303  13.145
53851W        W26166  15.234  29.154   4.573
53852W        W26167   7.776  14.462   0.616
53853W        W26168  20.176  11.567  12.077
53854W        W26169  18.040  35.423   0.009
53855W        W26170  26.219  13.641   1.137
53856W        W26171  11.807  39.851  11.985
53857W        W26172   9.396  19.690   2.395
53858W        W26173  36.036  25.741  11.472
53859W        W26174  40.292  38.860  14.914
53860W        W26175  12.763  37.982  14.425
53861W        W26176  11.281  21.981  14.895
53862W        W26177  34.699  43.078   2.501
53863W        W26178   5.662   7.194  14.323
53864W        W26179  25.452  18.656   4.518
53865W        W26180  27.235  36.028   1.850
53866W        W26181  25.755  20.217   3.854
53867W        W26182   3.275  40.988  14.214
53868W        W26183  21.066  39.271  10.578
53869W        W26184   0.816  23.706   1.241
53870W        W26185  38.278  14.538   1.609
53871W        W26186  15.980  32.160   3.373
53872W        W26187   0.233  10.649  13.221
53873W        W26188  24.219   1.853   1.713
53874W        W26189  38.834  15.301  11.949
53875W        W26190   0.937  26.679   4.299
53876W        W26191   7.942   6.468   3.079
53877W        W26192   5.306  27.051   0.731
53878W        W26193  18.270  33.645  12.417
53879W        W26194   7.207  14.156   0.444
53880W        W26195  31.078  13.320  13.534
53881W        W26196  18.120  42.988  12.016
53882W        W26197  23.651  25.487  11.029
53883W        W26198   6.394  11.837  11.437
53884W        W26199   9.783   4.958   0.613
53885W        W26200  38.448  29.907  13.395
53886W        W26201  37.984  29.373   0.148
53887W        W26202  15.078   6.530  13.057
53888W        W26203  42.595   1.110   1.824
53889W        W26204  36.954  21.182   1.451
53890W        W26205  19.087  37.583   1.195
53891W        W26206  21.531   8.658   0.549
53892W        W26207   6.393  14.367  11.439
53893W        W26208  31.377  16.837  11.632
53894W        W26209  13.719  31.621   4.570
53895W        W26210  21.557  17.212   2.345
53896W        W26211   2.865  37.975   0.213
53897W        W26212   6.688  38.753   2.273
53898W        W26213  16.747  11.839   1.463
53899W        W26214  21.489  32.044   2.694
53900W        W26215  32.311  27.068   3.771
53901W        W26216  44.462  38.612   0.725
53902W        W26217  42.853  34.494   4.966
53903W        W26218  36.461   8.136  11.259
53904W        W26219  38.084  38.409  12.221
53905W        W26220  41.777   9.856   2.928
53906W        W26221   7.486  39.216  12.551
53907W        W26222  32.429  36.289   2.716
53908W        W26223  40.534  36.824  13.801
53909W        W26224  20.283  40.374  13.384
53910W        W26225  36.702  42.944  12.508
53911W        W26226  11.145  13.198   3.566
53912W        W26227  44.241  20.242  14.942
53913W        W26228  35.028  19.870  11.985
53914W        W26229  22.637  34.801   0.069
53915W        W26230   8.326  30.152   4.918
53916W        W26231  28.597  10.456   4.065
53917W        W26232  35.843  32.180   0.478
53918W        W26233  38.481  28.453  11.922
53919W        W26234   2.096  14.031  11.875
53920W        W26235  31.501   0.856   4.496
53921W        W26236  44.914  11.325   3.388
53922W        W26237  43.009  13.701   0.892
53923W        W26238  28.389  16.673  13.364
53924W        W26239  17.094  34.371   3.621
53925W        W26240  20.164  29.484  12.621
53926W        W26241  41.435  33.382  14.237
53927W        W26242  24.927   5.934  10.638
53928W        W26243   7.410  37.488   1.363
53929W        W26244  20.551  26.178  13.424
53930W        W26245  22.138  19.250   1.035
53931W        W26246   4.519  29.900   2.345
53932W        W26247  31.085  41.082  11.368
53933W        W26248  22.607   0.963  13.525
53934W        W26249  18.630  41.341   4.002
53935W        W26250  33.340  35.065   3.696
53936W        W26251  29.882  17.553  11.948
53937W        W26252  40.483  42.984   3.265
53938W        W26253  28.382  17.610  11.120
53939W        W26254  34.366  36.218   2.320
53940W        W26255  26.473  26.736   3.723
53941W        W26256  11.465  38.941   3.054
53942W        W26257  14.122   3.394   3.148
53943W        W26258  33.395  37.618   0.938
53944W        W26259  28.092  14.281   1.848
53945W        W26260  36.958  22.003   3.794
53946W        W26261  30.937  32.619   4.202
53947W        W26262  31.648   7.581  12.129
53948W        W26263   8.260   2.266   2.702
53949W        W26264  25.055  12.890  14.309
53950W        W26265  19.106  33.026  11.563
53951W        W26266  37.424   8.973  13.320
53952W        W26267  43.797  14.391   3.067
53953W        W26268  18.207   1.916  14.713
53954W        W26269  29.075  29.709   4.526
53955W        W26270  27.487  44.038   2.764
53956W        W26271  17.530   4.536  12.394
53957W        W26272  11.459  39.061   2.544
53958W        W26273  10.713   0.775  12.068
53959W        W26274  36.862  37.964   1.697
53960W        W26275  43.206  14.119   0.108
53961W        W26276  41.247  44.087   2.844
53962W        W26277   5.916  15.511   4.189
53963W        W26278  33.599   8.329  10.474
53964W        W26279   9.815   5.171   1.584
53965W        W26280  22.154  21.057   1.266
53966W        W26281  33.747  30.239   5.080
53967W        W26282  12.359  36.546  11.572
53968W        W26283  20.772  42.083   3.744
53969W        W26284  25.070   2.914   0.289
53970W        W26285  17.507   0.323  11.520
53971W        W26286   8.079   0.564  10.698
53972W        W26287  39.250  44.176  10.679
53973W        W26288  41.829  13.757   2.784
53974W        W26289  19.516  33.851   2.171
53975W        W26290  19.290  26.551   1.366
53976W        W26291  27.281  21.008  13.645
53977W        W26292  12.532  25.908   1.830
53978W        W26293  37.447  42.288   2.926
53979W        W26294  18.260   6.806  11.116
53980W        W26295  31.967  29.089  12.621
53981W        W26296  26.434  14.664  10.586
53982W        W26297   6.005  12.585  14.868
53983W        W26298  10.336  28.923   4.353
53984W        W26299   9.213  44.356   0.817
53985W        W26300   1.104  31.565  12.554
53986W        W26301  17.102   9.565   5.415
53987W        W26302  19.335  43.272  11.641
53988W        W26303  11.291  23.011  13.339
53989W        W26304   0.288  43.460   4.892
53990W        W26305  44.862  36.643  12.672
53991W        W26306   2.254   7.705  11.725
53992W        W26307   5.078   5.831   4.239
53993W        W26308   3.814   0.914   4.141
53994W        W26309   7.294  33.387  14.880
53995W        W26310   9.876  18.604   1.904
53996W        W26311   0.655  42.260  12.645
53997W        W26312  26.478   2.201   1.675
53998W        W26313  44.046  34.964  10.225
53999W        W26314   8.356  10.723  14.679
54000W        W26315   1.904  29.511   1.675
54001W        W26316  44.274  31.378  11.656
54002W        W26317  35.659  35.909   1.832
54003W        W26318   2.612   0.211   3.628
54004W        W26319   1.276  42.817   1.045
54005W        W26320   5.467  38.068   1.698
54006W        W26321  25.554  30.893   1.702
54007W        W26322  25.385  26.387   2.321
54008W        W26323   6.331  33.896  12.865
54009W        W26324  16.569  25.517  10.592
54010W        W26325  39.513  16.480   1.869
54011W        W26326  34.890  36.017   1.470
54012W        W26327   2.850   7.469   3.219
54013W        W26328  42.760   1.001   0.399
54014W        W26329  30.543  27.440   2.218
54015W        W26330  34.574  18.989   4.088
54016W        W26331   6.874  28.662  10.694
54017W        W26332  27.143   4.438   3.161
54018W        W26333   9.933  13.350  11.193
54019W        W26334  39.983  25.160  14.404
54020W        W26335  18.185  22.969   4.672
54021W        W26336   7.692  36.107   1.424
54022W        W26337  12.686  43.064   2.715
54023W        W26338   1.162  41.915  10.823
54024W        W26339  21.172   6.242   3.160
54025W        W26340  29.205  24.252  14.374
54026W        W26341  38.353  14.593   3.102
54027W        W26342  32.838   9.639   3.783
54028W        W26343  38.853  41.800   2.357
54029W        W26344  14.124  32.589  13.924
54030W        W26345  26.648  24.615   4.355
54031W        W26346  27.887  40.855   4.056
54032W        W26347  20.417  30.797   2.391
54033W        W26348  34.984  34.668   3.690
54034W        W26349  18.751   7.458   3.110
54035W        W26350   5.502  30.422  12.001
54036W        W26351   5.715  10.806   2.454
54037W        W26352  17.247  19.257   2.612
54038W        W26353  41.620  20.016  14.799
54039W        W26354   3.694  33.654   2.638
54040W        W26355  19.785  23.650   3.768
54041W        W26356  32.134  28.453  11.740
54042W        W26357  23.042  14.260  11.839
54043W        W26358   1.355   2.896  14.394
54044W        W26359  21.803  33.330  14.986
54045W        W26360   2.293  22.550   1.331
54046W        W26361   5.399  44.506  11.602
54047W        W26362  30.254  35.347   4.160
54048W        W26363  40.433  30.127  12.525
54049W        W26364  20.514  35.565   0.243
54050W        W26365  34.343   9.215   2.806
54051W        W26366  34.155  14.326  11.230
54052W        W26367  14.155  43.688  12.572
54053W        W26368  38.314  36.726   0.784
54054W        W26369   8.437  25.692  14.023
54055W        W26370  25.134  40.031  14.766
54056W        W26371  30.208  32.963   3.166
54057W        W26372  22.029  23.585  13.409
54058W        W26373  42.437  33.643  10.585
54059W        W26374  16.801  38.501   0.991
54060W        W26375  35.931  42.831  10.934
54061W        W26376  15.563  11.700  14.806
54062W        W26377  31.829   1.960   1.207
54063W        W26378  13.944  33.514   1.151
54064W        W26379  12.312  24.783  12.836
54065W        W26380   9.394  38.817  12.913
54066W        W26381  40.127  14.478  13.629
54067W        W26382  25.245  22.374  11.785
54068W        W26383   5.311  37.606  14.254
54069W        W26384  25.448  36.151   4.179
54070W        W26385  25.696   0.542   2.057
54071W        W26386  15.197   9.378   1.802
54072W        W26387  26.860  19.589   2.773
54073W        W26388  23.326  42.898   0.901
54074W        W26389   8.373  37.909   2.713
54075W        W26390  26.012   5.142   0.992
54076W        W26391  21.667   1.173  14.629
54077W        W26392  29.599  38.864  11.527
54078W        W26393  25.626   0.416  12.846
54079W        W26394  40.939  44.905   2.266
54080W        W26395  40.711  30.065   4.060
54081W        W26396   9.696  11.782  12.455
54082W        W26397  19.284  41.972  13.576
54083W        W26398  17.682  38.067  14.970
54084W        W26399   2.781  17.689   3.895
54085W        W26400  17.539  13.203  14.972
54086W        W26401  36.991  36.072   4.874
54087W        W26402  30.451   5.292   4.614
54088W        W26403  37.008  35.878   2.291
54089W        W26404   8.458  25.329   0.521
54090W        W26405  22.568  23.001  12.439
54091W        W26406  21.749   1.191   2.857
54092W        W26407  10.865  39.949  11.106
54093W        W26408  29.033   2.723   3.936
54094W        W26409  35.506  29.201  12.174
54095W        W26410  30.735  21.381   2.836
54096W        W26411  25.046   6.002  12.622
54097W        W26412   9.341  15.743   2.034
54098W        W26413  19.786  39.238  12.834
54099W        W26414  44.397  36.034   2.538
54100W        W26415  18.326  38.008  13.910
54101W        W26416  16.310  17.573  11.628
54102W        W26417  34.151  10.100  10.796
54103W        W26418  26.754  20.174  13.919
54104W        W26419   0.298  16.129  11.992
54105W        W26420  30.480  35.640   3.321
54106W        W26421  29.465  32.157  12.860
54107W        W26422  13.742  11.254   2.973
54108W        W26423  44.397   3.056  14.098
54109W        W26424  12.556  16.737  12.014
54110W        W26425  39.404  42.428  13.466
54111W        W26426   6.475   0.195   2.827
54112W        W26427  23.963  44.504   4.186
54113W        W26428   7.271  39.239   2.908
54114W        W26429  18.837  26.714   1.159
54115W        W26430  18.631   2.680  13.081
54116W        W26431  22.819  35.495  11.676
54117W        W26432  14.410  26.500   1.775
54118W        W26433  27.321   2.836  10.325
54119W        W26434   0.208  27.620  14.940
54120W        W26435  35.036   6.252  13.868
54121W        W26436  17.229  17.011   0.331
54122W        W26437  28.618  31.180  11.631
54123W        W26438  44.518   7.959  13.440
54124W        W26439  25.171  19.024  12.052
54125W        W26440  22.482  11.857   1.262
54126W        W26441  40.546   0.262  11.542
54127W        W26442  21.977   1.336   1.649
54128W        W26443   3.589  19.801   0.355
54129W        W26444  30.360  11.103   2.455
54130W        W26445   3.269   5.045  10.746
54131W        W26446   0.036   4.761   0.533
54132W        W26447   0.105  15.665  14.549
54133W        W26448   6.221  24.507   1.504
54134W        W26449  28.854  31.662   1.514
54135W        W26450   0.524  40.674   0.175
54136W        W26451  26.728   3.797   2.246
54137W        W26452  19.142  39.889   0.446
54138W        W26453   5.248   3.854  13.579
54139W        W26454  43.828   2.013  13.924
54140W        W26455  35.388  21.932  13.336
54141W        W26456   4.659  11.328   0.885
54142W        W26457  17.635  14.214  14.799
54143W        W26458   9.268   9.059   0.454
54144W        W26459  13.267  20.328   0.951
54145W        W26460  16.171   1.722  11.162
54146W        W26461  25.424   6.295  13.896
54147W        W26462  44.228  15.603   0.381
54148W        W26463   3.872   1.644   2.636
54149W        W26464  40.613  41.975  13.400
54150W        W26465  14.461  41.434   4.056
54151W        W26466   4.303  32.700  12.611
54152W        W26467  33.414  17.726  14.933
54153W        W26468  20.071   3.483  14.900
54154W        W26469  31.570  36.676   3.106
54155W        W26470  25.913   2.830  11.676
54156W        W26471   2.761   0.981   0.708
54157W        W26472  15.871   0.423   0.827
54158W        W26473   9.778  22.017  13.989
54159W        W26474   6.228  35.017   1.330
54160W        W26475  37.306  17.401  14.066
54161W        W26476  43.310  24.941   3.197
54162W        W26477   0.655  32.310  12.937
54163W        W26478   1.990  19.623   4.661
54164W        W26479  18.747  32.475   1.834
54165W        W26480  18.167  23.032   4.160
54166W        W26481   9.753  30.710  14.150
54167W        W26482  26.187  25.242  13.760
54168W        W26483   1.665   3.216  11.060
54169W        W26484   1.505  19.893   0.249
54170W        W26485  38.266   8.300  13.992
54171W        W26486  10.785  39.585  10.760
54172W        W26487  10.294  30.683   2.218
54173W        W26488  32.876   1.490  12.868
54174W        W26489  13.149   6.868  12.522
54175W        W26490  24.223  21.432  14.068
54176W        W26491  32.599  19.191  13.887
54177W        W26492  32.136  44.616   0.744
54178W        W26493  20.720   8.396  12.374
54179W        W26494  31.740  29.458  12.986
54180W        W26495  10.638  28.517   4.550
54181W        W26496  24.507  37.590  13.538
54182W        W26497  18.695  40.992  11.557
54183W        W26498  18.768  42.004   1.116
54184W        W26499  30.594  38.341   0.770
54185W        W26500  12.658  39.883  14.105
54186W        W26501  32.650  20.532   2.171
54187W        W26502  25.444   2.199  14.802
54188W        W26503  42.079  39.713  11.247
54189W        W26504  22.970  14.271  14.706
54190W        W26505  23.207  35.407   1.809
54191W        W26506   3.162  26.207   1.329
54192W        W26507  37.862  20.626  11.941
54193W        W26508  35.331  23.977  14.482
54194W        W26509  30.853  32.104   3.784
54195W        W26510  11.730   1.835  11.618
54196W        W26511  18.313  11.237   3.117
54197W        W26512  36.348   0.422   0.499
54198W        W26513  44.384  25.446   3.509
54199W        W26514   1.830  15.237  14.014
54200W        W26515  20.407  37.919   1.650
54201W        W26516  26.438  32.871   2.186
54202W        W26517   2.346  30.733   0.366
54203W        W26518  21.570  40.775  12.489
54204W        W26519  28.715  43.503   0.291
54205W        W26520  32.217   2.405  13.069
54206W        W26521   2.789   5.893   3.739
54207W        W26522  34.487  26.594   5.039
54208W        W26523  31.536  11.701   1.787
54209W        W26524  25.759  41.052  14.572
54210W        W26525   1.324   8.099  12.715
54211W        W26526  23.597  16.073  14.983
54212W        W26527  23.434  21.241  12.485
54213W        W26528  40.964   0.756  13.776
54214W        W26529  32.666   8.279   1.884
54215W        W26530  14.621  25.370   4.334
54216W        W26531  15.334  10.516  11.874
54217W        W26532   9.714   0.739   0.366
54218W        W26533  30.697  19.321   1.410
54219W        W26534   4.495  16.548  14.979
54220W        W26535  32.202   7.508   5.028
54221W        W26536  33.565  22.526   1.728
54222W        W26537  40.439   0.499   4.234
54223W        W26538  25.098  14.217   1.956
54224W        W26539  43.994   0.034   2.732
54225W        W26540  33.320  11.126   4.118
54226W        W26541  23.253   8.143   2.903
54227W        W26542  39.899  14.001  11.960
54228W        W26543   4.864  33.842  11.184
54229W        W26544  12.551  23.708  13.062
54230W        W26545  13.092   8.623  12.865
54231W        W26546  28.984   6.476  11.572
54232W        W26547  26.646  19.562   3.256
54233W        W26548  23.104  13.622  10.726
54234W        W26549  38.582  32.652   2.350
54235W        W26550  34.610  40.575  14.249
54236W        W26551  41.613  43.430   3.830
54237W        W26552  28.953  18.577   2.253
54238W        W26553  44.651  17.188  12.003
54239W        W26554  41.802  18.419  10.769
54240W        W26555  21.718   3.877   2.725
54241W        W26556   3.887   4.457  11.630
54242W        W26557  23.634  12.575   1.841
54243W        W26558  25.539   7.555   3.788
54244W        W26559  21.217  13.347   0.390
54245W        W26560  10.498  12.405  13.953
54246W        W26561  43.223  27.457   2.719
54247W        W26562   0.452  40.074   1.758
54248W        W26563  13.111  31.094   4.043
54249W        W26564  11.855  22.588   1.143
54250W        W26565  26.619   6.845  13.530
54251W        W26566  17.177  39.370  13.547
54252W        W26567  38.832  37.274  14.934
54253W        W26568  33.137  32.388  10.790
54254W        W26569  21.502  15.718   4.585
54255W        W26570   9.209  27.633  14.448
54256W        W26571  28.671  12.741  12.469
54257W        W26572  20.601   7.192  14.963
54258W        W26573  39.453  34.059  10.326
54259W        W26574  27.708   5.855  11.697
54260W        W26575  13.402  23.136   0.652
54261W        W26576  19.096  21.729   2.765
54262W        W26577  31.121  35.429   0.391
54263W        W26578  25.636  20.009  13.199
54264W        W26579  15.110   2.892   1.676
54265W        W26580  27.149  10.736  10.396
54266W        W26581  27.407  42.383  12.918
54267W        W26582  27.192  36.454   2.592
54268W        W26583   6.115  19.960   2.297
54269W        W26584  43.612  13.124   0.314
54270W        W26585  30.558   0.033   4.110
54271W        W26586   0.803  18.050  13.441
54272W        W26587   6.485  20.560   2.303
54273W        W26588  14.109  17.188  10.617
54274W        W26589  23.839   1.108  13.386
54275W        W26590  22.716   2.920  14.478
54276W        W26591  12.132  21.905   1.876
54277W        W26592  37.493  18.613   0.851
54278W        W26593  22.414   1.218  13.119
54279W        W26594  44.396  27.265   4.721
54280W        W26595   3.774   7.398  11.066
54281W        W26596  40.536  38.394  14.765
54282W        W26597   8.328  28.492  12.907
54283W        W26598  14.882   0.352   3.873
54284W        W26599  37.884  28.727   2.199
54285W        W26600  42.054  43.942  13.357
54286W        W26601  11.006   0.392   3.041
54287W        W26602   2.504  44.815  13.707
54288W        W26603  26.259   4.825  11.140
54289W        W26604  16.713  30.628   0.826
54290W        W26605  42.497  28.952   0.315
54291W        W26606   1.786   6.922  14.452
54292W        W26607  20.035  38.358  11.173
54293W        W26608  20.204  41.971  12.627
54294W        W26609  41.798  40.594   4.722
54295W        W26610  29.904  37.644  14.802
54296W        W26611  22.838  44.165   5.134
54297W        W26612  35.885   9.539  13.855
54298W        W26613  18.674  40.057  12.873
54299W        W26614  40.586  32.076  10.097
54300W        W26615  23.435  22.109   4.995
54301W        W26616  13.543  31.987   2.262
54302W        W26617  44.923  28.172   3.477
54303W        W26618   0.575  36.011   0.449
54304W        W26619  38.912   2.939  12.594
54305W        W26620  18.311  31.995  11.130
54306W        W26621  19.742   3.140  11.917
54307W        W26622  32.353  21.021  14.782
54308W        W26623  26.954  27.018   4.542
54309W        W26624  20.995  13.709   2.800
54310W        W26625  27.053  27.540  12.925
54311W        W26626  14.684  44.314  14.941
54312W        W26627  38.546   7.020   0.662
54313W        W26628   9.701  31.933   3.178
54314W        W26629  16.109  27.151  12.045
54315W        W26630   5.055  44.086   2.573
54316W        W26631  40.730  11.834   4.142
54317W        W26632  34.089  15.662   3.722
54318W        W26633  26.014   2.711   0.435
54319W        W26634   3.799  39.178   1.681
54320W        W26635  33.639  40.576   1.766
54321W        W26636  15.882  14.604   2.356
54322W        W26637  39.926   4.723  12.962
54323W        W26638  27.420   5.609  10.213
54324W        W26639   4.999  27.898   0.680
54325W        W26640  18.751  39.524   0.887
54326W        W26641   3.186   9.578  11.890
54327W        W26642   5.143   4.319  12.715
54328W        W26643  12.785  25.059  13.651
54329W        W26644  37.759   2.444   2.379
54330W        W26645  10.892  15.249  11.937
54331W        W26646  19.165  19.216  14.426
54332W        W26647  14.821  20.737  14.220
54333W        W26648   4.973  15.810  10.527
54334W        W26649  31.336  31.261   2.820
54335W        W26650  21.220  41.783  10.650
54336W        W26651  22.640  33.161  12.807
54337W        W26652  13.665  41.792   0.031
54338W        W26653  11.268  28.855  14.379
54339W        W26654  34.024  25.135  11.851
54340W        W26655  38.067  43.445   2.720
54341W        W26656   5.950  24.002  13.557
54342W        W26657  12.787  34.434   3.600
54343W        W26658  41.121  30.258  14.982
54344W        W26659  11.869  44.341  11.842
54345W        W26660  27.550  41.992  11.218
54346W        W26661   6.101  39.389  13.715
54347W        W26662   0.243   9.231   3.254
54348W        W26663  41.893  31.016  12.357
54349W        W26664  43.480  11.190  14.458
54350W        W26665   4.438  12.749  10.939
54351W        W26666  15.495   1.892   2.430
54352W        W26667  33.324  27.414  11.518
54353W        W26668  22.207  34.136  12.462
54354W        W26669  33.044  14.581   1.777
54355W        W26670  17.703   1.272   4.768
54356W        W26671  15.522   9.096   1.206
54357W        W26672  17.646  35.822   1.639
54358W        W26673  37.425  37.301   0.215
54359W        W26674   9.192  15.557   3.447
54360W        W26675  31.375  23.207   2.745
54361W        W26676   6.784  10.194  14.140
54362W        W26677   7.349  16.967   1.776
54363W        W26678   7.891  26.661   2.213
54364W        W26679   1.990  41.712  13.487
54365W        W26680   4.828  32.225  10.123
54366W        W26681  25.807   5.342   5.321
54367W        W26682  18.337  44.928   0.386
54368W        W26683  26.560  19.716  10.784
54369W        W26684  34.872  33.537  10.154
54370W        W26685   6.941  42.884   4.552
54371W        W26686  33.416  35.946   4.726
54372W        W26687   3.417  10.915   3.118
54373W        W26688  35.935   5.523   1.925
54374W        W26689   2.404  24.266  11.922
54375W        W26690  14.574  41.813  14.054
54376W        W26691  43.366  18.799   1.282
54377W        W26692   3.774  37.597  14.536
54378W        W26693  21.810  15.917  13.009
54379W        W26694  21.187  29.525  11.634
54380W        W26695  29.337  11.325  11.158
54381W        W26696   5.421  40.961   1.831
54382W        W26697  31.616  30.628  13.432
54383W        W26698  34.106   2.299   3.335
54384W        W26699  33.637  32.952  10.299
54385W        W26700   7.215  19.751   0.349
54386W        W26701  10.803  27.648   0.497
54387W        W26702  20.554  32.149   1.451
54388W        W26703  33.910  12.006   0.018
54389W        W26704  43.984  31.745  14.824
54390W        W26705  42.753  37.851   3.803
54391W        W26706  15.731  30.117   3.313
54392W        W26707   7.023  22.668  12.043
54393W        W26708   4.002  17.880  12.563
54394W        W26709  13.143  15.723   3.589
54395W        W26710   4.690  21.589  12.666
54396W        W26711  18.090  43.736   2.369
54397W        W26712  41.444  39.502  14.840
54398W        W26713  42.066  37.866  12.070
54399W        W26714   0.680  38.287   3.691
54400W        W26715  38.693  15.080   4.423
54401W        W26716  19.464   9.219   2.245
54402W        W26717   3.270  34.960   1.207
54403W        W26718   8.357  25.093   4.375
54404W        W26719  16.102  15.814  14.939
54405W        W26720  26.696   9.628   2.130
54406W        W26721  30.027  18.734   0.861
54407W        W26722   5.319  14.722  10.617
54408W        W26723  43.420  41.703   0.879
54409W        W26724   2.481  17.986  10.255
54410W        W26725   7.072   9.114   2.701
54411W        W26726  41.070  31.410   4.222
54412W        W26727  22.491   2.324  12.238
54413W        W26728  41.582  36.215   0.323
54414W        W26729   3.513  40.987  11.897
54415W        W26730  10.166  11.279  12.055
54416W        W26731   8.412  32.046   4.829
54417W        W26732   4.269  30.525   2.248
54418W        W26733  22.538  16.726   2.730
54419W        W26734  11.544  25.763  14.469
54420W        W26735  18.148  34.709  11.964
54421W        W26736  24.777  13.951   1.550
54422W        W26737  44.889  36.079   2.247
54423W        W26738  18.049  14.562  14.957
54424W        W26739  30.485  42.059  13.863
54425W        W26740  24.134  20.838   4.604
54426W        W26741  28.352   1.936   4.141
54427W        W26742   2.004  40.274   2.846
54428W        W26743  23.557  22.988  14.861
54429W        W26744   6.734  18.863   0.454
54430W        W26745  15.756  28.933  11.641
54431W        W26746  13.496  43.928   2.246
54432W        W26747   2.415  22.611  13.430
54433W        W26748  27.102  43.943   0.212
54434W        W26749   2.362  31.705   4.178
54435W        W26750  32.037  20.519   4.707
54436W        W26751  28.652  41.006  13.148
54437W        W26752  32.319  40.716  12.575
54438W        W26753  42.200  44.847  14.254
54439W        W26754   8.235  14.712  10.785
54440W        W26755  33.641  16.498  12.008
54441W        W26756  25.509  22.008   3.318
54442W        W26757  42.270  36.823  14.868
54443W        W26758   6.663  32.026  12.042
54444W        W26759  32.196   3.982  14.520
54445W        W26760   4.966  35.611   4.976
54446W        W26761   5.234  37.406   0.248
54447W        W26762  11.683  24.004  14.965
54448W        W26763  28.498  36.261  14.041
54449W        W26764  41.347  36.957   4.204
54450W        W26765  41.901  13.818  13.291
54451W        W26766  19.309   6.327   3.101
54452W        W26767   8.748  10.350   3.692
54453W        W26768  43.480   7.485   4.074
54454W        W26769   8.630  29.861   1.260
54455W        W26770   1.255   7.515   1.593
54456W        W26771   2.383  20.556   0.827
54457W        W26772  14.824   0.011  13.660
54458W        W26773  25.552  14.350  13.083
54459W        W26774  12.000   9.945  14.329
54460W        W26775  21.172  35.897  14.046
54461W        W26776  12.565   2.435   3.652
54462W        W26777  15.139  22.778  14.934
54463W        W26778   5.503  18.256   0.311
54464W        W26779  24.723   2.345   3.806
54465W        W26780  40.847  13.219  13.738
54466W        W26781  29.417  37.577  11.402
54467W        W26782   4.466  24.548  11.854
54468W        W26783   9.273  32.713  13.941
54469W        W26784  40.416  38.863   0.529
54470W        W26785   2.014  22.626   0.460
54471W        W26786  39.423  34.526  10.537
54472W        W26787  22.514  12.757  10.732
54473W        W26788   5.808  26.348  14.809
54474W        W26789  39.624  41.036  11.464
54475W        W26790  18.588  16.967  11.563
54476W        W26791  23.967  23.182   0.369
54477W        W26792  15.465  38.520   3.597
54478W        W26793  20.251  22.792   1.967
54479W        W26794   2.696   7.992  11.506
54480W        W26795  43.584  15.735  11.378
54481W        W26796  19.826  24.508   2.290
54482W        W26797  23.487  20.039   0.845
54483W        W26798  34.047  44.405   4.104
54484W        W26799   6.353  19.724   1.899
54485W        W26800  14.323   6.802   2.835
54486W        W26801  41.857  30.958   0.251
54487W        W26802  19.518   8.008   5.497
54488W        W26803  40.467   2.790  14.460
54489W        W26804  41.726  15.335   1.293
54490W        W26805  40.074  28.081   3.633
54491W        W26806   5.511  34.617   2.192
54492W        W26807  16.491  30.078  11.841
54493W        W26808   7.248  34.358   1.690
54494W        W26809  31.532  29.453   2.396
54495W        W26810  15.147   9.879   1.790
54496W        W26811  39.068  36.385   3.365
54497W        W26812  42.409  44.967  12.370
54498W        W26813  29.577  15.087   4.246
54499W        W26814  32.011  38.814  12.972
54500W        W26815   6.122  36.423   0.429
54501W        W26816   9.947  30.851   2.766
54502W        W26817  13.880   1.928   3.842
54503W        W26818  40.447  25.106   1.725
54504W        W26819  27.556  43.727   3.407
54505W        W26820  14.648  43.225  11.939
54506W        W26821  37.018  43.085   0.857
54507W        W26822  41.057  35.440  10.791
54508W        W26823   0.344  28.831   1.963
54509W        W26824  16.209  35.418   2.442
54510W        W26825  38.040  14.825   4.859
54511W        W26826   9.560  18.207   5.098
54512W        W26827  30.404  10.320  13.459
54513W        W26828  42.997  10.301  14.301
54514W        W26829  39.336  16.325   4.453
54515W        W26830  19.602  15.699   1.946
54516W        W26831  10.125  26.968   1.618
54517W        W26832  29.631  13.215  11.199
54518W        W26833  26.172  41.849   4.739
54519W        W26834   4.408  21.780   4.523
54520W        W26835   8.670  32.687   4.158
54521W        W26836  27.100  44.976   2.741
54522W        W26837  14.187  11.742   1.447
54523W        W26838  14.111  36.720   4.668
54524W        W26839   8.694  43.818   2.155
54525W        W26840  15.041  43.761  14.333
54526W        W26841  44.114  29.455  11.977
54527W        W26842   5.222  15.170  14.300
54528W        W26843  32.726  40.441  14.501
54529W        W26844  33.971   3.727  12.963
54530W        W26845  32.880  31.097  11.048
54531W        W26846   8.158  30.557   3.645
54532W        W26847  40.236  17.557  11.547
54533W        W26848  18.280  44.030   4.216
54534W        W26849  36.854   5.455   2.878
54535W        W26850  31.563  32.392   0.772
54536W        W26851  38.512  35.381   1.268
54537W        W26852  43.228  31.085  12.988
54538W        W26853   3.662  41.529   3.694
54539W        W26854  29.751  36.419  12.991
54540W        W26855  24.313  30.637   5.233
54541W        W26856   2.977  17.196   1.861
54542W        W26857  33.331  36.901   3.224
54543W        W26858  31.455  42.367  12.535
54544W        W26859  11.919  43.320  10.434
54545W        W26860  15.601  12.698  13.455
54546W        W26861  15.337  22.653   4.648
54547W        W26862  35.405  30.391  11.041
54548W        W26863  34.017  26.739  11.741
54549W        W26864  39.942  39.422   2.173
54550W        W26865   4.808   6.051  14.895
54551W        W26866  41.912   7.784  11.547
54552W        W26867  20.698  31.150   1.571
54553W        W26868  23.164   6.935  11.718
54554W        W26869  43.072   7.667   1.802
54555W        W26870   2.289  40.743   4.243
54556W        W26871  21.806   1.851   0.419
54557W        W26872  17.179  40.588   4.305
54558W        W26873   3.386  26.199   2.172
54559W        W26874  42.748  35.417   4.697
54560W        W26875  15.622  12.600   2.779
54561W        W26876  16.725  20.171   4.538
54562W        W26877   5.569  19.843   4.112
54563W        W26878  35.979  38.969   0.402
54564W        W26879  29.447  38.338   0.416
54565W        W26880  31.221  25.526  11.108
54566W        W26881   0.652   8.189  11.993
54567W        W26882  24.070  36.660   0.910
54568W        W26883   2.013  12.811  11.058
54569W        W26884  10.620  17.657  14.458
54570W        W26885  13.539  19.845  12.019
54571W        W26886  34.422   6.550  11.176
54572W        W26887   7.408  29.551   3.613
54573W        W26888   4.468  39.160  12.449
54574W        W26889   6.387   5.322   0.747
54575W        W26890   6.395  44.814  10.538
54576W        W26891  43.793   4.272   2.686
54577W        W26892  36.046  24.299  11.626
54578W        W26893  23.793  26.951  14.903
54579W        W26894  24.127  37.484  12.335
54580W        W26895  41.056  27.136  11.256
54581W        W26896   8.398  43.051  13.944
54582W        W26897  30.914  39.403  14.377
54583W        W26898   1.264  36.611  13.445
54584W        W26899  34.938  33.462   3.131
54585W        W26900  12.350  20.221   0.697
54586W        W26901  17.910  15.450  14.711
54587W        W26902  12.707  33.724   4.630
54588W        W26903  17.791  43.313  13.041
54589W        W26904  42.406   2.955  13.425
54590W        W26905  41.405  15.217  12.609
54591W        W26906   5.466  40.455   0.519
54592W        W26907  18.018  32.172  11.540
54593W        W26908   7.083  36.868   4.224
54594W        W26909  15.615  44.290  13.545
54595W        W26910  21.811  33.372  13.412
54596W        W26911  40.105  13.825  11.123
54597W        W26912  44.405  30.896   2.343
54598W        W26913  41.825  11.695  14.892
54599W        W26914  40.323  35.975   0.350
54600W        W26915   2.794  29.654  13.043
54601W        W26916  18.564  18.851   0.906
54602W        W26917  27.507  21.789   0.346
54603W        W26918  15.210  38.324  11.603
54604W        W26919  36.942   6.597  10.614
54605W        W26920  43.927  22.777  10.378
54606W        W26921  40.263  19.131   2.737
54607W        W26922   6.370  22.133   4.758
54608W        W26923  25.032  15.082   1.339
54609W        W26924  25.659  32.218   1.928
54610W        W26925   5.791  23.183   2.252
54611W        W26926  38.361  12.153   0.543
54612W        W26927  17.783  40.588  13.420
54613W        W26928  15.095  41.293   0.978
54614W        W26929  30.007  38.050  10.661
54615W        W26930  23.465  29.944   2.631
54616W        W26931  14.789  26.096   0.932
54617W        W26932  26.050   1.326   2.248
54618W        W26933  31.407  31.562   1.297
54619W        W26934   2.087  35.585  13.055
54620W        W26935   5.982  20.540  13.567
54621W        W26936  10.845   9.931  13.905
54622W        W26937   5.975  19.447   2.235
54623W        W26938  27.735   9.718   0.570
54624W        W26939   7.673  18.638  13.065
54625W        W26940  28.543  24.435   0.681
54626W        W26941  21.172  29.189  11.009
54627W        W26942  36.890   7.274   1.220
54628W        W26943  12.279  21.775   2.363
54629W        W26944  10.277  24.988  14.920
54630W        W26945   4.761  25.636   3.112
54631W        W26946  12.754  31.575  10.926
54632W        W26947   9.200  15.627   4.631
54633W        W26948   9.752  15.646  11.787
54634W        W26949  41.900  37.319   5.152
54635W        W26950   3.879  43.021  12.999
54636W        W26951  10.812  13.279  11.383
54637W        W26952  32.126  40.590   3.465
54638W        W26953  37.803  15.556   2.870
54639W        W26954   5.912  34.068   0.955
54640W        W26955  26.621  33.356  14.470
54641W        W26956  36.109  31.342  12.986
54642W        W26957   4.706  37.211  11.216
54643W        W26958  36.279  16.840   4.155
54644W        W26959  39.033   1.331  13.407
54645W        W26960   2.293  28.924  11.643
54646W        W26961  19.100  41.116   4.635
54647W        W26962   5.679  20.203  12.039
54648W        W26963  21.683  27.601   0.948
54649W        W26964  10.838  18.685  11.157
54650W        W26965   3.124  10.259   4.595
54651W        W26966  10.275   6.263  12.932
54652W        W26967  33.921  31.138  13.317
54653W        W26968   1.222  44.074  14.276
54654W        W26969  41.132  18.462   5.117
54655W        W26970  26.249  33.021  10.688
54656W        W26971  26.922  32.003   5.058
54657W        W26972  36.943  28.359  10.703
54658W        W26973  20.886  39.808   4.084
54659W        W26974  35.494  39.662   1.592
54660W        W26975  32.831   8.943  12.414
54661W        W26976   6.707  12.091   3.313
54662W        W26977  40.914  25.140   3.076
54663W        W26978   5.537  28.736   1.704
54664W        W26979  41.573  43.924  11.184
54665W        W26980  16.080   8.811   4.019
54666W        W26981  25.466   1.620   0.958
54667W        W26982  39.863  44.835   3.115
54668W        W26983  42.412  34.031  11.659
54669W        W26984  23.077   1.223  11.057
54670W        W26985  16.323  40.758  12.085
54671W        W26986  26.710  39.898   4.210
54672W        W26987  15.791  12.883   4.539
54673W        W26988  22.789  29.980   4.689
54674W        W26989  30.669  12.994  13.492
54675W        W26990  44.824  33.043  12.499
54676W        W26991  35.333  34.149   2.452
54677W        W26992  43.797  23.599  13.498
54678W        W26993  20.902  32.055   1.810
54679W        W26994   9.582  26.556   4.124
54680W        W26995   7.270  34.373   3.650
54681W        W26996  19.672  41.002   0.825
54682W        W26997   2.486   1.770  10.675
54683W        W26998  11.860  28.554  12.999
54684W        W26999  10.240  18.349  11.958
54685W        W27000   8.627  11.201  13.941
54686W        W27001  44.104  17.349   0.469
54687W        W27002  19.976   9.184   2.397
54688W        W27003  29.232  21.056   4.662
54689W        W27004  17.966   1.907   2.264
54690W        W27005  24.852  42.472   1.719
54691W        W27006   1.212  31.051  12.609
54692W        W27007  22.989  15.137   2.817
54693W        W27008  32.591  13.217  13.967
54694W        W27009  10.173   9.242  11.314
54695W        W27010   7.162   1.829   1.752
54696W        W27011  11.482  34.794   1.727
54697W        W27012  43.426  11.337  13.461
54698W        W27013  14.779  12.088   3.875
54699W        W27014  32.556   9.430  14.900
54700W        W27015   1.428   8.443  14.989
54701W        W27016  38.846  24.079   2.600
54702W        W27017  43.249   7.960   4.084
54703W        W27018  12.850  34.977   4.803
54704W        W27019  13.227  34.289   1.373
54705W        W27020  14.179  16.115  11.541
54706W        W27021  42.323  12.784  12.240
54707W        W27022  34.909  17.664  13.937
54708W        W27023  26.685  42.110   5.056
54709W        W27024  39.976  27.442  14.502
54710W        W27025  29.752  30.569  12.924
54711W        W27026  24.740  13.155  10.756
54712W        W27027   0.308  42.857  13.896
54713W        W27028   3.360  36.315  13.013
54714W        W27029  15.866  41.507  12.203
54715W        W27030  41.374  34.793   0.011
54716W        W27031  44.278   6.116   4.166
54717W        W27032   6.278  12.595  14.431
54718W        W27033  19.685  41.364   4.827
54719W        W27034  30.073  13.585  13.506
54720W        W27035  40.294  15.083   1.307
54721W        W27036  22.626  10.484   3.745
54722W        W27037  17.164   6.908  13.961
54723W        W27038  28.921   5.328  13.420
54724W        W27039  23.128  32.169   4.266
54725W        W27040  23.246  39.232  12.033
54726W        W27041  22.813  13.442   0.336
54727W        W27042  32.734  15.574  14.876
54728W        W27043  19.600  32.485  12.010
54729W        W27044  19.048   2.026  10.695
54730W        W27045   6.712  21.389  13.922
54731W        W27046   6.243   7.485  11.916
54732W        W27047  15.800  36.136  13.442
54733W        W27048  16.896  13.937  14.349
54734W        W27049  18.702   6.295  13.811
54735W        W27050  21.181  20.736  14.048
54736W        W27051  42.953   6.284   3.325
54737W        W27052  21.272  40.274   3.212
54738W        W27053  14.905   2.458   1.487
54739W        W27054  38.815  13.617  14.109
54740W        W27055  42.421  28.063   1.355
54741W        W27056   7.922   0.974  14.899
54742W        W27057   6.914   8.281  10.914
54743W        W27058  37.799  38.340  11.349
54744W        W27059   3.881  22.229   2.818
54745W        W27060  27.833  38.215   0.846
54746W        W27061  16.315  27.425   0.148
54747W        W27062  30.987  40.352   0.427
54748W        W27063   2.645  41.909  12.260
54749W        W27064  15.814  26.073   3.390
54750W        W27065  14.283  28.723   0.418
54751W        W27066  43.575  35.813  13.542
54752W        W27067  12.231  33.929  13.281
54753W        W27068  12.696   2.117   2.708
54754W        W27069  25.863   1.890  14.730
54755W        W27070  23.201  31.548  13.302
54756W        W27071  11.865  34.543  10.602
54757W        W27072  23.193  44.277   1.196
54758W        W27073  35.132  11.754  13.883
54759W        W27074   2.071  44.918   0.363
54760W        W27075  23.030  36.742   3.228
54761W        W27076  15.270  25.891   0.849
54762W        W27077   5.328  21.535  14.945
54763W        W27078  43.645  25.044   1.374
54764W        W27079  16.864   1.352  10.999
54765W        W27080  43.073  15.262   1.766
54766W        W27081  25.536  17.100  11.522
54767W        W27082   2.820  21.504  11.147
54768W        W27083  32.636  34.405  14.985
54769W        W27084  18.175  40.799   2.752
54770W        W27085   3.750  29.955  13.404
54771W        W27086   9.455  19.716   4.891
54772W        W27087  38.396  37.919   1.369
54773W        W27088  27.907  12.144  10.317
54774W        W27089  30.591  44.956  13.695
54775W        W27090  42.892  15.745  10.168
54776W        W27091  30.921  26.114   3.796
54777W        W27092  43.089  14.744  13.484
54778W        W27093  21.555  14.347   3.674
54779W        W27094   2.124  30.074   4.692
54780W        W27095  27.480  17.027  10.958
54781W        W27096  10.329  26.523  10.603
54782W        W27097  38.354   3.995  12.011
54783W        W27098  43.801   5.945   0.692
54784W        W27099  34.813  44.736  14.365
54785W        W27100   8.762   7.558   1.901
54786W        W27101  12.133  34.131   4.792
54787W        W27102  20.754  25.263   0.324
54788W        W27103  29.627  41.270  12.574
54789W        W27104  30.040   4.833   3.077
54790W        W27105   4.664  33.590   2.642
54791W        W27106  23.252  33.070   2.749
54792W        W27107  36.995  34.436  14.048
54793W        W27108  41.600  38.892   4.082
54794W        W27109  24.427  12.509   3.702
54795W        W27110   3.266  18.655  12.554
54796W        W27111  42.495  35.092  13.515
54797W        W27112  25.458  27.946  14.428
54798W        W27113  33.906  21.747   3.815
54799W        W27114  42.255  21.138   3.685
54800W        W27115  30.588  12.343  12.227
54801W        W27116   0.286  36.421   0.366
54802W        W27117  38.450  36.011  11.576
54803W        W27118  20.210  13.280  14.433
54804W        W27119  16.968  31.663   1.286
54805W        W27120  31.698   8.411   1.740
54806W        W27121   6.633  22.120   0.596
54807W        W27122  37.512  39.799   2.200
54808W        W27123  29.372   5.726  12.528
54809W        W27124  10.771  12.102  14.648
54810W        W27125  31.903  26.423  10.955
54811W        W27126  23.427  35.950   1.291
54812W        W27127  28.992   1.299  10.716
54813W        W27128   6.905   3.544   4.025
54814W        W27129  26.984  28.381  11.868
54815W        W27130  38.536  43.480  13.538
54816W        W27131  22.934   3.805   4.062
54817W        W27132  44.006  28.473   3.033
54818W        W27133  36.545  44.149   1.481
54819W        W27134  26.281  44.929   3.250
54820W        W27135  13.748  26.413   3.283
54821W        W27136  15.716  41.869  13.362
54822W        W27137  44.208   0.526  13.424
54823W        W27138  23.865  40.659  13.520
54824W        W27139  25.118  17.813   4.235
54825W        W27140  38.935   3.509   4.112
54826W        W27141  30.210   4.367   3.891
54827W        W27142  33.043  24.307   3.587
54828W        W27143  37.237  26.170  13.929
54829W        W27144  42.923  12.319  12.431
54830W        W27145   8.832  24.994   4.961
54831W        W27146   9.315  43.077  14.337
54832W        W27147  24.400  19.835   2.818
54833W        W27148  37.990  25.698   2.459
54834W        W27149  38.786  20.505  11.939
54835W        W27150  11.209  10.644  11.987
54836W        W27151  27.334  27.704   2.705
54837W        W27152  35.474  19.109   4.534
54838W        W27153  12.572  38.105  13.544
54839W        W27154   1.029  35.184  10.675
54840W        W27155   8.199  40.410  10.601
54841W        W27156  29.034  15.247  12.889
54842W        W27157   4.239  21.628  14.260
54843W        W27158  13.737  16.951  12.447
54844W        W27159  12.739   8.313   4.728
54845W        W27160  20.269  24.773  12.062
54846W        W27161  15.219   9.488  12.684
54847W        W27162  12.711  18.306  12.865
54848W        W27163  20.109  11.124   3.581
54849W        W27164  19.730  20.252   5.045
54850W        W27165  19.489  18.841   0.981
54851W        W27166   5.857  14.837   1.503
54852W        W27167  17.808   6.169  13.896
54853W        W27168  11.232  12.329  12.212
54854W        W27169  21.019  40.077   5.048
54855W        W27170  12.534  18.745  14.731
54856W        W27171   9.538  36.723   0.822
54857W        W27172   9.776  20.771  11.907
54858W        W27173  29.789  32.367   2.228
54859W        W27174  43.435  41.990  10.616
54860W        W27175   7.832  28.922   4.540
54861W        W27176  27.210  39.802   0.833
54862W        W27177  41.423  41.553  11.947
54863W        W27178   6.299  43.136  12.030
54864W        W27179   1.996  43.331   3.559
54865W        W27180  32.150   8.820  12.993
54866W        W27181   8.778  24.452   4.290
54867W        W27182  34.165   3.699   1.746
54868W        W27183  37.441   3.110   1.273
54869W        W27184   3.421  38.589   1.339
54870W        W27185  37.390  29.554   3.792
54871W        W27186  15.220   7.623  10.717
54872W        W27187   9.539  18.770   5.495
54873W        W27188  41.722  17.188   3.178
54874W        W27189  30.022  31.091   4.214
54875W        W27190  40.591   6.932   0.307
54876W        W27191   0.953   9.533   5.452
54877W        W27192   7.871   7.154  13.904
54878W        W27193   1.344  40.030  11.151
54879W        W27194  13.722  22.130   1.195
54880W        W27195  37.687   4.368  12.592
54881W        W27196  35.329  17.508  14.313
54882W        W27197  10.713  26.366  11.568
54883W        W27198   6.281  35.682  12.511
54884W        W27199   5.819   0.568  14.381
54885W        W27200   1.822   0.767   4.540
54886W        W27201  28.072  31.486   0.261
54887W        W27202  29.594   1.076   0.525
54888W        W27203  34.358  31.461  10.976
54889W        W27204  39.371  38.052  12.787
54890W        W27205   5.458  43.313  13.289
54891W        W27206  32.380  15.077   1.191
54892W        W27207  23.528  40.971  13.821
54893W        W27208  32.229  44.382   2.264
54894W        W27209  27.884  15.124  11.603
54895W        W27210  18.297   2.341   2.224
54896W        W27211  23.998  24.753  12.091
54897W        W27212  30.327  35.646   0.772
54898W        W27213  26.022   9.664  12.461
54899W        W27214  23.178   4.806   4.150
54900W        W27215   3.350   5.275   2.650
54901W        W27216  20.301  28.973  14.808
54902W        W27217  25.559   9.231   2.200
54903W        W27218  20.729  32.933  11.726
54904W        W27219  33.483  14.797  12.045
54905W        W27220  19.120  10.658   4.138
54906W        W27221  24.502  41.403  12.778
54907W        W27222  25.581  37.156  14.496
54908W        W27223  19.778  29.166   2.821
54909W        W27224  23.215  39.135   4.637
54910W        W27225  27.622  34.415  12.534
54911W        W27226  37.547   6.414   3.653
54912W        W27227  24.741  17.697   4.575
54913W        W27228   3.389  30.137  12.484
54914W        W27229   7.333  19.360  11.260
54915W        W27230  27.749  42.503   0.316
54916W        W27231  31.475  21.138  13.429
54917W        W27232  18.681  35.032   2.326
54918W        W27233  15.553  44.035  10.571
54919W        W27234  33.937  30.277  12.055
54920W        W27235  12.930  39.201  11.539
54921W        W27236  19.445  11.185  10.585
54922W        W27237  23.079  36.279  13.509
54923W        W27238  22.816  39.497  11.082
54924W        W27239  32.380  28.546   0.954
54925W        W27240   5.437  13.559  12.935
54926W        W27241   6.684  32.213   4.440
54927W        W27242  25.067  31.427   2.368
54928W        W27243  40.496  13.824   3.142
54929W        W27244  33.346  15.940   3.984
54930W        W27245  14.826   0.761  11.975
54931W        W27246  19.900   4.361   0.757
54932W        W27247   3.209  39.610   0.398
54933W        W27248  40.119  36.436   0.444
54934W        W27249  43.386   5.902  10.759
54935W        W27250  27.950   4.431  14.947
54936W        W27251  32.264  39.557   0.562
54937W        W27252  44.529  34.392  13.509
54938W        W27253  36.835  25.483   4.634
54939W        W27254  35.144  33.161   0.277
54940W        W27255  13.580  40.362   3.558
54941W        W27256  30.859  30.115   3.730
54942W        W27257   8.890  25.668  11.861
54943W        W27258   9.224  21.131   3.855
54944W        W27259   8.832  34.976  11.007
54945W        W27260  35.533  14.395  12.131
54946W        W27261  40.056  13.244   1.176
54947W        W27262   2.860  37.605   0.567
54948W        W27263  12.608  38.628  13.827
54949W        W27264  40.011  26.149   4.080
54950W        W27265  24.537  17.075  11.525
54951W        W27266  18.749  16.729   2.256
54952W        W27267  43.268   3.946   4.155
54953W        W27268  18.225  17.654   0.510
54954W        W27269  25.280  30.175  11.091
54955W        W27270  10.643  20.773   0.915
54956W        W27271  39.431  40.852  11.928
54957W        W27272  40.849  27.681  14.862
54958W        W27273  12.784   4.455   0.036
54959W        W27274  33.663  10.153   4.166
54960W        W27275   5.729   1.735  11.178
54961W        W27276  13.840  32.638   4.564
54962W        W27277   1.908  44.029   2.303
54963W        W27278  27.190  29.715   4.042
54964W        W27279  17.826  22.283  13.903
54965W        W27280  33.598   1.519  14.996
54966W        W27281   3.952  38.864   4.211
54967W        W27282  16.355  29.012   2.203
54968W        W27283  12.728  22.997  11.564
54969W        W27284  37.791  26.530   3.725
54970W        W27285  43.027  27.924   2.606
54971W        W27286  39.278   8.444   0.892
54972W        W27287  41.728   5.437   4.222
54973W        W27288  30.916   6.129  13.902
54974W        W27289  39.025  36.910   2.088
54975W        W27290  11.112   3.486   1.842
54976W        W27291   9.840  38.941  12.412
54977W        W27292   3.752  37.485  11.582
54978W        W27293  19.235   7.887  12.573
54979W        W27294  28.832  40.922  11.201
54980W        W27295  19.082   4.769  11.541
54981W        W27296  36.973  25.036   3.392
54982W        W27297  40.518   1.960  11.988
54983W        W27298  36.110   7.929  11.568
54984W        W27299  33.352  26.534  11.438
54985W        W27300  16.846  15.218   3.271
54986W        W27301   0.433   3.716  10.525
54987W        W27302  17.589  34.849  14.269
54988W        W27303  39.761  27.998  12.024
54989W        W27304   7.265  11.390  11.973
54990W        W27305  24.203   3.474  12.136
54991W        W27306  43.001  30.867  10.952
54992W        W27307  20.633  16.679  14.289
54993W        W27308  30.832  12.404  11.772
54994W        W27309   9.251   6.446   4.020
54995W        W27310  28.061  22.165  10.100
54996W        W27311  27.259   3.881  12.579
54997W        W27312  21.668  25.586  10.641
54998W        W27313   7.111   0.386  12.811
54999W        W27314  35.009  25.269   4.184
55000W        W27315  25.574   1.111   0.256
55001W        W27316  25.997  34.419  11.567
55002W        W27317   8.930  35.471  12.155
55003W        W27318  26.173  31.575   9.618
55004W        W27319  10.328  37.666  13.921
55005W        W27320  15.776  30.986   4.153
55006W        W27321  17.700  44.482   4.824
55007W        W27322  24.052  37.594   4.499
55008W        W27323  20.366   6.182   0.806
55009W        W27324   1.233  24.539   1.247
55010W        W27325  14.790  18.307  10.718
55011W        W27326  22.254   1.739   1.468
55012W        W27327  11.098  26.139  12.833
55013W        W27328  39.364  17.835   4.612
55014W        W27329   9.023  30.419   4.147
55015W        W27330  28.156  26.697  12.037
55016W        W27331  38.114  37.036  14.038
55017W        W27332   1.806  29.643   2.150
55018W        W27333   1.494   3.799  14.688
55019W        W27334  20.439  35.029   3.800
55020W        W27335  15.582  33.586   1.632
55021W        W27336  38.297   3.174   1.287
55022W        W27337  27.431  16.995  10.439
55023W        W27338  33.436  30.758  11.011
55024W        W27339  30.799  42.687   0.779
55025W        W27340  17.509  43.499  12.050
55026W        W27341   8.341  10.426  12.033
55027W        W27342  33.600  44.150   0.328
55028W        W27343  12.470  16.117   1.836
55029W        W27344  29.946  19.091   4.366
55030W        W27345  29.601  20.803  10.592
55031W        W27346  16.748  18.562   0.846
55032W        W27347   0.451  26.410   4.587
55033W        W27348  40.427  29.068  10.720
55034W        W27349  31.537  41.802  10.726
55035W        W27350   1.799   2.196  12.644
55036W        W27351   0.534  29.472   2.739
55037W        W27352  22.419  37.692  12.302
55038W        W27353  38.135   3.322   3.684
55039W        W27354  20.059  31.198  14.990
55040W        W27355   7.716  23.118  13.459
55041W        W27356   1.828   3.011  14.236
55042W        W27357   8.355   5.816   3.740
55043W        W27358   0.039   8.372  14.851
55044W        W27359  15.166  31.762   2.839
55045W        W27360   1.742  25.043  13.523
55046W        W27361   1.704  32.107   4.167
55047W        W27362  33.018  26.764  11.092
55048W        W27363  25.110  28.500   3.582
55049W        W27364  31.356  32.185  11.485
55050W        W27365  43.879  25.972   3.717
55051W        W27366   2.250  38.198   3.595
55052W        W27367  12.095  38.093  13.343
55053W        W27368  16.686  37.914  11.083
55054W        W27369  40.534  29.096  13.540
55055W        W27370  20.638  24.362  13.246
55056W        W27371  40.353  26.675   2.103
55057W        W27372  29.883  10.680  11.371
55058W        W27373  30.495  35.967   4.890
55059W        W27374   9.592   1.712  10.650
55060W        W27375  19.807  15.192   0.107
55061W        W27376  34.460  24.266  12.126
55062W        W27377  42.041  16.628   3.227
55063W        W27378   3.415  27.366  11.817
55064W        W27379  18.802  30.386   9.900
55065W        W27380  17.164  11.282  14.449
55066W        W27381   9.843  22.219  13.125
55067W        W27382  28.937  11.661  11.193
55068W        W27383  18.504  30.920  10.156
55069W        W27384  10.928  33.058   2.284
55070W        W27385  20.663  15.017   1.739
55071W        W27386   5.862  25.376   3.690
55072W        W27387   4.008  21.230   1.288
55073W        W27388  14.894   8.706  11.922
55074W        W27389  38.442  21.747  14.281
55075W        W27390  24.835  13.486   0.311
55076W        W27391  32.037  36.888   2.182
55077W        W27392  24.632  10.078   0.063
55078W        W27393  37.281  14.617  13.537
55079W        W27394  21.076  44.402   4.690
55080W        W27395   0.996   9.986   1.977
55081W        W27396  15.863  44.015  14.023
55082W        W27397  17.921  21.228  10.030
55083W        W27398   2.378  20.809  13.602
55084W        W27399   5.261  20.583  11.494
55085W        W27400  40.521  34.901   0.883
55086W        W27401  15.077   8.137  11.619
55087W        W27402  42.965   5.945  12.861
55088W        W27403  24.754  32.014   1.677
55089W        W27404   5.856  29.054   3.214
55090W        W27405  34.128  32.780  11.546
55091W        W27406  13.446   5.296  12.431
55092W        W27407  16.964  25.602   4.051
55093W        W27408   5.912  12.862   1.286
55094W        W27409  40.017   0.777   3.336
55095W        W27410  22.905  39.801   4.085
55096W        W27411  40.870  37.560  14.881
55097W        W27412   9.732  29.012   1.075
55098W        W27413  23.574  25.208  14.873
55099W        W27414  30.889  10.877   0.418
55100W        W27415  38.467  23.444   4.052
55101W        W27416  26.503   0.884  12.057
55102W        W27417  19.468  11.332  10.094
55103W        W27418   2.412   5.692   4.071
55104W        W27419   1.736  33.480  13.591
55105W        W27420  44.947  23.262  12.067
55106W        W27421  19.825  38.348   2.716
55107W        W27422   1.515  42.553  11.213
55108W        W27423  19.208  30.363   1.118
55109W        W27424  35.779  14.822  13.403
55110W        W27425  15.210  38.767   3.137
55111W        W27426  13.187   3.700   1.483
55112W        W27427  28.263  30.153   3.189
55113W        W27428  33.880   6.064  10.686
55114W        W27429  18.667  22.557  11.325
55115W        W27430  34.451  16.211   3.243
55116W        W27431  13.286   5.326   1.612
55117W        W27432  15.017  26.389   0.066
55118W        W27433  31.648   8.944  10.831
55119W        W27434   9.202   3.455  14.883
55120W        W27435  28.812   8.718   4.681
55121W        W27436  21.045  31.971   3.609
55122W        W27437  44.734  24.555  12.592
55123W        W27438  33.698  22.988   1.903
55124W        W27439  40.771  35.880   2.464
55125W        W27440  36.886  17.581   3.720
55126W        W27441  28.900  44.097   2.019
55127W        W27442  22.463   8.549   3.180
55128W        W27443  36.694  42.784  13.338
55129W        W27444   4.643  43.470   3.931
55130W        W27445  43.477  19.050   1.794
55131W        W27446   1.828  16.505   4.472
55132W        W27447   9.731   4.717  10.731
55133W        W27448   5.010  15.566   2.841
55134W        W27449   4.905   5.895   3.740
55135W        W27450   2.322   0.039   0.923
55136W        W27451   7.804  20.232   0.875
55137W        W27452  43.311  41.084   3.318
55138W        W27453  31.885  39.216   0.691
55139W        W27454  25.603   3.132  10.766
55140W        W27455  33.048   7.805  11.790
55141W        W27456  38.052   5.313   1.521
55142W        W27457  39.437  31.838   0.182
55143W        W27458  14.904   7.048  12.832
55144W        W27459  15.285  28.296  14.447
55145W        W27460  27.930  16.296   4.129
55146W        W27461  29.128  40.473  11.154
55147W        W27462  33.411  31.651   2.678
55148W        W27463   5.854  14.096  12.896
55149W        W27464  20.836  31.124   3.204
55150W        W27465  21.416  40.778  10.816
55151W        W27466  44.036  13.179  13.991
55152W        W27467  17.256  33.209   0.372
55153W        W27468  32.689   5.052  14.451
55154W        W27469  34.071  12.157   2.244
55155W        W27470   3.568  30.975  13.551
55156W        W27471  25.044  24.309  14.491
55157W        W27472   3.881  33.643  14.459
55158W        W27473  16.919   0.452   0.958
55159W        W27474  37.429  35.300   4.181
55160W        W27475  21.978   4.888  11.513
55161W        W27476  23.887  43.490  14.321
55162W        W27477  44.938  26.960  13.311
55163W        W27478  33.246  10.121   0.292
55164W        W27479   8.378  29.151  14.959
55165W        W27480  17.534  32.277  11.824
55166W        W27481  39.025  19.237  14.931
55167W        W27482  29.637  43.993   4.089
55168W        W27483   4.858  22.065  12.577
55169W        W27484  43.663  39.390  12.441
55170W        W27485   3.855  19.800  12.944
55171W        W27486  22.101  11.382  14.900
55172W        W27487  26.255  13.198  12.134
55173W        W27488   4.126  38.007   2.662
55174W        W27489   3.064  19.656   4.700
55175W        W27490  40.822   8.819  14.537
55176W        W27491  15.200  39.574  11.584
55177W        W27492  25.895  39.202  12.471
55178W        W27493  21.302  36.862  13.820
55179W        W27494  19.303   3.450   2.596
55180W        W27495  37.477  44.705  13.918
55181W        W27496  20.571  27.259   1.947
55182W        W27497   9.689  22.711   4.514
55183W        W27498  22.123  19.521  12.526
55184W        W27499  14.103  28.690   3.373
55185W        W27500  29.359  42.033   1.262
55186W        W27501  17.356  25.184  14.903
55187W        W27502   0.012   8.493   2.455
55188W        W27503  24.982  32.992  12.501
55189W        W27504  14.667  38.940   1.987
55190W        W27505   6.981  29.888  13.797
55191W        W27506  19.977  31.492   4.232
55192W        W27507  14.622  32.105  11.182
55193W        W27508  25.830  37.916   3.628
55194W        W27509  34.187  36.727   3.807
55195W        W27510  37.544  15.103   2.814
55196W        W27511  16.213   7.580   2.184
55197W        W27512  41.967  33.949   4.592
55198W        W27513  23.946  41.267  14.006
55199W        W27514  40.204  15.104   2.368
55200W        W27515  40.923  21.977  14.280
55201W        W27516   9.371  32.101  10.576
55202W        W27517   8.744  41.378   4.248
55203W        W27518   9.898  28.938   4.097
55204W        W27519  14.591  28.132   0.817
55205W        W27520  37.076  25.456   4.156
55206W        W27521   5.765   6.439  10.605
55207W        W27522  17.170  19.098   0.799
55208W        W27523  25.445   0.702  12.014
55209W        W27524   5.037  37.763  11.056
55210W        W27525  18.392   4.548   0.975
55211W        W27526   8.231   4.686  12.263
55212W        W27527   4.293   1.390  11.058
55213W        W27528  32.409  26.202  11.589
55214W        W27529  24.622  35.994   0.811
55215W        W27530  24.046  17.502   2.343
55216W        W27531   8.290  11.335   1.818
55217W        W27532  11.846  10.203  11.622
55218W        W27533  27.993  24.222   1.252
55219W        W27534  19.995  39.930   3.244
55220W        W27535  15.895  38.032   4.805
55221W        W27536  11.273   0.870   0.000
55222W        W27537  39.115  27.029   2.083
55223W        W27538  33.915  43.754   2.647
55224W        W27539  29.509  11.910   5.474
55225W        W27540  42.401   1.216   0.733
55226W        W27541  16.978  10.833   4.570
55227W        W27542  11.470   0.020  12.076
55228W        W27543  22.028  34.187  12.943
55229W        W27544  14.737  11.222   0.382
55230W        W27545  38.339  40.521  10.707
55231W        W27546   8.515  32.716   3.244
55232W        W27547  31.768  12.141  11.584
55233W        W27548  27.920  32.815   1.826
55234W        W27549  20.186  16.373  11.114
55235W        W27550  40.874  18.002  12.756
55236W        W27551  12.529  14.674   2.464
55237W        W27552  35.952  11.099  13.046
55238W        W27553  24.234   0.569  13.997
55239W        W27554   1.485  14.177   3.219
55240W        W27555  26.570  16.871  13.893
55241W        W27556   9.943  14.365   2.909
55242W        W27557   5.615  11.817  13.373
55243W        W27558  15.277  20.100  13.272
55244W        W27559  34.482  34.973   3.727
55245W        W27560  29.845  32.009  11.890
55246W        W27561  30.497  19.290   4.218
55247W        W27562  41.924  14.889   4.645
55248W        W27563  24.553  40.137   0.738
55249W        W27564  14.573   3.665  11.235
55250W        W27565  43.706  38.708  13.382
55251W        W27566  14.770  44.922   3.621
55252W        W27567  17.012  24.954   2.726
55253W        W27568  43.357  10.770   0.896
55254W        W27569  28.987   6.416   4.257
55255W        W27570   2.928  20.913   3.058
55256W        W27571  32.051  34.451   2.086
55257W        W27572  16.304  36.599  13.542
55258W        W27573  39.448  29.140  14.214
55259W        W27574  22.416   7.767   3.673
55260W        W27575  18.848   3.287   1.672
55261W        W27576  20.350  10.620   5.109
55262W        W27577  39.015  19.028  13.577
55263W        W27578  35.986  15.067  12.055
55264W        W27579  39.170  26.705  10.225
55265W        W27580  42.867  35.334  13.816
55266W        W27581   7.384  24.060   4.593
55267W        W27582  14.131   6.917  13.379
55268W        W27583   5.398  29.041   4.636
55269W        W27584  15.073   4.282   1.359
55270W        W27585  28.292  41.705   0.252
55271W        W27586  31.763  34.906   0.300
55272W        W27587  37.762  32.067   4.011
55273W        W27588  20.677   3.065   3.221
55274W        W27589  10.087  20.467   2.302
55275W        W27590  17.243   7.653   1.643
55276W        W27591  27.816  31.717  12.619
55277W        W27592  27.651  20.230   1.970
55278W        W27593  18.615  33.506   9.770
55279W        W27594  30.117  15.036   0.194
55280W        W27595  31.018   3.135  10.024
55281W        W27596  22.527  38.414   3.741
55282W        W27597  15.559   6.105   3.054
55283W        W27598   5.434  26.927   3.724
55284W        W27599  25.053  22.487  13.905
55285W        W27600  30.829   8.628  12.560
55286W        W27601  42.384  17.067  11.579
55287W        W27602  36.986  21.666   1.784
55288W        W27603  23.893  15.641  10.711
55289W        W27604  10.712  15.814   3.325
55290W        W27605  21.167  25.528   2.739
55291W        W27606  26.417  34.103   4.934
55292W        W27607  42.228  18.238  10.485
55293W        W27608  13.966  20.217  10.876
55294W        W27609   2.434  10.150   0.041
55295W        W27610  16.819  16.819  12.463
55296W        W27611  31.435   0.433  11.091
55297W        W27612  37.909  21.316  14.362
55298W        W27613  22.185  13.155  10.692
55299W        W27614  34.382   5.960  12.309
55300W        W27615   4.160  13.833   3.744
55301W        W27616  32.000   1.334  13.994
55302W        W27617  11.274  20.888   2.711
55303W        W27618  11.151  28.664   1.951
55304W        W27619  37.678  15.920   2.223
55305W        W27620   6.631  10.123   1.042
55306W        W27621  38.848  33.000   1.209
55307W        W27622   2.897  34.002  12.793
55308W        W27623  32.526  30.562  13.104
55309W        W27624  26.127  40.566   2.293
55310W        W27625  12.809   5.328   2.944
55311W        W27626   5.398  27.263  13.861
55312W        W27627  30.931   2.071  14.446
55313W        W27628   9.326  15.469  10.058
55314W        W27629  12.600  18.022  13.301
55315W        W27630  26.116  32.504   5.006
55316W        W27631  39.058  12.063  13.859
55317W        W27632  24.903  32.414  13.918
55318W        W27633  20.736  38.864  11.627
55319W        W27634   7.824  16.982   2.788
55320W        W27635  31.073  24.235   2.247
55321W        W27636  26.007  19.489   1.300
55322W        W27637   4.952  11.888   4.937
55323W        W27638   8.882  37.920  14.852
55324W        W27639  11.415  14.607  11.590
55325W        W27640  10.612  17.608   0.017
55326W        W27641  17.233  25.885  12.787
55327W        W27642  33.951  23.542  10.380
55328W        W27643   8.464   5.207   0.601
55329W        W27644  40.058  27.542   4.219
55330W        W27645  24.510  35.185  14.711
55331W        W27646  40.494  32.593   4.213
55332W        W27647   1.244  20.681  12.555
55333W        W27648  25.779  17.159  11.981
55334W        W27649  29.395  25.771   0.322
55335W        W27650  16.477  40.699   0.255
55336W        W27651  23.914  10.658   0.928
55337W        W27652  27.487  22.306   0.259
55338W        W27653  29.996  24.926  13.938
55339W        W27654   1.304  38.800   3.329
55340W        W27655  36.609  15.081  10.656
55341W        W27656  18.993  11.587  14.819
55342W        W27657  34.144  21.223  12.152
55343W        W27658  42.414  13.134   1.292
55344W        W27659   8.904  30.933   4.612
55345W        W27660  20.044  15.263   3.773
55346W        W27661  43.518  13.104   2.943
55347W        W27662  19.266   1.385  11.268
55348W        W27663  42.479  16.004  14.317
55349W        W27664  20.370  44.501   0.450
55350W        W27665  13.291   2.091   1.933
55351W        W27666  35.316  35.528   4.720
55352W        W27667  35.645   0.272  12.276
55353W        W27668  24.227   8.771  12.022
55354W        W27669  22.459   1.280   0.711
55355W        W27670  11.778  21.953   4.892
55356W        W27671   6.229   0.757   4.787
55357W        W27672  15.963  29.961  10.174
55358W        W27673   9.385  12.093  13.276
55359W        W27674  16.715  36.784   4.597
55360W        W27675  36.127  27.470  11.524
55361W        W27676  28.466  29.940  12.087
55362W        W27677  27.048  27.236  12.522
55363W        W27678  14.160  35.760   3.807
55364W        W27679  10.178  42.837  14.548
55365W        W27680  40.807  10.427   4.607
55366W        W27681  13.100   9.735   0.825
55367W        W27682  20.742  20.106   2.387
55368W        W27683  35.161  43.469   3.027
55369W        W27684  23.319   5.562  12.124
55370W        W27685   4.345  41.592  12.017
55371W        W27686  20.776   5.095   4.901
55372W        W27687  16.929  14.148  10.658
55373W        W27688   7.435   6.245   2.300
55374W        W27689  40.342  42.540   3.610
55375W        W27690  33.424  22.903  14.211
55376W        W27691   9.174  32.180  13.970
55377W        W27692  16.627  24.001  12.976
55378W        W27693  32.023  23.736  10.701
55379W        W27694  21.641   6.425   3.271
55380W        W27695  41.624  23.812  11.540
55381W        W27696  23.595  22.489  14.984
55382W        W27697  18.044   9.875  12.489
55383W        W27698  30.819   3.336  11.009
55384W        W27699  23.869   8.760   0.084
55385W        W27700  12.719  28.750   1.321
55386W        W27701  11.869   4.480   3.971
55387W        W27702  29.045  14.800   0.918
55388W        W27703   2.722  39.987  14.452
55389W        W27704  44.452  23.023   2.557
55390W        W27705  41.765  13.592   3.698
55391W        W27706  20.242  30.925  11.506
55392W        W27707  41.294  43.996   1.656
55393W        W27708   7.689   6.990   2.427
55394W        W27709  11.185  41.976   0.976
55395W        W27710  10.757  11.631  13.515
55396W        W27711  10.454  36.012  11.643
55397W        W27712  43.084  22.764   5.072
55398W        W27713  31.613   4.887   3.690
55399W        W27714  19.729   6.354   3.879
55400W        W27715   0.458   0.906   0.356
55401W        W27716  12.192  14.413   2.152
55402W        W27717   0.381  13.142   3.612
55403W        W27718  13.022  26.831   4.679
55404W        W27719  33.704  40.318   1.326
55405W        W27720  31.511  28.416  10.906
55406W        W27721  39.815  12.113  12.349
55407W        W27722  11.134  24.565  12.513
55408W        W27723  27.491  21.486   3.250
55409W        W27724  19.090  12.771  14.288
55410W        W27725  42.537  44.476   2.783
55411W        W27726  33.615   5.611  12.894
55412W        W27727  20.131  23.944   4.118
55413W        W27728   8.118  42.367   1.693
55414W        W27729  24.224  12.516  11.163
55415W        W27730   3.932   8.777  13.471
55416W        W27731  38.144  13.841  12.840
55417W        W27732  40.324   1.910  14.082
55418W        W27733  22.694  16.242   0.110
55419W        W27734  28.538  19.605  13.999
55420W        W27735  21.783  21.035  14.477
55421W        W27736  40.986  24.798  12.914
55422W        W27737  15.558  43.563   2.321
55423W        W27738  36.084   5.849  11.618
55424W        W27739  33.323  11.790   4.964
55425W        W27740  11.729  16.149  10.667
55426W        W27741  30.396  36.865   1.148
55427W        W27742  28.962  17.023  12.607
55428W        W27743  15.714   5.919  12.516
55429W        W27744  35.099  15.794   3.625
55430W        W27745  28.994  39.961   0.909
55431W        W27746   6.635  27.512   2.311
55432W        W27747   3.816   2.480   0.788
55433W        W27748  26.171  28.060  11.159
55434W        W27749  36.092  24.396   4.629
55435W        W27750   9.718   7.935   0.677
55436W        W27751  14.017  44.140   4.954
55437W        W27752  22.284  37.060  13.748
55438W        W27753   6.835  18.146   3.396
55439W        W27754  26.398  35.448   2.027
55440W        W27755  11.280  40.249  11.081
55441W        W27756  27.963   0.337   1.218
55442W        W27757  35.413  39.277   0.753
55443W        W27758  16.534  37.092  12.018
55444W        W27759  36.612  39.542   0.296
55445W        W27760  12.105  11.135   0.486
55446W        W27761  19.140  21.738  11.585
55447W        W27762   7.002  26.247  12.837
55448W        W27763  16.144   1.009  14.012
55449W        W27764  16.597  26.088  13.571
55450W        W27765   6.869  36.794   4.741
55451W        W27766  14.215  15.331  11.064
55452W        W27767  29.262   6.870   3.804
55453W        W27768  14.399   9.350   3.111
55454W        W27769  35.375  20.498  12.877
55455W        W27770   4.480  32.479  13.543
55456W        W27771   2.300  43.330   4.387
55457W        W27772   4.526  14.760  11.181
55458W        W27773   9.616   2.253  10.621
55459W        W27774  36.785   4.814   3.640
55460W        W27775  10.580  25.793   0.302
55461W        W27776  41.097   1.772   0.012
55462W        W27777  40.582  33.590   1.421
55463W        W27778  22.395  41.560  12.052
55464W        W27779  17.063  33.392  11.122
55465W        W27780  31.373  25.937   0.587
55466W        W27781  35.959   2.273   1.815
55467W        W27782  15.350  30.004  13.959
55468W        W27783  18.318   9.808  11.868
55469W        W27784   6.880  36.823   2.779
55470W        W27785   8.661  33.544   3.148
55471W        W27786  39.644  31.823  11.668
55472W        W27787  17.023  30.664  14.546
55473W        W27788   4.432  21.178  14.486
55474W        W27789  34.215  38.865   3.578
55475W        W27790   7.705  21.189  12.969
55476W        W27791   1.312  36.628   0.999
55477W        W27792  18.540  40.819  10.734
55478W        W27793  42.951   3.929   4.668
55479W        W27794  38.406  24.392  14.988
55480W        W27795  37.076   3.173  12.172
55481W        W27796   7.203  39.244  12.098
55482W        W27797  15.011  24.942  13.438
55483W        W27798  15.733  19.747   4.850
55484W        W27799  43.404  23.033  12.821
55485W        W27800   4.417  41.269  11.176
55486W        W27801   4.476  36.514  12.548
55487W        W27802   3.849  12.895  11.010
55488W        W27803   7.293   1.440   3.117
55489W        W27804  18.108  40.767  12.431
55490W        W27805   3.136   1.927  13.807
55491W        W27806  14.611  39.392  12.030
55492W        W27807   2.842  14.349  13.665
55493W        W27808  37.821  21.570  12.982
55494W        W27809  44.418  23.870  10.425
55495W        W27810   1.249   2.907  12.994
55496W        W27811   0.275  25.216   0.905
55497W        W27812   8.713  19.295  10.488
55498W        W27813  27.875  35.021   2.393
55499W        W27814   1.618  31.485   4.590
55500W        W27815   6.698  18.531   4.762
55501W        W27816  19.186  27.366  14.960
55502W        W27817   7.164  14.329  14.960
55503W        W27818  38.084   8.227   3.171
55504W        W27819   4.781  14.234   3.127
55505W        W27820  41.146   1.369  13.022
55506W        W27821   2.007  12.604  14.650
55507W        W27822  43.930   3.868   4.547
55508W        W27823  14.559  37.947  13.381
55509W        W27824  14.667  23.384  11.950
55510W        W27825  41.566  29.884  11.994
55511W        W27826  36.667  40.513   3.758
55512W        W27827  16.623  31.453  11.035
55513W        W27828   1.661  23.146   3.336
55514W        W27829  40.729   3.927   1.879
55515W        W27830  25.047  32.867   2.420
55516W        W27831   1.916  34.773  11.609
55517W        W27832  21.494  22.187  13.631
55518W        W27833   9.577  44.823  13.908
55519W        W27834  23.062  42.692  11.454
55520W        W27835   7.876  22.326   5.252
55521W        W27836  34.798   6.689   4.313
55522W        W27837  40.506  18.629   0.545
55523W        W27838  11.457  13.751  11.617
55524W        W27839  17.980  18.139  13.727
55525W        W27840  23.679  40.295  10.749
55526W        W27841  40.097  14.573  14.152
55527W        W27842  15.352  38.765   1.275
55528W        W27843  28.417  30.970  12.911
55529W        W27844   6.250   3.368   1.368
55530W        W27845  15.140  26.889  14.998
55531W        W27846  38.747  26.530   3.837
55532W        W27847  21.896  40.030   4.143
55533W        W27848  30.828  14.768   0.016
55534W        W27849   4.639   9.636  11.267
55535W        W27850   4.883  17.956  10.341
55536W        W27851  32.465  12.931   1.507
55537W        W27852  13.165  11.627  13.166
55538W        W27853   6.465  26.115  10.534
55539W        W27854  19.249  16.806  13.928
55540W        W27855  11.929  26.650   0.909
55541W        W27856  25.028  39.514  14.017
55542W        W27857  30.430  32.618  14.929
55543W        W27858  16.397  32.106  11.695
55544W        W27859  44.478  23.641   0.410
55545W        W27860  34.056   1.795  13.765
55546W        W27861  41.910  12.060   1.616
55547W        W27862   5.855  24.496  12.789
55548W        W27863  43.486  22.674   1.365
55549W        W27864  11.771   6.736  12.279
55550W        W27865   8.270  11.085   0.461
55551W        W27866  29.736  44.871  14.331
55552W        W27867  26.939  43.997  10.533
55553W        W27868  32.982   5.994   1.753
55554W        W27869  40.789  30.757  11.171
55555W        W27870  35.635  13.713   0.305
55556W        W27871  18.231  11.204  13.457
55557W        W27872   9.197   7.752   3.786
55558W        W27873   0.797  44.156  14.009
55559W        W27874  21.572  27.083  10.757
55560W        W27875  15.022  17.309   4.080
55561W        W27876   0.337  30.997  11.925
55562W        W27877  18.559  22.980  13.676
55563W        W27878  27.041   8.955  14.563
55564W        W27879  25.515  41.099  12.987
55565W        W27880  18.224  20.980   4.851
55566W        W27881  26.742   5.779   1.487
55567W        W27882  16.533  41.897   0.246
55568W        W27883   6.338  33.564   0.313
55569W        W27884  43.489  14.043  12.733
55570W        W27885  21.707  18.521   1.452
55571W        W27886  10.811  12.949   4.167
55572W        W27887   3.059  33.127   2.288
55573W        W27888  33.977  21.649   0.991
55574W        W27889  11.726  22.148  13.698
55575W        W27890  37.395  10.299   1.391
55576W        W27891  30.126  21.223   3.781
55577W        W27892  22.012  31.691  10.509
55578W        W27893   1.501  18.567   2.846
55579W        W27894  20.776  38.387   4.847
55580W        W27895  37.286  10.986  11.629
55581W        W27896   4.464  37.894   1.343
55582W        W27897  43.921   5.911  10.569
55583W        W27898  18.280  26.381  11.487
55584W        W27899   8.521  19.825   0.858
55585W        W27900  20.728  39.752  10.696
55586W        W27901  33.000  26.746  12.033
55587W        W27902  34.383  28.457  14.787
55588W        W27903  38.959  21.494  12.011
55589W        W27904  35.460  33.886   0.531
55590W        W27905  23.231  43.649   3.421
55591W        W27906   3.697  29.604  13.999
55592W        W27907   8.381   4.006  11.196
55593W        W27908  14.367  21.981  13.544
55594W        W27909  41.851   7.468   2.817
55595W        W27910  11.159  29.546  11.661
55596W        W27911   2.774  30.002   0.560
55597W        W27912  14.330  19.617   2.437
55598W        W27913  20.039  11.286   1.827
55599W        W27914  30.070  44.878   4.020
55600W        W27915  31.670   7.836  13.855
55601W        W27916  24.057  30.349   2.354
55602W        W27917   1.287  43.015   3.725
55603W        W27918   6.212  43.585   0.651
55604W        W27919  41.819  13.044  11.593
55605W        W27920  41.426  16.109  12.873
55606W        W27921  10.678  28.149   0.210
55607W        W27922  39.729  14.910   4.714
55608W        W27923   8.910  39.274  10.716
55609W        W27924  13.134   1.570  12.482
55610W        W27925  29.312  38.926   5.121
55611W        W27926  34.558  41.481   2.151
55612W        W27927  20.640  42.228  12.480
55613W        W27928  24.680  29.014  14.905
55614W        W27929   6.875   1.698   3.334
55615W        W27930   9.822  27.992   1.053
55616W        W27931  35.966  44.711  12.917
55617W        W27932  17.102  17.549   3.623
55618W        W27933  20.250  29.428   3.198
55619W        W27934  24.291  29.508   4.096
55620W        W27935   9.350  20.667  12.465
55621W        W27936  27.993  37.066  12.060
55622W        W27937  13.592  41.882   4.240
55623W        W27938   5.669  42.293  13.876
55624W        W27939  28.638  38.816  11.147
55625W        W27940  29.488  28.697  14.248
55626W        W27941   3.795  13.974   4.411
55627W        W27942   5.390  10.456  11.566
55628W        W27943   4.982  32.613  12.116
55629W        W27944  36.947  19.867   0.691
55630W        W27945  25.689  18.031  10.530
55631W        W27946  23.630  43.823   3.889
55632W        W27947  15.769   4.276  11.702
55633W        W27948  35.881   6.727   1.855
55634W        W27949  16.864   9.774   2.645
55635W        W27950  35.632   0.014   4.516
55636W        W27951  18.563  42.302  13.917
55637W        W27952  14.101  31.996   4.395
55638W        W27953  24.521  31.591  13.806
55639W        W27954   4.484   0.410  13.440
55640W        W27955  44.728   7.420   0.630
55641W        W27956   4.953  38.610  13.406
55642W        W27957   7.818  33.575  14.775
55643W        W27958  40.354  11.626   2.810
55644W        W27959  24.413  44.230   4.222
55645W        W27960   1.185  24.606   3.082
55646W        W27961  13.885  38.412   0.706
55647W        W27962  25.246  34.865   4.955
55648W        W27963  28.003  13.829   2.662
55649W        W27964  40.432   7.423   0.338
55650W        W27965  34.469  23.316   2.898
55651W        W27966  32.912   7.390   3.655
55652W        W27967  38.315  17.769  13.492
55653W        W27968  39.859  42.685  13.480
55654W        W27969   8.704  34.599   1.700
55655W        W27970  27.486  36.444  12.548
55656W        W27971  38.083  28.688  12.696
55657W        W27972   4.947  38.067   1.311
55658W        W27973  33.051  10.202   2.148
55659W        W27974  35.974  40.587   2.578
55660W        W27975  28.910  21.603   0.890
55661W        W27976  39.964  26.149  14.006
55662W        W27977  17.969   1.278  12.404
55663W        W27978  14.842   6.311   0.671
55664W        W27979  12.686  37.083   4.256
55665W        W27980  38.907  16.784   2.940
55666W        W27981  27.634  34.198  13.024
55667W        W27982  29.465  19.146   2.708
55668W        W27983  19.522  28.934  13.861
55669W        W27984  13.921  13.904  11.467
55670W        W27985  30.631  44.436  12.002
55671W        W27986  29.334  27.042  14.001
55672W        W27987   5.950  35.470  13.787
55673W        W27988   3.824  42.555   1.761
55674W        W27989  19.764  26.561  12.491
55675W        W27990  18.799   2.348   0.215
55676W        W27991  14.807  29.135   4.956
55677W        W27992  21.675  14.335   0.524
55678W        W27993  21.043   1.747   1.884
55679W        W27994  10.254   6.646  14.497
55680W        W27995  31.465   5.402  13.613
55681W        W27996   9.674   4.171  13.746
55682W        W27997  22.969  32.911   1.761
55683W        W27998  21.043  13.837   0.426
55684W        W27999  36.338  36.011   0.655
55685W        W28000  16.689  14.722  11.583
55686W        W28001   7.701  44.480   2.143
55687W        W28002  14.046  31.959   2.397
55688W        W28003  36.994  16.447   4.497
55689W        W28004   5.149   1.053   1.365
55690W        W28005  11.833  41.505   2.970
55691W        W28006  23.656   8.267   3.618
55692W        W28007  38.365  40.714  13.983
55693W        W28008   0.939  37.100  10.655
55694W        W28009  42.979  35.665  11.071
55695W        W28010  32.457  18.797   1.740
55696W        W28011  31.927  41.872  14.932
55697W        W28012  28.035  23.038  11.178
55698W        W28013   5.358  41.485   3.455
55699W        W28014  22.514  40.526   3.909
55700W        W28015  30.119  18.132   1.175
55701W        W28016  25.694  17.151   4.125
55702W        W28017   9.719  37.069  13.092
55703W        W28018  33.144  34.526  13.741
55704W        W28019  42.887  13.304  11.575
55705W        W28020  24.943  33.851  10.979
55706W        W28021  11.915   6.443  11.889
55707W        W28022  13.065  21.608   4.585
55708W        W28023  43.525  25.395   3.103
55709W        W28024   3.848  24.955   2.655
55710W        W28025   1.990  24.713  11.102
55711W        W28026  33.076   5.229   2.321
55712W        W28027  16.578  16.702  14.889
55713W        W28028  30.723  34.170  14.075
55714W        W28029  16.009   3.515   3.752
55715W        W28030  15.577  39.397   3.678
55716W        W28031  39.834  41.952  14.020
55717W        W28032  36.356  19.504  13.376
55718W        W28033  29.552  29.625   0.385
55719W        W28034  12.974  32.829   2.118
55720W        W28035  36.819  42.275   2.166
55721W        W28036  33.919  27.218  11.384
55722W        W28037  43.137  31.290   1.375
55723W        W28038  19.236  12.869   3.348
55724W        W28039  42.390  23.582   1.335
55725W        W28040  39.582  24.125   1.392
55726W        W28041  32.893   4.703  11.096
55727W        W28042  15.693   9.226  12.028
55728W        W28043   3.853   1.966   0.847
55729W        W28044  32.473  25.163   2.658
55730W        W28045  18.960  21.148  10.430
55731W        W28046  34.100  32.353   4.526
55732W        W28047   5.181  28.850   3.348
55733W        W28048  25.771  31.680   1.169
55734W        W28049  40.503  21.021  12.339
55735W        W28050  42.491  43.664   0.446
55736W        W28051  13.645   2.729   1.357
55737W        W28052  22.630   4.221  14.985
55738W        W28053  13.383  41.433  14.754
55739W        W28054   5.755  39.381  14.756
55740W        W28055  22.013  43.611  14.434
55741W        W28056  24.814  29.211   2.916
55742W        W28057  28.154  12.010   4.392
55743W        W28058  25.947   6.198  13.945
55744W        W28059  44.005  41.240   2.132
55745W        W28060  40.049  41.774   4.651
55746W        W28061  38.354  18.539   2.708
55747W        W28062  27.497  23.208  12.938
55748W        W28063  33.992  26.239  11.001
55749W        W28064  32.451  38.586  14.545
55750W        W28065  29.399  13.143   2.289
55751W        W28066  32.188  40.531   2.156
55752W        W28067  18.591  38.352   3.294
55753W        W28068   5.112   1.969   3.855
55754W        W28069  41.024  18.048   4.695
55755W        W28070  10.487  27.281   0.740
55756W        W28071  43.792  32.000   0.253
55757W        W28072  13.997  16.322   2.317
55758W        W28073  35.051   8.935   0.762
55759W        W28074   7.782  29.698   3.302
55760W        W28075   8.396   3.350   0.844
55761W        W28076  43.904   4.643  13.180
55762W        W28077  43.198  20.684  11.876
55763W        W28078   9.388  22.962   3.063
55764W        W28079  34.697   3.823   0.981
55765W        W28080  22.187  20.089   2.382
55766W        W28081   5.888  33.647  13.042
55767W        W28082  41.295  15.223   4.186
55768W        W28083  25.948  41.344  11.599
55769W        W28084  18.899   4.260  11.583
55770W        W28085  33.925   9.408  13.886
55771W        W28086  28.184   6.393   2.694
55772W        W28087  22.227   3.090  14.431
55773W        W28088   0.009  11.813   3.219
55774W        W28089  30.543  30.868   0.337
55775W        W28090  35.843  30.933   4.270
55776W        W28091  10.202  43.914   3.092
55777W        W28092  34.338  29.027  11.547
55778W        W28093   1.436  29.468  12.909
55779W        W28094  13.418  40.980   2.335
55780W        W28095  34.960   3.810   3.599
55781W        W28096  43.822   6.260   4.864
55782W        W28097  33.406  10.284   3.712
55783W        W28098  32.084   4.459  10.697
55784W        W28099  24.642  30.376   1.916
55785W        W28100  27.846  17.412   0.314
55786W        W28101   6.508  34.581   1.338
55787W        W28102  42.464  44.047  11.123
55788W        W28103  12.604   9.779  11.463
55789W        W28104   2.191  41.032  12.142
55790W        W28105  38.276   3.517   2.108
55791W        W28106  41.867  10.277  12.206
55792W        W28107  29.742  39.218   2.790
55793W        W28108  33.879  25.739  14.874
55794W        W28109  30.855   6.925   4.783
55795W        W28110  16.029  28.569   1.422
55796W        W28111  29.411   4.299  11.713
55797W        W28112  23.475  15.007  13.472
55798W        W28113  12.918  24.044   1.878
55799W        W28114  12.282   3.726  11.529
55800W        W28115  29.441   8.844   0.425
55801W        W28116  42.508  14.770  10.968
55802W        W28117  40.874  28.572   2.700
55803W        W28118   0.365  33.165   3.033
55804W        W28119  27.271  12.771   1.308
55805W        W28120  14.066  10.766  11.429
55806W        W28121  20.135  25.670   2.474
55807W        W28122  36.141  39.344  12.192
55808W        W28123   8.673  38.574  14.008
55809W        W28124  19.752  20.597  12.008
55810W        W28125  39.444  40.021  11.525
55811W        W28126  29.135  13.748   1.711
55812W        W28127  14.235  27.013  11.862
55813W        W28128   4.264  38.403   4.118
55814W        W28129  37.472   5.061   1.178
55815W        W28130  32.567  37.262  12.093
55816W        W28131  21.444  39.386  11.400
55817W        W28132  11.623  36.517   2.929
55818W        W28133   4.631   9.810  12.852
55819W        W28134   6.403  35.128   0.285
55820W        W28135  41.270  42.269   0.687
55821W        W28136  18.044  44.363   3.595
55822W        W28137  24.182   0.769   2.352
55823W        W28138  38.555  20.416   0.684
55824W        W28139  11.751  11.671   2.824
55825W        W28140   5.809   3.982  11.393
55826W        W28141   2.875  31.693  13.809
55827W        W28142  43.986   6.268  13.636
55828W        W28143   1.321  12.103  10.190
55829W        W28144  42.887  10.581   1.771
55830W        W28145  31.015  21.774  11.932
55831W        W28146  24.344  15.515  14.774
55832W        W28147  27.425   0.198  14.498
55833W        W28148   8.376  23.742   3.584
55834W        W28149  29.440  24.607   4.210
55835W        W28150  43.385  10.095  10.777
55836W        W28151  27.439  29.397  14.049
55837W        W28152  25.085   5.755   4.059
55838W        W28153  43.187  41.855  11.568
55839W        W28154   6.465  17.084   0.467
55840W        W28155  11.578  12.989   1.409
55841W        W28156  15.539   3.824  11.463
55842W        W28157  19.267  18.630  13.787
55843W        W28158  17.141   4.678   1.666
55844W        W28159   0.738  43.532  12.966
55845W        W28160  12.695   9.228   1.776
55846W        W28161  11.208   3.708  11.945
55847W        W28162  27.444  40.795   2.356
55848W        W28163  21.512   9.434  12.015
55849W        W28164  19.034  18.269  14.981
55850W        W28165  30.623  16.292  14.412
55851W        W28166   0.516   6.708  14.602
55852W        W28167  24.099   2.368   4.611
55853W        W28168  17.840   1.185  13.781
55854W        W28169  15.350  34.588  11.801
55855W        W28170  42.841  29.043   2.524
55856W        W28171   7.579   6.119   2.800
55857W        W28172  30.145   5.554  12.156
55858W        W28173  39.285  24.654  11.674
55859W        W28174  35.158   1.139  14.345
55860W        W28175   0.592   5.050   4.169
55861W        W28176  16.864  15.619   2.730
55862W        W28177   3.522  36.027   2.350
55863W        W28178  11.190  16.224   3.962
55864W        W28179  34.414  19.707  14.424
55865W        W28180  35.020   2.215  14.966
55866W        W28181  18.649  29.127   3.292
55867W        W28182  26.628  37.615   3.142
55868W        W28183  37.192  30.548   4.653
55869W        W28184  26.230  32.963   0.307
55870W        W28185  29.413  23.720  11.039
55871W        W28186   8.170  10.041  11.075
55872W        W28187  33.668   2.006   4.199
55873W        W28188  18.317  31.914  12.902
55874W        W28189  39.631   4.824  14.503
55875W        W28190  16.811  18.380   1.369
55876W        W28191   4.733  16.142  11.854
55877W        W28192   2.697  14.822   5.083
55878W        W28193   4.765  36.962  10.774
55879W        W28194  38.547  15.569   4.574
55880W        W28195  41.849  39.024   1.250
55881W        W28196  24.308   1.281  13.485
55882W        W28197  42.466  17.866  14.246
55883W        W28198  11.434   6.141  12.000
55884W        W28199  44.163  11.407  11.488
55885W        W28200  38.209  23.419   0.029
55886W        W28201  15.233   5.432  11.958
55887W        W28202  34.384  10.329   2.258
55888W        W28203  11.658  38.018  14.556
55889W        W28204  14.147  24.409  13.386
55890W        W28205  22.273  34.880   1.229
55891W        W28206  15.846  16.204   2.019
55892W        W28207   2.527  29.301   4.522
55893W        W28208  42.407  37.079   0.343
55894W        W28209  26.715  18.237  13.104
55895W        W28210   5.449  26.086  14.274
55896W        W28211  31.065  38.932  11.583
55897W        W28212  31.414   6.094   1.419
55898W        W28213  21.619  32.671   2.224
55899W        W28214  38.044  21.296   2.474
55900W        W28215  30.956  44.954  14.528
55901W        W28216  21.191  40.096  14.496
55902W        W28217  28.195  12.103   0.388
55903W        W28218  19.749  43.106  13.924
55904W        W28219   2.795  43.212  12.531
55905W        W28220  13.407  24.895   3.636
55906W        W28221  27.204  39.629  11.583
55907W        W28222  21.797  30.958   0.729
55908W        W28223  30.832  13.895   2.343
55909W        W28224  31.633   2.483  13.989
55910W        W28225   8.852  29.637   2.279
55911W        W28226  35.360   1.594   1.044
55912W        W28227   2.769   6.262   2.938
55913W        W28228  27.912  27.324  10.249
55914W        W28229   9.923  20.191   4.543
55915W        W28230  28.871  31.507   5.500
55916W        W28231  24.329   4.992  13.693
55917W        W28232  31.933   2.399  11.944
55918W        W28233  44.016  35.943  11.563
55919W        W28234   5.968  37.410  13.981
55920W        W28235  38.314   3.975  10.651
55921W        W28236  16.744   4.518   5.217
55922W        W28237  15.305  39.280   3.142
55923W        W28238  22.265  21.257   2.170
55924W        W28239  32.984  37.766   1.589
55925W        W28240  30.548  23.147  13.864
55926W        W28241  32.535  37.128  14.472
55927W        W28242  14.103  28.681  12.566
55928W        W28243  23.581  30.131  13.512
55929W        W28244  15.532  44.757  11.054
55930W        W28245  32.146  30.418  12.766
55931W        W28246  28.984  41.260   1.250
55932W        W28247  10.870  38.983  11.583
55933W        W28248   9.370  22.285   4.328
55934W        W28249  35.544   9.743  10.686
55935W        W28250  17.973  26.552  14.798
55936W        W28251   1.854  36.785   3.694
55937W        W28252  23.980  37.800  13.366
55938W        W28253  37.306   8.915   1.043
55939W        W28254  18.390   0.663  13.221
55940W        W28255  18.786  11.708   0.296
55941W        W28256   1.400  17.291   1.852
55942W        W28257  35.387  26.047   1.819
55943W        W28258  13.129  13.726   4.560
55944W        W28259  36.513   2.927  13.912
55945W        W28260  20.347  30.251  13.037
55946W        W28261  30.600  32.765  13.502
55947W        W28262  38.332  32.089   4.170
55948W        W28263  35.477  14.725  13.840
55949W        W28264  32.102  12.699   3.577
55950W        W28265  35.882  39.868   1.323
55951W        W28266   5.265  28.731   4.193
55952W        W28267  25.007  37.290  10.389
55953W        W28268  26.430  41.640   0.493
55954W        W28269  39.708  25.801   3.763
55955W        W28270  16.370  15.781   1.248
55956W        W28271  18.136   9.053   0.756
55957W        W28272   6.929  36.174  12.837
55958W        W28273  11.799  26.938   2.145
55959W        W28274  30.392   3.485   1.426
55960W        W28275  43.009   4.478   0.880
55961W        W28276   4.156  26.140   1.524
55962W        W28277  33.086  39.589  11.308
55963W        W28278   7.128   9.296  14.767
55964W        W28279  35.345  42.322   2.639
55965W        W28280  42.549  37.992  14.492
55966W        W28281   8.202  22.581  13.977
55967W        W28282  41.877  12.724  14.458
55968W        W28283  36.383  22.153  14.744
55969W        W28284  37.176  19.669   4.885
55970W        W28285  24.224  43.097  11.109
55971W        W28286  15.952  41.625  13.774
55972W        W28287  38.838  14.289  10.289
55973W        W28288  10.127   7.331   4.519
55974W        W28289   4.714   9.193   3.243
55975W        W28290  11.670  17.267   0.783
55976W        W28291  25.112  19.712   0.740
55977W        W28292  44.795   4.746   0.989
55978W        W28293  32.058  33.678   4.211
55979W        W28294  22.256  29.879  14.884
55980W        W28295  15.156  13.151  11.193
55981W        W28296  19.219  18.588  10.777
55982W        W28297  15.380  21.045  13.500
55983W        W28298   2.514  15.684   4.813
55984W        W28299  20.623   2.739  12.926
55985W        W28300  33.404  39.478   1.238
55986W        W28301  13.557  41.773  11.538
55987W        W28302  15.907  26.649  11.348
55988W        W28303  19.137  36.396   0.115
55989W        W28304  43.583  29.559  14.800
55990W        W28305  22.737   7.393   2.196
55991W        W28306  27.630   3.442   3.842
55992W        W28307  13.141  25.780  14.341
55993W        W28308  40.467  12.854   0.512
55994W        W28309  29.697  29.184  13.012
55995W        W28310   5.191   5.684   3.331
55996W        W28311  16.572  37.032   2.279
55997W        W28312  43.000   4.907   0.612
55998W        W28313  37.857  25.517   3.822
55999W        W28314  37.966  43.853  14.855
56000W        W28315  34.886  20.256   4.690
56001W        W28316  31.441   6.759   2.437
56002W        W28317   9.986  29.091   1.510
56003W        W28318   1.486  37.730  14.285
56004W        W28319   0.928  19.532   2.259
56005W        W28320   2.078  43.967  12.299
56006W        W28321   6.975  17.245   3.330
56007W        W28322  35.436  12.870  13.016
56008W        W28323  25.207  13.342  14.547
56009W        W28324   7.670   2.736   0.490
56010W        W28325  30.505   3.986   1.293
56011W        W28326   8.929  40.782  11.938
56012W        W28327  40.626   2.829   4.166
56013W        W28328  22.256   5.591  13.136
56014W        W28329   3.682  17.111   0.719
56015W        W28330   8.365  20.494  13.178
56016W        W28331  17.258  32.057  11.375
56017W        W28332   9.730  21.464   3.189
56018W        W28333  44.722  22.991  12.464
56019W        W28334  13.605  14.301   2.285
56020W        W28335  15.711  35.898   3.329
56021W        W28336  14.865  30.917   4.608
56022W        W28337  10.841   7.062  10.813
56023W        W28338  39.061   4.395   3.178
56024W        W28339   3.529  38.981  12.766
56025W        W28340  24.338  29.116  10.342
56026W        W28341  11.684   4.288   3.540
56027W        W28342  43.812  19.183  12.139
56028W        W28343  20.061  19.596  12.816
56029W        W28344  28.737   4.874  13.159
56030W        W28345  19.314   5.244  10.511
56031W        W28346  43.052   4.223  14.387
56032W        W28347   5.839  18.749  12.423
56033W        W28348  24.249  34.667   5.103
56034W        W28349  25.973  29.543   1.282
56035W        W28350  11.895  43.211   0.837
56036W        W28351  14.693  30.495  13.047
56037W        W28352  24.194  16.743   0.910
56038W        W28353   3.219  39.901  14.417
56039W        W28354   0.147   1.900   2.894
56040W        W28355   8.575  22.673   1.713
56041W        W28356  39.001  11.267   2.943
56042W        W28357  26.681  10.351   4.608
56043W        W28358  43.765  39.350   2.300
56044W        W28359  42.355  36.925   0.848
56045W        W28360  17.597   0.271   2.712
56046W        W28361  34.580  32.951  12.098
56047W        W28362  41.601   8.816  13.983
56048W        W28363  36.006  41.259   3.289
56049W        W28364  18.606  13.917  12.077
56050W        W28365  40.884  38.525   1.766
56051W        W28366   6.841  23.592   2.830
56052W        W28367  24.247  25.270  12.148
56053W        W28368  21.538  30.601  11.359
56054W        W28369  38.837  13.514   0.866
56055W        W28370  28.081   7.321   3.967
56056W        W28371  40.766  10.240   0.528
56057W        W28372   9.208  30.669  13.057
56058W        W28373   7.941   6.760  12.592
56059W        W28374  39.462   1.678  11.467
56060W        W28375  12.837  31.055  13.040
56061W        W28376  11.359  23.009   3.305
56062W        W28377  40.282  23.367   4.852
56063W        W28378   0.853   9.785  10.367
56064W        W28379  18.579  38.153  10.388
56065W        W28380  23.755  22.793   1.378
56066W        W28381  37.950  18.231  11.025
56067W        W28382  34.688  11.492  12.512
56068W        W28383  18.222  27.661  11.963
56069W        W28384  40.813  44.479  10.396
56070W        W28385   6.891  18.388   0.263
56071W        W28386  27.676  13.003   0.327
56072W        W28387  22.955  22.056   1.909
56073W        W28388  31.551   6.938   1.953
56074W        W28389  29.123  15.756   0.022
56075W        W28390  43.055  39.692   3.220
56076W        W28391  32.985  39.436  12.215
56077W        W28392  28.977  39.544   4.666
56078W        W28393  36.894  27.831  10.685
56079W        W28394  29.010  19.232   1.421
56080W        W28395  42.778  38.718   3.206
56081W        W28396   4.911  13.825   1.280
56082W        W28397   9.728  27.754  14.413
56083W        W28398   3.311  35.547   1.704
56084W        W28399  41.438   8.924   4.263
56085W        W28400  11.855  20.159   1.263
56086W        W28401  43.824  10.559  10.124
56087W        W28402  44.698   5.436   4.282
56088W        W28403  43.537  27.892  14.456
56089W        W28404  38.887   8.313  10.948
56090W        W28405  31.501   2.679   1.207
56091W        W28406  21.537  18.343   0.939
56092W        W28407  41.726  11.863   2.492
56093W        W28408  23.788  33.419   3.157
56094W        W28409  33.328   6.306  14.931
56095W        W28410  27.954  32.054  10.679
56096W        W28411  33.162  29.921   2.320
56097W        W28412  27.601  27.387   3.386
56098W        W28413   8.549  26.979   3.756
56099W        W28414  44.848  26.158  10.755
56100W        W28415   4.410  37.057   2.675
56101W        W28416  44.847  19.804   3.550
56102W        W28417  35.565  12.594   3.442
56103W        W28418  38.510  21.613   1.819
56104W        W28419  26.962  32.404   1.910
56105W        W28420  11.289  22.200   2.312
56106W        W28421  41.180  18.793  11.531
56107W        W28422  22.276  27.456   0.191
56108W        W28423  31.519   9.163   2.636
56109W        W28424  36.113  37.608  11.920
56110W        W28425  19.397  15.181  14.783
56111W        W28426  15.587  33.178  14.243
56112W        W28427  22.268  14.281   4.246
56113W        W28428   7.066  43.066  11.548
56114W        W28429  35.126  13.745   0.291
56115W        W28430  18.685  19.219  14.658
56116W        W28431   0.259  13.120  13.277
56117W        W28432  23.668   6.376   0.009
56118W        W28433  34.388  34.962   0.470
56119W        W28434  25.798   6.769  14.576
56120W        W28435  29.445  12.129   1.442
56121W        W28436   9.852  29.152   3.096
56122W        W28437  28.079  22.299  12.462
56123W        W28438  29.345   1.787  11.562
56124W        W28439   8.169   0.434  12.928
56125W        W28440   5.434  14.335  13.129
56126W        W28441  40.472  13.612   4.629
56127W        W28442  14.025   1.003  14.908
56128W        W28443  14.574  26.007   1.831
56129W        W28444  37.693   9.351  13.049
56130W        W28445  39.949  20.605  14.315
56131W        W28446  20.763   6.088   4.598
56132W        W28447   8.677  13.222   1.242
56133W        W28448  41.972  29.962  11.559
56134W        W28449  29.270  19.841  14.458
56135W        W28450  32.162  19.828  11.982
56136W        W28451  37.113  27.620   1.675
56137W        W28452  35.851  31.144  12.583
56138W        W28453  16.352  24.661   3.338
56139W        W28454  14.383  16.012   2.197
56140W        W28455  17.867  31.832  12.631
56141W        W28456  27.958  22.088   1.916
56142W        W28457  24.555  39.166  12.519
56143W        W28458  24.954  43.827  13.961
56144W        W28459   7.808  41.786  12.991
56145W        W28460  14.708   6.862  14.872
56146W        W28461  44.733  26.214   3.793
56147W        W28462  36.418  13.640   1.133
56148W        W28463  35.844   5.785   2.382
56149W        W28464  39.641  30.046  13.856
56150W        W28465  10.760  17.117  11.916
56151W        W28466  40.090  43.739   4.725
56152W        W28467  38.852   4.851   4.508
56153W        W28468  17.505  33.431   1.451
56154W        W28469  43.489   6.319  13.927
56155W        W28470  20.569  20.398   4.661
56156W        W28471  12.114   4.239   3.248
56157W        W28472  35.562  23.610  11.368
56158W        W28473  32.568  25.395   0.778
56159W        W28474  12.142  37.314  12.916
56160W        W28475  31.166  15.640  12.422
56161W        W28476  33.710  13.169  12.008
56162W        W28477  39.981  17.316   0.609
56163W        W28478  31.793  40.043  14.970
56164W        W28479  31.998  37.077   4.393
56165W        W28480  41.526  17.705   3.346
56166W        W28481  28.130  33.125   2.213
56167W        W28482  43.453  27.156   0.152
56168W        W28483   2.888  38.470  10.876
56169W        W28484  25.104  10.585  14.535
56170W        W28485   2.994  38.435   3.807
56171W        W28486  23.099   9.670   4.623
56172W        W28487  31.599   9.078  14.955
56173W        W28488  21.752  24.898   4.856
56174W        W28489  35.546  14.153   2.341
56175W        W28490  23.111  15.209   0.986
56176W        W28491  41.421   5.456  12.942
56177W        W28492   5.802  38.416   2.033
56178W        W28493  15.512  21.221   3.818
56179W        W28494   4.259  34.444  11.492
56180W        W28495  25.389  30.703  11.100
56181W        W28496  18.911   0.491   0.777
56182W        W28497  30.393  10.908   0.308
56183W        W28498  38.971  23.424  12.136
56184W        W28499  38.451  33.130   4.003
56185W        W28500  39.654  28.067  11.145
56186W        W28501  41.791  32.412  12.004
56187W        W28502  27.560  42.045  13.327
56188W        W28503  44.976  37.549  14.062
56189W        W28504   8.201  11.827  12.600
56190W        W28505  11.405  43.741  13.901
56191W        W28506  10.782  15.559   1.460
56192W        W28507  35.541   1.669   1.917
56193W        W28508  26.498  28.507   1.571
56194W        W28509  35.521  12.397   4.288
56195W        W28510   7.264  43.169   4.270
56196W        W28511  33.498  31.042  12.068
56197W        W28512   4.692  25.909   4.146
56198W        W28513  42.473   8.282   1.306
56199W        W28514  30.129   2.305   1.711
56200W        W28515   8.414  32.351   0.221
56201W        W28516  12.562  18.015  11.553
56202W        W28517  44.435   0.002   0.947
56203W        W28518  28.961  27.689   4.349
56204W        W28519   1.318  35.172   2.826
56205W        W28520  18.259  37.420   2.913
56206W        W28521   3.996  35.037   0.514
56207W        W28522   6.439  40.516  14.408
56208W        W28523  14.655  13.672   4.552
56209W        W28524  24.413   2.431  12.964
56210W        W28525   3.324   7.051  11.751
56211W        W28526  21.508  10.644   3.179
56212W        W28527  33.717  31.151  13.824
56213W        W28528  44.072  22.648   1.224
56214W        W28529  24.605   0.428   2.379
56215W        W28530  35.393  37.475  10.708
56216W        W28531  26.124  24.495   4.380
56217W        W28532  27.923   4.207   1.396
56218W        W28533  14.369   4.748   2.117
56219W        W28534  10.923  19.150   2.701
56220W        W28535  11.319  34.659  12.114
56221W        W28536   1.084  17.366  12.091
56222W        W28537   9.189  28.334   2.081
56223W        W28538  37.780  25.522   0.909
56224W        W28539   7.752  43.514  14.756
56225W        W28540  16.750  33.971  14.088
56226W        W28541  35.394  13.993   4.134
56227W        W28542   5.471  28.693  13.039
56228W        W28543  12.083  22.526   0.681
56229W        W28544  26.056  26.183  11.189
56230W        W28545   2.783  29.812  14.562
56231W        W28546  37.890  27.548  10.890
56232W        W28547  30.383  17.485   2.807
56233W        W28548  38.240  27.135  13.146
56234W        W28549  37.803  21.075  12.185
56235W        W28550  17.683  36.127  14.831
56236W        W28551  44.474   1.881  12.534
56237W        W28552   1.947  10.770  11.508
56238W        W28553  16.699  25.679  13.925
56239W        W28554  26.544  39.415  10.841
56240W        W28555   1.843  41.492  11.388
56241W        W28556  35.485  26.690  11.960
56242W        W28557  10.402  41.230  11.804
56243W        W28558  17.286  13.259  13.829
56244W        W28559  40.511  24.152   0.225
56245W        W28560   6.301  38.962   3.586
56246W        W28561  31.735  10.421   4.114
56247W        W28562  14.243  15.874   1.324
56248W        W28563  25.013  10.318  12.601
56249W        W28564  28.668  32.962  11.155
56250W        W28565  43.408  38.874   1.614
56251W        W28566  20.068  26.977  12.550
56252W        W28567  21.526   5.254  12.971
56253W        W28568  39.337  41.597   3.829
56254W        W28569  19.610  25.507   1.837
56255W        W28570  42.353  43.157   0.341
56256W        W28571  13.019   1.646  11.604
56257W        W28572  40.524  41.106  14.021
56258W        W28573   5.863  30.838   4.516
56259W        W28574  14.596  34.086   0.396
56260W        W28575  18.467   5.351   4.586
56261W        W28576  36.455  17.454   2.873
56262W        W28577  24.035  42.517  13.022
56263W        W28578  14.598   3.453  10.779
56264W        W28579   3.919  15.448   1.371
56265W        W28580  35.375  21.509   2.312
56266W        W28581  15.818   0.808  13.658
56267W        W28582  15.752  29.613  12.043
56268W        W28583  33.057  20.693  13.911
56269W        W28584  28.594  16.270  10.847
56270W        W28585  37.361  37.030   1.669
56271W        W28586  26.393  19.793  13.918
56272W        W28587  19.784   3.304   2.729
56273W        W28588  34.118  29.034   4.111
56274W        W28589  35.288  30.982   1.069
56275W        W28590  17.246   1.752   4.551
56276W        W28591   1.777  14.459   3.533
56277W        W28592   6.473  38.969  14.107
56278W        W28593  21.652   7.818  14.288
56279W        W28594  11.598  44.224   0.808
56280W        W28595   3.953  43.398  13.422
56281W        W28596  21.284  38.742  14.829
56282W        W28597   5.483  10.169  12.836
56283W        W28598  32.358   7.826  11.580
56284W        W28599  10.284  13.831   1.308
56285W        W28600  21.547  20.088   0.052
56286W        W28601  34.002  28.897   2.329
56287W        W28602  31.464  30.264   2.706
56288W        W28603  38.456  13.777  12.421
56289W        W28604  35.902   7.306  14.766
56290W        W28605   8.314  43.678   2.474
56291W        W28606  28.019  26.188   2.323
56292W        W28607  32.979  36.888  13.351
56293W        W28608   1.113   1.872   3.881
56294W        W28609  40.815  34.493   2.733
56295W        W28610  29.326  30.542  14.189
56296W        W28611  31.033  42.346  14.024
56297W        W28612  14.167  17.629  13.964
56298W        W28613   2.161  42.195  14.765
56299W        W28614  20.440  14.663   0.426
56300W        W28615  16.793  10.399  12.053
56301W        W28616  32.921   3.698   3.649
56302W        W28617  39.218  43.500  12.584
56303W        W28618  30.229  11.298   4.983
56304W        W28619  20.281  34.404  12.632
56305W        W28620   6.629  37.813   3.790
56306W        W28621  33.204   7.649  14.262
56307W        W28622   6.529   8.234   2.849
56308W        W28623  19.103  41.713  12.594
56309W        W28624   6.819  20.767   1.951
56310W        W28625  11.442  17.134   2.752
56311W        W28626   2.868  40.725  10.594
56312W        W28627   5.157  36.591   0.266
56313W        W28628  10.201  44.534   1.137
56314W        W28629  29.250  30.703  12.938
56315W        W28630  27.423  26.520   0.301
56316W        W28631  35.887   2.466  11.344
56317W        W28632  11.204  12.769   1.122
56318W        W28633  41.459   4.225  11.384
56319W        W28634  34.518  26.735  11.853
56320W        W28635   4.325   1.754  13.769
56321W        W28636  28.115  21.034   0.898
56322W        W28637  42.334  39.170  13.746
56323W        W28638   2.661  18.007  13.996
56324W        W28639   3.773  30.081  12.121
56325W        W28640  28.649  29.778  14.430
56326W        W28641  42.481  22.846   3.529
56327W        W28642  39.061   1.908  10.768
56328W        W28643  39.791   1.385  11.089
56329W        W28644   5.786  43.025   2.632
56330W        W28645  38.546   6.766  13.523
56331W        W28646  40.093  23.104  14.509
56332W        W28647  38.503  43.776  11.626
56333W        W28648  12.691  20.931   3.538
56334W        W28649  16.184  18.742  12.948
56335W        W28650  35.946  23.180  14.596
56336W        W28651  27.034  18.562   4.153
56337W        W28652   4.886  30.337   4.329
56338W        W28653  33.059  37.449  13.927
56339W        W28654  23.957  27.594   2.862
56340W        W28655  28.974  11.785   0.825
56341W        W28656  42.134  26.015   3.110
56342W        W28657  28.787  34.662  11.137
56343W        W28658  22.902   9.773  11.559
56344W        W28659  44.495  15.793  13.918
56345W        W28660  25.986   9.313  11.232
56346W        W28661   7.700   0.701  14.487
56347W        W28662   1.071  37.769  12.901
56348W        W28663  34.101  18.590   2.853
56349W        W28664  42.390  25.108   3.427
56350W        W28665  37.011  28.221   2.916
56351W        W28666  34.788  12.951  14.484
56352W        W28667  15.310  39.019  12.386
56353W        W28668   4.710   9.771  12.116
56354W        W28669  16.674  35.601  14.777
56355W        W28670  25.531  19.880   0.490
56356W        W28671  28.499   8.495  12.303
56357W        W28672  15.824  28.582   5.098
56358W        W28673   4.341  37.182  11.993
56359W        W28674  32.928  29.487  11.539
56360W        W28675  41.801  11.148  12.818
56361W        W28676  38.432  27.149  13.613
56362W        W28677   5.604  19.431  11.035
56363W        W28678   0.205  29.505  12.608
56364W        W28679  38.299  20.254  13.544
56365W        W28680   9.489  43.100  10.862
56366W        W28681   7.139   1.954   3.701
56367W        W28682   7.875  14.811   0.264
56368W        W28683  21.704  20.502  11.426
56369W        W28684  21.046  31.110  13.898
56370W        W28685  31.513  16.381   3.274
56371W        W28686  37.066  40.384   0.036
56372W        W28687   4.455  29.406  11.980
56373W        W28688  14.700   3.725  12.114
56374W        W28689  37.843  29.127  14.722
56375W        W28690  34.123  24.216   0.167
56376W        W28691  28.022  32.925  14.646
56377W        W28692   0.807  20.624   0.991
56378W        W28693  31.698  14.081   3.285
56379W        W28694   4.775  27.146  11.634
56380W        W28695  28.504  22.435  13.363
56381W        W28696  18.496  20.132   2.255
56382W        W28697  31.071  27.860   0.887
56383W        W28698  33.981  12.323  14.501
56384W        W28699  25.291  27.358   0.645
56385W        W28700   2.484  27.494   0.372
56386W        W28701  23.707  30.208  13.011
56387W        W28702  15.827   6.748  14.039
56388W        W28703   8.445  35.428  14.021
56389W        W28704   2.270  24.653  14.240
56390W        W28705  39.522   0.994   1.871
56391W        W28706  23.544  42.971   4.880
56392W        W28707  41.041  18.043  14.926
56393W        W28708  43.405  11.327   2.150
56394W        W28709   4.087  12.646   2.162
56395W        W28710   5.764  35.178  11.174
56396W        W28711   0.442  23.349   1.238
56397W        W28712  17.795  42.599  12.477
56398W        W28713  35.098  13.223   4.684
56399W        W28714  27.226   1.228  12.590
56400W        W28715   3.265  41.216  13.172
56401W        W28716  31.603  42.392   2.429
56402W        W28717   2.899   9.190  12.130
56403W        W28718  14.085  31.335  12.324
56404W        W28719  10.263  35.487  13.747
56405W        W28720  38.403  30.487  13.883
56406W        W28721  23.821  21.182  14.315
56407W        W28722  35.468  16.651   4.548
56408W        W28723  43.874  23.644  12.982
56409W        W28724   9.672  40.860  12.542
56410W        W28725  25.209  10.743  10.871
56411W        W28726  44.942  35.368   1.619
56412W        W28727   4.875  15.791  10.008
56413W        W28728  42.899   7.934   4.898
56414W        W28729  19.182   2.213  14.378
56415W        W28730  41.644  30.991  12.793
56416W        W28731  20.019  21.507   2.393
56417W        W28732  22.436   0.960  11.585
56418W        W28733  15.460   8.861   3.182
56419W        W28734  11.438   1.891   5.182
56420W        W28735   1.414  35.611  12.442
56421W        W28736   6.827   5.283  11.252
56422W        W28737  21.598  16.894   3.668
56423W        W28738   4.146  44.684  11.530
56424W        W28739  17.200   3.817  13.481
56425W        W28740  16.118  41.653   1.546
56426W        W28741   0.778   3.983  14.560
56427W        W28742  37.528  33.837  11.524
56428W        W28743  40.470   5.590   0.906
56429W        W28744  40.283  24.512   1.400
56430W        W28745  27.607  39.161   3.196
56431W        W28746  19.035   1.554  12.516
56432W        W28747  27.497  10.246   0.774
56433W        W28748  15.384  44.328   3.319
56434W        W28749  11.267  27.154  12.006
56435W        W28750  14.221  13.768   1.917
56436W        W28751  34.899  18.472   1.838
56437W        W28752  22.500  30.778   4.409
56438W        W28753  31.111  18.632   2.427
56439W        W28754  22.189  27.118   4.317
56440W        W28755  44.008  32.172  11.472
56441W        W28756  32.936  18.962  11.595
56442W        W28757   0.948   2.745   3.690
56443W        W28758  38.921  15.735  10.041
56444W        W28759  14.057  42.580  14.814
56445W        W28760  12.071  44.795   0.268
56446W        W28761  38.349  15.866   1.820
56447W        W28762  40.690  23.064   4.911
56448W        W28763  11.604  27.746   0.920
56449W        W28764   9.299  30.859  11.245
56450W        W28765  36.526  27.253   3.614
56451W        W28766  36.024  15.409  11.197
56452W        W28767  11.166  33.166  14.443
56453W        W28768  41.212  35.022   3.803
56454W        W28769   2.829  15.527  12.931
56455W        W28770  22.596  38.413   1.835
56456W        W28771  31.545  31.559   1.799
56457W        W28772  27.079  44.542   1.707
56458W        W28773  14.125   7.649  12.932
56459W        W28774  27.535  16.630   0.862
56460W        W28775  17.755  17.650   4.536
56461W        W28776  15.070  26.928  11.136
56462W        W28777  37.311  14.694   1.778
56463W        W28778  43.031  13.569  11.989
56464W        W28779  26.552   1.025   4.506
56465W        W28780  26.081  16.391  11.717
56466W        W28781  21.284  26.077   4.082
56467W        W28782  25.206  10.838   4.459
56468W        W28783  17.657  14.815   1.661
56469W        W28784   0.873   0.516   3.805
56470W        W28785  14.021  14.058   4.486
56471W        W28786  32.509   2.377   3.975
56472W        W28787  28.580   0.342  13.851
56473W        W28788  33.425  11.101  11.123
56474W        W28789   4.977  39.956  10.687
56475W        W28790  22.768  32.928  14.564
56476W        W28791  39.882  41.017  13.025
56477W        W28792  24.736  21.929   1.362
56478W        W28793  38.599  22.538   4.137
56479W        W28794  22.139  32.655   1.442
56480W        W28795  38.625  21.262   4.388
56481W        W28796  42.467  35.597   0.965
56482W        W28797   7.269  33.616   0.873
56483W        W28798  16.783   4.716   4.310
56484W        W28799  17.059   4.520   0.809
56485W        W28800  36.299  25.853   2.800
56486W        W28801  39.990  35.521  14.935
56487W        W28802   6.669  30.565  13.964
56488W        W28803  13.656   2.978  11.537
56489W        W28804  25.716  22.550  11.912
56490W        W28805   7.886   1.553  11.499
56491W        W28806   5.423   6.720   1.348
56492W        W28807  40.304  34.925   1.350
56493W        W28808  30.562  16.791   4.272
56494W        W28809   1.155   2.771  12.141
56495W        W28810  36.752  21.455   2.349
56496W        W28811   0.969   5.760  12.058
56497W        W28812   6.826  33.105  13.925
56498W        W28813  41.839  39.535  13.663
56499W        W28814   1.305  40.049   4.064
56500W        W28815  24.260  26.953  12.131
56501W        W28816  24.961  37.489  13.771
56502W        W28817  21.110  35.196   1.173
56503W        W28818   5.284  33.543   4.670
56504W        W28819  31.514  27.086  12.945
56505W        W28820  27.778   8.637  13.029
56506W        W28821  42.469  19.507  11.088
56507W        W28822  22.591   8.138  12.428
56508W        W28823  19.002   4.211   3.208
56509W        W28824   1.176  20.671  11.524
56510W        W28825  38.172  16.018  11.595
56511W        W28826  22.186  13.232   1.743
56512W        W28827  17.405   0.100   3.160
56513W        W28828  43.352  38.911   4.219
56514W        W28829  33.814   9.869   3.761
56515W        W28830   0.245  25.734  12.450
56516W        W28831  33.933  19.266   2.428
56517W        W28832  30.244  35.978  12.295
56518W        W28833  23.480  29.623  14.934
56519W        W28834  36.529  29.135  13.909
56520W        W28835  38.955  19.312   1.809
56521W        W28836  18.830  16.496  11.637
56522W        W28837  23.976  28.902  13.294
56523W        W28838  34.394  38.366   3.713
56524W        W28839  32.893  12.193   1.232
56525W        W28840  28.148  16.082   1.258
56526W        W28841  34.574  44.409  14.796
56527W        W28842  33.923   9.996   2.181
56528W        W28843  39.267  32.013   3.334
56529W        W28844  37.757  12.184   3.719
56530W        W28845  37.104  18.253  10.618
56531W        W28846  21.737  11.667  11.602
56532W        W28847  34.400  30.183   4.932
56533W        W28848  29.506  12.981  13.734
56534W        W28849   1.806  23.286   1.470
56535W        W28850   6.179  25.684  12.115
56536W        W28851  23.461   2.737   3.253
56537W        W28852  36.971  12.167  12.444
56538W        W28853   8.148  17.512  12.082
56539W        W28854  42.755  41.378  12.410
56540W        W28855  36.613  42.763   3.585
56541W        W28856  16.498  10.712   2.794
56542W        W28857  36.996  17.343   0.031
56543W        W28858   1.296  26.752  10.166
56544W        W28859   6.752  11.428  11.628
56545W        W28860   5.945  39.234   4.425
56546W        W28861  21.008   6.822  13.275
56547W        W28862  38.107  19.155  11.433
56548W        W28863  22.451  25.590   2.381
56549W        W28864  38.423  35.163  14.525
56550W        W28865   0.018  33.819   2.711
56551W        W28866   1.327  35.501  10.395
56552W        W28867  29.443  42.412  14.826
56553W        W28868  11.647  15.980   0.942
56554W        W28869  37.408  14.570  11.879
56555W        W28870   3.753   9.885  13.869
56556W        W28871  34.594  24.863   0.307
56557W        W28872   1.770  39.027   2.441
56558W        W28873  28.969   9.240  14.409
56559W        W28874  24.694  22.693   4.987
56560W        W28875   0.932  21.530   4.917
56561W        W28876   7.825  36.032  14.715
56562W        W28877   5.723  31.094  10.585
56563W        W28878  31.095   7.671   2.415
56564W        W28879  23.187   9.723   1.970
56565W        W28880  33.950  43.549  14.006
56566W        W28881  25.700  35.448  11.519
56567W        W28882   5.332   0.035   3.628
56568W        W28883  43.206  25.907   4.602
56569W        W28884  44.871  11.567   1.884
56570W        W28885  32.567  21.725   1.570
56571W        W28886  21.516  43.575   0.233
56572W        W28887  23.314  21.772  12.497
56573W        W28888  44.741  14.263  14.492
56574W        W28889  35.370  13.826   0.746
56575W        W28890   3.145  41.422   4.954
56576W        W28891  29.562  36.985   4.233
56577W        W28892  36.448  19.866  11.957
56578W        W28893   3.269  29.296  12.079
56579W        W28894  24.618  23.925   1.216
56580W        W28895  21.720   4.778  12.561
56581W        W28896   8.045  39.472  13.356
56582W        W28897   7.804  42.761  14.305
56583W        W28898  12.738  26.107  14.362
56584W        W28899   3.254  14.882   3.608
56585W        W28900  31.093   6.482  14.248
56586W        W28901  36.072  43.320  10.765
56587W        W28902   9.144  15.436  11.476
56588W        W28903  42.973   3.190   0.871
56589W        W28904   8.940  33.954   3.000
56590W        W28905   6.903   1.390  13.480
56591W        W28906  33.011  17.009   2.208
56592W        W28907  25.935  19.197  11.672
56593W        W28908  14.894   1.974  10.663
56594W        W28909  30.232  35.381  11.050
56595W        W28910   6.245  30.654   3.143
56596W        W28911   8.584  18.843  13.930
56597W        W28912   7.387   1.342   1.623
56598W        W28913  16.394  21.473  12.934
56599W        W28914  17.506  18.058  12.896
56600W        W28915  12.579  16.394   4.563
56601W        W28916  42.553  33.625  12.420
56602W        W28917  16.735  38.348  12.934
56603W        W28918  27.214  20.032  14.066
56604W        W28919  17.920  11.700   9.446
56605W        W28920  32.555  14.324   1.804
56606W        W28921  41.419  17.793  10.722
56607W        W28922  24.230  22.594   1.525
56608W        W28923   0.683  39.341   2.111
56609W        W28924  23.643  39.348  10.657
56610W        W28925  22.011  42.910   2.352
56611W        W28926  10.719   8.338   2.222
56612W        W28927  12.079  29.489  11.156
56613W        W28928  14.721  42.539   2.154
56614W        W28929  15.612   5.349   4.629
56615W        W28930  22.664  42.867   4.115
56616W        W28931  18.378   4.214  11.516
56617W        W28932  40.947  11.475   3.320
56618W        W28933   3.325   4.234   0.725
56619W        W28934  33.166  43.297  13.304
56620W        W28935   5.870  34.925   0.385
56621W        W28936  33.164  33.670   0.186
56622W        W28937  18.655  11.523  12.637
56623W        W28938  19.956   8.236   4.722
56624W        W28939  16.868   1.028  14.304
56625W        W28940  37.038  18.768  13.230
56626W        W28941  38.774  26.245   3.028
56627W        W28942  10.021  10.914   1.477
56628W        W28943  18.764  27.857   5.025
56629W        W28944  27.677  24.529  13.393
56630W        W28945  20.278   9.403  11.506
56631W        W28946  40.579  38.641  12.014
56632W        W28947   1.809  12.874  12.498
56633W        W28948  39.062  31.067   0.105
56634W        W28949   0.993  29.147   3.916
56635W        W28950  11.815  17.537   1.217
56636W        W28951  27.971  13.790  10.451
56637W        W28952  44.046  20.082   3.004
56638W        W28953   7.144  34.689   0.119
56639W        W28954  19.310   3.765  10.985
56640W        W28955  23.660   3.795   4.552
56641W        W28956  42.010  14.447   1.509
56642W        W28957  21.305  39.774  14.883
56643W        W28958  15.200  24.198   2.613
56644W        W28959  29.967  32.646  10.646
56645W        W28960   7.651  12.464  14.374
56646W        W28961  18.517  38.476  13.718
56647W        W28962   9.875  24.553   2.926
56648W        W28963  18.016   6.370   3.092
56649W        W28964   2.318  16.414   4.731
56650W        W28965  29.337  43.538   0.451
56651W        W28966  14.341  40.830   3.655
56652W        W28967  15.095   1.531   3.802
56653W        W28968  29.325   5.430  13.760
56654W        W28969  29.485   4.288  10.248
56655W        W28970   8.740   4.918   2.849
56656W        W28971  19.704  10.817  12.461
56657W        W28972   6.879  20.163   2.825
56658W        W28973  28.116  30.454  13.812
56659W        W28974  31.072  10.373  11.443
56660W        W28975  26.908   6.413  13.756
56661W        W28976  10.330  20.731   0.432
56662W        W28977  26.212  29.714   1.847
56663W        W28978   9.331  20.414   2.795
56664W        W28979  24.944  34.337  14.977
56665W        W28980  11.252  32.408   3.700
56666W        W28981   3.832  37.500  14.008
56667W        W28982  22.242  35.111  12.291
56668W        W28983  12.834   7.493   2.159
56669W        W28984  20.031  39.281   2.717
56670W        W28985  41.034  32.975  10.653
56671W        W28986   2.618  15.646   2.544
56672W        W28987  17.205  35.231  13.018
56673W        W28988  25.053   8.589  14.506
56674W        W28989  19.708  38.799   1.645
56675W        W28990   2.250  42.449   0.300
56676W        W28991   3.264  10.955  14.381
56677W        W28992  37.830  17.353   2.542
56678W        W28993  30.624  34.448  14.972
56679W        W28994  31.876  42.772  14.888
56680W        W28995  21.173  37.477  14.445
56681W        W28996  23.219  28.563  12.529
56682W        W28997  43.868  13.973   0.806
56683W        W28998  23.226  44.349  10.958
56684W        W28999  14.328  36.146   0.978
56685W        W29000  35.668  10.824  12.174
56686W        W29001   9.246   5.324  14.322
56687W        W29002  22.444  13.718  12.036
56688W        W29003  43.848   9.225  10.630
56689W        W29004  29.965  28.062   3.415
56690W        W29005  34.010   3.795   1.272
56691W        W29006  36.900   9.399   1.736
56692W        W29007  40.011   1.511   0.742
56693W        W29008  15.570   2.232   2.819
56694W        W29009  35.572  18.070   2.028
56695W        W29010  37.132   4.651  14.941
56696W        W29011  27.641  17.230  13.427
56697W        W29012   0.492  30.624  13.028
56698W        W29013   1.217  23.136   4.063
56699W        W29014  39.146  41.334  11.194
56700W        W29015  41.263  11.669   2.355
56701W        W29016   0.125   6.310  14.651
56702W        W29017  42.713  29.881  11.192
56703W        W29018  28.535  39.862  12.575
56704W        W29019   0.132  10.372  10.247
56705W        W29020  13.806   4.109   2.614
56706W        W29021  26.531  24.653  14.265
56707W        W29022  27.638  31.414  13.008
56708W        W29023  40.004  29.241   1.167
56709W        W29024   2.019  38.406   4.213
56710W        W29025  27.369  32.775  12.041
56711W        W29026  10.050  36.572   0.913
56712W        W29027  39.200   0.400  13.461
56713W        W29028   9.581   1.387  11.055
56714W        W29029  11.610  28.226  11.099
56715W        W29030   8.366  17.496   0.287
56716W        W29031  16.291  36.062  12.038
56717W        W29032  11.809  24.278  14.513
56718W        W29033  41.334   5.887   1.410
56719W        W29034  42.234  41.361   1.835
56720W        W29035  32.720  12.813   0.856
56721W        W29036  27.024  24.974   3.275
56722W        W29037  29.917   9.759  13.334
56723W        W29038  13.595  30.678   1.725
56724W        W29039  39.014  16.790  13.755
56725W        W29040  20.523  44.722   4.156
56726W        W29041  24.256  37.960  11.113
56727W        W29042  31.563  37.832  11.549
56728W        W29043  44.506  12.253   5.588
56729W        W29044   1.590  35.605   2.886
56730W        W29045  27.621  31.930   1.074
56731W        W29046  43.856  16.386   1.980
56732W        W29047  23.583  17.133  13.328
56733W        W29048  23.717  34.045   0.153
56734W        W29049  26.402  16.855   1.681
56735W        W29050   3.172  30.449   3.214
56736W        W29051   4.327  14.446   3.159
56737W        W29052  14.149  29.973   3.673
56738W        W29053  22.394  24.871  14.431
56739W        W29054  28.200   2.949  13.952
56740W        W29055  40.169  41.105  14.398
56741W        W29056  12.065  25.132   3.312
56742W        W29057  28.092  13.179  13.915
56743W        W29058   7.276  29.800   1.406
56744W        W29059  19.646  37.303  12.971
56745W        W29060  20.556  21.086  11.421
56746W        W29061  30.101  21.964   4.124
56747W        W29062  44.601  22.256  12.464
56748W        W29063  20.801  43.593   2.177
56749W        W29064  37.881  36.427  11.101
56750W        W29065  33.995  29.313   0.762
56751W        W29066   9.451  44.025  11.657
56752W        W29067  34.476  17.533   4.081
56753W        W29068  41.590   6.617   2.271
56754W        W29069  20.405  23.871  13.293
56755W        W29070  19.271  20.692   0.744
56756W        W29071  24.068   4.718  11.565
56757W        W29072  14.714  16.831  11.513
56758W        W29073  15.874  38.421  13.087
56759W        W29074  35.369  34.389   1.613
56760W        W29075   3.226   6.348  10.655
56761W        W29076   3.599   0.869  11.508
56762W        W29077  32.038  30.608   5.022
56763W        W29078   2.959  39.832  12.855
56764W        W29079   1.620  40.065   4.515
56765W        W29080  13.097  18.673  11.104
56766W        W29081  23.729  40.456   2.724
56767W        W29082  24.496  17.666   2.580
56768W        W29083   9.827  13.345  12.842
56769W        W29084  11.737  14.423   0.329
56770W        W29085  11.813  43.437  11.959
56771W        W29086   9.005  34.973  10.506
56772W        W29087   3.858  41.961   0.688
56773W        W29088   1.882   9.537   4.551
56774W        W29089  22.008  37.249   2.725
56775W        W29090   3.957  22.813  13.741
56776W        W29091  34.284  38.321  13.901
56777W        W29092  23.911   3.742  10.693
56778W        W29093   0.217  19.620   2.632
56779W        W29094  23.916  42.774   1.663
56780W        W29095  37.514  20.984   3.633
56781W        W29096   2.048   1.964  11.539
56782W        W29097  13.487  16.566  10.545
56783W        W29098  43.805  39.445   1.418
56784W        W29099   3.102  15.681  12.531
56785W        W29100  30.962  43.589  14.417
56786W        W29101  11.136  32.110   1.512
56787W        W29102  37.098   6.790   3.182
56788W        W29103  42.795  38.601  11.217
56789W        W29104  11.621  29.068  14.761
56790W        W29105  30.921  21.786   3.579
56791W        W29106  22.218  19.877  11.217
56792W        W29107   9.111  44.794  10.613
56793W        W29108  26.113  23.508  14.084
56794W        W29109  29.433   9.589   1.012
56795W        W29110  16.756  19.816   2.389
56796W        W29111  26.242  20.348  12.635
56797W        W29112  30.640  15.268  13.757
56798W        W29113  23.725  43.730  10.985
56799W        W29114   7.343   3.386   1.758
56800W        W29115  18.657   1.410   3.267
56801W        W29116   0.520  43.266   1.234
56802W        W29117  19.788  10.193   3.001
56803W        W29118  35.397  31.435  13.591
56804W        W29119  20.122  27.663   3.940
56805W        W29120  30.116  20.254   3.160
56806W        W29121  35.468   1.668  11.176
56807W        W29122  33.013  30.048   3.806
56808W        W29123  32.390  28.545  14.748
56809W        W29124  31.391  23.648  11.718
56810W        W29125  23.990  18.281   1.165
56811W        W29126   5.732  19.583   4.520
56812W        W29127   0.332   3.706   3.177
56813W        W29128  28.064   3.090   1.216
56814W        W29129  32.427   9.902  12.454
56815W        W29130  13.175  37.049  12.920
56816W        W29131  39.493  18.693   4.148
56817W        W29132   7.968   6.573  14.717
56818W        W29133  42.812  11.901  11.541
56819W        W29134  41.942  12.238   4.714
56820W        W29135  36.674   5.469   1.261
56821W        W29136  24.117  19.893   4.222
56822W        W29137   8.655  36.535   4.474
56823W        W29138  29.041  28.399  11.159
56824W        W29139   3.025  23.116  13.590
56825W        W29140  38.720  20.560   3.278
56826W        W29141  34.348  36.898  10.788
56827W        W29142  27.189   3.724   2.446
56828W        W29143  32.318  14.688   2.766
56829W        W29144  41.918  22.671   3.797
56830W        W29145  39.960  38.369  14.049
56831W        W29146  27.925  20.180   3.293
56832W        W29147  12.850  44.873  12.228
56833W        W29148  44.037  35.160  13.966
56834W        W29149   8.640   3.498  10.092
56835W        W29150  35.512  14.068   3.365
56836W        W29151   4.027  31.043  13.360
56837W        W29152  13.290  42.550  10.496
56838W        W29153  41.027  21.072   0.954
56839W        W29154  30.188  16.675   4.614
56840W        W29155  29.346   7.849   4.672
56841W        W29156  13.724  20.196   2.177
56842W        W29157  31.870   3.848   3.204
56843W        W29158  18.845  10.814   3.724
56844W        W29159  42.671  15.616  11.434
56845W        W29160  12.210  14.750   3.680
56846W        W29161  33.540  18.806   0.298
56847W        W29162   7.333  16.627   4.403
56848W        W29163  33.368  10.572   4.151
56849W        W29164  18.016  34.209  11.971
56850W        W29165  26.404  40.540   0.891
56851W        W29166  14.471  17.574   2.761
56852W        W29167   4.251  44.881  10.955
56853W        W29168   5.903   8.572   1.273
56854W        W29169  19.675  29.603  12.944
56855W        W29170  24.507  34.430  14.183
56856W        W29171   8.684  20.711   0.734
56857W        W29172  21.102  24.691  11.899
56858W        W29173   7.948  11.485  14.296
56859W        W29174  31.980  16.441  13.534
56860W        W29175  11.245  15.671   0.072
56861W        W29176  17.313  21.133  11.272
56862W        W29177  17.807  34.575  10.689
56863W        W29178  25.506  27.732  11.551
56864W        W29179  23.981   1.433   1.929
56865W        W29180  41.714  38.313   4.464
56866W        W29181  19.343  36.502  13.723
56867W        W29182  22.237  37.075  12.797
56868W        W29183  19.659  18.049   4.273
56869W        W29184  27.075  32.635  14.278
56870W        W29185  29.269  27.721   0.446
56871W        W29186   7.983  25.391   4.191
56872W        W29187  11.868  38.864   0.472
56873W        W29188   6.806  37.517   9.804
56874W        W29189  12.245  28.799   1.519
56875W        W29190  22.997  30.229  10.426
56876W        W29191  18.589  36.671   0.823
56877W        W29192  10.926  20.222  13.330
56878W        W29193  38.317  35.882  14.827
56879W        W29194  30.348  12.757  12.049
56880W        W29195  20.211  12.594  11.148
56881W        W29196   4.740  36.498   1.253
56882W        W29197  26.414   9.737   4.033
56883W        W29198  23.124   2.990   4.511
56884W        W29199  35.369  21.520   0.176
56885W        W29200  12.414  23.245   0.423
56886W        W29201  14.065  17.290   3.855
56887W        W29202  17.665  18.275  14.558
56888W        W29203   6.229  26.499   0.472
56889W        W29204  15.723  20.727   0.971
56890W        W29205  10.587  14.326  10.644
56891W        W29206  36.912  21.502  13.071
56892W        W29207  20.994  36.981   2.846
56893W        W29208  26.709  41.507   9.824
56894W        W29209   9.212  29.487   4.276
56895W        W29210   9.333   2.211   2.299
56896W        W29211   3.139   1.814   4.271
56897W        W29212  27.689  44.229   3.272
56898W        W29213   5.262  39.593  10.974
56899W        W29214  20.552  35.950  11.577
56900W        W29215  34.255   5.124  14.808
56901W        W29216  12.803   2.273   3.211
56902W        W29217  44.496  13.637   0.331
56903W        W29218  16.131   8.320  10.558
56904W        W29219  43.739   0.100   0.630
56905W        W29220  22.079   1.328  10.646
56906W        W29221  42.927  43.732  13.337
56907W        W29222  41.947   6.324  13.882
56908W        W29223  17.623   8.187   2.364
56909W        W29224  12.589  13.606   4.329
56910W        W29225  10.759   1.735  13.960
56911W        W29226  34.013  23.682  12.192
56912W        W29227   5.752  25.387  12.096
56913W        W29228  16.652  41.990  10.711
56914W        W29229  11.351  33.540  11.975
56915W        W29230  13.454  31.634   0.278
56916W        W29231  35.061  11.327   2.739
56917W        W29232  16.833  40.111  14.283
56918W        W29233  34.586  20.206   1.410
56919W        W29234   5.013  22.002  11.834
56920W        W29235  16.815  41.860   4.274
56921W        W29236  40.853   2.078  14.056
56922W        W29237  22.726  34.374  11.201
56923W        W29238  37.292  38.916   0.972
56924W        W29239  34.251  21.534   2.478
56925W        W29240  20.200  38.579   1.210
56926W        W29241  11.724  40.997   1.786
56927W        W29242  12.218  38.570   2.884
56928W        W29243  17.655  20.685   0.359
56929W        W29244  13.004  19.776   4.176
56930W        W29245  26.673  38.570   4.013
56931W        W29246  33.351   8.928  12.570
56932W        W29247  19.971  29.712   2.205
56933W        W29248  24.467  11.682   4.603
56934W        W29249  27.633  35.762  13.895
56935W        W29250  42.356  17.614  13.616
56936W        W29251  38.947  10.311  14.491
56937W        W29252  30.869   5.710   1.364
56938W        W29253  17.085  28.500  11.778
56939W        W29254  18.131  42.740  10.704
56940W        W29255  20.314  13.741  14.972
56941W        W29256  35.574  15.112  12.476
56942W        W29257  18.611  15.174  13.552
56943W        W29258   7.813  34.848   1.384
56944W        W29259  13.699  30.083  14.057
56945W        W29260  43.315  44.149   4.563
56946W        W29261  15.500  24.884  12.397
56947W        W29262  30.405   4.486   1.406
56948W        W29263  23.070  35.021  12.943
56949W        W29264  35.126  11.672   4.158
56950W        W29265  18.076   3.507   4.694
56951W        W29266  20.538  25.669   1.571
56952W        W29267  17.635  22.812  12.924
56953W        W29268   0.158   3.272  13.495
56954W        W29269  38.606   0.930   3.871
56955W        W29270  40.691  32.755   4.651
56956W        W29271  26.633  25.933  10.646
56957W        W29272  40.586  30.190   2.310
56958W        W29273  14.318  41.204  14.320
56959W        W29274   5.927  23.469   3.250
56960W        W29275   0.295  10.190   3.141
56961W        W29276  21.461   5.215   3.963
56962W        W29277   7.115  31.241  13.329
56963W        W29278   6.096  32.867   3.212
56964W        W29279  43.928  23.021   2.554
56965W        W29280   6.111  10.090  11.233
56966W        W29281  31.077  14.421   2.455
56967W        W29282  10.856  13.947  14.910
56968W        W29283  18.553   1.383   0.406
56969W        W29284  27.251   8.303  14.657
56970W        W29285  31.051   4.844   1.967
56971W        W29286  31.438  28.980   3.326
56972W        W29287  43.703  36.507   4.697
56973W        W29288  44.286  30.155   1.995
56974W        W29289  15.585  34.915  10.393
56975W        W29290   8.286  44.414  12.758
56976W        W29291   1.967  29.469  14.306
56977W        W29292  39.393   2.316  11.511
56978W        W29293  43.916  28.252  11.203
56979W        W29294  41.960   1.964  11.512
56980W        W29295  34.397  10.311  13.964
56981W        W29296  15.302   0.000   3.684
56982W        W29297  39.717  32.620  12.575
56983W        W29298  33.582  44.317  14.842
56984W        W29299  36.906  44.926  11.516
56985W        W29300  13.682  20.050   0.746
56986W        W29301   1.911  32.581  13.554
56987W        W29302  32.704  13.584   3.639
56988W        W29303  35.519  12.374  12.166
56989W        W29304  10.366  34.811   3.246
56990W        W29305  19.946   8.161  12.181
56991W        W29306   3.049  13.396   3.204
56992W        W29307  10.646  31.245  11.357
56993W        W29308  14.386  24.264   0.767
56994W        W29309  24.164  15.370  13.903
56995W        W29310   0.736  42.417  13.977
56996W        W29311  11.786   4.430  12.885
56997W        W29312  38.851  33.714   1.018
56998W        W29313   2.944  39.965  11.100
56999W        W29314  34.498  21.343  11.765
57000W        W29315  33.475   8.697  12.114
57001W        W29316  42.429   8.764   3.340
57002W        W29317  26.990  22.140   0.112
57003W        W29318  12.426  14.520   4.797
57004W        W29319   8.288  24.521   2.114
57005W        W29320  28.169  20.461   0.823
57006W        W29321   3.250  32.883   2.802
57007W        W29322   1.901   9.494   3.682
57008W        W29323  14.541   9.307   1.288
57009W        W29324   8.193   7.068   2.234
57010W        W29325  39.152  30.133   2.220
57011W        W29326  40.959  11.229  13.121
57012W        W29327  33.862  30.331  14.929
57013W        W29328  16.377  24.215  11.017
57014W        W29329   7.346  15.805   4.051
57015W        W29330  36.958   3.221   3.116
57016W        W29331  31.278   8.674  14.937
57017W        W29332  15.391  30.537   3.437
57018W        W29333   0.194  33.070  14.844
57019W        W29334  12.684  10.890   1.428
57020W        W29335  16.531  38.545   3.357
57021W        W29336   1.726  40.830   2.416
57022W        W29337  19.711  20.234  12.399
57023W        W29338  34.835   1.821  11.715
57024W        W29339  18.364  26.511   1.254
57025W        W29340  13.208  18.156  13.815
57026W        W29341   8.518   9.429  14.874
57027W        W29342  35.269  28.070   1.085
57028W        W29343  22.384  22.338   5.067
57029W        W29344  36.465  11.092   1.623
57030W        W29345  38.859  31.510  10.605
57031W        W29346  42.382   2.725  14.873
57032W        W29347  44.841  23.960   1.619
57033W        W29348  19.082  40.765   2.698
57034W        W29349  19.851  10.031   0.923
57035W        W29350  33.456  39.808  14.845
57036W        W29351  13.796   8.815   0.244
57037W        W29352  39.863  10.288  14.123
57038W        W29353  40.800  35.552   1.735
57039W        W29354  19.239  39.696   0.956
57040W        W29355  15.683  28.658  13.857
57041W        W29356   6.850  37.376   3.991
57042W        W29357  33.461  22.899   0.428
57043W        W29358  25.722   2.804   2.596
57044W        W29359  24.702  34.886   1.684
57045W        W29360  21.371  29.008  13.844
57046W        W29361  43.073  25.923   0.507
57047W        W29362  38.301  26.156   4.214
57048W        W29363  17.132  41.451  12.075
57049W        W29364  31.735  21.189  13.921
57050W        W29365  12.124  40.448   0.424
57051W        W29366  28.569  32.457  11.098
57052W        W29367  32.935  18.551  10.376
57053W        W29368  31.689  25.745   0.207
57054W        W29369  39.463   5.616  11.939
57055W        W29370   5.635  15.642  12.453
57056W        W29371  17.808  14.251   4.388
57057W        W29372  27.624   2.977  11.108
57058W        W29373   4.335   2.825   1.082
57059W        W29374  27.086  33.327   3.277
57060W        W29375  16.065   4.512  10.360
57061W        W29376  20.669  26.575   2.058
57062W        W29377  32.414  20.241   3.745
57063W        W29378  22.057  42.357   0.788
57064W        W29379   5.342  18.016   0.748
57065W        W29380  17.287  42.923   1.798
57066W        W29381   1.531  17.801   0.889
57067W        W29382  21.194  29.642  10.687
57068W        W29383  14.351  31.402  14.319
57069W        W29384   3.810  23.591  13.006
57070W        W29385   8.741   6.317  14.512
57071W        W29386  42.239  25.136  10.544
57072W        W29387  17.250  13.575   3.654
57073W        W29388  39.466   3.390  13.390
57074W        W29389  30.567  23.940   0.898
57075W        W29390   2.510  16.008   0.970
57076W        W29391   3.979  23.491  10.822
57077W        W29392  18.153  40.146  12.863
57078W        W29393  21.724  31.648  12.166
57079W        W29394  31.984  39.598  11.120
57080W        W29395  43.201  40.468  11.117
57081W        W29396  23.241  44.343  10.436
57082W        W29397  42.304  41.773  10.973
57083W        W29398  23.553   2.328  12.612
57084W        W29399  43.270  17.140  11.719
57085W        W29400  13.891   3.058   4.108
57086W        W29401  32.057  44.267  13.843
57087W        W29402   7.258  32.387   3.624
57088W        W29403  30.439  39.578   2.253
57089W        W29404   2.896  38.980   3.583
57090W        W29405   3.921   1.433   0.912
57091W        W29406  36.152  44.497   3.459
57092W        W29407  11.951  34.616  13.304
57093W        W29408  33.460  27.065  13.321
57094W        W29409  25.620  14.231  10.797
57095W        W29410   9.851  20.061   0.721
57096W        W29411  40.441  21.722  14.372
57097W        W29412  23.484  43.908   0.346
57098W        W29413  28.724  10.335  12.155
57099W        W29414  39.135  13.027  10.556
57100W        W29415  21.481  13.373  12.024
57101W        W29416   8.264  10.554  13.214
57102W        W29417  14.813  11.318  11.637
57103W        W29418  17.168  44.977  11.624
57104W        W29419  16.263   2.489   0.431
57105W        W29420  42.508  18.043   3.625
57106W        W29421  37.355  29.064   4.563
57107W        W29422  10.555  16.313   3.243
57108W        W29423  21.064  18.877  13.520
57109W        W29424  41.208  27.064  13.260
57110W        W29425  20.676  17.093   0.229
57111W        W29426  44.557  19.449   3.270
57112W        W29427   4.288  21.735  12.379
57113W        W29428  41.832  16.269  13.135
57114W        W29429   2.437  39.389  14.015
57115W        W29430  17.188   1.805   0.900
57116W        W29431  35.227  37.988   3.803
57117W        W29432  11.360  31.077   1.761
57118W        W29433  37.347  34.840  13.363
57119W        W29434  16.076  29.978  14.681
57120W        W29435   3.482  42.106   0.361
57121W        W29436   7.132  35.998  12.134
57122W        W29437  16.243  19.127  13.501
57123W        W29438  43.902   1.424  10.968
57124W        W29439  32.343  29.372   2.880
57125W        W29440  23.060  19.744   0.907
57126W        W29441  40.238  23.935  10.607
57127W        W29442  34.007  11.799  11.979
57128W        W29443   1.848   1.556   1.245
57129W        W29444  31.851   6.298   1.620
57130W        W29445  44.890  31.835   0.041
57131W        W29446  31.910  14.190   1.033
57132W        W29447   3.201   6.316  13.086
57133W        W29448  28.737  24.593  11.959
57134W        W29449   0.568  38.132  14.282
57135W        W29450  10.142  27.434   3.380
57136W        W29451   7.576  14.741  11.244
57137W        W29452  43.069  10.626  12.470
57138W        W29453  32.536  38.886  14.959
57139W        W29454   4.189   9.372   3.354
57140W        W29455  21.123  13.117   4.624
57141W        W29456   0.657  34.069  12.043
57142W        W29457  17.125  42.221   0.035
57143W        W29458   5.359  29.120   2.953
57144W        W29459  16.554  42.464  11.173
57145W        W29460  15.710  27.049   0.898
57146W        W29461   0.541  12.688   2.371
57147W        W29462  25.346  33.697   2.210
57148W        W29463  28.411  39.081  10.664
57149W        W29464  17.555  40.193   5.025
57150W        W29465  16.974  31.161   2.292
57151W        W29466  29.978  20.456  10.591
57152W        W29467  23.133  43.856  11.164
57153W        W29468  30.888  44.887   3.393
57154W        W29469   5.752  12.859  14.453
57155W        W29470   6.064   7.716  13.654
57156W        W29471  44.034  37.605   1.421
57157W        W29472   6.303  28.467  12.342
57158W        W29473  11.520  23.630   4.458
57159W        W29474  20.136  17.123   2.933
57160W        W29475  10.110  23.413   5.064
57161W        W29476   6.455  13.350  10.615
57162W        W29477  43.718  29.380   1.187
57163W        W29478   9.250   0.466   2.248
57164W        W29479   9.396   1.228  14.111
57165W        W29480  43.876  25.240   2.239
57166W        W29481   4.937  16.512   2.834
57167W        W29482   3.300  29.113  10.730
57168W        W29483   0.131  42.317  12.841
57169W        W29484  19.788  18.172  13.523
57170W        W29485  35.016  44.438   4.130
57171W        W29486  10.710  31.434  14.909
57172W        W29487  42.657  11.978   0.853
57173W        W29488  31.396   3.956  10.454
57174W        W29489  11.233   9.662   2.263
57175W        W29490  33.884   5.105  13.931
57176W        W29491  36.022   0.289   4.753
57177W        W29492  17.228  29.536  12.170
57178W        W29493  17.233  43.080  11.476
57179W        W29494   1.467  11.059  14.912
57180W        W29495  32.174  18.802   2.866
57181W        W29496  30.702  33.912   2.272
57182W        W29497  34.990  17.862   4.850
57183W        W29498  21.503  37.342  13.767
57184W        W29499  37.491  19.999   0.024
57185W        W29500   4.637  25.360  10.243
57186W        W29501  40.831   8.889  13.509
57187W        W29502  28.792  42.526   3.307
57188W        W29503  12.330  21.619   3.199
57189W        W29504  18.208  21.486  11.474
57190W        W29505  26.571  27.461  11.692
57191W        W29506  44.917  24.509  11.511
57192W        W29507  27.102  44.495   0.185
57193W        W29508  17.066  23.107   4.329
57194W        W29509  27.773  20.307   2.469
57195W        W29510  17.766  24.625  11.431
57196W        W29511  38.106   4.179   4.147
57197W        W29512   2.728  27.116   1.488
57198W        W29513  20.993  16.279  13.002
57199W        W29514  11.687   3.132   9.929
57200W        W29515  42.410   9.960   1.264
57201W        W29516   2.006  17.129  14.471
57202W        W29517  15.897   1.693  14.392
57203W        W29518   3.806   6.472   4.708
57204W        W29519  37.452  44.838  11.600
57205W        W29520  33.879  29.197  10.672
57206W        W29521  42.515  43.859   3.960
57207W        W29522  18.677   1.879   0.522
57208W        W29523   4.470  30.135   4.102
57209W        W29524  16.790   3.809   1.424
57210W        W29525   4.268  38.508  10.830
57211W        W29526  34.544  36.100  11.122
57212W        W29527  19.785  20.098  11.900
57213W        W29528   5.838  42.745  12.118
57214W        W29529  16.978  33.462  14.984
57215W        W29530  32.920  41.988   0.927
57216W        W29531   1.567  17.361  13.358
57217W        W29532  38.366   8.674  12.309
57218W        W29533  37.881  16.828  13.478
57219W        W29534   9.764  23.233   3.344
57220W        W29535   9.486  42.584  10.849
57221W        W29536   3.158  29.597   2.250
57222W        W29537  34.158  43.065  14.043
57223W        W29538  19.988  39.995  12.041
57224W        W29539  19.684   8.993   3.774
57225W        W29540  19.145  43.191  13.938
57226W        W29541  25.743  17.619   4.888
57227W        W29542   2.817  36.503   4.766
57228W        W29543  23.787  21.733   3.207
57229W        W29544   4.220  24.593   2.693
57230W        W29545   0.327  20.051  13.341
57231W        W29546  24.141  20.337   1.839
57232W        W29547  19.543  24.435  11.104
57233W        W29548   6.017  11.315   3.671
57234W        W29549  37.074  24.738   0.407
57235W        W29550  23.397  16.061  12.562
57236W        W29551  22.484  39.838   3.245
57237W        W29552  39.985   7.173   3.626
57238W        W29553  22.245   4.563   0.105
57239W        W29554   8.295  24.563   1.266
57240W        W29555  14.045   7.259   2.781
57241W        W29556  30.470  35.465  14.557
57242W        W29557  44.293  23.159  13.437
57243W        W29558  38.290  28.142   1.176
57244W        W29559  26.318  25.405  11.625
57245W        W29560  11.430  16.549  10.503
57246W        W29561  44.984   3.525   5.098
57247W        W29562  37.371   0.332   2.788
57248W        W29563   2.972   8.894   0.337
57249W        W29564  35.669  35.372   1.815
57250W        W29565  36.010  41.767   3.263
57251W        W29566  25.614  33.709   3.208
57252W        W29567  29.599   6.516  14.293
57253W        W29568   0.792  43.494   3.401
57254W        W29569  34.614  35.927   0.638
57255W        W29570  42.832   5.207  14.272
57256W        W29571  41.597  38.335   2.788
57257W        W29572  10.175  37.177  13.936
57258W        W29573  42.299  15.270  13.767
57259W        W29574  21.408  17.116  12.523
57260W        W29575  39.546  15.154  13.153
57261W        W29576   8.116  27.594   3.222
57262W        W29577  35.933  38.572   2.798
57263W        W29578   7.147  40.619  14.286
57264W        W29579  22.777   5.761   1.394
57265W        W29580  11.333  32.483  14.805
57266W        W29581  21.051  29.469  12.150
57267W        W29582  34.583  26.704  14.554
57268W        W29583  26.497   6.510   9.760
57269W        W29584   2.906  15.565   3.129
57270W        W29585  31.156  24.768   1.326
57271W        W29586   8.764   2.873  11.870
57272W        W29587  18.559   9.587   4.070
57273W        W29588  16.555  16.026  12.884
57274W        W29589  38.484  38.721  13.678
57275W        W29590  19.342   9.777  14.381
57276W        W29591  15.553  44.337   0.480
57277W        W29592  24.021  37.407   1.633
57278W        W29593   0.559  13.122  13.698
57279W        W29594  33.560  30.673   2.311
57280W        W29595  11.743  36.014  10.971
57281W        W29596  37.110  31.058  12.114
57282W        W29597  12.810  25.167  13.150
57283W        W29598  21.697  26.690  11.476
57284W        W29599  35.568  31.403  14.531
57285W        W29600  40.813  26.665  14.971
57286W        W29601  31.913  32.141  13.920
57287W        W29602  21.008  36.942  14.423
57288W        W29603   1.825   3.446  11.561
57289W        W29604  40.466  16.553   0.509
57290W        W29605  31.519  39.365  11.155
57291W        W29606  19.077  38.752   9.810
57292W        W29607  32.187  12.995  13.764
57293W        W29608  32.017   5.584  13.411
57294W        W29609  42.801  44.271   1.348
57295W        W29610  38.842  13.911   4.338
57296W        W29611   5.555   7.093   0.233
57297W        W29612   4.503  22.533  13.009
57298W        W29613  36.564   0.974   4.524
57299W        W29614   4.918  41.252   2.729
57300W        W29615  44.174   1.307   2.912
57301W        W29616  43.926  41.959  10.804
57302W        W29617   7.282  36.576  14.030
57303W        W29618  21.303  20.038   5.527
57304W        W29619  42.841  26.027  10.704
57305W        W29620   8.363  43.469  10.803
57306W        W29621   4.560  17.261   1.663
57307W        W29622   4.477   4.813   2.345
57308W        W29623  18.239  13.611  12.899
57309W        W29624   6.020  24.222   4.224
57310W        W29625  14.619  20.423   0.103
57311W        W29626   0.004  43.357  10.966
57312W        W29627   2.201  29.329   2.346
57313W        W29628  34.040  21.677  13.590
57314W        W29629  29.941  38.563  13.934
57315W        W29630  20.085   4.753  14.503
57316W        W29631  42.546   9.765  12.622
57317W        W29632  20.652  15.575   4.319
57318W        W29633  27.172  44.244  11.189
57319W        W29634  44.377  18.207  11.424
57320W        W29635   2.363  37.452  13.768
57321W        W29636   6.274  12.087  14.529
57322W        W29637  34.092   8.749   1.297
57323W        W29638  19.793  43.925   1.641
57324W        W29639  24.366  16.563   2.148
57325W        W29640   1.662  33.501   1.058
57326W        W29641  29.588  15.870  11.452
57327W        W29642  30.588  38.863  11.803
57328W        W29643  25.999  27.376   1.297
57329W        W29644  21.761   9.834  10.558
57330W        W29645   8.014  27.686  10.366
57331W        W29646  15.318   7.631  13.991
57332W        W29647  21.642  20.552  14.303
57333W        W29648  43.730  24.111   2.864
57334W        W29649  41.947  13.951   0.099
57335W        W29650   9.226  18.437   9.849
57336W        W29651   8.942  20.603   4.586
57337W        W29652   8.714  44.036   0.380
57338W        W29653  39.519  30.692  13.395
57339W        W29654  15.394   1.928   3.733
57340W        W29655  36.486  28.854  14.627
57341W        W29656  41.825  40.178  12.916
57342W        W29657   4.765  17.330   3.020
57343W        W29658  36.563  22.693   4.269
57344W        W29659  36.237  39.896  10.232
57345W        W29660  16.821   2.350  13.605
57346W        W29661   6.847  41.407  13.742
57347W        W29662  13.106  24.177   4.113
57348W        W29663  33.570  40.470   3.232
57349W        W29664   4.241   2.023   1.734
57350W        W29665  14.674  29.115  11.596
57351W        W29666  16.629  41.609  14.354
57352W        W29667  31.032  43.702   1.457
57353W        W29668  11.087  25.993   2.846
57354W        W29669  26.663   8.814   4.912
57355W        W29670  38.360  27.117  10.336
57356W        W29671  41.851  19.975  13.961
57357W        W29672   6.510  27.115  11.306
57358W        W29673  32.159  42.740   4.494
57359W        W29674  38.665   1.182  12.490
57360W        W29675  12.741  16.066  14.490
57361W        W29676  17.567  43.377   1.684
57362W        W29677   1.353  16.804  14.906
57363W        W29678  37.854   1.908   4.557
57364W        W29679  14.139   3.401   1.277
57365W        W29680  31.206  22.954   1.844
57366W        W29681  11.903  36.475  10.820
57367W        W29682  19.029  27.167   1.366
57368W        W29683  32.838  37.332   3.683
57369W        W29684  14.689  10.423  11.140
57370W        W29685  37.613  18.571   2.785
57371W        W29686  37.057  41.535   1.814
57372W        W29687  15.274  32.540  12.275
57373W        W29688  37.462  33.314  11.455
57374W        W29689  33.252  42.686   5.095
57375W        W29690   0.723  42.955  10.796
57376W        W29691  15.842   5.521   1.134
57377W        W29692  19.840  16.284   0.847
57378W        W29693  10.060  10.964   3.709
57379W        W29694  30.170  23.212  12.467
57380W        W29695  28.695  24.604  11.055
57381W        W29696  36.073  44.905   1.749
57382W        W29697  40.505   6.913  11.623
57383W        W29698  42.393  44.887  11.518
57384W        W29699  38.575  25.995   9.777
57385W        W29700  44.704  35.261   2.076
57386W        W29701  10.279  23.698   1.469
57387W        W29702   3.006  22.685   0.184
57388W        W29703  32.236  41.476   2.178
57389W        W29704  26.148  16.223   0.284
57390W        W29705   3.228  39.853   3.735
57391W        W29706   1.146  12.299  11.676
57392W        W29707  28.465  21.057   3.216
57393W        W29708   1.484  34.002   3.750
57394W        W29709   4.782  30.590   1.233
57395W        W29710  41.032  23.797   0.313
57396W        W29711  32.759  10.671  13.372
57397W        W29712  29.982  32.491  13.545
57398W        W29713   7.409   2.800  13.441
57399W        W29714  18.072  38.805   0.874
57400W        W29715   6.038  27.204  11.159
57401W        W29716  23.067  19.019   3.208
57402W        W29717  29.845  22.822   3.779
57403W        W29718  29.185  35.485  11.939
57404W        W29719  19.993  23.498   3.337
57405W        W29720  28.940  20.649  13.045
57406W        W29721  41.393   7.252   2.888
57407W        W29722  19.786  24.131   1.917
57408W        W29723   6.291  43.746  13.667
57409W        W29724  13.805   1.348  13.867
57410W        W29725   2.154  32.449   3.675
57411W        W29726   4.711  19.764  13.836
57412W        W29727  42.300  15.713   1.856
57413W        W29728  22.678  30.528   2.900
57414W        W29729  17.369  10.794  13.866
57415W        W29730  19.828  32.021  12.088
57416W        W29731  28.389  20.728   2.808
57417W        W29732   1.339   8.690  11.470
57418W        W29733  40.968  40.343  14.443
57419W        W29734  33.995   6.747  14.515
57420W        W29735   1.674  10.446  12.087
57421W        W29736  22.640  10.400   2.797
57422W        W29737  22.767   4.194  13.878
57423W        W29738  40.758  22.677  12.889
57424W        W29739  21.108  28.061  14.505
57425W        W29740  19.823  37.951   4.135
57426W        W29741   8.720   6.885   3.180
57427W        W29742  29.708  32.923   3.286
57428W        W29743  44.353   5.605  14.660
57429W        W29744  25.092  35.076  11.690
57430W        W29745  23.507  33.012   3.337
57431W        W29746  19.633  20.567  10.582
57432W        W29747  35.033  14.844  12.901
57433W        W29748  18.104   0.449   1.817
57434W        W29749  41.974  10.786  11.530
57435W        W29750  18.160  10.608   3.206
57436W        W29751  37.484  13.810  14.854
57437W        W29752  35.285   2.521   2.476
57438W        W29753  23.854  11.315  11.263
57439W        W29754   3.137  41.482   2.186
57440W        W29755   3.764  25.738  14.890
57441W        W29756   7.418   3.815  13.800
57442W        W29757  15.054  19.111   3.483
57443W        W29758  32.957  20.657   4.280
57444W        W29759   5.416  41.576   4.285
57445W        W29760  13.363  18.676  11.541
57446W        W29761   6.471   4.371   1.323
57447W        W29762  29.052  24.212  13.514
57448W        W29763  20.236  14.599   3.313
57449W        W29764  32.468  22.549   3.337
57450W        W29765  13.432  22.196   4.081
57451W        W29766  31.532  37.589   3.400
57452W        W29767  18.214  13.279  14.203
57453W        W29768   2.777   9.716  13.346
57454W        W29769   9.380   6.863   0.035
57455W        W29770  10.784  22.454  14.023
57456W        W29771  28.180  38.061  11.176
57457W        W29772  33.573   0.009  10.606
57458W        W29773  38.267  38.007   2.273
57459W        W29774   7.864  35.898   3.209
57460W        W29775   4.086   2.676   2.665
57461W        W29776  41.531  40.370   1.357
57462W        W29777  15.032  14.289  14.063
57463W        W29778  20.590  32.554   0.736
57464W        W29779  42.036  19.706  14.750
57465W        W29780  26.561  41.051   2.714
57466W        W29781  29.483  20.292  10.536
57467W        W29782   7.760  31.818   2.814
57468W        W29783   7.618  19.013   2.427
57469W        W29784  37.348  40.973  12.026
57470W        W29785   1.678  34.410  12.871
57471W        W29786  19.715   6.515   4.368
57472W        W29787  14.472  14.112  13.288
57473W        W29788  43.230  42.464  10.556
57474W        W29789  44.331   5.025   0.681
57475W        W29790  24.445  17.213   0.967
57476W        W29791  41.386  32.525  14.827
57477W        W29792   4.295   7.160  13.285
57478W        W29793   4.322  41.104  11.896
57479W        W29794  36.526  32.528   3.287
57480W        W29795   5.027  41.143   0.388
57481W        W29796  14.822  40.932  14.539
57482W        W29797  24.719   7.209  14.319
57483W        W29798   3.222   6.075  12.211
57484W        W29799  36.090  13.781  14.311
57485W        W29800  17.783  27.539   3.218
57486W        W29801  21.894  26.693   4.124
57487W        W29802  23.634  38.769  12.168
57488W        W29803  32.459  23.512   2.305
57489W        W29804  11.317  20.059   3.638
57490W        W29805   0.305  36.152   0.915
57491W        W29806  15.156  31.599  12.343
57492W        W29807  20.516  24.715   4.074
57493W        W29808  42.672  24.681  13.524
57494W        W29809  17.260  11.334  14.958
57495W        W29810  12.376  13.735   1.230
57496W        W29811  44.704  32.679   4.192
57497W        W29812  16.188  29.874   3.116
57498W        W29813  32.100   3.409   3.344
57499W        W29814  19.715  19.633   1.338
57500W        W29815  35.519   2.097   0.956
57501W        W29816   6.890  25.557   2.180
57502W        W29817  18.036  30.996  14.682
57503W        W29818  12.365  18.134  14.407
57504W        W29819  30.412  39.058   2.205
57505W        W29820  23.779   4.461   4.680
57506W        W29821  37.960   2.752  12.138
57507W        W29822  16.043   5.642   4.674
57508W        W29823  14.321  36.769   3.739
57509W        W29824  30.569   3.177   3.445
57510W        W29825  43.569  29.866   2.864
57511W        W29826  39.925  27.121   0.401
57512W        W29827  42.937  34.350   2.706
57513W        W29828  34.012   9.932  11.258
57514W        W29829   5.568  20.708   2.423
57515W        W29830  34.834  11.608  13.019
57516W        W29831   2.033  21.164  13.776
57517W        W29832  40.785  43.803  12.976
57518W        W29833  42.405   1.047  13.464
57519W        W29834  41.408  12.568  11.267
57520W        W29835  25.523   8.728  14.818
57521W        W29836  24.612  28.564   4.192
57522W        W29837   7.316  14.948  11.852
57523W        W29838  22.553  38.246  10.740
57524W        W29839   4.943  35.575  10.563
57525W        W29840  18.494  39.629  14.833
57526W        W29841  37.195   7.710   3.253
57527W        W29842  41.845  18.237   1.972
57528W        W29843   9.938  10.783   0.534
57529W        W29844  42.911  42.419   1.915
57530W        W29845  36.863  22.136  10.490
57531W        W29846  31.872  20.006   0.969
57532W        W29847  11.138  10.355   2.870
57533W        W29848   8.634  14.100  13.441
57534W        W29849  24.174  32.579  14.384
57535W        W29850  34.061  31.087   0.420
57536W        W29851  40.754  12.383  14.264
57537W        W29852   3.932  21.815  13.897
57538W        W29853  36.507   8.184  11.999
57539W        W29854  14.309   3.363   4.179
57540W        W29855   2.361  21.208   0.086
57541W        W29856   4.339  10.817   3.159
57542W        W29857  12.219  17.190  13.061
57543W        W29858  22.453  13.774   1.912
57544W        W29859  17.591   5.481  12.906
57545W        W29860  13.377  36.452  13.328
57546W        W29861  19.832  19.320  12.408
57547W        W29862  28.677   5.945  10.430
57548W        W29863   4.290  44.449  13.529
57549W        W29864  43.604  20.230  13.867
57550W        W29865   3.869  17.774   2.800
57551W        W29866  13.152  42.117   4.175
57552W        W29867  18.483  38.928  14.048
57553W        W29868  34.935  15.608   1.292
57554W        W29869  40.131   9.873  11.131
57555W        W29870  23.385  15.602  11.895
57556W        W29871  32.180  13.604   3.604
57557W        W29872  24.705  21.009   1.275
57558W        W29873  35.922  30.301   1.518
57559W        W29874  21.088  14.493   5.041
57560W        W29875  15.685  41.411   2.149
57561W        W29876   8.297  43.821  12.199
57562W        W29877  13.143  30.935  11.563
57563W        W29878  10.651   3.917  10.703
57564W        W29879  42.935   2.954   4.837
57565W        W29880  44.777  34.762   4.912
57566W        W29881  38.400  10.730  13.371
57567W        W29882  34.861  19.751   3.099
57568W        W29883  13.001  18.707   0.524
57569W        W29884  44.526  33.893   3.635
57570W        W29885  10.177  41.636   0.888
57571W        W29886   5.147  12.639  11.922
57572W        W29887  38.070   1.344  11.044
57573W        W29888  19.419  26.366  12.033
57574W        W29889  16.333   9.827   4.911
57575W        W29890  43.750  27.475   2.777
57576W        W29891  44.791   4.160  11.614
57577W        W29892  11.080  25.505  10.617
57578W        W29893   2.708  14.768  13.371
57579W        W29894  26.046  31.068  14.170
57580W        W29895  29.485  12.283  10.717
57581W        W29896  34.675   7.111   3.397
57582W        W29897  14.557  36.086  14.384
57583W        W29898   1.614   7.239  14.889
57584W        W29899  22.607  32.361   1.444
57585W        W29900  16.297  21.762  11.691
57586W        W29901   2.407  35.874   5.089
57587W        W29902  17.857  34.130  14.761
57588W        W29903  35.443   8.827   2.790
57589W        W29904  39.583  20.171   3.164
57590W        W29905  19.064  32.303   4.211
57591W        W29906  28.550   3.250  14.978
57592W        W29907   8.937  20.074  14.627
57593W        W29908  31.086  20.373  13.878
57594W        W29909  12.092   3.699   4.571
57595W        W29910  12.250  44.332   2.915
57596W        W29911  38.620   5.375   2.300
57597W        W29912  23.270  17.671   3.470
57598W        W29913   9.890   8.950  14.359
57599W        W29914  40.644  17.635   0.831
57600W        W29915   3.171  20.050   4.079
57601W        W29916  24.081  23.349   4.398
57602W        W29917  43.016  28.925   0.277
57603W        W29918  26.687  43.978  14.841
57604W        W29919  33.393  15.305   3.210
57605W        W29920   5.597   2.078   3.720
57606W        W29921  13.633  41.202   3.826
57607W        W29922  30.027  14.785   4.308
57608W        W29923  33.848  27.041  12.134
57609W        W29924  32.082  38.865  11.550
57610W        W29925  16.741  20.289   1.348
57611W        W29926  16.258  43.692   1.225
57612W        W29927  36.572  11.710   0.915
57613W        W29928   3.637  22.527  12.477
57614W        W29929  37.365  30.893   9.882
57615W        W29930   6.786  16.697   1.856
57616W        W29931  21.765  43.213  11.561
57617W        W29932  31.303   0.424   1.540
57618W        W29933  23.563   4.133  12.910
57619W        W29934  23.255  35.378  11.431
57620W        W29935  35.088  38.803  13.636
57621W        W29936  18.005  16.285  12.888
57622W        W29937  21.174   4.746   4.950
57623W        W29938  26.366   8.150   4.542
57624W        W29939  33.468  35.912  13.878
57625W        W29940  15.004  27.631  10.671
57626W        W29941   8.384  40.834  13.278
57627W        W29942  40.603  26.503  10.084
57628W        W29943  18.305  13.022  13.719
57629W        W29944  21.646  41.829   2.330
57630W        W29945  30.869  22.436   2.655
57631W        W29946   2.545  22.068  14.499
57632W        W29947  43.742   2.263   0.384
57633W        W29948   7.842  29.140  14.910
57634W        W29949  44.817  44.798   2.313
57635W        W29950  21.623   7.364  13.037
57636W        W29951  43.923  26.182  10.684
57637W        W29952  14.230  34.889   0.086
57638W        W29953  37.590  16.095  10.749
57639W        W29954  44.802  41.074   4.115
57640W        W29955  15.693   5.739  11.022
57641W        W29956   9.792  16.883  10.110
57642W        W29957  40.550  11.843  10.235
57643W        W29958  37.881  24.709  10.860
57644W        W29959  20.402   3.804  13.863
57645W        W29960  20.126  23.600   0.891
57646W        W29961  29.549  34.651   4.570
57647W        W29962  38.048  21.160  10.298
57648W        W29963  43.490   5.170  13.856
57649W        W29964   2.034  40.298   1.830
57650W        W29965  19.794  27.975  11.170
57651W        W29966  30.048   5.245   2.704
57652W        W29967   0.111  38.822  12.984
57653W        W29968  34.840   7.795   4.536
57654W        W29969  22.663  37.208   3.719
57655W        W29970  19.652  31.520   2.546
57656W        W29971  40.159  22.433   5.087
57657W        W29972  20.171  29.456   4.087
57658W        W29973  13.432  10.134   0.939
57659W        W29974  35.075   7.868   1.893
57660W        W29975   9.265  25.058   3.223
57661W        W29976  28.592   3.271  10.615
57662W        W29977   5.888  34.882  11.597
57663W        W29978  14.639   7.163  13.806
57664W        W29979   3.811  19.521  11.122
57665W        W29980  40.269  40.932   2.357
57666W        W29981   4.220  32.713   0.784
57667W        W29982  14.082   2.717  11.561
57668W        W29983   5.989  16.362   3.733
57669W        W29984   9.264   5.212  12.010
57670W        W29985  17.852  37.947  12.086
57671W        W29986  21.610   2.361   0.300
57672W        W29987  20.676  13.089  13.537
57673W        W29988  29.718  19.184   1.747
57674W        W29989  20.795  31.561   2.843
57675W        W29990  10.533  10.290  10.427
57676W        W29991  37.408  28.162  11.911
57677W        W29992   3.469  27.198  11.343
57678W        W29993  10.292  28.329   2.303
57679W        W29994   6.199  42.234   4.225
57680W        W29995  16.740   2.922   4.458
57681W        W29996   4.214  23.628  13.375
57682W        W29997  16.155  26.392  13.889
57683W        W29998  11.989  42.507   3.245
57684W        W29999   2.522  43.457  11.978
57685W        W30000  10.190  32.161   3.257
57686W        W30001   9.843  23.147  12.681
57687W        W30002  42.806  17.676   0.738
57688W        W30003  43.646  22.815  11.732
57689W        W30004  29.666  38.055   4.304
57690W        W30005   3.910   5.804   3.633
57691W        W30006  21.905  24.041  11.087
57692W        W30007  40.530  27.234  14.014
57693W        W30008  17.115  14.935  12.352
57694W        W30009  22.399  21.781   2.403
57695W        W30010  27.630  37.560   1.958
57696W        W30011  20.124  36.778   0.965
57697W        W30012  11.773  20.521   0.371
57698W        W30013   2.387  28.545  11.295
57699W        W30014  40.388  13.731   5.121
57700W        W30015   5.700  21.633   0.386
57701W        W30016  24.735  33.884   1.707
57702W        W30017  23.745  17.137  11.967
57703W        W30018  21.754  29.862  13.819
57704W        W30019  30.066  24.761   4.883
57705W        W30020  27.440  39.119  10.609
57706W        W30021  32.088   5.299  10.706
57707W        W30022  11.271  28.713   2.457
57708W        W30023  25.543  44.308  13.513
57709W        W30024   2.439   1.416   0.671
57710W        W30025  14.079  32.582  11.779
57711W        W30026  32.164  21.412   2.500
57712W        W30027  29.690  36.031   1.900
57713W        W30028   6.860  39.144   0.399
57714W        W30029  37.554   1.098   4.250
57715W        W30030   9.289   8.937  11.206
57716W        W30031  43.864  16.526   0.123
57717W        W30032   3.230  25.003  12.186
57718W        W30033   0.822   1.240   1.394
57719W        W30034  20.082  14.198  10.769
57720W        W30035  20.758  21.556   2.703
57721W        W30036  25.319  25.137   4.252
57722W        W30037  14.865  39.117   3.352
57723W        W30038  33.078  35.098   5.006
57724W        W30039  11.790   5.822  12.813
57725W        W30040  26.197  42.312   2.879
57726W        W30041  23.741   7.613   4.166
57727W        W30042  15.684  17.216  10.555
57728W        W30043  24.693  28.441  12.490
57729W        W30044  41.258  43.773  13.818
57730W        W30045  13.058  22.614  11.549
57731W        W30046  36.010  17.338   2.592
57732W        W30047   4.720  12.388  14.328
57733W        W30048  13.169  19.040  11.874
57734W        W30049  34.299  42.807  11.003
57735W        W30050  24.981   8.115   3.914
57736W        W30051   7.227  23.392  14.277
57737W        W30052   1.987  42.834  10.238
57738W        W30053   3.358   9.782  13.522
57739W        W30054  26.814  29.062  12.933
57740W        W30055  10.934  23.225  13.015
57741W        W30056  33.925   9.279   4.588
57742W        W30057  11.517  19.874   9.730
57743W        W30058  21.577  17.824  12.998
57744W        W30059  15.093  13.199  11.701
57745W        W30060  20.316   7.435   0.344
57746W        W30061  40.429  31.351  14.385
57747W        W30062  29.440   3.376   3.711
57748W        W30063  17.066  28.043   2.293
57749W        W30064  41.799  35.910   2.383
57750W        W30065  14.780  17.256  13.533
57751W        W30066   4.277  15.225   2.759
57752W        W30067  29.126  43.339  14.455
57753W        W30068  42.064   6.689  13.186
57754W        W30069  22.798   7.457  14.714
57755W        W30070  29.655  29.067  10.519
57756W        W30071   2.018  33.902   0.966
57757W        W30072  40.055  28.420   4.351
57758W        W30073  39.220  36.947  14.837
57759W        W30074  30.867  17.155   1.707
57760W        W30075  36.529  13.202   1.424
57761W        W30076  15.742  34.822  12.925
57762W        W30077  44.999  13.318   1.455
57763W        W30078  28.998  38.835   3.167
57764W        W30079  24.860  16.544  11.140
57765W        W30080  35.461  40.862  12.677
57766W        W30081  35.607   0.011   0.225
57767W        W30082   5.480   1.784  14.853
57768W        W30083  39.298  42.565   0.442
57769W        W30084  12.274  16.619   1.819
57770W        W30085  27.146  20.013   2.788
57771W        W30086  25.085  25.733   1.473
57772W        W30087  26.021  16.074  13.032
57773W        W30088  31.072  26.603   0.895
57774W        W30089  23.991  25.072  12.548
57775W        W30090   4.346  20.544   0.902
57776W        W30091   4.280  39.020  10.688
57777W        W30092  35.135  43.304   0.031
57778W        W30093   8.000  18.137  13.791
57779W        W30094   0.206  25.682   3.220
57780W        W30095   1.749  26.095   0.980
57781W        W30096  17.174  19.445   4.739
57782W        W30097  34.345  36.557  13.863
57783W        W30098  19.069  32.487  12.059
57784W        W30099  37.555  10.727   3.706
57785W        W30100  17.179  14.685   1.857
57786W        W30101   1.521  21.642  11.588
57787W        W30102  42.326   1.931   0.319
57788W        W30103   1.773  17.564  14.750
57789W        W30104  29.036  11.560   0.340
57790W        W30105  11.915  30.241  14.019
57791W        W30106  24.140  18.702   9.821
57792W        W30107  17.187  43.702  13.373
57793W        W30108  15.821   3.849   2.145
57794W        W30109   0.354  32.406  11.629
57795W        W30110   0.211   5.851  11.477
57796W        W30111  10.281   8.449   1.913
57797W        W30112  15.486  41.462  13.108
57798W        W30113   8.914   2.295   0.229
57799W        W30114  20.067  38.230   0.706
57800W        W30115   2.334   7.935   1.249
57801W        W30116  29.622  15.285  14.311
57802W        W30117  24.906  43.728  11.671
57803W        W30118   4.813  14.049  11.021
57804W        W30119  36.306   9.853   0.771
57805W        W30120  19.298   9.217  10.680
57806W        W30121  35.245  29.273  13.553
57807W        W30122  31.985  28.881  14.855
57808W        W30123  40.536  34.365   0.805
57809W        W30124  20.707   5.793   0.859
57810W        W30125  33.049  27.182   2.747
57811W        W30126  34.491  13.484  11.570
57812W        W30127  10.896   3.360   4.385
57813W        W30128  41.334  20.473   3.194
57814W        W30129   5.295  27.020  12.309
57815W        W30130   7.871  41.166  12.474
57816W        W30131   0.210  21.829   1.387
57817W        W30132  16.264  27.124   1.790
57818W        W30133   6.325  36.917  11.149
57819W        W30134  33.433   2.018   3.717
57820W        W30135  33.234  42.890   0.475
57821W        W30136   8.279  35.684   4.048
57822W        W30137  25.030  38.149  14.826
57823W        W30138  37.403   1.568   4.943
57824W        W30139  30.042  27.059   3.923
57825W        W30140   3.043  27.171   4.609
57826W        W30141   9.639  41.508   4.671
57827W        W30142   0.179  29.072  14.487
57828W        W30143  33.071  41.438  14.381
57829W        W30144  26.524  41.167  13.523
57830W        W30145  41.437  17.406  14.749
57831W        W30146  25.838  19.324  12.538
57832W        W30147  15.209   3.956  11.077
57833W        W30148  38.735  44.161  13.012
57834W        W30149  30.788  22.489  10.032
57835W        W30150  22.147  31.709   3.364
57836W        W30151  24.529  14.306   3.731
57837W        W30152  32.704   0.269  13.406
57838W        W30153  13.001  43.516   3.316
57839W        W30154  39.120  29.079   1.955
57840W        W30155  37.489  32.782  11.498
57841W        W30156  26.561  19.879   3.686
57842W        W30157  18.249   9.205  12.790
57843W        W30158  10.239  39.361  12.863
57844W        W30159  16.131   5.529  11.191
57845W        W30160  16.862  22.109  14.018
57846W        W30161  29.493  25.611  14.351
57847W        W30162   2.336  37.742  11.577
57848W        W30163  43.985  43.556  11.307
57849W        W30164  14.438  10.175  10.136
57850W        W30165  18.188  22.955  12.420
57851W        W30166  19.706  13.045  13.387
57852W        W30167  22.602  21.004   0.795
57853W        W30168  38.128  23.575  14.038
57854W        W30169  15.300  37.207   2.377
57855W        W30170  20.818  10.668   3.742
57856W        W30171  40.101  40.739  10.673
57857W        W30172  24.068  22.094   4.220
57858W        W30173   2.795  29.682   3.752
57859W        W30174  38.122  20.736   0.810
57860W        W30175   2.358  19.100   0.517
57861W        W30176  42.319  25.108  14.435
57862W        W30177  17.147  28.576   2.413
57863W        W30178  28.786   5.520  13.884
57864W        W30179  24.480  15.266  14.290
57865W        W30180  36.006  24.912  13.469
57866W        W30181  36.025  19.686   2.018
57867W        W30182  24.908  27.152   2.511
57868W        W30183  32.894  17.297   1.781
57869W        W30184   3.344  16.285   0.421
57870W        W30185  10.816  15.546   0.908
57871W        W30186  34.844  17.640  14.482
57872W        W30187  19.730  20.612   2.377
57873W        W30188  41.404   6.646  11.131
57874W        W30189   1.750   3.970   2.371
57875W        W30190  31.898   4.163   1.179
57876W        W30191  26.195   7.321   1.391
57877W        W30192  36.043  37.470   1.360
57878W        W30193   7.775   4.838  10.689
57879W        W30194  24.173   1.832   2.240
57880W        W30195  34.058  22.388  10.150
57881W        W30196  30.012  30.572   0.714
57882W        W30197  43.870  24.727   2.378
57883W        W30198   2.413  18.840   0.038
57884W        W30199  36.291   7.435   0.114
57885W        W30200  26.985   2.187  12.060
57886W        W30201  30.014  15.631   1.449
57887W        W30202   9.639  25.446   4.746
57888W        W30203  17.018   1.302  12.579
57889W        W30204  19.796  25.030   1.726
57890W        W30205   1.944  44.587  11.840
57891W        W30206  29.479   6.845   4.676
57892W        W30207  25.792   7.152  14.212
57893W        W30208  40.744  25.673   3.829
57894W        W30209   9.962  43.358   2.877
57895W        W30210  12.708  32.785   0.490
57896W        W30211  32.396  18.690   4.184
57897W        W30212   9.661  37.438   4.774
57898W        W30213  36.989  29.707  11.793
57899W        W30214  10.982  20.213   4.620
57900W        W30215  20.061  16.713   0.615
57901W        W30216  11.733   7.126   0.846
57902W        W30217   1.296  33.638   2.555
57903W        W30218  16.677  42.522   2.317
57904W        W30219  34.423  16.884   2.546
57905W        W30220  25.233  35.996  10.706
57906W        W30221  16.199   3.445   0.796
57907W        W30222   8.852  26.840  11.634
57908W        W30223  33.221  32.519  12.518
57909W        W30224  22.945  14.598  10.999
57910W        W30225  34.159   9.125   2.313
57911W        W30226  35.045  22.582   2.799
57912W        W30227  31.611   0.970   0.144
57913W        W30228  43.721  31.323  14.362
57914W        W30229  29.120  35.164  13.427
57915W        W30230  38.301   4.015   1.982
57916W        W30231  43.652  43.693  14.714
57917W        W30232  16.708   3.437   3.201
57918W        W30233  24.042  41.722   0.280
57919W        W30234  21.032   2.870   1.272
57920W        W30235   1.072  25.183   2.298
57921W        W30236  20.985  11.740  13.413
57922W        W30237  11.726  36.530  12.741
57923W        W30238  29.064   6.172   0.528
57924W        W30239   3.039  33.804   1.676
57925W        W30240  17.541   1.993   1.278
57926W        W30241  30.650  12.311   3.712
57927W        W30242  39.496  10.331   1.968
57928W        W30243  21.596   5.394   4.413
57929W        W30244  29.160  20.757  14.849
57930W        W30245  19.753   1.344  11.444
57931W        W30246  24.183   4.506   1.358
57932W        W30247  20.070  25.431   3.376
57933W        W30248  25.597  24.078   0.687
57934W        W30249  40.553   5.588   0.027
57935W        W30250  12.855  22.237   4.178
57936W        W30251   5.273  28.647  11.484
57937W        W30252  35.659  19.517  11.240
57938W        W30253  42.365  24.250  10.283
57939W        W30254  10.179  15.534  11.521
57940W        W30255  27.569  23.657  13.967
57941W        W30256  24.207  26.846   1.334
57942W        W30257   4.229  29.673  12.361
57943W        W30258  18.713  40.877   4.883
57944W        W30259   1.154  14.288  13.979
57945W        W30260  31.952  12.225   3.230
57946W        W30261   4.839  24.955  13.853
57947W        W30262  28.555  40.385   4.607
57948W        W30263  21.051   0.803   4.555
57949W        W30264  30.424  22.351  14.447
57950W        W30265  33.835  39.393  13.069
57951W        W30266  36.950  41.008   3.412
57952W        W30267  34.844   9.340   2.855
57953W        W30268  14.516   8.390  12.540
57954W        W30269  25.164  29.743   5.019
57955W        W30270  22.009   2.303  12.458
57956W        W30271  27.719   1.784  10.612
57957W        W30272  10.198  11.547   0.749
57958W        W30273  34.577  38.069  10.813
57959W        W30274  18.253  28.195  12.837
57960W        W30275  17.749  12.778   3.709
57961W        W30276   8.290  22.662  11.633
57962W        W30277   0.947  38.451   4.525
57963W        W30278   2.728  12.730  11.838
57964W        W30279   5.935  44.529  13.469
57965W        W30280  43.721  26.445  14.943
57966W        W30281  16.695  17.349  12.611
57967W        W30282  20.220   3.523   5.058
57968W        W30283  13.573  13.842  14.314
57969W        W30284   1.199  11.098  12.570
57970W        W30285   1.090   8.980  13.795
57971W        W30286  37.730  35.558   1.721
57972W        W30287  15.586   8.728  12.172
57973W        W30288  22.754   2.224   3.613
57974W        W30289  19.297  18.116   1.359
57975W        W30290  12.800  17.921  10.220
57976W        W30291  19.004  42.459   0.793
57977W        W30292  20.293   0.499   0.750
57978W        W30293  32.573  11.437  11.559
57979W        W30294  12.289  40.756   2.772
57980W        W30295  18.306  34.165  12.396
57981W        W30296  25.917  39.890   0.760
57982W        W30297  30.276  25.599  14.047
57983W        W30298   3.335  35.904  14.489
57984W        W30299  28.938   5.950  12.418
57985W        W30300  31.069  36.356  13.209
57986W        W30301  12.563   5.750   4.115
57987W        W30302  10.004   0.567   1.039
57988W        W30303   2.349   7.412  10.748
57989W        W30304   6.669  11.839   2.884
57990W        W30305   6.797  20.197   0.812
57991W        W30306  16.809  41.099  11.205
57992W        W30307  21.028  43.509   2.786
57993W        W30308  24.666  41.113   3.667
57994W        W30309  17.302  33.862  11.129
57995W        W30310  40.854  25.738   0.985
57996W        W30311  41.499  18.394   0.815
57997W        W30312  19.974   8.276   2.263
57998W        W30313  28.656  43.638  12.191
57999W        W30314  15.544  38.158   5.201
58000W        W30315  35.893   1.910   2.228
58001W        W30316  16.625  10.627   0.974
58002W        W30317  40.867  36.442   0.962
58003W        W30318  25.034  22.290   4.857
58004W        W30319   9.448   7.625   0.319
58005W        W30320  40.949  42.035   2.665
58006W        W30321   7.931  12.504  14.801
58007W        W30322  12.140  37.863   0.747
58008W        W30323   1.188   7.650   0.260
58009W        W30324  42.291  11.932  12.833
58010W        W30325  38.017  16.680   4.647
58011W        W30326  34.654  11.646   3.464
58012W        W30327   9.697  13.154   0.311
58013W        W30328  15.733  23.836   5.079
58014W        W30329  18.487  24.637   0.381
58015W        W30330  33.504   1.870   1.901
58016W        W30331  27.994  16.100  11.441
58017W        W30332  31.620   9.640   4.340
58018W        W30333   9.089  22.524   2.804
58019W        W30334  10.301  37.045  10.312
58020W        W30335  39.416  11.387   0.328
58021W        W30336  38.587   4.849   0.404
58022W        W30337  37.327  22.779  12.974
58023W        W30338  22.170  38.408   1.514
58024W        W30339  34.169  28.114  12.913
58025W        W30340   6.391  15.820   2.706
58026W        W30341  15.616  36.467   1.323
58027W        W30342   1.925  42.976  12.095
58028W        W30343  23.094   6.655  14.641
58029W        W30344  39.040  17.121  10.686
58030W        W30345  22.740  26.375   2.711
58031W        W30346  29.690  33.307   2.078
58032W        W30347  27.960  12.797   3.697
58033W        W30348  16.250  25.630  13.496
58034W        W30349   5.394  44.543  12.543
58035W        W30350  19.148  33.017   2.931
58036W        W30351  40.898  20.708   4.626
58037W        W30352   8.799  17.240   0.359
58038W        W30353  13.146   0.226  12.794
58039W        W30354  29.017  42.802  12.257
58040W        W30355  19.990  44.374  10.775
58041W        W30356  37.626  39.121   3.547
58042W        W30357   4.920  21.424  14.628
58043W        W30358  17.079   9.131  14.872
58044W        W30359  23.199  40.073  13.317
58045W        W30360  24.467  30.138   2.852
58046W        W30361   1.286  12.628  14.026
58047W        W30362  22.407  17.069  11.590
58048W        W30363  31.217  30.554  10.767
58049W        W30364  16.796  18.577   2.892
58050W        W30365   3.324  14.639   1.300
58051W        W30366  43.492   7.686  11.080
58052W        W30367  11.103  23.705   0.375
58053W        W30368   2.209   0.838   4.185
58054W        W30369  43.775  19.579   2.404
58055W        W30370  18.515  14.740  11.069
58056W        W30371   0.144   6.459  12.900
58057W        W30372   7.142  19.095   4.559
58058W        W30373  44.924  41.017   0.259
58059W        W30374  30.202  39.409  10.533
58060W        W30375  35.426  23.206   3.660
58061W        W30376  32.624  39.085   4.670
58062W        W30377  17.696  40.960   3.346
58063W        W30378  19.268  36.120   2.969
58064W        W30379  39.001  18.521   2.242
58065W        W30380  22.770  26.476   5.074
58066W        W30381  39.013   9.838   0.402
58067W        W30382   2.968  42.042   1.649
58068W        W30383  15.600   0.249   0.407
58069W        W30384  25.762  32.097  10.310
58070W        W30385   7.171  30.077  10.429
58071W        W30386  24.225  18.967  11.038
58072W        W30387  20.258  11.462   3.965
58073W        W30388  30.076  20.695   0.413
58074W        W30389  18.004  35.780  11.316
58075W        W30390  18.929  23.699   0.395
58076W        W30391  34.063  22.220  11.828
58077W        W30392  42.490  39.895  12.873
58078W        W30393  14.654  40.964   0.959
58079W        W30394  17.653  43.540   3.837
58080W        W30395   8.964  24.990  11.183
58081W        W30396  30.142  12.385   2.204
58082W        W30397  39.763  44.425   0.891
58083W        W30398  33.614  23.559   4.157
58084W        W30399  43.772  41.912   1.270
58085W        W30400  25.827  18.315  14.351
58086W        W30401  17.098  13.320   1.313
58087W        W30402  29.142  31.419  14.638
58088W        W30403   8.771  29.861   4.793
58089W        W30404  25.549  35.493  13.825
58090W        W30405  24.748  29.561  12.536
58091W        W30406  18.051  27.427  11.483
58092W        W30407  33.408  32.325   1.170
58093W        W30408  36.902   9.147   0.352
58094W        W30409  18.628  44.695   1.755
58095W        W30410  27.610  43.988  12.666
58096W        W30411  32.366  41.393   3.336
58097W        W30412  20.119  21.301   3.761
58098W        W30413  16.299  17.139   3.687
58099W        W30414  21.264  21.236  11.115
58100W        W30415  39.138  28.701  13.465
58101W        W30416  12.371  20.136  13.367
58102W        W30417  25.578   3.810   1.166
58103W        W30418   6.474  19.806  10.698
58104W        W30419  16.806  17.104   3.523
58105W        W30420   0.742  36.547  14.389
58106W        W30421  16.208  13.053   4.189
58107W        W30422  18.134   5.341   4.174
58108W        W30423  27.545  16.820   2.213
58109W        W30424  20.750  20.583  10.595
58110W        W30425   1.309  44.977  11.227
58111W        W30426  39.039  20.056  11.009
58112W        W30427  14.206  16.028  14.069
58113W        W30428  11.113  30.282  13.626
58114W        W30429  44.453  31.400   3.402
58115W        W30430  20.529  16.689  13.322
58116W        W30431  22.008  25.609   2.065
58117W        W30432  15.817  28.440   5.606
58118W        W30433  10.850  34.960   3.075
58119W        W30434  34.265  28.943   1.882
58120W        W30435   1.325  13.846   1.884
58121W        W30436  21.231  38.554   0.370
58122W        W30437  16.434  36.919   1.519
58123W        W30438  24.592  29.110   0.934
58124W        W30439  13.564  17.227  11.972
58125W        W30440  15.048  19.053  12.359
58126W        W30441  21.461  28.610   4.518
58127W        W30442  38.818  10.847  12.000
58128W        W30443  43.816  13.422  13.467
58129W        W30444  31.893  36.449   0.921
58130W        W30445  22.455  33.924   2.195
58131W        W30446  31.801   4.127   4.124
58132W        W30447   6.174   0.008  13.138
58133W        W30448  36.984  12.414   1.392
58134W        W30449  35.610  23.072  14.186
58135W        W30450   2.503  15.158   4.710
58136W        W30451  15.827   6.804   0.993
58137W        W30452  15.697  39.884   2.721
58138W        W30453  33.471  31.548   4.851
58139W        W30454  10.141  21.179   4.954
58140W        W30455   9.085  44.336  14.469
58141W        W30456  15.857  41.498   0.023
58142W        W30457   1.694  26.763  14.945
58143W        W30458   2.046  35.356   2.827
58144W        W30459  33.129  34.090   3.846
58145W        W30460   6.791   2.240   1.241
58146W        W30461  40.315  17.107  14.589
58147W        W30462  18.251  25.969  13.997
58148W        W30463  13.351  34.396  14.078
58149W        W30464  23.252   8.434   3.332
58150W        W30465  28.782  12.644  11.086
58151W        W30466   1.081  30.157   1.916
58152W        W30467   1.973  44.935   2.619
58153W        W30468  18.597   5.302   1.210
58154W        W30469  39.123   7.888  11.183
58155W        W30470  25.703  28.261  10.267
58156W        W30471  34.321   6.762  14.052
58157W        W30472  40.006  23.760   5.642
58158W        W30473  38.798   0.026  13.515
58159W        W30474  33.533  13.731  11.646
58160W        W30475  25.615  14.429   3.660
58161W        W30476  11.416  41.399   2.694
58162W        W30477   3.691  38.070  14.784
58163W        W30478  34.667   3.005   3.356
58164W        W30479   0.725   8.921   0.434
58165W        W30480  39.538   1.730  12.320
58166W        W30481  10.323  42.057   1.180
58167W        W30482  28.618  19.332  13.520
58168W        W30483   4.817  38.707   1.924
58169W        W30484  21.730  29.641  13.351
58170W        W30485  39.902  37.891   4.621
58171W        W30486  16.062  24.531  12.604
58172W        W30487  43.260  12.608   4.953
58173W        W30488  20.010  38.935   4.955
58174W        W30489  44.745  39.401   4.251
58175W        W30490  39.021  15.341  14.344
58176W        W30491   7.710  33.068  14.952
58177W        W30492   6.260  33.684   4.553
58178W        W30493  33.062  38.390   3.150
58179W        W30494   4.438   4.933   4.656
58180W        W30495  37.388  43.753   5.054
58181W        W30496   4.977   8.106   1.277
58182W        W30497  34.357  27.117  12.269
58183W        W30498  36.483  31.455   3.405
58184W        W30499  17.999  27.170   1.408
58185W        W30500  44.034  30.441  13.852
58186W        W30501  21.450   9.883   1.686
58187W        W30502   2.492  35.749   4.577
58188W        W30503  24.176   2.672  11.653
58189W        W30504  29.014  10.897  14.553
58190W        W30505   0.834  41.341   0.947
58191W        W30506  34.309  14.542  11.670
58192W        W30507   2.251  35.658  14.080
58193W        W30508   8.320  32.828  13.851
58194W        W30509  15.592  28.182  11.169
58195W        W30510   3.271  11.163   1.787
58196W        W30511   7.184  31.513   2.245
58197W        W30512  41.514  29.737  14.083
58198W        W30513  32.450  17.131   4.587
58199W        W30514   1.488   2.783  12.531
58200W        W30515  21.988  31.282   1.849
58201W        W30516  26.180  29.172  12.150
58202W        W30517   8.451  41.901   4.697
58203W        W30518  28.430  11.245  14.746
58204W        W30519  29.001   2.249   3.707
58205W        W30520  25.494   6.363   5.120
58206W        W30521  33.672  14.430  12.376
58207W        W30522  21.082  33.078   3.458
58208W        W30523  38.228   0.363   4.467
58209W        W30524   3.441   9.222   2.624
58210W        W30525   1.676   5.426  12.811
58211W        W30526   9.688  27.985   3.686
58212W        W30527  21.128  20.773  10.254
58213W        W30528  23.559   4.851  11.605
58214W        W30529  39.022  13.847   0.474
58215W        W30530   7.492  42.051   2.805
58216W        W30531  12.148  41.179   2.022
58217W        W30532  17.234   8.979  12.003
58218W        W30533  41.842  30.641   1.176
58219W        W30534  25.742  30.055  13.920
58220W        W30535  25.519  21.341  13.682
58221W        W30536  33.890  11.000  14.880
58222W        W30537  36.763  14.249  12.357
58223W        W30538   6.425  26.932  10.787
58224W        W30539   2.158  38.039   1.506
58225W        W30540  21.719  23.661  12.997
58226W        W30541  44.227  27.666   2.874
58227W        W30542  43.891  19.199   2.758
58228W        W30543  30.690  11.595  10.585
58229W        W30544  24.611  19.464  14.235
58230W        W30545  11.576  38.240  11.524
58231W        W30546  37.384  20.235  13.053
58232W        W30547  26.949   7.696   3.738
58233W        W30548   0.400  40.261   4.182
58234W        W30549  32.102  37.559   1.015
58235W        W30550  40.302  16.656   4.623
58236W        W30551   2.948  21.646  13.533
58237W        W30552  13.088  16.904   1.426
58238W        W30553  30.427  17.871  13.383
58239W        W30554   9.224  34.873   1.131
58240W        W30555  35.707  44.508   1.128
58241W        W30556  23.790   0.359  14.591
58242W        W30557  38.998  38.030   1.798
58243W        W30558  34.025  28.417   1.023
58244W        W30559  41.061  21.568  13.553
58245W        W30560  31.848  31.429   3.865
58246W        W30561  10.918   7.322  11.254
58247W        W30562   9.123  18.186   0.716
58248W        W30563  42.040  22.094  10.761
58249W        W30564   7.467  26.125   1.217
58250W        W30565  27.221   7.851   3.241
58251W        W30566  29.238   1.238   2.594
58252W        W30567   3.835  29.181   2.650
58253W        W30568   4.875  32.640   4.612
58254W        W30569  27.562  20.179  14.986
58255W        W30570  12.259  23.141  11.441
58256W        W30571  29.569  35.656   4.628
58257W        W30572   8.168   1.544  11.042
58258W        W30573   2.427   3.549  14.838
58259W        W30574   7.009   0.015  14.901
58260W        W30575   1.923  31.770  14.955
58261W        W30576  38.466  32.417  12.010
58262W        W30577  19.529  28.448   3.565
58263W        W30578  12.130  19.012   0.313
58264W        W30579   8.015  33.386   2.270
58265W        W30580  11.257  12.359  11.692
58266W        W30581  17.183  16.250   1.713
58267W        W30582  38.286  35.161   2.515
58268W        W30583  10.219  27.654  11.410
58269W        W30584   5.869  10.229  14.032
58270W        W30585   1.937   4.081  12.879
58271W        W30586  14.259  27.165   1.214
58272W        W30587  28.809   7.107   4.975
58273W        W30588  17.323   9.799   0.318
58274W        W30589  36.383  22.666   2.243
58275W        W30590  14.639   1.711   1.870
58276W        W30591  20.672  24.304   1.469
58277W        W30592   5.658  30.442   4.811
58278W        W30593   3.730  24.583  13.215
58279W        W30594  33.751  41.787   0.422
58280W        W30595  34.406  19.246  11.643
58281W        W30596  20.734  42.530  12.977
58282W        W30597  24.281  43.868  14.731
58283W        W30598  23.592  19.308  13.730
58284W        W30599  11.182  19.270   0.302
58285W        W30600  22.580   6.442  10.267
58286W        W30601  39.510   5.196   1.343
58287W        W30602  43.917  43.506  11.812
58288W        W30603   0.346  22.845   4.896
58289W        W30604   6.832  28.631  13.022
58290W        W30605  28.586  12.367  10.683
58291W        W30606  44.745  27.515   4.341
58292W        W30607  17.526  37.840  11.698
58293W        W30608  39.367  43.827   4.133
58294W        W30609  30.909  33.885   0.538
58295W        W30610  33.603  15.425  11.189
58296W        W30611  21.109   4.744  11.970
58297W        W30612  26.533  32.681   2.915
58298W        W30613  33.898   1.684  12.407
58299W        W30614  27.205  23.561   3.380
58300W        W30615  18.110  15.891   0.637
58301W        W30616  23.312  14.144   0.375
58302W        W30617  31.192  21.920  14.924
58303W        W30618  43.346   0.917   3.584
58304W        W30619  35.306  25.889  14.404
58305W        W30620   7.930  44.381  13.700
58306W        W30621  13.776  30.411  13.261
58307W        W30622  40.439   7.354   4.914
58308W        W30623   6.250  40.906  12.831
58309W        W30624  31.966  10.444  11.900
58310W        W30625  32.503   7.283   0.507
58311W        W30626  25.109   8.010   2.120
58312W        W30627  17.816  13.761  14.592
58313W        W30628   7.927  31.892  13.398
58314W        W30629  37.444  22.457   1.195
58315W        W30630   3.463  24.382   2.133
58316W        W30631  20.616  17.169   2.161
58317W        W30632   9.903  34.856  14.497
58318W        W30633  30.930  35.435  11.409
58319W        W30634  27.462  28.874  14.006
58320W        W30635  14.974   5.824  14.042
58321W        W30636   8.316  34.402   1.411
58322W        W30637  10.184  11.563  12.494
58323W        W30638  42.347   8.745  12.925
58324W        W30639  40.366  38.591  13.790
58325W        W30640  21.009  26.570   4.373
58326W        W30641  42.406   4.794  14.973
58327W        W30642  38.491  28.679   0.441
58328W        W30643  42.234  42.640   0.375
58329W        W30644  37.084  15.159   1.886
58330W        W30645  28.213  31.185   4.848
58331W        W30646  29.492   8.654   1.447
58332W        W30647  30.089  20.443  14.523
58333W        W30648  31.125   9.139   3.920
58334W        W30649  28.341  40.950  13.543
58335W        W30650  23.053  38.244  12.376
58336W        W30651   5.109   7.572  12.147
58337W        W30652  41.353  23.996  11.953
58338W        W30653  19.946  26.127  12.250
58339W        W30654   7.366   8.739  14.497
58340W        W30655   3.835   3.658  14.779
58341W        W30656  14.633  19.306  10.221
58342W        W30657  23.573  31.995   3.901
58343W        W30658   8.940  26.458   0.504
58344W        W30659  18.654  30.375  14.360
58345W        W30660  38.321  29.742   1.251
58346W        W30661  17.749  25.823  10.692
58347W        W30662  30.151   3.371  13.104
58348W        W30663  20.720  34.600   2.930
58349W        W30664   3.341  27.191  13.518
58350W        W30665  25.907   3.615   5.034
58351W        W30666  13.799  12.133   3.308
58352W        W30667   5.669  20.248  13.861
58353W        W30668  42.835  22.513   0.648
58354W        W30669  10.825   4.329   0.372
58355W        W30670  21.669  19.890  10.781
58356W        W30671   1.244  43.995   4.650
58357W        W30672   8.630  28.097   1.483
58358W        W30673  15.604  36.722   3.626
58359W        W30674  23.478  26.575   0.724
58360W        W30675   4.517   0.171   1.715
58361W        W30676  43.841  18.144  14.493
58362W        W30677  17.131  33.821  13.388
58363W        W30678  12.208  35.569  14.733
58364W        W30679  13.367   2.762  14.522
58365W        W30680  27.516  25.284  13.929
58366W        W30681  40.623  26.694  10.588
58367W        W30682  37.980  20.727   3.800
58368W        W30683  36.859  12.068  12.939
58369W        W30684   6.977   7.109   1.296
58370W        W30685  15.812   4.743   0.422
58371W        W30686   0.083   2.618  12.424
58372W        W30687  26.656   6.406  13.280
58373W        W30688  35.103  20.223   1.378
58374W        W30689   9.882  39.637   5.060
58375W        W30690  12.211   9.241   0.319
58376W        W30691  18.296  23.282  11.977
58377W        W30692  37.296  26.592  13.284
58378W        W30693  33.010  15.110   2.393
58379W        W30694  40.868  26.178  13.887
58380W        W30695  25.163   4.905   0.473
58381W        W30696  17.725  27.774  10.506
58382W        W30697  39.361  25.438  12.008
58383W        W30698  36.390  33.950   1.409
58384W        W30699  23.028  22.155  14.423
58385W        W30700   2.037  40.132  13.794
58386W        W30701  23.201  26.574   2.619
58387W        W30702  19.830  18.655  14.689
58388W        W30703  23.669  22.103  13.377
58389W        W30704  43.560  20.207  12.971
58390W        W30705  22.705   1.473   3.165
58391W        W30706  20.045  12.894   1.642
58392W        W30707   8.739  27.670   1.766
58393W        W30708  15.070  35.988  12.189
58394W        W30709  23.005  19.544  12.743
58395W        W30710   5.050  43.590  14.843
58396W        W30711  24.263  19.271   9.756
58397W        W30712   3.926   7.611   1.684
58398W        W30713  16.653  33.538   4.411
58399W        W30714   2.689  10.708   3.353
58400W        W30715  30.218  40.823   4.389
58401W        W30716   5.443  41.878  13.050
58402W        W30717  32.003  42.479   2.142
58403W        W30718  24.564   5.855   1.479
58404W        W30719  28.727  12.193  14.684
58405W        W30720  38.597  28.191  11.073
58406W        W30721  20.673  20.120   1.457
58407W        W30722  39.803  30.544  11.838
58408W        W30723  24.925   6.361  13.779
58409W        W30724  42.257  40.402  13.058
58410W        W30725  34.427  43.094  13.420
58411W        W30726  18.911  38.766   3.287
58412W        W30727  34.856  18.552  12.555
58413W        W30728  28.073  24.067   0.763
58414W        W30729  44.933  40.018   0.542
58415W        W30730   0.950   5.895   1.716
58416W        W30731  14.291  43.073  14.872
58417W        W30732  34.621  34.361  14.592
58418W        W30733  44.467  25.191   3.077
58419W        W30734  12.332  30.019  13.773
58420W        W30735  14.268  44.091  11.288
58421W        W30736   7.859  19.771  13.900
58422W        W30737  16.045  10.359   1.528
58423W        W30738   3.437   7.178   0.185
58424W        W30739   4.974  29.427   2.037
58425W        W30740  39.496  18.636  11.062
58426W        W30741  28.873  37.309   3.319
58427W        W30742   5.417  24.110   0.888
58428W        W30743   8.116  10.635  11.215
58429W        W30744  27.485  15.196  12.480
58430W        W30745  36.818  34.917  13.863
58431W        W30746  39.791   3.257   4.095
58432W        W30747  30.461  44.996  12.002
58433W        W30748  39.818  16.844   4.151
58434W        W30749   3.218  33.894  14.477
58435W        W30750  38.906   0.770  14.105
58436W        W30751  14.707   7.188   3.105
58437W        W30752  18.337  12.764   0.526
58438W        W30753  37.321  35.060  13.847
58439W        W30754  23.802  27.396   3.894
58440W        W30755  17.261   6.384   2.151
58441W        W30756  13.619  40.544  10.614
58442W        W30757  14.628   4.037   3.664
58443W        W30758  37.943  15.727   0.021
58444W        W30759  20.744  32.383  14.189
58445W        W30760  25.943  35.508   0.770
58446W        W30761   2.028  28.933  11.215
58447W        W30762  37.367  18.115  14.881
58448W        W30763   0.960  25.606   4.432
58449W        W30764   7.749   5.459   2.147
58450W        W30765  39.182  13.756   2.649
58451W        W30766  31.204  41.006   0.187
58452W        W30767  33.842  42.292  11.590
58453W        W30768  40.002   3.040  14.387
58454W        W30769  27.330  21.230   0.365
58455W        W30770  29.466  34.423  11.581
58456W        W30771  41.210  21.347  11.621
58457W        W30772  20.937  28.646   0.783
58458W        W30773  17.483  12.462   5.366
58459W        W30774  42.144  44.408  10.220
58460W        W30775   2.744  26.656  13.085
58461W        W30776   0.211  21.096   2.830
58462W        W30777  10.590  36.888   2.324
58463W        W30778  30.443  18.386  11.213
58464W        W30779  37.572  24.108   1.614
58465W        W30780  10.630  12.286   0.664
58466W        W30781   4.856  26.606   3.160
58467W        W30782  25.730  27.946   3.348
58468W        W30783  10.879   8.945   1.423
58469W        W30784  16.140  38.112  11.449
58470W        W30785  38.404  32.132   0.830
58471W        W30786  33.863  17.336   3.131
58472W        W30787  10.280  21.539   0.940
58473W        W30788  32.100   2.010  11.681
58474W        W30789  42.349  13.339  11.578
58475W        W30790  20.163  37.236   4.999
58476W        W30791  38.907   7.960   3.885
58477W        W30792  42.530  29.359   4.147
58478W        W30793  28.481  23.009   0.789
58479W        W30794  33.612  41.456  14.441
58480W        W30795  41.190  16.149   4.021
58481W        W30796  39.305  16.512   1.039
58482W        W30797  12.551   7.120  14.987
58483W        W30798   1.945  38.042   4.605
58484W        W30799  17.537  23.153   4.530
58485W        W30800   9.356  41.547  13.075
58486W        W30801  32.673   1.956   1.769
58487W        W30802  28.753  24.399   1.200
58488W        W30803  15.256   4.380   4.367
58489W        W30804  33.919  40.523  12.342
58490W        W30805  33.223  32.962   2.256
58491W        W30806  42.666  38.318  12.922
58492W        W30807  11.404  36.981   3.123
58493W        W30808  23.643  40.867  10.807
58494W        W30809  37.495  24.527   4.390
58495W        W30810  35.580   0.010  11.263
58496W        W30811  26.626  41.036   0.458
58497W        W30812  29.955  31.972  12.788
58498W        W30813  41.571  26.530  13.009
58499W        W30814  39.391  12.164   3.718
58500W        W30815  19.112  42.372   2.791
58501W        W30816   4.738  32.570   3.258
58502W        W30817  20.941  10.380  12.569
58503W        W30818  22.605  23.701   1.335
58504W        W30819  23.190  25.698   3.576
58505W        W30820  40.053  27.438  13.077
58506W        W30821  31.168  27.312   0.155
58507W        W30822   2.941  28.217   2.643
58508W        W30823  18.739  18.031  12.462
58509W        W30824   9.244  17.182   1.717
58510W        W30825   8.859  21.287  12.981
58511W        W30826  41.979  14.532  13.820
58512W        W30827   5.728   6.454  12.582
58513W        W30828  34.860  23.741  14.849
58514W        W30829  17.744  12.623  13.914
58515W        W30830   0.389   4.531  10.987
58516W        W30831  13.754  29.092  14.248
58517W        W30832  14.383   5.817  11.829
58518W        W30833  22.541  20.116   4.680
58519W        W30834  36.938  41.044   1.403
58520W        W30835  32.471  38.079   0.409
58521W        W30836  16.042  43.454   1.652
58522W        W30837   7.277  33.624  13.559
58523W        W30838  19.383  17.229   4.165
58524W        W30839  23.276  27.539   1.653
58525W        W30840   3.263  16.781   0.556
58526W        W30841  21.515  21.297   5.380
58527W        W30842  22.012   8.308  11.057
58528W        W30843   8.197  13.390  11.443
58529W        W30844  33.757  37.465  10.274
58530W        W30845  28.061  38.290  10.706
58531W        W30846  39.601  13.400  11.952
58532W        W30847  25.972  23.538   4.023
58533W        W30848   5.907  29.282  11.480
58534W        W30849  20.188  17.582  13.333
58535W        W30850   8.361  37.651   5.076
58536W        W30851  23.134  23.614   1.366
58537W        W30852  12.244  27.081   1.084
58538W        W30853   9.291   0.701  14.043
58539W        W30854   1.229  26.982   2.605
58540W        W30855   2.440  13.342  14.826
58541W        W30856  12.556  35.774  10.518
58542W        W30857   1.514   9.863  11.186
58543W        W30858  39.721  40.407  12.437
58544W        W30859   2.589   3.467  11.158
58545W        W30860  34.074  18.260  14.614
58546W        W30861  34.089  19.576   2.838
58547W        W30862  40.729   4.796   1.891
58548W        W30863  41.431  26.269   0.479
58549W        W30864  13.188   0.030   3.684
58550W        W30865   2.022  43.484   3.082
58551W        W30866  34.578  39.999  12.866
58552W        W30867  43.875  42.853   1.697
58553W        W30868  44.466  35.129  12.969
58554W        W30869  27.159  32.110  11.062
58555W        W30870   4.953  14.694   0.230
58556W        W30871  14.299   4.784  13.571
58557W        W30872   7.314  17.473  14.952
58558W        W30873  31.464  32.506   3.061
58559W        W30874  28.996  37.966  14.055
58560W        W30875  25.426   3.838   0.247
58561W        W30876  19.590   1.398   3.372
58562W        W30877  19.938  17.174   4.682
58563W        W30878   9.383  42.342   4.057
58564W        W30879   9.141  24.649   0.754
58565W        W30880  39.171  15.939   0.265
58566W        W30881  12.251  15.275  12.133
58567W        W30882  23.259   7.894  12.594
58568W        W30883  29.012  11.204   1.192
58569W        W30884   4.337  18.768   2.326
58570W        W30885   9.658  30.405  12.029
58571W        W30886  39.578  35.629   3.713
58572W        W30887   8.295  33.490  14.579
58573W        W30888   8.076  23.464  12.790
58574W        W30889  31.902   1.264   1.824
58575W        W30890  13.575  29.851  11.072
58576W        W30891  33.040  35.645   5.019
58577W        W30892  25.890  12.314   0.431
58578W        W30893  26.587  20.572   0.335
58579W        W30894  44.507  12.428   9.812
58580W        W30895  42.677   1.732  11.909
58581W        W30896  44.567   8.630   2.768
58582W        W30897   1.389  10.677   5.043
58583W        W30898  16.842  31.365   3.814
58584W        W30899  17.831   6.242   4.521
58585W        W30900  11.329  31.823  11.288
58586W        W30901  21.741  19.981  11.377
58587W        W30902  12.903  29.563   1.154
58588W        W30903  13.242  10.954  13.374
58589W        W30904  26.534   0.238   0.423
58590W        W30905  11.526  17.349  14.922
58591W        W30906  13.819  39.560   3.817
58592W        W30907  25.512  22.403   1.931
58593W        W30908  24.646  23.940   0.398
58594W        W30909  13.950  37.086  11.173
58595W        W30910   9.221  42.368  11.250
58596W        W30911  35.615   2.732  12.533
58597W        W30912  28.669  14.216  11.596
58598W        W30913  22.769  28.120   3.487
58599W        W30914   2.071   9.338   1.515
58600W        W30915  24.703   1.552   3.357
58601W        W30916   4.827  36.209   5.054
58602W        W30917  36.557  27.537  13.265
58603W        W30918  27.198   4.275  11.818
58604W        W30919  30.112  37.391   2.251
58605W        W30920  38.892   3.440  12.709
58606W        W30921  39.532  33.130  14.777
58607W        W30922  12.441  15.263  13.012
58608W        W30923   9.268   8.087   0.424
58609W        W30924  14.360  29.590  14.326
58610W        W30925  20.333  22.742  13.816
58611W        W30926   9.692  13.568  13.342
58612W        W30927  38.293  18.089   0.721
58613W        W30928  15.270  15.349   2.291
58614W        W30929  34.516  24.702   4.528
58615W        W30930  41.682  29.440   1.960
58616W        W30931  10.757  14.903   3.372
58617W        W30932  44.806  24.767   2.946
58618W        W30933  17.669  33.803  11.971
58619W        W30934   5.013  27.841  12.397
58620W        W30935   8.482   6.885  13.058
58621W        W30936   1.459  39.445  12.279
58622W        W30937   4.722  22.273   1.858
58623W        W30938  32.535  24.505  13.570
58624W        W30939   8.941   5.231   4.064
58625W        W30940  39.098  16.811  11.094
58626W        W30941  34.518  14.301   0.809
58627W        W30942  16.334  15.150   4.658
58628W        W30943   7.708  38.057   0.441
58629W        W30944  27.069  36.011  12.117
58630W        W30945   0.375  18.580   4.627
58631W        W30946  35.683  10.696   3.300
58632W        W30947  12.431  22.476  13.520
58633W        W30948  31.348  27.803   1.324
58634W        W30949  20.560  33.475   3.544
58635W        W30950   7.652  41.440  14.393
58636W        W30951  30.084   3.696   2.184
58637W        W30952  13.726  36.311  12.380
58638W        W30953  24.252  22.507  11.930
58639W        W30954  20.025  24.760  13.923
58640W        W30955  25.028  29.688   3.626
58641W        W30956  39.709  35.596   0.900
58642W        W30957  24.173  40.301   1.256
58643W        W30958   7.781   4.486  13.512
58644W        W30959  35.535   0.605   3.344
58645W        W30960  26.502  27.964   1.743
58646W        W30961  35.804  38.872  14.371
58647W        W30962   6.034  26.372  12.545
58648W        W30963   8.756  32.659  12.031
58649W        W30964  34.494  38.087   0.620
58650W        W30965   9.743   8.418   3.278
58651W        W30966  44.005  38.337  13.574
58652W        W30967  31.061  41.140  10.369
58653W        W30968  42.005   4.256  12.061
58654W        W30969  38.340   1.738  12.882
58655W        W30970  32.942   2.511   0.591
58656W        W30971   9.376  24.535   3.105
58657W        W30972   1.567   6.719   3.911
58658W        W30973  11.841  33.024   0.855
58659W        W30974  31.058  34.162   1.489
58660W        W30975   5.738  20.045   0.806
58661W        W30976  18.028  13.577  11.111
58662W        W30977  21.534  33.369  14.540
58663W        W30978  15.857  34.089   0.964
58664W        W30979  41.973  32.035  14.844
58665W        W30980  44.214  25.124   4.431
58666W        W30981  30.117  40.278   4.172
58667W        W30982  13.855  31.024   4.396
58668W        W30983  12.162  25.201   4.140
58669W        W30984  23.973  13.815   3.621
58670W        W30985  39.570  41.771   3.178
58671W        W30986   0.380  11.316   0.752
58672W        W30987  12.597  40.158  11.517
58673W        W30988  14.744  19.469   4.426
58674W        W30989  36.085   5.222  12.400
58675W        W30990  32.981   7.151   4.520
58676W        W30991  19.744  31.941   0.058
58677W        W30992  42.929   5.855   0.733
58678W        W30993  28.216  26.169  12.909
58679W        W30994  19.513  37.532  12.452
58680W        W30995  18.764  21.109  12.123
58681W        W30996  33.027  37.062  12.021
58682W        W30997  23.658   8.707  10.309
58683W        W30998  23.572  34.383   0.862
58684W        W30999  20.771  18.717   2.256
58685W        W31000  17.291   4.272  10.681
58686W        W31001  13.810  44.548  10.786
58687W        W31002  17.173  42.976   0.410
58688W        W31003  13.531  11.811   1.011
58689W        W31004  29.576  40.862  13.371
58690W        W31005  31.088   5.215  13.976
58691W        W31006  39.831  37.531  13.228
58692W        W31007  18.191  26.898  11.415
58693W        W31008   8.487  40.931   3.252
58694W        W31009  38.331  24.457   3.205
58695W        W31010  38.915   2.810  13.599
58696W        W31011  21.081  10.584   0.919
58697W        W31012  13.357   4.989   2.295
58698W        W31013  16.784  45.000   3.362
58699W        W31014  17.190  15.709   1.811
58700W        W31015   4.840  32.104  14.309
58701W        W31016  33.885   4.334  11.075
58702W        W31017  32.163  12.024   2.312
58703W        W31018  15.852  42.983   0.809
58704W        W31019   4.922  16.771   0.398
58705W        W31020  10.740   6.849   1.116
58706W        W31021  17.939  37.083   1.345
58707W        W31022  11.252  35.035  13.598
58708W        W31023  41.069   4.839   0.048
58709W        W31024  13.650  16.195   1.149
58710W        W31025  41.945  43.006  10.346
58711W        W31026   5.945  36.629   0.892
58712W        W31027  30.541  33.142  11.976
58713W        W31028  12.360  39.052  14.041
58714W        W31029  33.353   6.292  11.613
58715W        W31030  42.079  10.293   2.938
58716W        W31031  36.169   4.368   0.648
58717W        W31032  43.040  11.640   0.859
58718W        W31033  26.553  42.648   4.968
58719W        W31034   7.839  27.799   1.242
58720W        W31035  22.495  31.230   4.660
58721W        W31036  27.892  29.373   1.874
58722W        W31037  10.692  31.860   2.714
58723W        W31038   3.363   7.234  10.784
58724W        W31039  17.417  13.849   4.145
58725W        W31040   2.905  22.416   2.560
58726W        W31041   4.891  17.724   0.907
58727W        W31042  10.140  29.398   4.200
58728W        W31043  29.597  42.338  13.008
58729W        W31044  34.294  17.530   3.606
58730W        W31045  19.801  34.890  12.459
58731W        W31046   1.834  43.334  13.109
58732W        W31047   4.343   9.910  10.929
58733W        W31048   0.280  33.094   5.078
58734W        W31049  18.633  15.625  12.630
58735W        W31050  39.989   4.521   2.506
58736W        W31051  18.674  14.881   3.623
58737W        W31052  12.530  34.155   3.245
58738W        W31053  17.135   9.765   1.688
58739W        W31054  30.754  33.599   0.052
58740W        W31055  38.086   7.209   0.269
58741W        W31056  12.564  38.439  11.217
58742W        W31057  28.777   2.969   4.771
58743W        W31058  43.229  27.487  13.520
58744W        W31059  42.454  32.000   0.078
58745W        W31060  37.357  11.366  11.097
58746W        W31061   4.843  21.468   4.487
58747W        W31062   4.313  21.159   3.088
58748W        W31063  32.517  42.386   4.379
58749W        W31064   1.880   2.647  13.323
58750W        W31065  40.908  41.536   2.912
58751W        W31066   1.389   7.230   3.888
58752W        W31067  42.805  29.865   1.251
58753W        W31068  14.860  35.211  11.128
58754W        W31069  29.149  37.895   0.568
58755W        W31070  23.240   7.023  12.870
58756W        W31071  32.353  23.072  11.197
58757W        W31072  14.173  39.586   1.362
58758W        W31073  18.122  34.938  14.848
58759W        W31074  13.320  28.966  13.971
58760W        W31075  11.195  13.832   1.824
58761W        W31076  28.972  34.213  11.003
58762W        W31077   3.856   6.354  13.437
58763W        W31078  42.575   2.485   1.821
58764W        W31079  44.819  21.762   3.041
58765W        W31080  14.510  20.441   2.934
58766W        W31081  15.041  16.818   3.276
58767W        W31082  36.795  35.789   1.286
58768W        W31083  25.572  37.921  11.380
58769W        W31084  15.390  41.300   0.047
58770W        W31085  37.472  37.016   0.691
58771W        W31086  21.248  22.235  10.075
58772W        W31087  23.090  36.480  14.370
58773W        W31088  12.024  26.446   3.173
58774W        W31089  40.862  40.504  12.572
58775W        W31090  28.223  10.359   2.327
58776W        W31091   0.850  22.816  14.817
58777W        W31092   4.486   6.771   1.824
58778W        W31093  23.698  34.855  10.712
58779W        W31094  17.784   4.419   0.197
58780W        W31095  18.738  29.777  10.683
58781W        W31096  32.284  28.517  13.853
58782W        W31097  14.630  30.425  10.706
58783W        W31098  25.225  42.874   0.829
58784W        W31099  39.541  16.010  10.972
58785W        W31100   2.521   6.779  12.790
58786W        W31101  22.572   1.468  13.543
58787W        W31102   0.528   8.426  11.468
58788W        W31103  31.901  18.684   3.296
58789W        W31104  19.570   8.195   0.421
58790W        W31105   6.902  44.231   3.410
58791W        W31106  38.526  37.817  13.801
58792W        W31107  38.808  13.191  14.940
58793W        W31108  44.215   8.844  10.602
58794W        W31109  38.656   2.608   2.431
58795W        W31110  19.407  36.279  12.890
58796W        W31111  41.264  10.086  13.819
58797W        W31112   9.301  17.240  11.739
58798W        W31113  22.211  16.815   2.308
58799W        W31114  44.787  37.963  12.100
58800W        W31115  31.599  18.386   0.325
58801W        W31116   7.465  26.332  12.053
58802W        W31117  26.229  34.999  12.875
58803W        W31118   0.779   7.909   2.287
58804W        W31119  35.766  12.750  11.569
58805W        W31120  43.306  11.268   4.579
58806W        W31121  25.650  10.809  11.097
58807W        W31122  28.758  16.135  11.870
58808W        W31123  28.191   7.758  13.843
58809W        W31124  42.501   2.827  12.915
58810W        W31125  44.949   7.076  13.511
58811W        W31126  34.182  35.510  13.031
58812W        W31127  33.444  39.557   0.712
58813W        W31128  28.369  20.787  11.935
58814W        W31129  19.728  33.351   3.642
58815W        W31130  21.015  15.226  11.224
58816W        W31131  22.065  35.988   3.695
58817W        W31132  10.906  20.028  12.315
58818W        W31133  14.251  16.249   3.310
58819W        W31134  37.551  42.379  11.087
58820W        W31135   3.202  12.418  13.352
58821W        W31136   5.987  18.183   0.218
58822W        W31137  24.200  38.966   1.829
58823W        W31138  39.987   5.640   4.057
58824W        W31139  24.720  29.965   1.020
58825W        W31140  17.266  34.280   2.718
58826W        W31141  20.237  32.277   1.070
58827W        W31142  18.964   7.207  11.384
58828W        W31143  32.913  19.656  12.533
58829W        W31144  39.512   9.574   2.232
58830W        W31145  34.337   1.255   3.220
58831W        W31146  10.681  37.123  11.097
58832W        W31147  41.568  17.579   2.850
58833W        W31148   5.410  13.569   1.757
58834W        W31149   7.449  11.643  11.458
58835W        W31150  22.495   1.344   1.690
58836W        W31151  44.578  25.932  12.546
58837W        W31152  41.184  34.465  11.042
58838W        W31153  40.307  20.674  12.901
58839W        W31154  12.618  11.630   3.021
58840W        W31155  13.577   0.654  12.641
58841W        W31156  10.672   5.129  12.505
58842W        W31157   8.847  27.179   5.296
58843W        W31158  10.199  25.289   0.857
58844W        W31159  36.333   5.814   2.185
58845W        W31160  33.713  18.848  12.018
58846W        W31161  43.977  42.896   4.620
58847W        W31162  24.016  13.005   4.471
58848W        W31163  27.412  11.402   2.284
58849W        W31164  38.265  25.012  10.683
58850W        W31165  38.518  21.119  12.523
58851W        W31166  11.728  19.771   3.590
58852W        W31167  15.435   9.671   3.074
58853W        W31168  31.887  27.501  13.907
58854W        W31169  23.261  22.680  10.621
58855W        W31170  38.450   1.031   3.392
58856W        W31171  28.732  44.945  13.546
58857W        W31172  22.439  17.546  12.008
58858W        W31173   9.374  42.073   1.224
58859W        W31174   2.694  31.015   1.504
58860W        W31175  24.807  42.877   3.126
58861W        W31176   1.464  37.046  10.722
58862W        W31177  16.996  24.055   9.933
58863W        W31178  33.592  23.514   1.077
58864W        W31179  39.917  11.222   1.783
58865W        W31180  35.350  24.956  12.795
58866W        W31181   1.961   2.477   3.250
58867W        W31182  13.861  44.808   4.179
58868W        W31183   9.101  24.527   4.665
58869W        W31184   6.953  40.897  11.075
58870W        W31185  35.475  22.638   4.807
58871W        W31186  36.061  21.969   0.271
58872W        W31187  43.850  23.949   1.673
58873W        W31188  13.885  43.954   0.426
58874W        W31189  13.402  27.215   2.159
58875W        W31190  27.237  19.576  14.336
58876W        W31191  11.839  20.877  13.125
58877W        W31192   0.003  23.770  11.047
58878W        W31193   4.166   8.258   4.117
58879W        W31194  12.181  34.433   1.037
58880W        W31195  10.941   3.378   2.344
58881W        W31196  37.479   9.444  13.514
58882W        W31197  15.411  42.135   0.196
58883W        W31198  33.067  21.741  11.077
58884W        W31199   5.662  38.114  13.446
58885W        W31200  36.062  27.427  12.929
58886W        W31201  12.647  18.437  11.176
58887W        W31202   7.628  42.511   2.582
58888W        W31203   3.380  21.419  13.317
58889W        W31204  25.512  22.543  10.612
58890W        W31205  23.488  11.429   4.115
58891W        W31206  26.952   3.501   3.297
58892W        W31207  14.352   9.149   0.830
58893W        W31208  12.393  17.898   2.034
58894W        W31209  17.599  18.330  13.401
58895W        W31210  27.860  10.472   1.072
58896W        W31211  11.158  36.930   0.214
58897W        W31212   8.885  31.555   0.101
58898W        W31213  42.755  10.842  14.452
58899W        W31214  22.487  11.943  10.357
58900W        W31215  44.963  26.420   0.338
58901W        W31216  28.644   1.544   0.851
58902W        W31217  35.849  20.650   0.252
58903W        W31218   8.951  10.238   2.174
58904W        W31219  16.987  28.980  10.864
58905W        W31220  22.878   3.238  11.069
58906W        W31221   3.260  14.135   5.172
58907W        W31222  26.481   4.956  11.592
58908W        W31223   0.010  22.441  14.956
58909W        W31224  23.573  14.083  13.514
58910W        W31225  34.948  21.465  11.568
58911W        W31226  27.219   5.926  11.827
58912W        W31227  22.479   5.934   0.453
58913W        W31228  34.593  34.540  11.237
58914W        W31229  14.591  27.461  14.520
58915W        W31230  32.134  15.542  10.148
58916W        W31231  37.068  12.540  12.865
58917W        W31232  40.712  29.986  12.955
58918W        W31233  39.479  41.186   0.015
58919W        W31234  23.185  12.966   2.349
58920W        W31235  11.919   8.637   3.624
58921W        W31236  33.935  16.272   3.156
58922W        W31237  42.859   5.817  10.770
58923W        W31238  35.047   3.707   0.349
58924W        W31239  42.469  24.668  10.596
58925W        W31240  30.031  28.223  13.431
58926W        W31241   9.132   2.948  11.390
58927W        W31242  14.738  12.753   1.628
58928W        W31243   7.204  20.920  10.252
58929W        W31244  40.566  35.100   1.773
58930W        W31245  17.498  21.771   1.011
58931W        W31246  10.826  11.947   2.246
58932W        W31247  11.129  39.226   3.325
58933W        W31248  32.433  30.619   1.299
58934W        W31249  37.917   5.262   1.023
58935W        W31250  34.032  19.612  11.593
58936W        W31251  35.658  12.916  14.283
58937W        W31252  20.775  44.362  14.150
58938W        W31253  32.671  35.956   0.839
58939W        W31254   4.866  33.459   3.125
58940W        W31255  11.156  31.652   2.391
58941W        W31256  33.407   6.580  12.031
58942W        W31257  33.131  39.908   2.116
58943W        W31258  20.101  28.707   2.385
58944W        W31259  44.778  38.392  13.059
58945W        W31260  26.992   0.732  11.946
58946W        W31261   4.381  18.712  11.652
58947W        W31262  19.949  14.710   1.501
58948W        W31263   7.169   0.621  11.157
58949W        W31264  36.023   5.947   0.494
58950W        W31265  44.855  18.140  10.449
58951W        W31266  12.252  29.089   1.933
58952W        W31267  13.266   4.261   3.889
58953W        W31268   3.528  13.787   1.756
58954W        W31269   4.965  40.419   0.662
58955W        W31270  38.913  36.820   3.019
58956W        W31271  40.031  29.744  14.789
58957W        W31272  25.384  21.773   1.400
58958W        W31273  41.487  42.795   0.840
58959W        W31274   8.085  42.952  11.649
58960W        W31275   2.348  15.105   3.981
58961W        W31276  42.308   7.087  10.938
58962W        W31277   4.008  17.284   1.704
58963W        W31278   0.494   7.446  12.497
58964W        W31279  39.026  40.390  11.392
58965W        W31280  39.395  36.056  12.393
58966W        W31281  10.683  36.886  13.361
58967W        W31282   0.472  35.013  12.621
58968W        W31283  42.083  27.719   1.615
58969W        W31284  18.771  36.618  11.864
58970W        W31285  10.193  38.925   4.976
58971W        W31286  28.079  36.530   4.600
58972W        W31287  17.068  32.184   2.183
58973W        W31288   6.848  31.045  11.261
58974W        W31289  28.166  43.419   1.349
58975W        W31290  12.202   3.442  11.956
58976W        W31291   7.944  22.172  13.015
58977W        W31292  28.006  18.163   0.197
58978W        W31293  17.610  15.826  12.027
58979W        W31294  41.769  39.103  14.879
58980W        W31295  36.508  32.127  13.927
58981W        W31296  35.583  38.794  13.846
58982W        W31297   8.085  16.994   1.681
58983W        W31298  18.078  35.038  10.729
58984W        W31299  40.343  44.971  13.416
58985W        W31300  35.571  44.517  14.379
58986W        W31301  24.980   1.481  14.807
58987W        W31302  29.372  17.277  14.030
58988W        W31303  41.346   7.422   0.449
58989W        W31304  11.646  23.761  14.497
58990W        W31305  25.241  44.955   1.815
58991W        W31306   0.286  41.522  11.944
58992W        W31307  38.250  15.621   0.441
58993W        W31308  34.847   2.753  11.222
58994W        W31309  33.126   0.678  12.329
58995W        W31310  43.452  42.269  11.037
58996W        W31311  21.331  33.049   4.123
58997W        W31312  39.794  27.527   1.681
58998W        W31313  19.552   8.434  10.298
58999W        W31314  37.138  27.525  14.970
59000W        W31315  42.473   5.724   4.639
59001W        W31316   9.095  24.101   2.829
59002W        W31317  43.749  11.608   1.863
59003W        W31318  39.594   5.663   0.565
59004W        W31319   6.692  19.073  13.363
59005W        W31320  41.663  38.554  11.518
59006W        W31321  27.239  38.828  14.407
59007W        W31322   1.114  39.553  11.053
59008W        W31323  43.513  43.088   4.484
59009W        W31324  37.024  17.118   2.398
59010W        W31325  21.210  22.672   0.846
59011W        W31326  16.835  19.517   2.830
59012W        W31327  20.173  20.665   4.926
59013W        W31328   0.185   6.157   0.146
59014W        W31329  25.052  36.477  11.943
59015W        W31330  16.959  41.409   1.006
59016W        W31331  20.520  33.596   1.543
59017W        W31332  32.320  24.250   2.815
59018W        W31333  32.777  36.884  12.436
59019W        W31334   5.438  24.553  14.313
59020W        W31335  19.052  32.681  12.751
59021W        W31336   7.315  21.075  12.041
59022W        W31337  12.950  38.145  13.906
59023W        W31338  24.242  35.071   1.754
59024W        W31339  11.237   9.630  12.163
59025W        W31340   4.397   4.218  10.856
59026W        W31341  14.212  44.231  13.260
59027W        W31342  12.961  19.556  13.893
59028W        W31343  41.714   5.121   0.737
59029W        W31344   7.892  27.636  10.859
59030W        W31345  22.536  23.213   3.760
59031W        W31346  43.789  33.104  13.920
59032W        W31347   2.587  11.340  13.877
59033W        W31348   1.521   4.450   2.430
59034W        W31349  29.677  21.555  11.158
59035W        W31350   8.830  24.109  11.096
59036W        W31351  34.898  14.495  10.786
59037W        W31352   2.806  23.606  10.673
59038W        W31353   8.678  22.961  12.479
59039W        W31354   8.066  10.339  14.897
59040W        W31355  33.008  21.481  12.534
59041W        W31356  26.765  11.602  12.649
59042W        W31357  11.555   0.579   1.730
59043W        W31358   6.137   6.701  12.119
59044W        W31359   5.692  13.825  13.299
59045W        W31360  39.281  15.610  11.217
59046W        W31361  22.573  30.949  10.710
59047W        W31362  33.877  26.047  11.460
59048W        W31363   3.788  34.664   1.729
59049W        W31364  10.852  12.960   3.203
59050W        W31365  31.708  42.526  12.102
59051W        W31366  26.667  34.793   3.280
59052W        W31367  15.010   7.774   4.443
59053W        W31368  27.019   0.009   0.363
59054W        W31369  39.907  15.115  10.688
59055W        W31370  10.348  20.575  11.887
59056W        W31371   7.843  40.527   1.898
59057W        W31372  11.270  21.953  10.485
59058W        W31373  14.588  28.532   3.294
59059W        W31374  40.016  31.674  13.278
59060W        W31375  31.971  10.668  11.436
59061W        W31376   4.273  19.760   3.767
59062W        W31377  29.989   4.512  11.898
59063W        W31378  21.640  25.312  12.208
59064W        W31379  20.201  15.301  12.635
59065W        W31380  22.766  20.988  11.054
59066W        W31381  21.981  22.254  11.072
59067W        W31382   8.302   2.495   4.188
59068W        W31383  25.527  18.550  13.983
59069W        W31384   5.250  33.441  12.941
59070W        W31385  41.093  32.008   0.819
59071W        W31386  17.693  14.860  11.097
59072W        W31387  16.668  34.032   0.515
59073W        W31388  36.916  35.326  11.131
59074W        W31389   2.998  28.062   1.229
59075W        W31390  18.239   3.897   3.783
59076W        W31391  36.953   8.602   4.405
59077W        W31392  12.452  13.795  11.517
59078W        W31393   0.924  24.433   4.655
59079W        W31394  10.356  34.991  13.583
59080W        W31395  33.455   1.304   2.778
59081W        W31396  36.850   2.508   1.802
59082W        W31397  14.536  23.196   1.735
59083W        W31398  20.534  17.177  12.979
59084W        W31399   7.638  11.345  14.726
59085W        W31400  28.474  42.769  12.449
59086W        W31401  24.916  18.551  12.109
59087W        W31402   8.802  15.331  14.890
59088W        W31403   3.992  26.888   4.490
59089W        W31404   2.036   3.939   4.194
59090W        W31405  35.875  26.088  13.338
59091W        W31406  35.024  42.437  13.947
59092W        W31407  21.270  16.266  13.436
59093W        W31408  13.909  33.008   1.250
59094W        W31409  30.343  41.447  11.437
59095W        W31410  22.737   7.726  13.422
59096W        W31411  19.549  31.940  13.564
59097W        W31412  33.680  20.775   0.388
59098W        W31413  39.740   4.381  10.643
59099W        W31414  28.627  23.337  13.415
59100W        W31415  32.165  33.748  13.452
59101W        W31416  32.242  40.179   3.805
59102W        W31417  27.436  15.099   3.617
59103W        W31418  43.004  22.192   4.375
59104W        W31419  36.055  38.837  11.029
59105W        W31420  42.092  16.110   3.199
59106W        W31421  11.733  12.175  14.899
59107W        W31422  11.495  31.979  12.022
59108W        W31423   0.416  21.501  12.059
59109W        W31424  17.732  13.352  12.112
59110W        W31425   0.380  24.887  14.312
59111W        W31426  33.213  19.726  12.081
59112W        W31427   8.289  15.536  12.918
59113W        W31428  18.561  13.008   4.102
59114W        W31429  17.350   9.337  14.458
59115W        W31430  39.403  21.074   3.229
59116W        W31431  13.546  13.480   0.297
59117W        W31432  13.084  17.732   4.094
59118W        W31433  21.372  16.055  13.889
59119W        W31434  21.789  12.675   1.135
59120W        W31435  21.503  22.204  10.922
59121W        W31436  36.582  15.409   1.869
59122W        W31437  40.917  20.355   1.249
59123W        W31438  31.577  12.110   3.612
59124W        W31439  44.392  28.992  10.125
59125W        W31440   9.835  41.378   1.263
59126W        W31441   4.930   8.326  10.692
59127W        W31442   0.689  38.122  10.699
59128W        W31443  33.590   5.753   3.717
59129W        W31444  21.074   1.922   4.708
59130W        W31445  11.835   6.693   2.088
59131W        W31446  22.369  44.060  10.848
59132W        W31447  22.652  29.657   5.061
59133W        W31448  12.848  25.489   2.848
59134W        W31449  24.460  12.124  12.509
59135W        W31450  27.933  23.200   5.036
59136W        W31451  43.535  17.081   3.925
59137W        W31452  13.280  16.703  13.223
59138W        W31453  30.879   7.156   3.151
59139W        W31454  23.757  14.110  13.029
59140W        W31455  27.238  35.146  10.357
59141W        W31456  25.744  35.902  10.792
59142W        W31457  31.178   0.799  12.219
59143W        W31458  39.530  38.595  13.335
59144W        W31459   2.908   1.061  14.788
59145W        W31460  14.388   9.299  14.494
59146W        W31461  20.593  32.071  11.638
59147W        W31462   1.040  39.032   1.685
59148W        W31463   5.757  25.896  13.912
59149W        W31464  38.539   5.183  13.014
59150W        W31465  24.546  26.577   0.352
59151W        W31466  31.450  13.042  12.412
59152W        W31467  43.078  40.828  13.127
59153W        W31468   4.383  15.685   2.336
59154W        W31469  14.536  18.536   3.860
59155W        W31470  19.104  18.351   2.636
59156W        W31471  32.949  14.936  12.606
59157W        W31472  43.841  28.203   3.434
59158W        W31473  21.490  13.355  11.161
59159W        W31474   8.729  16.962   2.856
59160W        W31475   1.166  16.993  12.479
59161W        W31476  37.819   0.491   4.035
59162W        W31477  30.359  43.312  13.265
59163W        W31478  15.236   2.472   0.672
59164W        W31479  20.564  34.666  14.696
59165W        W31480  12.644   3.296  12.174
59166W        W31481  22.227  22.564  13.475
59167W        W31482  31.201   6.950  11.915
59168W        W31483  14.471  19.596  13.969
59169W        W31484  35.296  18.651  12.321
59170W        W31485  16.986  39.482   1.807
59171W        W31486   8.757   7.387  10.770
59172W        W31487  42.804  43.443  14.794
59173W        W31488  33.610  43.511   0.911
59174W        W31489  23.499  24.476  12.979
59175W        W31490   4.708  41.542   3.685
59176W        W31491  42.222  33.155   4.235
59177W        W31492  24.396  41.047   3.185
59178W        W31493  12.038  37.284   2.273
59179W        W31494  13.196  33.331   2.343
59180W        W31495  32.530  17.706  13.830
59181W        W31496   9.444   1.880  14.948
59182W        W31497  11.796  25.469  13.180
59183W        W31498  10.484   8.045   4.982
59184W        W31499  31.582   7.207  11.220
59185W        W31500  24.969  37.424   4.537
59186W        W31501   4.878  15.690  12.083
59187W        W31502  34.939   4.330  11.878
59188W        W31503  20.553  28.940  10.975
59189W        W31504  29.219  36.825  12.611
59190W        W31505  10.061  41.334  10.549
59191W        W31506  41.321  44.727   0.409
59192W        W31507  13.559  40.521  14.004
59193W        W31508  18.827  43.183  10.817
59194W        W31509  40.981   4.415  13.538
59195W        W31510  29.059  16.592   0.341
59196W        W31511  25.164   3.268   2.894
59197W        W31512  15.047  29.596   3.155
59198W        W31513  44.545  22.490   1.015
59199W        W31514  23.643  18.001  11.839
59200W        W31515   2.497  17.852   2.185
59201W        W31516  40.025   5.866   0.795
59202W        W31517  17.955  39.731  12.481
59203W        W31518  18.414   4.088   1.720
59204W        W31519  33.145  44.825  11.325
59205W        W31520   1.925  32.677   2.806
59206W        W31521  15.429  26.071  12.906
59207W        W31522  14.638  15.736  13.975
59208W        W31523  32.758  21.637   3.413
59209W        W31524  38.065  23.702  13.535
59210W        W31525  20.439  39.070  12.047
59211W        W31526  33.987  16.235  14.956
59212W        W31527  17.035  10.699   2.681
59213W        W31528  17.159  18.609  10.665
59214W        W31529  40.037  33.861   0.874
59215W        W31530  41.009  44.602  14.649
59216W        W31531  42.232  26.046  11.000
59217W        W31532  28.090  41.385   2.700
59218W        W31533  13.314  24.473  12.983
59219W        W31534  33.798   9.399   0.314
59220W        W31535  31.095  31.537  11.253
59221W        W31536  38.454  33.097  13.004
59222W        W31537  20.260   0.291   3.523
59223W        W31538  13.199  32.216  14.146
59224W        W31539   4.907  33.478   0.041
59225W        W31540   2.021  12.166  14.910
59226W        W31541  28.643  31.424  11.135
59227W        W31542  39.469   8.162  10.880
59228W        W31543  25.389  24.640   4.466
59229W        W31544   7.542  26.569  10.247
59230W        W31545   6.406  12.896  14.857
59231W        W31546   6.013  34.303  11.207
59232W        W31547  16.632  10.162   0.754
59233W        W31548  31.281  16.564   3.684
59234W        W31549  37.768   8.689  10.647
59235W        W31550  16.341  38.520  12.450
59236W        W31551   7.484  22.269   0.207
59237W        W31552  37.411  36.115  14.502
59238W        W31553  27.479  43.402  11.011
59239W        W31554  29.600  30.431   4.327
59240W        W31555  19.481   4.858   1.515
59241W        W31556  27.460  34.449  13.453
59242W        W31557   7.598  34.522  14.287
59243W        W31558  16.523  20.523  11.492
59244W        W31559  41.976   0.512   3.651
59245W        W31560  10.432   6.312  14.085
59246W        W31561   9.091  41.724   0.202
59247W        W31562   9.433  43.505  14.980
59248W        W31563  37.630  20.224   4.316
59249W        W31564   2.306   7.817  12.217
59250W        W31565   2.902   3.420  14.972
59251W        W31566  10.175  33.386  11.269
59252W        W31567   9.808   8.670   1.933
59253W        W31568   0.724  22.524   5.028
59254W        W31569   6.179  29.862  11.584
59255W        W31570  31.559   0.945  12.866
59256W        W31571  37.308  15.227  11.655
59257W        W31572   4.971  33.163   4.118
59258W        W31573  28.392  44.836   4.764
59259W        W31574  23.741  29.098   4.569
59260W        W31575  29.437   7.739   0.415
59261W        W31576  21.191  23.258   0.311
59262W        W31577  31.132   3.670   0.317
59263W        W31578   8.425  30.637   2.261
59264W        W31579  39.969  28.562   1.958
59265W        W31580  11.949  13.779  11.558
59266W        W31581  36.322  24.666  14.974
59267W        W31582  19.524  31.035   2.697
59268W        W31583   0.931  24.195   2.477
59269W        W31584   4.228  35.413   3.255
59270W        W31585   1.308   3.934   4.541
59271W        W31586  29.050   1.648   1.203
59272W        W31587  13.946  15.300  11.972
59273W        W31588  12.875  18.029  14.222
59274W        W31589   4.682  23.507  13.877
59275W        W31590  12.966  35.616  13.429
59276W        W31591  30.063  15.541   4.978
59277W        W31592  18.720  39.133   4.593
59278W        W31593  44.981  36.547   1.664
59279W        W31594  23.521   2.947   1.447
59280W        W31595  18.191  26.598  10.987
59281W        W31596  42.359  42.748  12.533
59282W        W31597  34.662  37.938   2.089
59283W        W31598  25.291  39.933  12.630
59284W        W31599  19.335   9.081  11.582
59285W        W31600  43.987  14.003  12.862
59286W        W31601  30.874  15.699  10.664
59287W        W31602  44.424   4.511   3.771
59288W        W31603  23.828  42.459  14.080
59289W        W31604  21.180  20.548  14.850
59290W        W31605  23.579  12.833   3.213
59291W        W31606  19.437  15.287   0.963
59292W        W31607   2.425   7.094  11.144
59293W        W31608  14.339  14.286   0.747
59294W        W31609   9.677  20.166   2.203
59295W        W31610   0.797  12.573   4.553
59296W        W31611  28.097  15.073   2.307
59297W        W31612   8.769   1.699  11.165
59298W        W31613  38.387  26.055   5.490
59299W        W31614  20.217   3.388  12.132
59300W        W31615  27.475   1.315  13.030
59301W        W31616  26.300  43.758   1.957
59302W        W31617  22.154   6.394   3.741
59303W        W31618  24.597  42.991  14.224
59304W        W31619  41.488  14.529   2.389
59305W        W31620  12.359   0.425  14.759
59306W        W31621  37.514   6.327  11.638
59307W        W31622   2.460  16.069   2.315
59308W        W31623   4.472  28.523   1.694
59309W        W31624   3.332  26.812   4.870
59310W        W31625  31.202  44.246   2.313
59311W        W31626   2.360  29.654   1.979
59312W        W31627   2.510  34.044   3.674
59313W        W31628  32.616  26.403  12.022
59314W        W31629  24.442  17.345   4.851
59315W        W31630  18.039  10.427   2.701
59316W        W31631   4.955   2.332   1.614
59317W        W31632  25.271  24.096  14.035
59318W        W31633  33.327  13.826  14.699
59319W        W31634  39.882  29.239  14.874
59320W        W31635   3.571  24.468  14.241
59321W        W31636  28.621  24.777  14.710
59322W        W31637  20.009  31.557   0.363
59323W        W31638  30.353  16.788  11.699
59324W        W31639  34.102  22.043  13.240
59325W        W31640   7.311   4.519  12.390
59326W        W31641  35.283   0.809  13.954
59327W        W31642  17.723  28.000   2.791
59328W        W31643  21.290  38.051   0.453
59329W        W31644  35.407  33.489  10.275
59330W        W31645  42.480  26.954   3.211
59331W        W31646  29.871  38.429  11.613
59332W        W31647  22.503  32.459   4.659
59333W        W31648   6.345  22.527   1.252
59334W        W31649   7.936  19.075   2.858
59335W        W31650   0.053  12.254   5.526
59336W        W31651  15.791   3.472  13.109
59337W        W31652   2.443   3.970  11.147
59338W        W31653  21.310   9.751   2.202
59339W        W31654  22.891  42.967   1.685
59340W        W31655  32.049  21.483   1.681
59341W        W31656   9.193  43.403   0.828
59342W        W31657  24.191  13.588   0.922
59343W        W31658  29.169  31.741  11.131
59344W        W31659  21.742  26.172  12.382
59345W        W31660  37.709  19.268   0.727
59346W        W31661   0.783  29.128   1.981
59347W        W31662  21.835   9.411   3.200
59348W        W31663   0.328   0.130  10.432
59349W        W31664  37.379  11.230  12.162
59350W        W31665  16.673   3.927   3.159
59351W        W31666  40.044  20.200  11.220
59352W        W31667  37.699  15.318   4.203
59353W        W31668  38.249  21.653   1.371
59354W        W31669  36.762  43.564  13.608
59355W        W31670  29.551  35.908   5.094
59356W        W31671  36.825   4.953   2.782
59357W        W31672  43.306  26.109  14.844
59358W        W31673  31.182  37.734   5.163
59359W        W31674   4.708  39.651  12.567
59360W        W31675  19.306  23.456   4.910
59361W        W31676  31.171  11.405   1.280
59362W        W31677  30.708  36.711  10.982
59363W        W31678  38.587  10.624  12.874
59364W        W31679  42.763  25.425   3.327
59365W        W31680  22.663   1.422   1.199
59366W        W31681  37.469  13.721  12.496
59367W        W31682  37.318   3.527  11.646
59368W        W31683   8.265  23.766   3.080
59369W        W31684  32.487  23.581   3.237
59370W        W31685   6.185  22.447  14.316
59371W        W31686  16.210   7.694  14.454
59372W        W31687  21.684  29.785   4.192
59373W        W31688  32.596  36.473  12.727
59374W        W31689  44.858  33.988  13.527
59375W        W31690  18.627  20.068  10.611
59376W        W31691  12.756   7.189  14.510
59377W        W31692  42.633   8.831   2.261
59378W        W31693   5.107  29.385   3.727
59379W        W31694  13.776  20.298  12.152
59380W        W31695  19.976  44.686  12.408
59381W        W31696   0.293   1.318  12.561
59382W        W31697  25.730  29.320   2.627
59383W        W31698  19.827   8.057   3.618
59384W        W31699   6.873  40.509  13.858
59385W        W31700  14.271  15.079  13.404
59386W        W31701   2.343  25.724  13.191
59387W        W31702  11.482   0.325   2.189
59388W        W31703   8.836  28.569   1.258
59389W        W31704  30.108   0.573  12.985
59390W        W31705  14.477  20.898   2.650
59391W        W31706  23.242   8.769  11.672
59392W        W31707  26.235   9.787  11.086
59393W        W31708  31.839  22.614   0.891
59394W        W31709  32.625  34.956  13.288
59395W        W31710   5.924  14.606  12.825
59396W        W31711  13.686  19.738   4.739
59397W        W31712   5.377  27.454   1.968
59398W        W31713  26.475   8.160  13.556
59399W        W31714  15.707  39.190   5.102
59400W        W31715  34.770  13.786  11.260
59401W        W31716   6.158  11.229   3.162
59402W        W31717  34.784  10.066   4.081
59403W        W31718  38.551  16.851  11.517
59404W        W31719  41.492   9.416  10.815
59405W        W31720  40.396  27.601   3.837
59406W        W31721  41.915   7.938   0.485
59407W        W31722   5.345   2.225   4.231
59408W        W31723  20.164   8.925  10.373
59409W        W31724  12.719   6.257  10.760
59410W        W31725  42.276  30.151  11.164
59411W        W31726  37.458  16.734   4.601
59412W        W31727  39.427  24.090  12.555
59413W        W31728   9.226  33.975   1.703
59414W        W31729  13.208  24.159  10.470
59415W        W31730  34.030  14.795   1.668
59416W        W31731  28.134  43.892   4.650
59417W        W31732  31.981  21.016  12.546
59418W        W31733   3.393  18.077   2.694
59419W        W31734   1.699  23.447  10.770
59420W        W31735   7.668  37.512   0.476
59421W        W31736  42.292  10.132  14.807
59422W        W31737  17.213  29.596   2.391
59423W        W31738  29.232   4.781   0.432
59424W        W31739  23.066  37.907   0.741
59425W        W31740   4.312  29.190  10.529
59426W        W31741  28.617   6.642   5.742
59427W        W31742  39.858  25.912   5.479
59428W        W31743  35.052  34.621  14.403
59429W        W31744  27.669  13.898   0.961
59430W        W31745  13.609   6.406   1.297
59431W        W31746  33.018   0.234   3.346
59432W        W31747  14.364  14.116  11.557
59433W        W31748  11.288  15.919  11.925
59434W        W31749   5.524  25.317  11.643
59435W        W31750   3.259  38.179  12.552
59436W        W31751   1.971  38.049   3.149
59437W        W31752  34.033  30.117   1.236
59438W        W31753  17.786  42.736  13.955
59439W        W31754   2.890  25.778  13.989
59440W        W31755  33.092  17.356  12.016
59441W        W31756  30.077  15.004  11.875
59442W        W31757  26.584   0.845  13.105
59443W        W31758  18.100  16.064  10.771
59444W        W31759   8.659   0.426  14.478
59445W        W31760   4.074  12.869  13.862
59446W        W31761  30.129  40.861   3.292
59447W        W31762  36.374  38.901  12.181
59448W        W31763  37.948   2.383  13.812
59449W        W31764  28.967  14.063   0.439
59450W        W31765  13.645  22.168  11.183
59451W        W31766  33.988  39.935  14.126
59452W        W31767  26.943  34.334   3.195
59453W        W31768  22.528  22.354   0.174
59454W        W31769  22.639  35.443  10.730
59455W        W31770   9.158  27.898  14.885
59456W        W31771   6.672   9.734  13.866
59457W        W31772  18.239  29.507  10.751
59458W        W31773   7.791  29.005   0.958
59459W        W31774  27.456  44.207   0.457
59460W        W31775  37.458   9.348  14.469
59461W        W31776  41.838  25.949  14.171
59462W        W31777  23.261  19.027   4.637
59463W        W31778  41.813   9.872   3.736
59464W        W31779  43.794  32.850  10.324
59465W        W31780  36.084  13.454   4.883
59466W        W31781  35.448  24.106  11.519
59467W        W31782  41.364  23.715   1.051
59468W        W31783  22.482  21.578  12.786
59469W        W31784  28.585  27.339   3.308
59470W        W31785  15.638  18.640  14.590
59471W        W31786  30.478  39.661  14.454
59472W        W31787  20.129  34.851  14.890
59473W        W31788  14.780  29.123  14.068
59474W        W31789  25.731   1.967   5.029
59475W        W31790   6.589  27.360  13.409
59476W        W31791  32.820   7.740  10.832
59477W        W31792  36.642  37.602   0.622
59478W        W31793  30.730  21.189  13.846
59479W        W31794  21.289  42.783   0.766
59480W        W31795  36.094  18.376  14.835
59481W        W31796   7.312  14.916  14.895
59482W        W31797  42.521  28.053  14.418
59483W        W31798  24.650   6.961   2.715
59484W        W31799  34.932   6.223  13.359
59485W        W31800  23.899   3.944  14.459
59486W        W31801   3.372  18.312   4.829
59487W        W31802  25.204  25.939   2.485
59488W        W31803  10.676  33.188  11.147
59489W        W31804  33.936  26.839  12.608
59490W        W31805   1.943  10.451   0.776
59491W        W31806   9.099   6.289  11.969
59492W        W31807   6.328  31.069  12.949
59493W        W31808   0.875  31.216  11.819
59494W        W31809   5.121  34.893  14.805
59495W        W31810  25.153  22.878  12.996
59496W        W31811  34.446  10.334   4.828
59497W        W31812   8.295  24.037   1.412
59498W        W31813  11.199   7.823   0.973
59499W        W31814  24.068  19.435  13.860
59500W        W31815   1.386  11.869   1.721
59501W        W31816   4.842  16.640   1.951
59502W        W31817  13.372  18.820  14.231
59503W        W31818  32.147  41.408   1.228
59504W        W31819  24.059  21.602  13.467
59505W        W31820  36.318  32.907  11.516
59506W        W31821   8.279  13.769  10.353
59507W        W31822  15.818  37.090   0.313
59508W        W31823  15.537  11.893   2.403
59509W        W31824  30.981  26.447  12.596
59510W        W31825  13.309  41.230   0.232
59511W        W31826  41.316   7.846   1.794
59512W        W31827  25.774  17.304  12.883
59513W        W31828   4.317   8.125  11.925
59514W        W31829  41.783  40.875   0.278
59515W        W31830  39.120   8.393  12.928
59516W        W31831   2.057  13.032  14.953
59517W        W31832  25.731   3.273   2.803
59518W        W31833  32.957  25.516  14.997
59519W        W31834   1.246  27.555   2.428
59520W        W31835  30.955   8.559   2.195
59521W        W31836  37.500  20.250  11.721
59522W        W31837  10.504  34.659   4.879
59523W        W31838  16.558  17.087  11.642
59524W        W31839  33.901  37.903  10.007
59525W        W31840  43.392  21.770  13.342
59526W        W31841  36.742  10.892  11.575
59527W        W31842  26.555   6.821  13.002
59528W        W31843  36.471  14.931  13.853
59529W        W31844  29.602  20.077  13.463
59530W        W31845  25.437  40.994  11.595
59531W        W31846   9.224  13.510   3.730
59532W        W31847  25.528  29.601  12.992
59533W        W31848  32.922  24.586   3.158
59534W        W31849   4.137   2.625   4.271
59535W        W31850  33.921  37.622  11.755
59536W        W31851  27.025  14.769   0.960
59537W        W31852  34.242  35.357   4.409
59538W        W31853  13.061  26.840  14.233
59539W        W31854   8.755   0.742   4.299
59540W        W31855  42.649  11.597   3.537
59541W        W31856  11.878  16.087   3.853
59542W        W31857   4.745  38.480   4.348
59543W        W31858   6.796  22.040  10.780
59544W        W31859   5.184  11.035  10.759
59545W        W31860  16.864  25.630  10.988
59546W        W31861   5.892   7.082  11.853
59547W        W31862   0.950  13.852  14.227
59548W        W31863  35.707   0.871   4.229
59549W        W31864  42.053  18.550  12.094
59550W        W31865   8.046  11.795   1.826
59551W        W31866  25.886  25.663   0.781
59552W        W31867  38.914  22.107   1.932
59553W        W31868  39.885  27.651   2.941
59554W        W31869   2.694  13.042  13.068
59555W        W31870  33.491  32.122  14.886
59556W        W31871  15.532  17.577   3.757
59557W        W31872  16.149  23.551  10.579
59558W        W31873  28.910  22.450   4.484
59559W        W31874  24.122  11.170   0.901
59560W        W31875  30.372  31.928   3.696
59561W        W31876  40.469  37.862  14.811
59562W        W31877  25.730   2.285   3.767
59563W        W31878   4.704  42.369  12.920
59564W        W31879   2.434  39.856  14.836
59565W        W31880  22.535   5.918   3.369
59566W        W31881  31.010   4.662   4.167
59567W        W31882  44.465  40.974   0.471
59568W        W31883  43.240  34.087  11.972
59569W        W31884   0.665   1.007  10.265
59570W        W31885   8.668   1.470   3.232
59571W        W31886  19.771  28.900  13.380
59572W        W31887  35.387  37.686   0.773
59573W        W31888  10.333  27.040  13.630
59574W        W31889  25.118  22.850  10.376
59575W        W31890  10.332  13.632   3.652
59576W        W31891  21.650  12.330  10.966
59577W        W31892  20.485  11.418   5.418
59578W        W31893  23.490   7.971   0.299
59579W        W31894   6.979  40.599   4.469
59580W        W31895  24.976  36.971   3.868
59581W        W31896  17.657  20.124  10.597
59582W        W31897  28.872   9.437   1.745
59583W        W31898  21.712  20.190   3.341
59584W        W31899  39.478  10.927  14.031
59585W        W31900  23.254  10.693  12.944
59586W        W31901   6.652  29.119  12.940
59587W        W31902  30.879   0.927  11.331
59588W        W31903   7.735  27.363   4.574
59589W        W31904   8.292  21.103  12.128
59590W        W31905  37.176   1.039   3.883
59591W        W31906  37.054  40.013  10.491
59592W        W31907  17.081  28.022   1.754
59593W        W31908  26.742   0.102  13.527
59594W        W31909  29.307   6.414  13.869
59595W        W31910  31.393  32.128   3.885
59596W        W31911  43.136  44.220   0.118
59597W        W31912  19.750  23.615  10.517
59598W        W31913  39.928  38.307   4.298
59599W        W31914  18.616  42.723  10.913
59600W        W31915  26.656  42.336   1.244
59601W        W31916  33.089  18.122   0.663
59602W        W31917  33.266  39.374   2.226
59603W        W31918  22.611  28.386  14.825
59604W        W31919  36.043  38.023  10.836
59605W        W31920   3.796   2.433   2.296
59606W        W31921  43.007  16.211   1.948
59607W        W31922  25.254  18.767   0.721
59608W        W31923  24.901   2.129   5.075
59609W        W31924  25.411  33.351  12.401
59610W        W31925  25.765  33.990   2.431
59611W        W31926  21.261  26.461  14.918
59612W        W31927  12.200  11.862   2.226
59613W        W31928  39.894  30.269  14.298
59614W        W31929  38.370  26.370   1.765
59615W        W31930  21.206   5.767   0.991
59616W        W31931  12.610  43.713  13.307
59617W        W31932  21.687   6.898   4.145
59618W        W31933   6.373   6.243  12.127
59619W        W31934   3.410  24.411   3.763
59620W        W31935   2.809  21.832   4.129
59621W        W31936  32.459  20.311   4.956
59622W        W31937  24.465  20.773   2.699
59623W        W31938  20.550   3.543  13.329
59624W        W31939  12.223  18.452  10.855
59625W        W31940   7.039  28.904  11.142
59626W        W31941  37.084   3.941  13.483
59627W        W31942  11.379  39.055  11.473
59628W        W31943  22.648   8.189   3.926
59629W        W31944  37.423  41.838   4.752
59630W        W31945  25.890   8.458  12.945
59631W        W31946   7.796   4.593  12.552
59632W        W31947   9.423  22.895  11.964
59633W        W31948   5.256  31.583   3.803
59634W        W31949  18.015  34.948   0.808
59635W        W31950  41.825  35.871  10.805
59636W        W31951   5.116  11.211  12.053
59637W        W31952   5.221  17.443   2.481
59638W        W31953  12.203  27.953   4.168
59639W        W31954  17.706   5.070   2.278
59640W        W31955  10.569  21.478  11.968
59641W        W31956  17.413  13.997  10.165
59642W        W31957  31.621  29.214   3.785
59643W        W31958   9.870  31.574  13.452
59644W        W31959  16.577  39.894  12.917
59645W        W31960   5.436  11.342   2.238
59646W        W31961  15.837  41.729  11.111
59647W        W31962   8.131  43.538  14.019
59648W        W31963  30.703  29.468  13.098
59649W        W31964   8.184  32.882   4.628
59650W        W31965  22.010  11.240  11.661
59651W        W31966  13.111  10.371   1.330
59652W        W31967  16.011  28.553  13.473
59653W        W31968  29.864  35.081   1.225
59654W        W31969  42.385  35.004   2.168
59655W        W31970  11.741  15.264   3.175
59656W        W31971   2.707   0.006  14.755
59657W        W31972  12.846   8.435   0.417
59658W        W31973  17.224  20.992  10.735
59659W        W31974   0.309   5.894  12.421
59660W        W31975  27.979  11.921   2.838
59661W        W31976   0.688  44.266   4.021
59662W        W31977  35.907  11.075  13.984
59663W        W31978  42.995  10.646  14.853
59664W        W31979   8.435   3.783  14.442
59665W        W31980  22.602  32.290  13.764
59666W        W31981  25.583  12.054  13.459
59667W        W31982  41.903  36.659  13.453
59668W        W31983  44.972  31.551  11.186
59669W        W31984  19.067  11.818   3.670
59670W        W31985  44.711   4.810  13.576
59671W        W31986   9.640  43.994   0.019
59672W        W31987  30.183  27.155  13.439
59673W        W31988   7.078  34.692   2.949
59674W        W31989  22.778  44.757   0.969
59675W        W31990  27.437  12.826   2.250
59676W        W31991   0.568  21.988  12.026
59677W        W31992  31.616  16.628  13.125
59678W        W31993  22.405  14.421   1.790
59679W        W31994  40.414  17.088   0.436
59680W        W31995  42.632  26.040   1.348
59681W        W31996  32.052   4.650   2.876
59682W        W31997  24.462  32.588   4.636
59683W        W31998   5.214  27.615   3.716
59684W        W31999  23.323  39.006  13.075
59685W        W32000  30.851   1.473   4.132
59686W        W32001  43.401  12.333  13.790
59687W        W32002  26.502  42.950  14.000
59688W        W32003   7.982   2.071   4.185
59689W        W32004  20.148   5.245   1.730
59690W        W32005  22.752   8.142   2.920
59691W        W32006  39.029  32.440  12.881
59692W        W32007  26.559  37.669  10.009
59693W        W32008  35.391  35.037  11.150
59694W        W32009  24.350  24.717   0.039
59695W        W32010  33.639  22.230  13.142
59696W        W32011  22.496  37.413  14.715
59697W        W32012  18.385  40.337  10.672
59698W        W32013  32.919  16.471  12.417
59699W        W32014  32.022  11.454   1.810
59700W        W32015  25.468  29.026  14.088
59701W        W32016   5.111  30.581   2.435
59702W        W32017  18.017   0.868   4.665
59703W        W32018  19.313  17.342   1.764
59704W        W32019  39.511   3.481   1.827
59705W        W32020  30.065  31.021   0.415
59706W        W32021   2.977  17.344   4.250
59707W        W32022  44.841  15.360   2.132
59708W        W32023  27.137  43.694  13.943
59709W        W32024  12.321  11.222   2.899
59710W        W32025  44.285  14.509  10.750
59711W        W32026  37.982  21.106  13.907
59712W        W32027  31.429  36.437   2.681
59713W        W32028  32.943   2.807  14.409
59714W        W32029  22.803  19.386   2.893
59715W        W32030  41.866  43.344  12.069
59716W        W32031  15.706  16.639   3.940
59717W        W32032  22.716  27.301  14.675
59718W        W32033  38.044  10.638  11.854
59719W        W32034  26.533  29.551  13.663
59720W        W32035   7.267   8.203  10.537
59721W        W32036   7.181  36.044  14.806
59722W        W32037  26.891   8.158  13.876
59723W        W32038  10.078  18.183   4.946
59724W        W32039  42.424  20.437  13.394
59725W        W32040   1.461   6.709   4.801
59726W        W32041  22.640  31.509   2.165
59727W        W32042  37.063   2.194  13.823
59728W        W32043  10.098  32.056   4.095
59729W        W32044  36.572  40.276  14.874
59730W        W32045  36.177   8.204  13.047
59731W        W32046  33.990  10.836   1.439
59732W        W32047  44.829  19.574   0.233
59733W        W32048   5.797  37.143  11.926
59734W        W32049   6.276  15.201  14.840
59735W        W32050  23.033  15.739   0.855
59736W        W32051  27.677  28.136   1.726
59737W        W32052  44.814   1.984  10.736
59738W        W32053  21.932  14.782   4.287
59739W        W32054  25.528  33.379   4.866
59740W        W32055  14.623   2.463  14.918
59741W        W32056  28.620   3.927   9.794
59742W        W32057  21.064  25.674   0.396
59743W        W32058  34.649  12.985  11.470
59744W        W32059  42.781   7.821  11.362
59745W        W32060  42.028   3.854   2.165
59746W        W32061  44.019   2.324  14.901
59747W        W32062  10.213  23.194  11.409
59748W        W32063   1.132  22.836  13.511
59749W        W32064  18.609   8.613  10.335
59750W        W32065  19.244   9.367  12.969
59751W        W32066  11.614  18.967  14.446
59752W        W32067  28.128  21.786  12.388
59753W        W32068  29.255   2.385  13.418
59754W        W32069  37.879  36.316   4.108
59755W        W32070  26.490  36.281   2.024
59756W        W32071  36.915  26.420   3.793
59757W        W32072  27.699  41.112   0.304
59758W        W32073  23.363  15.110  11.718
59759W        W32074  33.093  22.632  11.953
59760W        W32075  27.668   1.875   3.556
59761W        W32076  19.506  21.594   3.238
59762W        W32077  40.735   6.225   1.557
59763W        W32078   3.015  11.841  12.471
59764W        W32079  43.518  25.213   0.458
59765W        W32080  14.527   7.164   0.893
59766W        W32081  21.089  20.197  10.585
59767W        W32082  24.241  38.093   4.521
59768W        W32083  12.436   8.353  13.727
59769W        W32084  20.743  24.421  14.951
59770W        W32085  16.813  24.337  14.442
59771W        W32086  17.240  22.430   1.782
59772W        W32087  16.607   2.875   0.396
59773W        W32088  21.288  37.310   2.256
59774W        W32089  20.869  40.466   3.524
59775W        W32090  13.778  15.150   0.751
59776W        W32091  39.014  22.828  12.336
59777W        W32092  31.611  19.748   5.041
59778W        W32093  34.308  14.069   0.389
59779W        W32094  29.785  28.247  11.156
59780W        W32095  14.656  21.348   2.382
59781W        W32096  30.605  34.934  12.079
59782W        W32097  18.021  43.978  10.746
59783W        W32098   6.931   0.949  12.973
59784W        W32099   5.174  12.025  13.187
59785W        W32100  30.065  26.747  11.190
59786W        W32101  21.136  44.407   3.672
59787W        W32102  29.649  34.862   2.577
59788W        W32103  24.133  22.010  12.025
59789W        W32104  28.842  21.973  11.719
59790W        W32105   9.152  11.809  14.123
59791W        W32106  37.066  32.859   3.665
59792W        W32107  36.283  26.420   3.191
59793W        W32108  19.444  41.725   3.545
59794W        W32109  38.396  27.648  11.217
59795W        W32110  20.208  44.178   4.794
59796W        W32111  11.265  31.814   0.538
59797W        W32112  26.811  23.566   1.818
59798W        W32113   6.899  31.006  14.174
59799W        W32114  34.398  36.342  13.379
59800W        W32115   1.323  30.510   2.891
59801W        W32116  24.228  32.549   3.825
59802W        W32117  26.160  44.045  14.695
59803W        W32118   5.229  18.691   3.770
59804W        W32119  38.874  31.854  10.216
59805W        W32120   9.383   7.025   4.841
59806W        W32121   9.662   3.437  13.096
59807W        W32122  25.209   2.758  10.687
59808W        W32123  44.952   1.010   1.891
59809W        W32124  43.435  36.335  10.394
59810W        W32125  29.881  21.508   0.925
59811W        W32126  25.969   9.691   2.643
59812W        W32127  23.046  18.351  14.577
59813W        W32128  24.726  28.828   3.702
59814W        W32129  44.281   4.640  12.775
59815W        W32130  27.743  39.121   1.894
59816W        W32131  32.511  30.466   4.845
59817W        W32132  18.774  35.055  11.127
59818W        W32133  21.090  17.675   4.128
59819W        W32134  23.498   1.232   1.979
59820W        W32135  38.864  17.625  12.399
59821W        W32136  19.428  14.711   1.556
59822W        W32137  26.683  31.360   2.120
59823W        W32138   9.817  39.289   0.016
59824W        W32139   0.979  26.775  13.476
59825W        W32140  23.030  34.455   4.582
59826W        W32141  38.413  33.355  10.665
59827W        W32142  43.008  21.166  10.923
59828W        W32143  37.578  30.502   2.928
59829W        W32144  17.045  33.650   1.381
59830W        W32145   8.379  28.042   2.447
59831W        W32146   1.445  44.020  11.497
59832W        W32147   1.458  10.603   1.100
59833W        W32148  30.019  33.367   1.023
59834W        W32149   7.747  10.667  13.060
59835W        W32150   0.689  18.198  13.926
59836W        W32151   0.924  16.119  14.963
59837W        W32152  28.563  39.693   0.767
59838W        W32153  14.114  27.917   0.759
59839W        W32154   3.481  23.089   1.621
59840W        W32155  39.338   1.822   1.365
59841W        W32156  25.044   3.827  10.740
59842W        W32157  21.930  29.549   4.577
59843W        W32158   2.184  33.690  13.408
59844W        W32159  22.523  16.603   4.536
59845W        W32160  25.119  24.736   0.403
59846W        W32161  10.485  21.515   3.603
59847W        W32162  41.039  33.616  14.432
59848W        W32163  25.244  25.533   3.170
59849W        W32164  39.397  26.989   9.832
59850W        W32165  29.997  24.164  11.158
59851W        W32166  43.005   4.344  13.856
59852W        W32167  30.601  38.539   2.192
59853W        W32168  34.932  42.517   1.847
59854W        W32169   6.611  10.692   2.017
59855W        W32170   1.795  11.349   5.332
59856W        W32171  26.256  34.592  14.190
59857W        W32172  15.339  40.932  14.654
59858W        W32173  31.624   2.818  13.229
59859W        W32174  26.931   1.928  11.488
59860W        W32175   3.399  39.490  11.079
59861W        W32176  17.039   7.132   3.203
59862W        W32177  28.523   2.646  12.469
59863W        W32178   3.707  42.783  14.070
59864W        W32179  37.934  27.066  10.630
59865W        W32180  29.031   7.265   1.442
59866W        W32181   3.938  39.396   1.195
59867W        W32182  12.040  29.530   1.034
59868W        W32183  23.618   4.514   1.843
59869W        W32184  18.260  13.732   0.868
59870W        W32185   4.027  17.459  14.887
59871W        W32186  16.317  18.213   1.439
59872W        W32187  14.594  29.088   3.969
59873W        W32188  21.714  34.297  14.926
59874W        W32189  42.244   1.272  12.170
59875W        W32190  34.439  13.724  14.749
59876W        W32191  40.748  17.286   3.435
59877W        W32192   3.279   8.410   2.272
59878W        W32193  13.138  15.446  11.103
59879W        W32194  29.905  13.001   3.655
59880W        W32195  37.016   4.675  14.081
59881W        W32196  42.337  36.732  11.443
59882W        W32197   0.680  18.157   4.506
59883W        W32198  21.075  20.198   0.199
59884W        W32199  29.921  14.069   3.403
59885W        W32200  33.313   9.177   0.254
59886W        W32201   7.598  14.106  13.351
59887W        W32202  11.272   5.929   3.577
59888W        W32203  20.086  35.874  14.407
59889W        W32204  35.924   2.730  14.749
59890W        W32205  38.042   3.887   0.291
59891W        W32206  31.340  30.082  12.107
59892W        W32207   9.371  10.134   3.905
59893W        W32208   5.798   5.815   4.781
59894W        W32209  42.831  34.208  14.878
59895W        W32210  24.106  15.873   2.690
59896W        W32211  15.200  13.541   2.047
59897W        W32212   9.760  15.338  10.947
59898W        W32213  29.119   4.554   5.445
59899W        W32214  15.681   7.763   2.158
59900W        W32215   9.407  32.463  14.365
59901W        W32216  23.169   1.252   4.471
59902W        W32217  35.058  28.498  14.471
59903W        W32218  30.539  32.657  12.683
59904W        W32219  28.724   3.816  13.868
59905W        W32220  19.714  19.699   2.826
59906W        W32221  40.932   8.703  10.679
59907W        W32222  44.420   4.092  12.007
59908W        W32223  44.346  14.102  12.477
59909W        W32224  35.869  16.678   1.768
59910W        W32225  39.769   0.471   0.058
59911W        W32226  15.757  15.230   4.013
59912W        W32227  23.516  19.018   5.372
59913W        W32228  25.414   0.797  12.566
59914W        W32229   1.968  20.652   3.854
59915W        W32230   6.927   8.433  14.508
59916W        W32231  41.395  34.269   0.081
59917W        W32232  11.372  30.144  11.940
59918W        W32233  18.777  29.251   2.747
59919W        W32234  24.705  11.559   1.758
59920W        W32235  39.313  22.085  14.511
59921W        W32236  28.567  37.271  14.970
59922W        W32237  20.318  36.424   4.207
59923W        W32238  37.460   3.265   1.783
59924W        W32239  27.222  32.677  10.918
59925W        W32240  35.869  26.487   2.348
59926W        W32241  10.764  42.956  11.701
59927W        W32242  40.004   1.467   2.738
59928W        W32243   6.198   8.903   3.799
59929W        W32244  24.532   7.111  11.629
59930W        W32245  14.340  39.343   4.554
59931W        W32246   9.340  42.592   1.253
59932W        W32247   7.111  23.698  12.116
59933W        W32248   2.334  41.992   3.748
59934W        W32249   8.367  33.213  11.557
59935W        W32250  41.648  15.924   4.618
59936W        W32251  44.324   5.909   2.400
59937W        W32252  22.179  24.481   3.239
59938W        W32253  22.239   5.338  14.232
59939W        W32254  37.038  32.185   1.643
59940W        W32255  41.529  33.899  12.880
59941W        W32256  30.930  27.004   3.921
59942W        W32257  33.188   8.043   4.203
59943W        W32258   4.929   2.678   0.084
59944W        W32259   0.316  12.357   0.814
59945W        W32260   0.305  35.738   5.389
59946W        W32261   1.008  43.763  11.397
59947W        W32262  12.870  44.207  10.598
59948W        W32263  36.835  16.841  11.127
59949W        W32264   3.871  19.110   4.387
59950W        W32265  23.592   9.335  13.776
59951W        W32266  37.403   9.865   2.881
59952W        W32267  41.924   6.201   2.270
59953W        W32268   3.323  36.843  12.913
59954W        W32269  35.418  43.361  13.778
59955W        W32270  13.401  36.517   2.849
59956W        W32271  14.646  27.240  11.138
59957W        W32272  32.127   2.464   0.516
59958W        W32273  40.520   0.949  13.581
59959W        W32274  38.257   8.887   3.175
59960W        W32275  18.093  14.877   1.398
59961W        W32276  18.257  16.497   4.002
59962W        W32277  12.163  14.491  13.946
59963W        W32278   1.616  14.528  13.899
59964W        W32279  20.714  44.069  11.441
59965W        W32280  24.942  33.418   1.588
59966W        W32281   1.875  19.516   0.272
59967W        W32282   5.132  29.413   0.857
59968W        W32283  44.444  32.896  11.597
59969W        W32284  18.048   6.393  11.951
59970W        W32285   6.648   6.754  12.023
59971W        W32286  34.542  39.999  13.757
59972W        W32287   6.303   7.105   3.426
59973W        W32288  43.284  22.136  10.264
59974W        W32289  27.932  38.560   0.447
59975W        W32290  43.539  15.502   2.114
59976W        W32291  17.090  29.570   0.283
59977W        W32292  16.195  26.886  10.485
59978W        W32293  33.475  25.777   0.784
59979W        W32294  10.823  28.209   4.170
59980W        W32295  28.918   6.206  11.987
59981W        W32296   3.201  16.160  13.331
59982W        W32297   6.964  37.761   4.310
59983W        W32298  30.691  22.175   1.650
59984W        W32299   5.295  10.608   4.207
59985W        W32300  12.069  25.600  10.751
59986W        W32301  19.242  28.086   1.611
59987W        W32302  33.767  38.486   0.919
59988W        W32303  28.678  33.387  12.028
59989W        W32304  32.883  23.520  13.898
59990W        W32305  13.142  17.292  10.680
59991W        W32306  12.134  22.970  14.733
59992W        W32307   1.990  15.347   1.812
59993W        W32308  28.127  20.374   4.702
59994W        W32309  31.485   3.291   1.707
59995W        W32310   0.233  24.498  10.689
59996W        W32311  30.749   7.155   0.269
59997W        W32312  17.872  37.841   9.908
59998W        W32313  16.173  15.622   4.512
59999W        W32314   3.424   4.927  14.846
60000W        W32315  26.460  21.251   2.786
60001W        W32316   3.686  23.402   0.325
60002W        W32317  19.023  11.690  13.317
60003W        W32318  26.212   3.929   2.273
60004W        W32319  40.578  25.127  12.787
60005W        W32320  38.004  24.719   2.688
60006W        W32321  24.427  39.848   1.169
60007W        W32322   8.900   7.304   3.651
60008W        W32323   2.760   6.721   0.617
60009W        W32324   5.923  10.802   2.917
60010W        W32325  36.956   7.373   1.755
60011W        W32326  37.335  16.119   1.869
60012W        W32327   8.980  19.275  12.957
60013W        W32328  39.387  37.567  12.943
60014W        W32329  22.521  14.420   0.015
60015W        W32330  40.902   3.700   4.630
60016W        W32331   2.710  13.854   2.306
60017W        W32332  35.509  39.978  12.386
60018W        W32333  10.702   4.771   0.134
60019W        W32334  14.644   4.418   3.319
60020W        W32335  41.216  12.218   3.327
60021W        W32336   6.801  32.093  10.240
60022W        W32337   9.472  28.953  11.249
60023W        W32338  37.451  22.329   3.452
60024W        W32339   7.247  10.834  11.111
60025W        W32340  38.998  32.059   0.007
60026W        W32341  25.031   8.404  11.403
60027W        W32342   9.696  29.403  11.984
60028W        W32343  17.009  30.608   9.904
60029W        W32344  19.561  18.783  11.594
60030W        W32345  17.974   2.054  12.119
60031W        W32346   9.430   1.308   3.736
60032W        W32347  18.546  27.253  10.754
60033W        W32348  13.339   2.798   3.525
60034W        W32349   2.090  33.010  12.856
60035W        W32350  10.757  38.796   1.290
60036W        W32351  32.452  43.782  10.662
60037W        W32352  29.776  30.555   2.339
60038W        W32353   7.809  15.212   3.192
60039W        W32354  30.376   7.244   3.230
60040W        W32355  18.592  40.239   2.200
60041W        W32356  33.166  13.207   1.606
60042W        W32357  44.462   0.267  10.755
60043W        W32358  42.614  44.814   4.125
60044W        W32359   8.394  15.180  13.751
60045W        W32360   7.200  21.614  13.951
60046W        W32361   0.511  33.336  11.858
60047W        W32362  44.778   1.231   2.341
60048W        W32363  18.896  39.242  12.558
60049W        W32364  19.877  12.333  12.831
60050W        W32365  33.395  32.640  12.979
60051W        W32366  33.999  23.181   1.092
60052W        W32367  44.962  41.023   1.796
60053W        W32368  28.061  24.966   1.721
60054W        W32369  37.927  24.517   3.601
60055W        W32370  30.484  20.429   2.772
60056W        W32371  15.110  37.456  11.721
60057W        W32372  21.250  27.120   2.711
60058W        W32373  21.982  14.200  14.282
60059W        W32374  29.546  16.486  10.761
60060W        W32375  35.084   2.310   1.199
60061W        W32376  32.605  34.855   0.253
60062W        W32377  21.591   5.732   4.820
60063W        W32378  16.837  39.974   1.838
60064W        W32379   8.851   1.388   0.204
60065W        W32380  40.873   1.753  10.573
60066W        W32381  22.175   9.309   2.797
60067W        W32382  26.968  34.015  12.377
60068W        W32383  42.866  41.426  13.856
60069W        W32384   6.151  30.633  13.837
60070W        W32385  36.899  31.235   2.726
60071W        W32386  10.481   8.565   4.943
60072W        W32387  19.340  21.420  11.219
60073W        W32388   6.269  43.387  11.172
60074W        W32389  27.363   7.347  11.413
60075W        W32390  31.165   7.199  10.555
60076W        W32391   4.484   7.556  13.624
60077W        W32392  41.626   8.866   3.751
60078W        W32393  21.002   0.294  13.400
60079W        W32394  25.218  16.022   0.440
60080W        W32395  38.841  22.565   2.152
60081W        W32396  23.545  28.091   2.269
60082W        W32397  23.009  17.658   0.366
60083W        W32398  37.707  19.585   0.274
60084W        W32399  41.389  12.210   0.044
60085W        W32400  43.057   3.368   1.893
60086W        W32401  18.822  22.259  14.003
60087W        W32402   1.610  22.555  10.738
60088W        W32403  42.947  13.076   3.662
60089W        W32404  37.297   4.873   0.740
60090W        W32405  43.774  12.399  13.442
60091W        W32406  23.278  14.249   2.085
60092W        W32407  13.690  29.701   2.891
60093W        W32408  32.605   6.519  10.995
60094W        W32409   1.755  10.620   4.562
60095W        W32410  11.250  39.710   3.319
60096W        W32411  34.049   4.297   1.448
60097W        W32412  28.123  34.082  11.440
60098W        W32413  25.102  28.587   4.364
60099W        W32414  43.382  24.750  14.250
60100W        W32415  28.529  39.771   3.862
60101W        W32416   2.094  15.970   3.106
60102W        W32417   0.283  31.806   3.563
60103W        W32418  22.091  25.558   3.172
60104W        W32419  19.199  13.192  11.161
60105W        W32420  40.280   2.309  12.304
60106W        W32421  31.885  38.052  11.203
60107W        W32422  20.483  30.698   0.687
60108W        W32423  26.788  13.695  13.852
60109W        W32424  16.144  30.043   2.354
60110W        W32425  37.738  23.607  14.874
60111W        W32426  38.011   4.890  14.737
60112W        W32427  35.576  20.349  10.699
60113W        W32428  23.977  24.161  11.619
60114W        W32429  28.229  26.026   3.673
60115W        W32430  22.936  17.490  12.019
60116W        W32431  40.809  23.530   4.651
60117W        W32432  25.151  26.641  11.070
60118W        W32433  41.157   2.186  13.425
60119W        W32434  11.459   6.056   1.840
60120W        W32435  17.344  32.025  12.765
60121W        W32436  11.277  22.342  13.904
60122W        W32437  18.168  44.932   1.868
60123W        W32438  23.529  28.495  12.069
60124W        W32439   2.840   3.976  13.495
60125W        W32440   6.705  11.096  14.787
60126W        W32441  40.439   2.836   3.175
60127W        W32442  26.475   4.281  13.679
60128W        W32443   7.820  12.666   2.706
60129W        W32444   6.385  15.444  11.774
60130W        W32445   7.651  31.067   3.263
60131W        W32446  10.597  42.639   3.377
60132W        W32447   1.990   1.958  10.764
60133W        W32448  37.155  39.315  14.409
60134W        W32449  41.901   2.702   3.744
60135W        W32450  33.916  30.554   3.119
60136W        W32451  19.089  19.910  14.296
60137W        W32452  25.729   9.902  12.818
60138W        W32453  15.207   4.705   0.388
60139W        W32454   2.977  35.287   2.003
60140W        W32455  30.629  16.791  14.270
60141W        W32456  33.129  19.103  14.421
60142W        W32457  14.569  27.615   0.838
60143W        W32458   9.222  26.509   0.931
60144W        W32459  27.907  43.546   0.885
60145W        W32460   2.905  24.270   1.426
60146W        W32461   3.825   1.113  10.358
60147W        W32462   8.600  38.395  12.671
60148W        W32463  19.810  11.543  14.598
60149W        W32464   6.515  34.563  12.037
60150W        W32465  41.958  29.034  13.910
60151W        W32466  33.431  34.133   0.955
60152W        W32467  29.210  35.979   0.945
60153W        W32468  26.845  36.460   4.860
60154W        W32469   9.904  17.665  11.632
60155W        W32470  15.542  34.984   4.614
60156W        W32471  34.464  21.797   0.261
60157W        W32472  20.785  30.270   4.144
60158W        W32473  18.070  20.922  10.622
60159W        W32474  24.953   6.875  11.491
60160W        W32475  30.494   0.225  12.925
60161W        W32476  25.658  29.933   2.022
60162W        W32477  42.311  35.109  10.655
60163W        W32478  19.696  37.649  14.760
60164W        W32479  12.557   8.281   1.797
60165W        W32480  15.037  33.124  13.514
60166W        W32481  17.838  29.635   0.034
60167W        W32482  20.357  31.951  11.214
60168W        W32483  18.165  10.813  11.627
60169W        W32484   8.128  28.870   1.814
60170W        W32485   2.858   0.183  13.841
60171W        W32486  29.871  15.681  10.699
60172W        W32487  38.556  34.045  11.157
60173W        W32488  13.321   2.619  11.399
60174W        W32489   6.189  28.867   1.853
60175W        W32490  40.468  26.974   4.093
60176W        W32491  11.750   7.651   2.744
60177W        W32492   7.339  10.555   1.313
60178W        W32493  23.325   2.300  13.107
60179W        W32494  19.226   8.144   1.783
60180W        W32495  40.013  17.331   4.186
60181W        W32496  26.977   7.170   1.768
60182W        W32497  15.752   8.501   0.383
60183W        W32498  31.663  17.271  11.561
60184W        W32499  23.747  17.200   2.801
60185W        W32500  34.499   5.685   4.541
60186W        W32501   5.472  21.592   0.862
60187W        W32502  37.098  22.698  13.424
60188W        W32503  26.109  24.600   3.858
60189W        W32504   0.614   9.754   5.103
60190W        W32505  28.509  13.373   3.135
60191W        W32506   8.704  44.116  12.410
60192W        W32507   2.264  11.628  10.070
60193W        W32508   5.991  40.529   0.007
60194W        W32509   4.211  20.172  14.941
60195W        W32510  18.658   8.190  13.224
60196W        W32511  44.866  14.861   2.015
60197W        W32512  24.210  24.452   3.589
60198W        W32513  30.233  26.467   4.062
60199W        W32514  34.015  20.458  13.035
60200W        W32515  36.673  11.646  10.824
60201W        W32516   4.217  11.230   1.854
60202W        W32517  10.153  13.860   1.828
60203W        W32518  17.944  18.636  14.327
60204W        W32519   4.911  24.614   4.634
60205W        W32520   6.390   5.337   1.278
60206W        W32521  10.393  36.032  12.507
60207W        W32522   2.733   8.386   2.248
60208W        W32523   4.696  32.568   2.252
60209W        W32524   2.165  15.729   1.214
60210W        W32525  43.809  29.891   3.711
60211W        W32526  17.639   3.662  11.382
60212W        W32527  17.588  30.870  10.425
60213W        W32528  32.521   6.909   1.819
60214W        W32529   5.296   6.243  10.416
60215W        W32530  26.606  28.218  12.535
60216W        W32531  39.241   0.243   4.124
60217W        W32532  24.228  25.744  13.897
60218W        W32533  15.106  33.056  12.943
60219W        W32534  16.707  34.015   4.196
60220W        W32535  33.950   7.303  13.819
60221W        W32536  29.718   1.712  14.439
60222W        W32537  43.711  23.458  14.224
60223W        W32538  38.732   1.395   4.588
60224W        W32539  11.646  42.297  13.825
60225W        W32540  31.450  32.577  14.472
60226W        W32541   1.928  20.904   1.698
60227W        W32542   9.713  43.896  12.967
60228W        W32543  36.226  38.290   2.466
60229W        W32544  19.019  35.693   3.727
60230W        W32545   9.107  22.808   3.827
60231W        W32546  11.156   9.564   3.177
60232W        W32547  28.393  26.157   1.480
60233W        W32548   6.306  13.359  12.571
60234W        W32549  27.952  36.875   2.790
60235W        W32550  42.719   4.377  10.757
60236W        W32551   8.939  17.057  14.301
60237W        W32552  14.334  19.529  14.929
60238W        W32553   9.087  21.446   4.248
60239W        W32554  23.666  14.559   1.918
60240W        W32555  38.965  34.477   5.047
60241W        W32556  29.533  37.708  10.919
60242W        W32557  43.665   5.432   0.780
60243W        W32558  20.175  10.915   2.713
60244W        W32559  17.726  30.761   5.566
60245W        W32560  20.051   5.885  12.788
60246W        W32561  41.765   3.948   3.122
60247W        W32562  18.569  25.573   4.059
60248W        W32563  22.147   0.480  14.385
60249W        W32564  26.080  14.838  12.542
60250W        W32565  35.466   9.930  11.159
60251W        W32566  23.502  42.950   2.408
60252W        W32567  40.399  18.170   2.386
60253W        W32568  14.716  40.945  14.042
60254W        W32569   1.766  32.077   0.646
60255W        W32570  10.825  39.161  13.059
60256W        W32571  14.032  42.857  11.440
60257W        W32572  25.975  27.037   0.307
60258W        W32573  17.195  10.354  14.462
60259W        W32574  36.891   4.910  10.644
60260W        W32575   8.977  21.001  12.540
60261W        W32576  31.594  23.525  13.357
60262W        W32577   7.949  13.744  14.503
60263W        W32578  20.201   9.682   0.751
60264W        W32579  30.637  21.055   4.652
60265W        W32580  28.321  13.844   1.184
60266W        W32581  37.617  13.218  12.644
60267W        W32582  44.861  44.393  14.879
60268W        W32583  35.728  10.549   1.268
60269W        W32584  32.930  24.109   0.386
60270W        W32585  32.413  10.299  13.550
60271W        W32586  19.847  38.103   4.626
60272W        W32587   6.756   8.569   1.216
60273W        W32588   4.520  20.126  12.543
60274W        W32589  23.970   2.079   4.164
60275W        W32590  28.469  14.565   0.750
60276W        W32591   7.740   1.061   4.957
60277W        W32592  15.076  32.148  12.966
60278W        W32593  34.023  44.255  13.592
60279W        W32594  38.669  21.040  11.119
60280W        W32595  43.506  25.281   1.812
60281W        W32596  39.940  25.712   9.698
60282W        W32597  36.057  12.723   3.404
60283W        W32598   6.373  14.743   0.030
60284W        W32599   9.631   4.787   1.879
60285W        W32600  43.890  43.039   0.396
60286W        W32601  33.467  43.468  10.600
60287W        W32602  11.424  32.587   1.731
60288W        W32603   6.341  39.626   4.802
60289W        W32604   8.146  34.156   0.982
60290W        W32605  26.348   6.248  11.893
60291W        W32606  40.722  15.572  11.679
60292W        W32607  21.289  31.076  13.431
60293W        W32608  36.509   6.902   3.182
60294W        W32609  33.589  12.663  12.095
60295W        W32610  20.210   6.745  13.962
60296W        W32611  28.577   8.440   4.308
60297W        W32612  25.858  17.187   4.631
60298W        W32613  27.481  40.481   1.941
60299W        W32614  12.815  26.975  13.805
60300W        W32615   9.370  13.051  12.923
60301W        W32616  36.116  17.435  14.801
60302W        W32617  43.726  34.725  14.835
60303W        W32618  22.121  12.674   1.794
60304W        W32619  23.421  36.173  12.683
60305W        W32620  20.215  15.354   1.308
60306W        W32621  39.674  23.012  14.162
60307W        W32622  20.208  12.561   0.733
60308W        W32623   7.295  28.134  12.445
60309W        W32624   6.818  22.117  11.717
60310W        W32625  23.299   4.961  13.894
60311W        W32626  38.047  35.574  10.712
60312W        W32627  36.848  16.099   2.382
60313W        W32628  31.530  26.968  13.946
60314W        W32629  33.964  24.618  13.123
60315W        W32630  26.985  38.150   0.351
60316W        W32631  17.676  15.728  11.524
60317W        W32632  27.001   0.533   4.084
60318W        W32633  33.267  21.674   0.814
60319W        W32634  17.997  37.728   3.241
60320W        W32635  17.245  32.609  11.512
60321W        W32636  25.079  21.785   3.112
60322W        W32637  13.588  19.818  13.058
60323W        W32638  22.223  10.965  13.536
60324W        W32639  22.574  36.960  14.965
60325W        W32640  17.302  36.514   0.478
60326W        W32641  42.973  27.387   4.823
60327W        W32642  19.399   3.457   0.781
60328W        W32643  33.500  26.542  10.940
60329W        W32644  34.612   3.367   1.764
60330W        W32645  39.591   7.408  11.542
60331W        W32646   7.800  37.883   2.885
60332W        W32647  37.258  31.408   2.334
60333W        W32648  20.213   8.447   1.786
60334W        W32649  33.395  19.824   5.154
60335W        W32650  13.762  16.359  14.812
60336W        W32651  32.411  26.914  12.002
60337W        W32652  16.600   5.826   2.359
60338W        W32653  42.530   3.885   2.914
60339W        W32654   0.105   9.781   4.987
60340W        W32655   2.186  26.672  12.401
60341W        W32656   1.393   0.002   4.334
60342W        W32657  29.860  10.951   2.256
60343W        W32658  29.744   3.680  11.102
60344W        W32659  10.257  25.095   1.323
60345W        W32660  38.368  18.134   1.227
60346W        W32661  17.111   2.407  11.786
60347W        W32662  39.231  12.287   0.372
60348W        W32663  11.451  36.917  12.381
60349W        W32664  41.622  33.632   1.442
60350W        W32665  13.572   8.204  10.665
60351W        W32666   1.184   1.751   5.124
60352W        W32667   4.745  16.469   5.052
60353W        W32668  42.508   8.271  11.528
60354W        W32669  12.757  16.053   1.334
60355W        W32670  39.433  41.010   0.487
60356W        W32671   5.415  34.659   0.283
60357W        W32672  39.362  16.406   3.758
60358W        W32673  18.849  29.454   1.818
60359W        W32674  43.401  25.551   0.047
60360W        W32675  44.402  44.792  12.936
60361W        W32676  25.286   6.323   1.240
60362W        W32677  11.401  43.536  14.946
60363W        W32678  41.863  39.232  12.986
60364W        W32679  40.822  34.506   1.820
60365W        W32680  10.150  17.988   1.269
60366W        W32681  21.174  13.410  12.469
60367W        W32682  28.468  23.702  10.932
60368W        W32683   7.619  16.058   2.710
60369W        W32684   5.192  24.108   3.134
60370W        W32685  28.456  42.440   1.362
60371W        W32686  30.239  30.414   2.530
60372W        W32687  31.065  20.673   2.413
60373W        W32688  13.196  11.419  13.632
60374W        W32689  11.305  34.864   0.583
60375W        W32690  32.611  22.666  14.039
60376W        W32691  31.904  18.172  12.060
60377W        W32692  26.136  36.360   0.255
60378W        W32693   2.703  19.634  13.333
60379W        W32694  37.683  36.595  12.200
60380W        W32695   8.869  22.084  10.866
60381W        W32696  20.385   8.360  11.475
60382W        W32697   4.873   7.946   4.603
60383W        W32698  12.671  15.321   2.943
60384W        W32699  43.996  16.554  10.665
60385W        W32700   0.524  42.629  11.140
60386W        W32701  24.705  31.693  10.674
60387W        W32702  12.296   7.438  13.334
60388W        W32703   9.705  10.161   1.163
60389W        W32704  25.013  24.507  10.361
60390W        W32705   6.432  39.149   2.023
60391W        W32706   5.042  22.700   1.769
60392W        W32707  37.468  34.515  14.951
60393W        W32708  33.406  26.356   2.878
60394W        W32709  37.855  31.654  11.003
60395W        W32710  17.416   4.251  12.954
60396W        W32711  30.137  37.319   1.245
60397W        W32712  33.410  19.424  13.458
60398W        W32713  20.535  15.368  13.047
60399W        W32714  44.946   0.440  10.617
60400W        W32715  22.713  24.472  12.489
60401W        W32716  28.117  41.578  12.483
60402W        W32717  26.126  28.265   3.386
60403W        W32718  44.550  16.646   3.300
60404W        W32719  20.609  30.029  12.152
60405W        W32720   3.694  30.093   0.023
60406W        W32721  37.324  37.978  12.087
60407W        W32722  33.797  27.494   3.394
60408W        W32723  32.203  15.648   4.633
60409W        W32724  38.958   1.030   4.291
60410W        W32725  26.100  11.088   2.786
60411W        W32726  25.610  20.793  10.962
60412W        W32727  25.522  22.631   4.605
60413W        W32728  40.336  13.832   2.083
60414W        W32729  41.459  27.402  13.966
60415W        W32730  44.334  39.757   4.276
60416W        W32731  22.152   6.081  13.005
60417W        W32732  36.400  31.837  10.353
60418W        W32733  15.776  40.211   2.321
60419W        W32734  11.564  39.803   1.411
60420W        W32735  41.921   6.805  14.123
60421W        W32736  35.457  37.421   2.590
60422W        W32737  21.897  33.634   1.910
60423W        W32738  21.594  22.991   4.764
60424W        W32739  35.521  15.742   1.859
60425W        W32740  22.941  12.144   0.533
60426W        W32741   3.566  35.189   0.815
60427W        W32742  28.449  42.817   4.262
60428W        W32743  14.991  30.857  10.753
60429W        W32744   6.587  15.599  14.859
60430W        W32745   6.404  13.311  13.888
60431W        W32746  22.631  19.452   4.086
60432W        W32747  17.084  43.912   4.362
60433W        W32748  22.528  29.941  12.598
60434W        W32749  33.875  25.542   2.408
60435W        W32750  16.766  23.617   2.707
60436W        W32751  25.256  26.630   5.011
60437W        W32752  27.360  16.595   3.529
60438W        W32753  16.181  14.789  10.653
60439W        W32754  27.913  27.946  11.606
60440W        W32755   0.717  32.947  14.913
60441W        W32756   9.316   0.012   1.330
60442W        W32757  38.048  14.171  14.533
60443W        W32758  41.948  13.205  13.012
60444W        W32759  31.432  43.816  11.460
60445W        W32760  15.675   7.549  11.481
60446W        W32761  18.344   6.193   4.361
60447W        W32762  24.102  19.737   0.930
60448W        W32763  28.490   9.448   4.162
60449W        W32764   3.827   9.744   1.230
60450W        W32765  11.290  41.120   1.296
60451W        W32766  33.582  16.315   1.838
60452W        W32767  20.131  24.884   4.441
60453W        W32768   7.952  36.787  10.293
60454W        W32769  31.073  10.891  14.034
60455W        W32770  14.265  30.410  13.943
60456W        W32771   3.787  31.191  12.891
60457W        W32772  25.094  36.559   1.967
60458W        W32773   6.265  31.505   2.701
60459W        W32774  22.765   2.919  10.670
60460W        W32775  22.707   6.956   4.275
60461W        W32776  32.831  27.614  11.562
60462W        W32777  43.469  22.045   4.694
60463W        W32778  43.232  18.597  13.946
60464W        W32779   4.278  35.819  11.104
60465W        W32780   5.226  41.983  13.526
60466W        W32781  32.508  34.030   3.170
60467W        W32782  38.444  19.892   1.233
60468W        W32783  30.046  40.629   2.822
60469W        W32784  19.495  24.748   2.685
60470W        W32785  18.482  35.463  12.553
60471W        W32786  35.216  26.985  11.638
60472W        W32787  43.923  41.926   2.665
60473W        W32788  11.854  41.427  11.218
60474W        W32789  14.238  39.259  13.896
60475W        W32790  28.478   0.221   1.247
60476W        W32791  33.406  23.051  14.718
60477W        W32792  34.914  11.919   0.322
60478W        W32793  32.067  30.402   4.527
60479W        W32794  44.768  36.541   3.191
60480W        W32795  16.585  29.500   1.711
60481W        W32796  25.137  37.628  11.354
60482W        W32797  28.286   8.083  14.605
60483W        W32798  32.449   3.248   0.412
60484W        W32799  37.040  30.029   0.774
60485W        W32800  20.084  41.334  12.071
60486W        W32801  14.211  36.386   2.357
60487W        W32802   6.070  27.033  14.812
60488W        W32803  14.234  31.130  13.110
60489W        W32804  33.759  11.484  12.852
60490W        W32805  31.174  26.205   3.360
60491W        W32806  35.884  22.113   2.908
60492W        W32807  24.454  15.717   3.161
60493W        W32808   4.656  40.746  12.003
60494W        W32809  41.263  17.610  13.308
60495W        W32810   5.517  26.227   1.679
60496W        W32811   2.715  31.653  10.919
60497W        W32812   4.517  20.940   1.315
60498W        W32813  11.560  35.854   0.345
60499W        W32814   3.276  40.585  12.158
60500W        W32815  20.373  34.726  11.451
60501W        W32816  21.508  15.975   0.829
60502W        W32817   9.220   0.829   3.661
60503W        W32818  29.537  15.852   2.179
60504W        W32819  28.559   2.860  14.341
60505W        W32820   4.835  23.693   0.810
60506W        W32821  14.537   0.998  14.917
60507W        W32822  33.926  37.451   2.666
60508W        W32823  13.586   0.792  13.172
60509W        W32824  43.713  24.521  11.258
60510W        W32825  32.987   3.029  13.491
60511W        W32826   9.184  21.096   0.191
60512W        W32827  34.891  24.009  10.420
60513W        W32828  20.242  27.094  12.069
60514W        W32829  39.582   2.241   4.302
60515W        W32830  42.777  41.458   0.921
60516W        W32831  26.935  41.254  14.269
60517W        W32832   4.311  27.082  11.406
60518W        W32833  35.107  15.310   3.223
60519W        W32834  34.658  37.998  14.091
60520W        W32835  44.628  32.396  13.036
60521W        W32836  31.057  43.244  10.207
60522W        W32837  13.658  19.236   4.630
60523W        W32838   5.504   2.671  13.088
60524W        W32839  15.311  13.739  11.879
60525W        W32840  12.863  29.348  12.281
60526W        W32841  16.863  23.849  14.251
60527W        W32842  22.104  21.350  14.953
60528W        W32843  32.551   3.447  14.935
60529W        W32844  16.116  39.400   0.393
60530W        W32845   8.407   2.226   0.191
60531W        W32846  40.064  11.314  10.755
60532W        W32847  18.608  36.813  10.693
60533W        W32848   7.208  23.202  11.226
60534W        W32849  15.458   6.397  12.233
60535W        W32850  35.589  36.728  11.113
60536W        W32851  13.080   5.837   0.712
60537W        W32852  37.301   3.732   1.899
60538W        W32853  19.629  32.419  13.404
60539W        W32854  17.489  35.793   2.644
60540W        W32855   7.008  27.401   1.822
60541W        W32856   7.710   9.576  12.176
60542W        W32857  13.318  13.552  13.039
60543W        W32858  44.087  21.631   9.819
60544W        W32859   9.432  38.448  14.946
60545W        W32860  37.066   6.637  12.524
60546W        W32861  22.275  38.486  14.444
60547W        W32862  15.112  15.838   2.326
60548W        W32863   5.186  21.498  12.549
60549W        W32864   3.914  35.857  10.724
60550W        W32865   1.679  16.297  12.288
60551W        W32866   2.854  39.074   1.750
60552W        W32867  17.548  42.224  14.734
60553W        W32868  35.641   1.999  13.163
60554W        W32869  23.025   7.656   2.842
60555W        W32870  20.061   5.948   2.216
60556W        W32871  34.361  20.231   3.329
60557W        W32872  39.740   2.292  11.125
60558W        W32873   5.108  37.256   3.301
60559W        W32874  17.309  43.833   1.900
60560W        W32875   9.815  29.604  12.431
60561W        W32876  39.063  22.722   4.050
60562W        W32877   7.651   6.215  11.801
60563W        W32878   7.782  34.999  14.369
60564W        W32879   0.744  16.989  12.164
60565W        W32880  33.089  26.544   0.056
60566W        W32881  24.732  37.958   1.533
60567W        W32882  19.219   8.393  13.845
60568W        W32883  39.030  10.224   9.657
60569W        W32884  39.266  29.197  13.664
60570W        W32885  24.060  35.529   2.478
60571W        W32886  27.874  32.408  14.849
60572W        W32887   4.433  35.342   0.583
60573W        W32888   0.981  21.120  13.737
60574W        W32889   6.574   1.745   4.579
60575W        W32890   2.922  41.952  10.629
60576W        W32891  18.226  23.496   1.331
60577W        W32892   5.013   2.695  14.576
60578W        W32893  38.838  43.723  13.942
60579W        W32894   0.714   8.430   2.205
60580W        W32895   7.155  16.778   2.220
60581W        W32896  38.867  32.336  14.045
60582W        W32897  12.142  37.829  12.894
60583W        W32898  44.915   6.478   1.823
60584W        W32899  40.341  31.915   3.745
60585W        W32900  10.750  18.500   0.462
60586W        W32901  39.690  20.609   1.903
60587W        W32902   2.995  21.178  10.365
60588W        W32903  35.082  42.543  12.109
60589W        W32904   6.170  19.262  14.725
60590W        W32905  40.478  17.974   4.074
60591W        W32906   0.227  23.288   0.213
60592W        W32907  11.686  14.964   1.433
60593W        W32908  18.565  21.278   3.371
60594W        W32909   0.447  40.153  11.214
60595W        W32910  39.353   3.739   2.340
60596W        W32911  27.111  36.477  13.460
60597W        W32912  10.368   5.133   2.421
60598W        W32913  33.510  17.760   2.379
60599W        W32914   7.157  11.102  14.516
60600W        W32915  34.019  15.191   2.479
60601W        W32916  30.215  32.057   3.225
60602W        W32917   8.408  23.290   3.302
60603W        W32918  15.673  31.750  12.148
60604W        W32919  11.308  14.122   3.228
60605W        W32920   8.679   7.373   1.408
60606W        W32921  40.266  23.455   4.346
60607W        W32922  12.417  17.595  10.541
60608W        W32923  18.254  28.518   0.678
60609W        W32924  42.304  32.404  14.278
60610W        W32925  41.536  44.527  12.387
60611W        W32926  26.632  15.560  14.277
60612W        W32927  32.064  25.756   3.358
60613W        W32928   0.945  30.801  13.958
60614W        W32929  13.326  43.508   3.752
60615W        W32930   8.686   9.783   2.436
60616W        W32931   3.398  39.770  14.925
60617W        W32932   6.041   2.967   4.385
60618W        W32933  21.289  10.598  13.927
60619W        W32934  35.311   6.541  13.142
60620W        W32935  39.086  20.683  11.432
60621W        W32936  16.963  14.091   5.021
60622W        W32937  34.582   3.742   3.938
60623W        W32938  26.182  18.727  14.339
60624W        W32939  43.077  38.797   2.373
60625W        W32940  44.051   4.115  11.212
60626W        W32941   8.418  20.646   1.172
60627W        W32942   6.606  14.348  13.341
60628W        W32943  30.862  27.670   4.183
60629W        W32944  41.860  16.781  11.875
60630W        W32945  30.141  31.827  10.970
60631W        W32946   0.395  31.991  11.949
60632W        W32947  34.886  43.270   1.252
60633W        W32948  15.571  20.511  14.932
60634W        W32949  44.310   4.795   2.858
60635W        W32950  41.354  29.722  12.508
60636W        W32951  16.283   2.407   2.412
60637W        W32952  41.047  12.674  13.023
60638W        W32953  31.518  23.970  13.601
60639W        W32954  11.369   8.155   1.334
60640W        W32955  23.128   2.154   1.870
60641W        W32956  25.735   6.404   4.631
60642W        W32957   4.967  31.116  14.902
60643W        W32958  37.901  41.760   4.284
60644W        W32959  20.736  29.347  10.721
60645W        W32960   7.493  11.838   4.067
60646W        W32961  30.958   5.381  13.484
60647W        W32962  35.375  18.165  12.114
60648W        W32963  18.864  29.832  11.554
60649W        W32964   4.295  32.593  14.898
60650W        W32965  31.635  19.591   4.551
60651W        W32966   8.449  18.813  11.122
60652W        W32967  27.903  20.733  11.086
60653W        W32968   0.564  21.338  10.448
60654W        W32969  31.173  38.760   3.671
60655W        W32970  30.761  22.412  12.239
60656W        W32971  28.982  35.096   0.355
60657W        W32972   1.187  15.633  11.634
60658W        W32973  25.497  34.467  11.523
60659W        W32974  36.399  11.173   3.049
60660W        W32975  41.913  25.641  11.684
60661W        W32976  36.103  27.504  14.801
60662W        W32977  16.649   6.963  12.777
60663W        W32978  15.263  22.417  11.073
60664W        W32979  17.417  14.136   0.320
60665W        W32980  44.057  17.595  11.201
60666W        W32981  17.599   4.995   2.778
60667W        W32982   5.429  21.138   0.262
60668W        W32983   1.526   6.274   2.270
60669W        W32984  12.128  13.079  11.221
60670W        W32985  16.586  29.009   4.319
60671W        W32986   6.718  13.317  11.587
60672W        W32987   6.803  42.291  13.016
60673W        W32988  37.949   7.853   0.835
60674W        W32989   5.482  24.162   2.678
60675W        W32990   6.137  14.116  11.797
60676W        W32991   6.221   1.357  14.845
60677W        W32992  19.801  10.838   0.003
60678W        W32993  34.164   3.651   0.215
60679W        W32994  26.507  13.921   1.467
60680W        W32995  23.651   3.198   2.352
60681W        W32996  14.824  36.001   2.922
60682W        W32997  22.456  27.587  10.966
60683W        W32998  18.968   6.478  11.212
60684W        W32999  14.775  30.050  12.773
60685W        W33000  11.275  12.599  12.863
60686W        W33001  24.663  41.719  14.515
60687W        W33002  19.183  31.350   1.306
60688W        W33003   1.507  36.103   4.488
60689W        W33004   8.631  23.501   3.952
60690W        W33005  29.208  33.458  11.986
60691W        W33006   6.322  34.402   0.866
60692W        W33007  15.237   0.396  12.653
60693W        W33008  18.975  18.719   4.202
60694W        W33009  33.720  21.126  14.048
60695W        W33010   7.832  43.521   2.155
60696W        W33011  42.591  17.064   3.657
60697W        W33012  12.396  12.364   3.657
60698W        W33013   4.666  26.222   1.404
60699W        W33014  21.583   0.028   3.256
60700W        W33015  35.940  37.492   0.342
60701W        W33016  34.654  43.457   0.213
60702W        W33017  39.481  32.848   4.115
60703W        W33018  38.873  14.863  10.706
60704W        W33019  37.319   4.699  10.362
60705W        W33020  33.421  41.059  13.826
60706W        W33021  36.471  39.271   0.746
60707W        W33022  17.802  13.152  13.812
60708W        W33023   4.885   7.300  14.710
60709W        W33024  12.798  20.593   4.565
60710W        W33025  13.535  36.513  11.939
60711W        W33026  30.316  19.722  12.847
60712W        W33027  42.206   0.181   0.385
60713W        W33028  14.671  11.909   1.497
60714W        W33029  10.483  28.821  12.609
60715W        W33030  15.293  33.595   4.183
60716W        W33031   7.771   4.715   1.720
60717W        W33032  27.160  23.261   1.210
60718W        W33033   0.514  35.125   2.539
60719W        W33034  33.591  24.238  11.569
60720W        W33035  40.836  32.075  13.340
60721W        W33036  10.395  32.143  12.374
60722W        W33037  15.582  18.675  10.993
60723W        W33038  35.428  39.817  13.939
60724W        W33039  10.361  22.208   4.135
60725W        W33040  34.545  39.281  13.670
60726W        W33041   6.918  21.892  13.042
60727W        W33042  38.031  19.222   4.385
60728W        W33043   1.740   1.021   2.224
60729W        W33044  33.969  25.702   2.898
60730W        W33045  39.042  12.503  10.547
60731W        W33046  21.141  40.313   0.513
60732W        W33047   9.397   8.945  13.428
60733W        W33048  31.919  16.467  12.306
60734W        W33049  22.568  20.681  14.341
60735W        W33050   8.449   0.464   0.356
60736W        W33051  42.954  34.953   3.859
60737W        W33052  30.931   9.841   1.675
60738W        W33053  15.536  13.705  13.403
60739W        W33054  42.408   0.542  13.538
60740W        W33055   8.402  18.306  11.053
60741W        W33056  42.123  38.065  14.041
60742W        W33057  16.073  16.769  14.754
60743W        W33058  40.490   3.668   2.313
60744W        W33059  11.105  31.184   2.196
60745W        W33060  25.483  44.881  11.472
60746W        W33061   7.290  42.451  14.508
60747W        W33062  40.967   3.922  10.704
60748W        W33063   5.936  44.845   0.672
60749W        W33064  40.850   6.402   4.910
60750W        W33065  17.735  18.511   2.780
60751W        W33066   4.429   0.915   3.242
60752W        W33067  11.879  10.915   4.460
60753W        W33068  15.574  43.818   3.326
60754W        W33069  31.294   4.224   4.103
60755W        W33070  23.023  38.693  14.783
60756W        W33071  16.460   9.906  14.814
60757W        W33072  27.988  19.410   1.752
60758W        W33073   0.734  13.574  11.853
60759W        W33074   0.723   3.887  13.340
60760W        W33075   8.119  43.007  10.779
60761W        W33076  18.698  26.370   3.017
60762W        W33077  11.254  18.217   2.919
60763W        W33078  13.623   3.642   2.796
60764W        W33079  28.166  12.520  11.513
60765W        W33080  18.188  15.365   1.244
60766W        W33081  34.004  21.023   3.285
60767W        W33082   8.013   9.252   1.320
60768W        W33083  40.252  21.220  11.929
60769W        W33084  36.746  29.564  10.563
60770W        W33085   7.054   6.739   4.331
60771W        W33086  15.597   4.390  10.150
60772W        W33087  34.496  16.168   4.838
60773W        W33088  24.132  40.254   4.460
60774W        W33089  13.236  10.370  12.487
60775W        W33090   1.810  10.959  11.065
60776W        W33091  44.964   2.886   3.377
60777W        W33092   8.738  33.649  11.964
60778W        W33093   9.350  14.411  14.814
60779W        W33094  34.605   0.922  12.502
60780W        W33095   5.251  30.031  14.358
60781W        W33096  15.697  10.385   0.812
60782W        W33097  44.702  13.660  11.207
60783W        W33098   6.436   1.478   3.511
60784W        W33099  28.675  33.450   2.828
60785W        W33100  42.782   3.466   1.259
60786W        W33101  44.433  16.373   4.608
60787W        W33102  34.448   5.769  11.850
60788W        W33103  10.311  43.742  13.452
60789W        W33104   9.185   0.977   0.379
60790W        W33105   7.341  30.841  12.959
60791W        W33106  27.457  14.081   2.677
60792W        W33107  37.745   5.510   4.189
60793W        W33108  40.941   0.976  14.728
60794W        W33109  41.000  41.103   4.604
60795W        W33110  23.424  20.570  13.458
60796W        W33111   9.383  36.139  12.446
60797W        W33112   6.283  22.046  12.518
60798W        W33113  39.885  29.959   2.767
60799W        W33114   0.183  34.325  12.134
60800W        W33115  28.670  17.617   2.175
60801W        W33116  20.699   9.144  14.769
60802W        W33117  36.930  33.086   4.110
60803W        W33118   8.411  36.724  14.391
60804W        W33119  23.103   3.986  14.992
60805W        W33120  15.340  33.132   1.759
60806W        W33121   6.607  19.227   0.827
60807W        W33122  32.059   0.420  11.677
60808W        W33123  34.317  41.619   0.020
60809W        W33124  40.837  17.352   0.430
60810W        W33125  13.739  36.055  11.914
60811W        W33126  39.238   2.340   4.680
60812W        W33127  35.958   3.498   3.279
60813W        W33128  32.572  12.116  13.545
60814W        W33129   3.142  38.613   3.321
60815W        W33130  16.825   8.106  11.067
60816W        W33131   4.025  29.157  11.833
60817W        W33132  17.257  19.304  12.679
60818W        W33133  12.220  32.469  13.778
60819W        W33134  12.252  19.507  10.697
60820W        W33135   2.529  44.293   3.197
60821W        W33136  34.062  28.816   0.701
60822W        W33137   9.046  41.076  11.527
60823W        W33138  22.086   1.317  13.553
60824W        W33139  12.154   0.626  11.242
60825W        W33140  36.563  14.739  11.449
60826W        W33141  13.060  24.372  14.789
60827W        W33142  11.635  43.335   4.958
60828W        W33143  14.364  43.593  11.489
60829W        W33144  18.281  30.003  14.328
60830W        W33145  36.456  42.974   5.021
60831W        W33146  43.098  12.513  10.066
60832W        W33147  37.306   0.846  13.011
60833W        W33148  30.653  16.391  11.826
60834W        W33149  15.007  16.204   0.350
60835W        W33150  28.616  23.938  13.471
60836W        W33151  42.133  37.980   4.392
60837W        W33152   0.004  20.640   3.921
60838W        W33153  13.753  37.929   4.545
60839W        W33154  24.723   3.271   1.380
60840W        W33155   9.142  33.302  12.482
60841W        W33156  11.798  21.013   0.545
60842W        W33157  21.039  31.703   0.269
60843W        W33158  22.574   2.805   1.967
60844W        W33159  13.769  19.055   1.766
60845W        W33160  44.437  28.898  11.502
60846W        W33161  28.900  24.561   4.226
60847W        W33162  29.611   8.564   5.118
60848W        W33163  38.783   4.219   1.892
60849W        W33164  13.947   5.765  10.691
60850W        W33165  18.245  21.996   3.080
60851W        W33166  29.566  31.894   5.261
60852W        W33167  24.637  20.205  11.184
60853W        W33168  19.085  18.231  12.981
60854W        W33169   9.195   4.458  14.540
60855W        W33170  37.430  13.388   4.943
60856W        W33171  32.195  40.450  11.156
60857W        W33172  20.194  13.732   2.207
60858W        W33173   3.857  36.385  10.676
60859W        W33174  35.390  44.316  13.892
60860W        W33175   5.118  38.268  11.526
60861W        W33176  17.888  23.463   4.302
60862W        W33177   3.169  44.918  13.006
60863W        W33178  34.880   5.813  12.204
60864W        W33179  28.491   6.459   2.259
60865W        W33180  39.896  25.781  10.683
60866W        W33181  25.041   4.266   5.035
60867W        W33182  23.044   8.147   1.455
60868W        W33183  11.370  23.539  11.580
60869W        W33184  40.474  28.233  13.284
60870W        W33185  18.896   9.466   0.609
60871W        W33186   4.301  30.512   0.528
60872W        W33187  30.571  18.254  13.044
60873W        W33188  36.620  14.103   4.258
60874W        W33189  42.254  12.236   2.361
60875W        W33190  13.150  26.918   0.644
60876W        W33191   7.626  11.321   4.784
60877W        W33192   2.910  16.224   0.723
60878W        W33193  37.724   4.829  10.680
60879W        W33194  33.482   6.476   4.068
60880W        W33195  23.559   7.721   2.852
60881W        W33196  33.429  26.080  11.179
60882W        W33197  29.312  43.933  11.107
60883W        W33198  39.483  13.853  13.434
60884W        W33199   9.587   5.608  13.874
60885W        W33200  42.124  26.905  14.407
60886W        W33201  34.940  26.892   2.354
60887W        W33202  11.219   7.781  10.511
60888W        W33203   0.913   4.183  12.061
60889W        W33204  25.702  27.780   1.452
60890W        W33205  25.639  43.511  10.667
60891W        W33206  22.070  28.451  14.822
60892W        W33207   9.285  35.287  13.376
60893W        W33208  13.703  23.684   4.595
60894W        W33209  34.157  13.375  12.936
60895W        W33210   2.806   0.796   2.393
60896W        W33211  29.524  32.467  12.454
60897W        W33212   9.652  36.455  14.043
60898W        W33213  25.700   3.306  12.104
60899W        W33214  27.942  42.816   4.175
60900W        W33215  31.105  20.295   3.698
60901W        W33216  17.209  34.775   5.000
60902W        W33217  37.542  25.002  13.410
60903W        W33218   8.285  32.416   2.651
60904W        W33219  15.771  21.149  10.240
60905W        W33220   6.886  44.768   2.188
60906W        W33221   2.709   9.784  11.965
60907W        W33222  44.305  41.558   2.679
60908W        W33223  21.217  23.222   1.713
60909W        W33224  20.054  14.279   3.668
60910W        W33225  18.293  17.695  14.505
60911W        W33226  14.106  26.471  13.860
60912W        W33227  20.602  28.249  12.576
60913W        W33228  16.297  10.830   1.748
60914W        W33229  10.365  44.787  11.968
60915W        W33230  36.860   9.754  12.893
60916W        W33231  21.157  28.041  13.967
60917W        W33232  35.886  41.845  14.281
60918W        W33233   4.988  32.564  13.579
60919W        W33234   3.718   5.416  10.841
60920W        W33235  28.515  29.475  13.109
60921W        W33236  29.498  24.233  11.301
60922W        W33237  32.645   2.130  14.395
60923W        W33238  21.474  30.500   0.661
60924W        W33239  29.508  39.060  13.394
60925W        W33240   6.010  24.008  12.883
60926W        W33241  16.688  28.551  12.695
60927W        W33242  10.375  10.364   4.736
60928W        W33243  17.194  37.534  10.289
60929W        W33244  10.886  33.706  13.436
60930W        W33245  17.708  19.070   0.396
60931W        W33246  24.138  34.204  11.216
60932W        W33247  36.162  18.075   3.637
60933W        W33248  12.301  36.379   0.330
60934W        W33249   0.734   9.100  11.967
60935W        W33250  21.658  21.491   9.700
60936W        W33251  13.339  28.631  10.453
60937W        W33252  24.660  44.460   0.741
60938W        W33253  29.963  32.590   4.131
60939W        W33254   8.141  27.016  11.572
60940W        W33255  20.554  44.048   0.671
60941W        W33256   7.144  16.776  14.287
60942W        W33257   8.483  34.042   3.258
60943W        W33258  20.961  31.512  13.351
60944W        W33259  35.983  42.939  12.667
60945W        W33260  15.565  14.448  10.262
60946W        W33261  32.996  25.536   3.241
60947W        W33262  17.770  22.518  14.778
60948W        W33263   4.248  11.052   3.898
60949W        W33264   3.470  43.394   0.835
60950W        W33265   6.882  20.237   1.884
60951W        W33266  28.385  33.595  13.881
60952W        W33267  29.053  17.808  14.239
60953W        W33268  13.927   1.526  13.041
60954W        W33269  21.754  14.254  12.272
60955W        W33270  20.547  18.177  12.019
60956W        W33271  14.864  29.338   3.608
60957W        W33272  37.926  35.433   3.634
60958W        W33273   7.584   0.859   1.426
60959W        W33274  13.426  12.801   1.468
60960W        W33275   1.742   2.980  10.573
60961W        W33276  26.719  44.833   4.263
60962W        W33277  43.724  40.596   4.272
60963W        W33278  42.285  36.284   2.800
60964W        W33279  43.032  39.994  11.159
60965W        W33280   1.960  23.505   3.595
60966W        W33281  22.518  34.378  14.296
60967W        W33282  29.405  24.016  11.744
60968W        W33283  43.034   3.713  14.525
60969W        W33284  44.596  16.320  13.580
60970W        W33285   1.451  23.055  14.228
60971W        W33286  20.053  43.384   4.342
60972W        W33287  25.921  16.083   4.059
60973W        W33288  14.199  43.186   0.853
60974W        W33289  33.767   3.850  11.023
60975W        W33290  10.963   6.677  14.337
60976W        W33291  25.548  30.184  12.668
60977W        W33292   1.247  34.984  11.104
60978W        W33293   6.248  13.094  14.344
60979W        W33294   8.422  10.692  13.690
60980W        W33295  24.553   0.994  13.836
60981W        W33296  42.016   3.302   1.722
60982W        W33297  32.377  27.714   4.929
60983W        W33298   2.052  11.336  13.925
60984W        W33299  42.809  28.415  10.643
60985W        W33300  25.610   4.655  10.660
60986W        W33301  10.217  21.053  14.545
60987W        W33302  13.640   3.242   1.348
60988W        W33303  44.042   6.980  10.737
60989W        W33304  35.211  30.615  14.814
60990W        W33305   1.984  23.747  12.560
60991W        W33306  16.391  14.645   2.309
60992W        W33307  23.262  29.109  11.164
60993W        W33308  21.253  10.732  11.438
60994W        W33309  42.107   2.926   1.140
60995W        W33310  13.262  21.076   2.393
60996W        W33311  35.527  38.316  12.908
60997W        W33312  38.665  23.212   2.840
60998W        W33313  29.619   5.037   1.776
60999W        W33314  44.724  12.924  11.474
61000W        W33315   0.928  39.879  11.889
61001W        W33316  43.973  38.317  12.441
61002W        W33317  24.414  29.695  13.034
61003W        W33318  27.227   7.501  13.416
61004W        W33319   8.263  39.572   0.856
61005W        W33320  26.759  35.173  13.052
61006W        W33321  20.018  44.785  14.712
61007W        W33322  39.091   2.045   0.958
61008W        W33323  10.377  42.808   4.664
61009W        W33324  28.656  22.094   2.669
61010W        W33325  39.411  43.998   0.865
61011W        W33326   2.833  25.659  12.859
61012W        W33327   5.926  12.182   0.173
61013W        W33328  27.798  10.951   1.251
61014W        W33329  44.769  20.716   4.379
61015W        W33330   5.186   1.367  14.679
61016W        W33331  21.153  41.947  14.302
61017W        W33332   8.139   6.700  10.689
61018W        W33333  17.243  18.588   0.756
61019W        W33334  30.400  37.823  10.347
61020W        W33335   8.230  44.895   2.710
61021W        W33336  25.064  23.252   2.844
61022W        W33337   0.995  18.338  11.087
61023W        W33338  32.955  35.954  13.901
61024W        W33339   7.847   4.679  11.190
61025W        W33340  22.995  40.888   1.425
61026W        W33341  14.138  14.592  11.475
61027W        W33342   4.162   8.194   3.247
61028W        W33343   4.287  17.121   4.717
61029W        W33344  28.491  11.854   1.545
61030W        W33345  39.593  43.735  14.450
61031W        W33346  16.263  10.589   3.347
61032W        W33347  13.351   8.385   4.122
61033W        W33348  29.101  10.401   1.787
61034W        W33349   9.247  14.398   1.450
61035W        W33350  41.507  34.117   4.396
61036W        W33351  34.869   3.710  13.892
61037W        W33352   5.870  14.827   4.586
61038W        W33353  23.209  22.486  11.109
61039W        W33354  23.131  22.040  10.333
61040W        W33355  16.344  19.640  13.840
61041W        W33356  15.088  40.789  11.908
61042W        W33357   1.312  26.960  11.940
61043W        W33358  33.371   4.462  10.529
61044W        W33359   6.540  21.173  11.626
61045W        W33360   2.805   0.469  12.398
61046W        W33361  11.743  27.992   1.362
61047W        W33362  43.376  29.989   0.732
61048W        W33363  18.164  34.884   2.417
61049W        W33364  35.759  19.619  12.989
61050W        W33365  40.412  30.327  14.356
61051W        W33366   4.974   8.378   2.849
61052W        W33367   5.433  40.493   4.262
61053W        W33368  37.004  27.385  12.984
61054W        W33369  38.956  37.325   3.811
61055W        W33370   1.193  28.900  12.800
61056W        W33371  12.394  30.981   0.779
61057W        W33372  26.850  41.575   3.965
61058W        W33373  21.982  39.927   1.379
61059W        W33374  16.099  20.273   1.921
61060W        W33375   2.394   7.988  14.845
61061W        W33376  41.809  22.755   1.873
61062W        W33377  41.795  36.636   3.205
61063W        W33378  26.072   3.653  13.179
61064W        W33379  29.715  44.232  11.252
61065W        W33380  32.016  43.608  14.496
61066W        W33381  11.712  41.458  13.498
61067W        W33382  24.937   6.637  14.824
61068W        W33383  28.216   0.273   0.768
61069W        W33384   4.432   3.760  13.995
61070W        W33385   6.248  14.795  12.441
61071W        W33386  10.677   4.278  12.221
61072W        W33387   7.910  15.150   4.831
61073W        W33388  44.660  29.002   0.673
61074W        W33389  40.458  32.023  12.136
61075W        W33390  28.529  42.717   0.917
61076W        W33391  14.205  36.930   1.106
61077W        W33392  23.879  43.782   4.345
61078W        W33393  11.177  32.758  11.494
61079W        W33394  35.679  25.168  10.704
61080W        W33395  34.253  11.356  12.095
61081W        W33396  23.658  31.474   4.026
61082W        W33397  22.553  12.559  12.446
61083W        W33398  16.328  40.842   3.307
61084W        W33399   9.248  24.599  10.529
61085W        W33400  28.959   2.916   1.452
61086W        W33401  20.675  24.923  12.973
61087W        W33402   6.364  40.412  12.898
61088W        W33403  15.764  29.270   2.871
61089W        W33404   4.413  42.094  14.987
61090W        W33405  33.860  20.614   2.899
61091W        W33406   0.383  35.018   1.567
61092W        W33407  15.622   2.860  13.920
61093W        W33408  43.532  44.919   4.402
61094W        W33409  11.192  34.166  11.967
61095W        W33410  42.645  33.204   3.348
61096W        W33411   4.503  17.785  13.975
61097W        W33412   4.789  20.607  11.681
61098W        W33413  33.612   1.293   4.622
61099W        W33414  17.140  34.845  12.672
61100W        W33415  16.961   9.679  11.615
61101W        W33416  11.246   7.798  12.388
61102W        W33417   5.209  14.217  10.710
61103W        W33418   9.821   6.921   4.538
61104W        W33419  31.867  15.566  14.034
61105W        W33420  26.022  18.410  13.867
61106W        W33421  31.006   3.814  10.802
61107W        W33422  15.172   3.913   4.587
61108W        W33423  43.747  34.881  10.651
61109W        W33424  42.282  34.511  13.047
61110W        W33425   2.644  32.596   3.607
61111W        W33426  29.729  35.996   4.161
61112W        W33427  41.549   5.000   3.282
61113W        W33428  16.042  13.752   1.892
61114W        W33429   8.743   6.852  10.711
61115W        W33430  37.792   9.183   4.767
61116W        W33431  34.956  19.346  12.847
61117W        W33432  27.949  40.862  11.159
61118W        W33433   5.977  41.785  10.771
61119W        W33434  11.668   9.907  14.762
61120W        W33435  33.423  19.108   2.554
61121W        W33436  18.615  32.914   0.414
61122W        W33437  20.779  42.420   2.216
61123W        W33438  41.348   0.987   0.496
61124W        W33439  36.064  35.110   4.514
61125W        W33440   7.754  15.572  11.141
61126W        W33441  30.176  40.927  11.951
61127W        W33442   5.662  25.878  14.967
61128W        W33443   4.335  29.488  10.952
61129W        W33444  39.355  28.884   0.684
61130W        W33445  35.317  20.777   1.697
61131W        W33446  25.896  16.943   2.852
61132W        W33447  35.145  37.037   4.717
61133W        W33448  11.231  38.296   2.926
61134W        W33449  37.793  22.510  11.105
61135W        W33450  14.045  10.660  14.365
61136W        W33451  34.914   5.946  11.717
61137W        W33452  31.061  37.969  11.553
61138W        W33453  27.131  41.848   2.672
61139W        W33454  16.199  24.715  13.383
61140W        W33455  22.235  35.061  13.748
61141W        W33456   6.736  10.680  11.443
61142W        W33457  22.589   5.166  11.544
61143W        W33458  30.120  18.826  12.642
61144W        W33459  12.301  15.347   0.927
61145W        W33460   2.837  41.231  10.548
61146W        W33461  16.423  30.337  13.627
61147W        W33462   2.415  25.343  12.850
61148W        W33463  31.105  19.072  10.643
61149W        W33464  14.726  24.538  14.055
61150W        W33465  26.763  29.354   3.743
61151W        W33466   3.453  37.966  14.337
61152W        W33467  36.549  38.998   2.383
61153W        W33468   5.321  43.155  14.973
61154W        W33469   2.428  19.703   1.268
61155W        W33470   7.133  27.558   3.113
61156W        W33471  41.329  27.762   2.748
61157W        W33472  37.549  32.999   1.703
61158W        W33473  13.602   1.370  10.519
61159W        W33474  18.241  29.986  10.996
61160W        W33475  43.677  12.162  12.947
61161W        W33476  22.864   0.964  11.866
61162W        W33477  12.212  16.331  10.881
61163W        W33478  28.564  20.439  12.326
61164W        W33479   3.810  34.994  12.876
61165W        W33480  14.736  38.941   2.897
61166W        W33481   7.639   4.185   3.368
61167W        W33482  24.567  40.553   4.406
61168W        W33483  40.871   0.354  14.077
61169W        W33484  13.052  44.579   3.306
61170W        W33485  32.416   3.928   2.515
61171W        W33486  34.436  39.129  14.259
61172W        W33487  18.226  42.020   0.945
61173W        W33488  21.035  17.184  13.091
61174W        W33489  41.027  24.447  13.323
61175W        W33490  37.491  42.072   5.226
61176W        W33491  16.557   5.151   4.118
61177W        W33492  41.300   1.900   4.477
61178W        W33493  44.342  20.993  12.945
61179W        W33494  38.288  37.808  12.810
61180W        W33495  34.139  40.899  12.073
61181W        W33496  24.568   5.817  10.988
61182W        W33497  26.274  11.671  14.023
61183W        W33498  10.246  28.734   4.838
61184W        W33499  14.768  15.800   1.394
61185W        W33500  14.891  32.525  11.942
61186W        W33501   7.828   7.633   0.576
61187W        W33502  11.779  24.469   0.950
61188W        W33503  37.992  13.231   1.938
61189W        W33504   9.895  17.633   3.035
61190W        W33505  33.932   0.796   0.912
61191W        W33506  33.352  15.060  14.303
61192W        W33507  16.318   6.718   2.760
61193W        W33508   3.865  14.372  10.706
61194W        W33509   0.788  19.875  11.048
61195W        W33510  25.404  16.632   3.664
61196W        W33511  40.121   1.603   4.845
61197W        W33512  12.644   0.489   4.370
61198W        W33513  32.534  21.521  14.277
61199W        W33514  20.548  34.461  10.441
61200W        W33515  19.264  41.001  14.882
61201W        W33516   8.316   4.002   0.428
61202W        W33517  11.933   4.823   0.721
61203W        W33518   3.560  22.145  14.113
61204W        W33519   2.819  40.525  11.103
61205W        W33520  44.602   4.257  12.954
61206W        W33521   6.963   0.452  13.713
61207W        W33522  35.089   2.773  10.733
61208W        W33523  27.538  19.316   4.133
61209W        W33524  26.604   9.142   2.309
61210W        W33525   5.731   0.515   4.843
61211W        W33526  25.794  27.573  14.369
61212W        W33527  23.082  43.548   0.084
61213W        W33528   2.932  15.613   4.469
61214W        W33529  33.530   8.817   2.667
61215W        W33530   8.256   7.380   4.075
61216W        W33531  32.375  21.764   0.162
61217W        W33532  23.668  15.110   4.595
61218W        W33533  42.548  32.640  11.596
61219W        W33534  43.019  28.894  10.634
61220W        W33535  27.876   8.977  12.654
61221W        W33536  13.574  16.718   1.630
61222W        W33537  28.025   8.745   4.173
61223W        W33538  35.531  27.521  13.399
61224W        W33539  40.884  35.143  13.046
61225W        W33540  21.989  28.998  13.994
61226W        W33541   5.175  44.846   4.414
61227W        W33542  25.520  32.960  14.082
61228W        W33543  34.892  28.171  13.353
61229W        W33544  13.637  42.192   3.777
61230W        W33545  38.460  20.103   1.728
61231W        W33546  15.563   6.455   2.670
61232W        W33547   0.421  27.638  10.814
61233W        W33548  19.527  36.588  14.190
61234W        W33549   0.397  41.549  14.731
61235W        W33550   5.229  29.224   4.196
61236W        W33551  24.276  18.196  11.506
61237W        W33552   6.867  10.562   2.508
61238W        W33553  34.088  23.257   2.102
61239W        W33554  31.746  14.268   5.133
61240W        W33555   5.495  32.639  14.367
61241W        W33556  39.403  37.547  12.435
61242W        W33557   5.427  22.247  11.984
61243W        W33558  41.582  29.682  10.680
61244W        W33559   3.791   5.731   4.131
61245W        W33560  10.155  23.555   1.962
61246W        W33561   4.586  19.599   0.401
61247W        W33562  14.380  35.667  13.384
61248W        W33563  13.087  20.529  11.066
61249W        W33564  37.311  41.276   0.455
61250W        W33565  37.085  41.283   0.958
61251W        W33566  29.781  18.250   3.808
61252W        W33567  16.760  32.027   4.610
61253W        W33568  19.468  41.523   0.881
61254W        W33569  34.758  30.686  13.870
61255W        W33570  10.436  38.877  12.854
61256W        W33571  33.326  44.210  14.180
61257W        W33572   7.242  27.955   2.799
61258W        W33573  23.700  12.149  12.905
61259W        W33574  16.693  22.869  12.646
61260W        W33575  29.430  20.924  13.743
61261W        W33576  44.466  19.219   0.152
61262W        W33577   7.473  17.146  14.560
61263W        W33578  42.426   4.913   4.193
61264W        W33579   0.773  38.006  11.976
61265W        W33580  22.123   0.008  10.443
61266W        W33581   4.754   4.970  11.509
61267W        W33582   1.766  27.814  14.930
61268W        W33583  23.594  36.793   3.746
61269W        W33584   4.744  19.585   3.272
61270W        W33585  13.264   6.624   1.945
61271W        W33586  26.317  35.176  13.356
61272W        W33587  34.127   3.199   1.024
61273W        W33588   3.365  12.144  13.749
61274W        W33589  41.873  34.131   2.328
61275W        W33590  13.283   3.397  12.575
61276W        W33591  44.725  34.002   3.160
61277W        W33592  35.391  32.047  14.868
61278W        W33593  36.300   4.226  12.042
61279W        W33594  16.823  32.830  11.258
61280W        W33595  29.646  35.279  13.536
61281W        W33596  42.237  36.394   1.668
61282W        W33597  15.327  16.659   1.490
61283W        W33598  17.817  44.492  12.691
61284W        W33599   7.115  36.275  11.692
61285W        W33600  29.024  25.973  14.575
61286W        W33601  14.438  41.613   1.698
61287W        W33602   6.765  28.407   1.366
61288W        W33603  13.670   6.371   3.298
61289W        W33604   8.723  20.003  12.486
61290W        W33605   4.812  43.766  13.438
61291W        W33606  26.307  21.278  14.228
61292W        W33607  16.290  18.240  14.089
61293W        W33608  22.261   4.598   4.196
61294W        W33609  15.639  34.989   3.707
61295W        W33610  16.867  42.047  12.036
61296W        W33611  26.953  31.771  13.003
61297W        W33612  24.417  10.700  11.068
61298W        W33613   2.011   2.755  14.835
61299W        W33614  26.206   6.355  10.163
61300W        W33615   4.760  40.894  11.069
61301W        W33616  17.165  24.916  13.001
61302W        W33617  43.351  29.893  11.595
61303W        W33618  29.741   9.326  14.618
61304W        W33619  29.007   8.874   3.173
61305W        W33620  39.120  16.579   1.519
61306W        W33621  17.194  26.119   3.323
61307W        W33622  18.516   4.823   3.574
61308W        W33623  26.263  29.580  11.493
61309W        W33624  25.483  10.856  14.817
61310W        W33625  19.409   9.040  12.329
61311W        W33626  39.448  28.579  12.382
61312W        W33627  11.810  42.576  12.517
61313W        W33628  36.512  21.657   0.891
61314W        W33629  18.710   0.220  14.502
61315W        W33630  27.073  17.144   4.426
61316W        W33631  28.913   2.194   2.255
61317W        W33632  41.627   8.505  12.294
61318W        W33633  39.925  28.715  14.849
61319W        W33634  16.726  26.024   4.218
61320W        W33635  31.124   9.387   4.888
61321W        W33636  16.012  27.929  12.473
61322W        W33637  24.185  26.403   3.752
61323W        W33638  31.921  41.442   0.226
61324W        W33639  35.426  30.057   2.767
61325W        W33640  41.934  37.151   3.206
61326W        W33641  25.400  19.274  14.402
61327W        W33642   3.443   8.251  10.771
61328W        W33643   7.663  36.920   3.267
61329W        W33644   2.755  44.768   3.185
61330W        W33645  21.051  34.415  11.960
61331W        W33646  16.821  16.561  11.462
61332W        W33647  31.701  38.788  10.509
61333W        W33648  35.547   4.917  14.592
61334W        W33649  28.270  37.983   3.810
61335W        W33650  23.074  37.449  13.274
61336W        W33651  21.082  16.349   1.634
61337W        W33652  36.485  24.073   1.402
61338W        W33653  15.571  28.467   3.212
61339W        W33654  15.083  32.603  13.565
61340W        W33655   7.162  38.282   1.613
61341W        W33656   9.903  44.338   1.722
61342W        W33657  11.532  11.697  14.860
61343W        W33658   8.867  21.973   0.004
61344W        W33659   9.260   2.702   2.170
61345W        W33660  44.992   8.858   2.965
61346W        W33661   7.188  38.849   2.277
61347W        W33662  34.016  44.677  12.445
61348W        W33663   9.364   8.236   0.923
61349W        W33664  41.752  18.797  12.467
61350W        W33665  31.943  13.723  10.804
61351W        W33666  42.327   0.854  12.447
61352W        W33667  42.024  20.742   0.476
61353W        W33668  16.795  43.860   0.429
61354W        W33669  21.762  41.907   0.929
61355W        W33670  27.143  35.014  12.689
61356W        W33671  35.089   6.195   1.436
61357W        W33672   4.353  41.513   2.711
61358W        W33673  15.538  25.001   4.737
61359W        W33674  41.607  44.971  10.720
61360W        W33675  32.792  24.779  14.968
61361W        W33676  33.495  16.004   1.438
61362W        W33677  43.802  15.703  10.027
61363W        W33678  10.878  35.887  13.383
61364W        W33679   3.340  40.802   1.669
61365W        W33680  37.262   1.349   2.328
61366W        W33681  37.621  34.044  11.984
61367W        W33682  18.560   9.299  11.881
61368W        W33683  40.103  10.448   3.162
61369W        W33684  30.522  15.126   0.854
61370W        W33685  20.249  43.054   0.644
61371W        W33686  18.059  20.520   3.617
61372W        W33687  30.478  41.561   2.776
61373W        W33688  35.134  29.732  11.009
61374W        W33689  16.309   5.921  10.827
61375W        W33690   2.533  35.209   9.966
61376W        W33691  42.680   3.807  11.130
61377W        W33692  34.016  15.865  11.213
61378W        W33693   2.351  24.771   0.403
61379W        W33694  13.395  17.099   4.622
61380W        W33695  12.857  44.411  11.907
61381W        W33696  34.378   1.017   2.751
61382W        W33697   1.964  24.883   4.168
61383W        W33698   6.440  18.158   2.159
61384W        W33699  19.080   5.349  13.943
61385W        W33700  16.851  38.143   1.983
61386W        W33701  32.952  22.809  13.341
61387W        W33702  25.968  11.355   1.404
61388W        W33703  32.704  15.872  13.130
61389W        W33704  30.126  37.302  12.422
61390W        W33705  36.549   3.685  10.403
61391W        W33706  11.938  41.411  14.203
61392W        W33707  22.075  27.358   3.153
61393W        W33708  36.754  21.986  10.992
61394W        W33709   9.367  34.593  10.531
61395W        W33710  22.108  19.353  11.137
61396W        W33711  30.559   5.778  13.065
61397W        W33712  10.672  22.682  11.382
61398W        W33713  37.454  32.054   3.530
61399W        W33714  24.828   2.377   1.253
61400W        W33715  37.405   8.093  11.201
61401W        W33716  25.531   9.521  13.091
61402W        W33717  12.751  10.336  12.639
61403W        W33718  11.053  14.807   2.767
61404W        W33719  13.544  32.187  13.262
61405W        W33720  19.593  30.578   1.364
61406W        W33721  29.106   5.136  12.920
61407W        W33722  36.423  13.184   0.844
61408W        W33723   5.431  10.496  14.236
61409W        W33724   9.340  10.427  10.938
61410W        W33725  40.110  43.496   3.701
61411W        W33726  26.528  10.215  12.470
61412W        W33727  41.273  32.505   2.378
61413W        W33728  22.035  20.153  14.906
61414W        W33729  36.880  37.868  13.565
61415W        W33730  43.856  12.592   4.618
61416W        W33731   4.461  42.840   1.430
61417W        W33732  14.326  18.679   0.927
61418W        W33733  42.386  44.235   2.352
61419W        W33734  42.372  36.119   4.319
61420W        W33735  26.061  19.142  10.838
61421W        W33736  20.238  11.575   0.787
61422W        W33737   7.733  44.026  13.376
61423W        W33738  33.469  19.007   0.886
61424W        W33739  41.765  40.451  13.913
61425W        W33740  31.942  17.830   1.303
61426W        W33741   6.690  23.166  11.222
61427W        W33742   1.268  17.110   1.330
61428W        W33743  12.222  37.595   2.673
61429W        W33744  22.496  36.143   2.193
61430W        W33745  18.245  38.841   2.794
61431W        W33746  19.497  32.733  12.464
61432W        W33747  38.387  27.311   1.403
61433W        W33748  31.389  42.100  12.090
61434W        W33749  26.433   3.305  14.023
61435W        W33750  23.044  13.408   3.474
61436W        W33751  26.688  10.549  13.870
61437W        W33752  20.818   7.395  12.635
61438W        W33753  32.465  10.299  11.148
61439W        W33754  16.480  32.832  13.334
61440W        W33755  27.611  23.433   3.093
61441W        W33756   4.853  20.086   1.676
61442W        W33757   5.352  25.585   4.903
61443W        W33758  12.757  26.735   2.194
61444W        W33759  19.014   5.311  11.485
61445W        W33760   0.309  40.903   2.198
61446W        W33761  33.002  18.448  10.874
61447W        W33762  11.180  16.465  11.853
61448W        W33763   4.433  25.969  12.879
61449W        W33764  22.749  10.737  11.536
61450W        W33765  20.316  32.957  14.952
61451W        W33766  36.928  21.934   2.346
61452W        W33767  14.184  39.847  12.586
61453W        W33768  16.375  31.721  13.139
61454W        W33769   2.424  17.384  11.199
61455W        W33770  28.888  40.728  10.738
61456W        W33771   0.403  12.222  13.060
61457W        W33772  13.222   9.828   2.344
61458W        W33773  33.626  39.795   3.856
61459W        W33774  25.129  17.705   0.755
61460W        W33775   8.248  19.952  11.844
61461W        W33776  34.977   4.670  11.473
61462W        W33777  16.433  22.990  11.867
61463W        W33778  26.981  30.019   2.655
61464W        W33779   8.285   3.711  12.069
61465W        W33780   5.867   4.495   3.663
61466W        W33781  28.810  39.017  14.250
61467W        W33782  21.012  44.954  14.940
61468W        W33783   0.061  30.103  11.313
61469W        W33784  23.145   0.253   3.712
61470W        W33785  44.797  10.774  10.277
61471W        W33786  11.273  34.598  11.590
61472W        W33787  33.468  18.319   2.434
61473W        W33788   8.845  23.987  12.553
61474W        W33789  12.577  39.036  12.440
61475W        W33790  31.249  15.757   2.830
61476W        W33791   3.961  15.875  13.416
61477W        W33792  11.408  34.136   1.247
61478W        W33793  27.590  16.204  12.581
61479W        W33794   2.952  28.435  14.819
61480W        W33795  22.903  39.839  12.112
61481W        W33796  24.445  17.327  11.096
61482W        W33797  38.610   1.890  14.689
61483W        W33798  27.127  13.900   2.266
61484W        W33799   1.112  30.162   3.795
61485W        W33800  23.704  16.480   0.917
61486W        W33801  25.489   3.788  12.792
61487W        W33802  18.247  24.586   4.273
61488W        W33803  31.804  17.394   5.090
61489W        W33804  31.428  40.059   3.689
61490W        W33805  19.719  32.635  12.918
61491W        W33806  36.574  25.026  10.092
61492W        W33807  26.002  14.111  14.754
61493W        W33808  15.621  21.761  12.021
61494W        W33809  43.368  21.249   3.449
61495W        W33810  23.986  10.390   0.424
61496W        W33811  42.287   1.216  13.959
61497W        W33812  36.761  28.876   2.220
61498W        W33813  20.822  31.609  14.786
61499W        W33814   0.673  26.668  14.936
61500W        W33815  26.551  24.167   1.158
61501W        W33816   1.255  26.911   3.686
61502W        W33817   2.448  39.766   3.575
61503W        W33818  23.962  27.534  14.767
61504W        W33819  20.963   0.576   5.122
61505W        W33820  15.999   2.701  10.660
61506W        W33821   8.367  37.918  14.827
61507W        W33822  31.102   1.271   2.368
61508W        W33823  23.251  30.402  14.783
61509W        W33824   8.623  35.622   4.423
61510W        W33825  23.031  24.294   2.706
61511W        W33826  20.299  15.633   3.226
61512W        W33827  24.176  37.319  13.232
61513W        W33828  25.400   8.473   1.189
61514W        W33829   7.080   6.520  13.110
61515W        W33830  10.027  35.352   4.659
61516W        W33831  17.566  25.994  13.622
61517W        W33832  38.608  31.692  11.489
61518W        W33833   0.097  42.357   4.692
61519W        W33834  27.089  41.547  11.617
61520W        W33835  25.866  28.527   0.875
61521W        W33836  40.807  22.790   0.390
61522W        W33837  27.986  44.780  11.668
61523W        W33838  33.980  27.368  13.482
61524W        W33839  20.802  28.057  13.015
61525W        W33840   6.146  26.104   0.150
61526W        W33841  40.261  39.365  14.775
61527W        W33842  33.904  42.890   3.515
61528W        W33843  36.581   6.842  12.516
61529W        W33844  34.867  36.145  11.979
61530W        W33845  23.289  14.809  13.039
61531W        W33846  23.284  31.153   4.202
61532W        W33847   3.790   2.291   1.290
61533W        W33848   2.821  20.285   1.001
61534W        W33849  42.405  33.328  14.875
61535W        W33850  10.600  13.081  14.939
61536W        W33851  20.767   9.891  12.525
61537W        W33852  24.096  31.665   0.820
61538W        W33853  43.580  42.230   0.782
61539W        W33854  28.904  17.088   2.176
61540W        W33855   2.328  42.401   3.204
61541W        W33856   0.544  22.596  10.754
61542W        W33857  16.625  38.304  13.822
61543W        W33858   8.359  19.066   1.438
61544W        W33859  28.557  17.391   3.439
61545W        W33860  15.291  19.062   1.546
61546W        W33861  25.947  35.795   2.832
61547W        W33862   1.314  33.358  13.876
61548W        W33863  24.191  37.850   4.053
61549W        W33864  37.829  26.888   4.609
61550W        W33865  19.285   5.804   2.922
61551W        W33866  36.376  32.480  13.543
61552W        W33867  36.826  30.652   0.707
61553W        W33868   4.294  38.902   4.656
61554W        W33869  23.934  26.705   4.072
61555W        W33870  44.876  43.342  12.358
61556W        W33871   6.187  35.921   5.309
61557W        W33872  44.507  41.939   1.889
61558W        W33873  44.024   7.391   0.034
61559W        W33874  23.399   3.226  11.217
61560W        W33875  24.226  14.355  13.041
61561W        W33876   2.549  15.724  14.804
61562W        W33877  20.653  15.224   0.357
61563W        W33878  30.893  36.997  11.377
61564W        W33879  44.080  41.325   3.660
61565W        W33880  25.889   3.768  14.219
61566W        W33881  28.214   5.325   2.609
61567W        W33882  28.822  44.830   1.249
61568W        W33883  10.282  10.136   4.291
61569W        W33884  35.024  26.681  14.294
61570W        W33885  31.483   6.128   4.858
61571W        W33886  38.447  42.004   0.514
61572W        W33887  12.989  15.567   4.372
61573W        W33888  19.145  38.969   1.389
61574W        W33889   9.398   6.777  12.876
61575W        W33890   0.976  13.075   4.562
61576W        W33891  40.932  13.571   0.314
61577W        W33892  11.135   0.003   3.811
61578W        W33893  25.249  20.514  14.762
61579W        W33894  15.764  27.516  13.041
61580W        W33895  15.712  13.653  11.572
61581W        W33896  42.447  21.061   4.210
61582W        W33897   2.419  23.153  11.792
61583W        W33898   4.317   7.770   4.290
61584W        W33899   4.677  30.632  12.085
61585W        W33900  11.090  29.515  12.656
61586W        W33901  27.270  30.803   0.884
61587W        W33902  30.816  31.040  14.902
61588W        W33903   8.083  34.120   1.787
61589W        W33904  19.092  44.895  13.503
61590W        W33905  32.903  27.012   4.566
61591W        W33906  39.332  32.477   3.680
61592W        W33907   9.789  19.648   3.294
61593W        W33908  26.482  12.846  13.534
61594W        W33909   1.246  32.138   3.461
61595W        W33910  39.225  29.409   1.533
61596W        W33911  19.170  37.236   2.794
61597W        W33912  26.187  36.897   3.682
61598W        W33913  21.909  30.883  12.085
61599W        W33914   2.507  29.196  13.413
61600W        W33915   3.789  31.460   2.270
61601W        W33916  15.544  21.994   0.715
61602W        W33917  34.071  34.536   3.575
61603W        W33918   8.732  19.192  13.426
61604W        W33919  42.841   7.976   3.527
61605W        W33920  38.724  36.790  12.396
61606W        W33921   1.389   0.295   0.083
61607W        W33922  17.209   5.606  13.223
61608W        W33923   9.234  39.571  11.540
61609W        W33924   0.454  15.201  11.970
61610W        W33925  13.221  13.359  13.516
61611W        W33926  18.744   0.044   3.619
61612W        W33927  16.570   6.375   1.649
61613W        W33928  12.723   1.394   0.430
61614W        W33929  23.204  26.145   2.326
61615W        W33930  40.811  41.812  12.928
61616W        W33931  20.089  41.862  14.377
61617W        W33932   0.645   0.487  12.015
61618W        W33933  24.028  34.672  14.043
61619W        W33934  11.308  43.712   0.440
61620W        W33935  32.478  11.169   1.894
61621W        W33936  15.941  10.360  12.944
61622W        W33937  12.586   1.830   0.715
61623W        W33938  38.615  21.619   0.938
61624W        W33939   2.866  24.876   0.193
61625W        W33940  32.465  15.307   1.661
61626W        W33941  10.699  35.288  14.954
61627W        W33942   4.751  41.802  14.601
61628W        W33943   7.645   5.808   1.744
61629W        W33944  38.003  35.442   3.136
61630W        W33945  17.515  25.146  13.387
61631W        W33946   6.639   2.848   3.761
61632W        W33947  14.274  25.927   3.716
61633W        W33948  44.459  11.093   1.747
61634W        W33949  35.958  30.385   2.019
61635W        W33950  33.973   6.711   4.059
61636W        W33951  21.366   7.318   4.134
61637W        W33952  21.593   6.940   1.468
61638W        W33953  39.450  40.516   1.422
61639W        W33954  13.201  14.258   1.922
61640W        W33955  37.410  11.234   1.208
61641W        W33956  21.102  13.801  14.359
61642W        W33957  11.768  18.283  12.560
61643W        W33958  29.790  41.760  11.964
61644W        W33959  13.700  43.487   0.493
61645W        W33960   5.155  18.172  13.826
61646W        W33961  18.045  33.604  14.794
61647W        W33962   1.052  37.989  14.370
61648W        W33963  17.765  22.655   2.507
61649W        W33964  33.556  12.306   3.629
61650W        W33965  20.378  33.104   4.504
61651W        W33966  11.229  41.898   4.861
61652W        W33967  16.387  13.999  14.306
61653W        W33968  17.150  13.994  11.947
61654W        W33969  34.598  18.707   0.386
61655W        W33970  38.852   0.493  11.527
61656W        W33971  20.163  32.364   4.639
61657W        W33972  39.092   8.790  11.031
61658W        W33973  18.901   8.361   4.593
61659W        W33974  17.736  44.489   1.186
61660W        W33975  30.132  16.116  11.179
61661W        W33976  11.908  27.552  13.344
61662W        W33977   6.193  44.052   0.433
61663W        W33978  12.073  14.997  11.120
61664W        W33979   4.005  17.485   2.397
61665W        W33980  11.935  12.295  14.425
61666W        W33981   0.242  21.801  12.872
61667W        W33982  40.432  40.566  13.941
61668W        W33983  20.582  27.486  12.915
61669W        W33984  30.843   9.721   3.148
61670W        W33985   5.927  15.300  11.584
61671W        W33986  37.080  41.870  10.721
61672W        W33987  26.976  28.208  10.532
61673W        W33988  31.013  14.080   2.826
61674W        W33989  14.487  31.481   0.280
61675W        W33990  24.051  40.080   2.580
61676W        W33991  23.261  34.059  11.552
61677W        W33992   9.767  14.237  13.956
61678W        W33993   6.495   3.380  13.839
61679W        W33994  22.249  37.327  11.477
61680W        W33995  41.706  10.253   0.471
61681W        W33996  18.669   4.076   2.266
61682W        W33997   1.665  12.235  11.668
61683W        W33998   1.712  35.621   3.381
61684W        W33999  29.661  28.821  13.382
61685W        W34000  15.064  40.940   3.220
61686W        W34001  25.236   6.795  13.887
61687W        W34002  22.075  10.911   2.728
61688W        W34003  25.492  21.004   0.766
61689W        W34004  34.138   6.231  13.765
61690W        W34005  44.229  28.167   1.103
61691W        W34006  23.193   0.269  10.646
61692W        W34007   3.086  32.745   3.398
61693W        W34008  28.414   1.348  12.957
61694W        W34009  15.388   5.518   1.676
61695W        W34010  13.339  18.653   5.029
61696W        W34011  38.798   2.818   3.945
61697W        W34012   8.788  20.299   1.245
61698W        W34013  13.632  13.805   0.734
61699W        W34014  14.080  26.146  14.376
61700W        W34015  10.689  35.330   1.642
61701W        W34016  32.546  23.775  14.775
61702W        W34017  36.670  44.649   1.517
61703W        W34018  11.728   6.880  10.928
61704W        W34019  15.200  39.550   0.155
61705W        W34020  18.821  31.992  13.031
61706W        W34021  17.198  21.706   3.676
61707W        W34022  39.221   9.914   1.807
61708W        W34023  22.769  35.865   2.717
61709W        W34024  14.531  41.869  12.410
61710W        W34025  43.360  32.317  14.077
61711W        W34026  40.928  43.049  13.387
61712W        W34027   1.870  36.451  10.093
61713W        W34028  39.993   9.347   3.783
61714W        W34029  30.448   0.759  11.596
61715W        W34030  30.116  20.948  10.726
61716W        W34031  27.368  26.487   4.611
61717W        W34032   0.839  29.770  11.557
61718W        W34033  34.366  20.039   1.892
61719W        W34034   9.583  22.656   4.023
61720W        W34035  31.473   5.922   2.801
61721W        W34036  44.548  29.914  12.113
61722W        W34037   2.676  26.570  12.578
61723W        W34038   1.738   8.365  12.875
61724W        W34039  24.789   6.677  14.310
61725W        W34040  23.691  13.818   0.707
61726W        W34041  15.284  31.060  14.577
61727W        W34042  14.580  24.105   1.224
61728W        W34043  40.541  11.356  11.979
61729W        W34044  32.372  33.776   5.036
61730W        W34045  26.609  44.963  12.982
61731W        W34046  31.984   8.692   0.803
61732W        W34047  22.621  18.665  10.868
61733W        W34048  22.706  23.581  10.574
61734W        W34049  25.450  37.514   1.479
61735W        W34050  33.254  29.508  11.942
61736W        W34051   3.756   6.949  14.342
61737W        W34052  41.612  26.626  10.797
61738W        W34053  13.741  35.836   4.136
61739W        W34054  14.085  40.994  11.193
61740W        W34055  14.200  10.502   2.692
61741W        W34056  38.927  30.102  13.479
61742W        W34057  37.677   3.900   0.962
61743W        W34058  27.109  21.874  13.778
61744W        W34059  39.042  10.366   2.707
61745W        W34060   4.239   3.005   0.155
61746W        W34061  16.806   5.675  11.520
61747W        W34062   7.924  42.547  12.488
61748W        W34063  40.520   1.426   2.750
61749W        W34064  15.324  18.744   3.220
61750W        W34065  12.829  43.435   1.911
61751W        W34066  40.880   5.218  10.949
61752W        W34067  27.461  37.126  12.029
61753W        W34068  28.162  20.261   2.817
61754W        W34069   3.190  41.121   0.314
61755W        W34070   8.239  31.322  11.131
61756W        W34071  32.996  29.666   0.356
61757W        W34072   0.496  29.835  13.404
61758W        W34073   2.551  25.405   1.515
61759W        W34074  17.563  13.575   3.223
61760W        W34075  21.555   8.063  11.172
61761W        W34076  36.884   6.932  12.114
61762W        W34077   0.816   7.565   2.669
61763W        W34078  12.424  12.385  14.265
61764W        W34079  22.940  28.171   4.890
61765W        W34080  26.048  20.710   2.423
61766W        W34081  14.803  29.569  13.402
61767W        W34082  25.251  37.117  12.028
61768W        W34083  33.545   7.924  12.573
61769W        W34084  19.455  18.519   4.207
61770W        W34085  42.933  32.811  11.156
61771W        W34086  10.287   9.201  11.827
61772W        W34087  20.025  33.906   2.217
61773W        W34088  44.955   4.779  11.145
61774W        W34089  35.058  31.156   4.155
61775W        W34090  29.104   6.766  11.159
61776W        W34091  14.891   4.741   2.163
61777W        W34092  32.099  36.759  10.529
61778W        W34093  43.485  25.901   3.181
61779W        W34094  16.419  33.455   2.244
61780W        W34095   2.776  34.571  13.891
61781W        W34096  12.216  18.633  14.338
61782W        W34097   5.256  10.740   1.680
61783W        W34098  15.366  21.123  11.159
61784W        W34099  26.654  33.852  14.521
61785W        W34100   4.160  40.717   0.935
61786W        W34101  25.571  28.734  13.300
61787W        W34102   8.038  24.361   1.699
61788W        W34103  31.683  33.992  11.120
61789W        W34104  29.614  18.255  13.111
61790W        W34105  34.582  20.661  10.564
61791W        W34106  27.175  42.492  14.448
61792W        W34107  36.576  39.390   2.069
61793W        W34108  34.431  33.160   0.730
61794W        W34109  28.130  41.062  12.079
61795W        W34110  23.777   8.291   3.131
61796W        W34111   6.854  33.089   3.081
61797W        W34112   1.381  35.634  11.506
61798W        W34113  24.428  15.849  13.928
61799W        W34114   8.179  31.876  14.018
61800W        W34115   6.982  23.914   1.543
61801W        W34116  22.482  40.706  12.399
61802W        W34117  20.146  32.378   0.547
61803W        W34118  20.671   6.359   2.387
61804W        W34119  39.989  16.742  14.792
61805W        W34120  23.749  33.392   4.073
61806W        W34121  30.556  17.621  10.776
61807W        W34122  37.500  21.524   5.199
61808W        W34123  42.748  17.913   2.316
61809W        W34124  36.356  27.656  11.932
61810W        W34125  25.971   0.888   0.000
61811W        W34126  28.089  24.104   2.355
61812W        W34127  18.835  23.293   3.068
61813W        W34128   3.294  19.069   2.611
61814W        W34129  42.757  41.502  10.943
61815W        W34130  34.963  34.905  10.905
61816W        W34131  39.379  34.858   0.477
61817W        W34132   9.407   1.653   2.406
61818W        W34133  16.505   5.597   3.854
61819W        W34134  34.822  12.686  14.008
61820W        W34135  44.554  14.261  12.009
61821W        W34136  37.905  25.401   3.325
61822W        W34137  25.745  31.559   4.974
61823W        W34138  12.049  27.900  12.919
61824W        W34139  40.321   0.586  12.838
61825W        W34140  41.919  35.556  14.226
61826W        W34141  35.997  28.472  12.382
61827W        W34142  41.469  15.705   4.167
61828W        W34143   0.607  22.740  13.809
61829W        W34144  23.244   6.769   2.754
61830W        W34145  38.948  27.495   2.226
61831W        W34146  17.671  35.982  13.449
61832W        W34147  19.267  30.581  11.882
61833W        W34148  34.081  36.386  14.471
61834W        W34149  16.534  34.547   2.153
61835W        W34150  30.942  14.221   3.697
61836W        W34151  41.992   7.722  14.992
61837W        W34152  35.651   6.802  10.792
61838W        W34153  10.372  43.367  14.982
61839W        W34154  20.596  34.630  14.178
61840W        W34155  29.099  28.287   1.201
61841W        W34156  31.173  42.789   4.567
61842W        W34157  42.952  42.327   3.289
61843W        W34158  23.975  29.363   2.416
61844W        W34159  33.983  38.400   2.715
61845W        W34160  31.041   4.903   3.205
61846W        W34161   6.291  40.363  10.633
61847W        W34162   9.932  40.263   1.877
61848W        W34163   1.288  22.762  11.970
61849W        W34164  25.204  24.208   0.353
61850W        W34165  42.620  20.103  14.204
61851W        W34166  32.674  19.644  13.026
61852W        W34167  25.565  20.127  14.683
61853W        W34168  16.907  27.390  13.525
61854W        W34169  13.815   1.962  14.921
61855W        W34170   9.172  21.969   3.418
61856W        W34171   8.316  18.117  11.522
61857W        W34172  28.643  20.580  14.057
61858W        W34173  34.591  21.303  14.382
61859W        W34174  13.132  11.552  11.005
61860W        W34175  37.105   5.120   3.208
61861W        W34176  14.981  38.608   1.749
61862W        W34177  27.201   0.906   0.694
61863W        W34178  34.434   0.014   2.641
61864W        W34179  32.016  31.651  12.631
61865W        W34180   6.231  18.175   2.640
61866W        W34181  12.492  23.653  13.583
61867W        W34182   3.899   9.852   4.131
61868W        W34183  26.678   4.221   1.908
61869W        W34184  38.486  39.729  10.523
61870W        W34185  32.564   1.844  11.573
61871W        W34186  15.024  44.525   4.544
61872W        W34187  17.924  36.077   4.088
61873W        W34188  27.933  32.823   0.152
61874W        W34189  27.263   7.313   3.941
61875W        W34190  27.275  17.819  14.213
61876W        W34191  30.817  13.253   3.963
61877W        W34192  14.259  37.877  11.384
61878W        W34193  42.801  19.524   2.878
61879W        W34194  24.166  14.094   2.298
61880W        W34195   9.138  38.381   1.838
61881W        W34196  17.768  20.635   2.220
61882W        W34197  33.605  11.641   0.933
61883W        W34198  15.270   8.581   4.333
61884W        W34199  42.211   8.425  11.046
61885W        W34200   2.768  39.847  11.660
61886W        W34201  42.366  25.624   1.140
61887W        W34202  33.884  17.457  12.396
61888W        W34203  27.202  18.104   1.377
61889W        W34204  43.644   5.790  13.200
61890W        W34205  12.302  33.844   4.355
61891W        W34206  17.492  26.768   3.833
61892W        W34207  18.470   9.163  11.369
61893W        W34208  28.354  22.767  12.511
61894W        W34209  35.730  32.472   2.750
61895W        W34210  43.324  15.063   2.861
61896W        W34211  29.527  13.581   2.021
61897W        W34212   5.664  28.299   1.332
61898W        W34213  42.678  19.023  12.463
61899W        W34214  16.627  33.894   3.261
61900W        W34215  30.953   9.932   3.627
61901W        W34216  22.199   0.872  13.843
61902W        W34217  29.593  39.793   0.335
61903W        W34218  36.849  32.135   2.124
61904W        W34219  35.556  44.417  12.983
61905W        W34220  25.434  13.778   4.348
61906W        W34221  43.496  35.345  13.292
61907W        W34222   7.777  10.171   3.599
61908W        W34223  39.706  30.019   1.369
61909W        W34224  25.665  44.422  11.628
61910W        W34225  30.570  17.067  14.691
61911W        W34226  44.983  25.216   3.133
61912W        W34227  25.439   1.827   3.613
61913W        W34228  40.522   0.746   5.078
61914W        W34229  32.764  22.897   2.626
61915W        W34230   4.247  15.961  11.576
61916W        W34231   8.476  15.511   1.836
61917W        W34232  14.152  25.093   4.872
61918W        W34233  42.838  32.876   3.749
61919W        W34234  16.190  22.162  13.122
61920W        W34235  14.680   7.894  12.477
61921W        W34236  30.051   2.299   1.194
61922W        W34237   6.288  14.635  10.466
61923W        W34238  15.712   6.272  13.727
61924W        W34239  27.298   7.212   0.795
61925W        W34240   5.971   0.788  12.088
61926W        W34241  18.967   8.365  12.499
61927W        W34242   6.660  43.833   1.137
61928W        W34243  22.446  17.258  10.699
61929W        W34244  16.578  34.475  14.232
61930W        W34245  39.443  13.702  12.791
61931W        W34246   5.727  32.571   1.318
61932W        W34247  32.048  28.504   3.976
61933W        W34248  32.700  35.630  12.070
61934W        W34249  41.400  31.210  12.401
61935W        W34250   4.731  32.584  14.032
61936W        W34251  15.106  36.918  14.748
61937W        W34252  32.399  14.236   0.881
61938W        W34253  30.820  34.663   1.760
61939W        W34254   2.872  10.447  10.028
61940W        W34255  31.633  36.953  13.240
61941W        W34256  31.356  43.502  13.102
61942W        W34257  21.191  36.661   4.133
61943W        W34258   7.356  35.069   2.694
61944W        W34259  27.292  29.115  13.188
61945W        W34260  28.462  23.287  11.248
61946W        W34261  38.222   9.584   4.020
61947W        W34262   8.182  43.715  14.960
61948W        W34263  23.724  22.696   3.291
61949W        W34264  24.568  44.067   1.265
61950W        W34265   5.317   3.785   2.298
61951W        W34266  32.629  38.279   2.834
61952W        W34267  19.693  39.334  13.853
61953W        W34268  40.383  35.856  11.650
61954W        W34269  25.008   0.916  11.065
61955W        W34270  42.301  21.977  12.033
61956W        W34271  39.743  21.090   3.641
61957W        W34272  25.035  19.941   3.256
61958W        W34273  34.017  34.148   4.906
61959W        W34274  25.997   5.505   2.262
61960W        W34275   3.685   5.523  11.362
61961W        W34276  33.985  43.345   3.767
61962W        W34277  15.045  33.448  14.802
61963W        W34278  22.260  28.599  11.542
61964W        W34279  42.544  22.391   2.355
61965W        W34280  35.713  39.910  14.361
61966W        W34281  18.613  41.392   9.873
61967W        W34282   4.370   4.774  14.082
61968W        W34283   1.288  35.910  14.673
61969W        W34284  36.312  43.292  12.482
61970W        W34285  37.269  34.650   2.745
61971W        W34286  24.787  22.588  11.919
61972W        W34287  28.165  33.385  10.104
61973W        W34288  23.142   5.241  12.527
61974W        W34289  43.808  44.782  13.633
61975W        W34290  18.861   0.371   4.657
61976W        W34291  12.314   6.717  14.752
61977W        W34292   5.682  39.855  13.854
61978W        W34293   4.273  39.089  13.796
61979W        W34294  23.769  23.810  14.979
61980W        W34295  35.040  28.908   1.420
61981W        W34296  30.955   1.989   4.194
61982W        W34297  39.627  12.645   3.509
61983W        W34298  10.105  15.104  12.405
61984W        W34299   2.465  32.473  10.427
61985W        W34300  31.498  17.388  11.089
61986W        W34301   4.493  20.541  13.393
61987W        W34302  22.465  27.604   1.253
61988W        W34303  42.863  31.517   3.612
61989W        W34304  40.350  12.735   4.338
61990W        W34305  10.101  27.390   1.294
61991W        W34306  29.886  17.091   3.701
61992W        W34307  11.027  41.066  11.530
61993W        W34308  11.382  15.654   3.193
61994W        W34309  14.506  40.123  11.639
61995W        W34310  24.455   6.461  13.975
61996W        W34311  35.828  20.036   2.367
61997W        W34312  25.291  32.919  14.889
61998W        W34313  12.711   0.061   2.649
61999W        W34314   1.935  25.919   4.128
62000W        W34315  25.381  20.593   1.635
62001W        W34316  33.342  29.589   4.129
62002W        W34317  17.676  27.169  14.916
62003W        W34318   6.987   4.145  13.499
62004W        W34319  38.854  10.828   0.044
62005W        W34320  38.019  41.657  11.103
62006W        W34321  43.234  28.427   1.206
62007W        W34322  25.394  13.183  13.466
62008W        W34323   9.673  14.236  14.459
62009W        W34324   9.090  19.316   3.686
62010W        W34325  15.752  14.605   3.703
62011W        W34326   2.896  40.316   1.316
62012W        W34327   3.614  42.554  10.752
62013W        W34328  40.094  25.433   1.998
62014W        W34329  30.548  38.084   3.318
62015W        W34330  42.320  21.488   0.330
62016W        W34331   6.193  39.823  11.209
62017W        W34332  10.565  34.522  11.515
62018W        W34333  26.984   9.519  13.987
62019W        W34334  41.462  41.023  11.962
62020W        W34335  23.707  30.579  10.678
62021W        W34336  32.596  38.944  11.662
62022W        W34337   5.251  10.092   4.357
62023W        W34338  17.399  27.631   9.699
62024W        W34339  27.585  22.360   1.611
62025W        W34340  20.811  33.905   3.707
62026W        W34341  27.179  34.477   4.902
62027W        W34342   5.769  11.655   4.509
62028W        W34343  26.928  18.056   1.807
62029W        W34344   8.436   4.858  14.319
62030W        W34345  25.413  30.149  13.511
62031W        W34346  37.440  40.972   1.247
62032W        W34347  26.445  40.875  11.550
62033W        W34348  16.243  33.584   1.780
62034W        W34349  40.532  44.807  14.860
62035W        W34350  19.809  42.701  13.008
62036W        W34351   1.685  33.275   4.955
62037W        W34352  44.541  39.252  12.224
62038W        W34353  43.789  21.664  14.386
62039W        W34354  32.631  27.135  11.547
62040W        W34355  44.408  10.011   9.840
62041W        W34356  10.102  39.023  11.129
62042W        W34357  11.276  26.933  13.648
62043W        W34358  35.942  38.842   3.263
62044W        W34359  28.889  21.619  12.732
62045W        W34360  32.962   0.267  10.587
62046W        W34361  18.187  37.185  12.332
62047W        W34362  41.697   8.271   0.866
62048W        W34363  34.579  14.268  12.050
62049W        W34364   7.599  29.595   2.437
62050W        W34365  10.406  31.298   1.331
62051W        W34366  34.875  20.015  14.522
62052W        W34367  27.927  21.597  11.959
62053W        W34368  14.088   5.915  12.262
62054W        W34369  23.256   8.342  10.949
62055W        W34370  13.794  26.142   3.711
62056W        W34371  33.400  37.650  11.646
62057W        W34372   1.840  31.579   4.119
62058W        W34373  14.620   5.826   1.881
62059W        W34374  16.019  27.132   2.758
62060W        W34375  17.639  10.884  12.383
62061W        W34376  13.183  11.526   4.164
62062W        W34377  39.177   4.237  10.699
62063W        W34378  30.936  24.981   0.768
62064W        W34379  10.964  38.056   3.886
62065W        W34380  16.935  43.078  14.393
62066W        W34381  30.898   3.648  12.548
62067W        W34382   4.438  40.309   4.125
62068W        W34383  44.479  40.468  13.384
62069W        W34384  12.859  16.822   4.518
62070W        W34385   6.735  28.126   3.309
62071W        W34386  31.282  37.338   3.783
62072W        W34387  25.465  12.773   3.184
62073W        W34388  33.077  17.526   2.199
62074W        W34389  12.838  14.755  11.155
62075W        W34390  19.679  16.290   3.622
62076W        W34391   0.477  24.168   4.496
62077W        W34392  21.859  44.436  12.096
62078W        W34393  16.388   1.429  14.928
62079W        W34394   5.164  26.491  12.975
62080W        W34395  39.070   3.714   2.791
62081W        W34396  21.795  40.259   2.881
62082W        W34397  10.116  12.048  13.983
62083W        W34398  35.611  32.385  11.496
62084W        W34399  18.832   6.142   2.395
62085W        W34400  34.828  19.065   2.716
62086W        W34401   5.938   1.778  14.616
62087W        W34402   2.189  12.133  12.575
62088W        W34403  15.309  11.068   1.379
62089W        W34404  36.879  13.673   4.665
62090W        W34405  37.363  25.555  14.952
62091W        W34406   8.043   2.639   1.363
62092W        W34407   5.587   3.248   1.337
62093W        W34408  34.471  10.431   4.302
62094W        W34409   1.899   6.258   4.241
62095W        W34410  39.830  24.155  13.998
62096W        W34411  19.609   3.610   4.753
62097W        W34412  25.358  34.015   3.895
62098W        W34413  28.465  25.398   2.443
62099W        W34414  42.004   8.066  12.412
62100W        W34415  19.458  32.086  14.417
62101W        W34416  40.597  19.323  13.280
62102W        W34417  22.096  39.350  12.568
62103W        W34418  27.736  15.120  13.417
62104W        W34419  26.596  31.196   3.982
62105W        W34420  30.666  11.391  11.429
62106W        W34421  24.435  26.590  13.016
62107W        W34422  16.806   8.698  12.886
62108W        W34423  40.851  43.888   0.266
62109W        W34424  33.031  36.079   3.492
62110W        W34425  28.666  12.377  11.565
62111W        W34426  14.385  29.005   1.750
62112W        W34427  44.479   0.345   0.179
62113W        W34428  30.063  41.027  13.012
62114W        W34429  17.180  26.962  11.073
62115W        W34430  11.162   7.768   2.372
62116W        W34431  37.430  29.498   2.929
62117W        W34432  20.915  23.756  11.210
62118W        W34433  39.905  17.107  12.899
62119W        W34434  24.663   0.044  12.078
62120W        W34435  35.086  23.258   1.800
62121W        W34436  15.127  43.841  12.325
62122W        W34437   1.277   3.366   0.667
62123W        W34438  41.444  29.431  13.480
62124W        W34439  34.999   2.605   1.619
62125W        W34440   9.724  39.502  12.870
62126W        W34441  10.963   8.627  11.537
62127W        W34442  12.616  15.744   0.822
62128W        W34443   2.741  19.230   2.330
62129W        W34444   8.146  12.268  14.337
62130W        W34445  14.167   9.110  11.302
62131W        W34446   3.480  32.511   4.983
62132W        W34447   3.531  19.069   0.267
62133W        W34448   1.884   2.177   4.479
62134W        W34449  40.305  27.193   4.542
62135W        W34450   6.475   6.907  12.469
62136W        W34451  10.270  22.145   1.717
62137W        W34452  17.155  23.436  10.742
62138W        W34453  37.707   7.890   5.185
62139W        W34454  30.100   8.744   4.232
62140W        W34455  39.846   3.992   3.195
62141W        W34456   1.486  43.351   1.312
62142W        W34457  10.469  25.551  12.819
62143W        W34458  28.504  24.208  13.003
62144W        W34459  22.128  27.993   1.509
62145W        W34460   0.000  15.783  14.056
62146W        W34461  42.401   4.716  10.475
62147W        W34462  38.376  27.116   1.922
62148W        W34463  35.609  38.729  11.230
62149W        W34464  12.615  40.195   3.929
62150W        W34465   3.784  28.212   0.497
62151W        W34466  23.721  11.896   4.080
62152W        W34467  26.903  31.105  14.937
62153W        W34468   1.459  26.141   0.008
62154W        W34469   1.023   0.271  12.941
62155W        W34470  43.517  27.209  10.591
62156W        W34471   8.501  16.694   1.535
62157W        W34472  25.219   1.813  12.112
62158W        W34473   6.062   3.666   1.790
62159W        W34474  11.369  23.060   2.345
62160W        W34475  44.770  28.983  11.130
62161W        W34476  24.585  29.920   4.349
62162W        W34477  34.023   1.121   1.901
62163W        W34478  12.660   6.817   3.220
62164W        W34479   7.387  22.151  13.884
62165W        W34480   5.455  12.999  12.160
62166W        W34481  25.227  14.803   3.674
62167W        W34482  31.435  25.972   4.649
62168W        W34483  12.376  41.629  14.315
62169W        W34484  13.619   5.054  14.279
62170W        W34485  43.829   8.026  12.854
62171W        W34486   2.865  23.099  14.423
62172W        W34487  19.106  31.479   4.614
62173W        W34488  43.315  14.208   2.231
62174W        W34489  28.015  12.837   5.091
62175W        W34490  14.201  35.066  12.563
62176W        W34491  37.415  38.959   5.057
62177W        W34492  15.834   9.382  11.080
62178W        W34493  14.971  23.185   3.461
62179W        W34494   2.724   9.952   1.583
62180W        W34495  44.018  25.417   1.327
62181W        W34496  44.013  36.901   4.489
62182W        W34497   8.996   9.373  14.680
62183W        W34498  16.983  41.313  14.037
62184W        W34499  20.486   0.167  13.382
62185W        W34500   3.569   1.713   2.150
62186W        W34501  38.987  40.967   2.886
62187W        W34502  27.025   3.517   1.868
62188W        W34503   4.864  34.182   4.366
62189W        W34504   7.212  30.301   1.319
62190W        W34505   1.730   6.353   1.263
62191W        W34506  28.556  27.078   2.781
62192W        W34507  41.582  23.107   3.778
62193W        W34508  42.266  15.991  13.032
62194W        W34509  18.546  23.809   9.771
62195W        W34510  10.055  10.776  12.901
62196W        W34511  18.994   0.755  12.010
62197W        W34512  41.144  44.046  12.646
62198W        W34513  21.925  17.807   4.438
62199W        W34514  35.525   8.310   3.518
62200W        W34515   9.948  32.487   0.423
62201W        W34516   6.529  12.839   1.830
62202W        W34517  35.491   6.318  14.134
62203W        W34518   0.420  31.940  13.268
62204W        W34519   9.938  39.762   0.168
62205W        W34520   3.261   3.679   3.328
62206W        W34521  18.504  38.427  14.222
62207W        W34522  13.750  42.826  13.316
62208W        W34523  18.344  33.826  11.121
62209W        W34524  28.990  41.028  14.807
62210W        W34525  10.246  16.499   2.283
62211W        W34526  43.799  19.115   4.616
62212W        W34527  26.267  37.489  13.910
62213W        W34528  23.161  10.224  11.438
62214W        W34529  12.727   0.853   1.650
62215W        W34530  37.040  22.642   3.360
62216W        W34531  14.197   7.965  13.383
62217W        W34532  31.935  33.391   2.296
62218W        W34533  11.143   9.866   0.281
62219W        W34534  22.960  32.944  11.160
62220W        W34535  10.577  31.224  10.845
62221W        W34536  25.625  39.285   2.157
62222W        W34537  40.554  21.570  14.891
62223W        W34538  40.458  17.611  14.469
62224W        W34539  43.406  32.224   1.663
62225W        W34540  31.529  27.019  13.444
62226W        W34541  37.106  38.947   3.217
62227W        W34542   7.604  32.480  13.954
62228W        W34543  14.399  20.025  11.133
62229W        W34544  26.676  19.885  11.795
62230W        W34545  13.802  37.570  10.846
62231W        W34546   2.956  17.272   5.099
62232W        W34547  38.592  11.713   0.343
62233W        W34548   6.913  38.929   2.720
62234W        W34549   8.660   4.581  11.316
62235W        W34550   6.296   2.401   3.024
62236W        W34551   9.226  21.861  12.194
62237W        W34552   7.118  18.050   4.091
62238W        W34553  31.214   6.226   0.679
62239W        W34554   0.286  19.089   3.744
62240W        W34555  20.415  18.078   2.483
62241W        W34556   6.434  24.194  13.060
62242W        W34557  20.938  33.552   0.292
62243W        W34558  18.199  38.666   5.666
62244W        W34559  14.526  34.965  11.691
62245W        W34560  24.743  28.069   4.320
62246W        W34561  42.981  41.572  14.353
62247W        W34562  10.048  12.154   2.255
62248W        W34563  42.988  44.891   4.480
62249W        W34564   1.985  10.314  11.711
62250W        W34565  24.929  30.334   3.193
62251W        W34566  37.341  32.052   1.245
62252W        W34567  30.054  29.379  10.659
62253W        W34568   7.955   8.318   1.704
62254W        W34569   9.367  42.347  13.596
62255W        W34570  43.287  40.306   0.845
62256W        W34571  21.787  10.747   3.621
62257W        W34572   4.791  28.615   0.021
62258W        W34573  11.597  12.730   0.737
62259W        W34574  29.714  29.089   3.567
62260W        W34575  27.878  30.580  14.502
62261W        W34576   6.829  28.586   0.866
62262W        W34577  23.788  43.010   0.742
62263W        W34578  21.103   7.285  13.071
62264W        W34579  21.538   6.311  14.770
62265W        W34580  33.659  34.786  10.835
62266W        W34581  34.350  39.305  13.193
62267W        W34582  34.231  26.061   0.439
62268W        W34583  25.694  32.905  13.017
62269W        W34584  25.908  42.808   4.145
62270W        W34585   3.332   5.956  12.725
62271W        W34586  44.933  15.182  11.812
62272W        W34587   5.319  32.643  12.595
62273W        W34588  17.787  25.618  13.333
62274W        W34589  33.859  25.436   1.901
62275W        W34590   1.782  31.599  13.471
62276W        W34591   4.259   2.958   4.658
62277W        W34592  34.410   5.918   4.083
62278W        W34593  14.219  28.951   0.914
62279W        W34594  33.956  35.119   1.557
62280W        W34595  14.274  37.836   3.825
62281W        W34596  13.976  43.849  14.578
62282W        W34597   2.170  26.884   3.769
62283W        W34598  12.620  15.067   3.385
62284W        W34599  34.492  23.577  14.499
62285W        W34600  27.361   1.811  14.713
62286W        W34601  16.622   1.340   4.660
62287W        W34602   8.166  18.017  11.994
62288W        W34603  24.320  38.850  13.839
62289W        W34604  33.363  29.172  10.498
62290W        W34605  35.137   5.696   1.369
62291W        W34606  35.328  23.740   1.813
62292W        W34607  41.087  25.213   9.879
62293W        W34608  28.593  16.876   0.452
62294W        W34609  35.298   8.737  13.132
62295W        W34610   5.858  43.000  11.172
62296W        W34611  16.562  38.518  11.954
62297W        W34612  38.098  40.301  14.189
62298W        W34613   2.936   4.115  11.981
62299W        W34614  12.716  44.064   2.865
62300W        W34615  32.450  22.743   3.831
62301W        W34616   2.459  38.916   0.395
62302W        W34617  38.607  15.179   0.313
62303W        W34618  36.489   2.443   2.173
62304W        W34619  11.713  20.176   1.782
62305W        W34620  28.328   1.948   2.778
62306W        W34621  42.710  33.451  12.904
62307W        W34622   4.707  13.865  13.588
62308W        W34623  44.233  19.765   2.044
62309W        W34624  40.493   0.811  10.618
62310W        W34625  39.394  27.105   0.364
62311W        W34626   5.264  39.168  14.700
62312W        W34627  19.198   7.950   0.670
62313W        W34628  11.779  44.250  10.854
62314W        W34629  26.989  15.715  14.605
62315W        W34630   3.454  27.754   1.395
62316W        W34631  19.561  25.866  12.051
62317W        W34632  38.947  44.229   9.910
62318W        W34633  26.417  36.073  13.943
62319W        W34634  35.349  34.903   0.819
62320W        W34635  37.931  12.063   2.263
62321W        W34636   0.362   1.053   3.258
62322W        W34637  25.007  24.960   2.810
62323W        W34638  36.684   9.621   0.461
62324W        W34639  22.658  31.635   0.206
62325W        W34640  41.093   3.275  12.140
62326W        W34641   7.766   8.837  14.842
62327W        W34642  18.184  15.594  11.700
62328W        W34643  16.743  25.881   3.464
62329W        W34644  28.457  19.605  13.069
62330W        W34645  19.467  30.809   4.990
62331W        W34646  26.678  14.309   4.164
62332W        W34647  32.064  22.227   2.187
62333W        W34648  19.072  44.574   1.251
62334W        W34649   3.288  18.526  13.056
62335W        W34650  26.203  39.966  13.936
62336W        W34651   8.189  21.436  12.881
62337W        W34652   9.647  10.171  13.877
62338W        W34653  12.819  25.466   1.740
62339W        W34654  27.907  14.318  11.167
62340W        W34655  42.064  34.452   4.793
62341W        W34656   5.405  42.429  12.013
62342W        W34657   5.289   7.143  13.438
62343W        W34658  31.066   4.917  12.873
62344W        W34659   4.351  12.966   3.211
62345W        W34660   4.657  41.465  11.628
62346W        W34661  10.557  40.439  11.989
62347W        W34662  13.813   5.822  13.070
62348W        W34663  17.326  32.072  12.257
62349W        W34664  30.473  44.341  10.658
62350W        W34665   6.649   8.236   0.426
62351W        W34666  23.134  33.900  14.476
62352W        W34667  17.160  43.559   0.660
62353W        W34668  13.157   4.179  11.276
62354W        W34669   1.722  30.114  11.885
62355W        W34670  20.241  37.260  11.314
62356W        W34671   4.767  15.649  13.710
62357W        W34672  24.933  19.913  10.837
62358W        W34673   9.446   2.987   2.646
62359W        W34674  21.429  15.123   0.729
62360W        W34675   9.587  10.564   1.474
62361W        W34676  15.674  22.139  13.373
62362W        W34677   1.725  23.756   1.266
62363W        W34678   6.802  33.854  13.463
62364W        W34679  36.475  10.713   3.723
62365W        W34680  15.671  38.542   3.127
62366W        W34681   0.735  33.975   3.211
62367W        W34682   1.503  20.875   3.913
62368W        W34683   9.359  33.853   0.294
62369W        W34684  10.182  21.780   3.216
62370W        W34685  10.436  18.765  13.500
62371W        W34686  29.719   6.371   4.604
62372W        W34687   0.346  17.615  11.582
62373W        W34688   2.130  16.934   0.918
62374W        W34689   5.199  38.564   4.550
62375W        W34690  30.805  36.837  13.486
62376W        W34691  26.012  43.267  12.511
62377W        W34692  28.226  15.169   3.163
62378W        W34693   5.540  25.456  11.168
62379W        W34694  31.858  19.765   3.156
62380W        W34695  27.641  40.940  11.898
62381W        W34696  43.390  43.476   0.587
62382W        W34697  31.379  21.549  12.226
62383W        W34698  29.315  37.255  13.520
62384W        W34699  25.230  21.025   1.355
62385W        W34700  38.176  34.637   3.725
62386W        W34701  20.393  40.440   0.441
62387W        W34702  30.882  19.589  14.775
62388W        W34703  42.311  13.242   0.357
62389W        W34704  28.080  17.483   2.540
62390W        W34705  27.220  15.448   0.459
62391W        W34706  17.722   1.735   1.725
62392W        W34707  27.433  33.383   5.021
62393W        W34708  28.688  30.093  13.078
62394W        W34709  41.448   7.614   2.361
62395W        W34710  14.826   5.870  10.702
62396W        W34711   1.957  19.657   1.049
62397W        W34712   0.444  19.569  13.088
62398W        W34713  14.672  28.383   0.348
62399W        W34714  38.527   5.925   1.437
62400W        W34715  41.889  18.046   1.459
62401W        W34716  16.692  29.998  12.789
62402W        W34717   5.796  11.657  13.820
62403W        W34718   1.318  14.163   1.431
62404W        W34719  26.279  20.349  13.957
62405W        W34720  17.729  23.006   3.507
62406W        W34721   3.795  37.452   1.014
62407W        W34722  39.011  38.373   0.741
62408W        W34723  21.077  18.033  12.950
62409W        W34724  24.599   5.973  11.884
62410W        W34725  19.985  37.630  13.503
62411W        W34726  16.344  35.730  10.455
62412W        W34727  42.247   7.786   1.386
62413W        W34728  13.094  20.096  11.404
62414W        W34729  43.819  15.691   0.065
62415W        W34730  13.161   9.793  13.936
62416W        W34731  34.400  25.711   4.671
62417W        W34732   0.110  38.445  12.359
62418W        W34733   4.200  36.685  12.118
62419W        W34734   6.349  37.450   1.282
62420W        W34735  43.328  40.483   5.042
62421W        W34736  26.967  30.085  14.101
62422W        W34737  40.866  32.462   1.693
62423W        W34738  11.644  38.515  14.337
62424W        W34739  37.152  33.014   0.771
62425W        W34740  14.426   7.334  11.106
62426W        W34741  34.586  33.820  13.513
62427W        W34742   9.548  11.330  14.967
62428W        W34743  37.964   0.420  10.536
62429W        W34744   2.061   0.227   3.361
62430W        W34745  22.150   9.424  12.525
62431W        W34746   8.399  43.554  14.491
62432W        W34747  31.036   6.652   3.240
62433W        W34748  31.365  39.062  12.497
62434W        W34749   5.950   6.925  12.545
62435W        W34750  38.559   6.986  14.457
62436W        W34751   8.104  27.109   1.275
62437W        W34752  34.930   2.362  12.384
62438W        W34753  13.075  38.574   3.249
62439W        W34754   0.292  33.840  13.286
62440W        W34755  38.357  19.246  10.723
62441W        W34756  36.888  36.452   2.190
62442W        W34757   2.732  35.930  10.494
62443W        W34758   4.392  32.869  11.489
62444W        W34759  36.262  17.002   1.654
62445W        W34760  13.514   2.390  14.886
62446W        W34761  10.221  15.194   4.452
62447W        W34762  24.040  42.333  14.815
62448W        W34763  40.633  13.003  13.073
62449W        W34764  35.983  10.776  14.951
62450W        W34765  11.208  14.774   4.139
62451W        W34766  16.917  37.414   2.087
62452W        W34767   1.891  42.286   3.638
62453W        W34768  39.363   0.409   0.894
62454W        W34769  39.480  33.935  12.969
62455W        W34770  39.734   3.803  12.045
62456W        W34771  15.979  26.485   4.722
62457W        W34772  11.144  37.915  10.808
62458W        W34773  43.892  24.163  13.015
62459W        W34774   2.997  44.976   2.759
62460W        W34775  28.190  34.538   3.523
62461W        W34776   7.635  29.117   0.403
62462W        W34777  18.557  33.062  11.568
62463W        W34778  22.742  26.408  14.345
62464W        W34779  41.029  25.478   0.181
62465W        W34780  14.215  18.772  12.518
62466W        W34781  22.715  13.572  13.374
62467W        W34782  10.218  18.776   3.291
62468W        W34783  20.512  30.706   3.203
62469W        W34784   5.676  25.364  13.914
62470W        W34785  10.349  30.081  13.124
62471W        W34786  43.981   9.828   4.971
62472W        W34787  33.697  40.035  12.265
62473W        W34788  28.905  23.583  11.185
62474W        W34789  43.018   1.816  12.482
62475W        W34790  27.697  27.917   4.078
62476W        W34791   4.187  16.052  10.733
62477W        W34792  27.527  32.614  11.561
62478W        W34793   1.595  31.385  12.451
62479W        W34794  40.373  26.167  13.692
62480W        W34795  29.380  11.149  12.675
62481W        W34796   1.546  23.047   2.307
62482W        W34797  14.882   5.869  11.650
62483W        W34798  21.020  31.110  14.770
62484W        W34799  19.175  19.590   4.690
62485W        W34800  22.098  42.684  13.006
62486W        W34801  20.159  37.428   3.822
62487W        W34802  10.627  39.512   1.705
62488W        W34803  22.223   9.827  13.256
62489W        W34804   6.633  23.615   2.327
62490W        W34805  40.545   7.677  14.905
62491W        W34806  21.762   3.224   1.313
62492W        W34807  40.049  40.404  11.986
62493W        W34808  23.229  14.272  12.313
62494W        W34809  33.309  37.106   4.122
62495W        W34810  20.603  40.437  14.744
62496W        W34811   5.162  44.475  10.636
62497W        W34812  36.077  31.171  13.842
62498W        W34813  32.096  28.225  11.258
62499W        W34814  31.455  29.901  12.935
62500W        W34815  41.607  37.645  12.308
62501W        W34816  27.131  10.431  14.125
62502W        W34817  29.165  14.721   4.630
62503W        W34818  10.176  15.515  10.185
62504W        W34819   4.794  43.405   1.812
62505W        W34820  31.609  34.136   3.136
62506W        W34821  34.430  38.036   1.633
62507W        W34822  34.899  29.638  14.287
62508W        W34823  33.187  20.957  10.751
62509W        W34824   5.248  16.099   4.344
62510W        W34825   4.259   4.696   2.807
62511W        W34826  35.979  19.991  12.088
62512W        W34827  12.682  23.588   1.813
62513W        W34828  41.257  18.504  14.898
62514W        W34829  43.592  15.667   3.119
62515W        W34830  44.396  22.972  10.583
62516W        W34831  39.666   0.824  12.041
62517W        W34832   0.276  41.905   0.551
62518W        W34833  33.177   1.935   2.952
62519W        W34834   6.894   5.337   1.467
62520W        W34835  44.313  19.265   4.600
62521W        W34836  13.262  26.658   4.249
62522W        W34837  39.574   8.648   3.268
62523W        W34838   3.001  28.968  11.288
62524W        W34839  13.639   8.821   1.182
62525W        W34840  23.739  17.329   1.419
62526W        W34841  28.132  44.053  10.287
62527W        W34842  21.271   9.913  12.663
62528W        W34843  15.753  32.180   4.576
62529W        W34844  23.428  13.430   2.376
62530W        W34845  18.050  38.835   3.728
62531W        W34846   3.265   3.561   1.852
62532W        W34847  15.072   0.455  14.099
62533W        W34848  41.321   0.972   1.469
62534W        W34849  42.755   1.451  13.975
62535W        W34850  20.812  23.925   3.803
62536W        W34851  34.039  35.504   2.385
62537W        W34852   0.606  44.367  14.450
62538W        W34853  14.116  16.816  13.500
62539W        W34854   6.119  38.269   3.034
62540W        W34855   3.380  16.138   1.357
62541W        W34856  33.832  28.353  13.377
62542W        W34857  22.975  20.253  10.728
62543W        W34858  14.768  40.467  12.868
62544W        W34859   9.297  10.328  10.392
62545W        W34860  21.183  14.288   2.356
62546W        W34861  34.778   3.705  12.956
62547W        W34862   2.752  34.867   0.297
62548W        W34863  10.235  20.775  13.740
62549W        W34864  29.853  39.011   1.015
62550W        W34865  17.174  30.707   4.426
62551W        W34866   9.290  43.941  14.173
62552W        W34867  24.127  13.656   1.906
62553W        W34868  22.757  38.956  12.571
62554W        W34869  32.864  23.080   4.365
62555W        W34870   4.470  15.219  11.415
62556W        W34871  16.143  41.414   3.786
62557W        W34872  42.546   5.199  10.717
62558W        W34873  14.108  29.401   1.968
62559W        W34874   3.643  23.909   3.746
62560W        W34875  11.573  31.983  14.252
62561W        W34876   4.377  15.684   1.421
62562W        W34877  40.331  44.015   0.412
62563W        W34878  20.897   9.969   3.627
62564W        W34879  34.932  26.254  14.577
62565W        W34880  40.012  28.069   1.728
62566W        W34881  38.866  44.585  11.505
62567W        W34882  27.273   8.071  13.556
62568W        W34883  18.785  28.050  11.936
62569W        W34884  15.047  30.451   1.687
62570W        W34885  18.638   1.440  14.375
62571W        W34886   7.660  27.812   3.090
62572W        W34887   5.396  15.758  12.939
62573W        W34888  39.421  21.973   2.850
62574W        W34889  27.010  19.642   2.267
62575W        W34890  17.004  10.874   0.009
62576W        W34891  19.270  38.408   5.048
62577W        W34892  22.759  43.967  11.989
62578W        W34893  25.535  20.653  14.309
62579W        W34894  27.110  39.310   1.051
62580W        W34895  36.002  14.347  13.429
62581W        W34896   0.274  15.561   3.813
62582W        W34897  12.192  39.350  10.898
62583W        W34898  35.803  32.100  11.088
62584W        W34899  12.342  20.049  12.003
62585W        W34900  43.017  31.515  14.926
62586W        W34901  39.358  18.604  11.548
62587W        W34902  11.626  37.959  13.614
62588W        W34903  22.876   2.419  14.100
62589W        W34904  25.628  21.821   5.460
62590W        W34905  11.295   3.500   0.013
62591W        W34906   2.747  20.603   1.755
62592W        W34907  35.594  26.026  13.784
62593W        W34908  33.918  27.093  13.049
62594W        W34909  22.471  33.970  11.015
62595W        W34910  20.023  32.893  12.551
62596W        W34911  11.962   1.229   3.590
62597W        W34912  14.255  19.506   2.948
62598W        W34913  31.044  34.648   1.294
62599W        W34914  17.565  42.299  13.110
62600W        W34915  28.096  29.843   1.944
62601W        W34916  20.935   9.253   0.284
62602W        W34917  39.460  37.118  14.290
62603W        W34918  25.199  43.476  10.364
62604W        W34919  36.486  14.668   3.531
62605W        W34920  25.545  37.484  11.081
62606W        W34921  30.687  30.477   2.215
62607W        W34922  12.862  20.421   1.291
62608W        W34923   6.210   3.366  14.562
62609W        W34924  28.165  36.145   3.837
62610W        W34925  17.274  13.048   3.691
62611W        W34926  10.394  12.781   3.385
62612W        W34927   6.029   2.322  12.469
62613W        W34928  22.257  25.417  11.557
62614W        W34929  35.655   8.465   2.505
62615W        W34930  19.385  25.322  11.178
62616W        W34931  40.404  23.874  13.378
62617W        W34932   5.665  16.014   2.905
62618W        W34933  15.864  30.104   3.993
62619W        W34934  27.864  28.630  14.297
62620W        W34935  43.710  33.463  13.019
62621W        W34936  25.508  36.431   1.644
62622W        W34937  13.226  12.002  14.414
62623W        W34938  34.316  41.121  11.643
62624W        W34939  44.804  17.772  13.379
62625W        W34940   5.254  21.073   2.631
62626W        W34941  15.049  20.977   3.707
62627W        W34942  35.061   6.224  14.935
62628W        W34943  17.028  44.260   3.654
62629W        W34944   5.590  29.470   1.062
62630W        W34945  15.001  29.603  13.921
62631W        W34946  20.184   0.767  10.096
62632W        W34947  39.304  16.697  14.602
62633W        W34948  14.694  39.610   3.865
62634W        W34949  13.075  42.537   3.166
62635W        W34950  26.929  24.576   2.383
62636W        W34951   1.169  29.569  13.364
62637W        W34952  12.107  15.325   1.409
62638W        W34953  11.937  37.613  14.719
62639W        W34954   1.441  35.103  11.553
62640W        W34955   7.210  39.549  12.842
62641W        W34956   4.782  22.220   4.075
62642W        W34957  36.582  37.583  12.150
62643W        W34958  29.346  12.827  11.908
62644W        W34959  10.190  35.843  14.288
62645W        W34960  33.680  32.045  11.899
62646W        W34961   9.737  29.092   2.584
62647W        W34962  10.903  14.208  11.046
62648W        W34963  14.723  38.767  11.159
62649W        W34964  29.640  41.996   3.098
62650W        W34965   2.866  42.281   4.427
62651W        W34966  15.336   6.361   0.014
62652W        W34967  26.691   8.349   2.785
62653W        W34968  38.775  41.768  12.647
62654W        W34969   5.447   4.701  11.504
62655W        W34970  28.082  41.527  14.791
62656W        W34971  37.635  19.268  13.879
62657W        W34972  16.310  20.061   2.326
62658W        W34973  16.538  22.743   2.716
62659W        W34974  39.898  36.872   3.674
62660W        W34975  21.082   2.955  13.062
62661W        W34976  24.696  22.440   1.293
62662W        W34977   1.851  39.331   2.873
62663W        W34978  21.470  44.441   4.254
62664W        W34979  22.598  38.123  13.610
62665W        W34980  24.361  26.644   3.293
62666W        W34981  12.347  14.785  12.319
62667W        W34982   6.265   5.680  10.269
62668W        W34983  33.777  24.423   4.216
62669W        W34984  42.606   7.289  13.527
62670W        W34985   5.243   8.135  13.370
62671W        W34986  35.896  26.660   1.337
62672W        W34987  24.430  44.753  13.962
62673W        W34988  20.042  10.694  11.072
62674W        W34989  42.018  26.481  11.776
62675W        W34990  39.834  10.993   1.307
62676W        W34991  13.126  32.959  13.305
62677W        W34992  34.229  30.148  12.680
62678W        W34993  38.916  39.996  14.560
62679W        W34994  13.299  32.050   0.542
62680W        W34995  19.273  11.795   2.185
62681W        W34996  22.541  11.119  14.763
62682W        W34997   6.763  35.875   0.077
62683W        W34998   4.946   6.310  11.010
62684W        W34999  37.201  29.120   2.327
62685W        W35000  17.760  13.749  13.073
62686W        W35001  18.913  39.738  12.524
62687W        W35002  18.648  36.100   2.351
62688W        W35003  32.849  30.037   0.955
62689W        W35004  30.992   2.839  13.878
62690W        W35005  32.160  34.316  14.780
62691W        W35006   3.945  38.086  12.878
62692W        W35007  15.304  30.985  12.492
62693W        W35008  32.986  25.100   0.935
62694W        W35009  16.940  37.109   2.908
62695W        W35010   7.250  42.876  13.366
62696W        W35011  11.518   7.137  14.887
62697W        W35012  25.467  25.180   2.865
62698W        W35013  39.977   8.272   1.359
62699W        W35014   5.859  31.476  11.619
62700W        W35015  20.229  42.991  11.069
62701W        W35016  33.991   3.203  13.808
62702W        W35017  40.997  18.700  10.351
62703W        W35018  22.450   8.771  13.962
62704W        W35019  43.555  12.872  12.036
62705W        W35020  28.511  36.403   0.534
62706W        W35021  18.083   3.697   1.738
62707W        W35022  18.544  14.817   4.695
62708W        W35023  38.413  43.011   2.675
62709W        W35024  26.134  44.063   3.888
62710W        W35025  24.479  27.787   3.963
62711W        W35026  19.597  23.559  12.541
62712W        W35027  38.276   2.577   4.800
62713W        W35028   1.815   1.796   0.188
62714W        W35029   6.576  39.961   4.041
62715W        W35030   3.930  13.210   4.818
62716W        W35031  14.378  40.830  12.964
62717W        W35032  28.502  28.888  13.899
62718W        W35033   3.495  34.468   1.295
62719W        W35034  34.286  44.321   3.643
62720W        W35035  14.526  19.577  12.056
62721W        W35036  36.953   1.233   1.338
62722W        W35037  30.717  41.570   1.416
62723W        W35038  27.010  35.949   2.334
62724W        W35039  32.188  33.099   3.146
62725W        W35040  29.713  27.006   0.064
62726W        W35041   6.500  20.683   4.047
62727W        W35042  38.969  15.271  10.384
62728W        W35043  21.062  39.054  14.351
62729W        W35044  13.685  33.416   1.588
62730W        W35045  38.146  18.563  14.528
62731W        W35046  44.518  15.762   1.398
62732W        W35047  38.865  32.229   2.372
62733W        W35048   1.686   1.142   0.314
62734W        W35049  16.949  18.332   4.548
62735W        W35050  23.714  12.207  11.805
62736W        W35051  34.959  44.424  11.652
62737W        W35052  36.307  37.999   0.420
62738W        W35053  41.033  37.715  11.422
62739W        W35054  18.029  11.333   9.797
62740W        W35055  29.790  40.691   4.098
62741W        W35056   6.449  22.250   1.927
62742W        W35057  18.591  17.380  14.802
62743W        W35058  21.001  15.288   3.987
62744W        W35059   5.319  41.793   2.586
62745W        W35060  28.701   7.409   0.168
62746W        W35061  22.671   8.357  14.646
62747W        W35062  17.299  30.542  11.829
62748W        W35063  14.294   9.207   2.614
62749W        W35064  16.812  42.869  12.285
62750W        W35065  12.690  20.715   2.696
62751W        W35066  14.156   9.080  14.953
62752W        W35067  26.060   9.426   0.340
62753W        W35068   4.295  20.994   2.583
62754W        W35069   8.876  34.490  13.021
62755W        W35070  25.300   8.488  13.790
62756W        W35071   3.966   8.234   1.024
62757W        W35072  38.867  28.494   4.788
62758W        W35073  27.253  18.804  14.305
62759W        W35074  18.244  26.480  10.435
62760W        W35075   1.905  23.814   2.657
62761W        W35076   3.859  43.255   0.442
62762W        W35077  10.298  27.813   2.296
62763W        W35078  26.493   7.791   2.793
62764W        W35079  20.111  29.420   0.882
62765W        W35080  29.070  40.547  12.416
62766W        W35081  24.107   8.895   4.947
62767W        W35082  17.438  32.145   1.803
62768W        W35083  40.402   1.561   3.591
62769W        W35084  11.393  35.355   0.411
62770W        W35085  29.422   5.705   4.500
62771W        W35086  15.332  11.071   3.291
62772W        W35087   9.911  30.646  10.748
62773W        W35088  26.027  18.675  11.066
62774W        W35089  32.781  39.870  12.396
62775W        W35090  32.037   6.212  10.588
62776W        W35091  12.074  28.498   4.860
62777W        W35092  30.617  32.652   1.881
62778W        W35093  33.146   9.965   4.054
62779W        W35094  33.319  40.236   5.179
62780W        W35095  20.320  41.498   3.813
62781W        W35096  12.839  12.354  12.779
62782W        W35097  44.354   9.571  11.283
62783W        W35098  43.124   1.409   0.382
62784W        W35099  26.952   3.005   3.148
62785W        W35100  19.099  31.753   3.283
62786W        W35101  36.353  35.507  14.906
62787W        W35102  20.223  34.146  13.486
62788W        W35103   4.529  13.607  10.925
62789W        W35104  12.338  33.629   1.997
62790W        W35105  22.785  35.493  12.531
62791W        W35106   3.890  26.122  12.108
62792W        W35107  16.736  23.234   0.486
62793W        W35108   3.563  36.157  14.887
62794W        W35109  27.023  44.499   3.809
62795W        W35110  43.502  34.838  13.173
62796W        W35111  31.638  14.694  13.930
62797W        W35112   8.829  20.508  12.433
62798W        W35113  37.141  39.088   3.717
62799W        W35114  19.691  26.948  13.086
62800W        W35115  30.109  13.206  11.950
62801W        W35116  16.089  42.730  13.349
62802W        W35117  42.658  21.578  10.731
62803W        W35118  12.886  21.793  14.459
62804W        W35119  13.326  21.711  14.120
62805W        W35120  34.077  11.209   1.780
62806W        W35121   5.917  34.934   4.945
62807W        W35122  16.671   2.287   3.751
62808W        W35123  42.727  13.222   2.331
62809W        W35124   2.395  18.718   3.217
62810W        W35125  15.114  40.367   1.944
62811W        W35126  42.940  33.060  14.209
62812W        W35127  24.131  39.157   4.543
62813W        W35128  40.616  36.173   3.840
62814W        W35129  37.069  44.772   0.200
62815W        W35130  40.356  40.097   2.441
62816W        W35131  14.751  20.344   1.107
62817W        W35132  14.872  42.879   1.385
62818W        W35133   0.285  20.567   0.999
62819W        W35134  10.912  14.093  11.964
62820W        W35135  32.805  35.555  14.213
62821W        W35136  11.141  15.619  14.563
62822W        W35137  14.186  32.815  11.227
62823W        W35138  41.938  10.067   2.467
62824W        W35139  16.793  21.000  13.234
62825W        W35140  23.482   2.193  12.088
62826W        W35141  31.422  29.755   2.828
62827W        W35142  13.808  10.263   1.896
62828W        W35143  41.083  27.085  13.790
62829W        W35144  11.204   9.186   3.541
62830W        W35145  27.842  21.095   3.189
62831W        W35146  44.828  28.667   0.303
62832W        W35147  44.242  12.292   0.483
62833W        W35148  37.377  31.006  11.663
62834W        W35149  22.191  39.017   1.761
62835W        W35150   6.471  18.735  11.685
62836W        W35151  42.680  17.724  14.710
62837W        W35152  22.068  31.043   2.882
62838W        W35153   6.890  43.379   3.900
62839W        W35154  28.187  29.094   0.749
62840W        W35155  16.714  30.192   9.811
62841W        W35156  12.959  36.136   0.927
62842W        W35157  33.104  21.070  14.281
62843W        W35158  20.314  44.435  10.349
62844W        W35159  33.622  12.348  13.119
62845W        W35160   9.106  43.668   4.243
62846W        W35161  16.552  17.234  10.350
62847W        W35162   2.361  16.262  14.998
62848W        W35163  11.804  18.270  10.344
62849W        W35164  18.551   8.332   1.852
62850W        W35165  17.551  39.493  14.780
62851W        W35166  31.585  11.337  11.925
62852W        W35167  43.860  43.293   3.183
62853W        W35168  11.893  16.170  13.090
62854W        W35169   0.656  10.675   0.975
62855W        W35170   1.220  26.116  13.763
62856W        W35171  35.885   0.219  14.406
62857W        W35172   3.338  43.398  11.215
62858W        W35173  13.149  18.053  12.809
62859W        W35174  27.617  14.868   2.250
62860W        W35175  38.324  36.157  14.280
62861W        W35176  42.239  42.758   1.412
62862W        W35177  37.581  17.224   1.271
62863W        W35178  29.750  21.279  13.937
62864W        W35179   6.906   2.562   1.897
62865W        W35180   5.874  29.617  10.711
62866W        W35181  19.625  44.647  11.972
62867W        W35182  28.850  23.351  11.659
62868W        W35183   5.987  20.748   4.080
62869W        W35184  10.747  11.436   2.222
62870W        W35185  23.219  16.082  12.059
62871W        W35186  34.547  19.990   3.752
62872W        W35187  23.025  41.216   2.761
62873W        W35188  37.340  10.143  10.734
62874W        W35189  40.106   5.982  13.554
62875W        W35190  32.990   8.789  11.950
62876W        W35191  13.133  37.119  12.410
62877W        W35192  19.126  20.688  10.568
62878W        W35193  18.183  22.678   3.388
62879W        W35194  38.832  38.903   4.182
62880W        W35195  26.178   5.545  14.551
62881W        W35196  35.131  41.284   2.909
62882W        W35197  19.069  24.971   1.978
62883W        W35198  16.355   5.600  13.872
62884W        W35199  36.617   1.226  12.466
62885W        W35200  29.483   1.209  12.613
62886W        W35201  29.604   4.841  11.989
62887W        W35202  41.305   0.997   4.205
62888W        W35203   4.284  26.595   2.693
62889W        W35204  17.586  25.583   0.847
62890W        W35205  35.015  32.654   2.248
62891W        W35206  17.217  41.868  10.333
62892W        W35207  24.061  13.547   0.405
62893W        W35208  41.291  14.997  13.624
62894W        W35209  16.037  34.344   1.396
62895W        W35210  23.139  15.083   1.517
62896W        W35211  41.276  22.697   1.998
62897W        W35212  27.201  38.940   0.628
62898W        W35213   4.316  41.993  12.327
62899W        W35214  24.699   6.359  10.918
62900W        W35215  22.859  12.892  13.028
62901W        W35216   9.326  35.018  14.661
62902W        W35217   5.336  30.125   4.510
62903W        W35218  36.880  14.335  11.549
62904W        W35219  15.121  33.737  12.415
62905W        W35220  14.434   5.858  14.978
62906W        W35221  27.101   4.328  14.668
62907W        W35222  31.512  21.020   0.484
62908W        W35223  15.609  32.230  12.057
62909W        W35224   9.025  12.821   4.136
62910W        W35225  15.807  29.796   0.531
62911W        W35226  17.237  19.774   2.573
62912W        W35227  30.699   4.227  12.913
62913W        W35228  43.794  29.498  11.143
62914W        W35229  40.327  34.596  14.154
62915W        W35230  32.464   9.007   4.573
62916W        W35231  38.048  29.102   4.054
62917W        W35232  17.696  23.750   1.180
62918W        W35233  42.110  38.885   0.832
62919W        W35234   2.486  35.614   1.398
62920W        W35235  31.518  16.881   3.183
62921W        W35236  15.038  15.349   0.340
62922W        W35237   8.295  17.597   0.808
62923W        W35238  43.480   5.240  12.988
62924W        W35239  11.782  31.136  14.055
62925W        W35240   3.910  44.271   0.219
62926W        W35241   1.592  44.367  10.826
62927W        W35242   2.514  42.508  13.598
62928W        W35243  10.935  12.774  11.524
62929W        W35244  35.785  42.019   2.841
62930W        W35245  36.037  39.923  10.721
62931W        W35246   1.157  44.504  12.184
62932W        W35247   8.461  44.250  11.769
62933W        W35248  37.761  22.737   3.620
62934W        W35249  17.650  26.639  12.825
62935W        W35250  38.752  27.989  12.912
62936W        W35251  38.105   7.168   4.605
62937W        W35252  23.267   6.163  11.015
62938W        W35253  42.446  22.787   0.854
62939W        W35254   1.207  34.584  14.898
62940W        W35255  19.324  17.280  11.172
62941W        W35256  44.416  43.640   4.491
62942W        W35257  33.798   0.427   0.551
62943W        W35258  20.078  18.600  13.392
62944W        W35259  12.973  28.934   4.658
62945W        W35260  38.634  31.156   0.397
62946W        W35261  26.591  30.029  13.423
62947W        W35262  21.908   6.065   4.557
62948W        W35263  25.098  24.702  13.341
62949W        W35264  28.207   0.773   1.365
62950W        W35265  20.883  16.233  14.981
62951W        W35266   5.888  25.186  14.368
62952W        W35267  33.125   2.749  13.927
62953W        W35268   2.700  41.425  11.957
62954W        W35269  44.493  39.417  10.731
62955W        W35270  16.952  19.711  12.612
62956W        W35271  24.197  29.512   0.323
62957W        W35272  30.605   2.379   4.117
62958W        W35273  26.904   4.217   0.133
62959W        W35274  37.590  36.156   1.675
62960W        W35275   2.152   3.416  12.477
62961W        W35276   5.596   6.210   1.249
62962W        W35277  24.503  33.615   0.281
62963W        W35278   7.760   0.257   3.479
62964W        W35279  22.586  30.614  10.181
62965W        W35280  20.234  11.956  12.911
62966W        W35281   3.689  38.894  12.212
62967W        W35282  41.920  41.369   3.224
62968W        W35283  27.743  43.771  13.122
62969W        W35284  42.833  31.178   2.243
62970W        W35285  28.597  44.255  14.090
62971W        W35286   7.244  11.179   0.525
62972W        W35287  21.744  29.875  14.876
62973W        W35288  34.484  21.236   3.185
62974W        W35289  37.331  30.020  14.423
62975W        W35290   8.806   6.473   1.096
62976W        W35291  26.685  32.772   0.410
62977W        W35292  44.533  35.864  11.606
62978W        W35293  11.446  12.815  11.586
62979W        W35294  18.636  15.569   2.380
62980W        W35295   3.042  34.383   2.399
62981W        W35296  27.574   0.877  13.284
62982W        W35297  40.232  18.298  11.192
62983W        W35298  10.990   7.338   2.161
62984W        W35299   4.464   7.291  12.374
62985W        W35300  16.287  33.165  14.927
62986W        W35301   9.960   1.005   1.872
62987W        W35302  38.641  24.376   2.204
62988W        W35303  27.593  33.860   1.217
62989W        W35304  36.064  14.751   0.009
62990W        W35305  40.167  16.340  11.987
62991W        W35306   8.621  22.519  13.412
62992W        W35307  18.169  44.157  11.477
62993W        W35308  35.414  32.103   1.745
62994W        W35309  44.744   5.198  12.501
62995W        W35310  32.342   6.430  12.590
62996W        W35311  21.024   5.456  10.756
62997W        W35312  26.143  42.859  13.096
62998W        W35313  42.553  44.076  13.290
62999W        W35314  31.439  33.073  14.397
63000W        W35315  31.565  41.916   2.631
63001W        W35316   7.720  19.151   4.871
63002W        W35317  30.644  36.195  11.005
63003W        W35318  29.897  14.027   4.600
63004W        W35319  39.323   7.257  11.990
63005W        W35320  32.971  15.719   1.087
63006W        W35321  24.406  15.730  10.750
63007W        W35322  11.665  11.159   1.704
63008W        W35323  12.790  24.635   4.184
63009W        W35324  28.217  19.088   1.012
63010W        W35325   6.092   5.961  12.472
63011W        W35326   8.488  44.695   1.855
63012W        W35327  13.809  19.008  11.515
63013W        W35328  35.514  42.737  11.955
63014W        W35329  23.053   2.840   4.020
63015W        W35330  15.581  27.168  13.778
63016W        W35331  25.784   0.900  10.711
63017W        W35332   7.454  38.007   1.297
63018W        W35333  22.221  23.625   2.144
63019W        W35334   6.092  32.050  10.987
63020W        W35335   4.455  12.708  13.025
63021W        W35336  41.259  25.667   3.757
63022W        W35337  24.659  41.069   0.706
63023W        W35338  19.687  39.321  11.072
63024W        W35339  26.614  30.897  12.617
63025W        W35340  19.376  40.269  11.616
63026W        W35341  43.332  15.120  11.145
63027W        W35342  26.457  43.253   0.361
63028W        W35343  43.348  19.373  11.996
63029W        W35344  18.597  24.772  10.786
63030W        W35345  33.279  41.629  14.806
63031W        W35346  11.441  44.328   5.053
63032W        W35347  34.396  26.740   9.874
63033W        W35348  11.790  25.214   2.892
63034W        W35349   8.576   5.710  13.289
63035W        W35350  17.029   3.306   1.387
63036W        W35351  11.216  20.712  10.827
63037W        W35352  42.138  34.615  11.330
63038W        W35353  27.159  35.448  14.846
63039W        W35354  26.790  29.372  14.671
63040W        W35355  27.093   1.947   3.537
63041W        W35356  38.488  41.657   1.916
63042W        W35357  33.026  11.136   4.671
63043W        W35358  35.911  44.015  13.422
63044W        W35359   5.198  14.686  11.525
63045W        W35360  22.216  29.414  13.386
63046W        W35361   4.228   2.040  11.812
63047W        W35362  14.243  21.390   2.684
63048W        W35363  33.579  24.165   3.453
63049W        W35364  43.797  31.228  13.571
63050W        W35365  19.636  10.486   5.187
63051W        W35366  26.578  29.468  14.184
63052W        W35367  14.239   0.415  12.274
63053W        W35368  19.521   5.284  14.816
63054W        W35369  17.252  31.653  14.456
63055W        W35370  27.532  26.992   0.496
63056W        W35371   7.187  23.976  10.835
63057W        W35372  24.379  13.873  14.057
63058W        W35373  38.967  42.303   4.203
63059W        W35374  15.273  40.026   2.412
63060W        W35375  11.850  25.931   3.698
63061W        W35376  40.523   9.246   2.514
63062W        W35377  43.816  11.255  10.185
63063W        W35378  43.417  42.570   1.176
63064W        W35379  15.534   5.442   3.044
63065W        W35380  39.863  38.099   0.402
63066W        W35381  42.477  31.493  12.916
63067W        W35382  18.522  36.863  11.428
63068W        W35383  41.527  16.814  11.486
63069W        W35384  20.310  20.833   0.692
63070W        W35385  35.887  20.797  12.511
63071W        W35386  34.008  35.930  14.775
63072W        W35387  20.761  39.405  13.133
63073W        W35388  20.601   5.391  13.964
63074W        W35389  35.811   3.787  13.064
63075W        W35390   5.396  15.135  14.782
63076W        W35391  14.345  18.890  10.347
63077W        W35392   0.219   9.720   2.887
63078W        W35393  27.316  26.204  14.896
63079W        W35394  25.746  39.012  11.523
63080W        W35395  19.214   0.181   2.409
63081W        W35396  44.022  14.094   2.691
63082W        W35397  14.275  24.192  12.129
63083W        W35398  31.200   3.790  14.768
63084W        W35399  43.239  17.314  13.880
63085W        W35400   4.189  17.675  11.703
63086W        W35401  37.969  10.921   0.183
63087W        W35402  11.892   3.768  11.172
63088W        W35403  27.193  37.588  12.123
63089W        W35404  17.475  20.226   2.426
63090W        W35405  43.945   3.498  11.532
63091W        W35406  23.567  31.127  13.242
63092W        W35407   1.024  12.174   0.794
63093W        W35408  31.884  43.856   4.424
63094W        W35409   2.245  13.115   3.777
63095W        W35410  14.688  10.850  12.565
63096W        W35411  34.008  41.351  10.465
63097W        W35412  23.620  42.894  14.256
63098W        W35413   6.116   3.983   0.955
63099W        W35414  40.932  11.809   4.968
63100W        W35415   5.997  30.096  13.977
63101W        W35416  35.998  10.365  14.526
63102W        W35417  22.239   1.303   0.216
63103W        W35418  17.789  20.767   4.571
63104W        W35419  10.296  16.803  13.707
63105W        W35420   8.628  44.514   2.801
63106W        W35421  42.541  42.897  12.997
63107W        W35422  29.078   1.297   0.067
63108W        W35423  21.924   8.965  14.337
63109W        W35424   5.552  44.746   4.049
63110W        W35425  28.036  19.872  12.945
63111W        W35426  24.910   1.971  14.955
63112W        W35427  17.007   3.251   0.342
63113W        W35428  15.069   1.748   2.179
63114W        W35429  16.682   5.848   1.802
63115W        W35430  30.181   7.426  12.503
63116W        W35431   3.790  38.415  12.041
63117W        W35432  11.959  35.452  14.252
63118W        W35433   2.907   0.259  14.348
63119W        W35434  31.161   8.383  13.820
63120W        W35435  24.528  13.941  12.057
63121W        W35436  41.750   5.555   1.642
63122W        W35437   9.058  22.743  10.479
63123W        W35438   6.427  31.985   2.536
63124W        W35439  33.672   6.340  14.543
63125W        W35440  14.254   5.320   3.818
63126W        W35441  34.398  31.023  12.938
63127W        W35442   4.403   0.146  12.898
63128W        W35443  29.765  23.785  11.403
63129W        W35444  30.531  19.306   0.717
63130W        W35445  20.070  43.582   1.909
63131W        W35446  35.423  39.353  12.970
63132W        W35447   8.869  12.297  10.726
63133W        W35448  41.843   2.307  11.137
63134W        W35449  12.856  43.975  12.903
63135W        W35450   7.892  15.786   4.178
63136W        W35451  32.594   0.932   4.773
63137W        W35452   9.434  41.499  12.173
63138W        W35453   9.426   9.863   1.773
63139W        W35454  43.555   9.675   3.622
63140W        W35455  22.051  27.954   2.313
63141W        W35456   5.982   8.649   3.384
63142W        W35457  33.912  30.482  11.586
63143W        W35458  19.251  32.417   1.674
63144W        W35459  38.301  34.651   2.639
63145W        W35460  11.734   8.597  10.766
63146W        W35461  11.137  40.214   0.454
63147W        W35462  40.780  10.147  13.030
63148W        W35463  32.426  12.791  12.826
63149W        W35464   4.922  43.290   0.827
63150W        W35465  41.597  34.959  13.369
63151W        W35466  14.699   5.375   2.183
63152W        W35467   1.550  24.086  13.345
63153W        W35468  17.940   3.084  10.754
63154W        W35469  17.238  29.103   2.190
63155W        W35470  11.216  14.621   3.217
63156W        W35471  42.243   5.607   1.804
63157W        W35472  25.181  13.723  13.456
63158W        W35473  33.523  32.633  14.857
63159W        W35474  21.318   5.863  10.842
63160W        W35475  18.149  41.495  12.925
63161W        W35476  42.059  14.706   0.688
63162W        W35477   7.801  26.325  12.475
63163W        W35478  30.316  26.528  14.030
63164W        W35479  25.725   0.799  11.586
63165W        W35480   1.384  30.470   1.448
63166W        W35481  42.988  15.067   3.672
63167W        W35482  17.172  23.967  11.431
63168W        W35483   7.860   7.024  10.364
63169W        W35484  36.560   8.789  14.392
63170W        W35485  16.381   2.238  12.893
63171W        W35486   9.839  15.063  13.329
63172W        W35487   8.944  16.294  11.818
63173W        W35488  32.975  10.547   3.325
63174W        W35489  20.172  16.693   3.721
63175W        W35490  30.995  33.647  12.795
63176W        W35491  29.110   6.373   2.872
63177W        W35492   6.014  17.682  10.590
63178W        W35493  26.942   9.913  12.270
63179W        W35494   7.907  42.033  11.628
63180W        W35495  29.581  34.266   3.246
63181W        W35496  39.409  26.010  10.622
63182W        W35497  17.046  41.714   2.338
63183W        W35498   8.338   5.986  11.727
63184W        W35499  12.616   1.765   3.671
63185W        W35500  40.042  34.178   1.871
63186W        W35501  18.464  19.890   1.368
63187W        W35502  27.194   7.734  13.941
63188W        W35503  14.014  33.111  11.616
63189W        W35504   0.956  33.166   5.476
63190W        W35505  18.760  16.630  11.146
63191W        W35506  36.601   0.014   1.865
63192W        W35507  44.905  10.896  14.938
63193W        W35508  23.644   4.573  13.838
63194W        W35509  10.635  22.405   3.747
63195W        W35510  23.686  44.416   3.225
63196W        W35511  15.833  15.495  11.897
63197W        W35512  24.316   0.007  14.871
63198W        W35513   6.909   3.337  13.038
63199W        W35514  44.704  44.914  14.927
63200W        W35515  27.588  28.014  12.496
63201W        W35516  30.637  22.584   5.119
63202W        W35517   2.989  40.303   4.297
63203W        W35518  19.491  34.386   2.250
63204W        W35519   8.552  38.341   1.018
63205W        W35520   1.766  29.950  14.264
63206W        W35521  25.479  24.978   0.992
63207W        W35522  39.290  33.393   4.158
63208W        W35523  19.994   3.311   4.651
63209W        W35524  31.862   5.476  13.927
63210W        W35525  38.430  17.722   1.527
63211W        W35526  39.967  36.869   2.105
63212W        W35527  22.831  23.285   2.267
63213W        W35528  39.303  15.635  10.685
63214W        W35529  25.087  19.522   2.711
63215W        W35530  21.428  42.502  10.419
63216W        W35531   9.753  10.355  12.929
63217W        W35532  37.928  13.244   2.755
63218W        W35533  13.535  44.782   3.220
63219W        W35534  15.190  35.390   1.799
63220W        W35535  10.552  25.062  13.039
63221W        W35536   5.226  17.742   4.713
63222W        W35537  14.073  22.511  12.853
63223W        W35538   5.460  41.523  12.584
63224W        W35539  18.653  40.877   9.857
63225W        W35540  17.374  26.471  11.096
63226W        W35541  31.929  23.323   1.396
63227W        W35542  35.612  25.228  13.530
63228W        W35543  41.560  27.635  12.120
63229W        W35544   8.403   3.513  10.998
63230W        W35545  10.786  21.939  12.004
63231W        W35546   7.032  34.768   1.953
63232W        W35547   4.753  11.655  12.285
63233W        W35548  35.398  22.595   2.310
63234W        W35549   6.902  24.032  12.855
63235W        W35550  12.725  40.706   3.762
63236W        W35551   9.211   4.677   2.853
63237W        W35552  20.035  38.761  12.863
63238W        W35553  22.206   2.324  11.501
63239W        W35554  20.277  25.631  13.317
63240W        W35555  25.309  21.165  11.258
63241W        W35556  23.427  15.634  10.917
63242W        W35557  43.810  43.431   1.424
63243W        W35558  42.984   4.123  12.068
63244W        W35559  23.824  32.920   1.369
63245W        W35560  11.353  32.963  13.694
63246W        W35561  42.476  10.405  14.399
63247W        W35562  13.854  43.398  14.909
63248W        W35563  20.109  26.212   2.425
63249W        W35564  20.607  11.642  14.483
63250W        W35565  32.178  30.019  12.384
63251W        W35566   9.423  44.917  13.008
63252W        W35567  42.269  11.200  13.922
63253W        W35568  25.617  39.254   1.645
63254W        W35569  30.488  38.597   3.239
63255W        W35570  11.015  33.494  12.966
63256W        W35571  33.534  21.355   3.356
63257W        W35572  42.239  15.049   0.350
63258W        W35573  15.342   6.209   4.629
63259W        W35574   1.712  23.306   0.958
63260W        W35575   3.985  36.601   3.854
63261W        W35576  30.571   2.267   3.622
63262W        W35577  34.576   5.778  10.738
63263W        W35578   7.615  33.901  10.709
63264W        W35579   4.638  38.969   0.691
63265W        W35580  16.694  35.635   1.192
63266W        W35581   3.133  10.082  11.986
63267W        W35582   5.529  13.865   4.682
63268W        W35583   7.018  34.089  13.860
63269W        W35584  19.143  11.890   1.200
63270W        W35585   3.425  33.448   0.380
63271W        W35586  30.090  16.139  13.056
63272W        W35587  36.514  34.524  10.715
63273W        W35588  12.905   3.658   0.750
63274W        W35589  18.313  17.765   1.533
63275W        W35590  40.857  31.557   3.787
63276W        W35591  25.194  34.469  10.546
63277W        W35592  13.766  24.268  12.078
63278W        W35593  30.170  21.539   1.367
63279W        W35594   5.448  20.740  12.039
63280W        W35595  12.021  14.858   2.323
63281W        W35596   2.268  23.032   4.225
63282W        W35597  26.880  40.735   0.803
63283W        W35598   5.902  37.960  13.882
63284W        W35599  35.677  32.190  11.983
63285W        W35600  13.717   3.739   4.721
63286W        W35601  16.566   3.274  11.071
63287W        W35602  29.208  16.095  13.192
63288W        W35603  38.961  21.625  11.513
63289W        W35604  26.538  25.967  14.435
63290W        W35605  12.637  33.470  14.802
63291W        W35606  30.470  35.151   1.714
63292W        W35607  41.382  31.192  14.587
63293W        W35608   3.249  31.477   2.281
63294W        W35609  19.049  23.200  10.790
63295W        W35610  40.436  18.714   3.626
63296W        W35611  41.449  37.013   0.522
63297W        W35612  35.356   0.462   2.759
63298W        W35613   5.091   9.764   3.238
63299W        W35614   2.284   0.275  10.645
63300W        W35615  29.053  39.318   2.356
63301W        W35616  15.641  15.895  12.896
63302W        W35617  43.570  11.855   2.311
63303W        W35618   1.875   8.136   1.355
63304W        W35619  38.114  31.034   3.793
63305W        W35620  13.556  13.306   2.206
63306W        W35621  12.332  24.563  11.127
63307W        W35622   0.759  19.761  13.453
63308W        W35623  37.474  17.608  12.529
63309W        W35624  39.837  26.732  11.100
63310W        W35625  27.704  35.914   4.718
63311W        W35626  13.676   6.317  12.933
63312W        W35627  16.853  39.906  11.917
63313W        W35628  43.941  36.431   0.827
63314W        W35629  32.913  12.691   1.355
63315W        W35630  27.648  16.404   0.395
63316W        W35631  10.155  22.534  14.447
63317W        W35632  30.830  30.872  12.938
63318W        W35633   9.389  40.876  14.391
63319W        W35634  17.142   0.451  11.898
63320W        W35635  38.002  42.510  11.855
63321W        W35636  30.369  42.526   0.221
63322W        W35637  33.502  21.274  10.482
63323W        W35638  14.184  39.524  14.927
63324W        W35639  16.434  14.801  14.451
63325W        W35640  11.315  12.136   3.383
63326W        W35641   0.133  12.076  11.762
63327W        W35642  43.337  29.096   2.356
63328W        W35643   0.175  44.033  11.640
63329W        W35644  37.253  26.296   3.142
63330W        W35645  20.702  16.672   2.943
63331W        W35646  17.135  30.389  12.366
63332W        W35647  14.845  39.512  12.931
63333W        W35648   3.772  31.915   0.903
63334W        W35649  24.687  10.726   2.438
63335W        W35650   5.749  26.605   3.222
63336W        W35651  20.007  23.443   4.185
63337W        W35652  22.626  35.065   2.279
63338W        W35653  27.994  24.609   2.223
63339W        W35654  21.371  42.897   0.257
63340W        W35655  12.176  11.759  10.626
63341W        W35656  40.350  25.546   1.425
63342W        W35657  15.351  44.217  14.364
63343W        W35658  37.035  11.626   0.253
63344W        W35659  39.396  15.120  14.053
63345W        W35660  23.988  36.540   4.553
63346W        W35661  18.031   5.620  13.469
63347W        W35662  10.195  23.060   2.138
63348W        W35663   0.907  21.614   3.877
63349W        W35664   7.669  39.538  12.014
63350W        W35665  30.049  18.604   4.593
63351W        W35666  11.638  20.610  12.734
63352W        W35667   5.860  31.106   1.025
63353W        W35668  25.770  23.189   1.944
63354W        W35669  17.216  32.151   0.375
63355W        W35670  37.650  32.113  10.888
63356W        W35671  42.373   9.405   1.360
63357W        W35672  22.100  38.505  13.014
63358W        W35673   6.541  41.255  10.300
63359W        W35674   0.419  22.489   0.807
63360W        W35675  16.739  25.175  11.648
63361W        W35676  12.347  11.786  13.296
63362W        W35677  29.042  43.353   4.192
63363W        W35678  26.216   8.830   3.154
63364W        W35679  17.837  15.095   3.278
63365W        W35680   9.883  23.949  10.763
63366W        W35681   1.513  27.037   4.543
63367W        W35682  37.575   8.361   4.399
63368W        W35683   3.673  22.470  10.632
63369W        W35684  27.929  20.723  12.903
63370W        W35685  18.960  28.003   4.578
63371W        W35686  36.839  44.557  11.149
63372W        W35687  19.026   0.478   1.692
63373W        W35688  17.629  28.507   4.758
63374W        W35689  18.406  20.765  14.738
63375W        W35690  37.390  16.869   0.395
63376W        W35691   1.930  42.263   0.782
63377W        W35692  18.499  36.148   1.317
63378W        W35693  29.117   1.480  13.996
63379W        W35694  33.394   3.119  13.130
63380W        W35695  14.022  16.504   1.829
63381W        W35696   0.525  14.699  11.288
63382W        W35697   1.791  25.213   0.931
63383W        W35698  30.652   4.298   0.894
63384W        W35699  17.801  33.403  12.413
63385W        W35700  20.547  36.715  11.125
63386W        W35701  39.738  37.363  11.015
63387W        W35702   9.895   2.336   4.622
63388W        W35703  41.510  41.272   2.386
63389W        W35704  30.144  19.528   3.953
63390W        W35705  28.431  31.838   1.908
63391W        W35706  21.056   9.504   3.661
63392W        W35707  11.807  19.084   1.639
63393W        W35708  17.613  19.651   1.271
63394W        W35709  23.959  20.589  13.996
63395W        W35710  28.000  28.968   2.203
63396W        W35711   8.526  19.283   2.691
63397W        W35712  24.673  14.930   2.507
63398W        W35713  21.506  44.235   3.061
63399W        W35714  23.871  13.354  11.390
63400W        W35715  25.452  37.486   4.457
63401W        W35716  38.378   5.505  12.075
63402W        W35717  15.268   7.870  11.185
63403W        W35718  24.082  10.556  13.490
63404W        W35719  31.607  28.204   1.833
63405W        W35720  14.657  17.166   3.401
63406W        W35721  36.381  25.262   4.681
63407W        W35722   3.458   7.789   1.769
63408W        W35723  23.000  38.493   2.155
63409W        W35724   6.715  30.328  12.532
63410W        W35725  26.016  39.970  14.828
63411W        W35726   4.250  15.451   1.870
63412W        W35727  21.377  17.019   5.045
63413W        W35728  31.912   0.419   0.433
63414W        W35729  22.028  42.827  12.519
63415W        W35730  24.529  15.884   0.922
63416W        W35731  25.433  34.784   3.590
63417W        W35732  13.176  42.301   2.719
63418W        W35733   1.717   3.436   1.352
63419W        W35734   1.471  27.026   0.758
63420W        W35735  23.544  32.526   3.239
63421W        W35736  38.776  34.233   0.386
63422W        W35737  26.275  39.409   0.259
63423W        W35738  20.598  25.990  13.924
63424W        W35739  33.434   3.311  10.403
63425W        W35740  22.658  22.505   1.920
63426W        W35741   7.333  30.845  12.062
63427W        W35742  36.487  33.470   2.307
63428W        W35743   6.717   4.408  13.856
63429W        W35744   4.217  20.297   4.667
63430W        W35745  11.435  19.638  14.949
63431W        W35746  31.139  39.049   2.730
63432W        W35747  42.743  18.511  12.430
63433W        W35748  12.795   5.241  10.606
63434W        W35749  42.987  31.968   0.795
63435W        W35750  11.262  38.902   2.075
63436W        W35751  16.510  26.602  12.701
63437W        W35752   7.363  44.284  11.689
63438W        W35753  26.096  41.265  14.258
63439W        W35754   4.112  19.836   0.333
63440W        W35755   7.224  24.769   3.220
63441W        W35756  44.352  39.887   1.198
63442W        W35757   7.906   8.811  11.703
63443W        W35758  17.030  15.814  10.183
63444W        W35759  13.720   7.646   4.120
63445W        W35760  40.170  31.814  14.466
63446W        W35761  27.248   2.783   0.929
63447W        W35762  13.159  16.176  10.611
63448W        W35763  43.898   7.047   1.921
63449W        W35764  12.194   2.717   3.888
63450W        W35765  10.267  36.476  11.592
63451W        W35766  40.506  28.996   4.727
63452W        W35767  41.478  41.571   1.518
63453W        W35768  35.494   5.797   0.481
63454W        W35769  25.954  39.749  14.342
63455W        W35770  18.520  10.399   0.847
63456W        W35771  21.315  36.334  13.810
63457W        W35772  43.510   7.390  14.831
63458W        W35773  20.302   6.683  12.128
63459W        W35774  32.970  40.322  12.230
63460W        W35775   9.741   4.905   3.680
63461W        W35776   6.778  19.432  11.593
63462W        W35777  32.800  35.490   1.996
63463W        W35778   7.854   9.945   1.821
63464W        W35779  39.201   6.577   0.247
63465W        W35780   4.887  21.975   4.513
63466W        W35781   7.089  43.764  10.933
63467W        W35782   0.276  43.757  14.371
63468W        W35783   3.319  31.778   1.825
63469W        W35784   7.689   1.696   3.313
63470W        W35785  17.201  19.826   0.316
63471W        W35786  17.532   7.927   1.258
63472W        W35787   4.357  10.392  10.573
63473W        W35788  42.562  31.452   4.245
63474W        W35789  42.991  42.848   3.273
63475W        W35790   7.353  41.743   2.369
63476W        W35791  11.223  20.968  12.898
63477W        W35792   6.019  31.956   2.872
63478W        W35793  28.764  44.438  11.877
63479W        W35794  18.316   6.374   0.324
63480W        W35795  17.286   0.291   1.354
63481W        W35796   0.453  19.724   2.180
63482W        W35797  37.890   1.529  12.983
63483W        W35798   8.494  19.523  11.640
63484W        W35799  10.773  27.122  12.826
63485W        W35800   1.070  25.528   1.896
63486W        W35801   8.960   2.992   2.462
63487W        W35802   2.089  34.318  10.171
63488W        W35803  13.833  14.547   4.511
63489W        W35804  31.644  36.164   4.089
63490W        W35805  44.269   0.697  13.909
63491W        W35806   1.549  11.658   3.181
63492W        W35807   9.121  40.531  11.555
63493W        W35808   5.461  17.757  11.161
63494W        W35809  33.887  32.152   1.353
63495W        W35810   7.688  30.070   0.350
63496W        W35811  16.850  29.064   3.896
63497W        W35812  17.058  35.813  12.659
63498W        W35813  20.610   2.527  13.440
63499W        W35814  26.562  37.870   0.346
63500W        W35815  40.746   0.403   2.231
63501W        W35816  20.145  37.739   0.794
63502W        W35817   8.908  37.668   2.080
63503W        W35818  39.894  16.655  10.672
63504W        W35819  40.342  17.185   2.008
63505W        W35820   6.398  22.180   2.907
63506W        W35821  41.669  22.953   0.598
63507W        W35822  31.186  24.104  12.692
63508W        W35823  36.151   2.866  10.680
63509W        W35824  13.056  41.074  12.651
63510W        W35825   1.984  10.214   1.780
63511W        W35826  27.620  36.972  10.463
63512W        W35827  42.039  11.942  11.091
63513W        W35828  16.132  38.275   3.122
63514W        W35829  28.188  36.118  14.883
63515W        W35830  26.322  13.728   0.588
63516W        W35831   4.439  14.723   0.370
63517W        W35832  12.306  12.805  14.535
63518W        W35833  18.177  21.237  11.037
63519W        W35834   5.270  28.684  13.788
63520W        W35835   5.243  32.832  11.726
63521W        W35836  41.899  20.806   3.353
63522W        W35837  38.860  19.306   2.710
63523W        W35838   6.984   6.370  14.905
63524W        W35839  24.127   1.009  14.998
63525W        W35840  38.388  11.800  11.741
63526W        W35841   9.972  29.988   2.728
63527W        W35842  14.239   3.881   4.815
63528W        W35843  22.565  13.670   0.732
63529W        W35844  10.723  20.038  10.500
63530W        W35845   8.808   9.356   2.179
63531W        W35846  30.901   4.833  14.337
63532W        W35847  23.671  26.107   0.539
63533W        W35848  38.459  17.307  14.705
63534W        W35849  16.394  16.865   3.225
63535W        W35850   8.929  15.578  12.145
63536W        W35851  36.801   0.512   1.948
63537W        W35852  10.653   1.886   1.196
63538W        W35853  16.865  39.465  13.021
63539W        W35854  17.001  27.123   1.296
63540W        W35855  24.678  13.043   2.896
63541W        W35856   0.906  27.766  13.753
63542W        W35857   0.046   9.137   1.185
63543W        W35858  15.742  22.745  11.690
63544W        W35859  37.635  10.250   0.915
63545W        W35860  31.305  13.863   2.150
63546W        W35861  22.700  26.970   3.198
63547W        W35862  23.997  32.873  11.679
63548W        W35863  39.267  13.353  14.076
63549W        W35864  28.621  40.906   4.489
63550W        W35865  21.691   8.161   3.940
63551W        W35866  19.788  11.652   0.497
63552W        W35867  37.451   2.748   1.680
63553W        W35868  42.842   4.676   3.984
63554W        W35869   8.883  39.869  14.370
63555W        W35870   7.825  13.830   2.376
63556W        W35871  16.137  34.055   3.252
63557W        W35872  32.379  32.531  12.125
63558W        W35873  12.692  12.003   1.351
63559W        W35874  16.120  30.862   3.345
63560W        W35875  14.119  21.893   0.933
63561W        W35876   8.629  26.540  14.487
63562W        W35877  31.492  20.817  10.705
63563W        W35878  31.451  25.253  11.812
63564W        W35879   6.199   3.858  12.141
63565W        W35880  28.646  34.500   0.045
63566W        W35881  11.973   1.086  12.923
63567W        W35882  22.022  43.937   3.715
63568W        W35883   6.690   9.175  10.724
63569W        W35884  44.340  21.178   4.574
63570W        W35885  44.752  30.122   1.740
63571W        W35886  23.040  28.673  12.027
63572W        W35887   0.363   7.234  14.490
63573W        W35888  21.555  12.036   0.278
63574W        W35889   5.917  32.623   4.136
63575W        W35890  23.031  27.067   1.897
63576W        W35891  18.318   3.215   0.796
63577W        W35892  23.442  26.561   4.092
63578W        W35893  21.003  29.051  14.524
63579W        W35894  28.632  44.955   0.775
63580W        W35895   0.789  41.064   3.308
63581W        W35896   1.775  19.602   2.049
63582W        W35897  38.839  19.532  10.166
63583W        W35898  10.296  29.120   5.220
63584W        W35899   0.283  44.884  12.633
63585W        W35900  32.855  15.293   1.344
63586W        W35901   1.155  38.816   4.841
63587W        W35902  24.188  33.865   2.287
63588W        W35903  37.110  34.574  12.551
63589W        W35904  18.660  38.566  10.703
63590W        W35905   4.298   1.172  10.563
63591W        W35906  32.692  13.799   4.678
63592W        W35907  24.288   3.466   1.183
63593W        W35908   5.896   1.377  13.874
63594W        W35909  29.624  17.318  11.060
63595W        W35910  20.226  21.158  11.049
63596W        W35911   0.866  37.998   3.290
63597W        W35912  36.056   3.525   4.382
63598W        W35913  38.650  21.993   1.490
63599W        W35914  36.397  37.010  14.337
63600W        W35915  33.985  29.594   1.251
63601W        W35916   7.295  19.176  10.786
63602W        W35917  10.310   0.949  11.632
63603W        W35918   0.250  32.622  10.746
63604W        W35919  14.505  24.698   1.067
63605W        W35920  24.777  13.020   0.539
63606W        W35921  43.462  33.951  11.515
63607W        W35922  21.726  42.857   3.197
63608W        W35923  25.244  18.114   2.634
63609W        W35924  26.544  32.140  14.032
63610W        W35925   5.724  39.589  13.391
63611W        W35926  31.475  19.262   0.439
63612W        W35927  11.500  32.061   4.101
63613W        W35928  37.955  37.596  11.867
63614W        W35929  36.876  20.121  13.160
63615W        W35930   6.413  15.282  13.797
63616W        W35931  37.772  24.218  10.708
63617W        W35932   6.686  42.958   1.673
63618W        W35933  43.408  44.539  13.342
63619W        W35934  13.672  39.822   1.355
63620W        W35935   4.807   6.456  10.531
63621W        W35936   4.730  44.677   4.680
63622W        W35937   3.963  14.183   2.903
63623W        W35938   6.036   4.810  11.116
63624W        W35939   5.763  27.069   4.105
63625W        W35940  11.808   2.828  13.595
63626W        W35941   7.668  31.724  14.303
63627W        W35942  22.568   5.886   5.077
63628W        W35943  32.144  32.735   1.703
63629W        W35944  43.894  42.777  14.929
63630W        W35945  41.762  40.985  12.549
63631W        W35946   5.916  24.675  14.434
63632W        W35947  38.536  20.718  13.422
63633W        W35948  34.488   1.215   0.984
63634W        W35949  25.677  38.909  10.655
63635W        W35950  27.548  17.753  11.484
63636W        W35951   1.288   8.451  13.097
63637W        W35952   3.860  19.250  13.013
63638W        W35953  42.704  31.117   3.865
63639W        W35954  16.042  15.347   1.224
63640W        W35955  21.055   7.222  10.846
63641W        W35956  26.296   5.854  12.206
63642W        W35957  30.942  28.734  13.424
63643W        W35958   7.651  12.598  13.559
63644W        W35959  37.469   0.463  10.372
63645W        W35960  36.033  33.645  11.053
63646W        W35961  29.060  31.478   0.184
63647W        W35962  13.201  44.186  11.602
63648W        W35963   5.729  23.660   1.240
63649W        W35964  37.443  32.421  13.326
63650W        W35965  13.219  19.583   1.484
63651W        W35966   2.570  27.219  14.901
63652W        W35967   8.310  13.681   2.540
63653W        W35968   6.128   9.585  11.200
63654W        W35969   2.344  41.901  14.401
63655W        W35970  25.211  42.969  13.563
63656W        W35971  13.693  44.160  11.707
63657W        W35972  38.511  24.211  10.278
63658W        W35973  16.640  30.420  13.102
63659W        W35974  28.191  20.335  13.103
63660W        W35975  26.004  21.317  10.092
63661W        W35976  12.314  43.481   1.691
63662W        W35977   4.984  18.745   0.910
63663W        W35978   2.195   4.127   3.753
63664W        W35979  22.124  16.355   2.576
63665W        W35980  34.592  42.374  14.239
63666W        W35981  42.920  42.267   2.441
63667W        W35982  33.939  32.892   0.024
63668W        W35983  37.890  14.190   2.849
63669W        W35984   5.010  31.998   1.287
63670W        W35985  40.954  12.541  11.477
63671W        W35986   8.335   1.150   1.954
63672W        W35987  35.077  38.042  12.878
63673W        W35988   1.487  39.275  14.411
63674W        W35989  21.101  13.245   3.713
63675W        W35990   6.280  22.036  13.383
63676W        W35991  30.397  40.098   2.230
63677W        W35992  37.110   5.899   0.343
63678W        W35993  29.919  40.939   2.374
63679W        W35994  40.526  16.039   0.493
63680W        W35995  19.869  35.069   5.072
63681W        W35996  13.544  23.075   1.625
63682W        W35997  20.852  37.941  13.389
63683W        W35998  32.666  43.312  13.454
63684W        W35999  10.755  41.836   2.245
63685W        W36000  21.150  21.557   1.835
63686W        W36001   8.297  34.862   3.787
63687W        W36002   7.362  20.172   1.675
63688W        W36003  15.246  32.845  13.979
63689W        W36004  18.179  22.290   0.728
63690W        W36005  43.816  42.440   1.977
63691W        W36006  19.926   0.237   2.170
63692W        W36007  14.313  31.914  14.418
63693W        W36008  26.462  28.674  12.821
63694W        W36009   1.236  15.657   4.180
63695W        W36010  22.765  13.316  12.116
63696W        W36011   4.940  44.243  11.433
63697W        W36012  32.377  15.254  12.865
63698W        W36013   7.396  19.522  12.139
63699W        W36014   3.801  18.536  11.111
63700W        W36015  30.385  34.111   3.251
63701W        W36016  36.897  22.219  14.896
63702W        W36017  28.605  44.866  14.041
63703W        W36018  21.130  22.745   0.335
63704W        W36019  26.174  32.371  11.480
63705W        W36020  42.030  42.781  12.957
63706W        W36021  43.479  26.546  14.480
63707W        W36022  39.340   5.003   4.513
63708W        W36023  31.063   9.606   1.243
63709W        W36024  33.837  12.697   2.750
63710W        W36025   0.133  35.725   4.229
63711W        W36026  27.012  34.731   0.444
63712W        W36027  31.352  31.448   0.360
63713W        W36028  15.845   3.536   4.240
63714W        W36029  43.497  26.211   0.350
63715W        W36030  27.031   0.798   1.668
63716W        W36031   2.949  39.423  11.407
63717W        W36032  23.735  12.149   2.126
63718W        W36033  26.116  27.628   1.745
63719W        W36034   0.151  33.416  10.998
63720W        W36035  34.073   6.723  13.607
63721W        W36036  34.530  25.248   4.929
63722W        W36037  38.129  19.115  13.791
63723W        W36038  19.265   9.603   0.243
63724W        W36039  29.619  19.174  14.255
63725W        W36040  39.746  13.152  13.964
63726W        W36041  38.032  26.504  12.383
63727W        W36042  30.973  11.159   3.340
63728W        W36043  18.592  23.497  10.903
63729W        W36044  33.001  23.915   1.420
63730W        W36045   0.905  27.908   0.815
63731W        W36046  33.043  19.259   4.587
63732W        W36047  39.463  18.522  13.013
63733W        W36048   1.464  24.038   1.726
63734W        W36049  23.083  17.997  14.981
63735W        W36050   1.878  14.787  14.281
63736W        W36051  10.296   7.985  12.563
63737W        W36052  39.965  42.268  12.533
63738W        W36053  21.144   8.628  12.990
63739W        W36054  23.179  33.979   0.477
63740W        W36055  25.526  35.329   4.526
63741W        W36056  30.469  14.772  12.559
63742W        W36057  16.042  33.616   0.049
63743W        W36058  23.692  32.297   2.413
63744W        W36059  33.909   6.110  12.461
63745W        W36060   4.371  23.707   3.770
63746W        W36061  20.239  38.294   4.181
63747W        W36062  37.335  16.299   2.348
63748W        W36063   1.816  28.117   3.430
63749W        W36064  13.118   1.358   4.674
63750W        W36065   3.769  21.254   9.591
63751W        W36066  33.363   5.270   0.015
63752W        W36067  10.286  12.078  14.858
63753W        W36068  32.913  12.812  12.979
63754W        W36069   7.458  17.275  12.031
63755W        W36070   4.709  14.351  10.621
63756W        W36071  19.790   4.860   4.794
63757W        W36072   8.101  34.390   3.841
63758W        W36073   3.358  40.429   2.916
63759W        W36074   1.955   2.877   0.668
63760W        W36075   5.707  24.954   0.791
63761W        W36076  40.851   1.768   3.721
63762W        W36077   3.371  34.911  11.687
63763W        W36078  13.182  41.764   2.704
63764W        W36079  24.630  41.337  11.008
63765W        W36080  40.063   4.110   4.488
63766W        W36081  14.641  40.979  12.159
63767W        W36082  40.180  15.824  12.589
63768W        W36083  43.024  42.054  14.159
63769W        W36084  14.990  22.075   0.978
63770W        W36085  10.944  43.263  10.790
63771W        W36086   0.303  37.451   2.510
63772W        W36087   4.779  12.143   3.682
63773W        W36088  12.005   9.509  14.892
63774W        W36089  27.668  13.266  12.925
63775W        W36090  35.046  29.481   2.193
63776W        W36091  27.478  32.408  13.993
63777W        W36092  29.185  22.898  11.651
63778W        W36093  12.725  40.575  11.129
63779W        W36094  24.527  22.902   1.188
63780W        W36095  23.924  15.170  11.646
63781W        W36096  27.998  24.541   3.084
63782W        W36097   9.800   5.687   3.195
63783W        W36098  29.688   0.309   2.505
63784W        W36099   2.485   8.011  12.635
63785W        W36100  16.792  17.775   3.254
63786W        W36101  29.010  16.869  12.106
63787W        W36102  36.084  13.354   2.830
63788W        W36103  20.500  17.840  10.715
63789W        W36104  11.354  16.792   9.659
63790W        W36105   3.298  11.795  10.675
63791W        W36106   8.956   9.950   3.418
63792W        W36107  21.253  11.344  14.371
63793W        W36108  41.999  13.096   1.622
63794W        W36109  28.540  15.832   0.317
63795W        W36110   4.245  26.583  11.511
63796W        W36111  17.082  29.699   4.626
63797W        W36112   0.349  41.923  13.903
63798W        W36113  21.633   0.142  14.416
63799W        W36114  10.242  35.104  14.812
63800W        W36115  32.665  34.090   1.672
63801W        W36116  44.893  44.795   0.831
63802W        W36117   9.188  27.430   1.774
63803W        W36118  41.462  28.051   1.396
63804W        W36119   3.498  10.162   3.393
63805W        W36120  18.075   6.705   4.596
63806W        W36121  36.020  14.531  12.007
63807W        W36122  29.075  13.387  13.449
63808W        W36123  31.966  35.314  11.003
63809W        W36124   2.031  42.380  12.900
63810W        W36125  44.809  27.203  11.851
63811W        W36126  20.745   8.697   2.269
63812W        W36127  14.312  38.739  13.832
63813W        W36128  33.572  31.399   1.680
63814W        W36129   5.998   1.341   3.783
63815W        W36130   6.918   7.230  11.675
63816W        W36131  33.504  13.225   4.394
63817W        W36132  18.920  39.028   0.764
63818W        W36133  38.068   9.736  12.396
63819W        W36134  27.522   2.273  14.879
63820W        W36135  28.508  10.388  10.507
63821W        W36136  11.261  38.298  12.967
63822W        W36137  32.011  34.861   2.397
63823W        W36138   7.179   2.239  12.195
63824W        W36139  19.527  18.069  14.985
63825W        W36140  17.188  15.498  10.669
63826W        W36141   6.364  34.646  13.407
63827W        W36142  17.356   2.898  14.529
63828W        W36143   3.176  35.829   2.657
63829W        W36144   3.356  16.171   2.230
63830W        W36145  28.721  36.464   3.412
63831W        W36146  19.136  15.677   1.442
63832W        W36147  22.716   4.224   3.144
63833W        W36148  42.428   0.745   3.979
63834W        W36149   7.179  27.838   0.586
63835W        W36150  23.468  17.441  11.141
63836W        W36151   4.222  29.556   1.389
63837W        W36152  30.031   3.352   5.010
63838W        W36153   0.888  40.086   3.186
63839W        W36154  12.023   2.764   2.853
63840W        W36155  27.507  42.047   0.273
63841W        W36156  11.690  27.920  12.045
63842W        W36157  23.271   6.245  12.409
63843W        W36158  27.794  35.039   4.557
63844W        W36159   5.909  35.086   4.003
63845W        W36160  16.751   0.377   1.440
63846W        W36161  10.260  27.365  14.817
63847W        W36162   7.370  35.417  13.014
63848W        W36163  35.057  33.618  13.404
63849W        W36164  23.575  41.792   3.967
63850W        W36165  29.537  10.615  11.926
63851W        W36166  33.038  10.362   0.715
63852W        W36167   3.427   0.277  12.663
63853W        W36168  30.082  13.268  11.444
63854W        W36169  14.004  35.164   4.863
63855W        W36170  23.708  44.341   0.585
63856W        W36171  20.753  20.284   4.194
63857W        W36172  11.563  22.369   0.784
63858W        W36173  24.792  36.928  11.937
63859W        W36174  35.249  44.495   2.494
63860W        W36175  29.516  27.964  14.973
63861W        W36176   3.311  39.260   3.789
63862W        W36177   2.427   0.822  14.975
63863W        W36178  21.401   9.871   3.821
63864W        W36179  31.144  42.668   1.181
63865W        W36180   6.451  41.626  12.545
63866W        W36181  24.952  33.490  12.628
63867W        W36182  14.232  37.285   0.013
63868W        W36183   5.375  15.174  11.615
63869W        W36184  19.780  18.624  13.804
63870W        W36185  10.078  12.772  10.322
63871W        W36186  13.237   6.168   4.054
63872W        W36187  44.262   9.048  12.653
63873W        W36188  37.126  34.033  11.276
63874W        W36189  30.635  43.995   0.718
63875W        W36190   2.455   3.798   3.026
63876W        W36191  36.362  21.008   5.029
63877W        W36192  12.660  33.226   0.778
63878W        W36193   7.711  27.919   0.350
63879W        W36194  19.679   4.560   4.386
63880W        W36195  31.384  17.226  11.987
63881W        W36196  34.588  21.152  10.390
63882W        W36197  11.359  37.771   4.095
63883W        W36198   9.244  43.010  14.993
63884W        W36199  24.593  39.604   0.749
63885W        W36200  27.602  33.848  14.363
63886W        W36201  32.592  11.848  14.906
63887W        W36202  17.655  43.711   0.731
63888W        W36203   3.286  41.729  13.006
63889W        W36204  31.040  42.550  14.494
63890W        W36205   2.127  21.551  11.112
63891W        W36206  25.581  26.812  13.034
63892W        W36207  20.612  30.048  11.188
63893W        W36208  44.342  43.404  13.140
63894W        W36209   7.428  28.923  12.120
63895W        W36210  30.651  26.695   4.823
63896W        W36211  21.817  41.410   3.797
63897W        W36212  42.951   4.240   2.980
63898W        W36213  24.255  22.911  11.040
63899W        W36214  23.973  21.306   2.202
63900W        W36215  37.106  36.514   4.575
63901W        W36216  16.267  30.372   4.553
63902W        W36217  13.621  20.956   4.239
63903W        W36218  20.199  26.607   1.382
63904W        W36219  31.482   4.623   3.233
63905W        W36220  12.715  42.166  14.711
63906W        W36221  38.867  33.490   1.862
63907W        W36222   4.293  26.207  12.444
63908W        W36223   6.759  38.263  14.534
63909W        W36224  32.919  37.047   1.131
63910W        W36225  44.726   7.146   4.446
63911W        W36226  28.032  42.039  14.941
63912W        W36227  21.648  27.117  11.720
63913W        W36228  41.306  25.565  14.363
63914W        W36229  32.902  39.894  13.512
63915W        W36230  38.076  32.567  11.737
63916W        W36231  38.932   4.684   0.964
63917W        W36232  42.743  41.411   1.849
63918W        W36233   7.450  24.488   0.366
63919W        W36234  24.521  15.108  13.389
63920W        W36235  16.069  18.130   4.522
63921W        W36236  15.526  18.143  14.397
63922W        W36237  29.566  38.037  14.827
63923W        W36238   1.332   3.819   3.970
63924W        W36239  38.882  20.219   1.434
63925W        W36240  25.234  22.714  13.474
63926W        W36241   4.957  10.220   0.039
63927W        W36242  11.368  44.447   2.764
63928W        W36243  16.523  32.867  14.265
63929W        W36244  20.185  38.302   0.201
63930W        W36245   3.330  16.261  11.086
63931W        W36246  36.438  34.778  11.638
63932W        W36247  15.036  39.645   1.516
63933W        W36248  39.738  44.175   1.670
63934W        W36249   9.726  18.563  12.063
63935W        W36250  20.547  31.082  13.015
63936W        W36251  21.940  24.575  10.742
63937W        W36252  10.522   4.817  11.192
63938W        W36253   9.403  22.157   2.477
63939W        W36254  30.966  26.451   1.393
63940W        W36255  43.189  38.051  14.723
63941W        W36256  28.444  25.764   1.817
63942W        W36257  36.494  11.430  11.264
63943W        W36258  29.798  29.177   4.791
63944W        W36259  21.095  23.082  13.050
63945W        W36260  43.974  19.664   4.710
63946W        W36261  36.389  22.269   3.593
63947W        W36262  43.306  14.714  12.107
63948W        W36263  29.903  27.232  11.095
63949W        W36264  16.441  42.931   2.044
63950W        W36265  40.797  28.072   4.847
63951W        W36266  16.823  13.659   0.513
63952W        W36267  18.848  10.169  12.533
63953W        W36268  38.401  16.710  14.375
63954W        W36269   2.887  16.057  12.844
63955W        W36270  34.199  27.992   2.644
63956W        W36271  32.945  27.511   0.736
63957W        W36272  10.209  12.671   2.243
63958W        W36273  18.991  39.418   1.876
63959W        W36274  18.831  14.791  12.028
63960W        W36275  43.550  34.068  10.434
63961W        W36276  13.694  16.650   0.248
63962W        W36277  42.991  41.456   1.391
63963W        W36278  42.442  42.418   2.719
63964W        W36279   0.163  31.051   4.757
63965W        W36280   6.931  28.088   0.992
63966W        W36281  28.076  15.132  10.523
63967W        W36282  11.578  37.997   3.214
63968W        W36283   1.748  33.005   0.836
63969W        W36284  15.335   2.887   4.503
63970W        W36285  25.406  29.274  11.206
63971W        W36286  13.056  39.719  10.676
63972W        W36287  40.917  12.295   0.913
63973W        W36288  28.971  10.269   0.816
63974W        W36289  27.088  29.088  13.668
63975W        W36290   1.002  33.792  10.709
63976W        W36291  21.726   2.693  11.662
63977W        W36292  30.999  41.759   1.899
63978W        W36293  35.880  25.937   4.552
63979W        W36294  11.579  39.086   3.539
63980W        W36295   0.168  31.429  10.726
63981W        W36296  21.995  35.865   3.205
63982W        W36297  19.847  16.802   1.238
63983W        W36298  35.938   1.781  12.308
63984W        W36299  26.972   6.620   3.315
63985W        W36300  34.814  36.497   2.220
63986W        W36301  34.925   1.976  13.458
63987W        W36302  27.266  37.888  14.367
63988W        W36303  43.801  25.890   0.950
63989W        W36304  17.513  24.047   1.981
63990W        W36305  20.744   9.154   1.394
63991W        W36306  28.099  35.875   3.404
63992W        W36307   0.011  11.617   0.496
63993W        W36308  26.992   6.222   0.729
63994W        W36309   5.349  24.925  13.982
63995W        W36310   7.826   4.493   0.917
63996W        W36311  15.691  21.149   4.823
63997W        W36312  27.943  41.856   2.904
63998W        W36313  44.773  34.785   1.803
63999W        W36314  31.726  38.454   2.403
64000W        W36315  24.060   3.720  13.953
64001W        W36316   9.703  22.240   4.733
64002W        W36317  31.973   1.747  13.060
64003W        W36318  16.159   1.911  14.791
64004W        W36319   3.954  17.973   0.753
64005W        W36320  34.601  30.966   3.838
64006W        W36321  31.060  33.013  12.017
64007W        W36322  19.575  14.299  10.664
64008W        W36323  18.371  33.853  11.956
64009W        W36324  23.009  24.455  11.965
64010W        W36325  23.164  25.011   0.184
64011W        W36326  34.368   0.134  12.087
64012W        W36327  33.571   0.667   1.253
64013W        W36328  28.879  24.824  12.631
64014W        W36329  18.175  13.515  13.741
64015W        W36330  11.288  32.409  14.315
64016W        W36331   2.522  44.038  11.388
64017W        W36332  25.542  18.744  11.615
64018W        W36333  24.960  35.430  12.919
64019W        W36334  12.373  30.470   3.170
64020W        W36335  20.563  44.263   3.932
64021W        W36336   7.608  20.007   4.815
64022W        W36337  10.520  36.458  10.824
64023W        W36338  33.966  44.327  14.490
64024W        W36339  17.097  38.302   4.142
64025W        W36340  22.139   1.244  12.383
64026W        W36341  39.864  29.494   2.326
64027W        W36342   2.901  35.345   1.486
64028W        W36343   3.031  18.546  10.590
64029W        W36344  24.675  37.935   3.323
64030W        W36345  12.322  22.056   0.650
64031W        W36346  15.574  22.117   1.831
64032W        W36347   7.243   1.446   2.107
64033W        W36348   5.965   2.556   1.770
64034W        W36349  21.626  16.948  14.207
64035W        W36350  26.902  12.333   4.172
64036W        W36351   9.787  33.035  11.271
64037W        W36352  29.101   0.040  14.957
64038W        W36353  37.360  36.555   1.428
64039W        W36354  24.482   8.588  14.269
64040W        W36355  18.567  44.409  14.729
64041W        W36356   8.934  38.462  11.207
64042W        W36357   8.978  27.197  13.966
64043W        W36358  22.069  10.612   1.907
64044W        W36359  23.600  11.104  13.000
64045W        W36360  10.865  14.641   0.671
64046W        W36361   4.158  11.639   4.743
64047W        W36362  31.452  21.221   5.020
64048W        W36363  29.583  36.791  11.859
64049W        W36364  41.525  11.183   0.851
64050W        W36365   2.797   3.953   2.472
64051W        W36366  38.393  41.739   0.952
64052W        W36367  17.271  20.652   0.708
64053W        W36368  40.735   4.186  12.982
64054W        W36369  17.601  34.270   3.461
64055W        W36370  38.165   8.926  11.913
64056W        W36371  15.609  13.463  12.922
64057W        W36372  28.419   0.448   3.052
64058W        W36373  22.070  29.563   2.508
64059W        W36374  18.145   4.534   0.535
64060W        W36375  35.553  24.480  12.846
64061W        W36376   9.028   2.935   1.329
64062W        W36377  36.741   8.814   3.175
64063W        W36378  38.524  38.242   1.751
64064W        W36379  43.401   8.739   0.639
64065W        W36380  31.839  42.851   0.765
64066W        W36381  19.600  24.569  11.608
64067W        W36382  40.511  36.026   0.833
64068W        W36383  13.100  27.470   2.743
64069W        W36384  26.032   4.907   1.448
64070W        W36385   4.541  42.435  11.554
64071W        W36386  19.766   6.885  14.903
64072W        W36387   5.693  19.077   1.864
64073W        W36388  28.527  37.297   0.501
64074W        W36389  10.404  39.337   3.378
64075W        W36390  17.577  36.849   2.348
64076W        W36391   4.274  42.987   4.696
64077W        W36392  13.266  21.482   0.467
64078W        W36393  38.336  17.672  10.460
64079W        W36394  35.958  17.223  11.672
64080W        W36395   2.993  39.831   1.405
64081W        W36396  29.417  10.626  11.103
64082W        W36397  38.828  42.304   2.277
64083W        W36398   7.289  12.076   0.492
64084W        W36399  15.503  36.906  11.975
64085W        W36400   2.185   4.321   5.113
64086W        W36401  44.825   9.254   2.034
64087W        W36402  36.448  31.731  13.046
64088W        W36403   8.263  23.661   1.067
64089W        W36404   6.206  20.769  11.599
64090W        W36405  34.099  15.060  13.898
64091W        W36406  19.753  31.087   0.479
64092W        W36407  23.104  35.663  11.026
64093W        W36408  34.236  19.591   3.715
64094W        W36409   2.786   4.319   4.601
64095W        W36410  28.005  21.442  10.165
64096W        W36411  26.279   4.412  12.869
64097W        W36412  21.074   4.447  10.759
64098W        W36413   2.361  23.451  11.382
64099W        W36414   4.170  42.352   2.112
64100W        W36415   0.414  21.111  14.576
64101W        W36416  36.280  44.035  11.459
64102W        W36417  44.689  42.067  14.262
64103W        W36418  34.511  30.332   3.182
64104W        W36419  37.903  37.837  11.421
64105W        W36420  27.068  26.972  14.548
64106W        W36421  27.710   6.281  10.273
64107W        W36422  27.320  23.566   2.694
64108W        W36423  25.746   7.024   2.842
64109W        W36424  16.443  34.601  14.723
64110W        W36425  20.420  28.277   3.114
64111W        W36426  21.059  40.047  12.044
64112W        W36427  27.628  31.295   9.737
64113W        W36428  26.989  20.323   0.986
64114W        W36429  26.204  21.721   3.670
64115W        W36430  31.872  36.187  12.834
64116W        W36431  44.228  28.203   4.768
64117W        W36432  20.442  33.336  11.571
64118W        W36433  20.436   6.434   1.262
64119W        W36434  28.116  32.487  13.355
64120W        W36435  17.717  41.051   2.797
64121W        W36436  44.340  14.489  14.261
64122W        W36437  23.054  20.268   0.980
64123W        W36438   4.918   0.745   3.276
64124W        W36439  20.023  29.207   2.327
64125W        W36440  14.735   5.174   4.086
64126W        W36441  11.489  26.456  13.625
64127W        W36442   6.472  31.029   2.774
64128W        W36443  26.913  32.425   4.283
64129W        W36444  35.674  38.210   2.390
64130W        W36445  40.497  12.665  14.956
64131W        W36446   3.548  27.166   4.522
64132W        W36447   3.070  39.041   3.053
64133W        W36448  20.878   8.234   9.877
64134W        W36449  23.927  38.378   3.314
64135W        W36450  20.338  40.048   2.792
64136W        W36451  33.268  38.633   0.878
64137W        W36452  29.239  34.289   5.469
64138W        W36453  19.536  17.521  12.157
64139W        W36454  35.368  42.399   2.146
64140W        W36455  17.218   6.829  11.101
64141W        W36456  41.001  30.827  14.737
64142W        W36457  37.342  28.964  13.323
64143W        W36458   3.397  22.492   2.257
64144W        W36459  35.906  32.187  12.600
64145W        W36460   0.156   0.377  11.889
64146W        W36461  32.090  33.725   0.866
64147W        W36462  24.383  20.129   0.732
64148W        W36463   5.341   0.977   0.389
64149W        W36464  21.700   3.486  12.110
64150W        W36465  42.673   0.769  12.047
64151W        W36466  40.996  39.290  12.999
64152W        W36467   1.867  25.613   1.260
64153W        W36468  41.825  33.414  13.925
64154W        W36469   9.591   7.390   4.495
64155W        W36470  29.043  36.505  14.754
64156W        W36471   2.602  39.097   0.902
64157W        W36472  24.973  35.816  11.138
64158W        W36473  11.824   6.189  12.331
64159W        W36474  27.626   0.487  10.832
64160W        W36475  19.953  22.724   1.529
64161W        W36476  21.176  43.985   3.966
64162W        W36477  29.532  43.778   4.604
64163W        W36478   1.787  13.041   1.945
64164W        W36479  44.834  42.887   2.180
64165W        W36480  16.117   0.515  14.124
64166W        W36481   4.772  25.159  13.382
64167W        W36482  44.676  40.860  11.194
64168W        W36483   0.268   0.808  12.812
64169W        W36484  27.354  41.470  10.751
64170W        W36485  13.318   7.296   4.706
64171W        W36486   1.276   5.083  13.473
64172W        W36487   4.629  33.570   2.116
64173W        W36488  32.294  17.466   3.768
64174W        W36489  31.179   3.372   2.423
64175W        W36490  12.862   4.275   4.206
64176W        W36491  28.898  29.967   0.723
64177W        W36492  11.862   5.297   1.491
64178W        W36493  43.997  11.430   0.916
64179W        W36494  44.015  39.387  10.917
64180W        W36495   0.914  21.996   2.516
64181W        W36496  44.760  17.112   3.173
64182W        W36497   9.272  30.579  13.930
64183W        W36498   6.603  32.071  11.070
64184W        W36499  17.629   4.568   2.452
64185W        W36500  11.764   0.589   4.298
64186W        W36501  41.936   8.167   1.304
64187W        W36502  38.390  24.239   3.657
64188W        W36503  28.972  41.498   2.187
64189W        W36504  35.645   5.354   0.275
64190W        W36505  17.070  36.939   2.430
64191W        W36506  16.795  41.759  13.839
64192W        W36507  34.020   9.402  11.511
64193W        W36508  27.557  30.497  14.119
64194W        W36509  29.476   3.953  10.700
64195W        W36510  22.193  40.013   2.250
64196W        W36511  18.026  26.594   2.759
64197W        W36512  35.015   0.956  13.275
64198W        W36513  38.709  36.500   1.773
64199W        W36514  31.971  19.973  11.533
64200W        W36515  36.931  43.071   1.791
64201W        W36516  30.171   5.652  13.606
64202W        W36517  41.091  40.791   3.148
64203W        W36518  30.010  12.875  12.939
64204W        W36519  28.686  28.028  14.082
64205W        W36520  40.716  43.919  11.511
64206W        W36521  40.889  26.992   0.397
64207W        W36522  11.142  22.179  13.440
64208W        W36523   3.908   8.867  12.183
64209W        W36524  24.649   1.683   0.329
64210W        W36525  22.141  44.794  13.422
64211W        W36526  10.564   2.828  11.683
64212W        W36527  20.498  20.960   1.983
64213W        W36528  27.042  16.300   3.836
64214W        W36529  33.200  16.390  11.523
64215W        W36530   9.553  35.207  12.568
64216W        W36531   0.323  34.466   5.202
64217W        W36532  10.758   7.886   3.751
64218W        W36533  32.355   9.811   3.357
64219W        W36534  25.200  27.165   4.217
64220W        W36535  24.784   9.229   1.670
64221W        W36536   7.430  37.386  13.547
64222W        W36537  22.051  28.817   0.206
64223W        W36538  15.467  14.118  12.172
64224W        W36539   6.805   0.515  13.210
64225W        W36540   4.802  18.295   4.158
64226W        W36541   7.050   4.486  14.254
64227W        W36542  33.486  28.200  12.510
64228W        W36543  26.458  23.579   1.407
64229W        W36544  44.547  29.634  10.637
64230W        W36545  29.475  29.599   4.891
64231W        W36546  27.151  12.268  12.444
64232W        W36547   9.083  11.235   3.308
64233W        W36548  21.019  18.741   4.112
64234W        W36549  43.997  20.143  12.064
64235W        W36550  36.395  19.964   2.327
64236W        W36551  34.405  22.607   2.359
64237W        W36552  36.709  19.696  12.911
64238W        W36553  10.912  18.778  10.337
64239W        W36554  19.360   1.666  13.005
64240W        W36555  37.592   5.809  11.616
64241W        W36556   4.674  38.959  11.992
64242W        W36557  14.831  39.875  11.992
64243W        W36558   6.750   6.776   4.784
64244W        W36559  22.624  18.291   0.861
64245W        W36560   4.940  41.570   2.305
64246W        W36561  14.877  18.041  11.149
64247W        W36562  18.724  14.653  12.552
64248W        W36563  43.945  27.108   1.927
64249W        W36564  26.469  37.508   0.767
64250W        W36565  14.703   5.784   4.524
64251W        W36566  26.731  16.035  13.354
64252W        W36567  34.026  34.987   2.508
64253W        W36568  26.141  27.436  12.604
64254W        W36569  18.591  43.735   2.201
64255W        W36570  17.670  41.879   1.765
64256W        W36571  26.511  35.412   1.112
64257W        W36572   9.371  32.416  12.672
64258W        W36573  25.464  40.892   3.244
64259W        W36574  25.195   7.231  12.017
64260W        W36575   0.012   9.526   2.444
64261W        W36576  30.251  35.925   1.831
64262W        W36577  10.423  18.703   1.943
64263W        W36578  14.123  27.722   5.081
64264W        W36579   5.315   0.050   2.741
64265W        W36580   6.483  12.384  12.329
64266W        W36581  11.279   8.666  14.385
64267W        W36582  16.623  37.563  14.654
64268W        W36583  39.247   8.373  11.298
64269W        W36584  18.188   5.983  14.269
64270W        W36585  20.761   8.383   1.812
64271W        W36586   9.465   8.268   4.879
64272W        W36587  21.443  41.412   4.150
64273W        W36588  35.567  15.908  11.973
64274W        W36589   0.328  14.332  12.605
64275W        W36590  34.007   7.719  10.639
64276W        W36591  21.103  42.458  12.581
64277W        W36592  19.774   6.440  12.167
64278W        W36593  44.542  34.693  11.019
64279W        W36594  14.797  28.652   2.180
64280W        W36595  31.413  24.151   4.588
64281W        W36596  16.653  37.407   1.268
64282W        W36597   1.768  41.206  12.369
64283W        W36598   6.633  38.229  11.717
64284W        W36599  39.357   7.924  13.108
64285W        W36600  44.478  26.187   0.361
64286W        W36601  35.329  35.007   3.867
64287W        W36602  24.151   4.253   3.569
64288W        W36603   4.725   0.257   3.253
64289W        W36604  23.522  18.679  10.646
64290W        W36605  39.496   0.292  14.623
64291W        W36606  20.761  18.236   2.888
64292W        W36607  22.911   9.639   3.764
64293W        W36608  40.453  11.265   0.666
64294W        W36609  21.254   8.013   3.585
64295W        W36610  13.244  30.498   1.356
64296W        W36611   0.551  37.882  12.947
64297W        W36612  13.882  27.555  11.873
64298W        W36613   2.951  17.531  14.886
64299W        W36614  44.526  33.160   4.306
64300W        W36615  35.420  41.417  12.864
64301W        W36616   3.214  19.097   2.109
64302W        W36617  33.804  19.037   2.875
64303W        W36618  24.217  21.216   3.272
64304W        W36619  19.135   6.776  11.638
64305W        W36620  44.685  18.842   1.025
64306W        W36621  22.922  22.280   2.795
64307W        W36622  31.538  35.221  13.895
64308W        W36623  21.137  24.266   0.283
64309W        W36624   1.659  34.548   9.953
64310W        W36625  33.944   1.224  10.539
64311W        W36626  26.344  40.472  13.947
64312W        W36627  42.230  10.876  14.467
64313W        W36628  36.125  33.479  13.957
64314W        W36629  20.244  32.177  10.657
64315W        W36630  18.787  38.850   2.159
64316W        W36631  19.656   0.908   3.565
64317W        W36632  29.991  23.660  12.289
64318W        W36633   1.964  22.943  14.304
64319W        W36634  23.657  20.680  13.006
64320W        W36635  37.557  29.145  14.269
64321W        W36636   8.736   3.137   3.678
64322W        W36637  14.282   4.393   1.758
64323W        W36638   0.795   7.267  12.899
64324W        W36639   0.024   5.782   4.577
64325W        W36640   2.269  24.072  11.265
64326W        W36641  26.629  14.842   1.308
64327W        W36642   9.098   4.813  11.137
64328W        W36643  33.048  43.774   2.580
64329W        W36644   9.864  36.595   0.435
64330W        W36645   5.876  37.042  14.318
64331W        W36646   4.335  28.713   4.214
64332W        W36647  28.428  27.654   1.287
64333W        W36648   4.133  28.228   4.185
64334W        W36649  12.052  28.254  11.866
64335W        W36650  32.655  26.493   0.803
64336W        W36651  15.107  36.904   1.607
64337W        W36652  16.875  35.320  11.112
64338W        W36653  42.778  38.410   4.562
64339W        W36654   3.401  39.701  13.405
64340W        W36655   6.439  31.639  14.723
64341W        W36656  20.539  40.995  10.601
64342W        W36657  44.235  35.876   3.976
64343W        W36658  42.539   4.872   1.391
64344W        W36659  10.131  13.576  10.735
64345W        W36660  14.879  10.813   1.967
64346W        W36661  11.151  11.256   0.427
64347W        W36662  30.079  13.576   3.543
64348W        W36663  31.036  40.064   4.551
64349W        W36664  44.235  33.925   3.217
64350W        W36665   1.252  39.904  12.441
64351W        W36666   7.566   7.715  13.168
64352W        W36667  30.965  34.157   0.991
64353W        W36668  13.796  14.994   1.671
64354W        W36669  38.133  40.934   0.596
64355W        W36670  25.863  42.404  12.959
64356W        W36671   8.247   8.723  14.325
64357W        W36672  13.205  26.587  13.815
64358W        W36673   9.114  28.377   0.851
64359W        W36674  16.287  27.398  10.603
64360W        W36675  11.756  18.492   4.214
64361W        W36676  25.667  44.567   1.139
64362W        W36677   8.438  27.187   2.662
64363W        W36678  17.471  23.749  13.975
64364W        W36679  10.695  18.213  12.585
64365W        W36680  11.522  24.790   2.776
64366W        W36681  11.415   5.759  10.754
64367W        W36682  43.917   5.714   1.151
64368W        W36683  35.898   9.177   4.134
64369W        W36684   9.745  18.982   3.259
64370W        W36685   1.430  13.074   0.726
64371W        W36686  44.620  29.518   1.348
64372W        W36687  36.869  44.811   4.545
64373W        W36688  31.305  11.741   2.251
64374W        W36689  27.461  39.151  14.767
64375W        W36690  10.552  23.561  13.500
64376W        W36691  28.930  42.733  13.438
64377W        W36692  44.028  43.696   0.928
64378W        W36693  32.599  18.082   1.422
64379W        W36694  31.005  15.852   2.337
64380W        W36695  11.634   6.658  12.754
64381W        W36696   7.557  32.617   0.173
64382W        W36697   8.733  13.361   0.345
64383W        W36698  14.311  37.802  14.955
64384W        W36699  21.566  26.991   0.517
64385W        W36700  25.114  20.734  10.661
64386W        W36701  22.851  15.629  13.028
64387W        W36702   7.759  28.215  11.068
64388W        W36703   0.537   6.507   3.331
64389W        W36704   0.408   7.260   4.667
64390W        W36705  40.561   2.164   1.021
64391W        W36706  39.985  44.011  14.712
64392W        W36707   9.256  21.675  14.825
64393W        W36708  27.453   6.438   3.259
64394W        W36709  33.029  42.750   2.587
64395W        W36710  31.019   6.726   2.122
64396W        W36711  34.846   8.450  13.303
64397W        W36712  13.287  16.058  14.003
64398W        W36713   7.669   8.342   1.244
64399W        W36714  42.358   4.716  13.306
64400W        W36715   5.492   4.262   2.128
64401W        W36716   0.775   2.281   0.433
64402W        W36717  36.106   4.234  13.931
64403W        W36718  43.621  32.544  13.090
64404W        W36719  32.472   2.621  14.292
64405W        W36720  15.130  42.368   3.086
64406W        W36721  27.191   6.308  13.316
64407W        W36722  23.438  15.203   3.720
64408W        W36723  20.025  44.548  11.630
64409W        W36724  22.981  37.664  14.738
64410W        W36725  25.977  25.116  12.427
64411W        W36726   7.754  16.343  12.937
64412W        W36727  27.469   4.436   3.838
64413W        W36728  27.693   3.665  12.461
64414W        W36729  29.012  39.291   0.578
64415W        W36730  41.829  35.562   1.752
64416W        W36731   1.535  23.922   0.809
64417W        W36732  16.127  12.434  12.058
64418W        W36733   9.470  10.825  11.526
64419W        W36734  34.608  16.386   2.661
64420W        W36735  36.641   3.570  12.911
64421W        W36736  24.135  11.251  10.615
64422W        W36737   5.775  39.730   2.159
64423W        W36738   9.217   2.894  14.967
64424W        W36739  12.003  39.036   0.012
64425W        W36740  21.097  20.067  12.939
64426W        W36741  10.609   0.462   2.258
64427W        W36742   9.723   6.418   0.845
64428W        W36743   5.389  20.489  14.783
64429W        W36744  28.178  35.621  14.794
64430W        W36745  20.698  30.425  14.363
64431W        W36746  13.320  15.544  14.021
64432W        W36747   3.126  23.595   4.130
64433W        W36748   9.139   4.101   4.449
64434W        W36749  39.034  15.103  14.813
64435W        W36750  15.512  27.846  12.372
64436W        W36751  16.146  23.646   1.805
64437W        W36752  30.141  11.650  13.520
64438W        W36753  28.598  14.620  13.194
64439W        W36754  13.868  11.226   3.465
64440W        W36755  40.890  44.043  13.535
64441W        W36756  30.459  38.328   0.246
64442W        W36757  19.249  29.079  10.711
64443W        W36758  32.019   1.484   1.353
64444W        W36759   4.422   1.700  10.368
64445W        W36760   5.828   9.832  14.396
64446W        W36761  11.058   4.064  13.869
64447W        W36762   5.573  36.991   4.619
64448W        W36763  29.089  23.229   4.059
64449W        W36764   7.775  34.122  11.431
64450W        W36765  29.062  40.465   4.821
64451W        W36766  29.228  35.065  14.391
64452W        W36767   9.146  41.336   1.642
64453W        W36768  43.999  18.814  11.862
64454W        W36769  41.021   8.422  14.261
64455W        W36770  16.782  15.650  11.447
64456W        W36771  40.037   7.153  11.556
64457W        W36772  42.092  44.185   2.806
64458W        W36773  39.178  27.612   0.203
64459W        W36774  15.231  25.053  14.353
64460W        W36775   7.961  18.571  11.014
64461W        W36776  12.773  41.249   2.375
64462W        W36777   1.270  34.733  10.635
64463W        W36778  39.794  24.123  12.177
64464W        W36779  20.600  36.512   0.960
64465W        W36780  23.163  39.316   1.836
64466W        W36781  40.028  17.824  11.177
64467W        W36782  38.476  33.943  10.660
64468W        W36783  26.759  26.088   1.177
64469W        W36784  39.964   8.224   4.075
64470W        W36785   1.434   8.563   1.869
64471W        W36786  32.474   8.629   0.999
64472W        W36787  36.455  12.207   0.684
64473W        W36788  29.848  24.467  14.150
64474W        W36789  16.930   5.395   1.784
64475W        W36790  35.571  14.081  13.529
64476W        W36791   8.855  38.937  10.311
64477W        W36792  23.059  17.529   4.358
64478W        W36793  41.851  15.524  13.921
64479W        W36794   1.964   9.198   4.967
64480W        W36795   8.821  12.763   3.243
64481W        W36796   0.902  24.660  13.949
64482W        W36797  39.327   2.327   1.691
64483W        W36798   3.491   3.996  10.810
64484W        W36799  41.382   7.286  12.917
64485W        W36800  10.230   9.273   3.125
64486W        W36801  15.685  41.307   0.508
64487W        W36802  20.220  19.107   4.147
64488W        W36803  20.416   1.010   3.355
64489W        W36804  39.830   4.024   2.368
64490W        W36805  35.358  23.414   0.940
64491W        W36806  24.340  25.999   2.208
64492W        W36807  31.575  17.540   4.059
64493W        W36808  39.479  34.161  11.918
64494W        W36809  36.373  37.532  14.362
64495W        W36810  19.359  20.750   1.713
64496W        W36811   2.895  40.564   2.746
64497W        W36812  44.244  24.634   4.595
64498W        W36813  12.393  10.631   4.581
64499W        W36814  31.353   9.742  12.851
64500W        W36815   9.696  16.147   0.391
64501W        W36816   9.725  20.662   1.782
64502W        W36817  25.052  42.281   0.279
64503W        W36818  30.558   9.396  12.762
64504W        W36819   7.047  21.142  11.607
64505W        W36820   5.214  13.458   4.685
64506W        W36821  36.382   9.171   0.436
64507W        W36822  42.518  39.341   4.528
64508W        W36823  13.575   7.381   1.790
64509W        W36824  14.547  44.745   3.179
64510W        W36825   9.778  22.650  12.852
64511W        W36826  22.244  10.671  11.577
64512W        W36827  30.400  17.157   4.739
64513W        W36828  15.103  37.068  13.475
64514W        W36829  37.688  44.976  14.436
64515W        W36830  17.347  21.226  12.419
64516W        W36831  11.679  39.343   4.883
64517W        W36832  10.091  42.228  13.862
64518W        W36833  26.711  14.286  11.852
64519W        W36834  20.187   3.826   4.609
64520W        W36835   5.380  24.480   1.263
64521W        W36836   9.936  17.366  12.361
64522W        W36837  30.335  42.940  14.881
64523W        W36838  42.467  37.519   2.582
64524W        W36839  13.946  26.127  10.715
64525W        W36840  38.603  35.541  11.512
64526W        W36841  38.440  10.140  14.432
64527W        W36842  42.786   0.897  14.874
64528W        W36843  44.988  30.716   3.201
64529W        W36844   8.372  19.354  14.316
64530W        W36845   2.934  40.312  13.676
64531W        W36846  41.774   7.934  13.760
64532W        W36847  43.232   1.441   4.217
64533W        W36848  37.834  42.467   3.219
64534W        W36849  42.965  35.089   1.943
64535W        W36850  37.936  40.807   4.524
64536W        W36851  26.748   7.286  13.292
64537W        W36852  43.141  43.050  11.887
64538W        W36853  30.777  10.411  10.087
64539W        W36854  44.807  43.491  12.860
64540W        W36855   3.015  12.092  14.916
64541W        W36856  33.730  23.594   1.932
64542W        W36857  33.283   8.191  10.057
64543W        W36858  20.699  12.172  13.590
64544W        W36859  36.544  44.739  12.446
64545W        W36860  18.307   7.673   1.805
64546W        W36861  35.871   4.679   1.895
64547W        W36862  20.301  25.168   2.782
64548W        W36863  39.311   5.257   0.427
64549W        W36864  12.793  13.432  10.777
64550W        W36865   6.914   4.859   4.126
64551W        W36866  11.393   6.259   0.741
64552W        W36867  24.043  24.721   0.466
64553W        W36868   8.922  29.002  14.959
64554W        W36869  14.182   8.747   2.315
64555W        W36870  38.358  15.177  13.859
64556W        W36871  11.841  31.390   3.295
64557W        W36872  34.336  24.256  13.306
64558W        W36873  32.635  24.685   2.763
64559W        W36874  14.336  19.148   0.615
64560W        W36875  23.820   0.224   0.615
64561W        W36876  29.253  22.974   0.278
64562W        W36877  41.921  11.677  12.101
64563W        W36878  34.759  10.980  12.455
64564W        W36879  34.830  13.592  10.788
64565W        W36880   3.414  20.749  10.869
64566W        W36881   2.809  11.863   0.421
64567W        W36882  27.022  14.264  12.639
64568W        W36883  38.051  33.000  13.323
64569W        W36884  42.939  27.399  10.654
64570W        W36885  40.218   0.758   0.031
64571W        W36886  14.965  19.338  10.870
64572W        W36887  16.103  32.359  12.046
64573W        W36888  18.824   5.834  13.997
64574W        W36889  19.498  26.396  11.212
64575W        W36890  27.595  13.424   0.733
64576W        W36891  11.357  39.752  11.034
64577W        W36892  12.283   7.032  13.031
64578W        W36893  25.719  18.342   2.689
64579W        W36894  29.411  40.589  14.926
64580W        W36895  36.994  30.912   1.152
64581W        W36896  21.272  14.239  12.116
64582W        W36897  34.449  34.150   0.027
64583W        W36898  39.965  10.327   1.722
64584W        W36899   4.480  42.980  13.845
64585W        W36900  19.076  22.243   1.389
64586W        W36901   6.519  38.469  13.450
64587W        W36902  39.519  40.826  12.699
64588W        W36903  26.437  35.878   1.343
64589W        W36904  17.575  19.718   3.506
64590W        W36905  42.267  41.792   1.029
64591W        W36906  27.516  18.424  10.690
64592W        W36907   6.138  15.594  13.403
64593W        W36908   8.864   8.991   3.778
64594W        W36909  39.891  26.416   5.504
64595W        W36910  18.824   0.878   2.911
64596W        W36911  14.364   8.416   3.239
64597W        W36912  39.290  24.691   0.488
64598W        W36913  26.627  31.281   2.634
64599W        W36914  10.621  29.637  12.463
64600W        W36915  26.569  19.161   2.815
64601W        W36916  41.743   3.786   0.880
64602W        W36917  43.016  11.411  14.375
64603W        W36918  13.168  35.451  11.082
64604W        W36919   8.237  33.678  13.576
64605W        W36920  35.292  30.389   0.417
64606W        W36921  12.275  34.033  11.398
64607W        W36922  32.315  15.823  13.922
64608W        W36923  11.085  22.775   4.415
64609W        W36924  28.760  41.421  14.461
64610W        W36925  41.575  28.701  13.983
64611W        W36926  22.136  23.973   3.400
64612W        W36927  32.710  13.809   0.989
64613W        W36928  17.804  23.478  14.757
64614W        W36929  37.085   4.523   2.846
64615W        W36930   1.772  11.312  13.502
64616W        W36931  29.893  39.526   3.698
64617W        W36932  27.384  20.732  11.042
64618W        W36933  40.342  21.672   2.378
64619W        W36934  21.798   1.668  14.574
64620W        W36935  17.097  37.912   3.207
64621W        W36936  31.774  19.630  11.207
64622W        W36937  35.864   1.841  14.358
64623W        W36938   4.001  14.080   1.758
64624W        W36939  27.634  40.498   3.302
64625W        W36940   8.954   9.949  11.970
64626W        W36941  15.322  12.638  14.394
64627W        W36942  42.020  22.001   1.751
64628W        W36943  17.713  11.149  10.628
64629W        W36944  17.550  29.873   3.257
64630W        W36945  35.372   4.525  11.151
64631W        W36946  22.509   2.216  14.963
64632W        W36947   5.660  33.156   2.741
64633W        W36948   7.808  23.098   0.402
64634W        W36949  22.967  15.333  14.123
64635W        W36950  19.298  36.335   0.587
64636W        W36951  36.846  14.390  13.399
64637W        W36952  29.729  19.611  14.500
64638W        W36953  41.494  23.345  14.522
64639W        W36954  39.274   1.367  11.069
64640W        W36955   7.527  42.747  13.813
64641W        W36956   6.759  28.742   2.646
64642W        W36957   7.829  37.767  12.358
64643W        W36958  42.840  23.530   2.103
64644W        W36959  10.080  37.257  12.224
64645W        W36960  20.064  24.440   4.198
64646W        W36961  44.820   2.368  14.408
64647W        W36962  11.596  22.167   3.346
64648W        W36963  41.526  31.137  10.716
64649W        W36964  32.421  11.881  11.318
64650W        W36965  31.910  22.164   4.277
64651W        W36966  35.150  35.841   1.887
64652W        W36967  29.185   0.506  14.803
64653W        W36968  42.353  24.698  13.107
64654W        W36969  25.484   9.732   3.964
64655W        W36970  21.067   5.354   3.672
64656W        W36971  11.187  19.539  13.024
64657W        W36972   3.966  29.607   1.839
64658W        W36973   6.650  28.551   3.632
64659W        W36974  32.844   2.127  11.236
64660W        W36975  32.068  30.549  11.947
64661W        W36976  15.565  35.976   2.416
64662W        W36977  35.141   2.250   2.904
64663W        W36978  33.409  37.161  11.523
64664W        W36979  35.904  29.178  12.484
64665W        W36980  20.460  28.579   0.962
64666W        W36981  36.867  17.715   2.700
64667W        W36982  39.440  13.585   4.252
64668W        W36983  44.538  43.977  14.908
64669W        W36984   2.243   1.365   4.345
64670W        W36985  31.848   5.697  12.410
64671W        W36986  42.547  32.842  14.468
64672W        W36987  30.652  42.830   1.262
64673W        W36988  27.026  39.405  13.844
64674W        W36989  27.379  42.720  11.681
64675W        W36990  17.046   5.292   3.164
64676W        W36991  38.824  24.379  11.211
64677W        W36992   0.005  11.599  11.648
64678W        W36993  24.590  17.106  14.923
64679W        W36994  31.676  13.856  11.816
64680W        W36995  27.588  25.578   4.749
64681W        W36996  42.879   6.942  12.890
64682W        W36997  32.684  34.251   4.555
64683W        W36998  33.676   2.906  10.651
64684W        W36999  12.753  12.781   3.685
64685W        W37000  30.051  19.775   0.755
64686W        W37001  27.719  38.360  11.102
64687W        W37002  30.275  12.662   3.685
64688W        W37003  27.909  28.131  14.214
64689W        W37004  23.963  23.514  11.198
64690W        W37005   8.832  27.438  12.329
64691W        W37006   1.476  12.167  13.921
64692W        W37007  11.212  34.680   1.243
64693W        W37008   5.524  39.782   0.305
64694W        W37009  25.467   7.260  13.779
64695W        W37010  14.617  44.026  10.642
64696W        W37011  19.701  34.390   4.236
64697W        W37012  28.458  16.309   1.600
64698W        W37013  12.176  19.588  11.598
64699W        W37014   7.698  26.785  12.225
64700W        W37015  19.833   2.019  11.111
64701W        W37016  28.482   9.418   1.344
64702W        W37017  41.912   6.376  11.954
64703W        W37018  19.537  18.325   1.802
64704W        W37019   6.850  31.026  12.924
64705W        W37020  43.358   0.292  11.043
64706W        W37021   7.881  35.745   1.103
64707W        W37022  16.285  31.824   3.161
64708W        W37023  35.883  25.331   0.809
64709W        W37024   0.041  28.067   1.746
64710W        W37025  38.040  24.522   0.688
64711W        W37026  35.318  12.818   2.723
64712W        W37027  30.857  16.290  13.552
64713W        W37028  11.695  39.432  10.700
64714W        W37029  26.156  39.840   1.609
64715W        W37030   6.798  15.819   3.630
64716W        W37031  19.876   6.181  14.497
64717W        W37032  24.960   2.738   3.566
64718W        W37033  30.110  23.506  13.819
64719W        W37034   5.736  13.269  12.515
64720W        W37035   5.247  25.655   3.375
64721W        W37036  33.855  11.842  14.309
64722W        W37037  11.599  10.737  10.416
64723W        W37038  32.845  42.800   1.722
64724W        W37039  30.991   7.373  14.256
64725W        W37040  19.576  22.276  13.483
64726W        W37041  42.044   6.839  12.687
64727W        W37042  35.062  41.759   1.694
64728W        W37043   1.722   0.260   2.928
64729W        W37044   5.799  37.645   2.786
64730W        W37045  26.999  37.925   4.298
64731W        W37046  42.396  30.565   1.270
64732W        W37047  41.520  25.705  13.544
64733W        W37048  27.469  30.672  12.431
64734W        W37049   4.707   1.665  11.205
64735W        W37050  11.840   2.452   0.294
64736W        W37051  36.564   9.857  12.463
64737W        W37052  40.282  13.193  13.913
64738W        W37053  16.610  19.055   0.953
64739W        W37054  36.047  33.063  13.426
64740W        W37055   1.864   4.640   0.778
64741W        W37056  40.503   2.513   1.414
64742W        W37057   0.637  31.689  10.720
64743W        W37058  35.355   7.828  13.588
64744W        W37059  27.875  35.066  12.040
64745W        W37060  27.400   9.927  13.288
64746W        W37061  36.534   5.169   0.261
64747W        W37062  13.841   8.386   2.478
64748W        W37063  10.289  40.698   3.615
64749W        W37064   2.738  25.103  10.774
64750W        W37065  42.881  43.417  14.232
64751W        W37066  25.927  23.678  12.797
64752W        W37067  42.485  20.102  11.600
64753W        W37068   5.784  35.881   1.377
64754W        W37069  26.603  38.134   3.147
64755W        W37070  19.257  10.665  12.036
64756W        W37071  22.583  23.961  12.384
64757W        W37072  37.430  40.901   4.653
64758W        W37073   3.643  20.221   4.980
64759W        W37074   6.979  34.748   1.447
64760W        W37075   4.055   5.182  11.171
64761W        W37076  19.014   3.931  11.956
64762W        W37077   7.974   1.364  13.477
64763W        W37078  40.046   6.250  14.006
64764W        W37079  23.269   4.511   3.170
64765W        W37080  30.896   3.601   3.524
64766W        W37081  26.193   7.834   1.261
64767W        W37082  29.359  34.871   1.281
64768W        W37083  36.588  15.937  12.044
64769W        W37084   3.907  17.026  11.100
64770W        W37085  21.569   2.862   2.613
64771W        W37086   9.669  30.721   1.364
64772W        W37087  27.084  17.269   3.369
64773W        W37088  36.299  13.060  13.469
64774W        W37089  22.730   3.223   0.349
64775W        W37090  39.829  35.879   2.199
64776W        W37091   2.437   0.440  13.116
64777W        W37092  29.973  15.701  14.433
64778W        W37093   7.706  20.640  13.859
64779W        W37094   5.696  14.220   0.564
64780W        W37095   8.764   4.389   2.890
64781W        W37096  11.679  34.141   2.751
64782W        W37097  20.100   3.627   3.656
64783W        W37098   9.817  28.998   0.054
64784W        W37099  38.253  38.338  14.485
64785W        W37100  44.603  41.480   3.675
64786W        W37101  29.862   5.495   3.580
64787W        W37102  31.030  20.512  14.489
64788W        W37103  19.187   0.174  14.296
64789W        W37104   8.074  41.505  11.577
64790W        W37105  12.139  20.860  11.070
64791W        W37106  38.858   0.506   4.383
64792W        W37107  12.293  26.121   3.900
64793W        W37108  35.042  22.023  11.619
64794W        W37109  21.111  30.580  13.521
64795W        W37110  19.589  27.785  10.740
64796W        W37111  36.545  43.564  10.779
64797W        W37112   5.796  44.272  13.874
64798W        W37113  31.405  29.749   1.922
64799W        W37114  16.514  37.678  11.524
64800W        W37115  24.815   7.120   0.016
64801W        W37116   7.695   1.210  14.442
64802W        W37117  43.741  25.796  12.088
64803W        W37118  40.930   5.318   0.261
64804W        W37119   9.455  36.155   2.336
64805W        W37120  36.843  22.554   0.365
64806W        W37121   8.633  17.650  12.927
64807W        W37122   2.280  30.260  11.227
64808W        W37123   7.887  42.442   3.028
64809W        W37124  44.723   9.729  12.952
64810W        W37125  13.998  11.214  11.157
64811W        W37126  20.321   8.876  11.489
64812W        W37127  18.569   0.533  13.716
64813W        W37128   5.305   9.689   0.824
64814W        W37129  11.776  37.613  10.351
64815W        W37130   3.064  11.296  14.759
64816W        W37131   9.016  26.120  11.163
64817W        W37132   7.090  15.358  11.659
64818W        W37133  25.061   4.417   3.720
64819W        W37134  30.515  40.040  12.543
64820W        W37135  13.628  15.244   1.248
64821W        W37136  20.744  30.512   4.597
64822W        W37137  16.715  36.107  14.873
64823W        W37138  16.795   5.242  12.401
64824W        W37139  20.606  39.249   1.519
64825W        W37140   4.969  28.982   2.301
64826W        W37141   3.182  35.211  14.407
64827W        W37142   4.120  30.039   0.335
64828W        W37143  38.355  31.416  13.923
64829W        W37144  36.132  39.656   2.772
64830W        W37145  43.328  39.214   2.586
64831W        W37146  40.290  12.401  14.486
64832W        W37147  28.962  31.381   9.835
64833W        W37148   9.428  39.582   4.740
64834W        W37149  39.636  21.149   4.151
64835W        W37150  29.176  18.791  10.747
64836W        W37151  35.444  38.025  10.743
64837W        W37152  13.132  36.923   4.941
64838W        W37153   0.547  42.591  11.988
64839W        W37154  31.985  20.314  11.947
64840W        W37155  29.621  43.565   2.199
64841W        W37156  44.216  19.654   4.241
64842W        W37157  31.047  30.525  12.221
64843W        W37158  17.404  28.092   4.558
64844W        W37159  38.578  17.181   4.123
64845W        W37160  29.929  37.325  11.120
64846W        W37161  16.004  20.791   1.884
64847W        W37162  26.919  30.424  13.324
64848W        W37163  20.055  38.745   5.439
64849W        W37164  44.628  34.637  12.868
64850W        W37165  23.059   4.684  12.109
64851W        W37166  39.600  24.536   2.372
64852W        W37167   5.187   3.946   1.803
64853W        W37168  40.734  26.852  14.465
64854W        W37169  17.627  40.915  11.577
64855W        W37170   4.192  42.935  13.400
64856W        W37171  19.605  42.920  12.335
64857W        W37172  39.993  37.968  11.509
64858W        W37173  33.105  44.257   3.163
64859W        W37174  30.665  43.297   1.504
64860W        W37175  10.066  29.760   4.546
64861W        W37176  29.806  10.373   4.406
64862W        W37177  42.827  39.494   2.803
64863W        W37178   7.576   2.327  11.117
64864W        W37179  25.782  26.912   3.260
64865W        W37180  13.137  25.960   0.248
64866W        W37181   5.184  32.916   2.776
64867W        W37182  24.304   0.521   4.249
64868W        W37183  34.614  13.685   0.229
64869W        W37184  15.805  13.740  12.079
64870W        W37185  39.914  35.866  14.245
64871W        W37186  27.222   7.354   3.423
64872W        W37187  18.549  37.588   1.191
64873W        W37188   6.092   7.138   0.315
64874W        W37189   2.802  24.991   3.956
64875W        W37190  23.008  23.945  11.011
64876W        W37191  18.725  39.378  11.869
64877W        W37192  44.963  17.559   1.341
64878W        W37193  17.268  23.529  14.408
64879W        W37194  41.536  13.853  12.552
64880W        W37195   9.244   2.963   0.851
64881W        W37196  31.222   4.752  14.725
64882W        W37197  12.682  21.782  11.367
64883W        W37198  33.962  14.311   4.954
64884W        W37199   9.797   9.670  13.904
64885W        W37200   2.513  20.299  10.797
64886W        W37201  21.540  44.313  10.682
64887W        W37202   7.702  27.997  13.964
64888W        W37203  19.029  26.982   3.173
64889W        W37204  38.541  37.025   3.344
64890W        W37205  36.664  39.478  14.343
64891W        W37206   3.671  13.280  14.006
64892W        W37207  10.391  22.525   5.133
64893W        W37208   8.793   9.866  14.724
64894W        W37209  34.530  44.247   4.164
64895W        W37210  29.386  36.385   2.254
64896W        W37211  37.994   5.448   2.012
64897W        W37212   8.928  21.590   3.779
64898W        W37213  31.929  26.174   3.750
64899W        W37214  34.316  13.287   0.390
64900W        W37215  26.844  13.829  11.346
64901W        W37216  19.955  14.691  10.675
64902W        W37217  27.129  33.096   3.736
64903W        W37218   2.721  40.435   4.730
64904W        W37219   5.286  12.076   2.793
64905W        W37220   2.064  35.120   2.322
64906W        W37221  32.935   5.263  11.911
64907W        W37222  42.484  40.845   4.456
64908W        W37223  19.309  11.249   1.143
64909W        W37224  43.470  19.842  13.326
64910W        W37225  22.096  30.070   0.339
64911W        W37226  18.574  38.372   1.892
64912W        W37227  39.369  40.356  13.897
64913W        W37228  30.899  43.490  11.877
64914W        W37229  41.527   8.336  13.528
64915W        W37230  44.610   7.517  11.902
64916W        W37231  33.523  44.621  14.384
64917W        W37232  11.787  16.165  11.183
64918W        W37233  35.169  26.249   4.107
64919W        W37234  27.420  32.452   4.164
64920W        W37235  43.872  23.464   4.129
64921W        W37236   2.165  10.831   3.344
64922W        W37237  28.058  37.090   1.444
64923W        W37238  30.301  30.877  10.664
64924W        W37239   3.842  11.064  10.930
64925W        W37240  25.318  32.941   0.483
64926W        W37241  15.059  32.230   3.561
64927W        W37242  20.795  13.530   0.103
64928W        W37243  22.634  14.898   0.250
64929W        W37244  10.622  42.830  13.102
64930W        W37245   8.585  42.024   1.724
64931W        W37246   9.351   4.426  13.443
64932W        W37247   2.439   0.416  14.538
64933W        W37248  15.656  25.338  14.354
64934W        W37249  21.563   5.633   3.689
64935W        W37250  15.053  17.086  14.832
64936W        W37251  32.004   6.701   1.905
64937W        W37252  38.891   8.855  13.027
64938W        W37253   0.218  40.752   4.137
64939W        W37254  27.098  39.955  13.016
64940W        W37255  26.466  10.639   2.074
64941W        W37256   1.018  37.211   2.628
64942W        W37257  32.504   4.265   1.827
64943W        W37258  29.975  21.711   0.049
64944W        W37259  24.754  10.246   3.223
64945W        W37260   3.791  33.375   1.267
64946W        W37261   7.411  23.188   2.329
64947W        W37262  31.451  39.501   0.778
64948W        W37263  13.107  41.355  10.297
64949W        W37264  22.492  24.395  12.049
64950W        W37265  21.854  21.792  13.592
64951W        W37266   7.797  31.633  12.000
64952W        W37267  32.398   8.390   2.317
64953W        W37268  26.769  30.224   0.303
64954W        W37269  17.037  22.170  12.809
64955W        W37270  23.142  31.642   0.424
64956W        W37271   5.771   7.472   3.613
64957W        W37272  10.209  28.225   4.571
64958W        W37273  14.407  41.437  12.051
64959W        W37274  28.113  27.985   2.723
64960W        W37275  38.238  36.871   0.306
64961W        W37276  12.913  14.012   5.320
64962W        W37277  31.560  32.894  13.544
64963W        W37278   4.666  17.031   3.434
64964W        W37279  10.107   0.452  13.800
64965W        W37280   4.876  38.841  14.736
64966W        W37281  39.117  26.942  12.630
64967W        W37282  19.539  30.420  10.504
64968W        W37283  20.847  19.257   4.183
64969W        W37284   3.362  38.901   1.752
64970W        W37285  13.106  22.664   2.272
64971W        W37286  24.053   1.137  12.611
64972W        W37287  13.317  38.880  11.069
64973W        W37288  14.225  37.025  12.388
64974W        W37289   0.913  23.682   2.265
64975W        W37290  33.528   7.136  12.893
64976W        W37291  21.090  41.090   1.407
64977W        W37292   1.291  15.040  12.516
64978W        W37293  24.179  25.242   4.721
64979W        W37294  31.398   1.344   1.931
64980W        W37295  12.426  11.436   3.952
64981W        W37296  24.651  44.343  14.731
64982W        W37297  43.295  26.671   2.252
64983W        W37298  10.760  16.753  13.389
64984W        W37299  18.335  43.366  12.887
64985W        W37300  18.718  30.270  10.644
64986W        W37301   4.253   2.000  11.320
64987W        W37302  37.000  32.339   4.575
64988W        W37303  13.120  13.234   0.886
64989W        W37304   8.878  15.340  11.013
64990W        W37305  38.842   5.414  13.376
64991W        W37306  11.189  20.673  12.480
64992W        W37307  16.708  43.710  12.436
64993W        W37308  33.154  24.174  11.835
64994W        W37309  43.704  30.979  14.850
64995W        W37310  35.151  23.845  13.499
64996W        W37311  11.546  18.315   1.715
64997W        W37312   4.189  42.211  12.790
64998W        W37313  39.877  23.147  11.409
64999W        W37314  26.160  43.498   2.666
65000W        W37315   7.424  33.918   2.386
65001W        W37316   3.365  35.925  12.087
65002W        W37317  39.042  32.883   0.703
65003W        W37318  28.560  35.386  11.152
65004W        W37319   6.410  28.121  14.346
65005W        W37320  31.918  11.219  13.441
65006W        W37321   4.426  25.964   3.714
65007W        W37322  22.552  19.215   5.692
65008W        W37323  30.502   0.663   2.193
65009W        W37324  29.421  24.532   1.079
65010W        W37325  40.543  15.712   2.707
65011W        W37326  30.533  43.999   4.141
65012W        W37327  11.381  26.264  14.381
65013W        W37328  21.086  30.197   0.337
65014W        W37329  35.328  42.643  13.520
65015W        W37330  19.244  31.608  14.306
65016W        W37331   8.618  15.398  11.457
65017W        W37332   1.770   2.010   0.941
65018W        W37333  27.147   1.429   0.687
65019W        W37334  10.238   9.457  13.459
65020W        W37335  21.014  38.194   2.155
65021W        W37336  14.794  23.058   0.771
65022W        W37337  31.018   7.728  11.480
65023W        W37338  39.507  23.783  14.382
65024W        W37339  34.013  28.984  12.143
65025W        W37340  28.268   2.453  13.825
65026W        W37341  15.700   4.695  13.477
65027W        W37342  24.457  30.583  13.090
65028W        W37343  12.154  20.328  11.062
65029W        W37344  16.177  35.769   1.523
65030W        W37345   4.818   7.927  13.564
65031W        W37346  44.084  18.595  11.018
65032W        W37347  38.514  43.031   1.581
65033W        W37348  34.300  43.447  14.803
65034W        W37349  20.588   8.217  13.758
65035W        W37350  11.681  36.074  12.990
65036W        W37351  34.621  25.066   2.413
65037W        W37352   1.366  27.003   1.257
65038W        W37353  35.997   6.356   0.027
65039W        W37354  23.441  26.127   0.997
65040W        W37355  26.922  26.233  12.607
65041W        W37356  35.413  27.651  13.900
65042W        W37357  29.873  12.160  11.022
65043W        W37358  34.422  44.044  10.528
65044W        W37359  34.584  10.787  13.984
65045W        W37360  26.404  38.019  13.028
65046W        W37361   2.719  18.148  10.733
65047W        W37362   6.143  31.864   1.668
65048W        W37363  22.256  15.362   1.421
65049W        W37364  18.026   0.102   3.211
65050W        W37365  10.950   4.600  14.726
65051W        W37366  20.445  16.611   0.166
65052W        W37367  23.868  30.729   1.514
65053W        W37368  26.718  37.708   3.668
65054W        W37369  42.415  23.331   0.872
65055W        W37370  21.567  11.893  14.367
65056W        W37371  41.161   4.197  13.971
65057W        W37372   3.670   4.350  12.489
65058W        W37373  24.470  29.966   0.263
65059W        W37374   3.316  36.086   0.981
65060W        W37375  39.946  33.615   0.257
65061W        W37376  23.288  32.545  11.167
65062W        W37377  28.458  30.075  10.942
65063W        W37378  42.457  16.243  12.589
65064W        W37379  24.699   2.294  11.505
65065W        W37380  10.817   0.223   1.301
65066W        W37381  28.097  12.518   4.612
65067W        W37382   1.692  37.088  14.923
65068W        W37383  25.640   9.025  12.922
65069W        W37384  16.236  11.264   1.476
65070W        W37385   0.754  23.682  10.990
65071W        W37386  42.285  20.263   2.197
65072W        W37387  29.582  36.172   4.633
65073W        W37388  44.840  32.179   4.141
65074W        W37389  29.696   1.464   0.865
65075W        W37390  14.685  26.019  12.577
65076W        W37391  30.432   9.586   0.516
65077W        W37392  44.210   5.948   5.006
65078W        W37393  18.270  10.347  14.928
65079W        W37394  23.304  13.196  14.444
65080W        W37395  35.054  33.595   4.573
65081W        W37396   8.021  32.632   3.188
65082W        W37397  42.133  22.283  14.940
65083W        W37398  30.575  40.836   4.795
65084W        W37399  24.670  15.805   2.218
65085W        W37400  16.704  15.673  10.550
65086W        W37401  36.971  24.573   4.497
65087W        W37402   1.018   5.203   0.882
65088W        W37403  27.201  36.326   1.232
65089W        W37404  35.904  12.992  13.837
65090W        W37405  30.572  11.274   4.115
65091W        W37406  17.246   2.369  10.916
65092W        W37407   6.469  14.785   2.442
65093W        W37408  32.027  19.500  10.734
65094W        W37409  30.428  14.841   3.980
65095W        W37410  31.956  43.394   3.751
65096W        W37411  17.528  32.998  13.383
65097W        W37412   2.017  29.564   1.160
65098W        W37413  15.857  12.064   0.031
65099W        W37414  30.170  26.020  12.849
65100W        W37415  34.103  14.271  13.187
65101W        W37416  31.835   4.902   4.611
65102W        W37417  41.085   3.856   3.745
65103W        W37418  30.985  29.178   0.052
65104W        W37419  29.021  44.587   4.624
65105W        W37420  26.136  18.759   0.774
65106W        W37421  25.486  40.111   4.637
65107W        W37422  24.498  27.117   0.291
65108W        W37423  31.620  39.824  14.466
65109W        W37424  33.504   4.954  10.349
65110W        W37425  14.846   8.708  10.585
65111W        W37426  10.857   1.562   0.784
65112W        W37427  36.747  27.126  13.532
65113W        W37428  31.895   0.563   0.957
65114W        W37429  42.426  36.799  13.983
65115W        W37430  29.598  33.400  11.591
65116W        W37431   2.268  36.127  12.494
65117W        W37432  38.029  12.649   2.052
65118W        W37433  37.549  17.848  13.965
65119W        W37434  14.579  20.844  10.798
65120W        W37435  37.502   0.462  14.353
65121W        W37436  32.964  33.542   4.430
65122W        W37437  20.656  27.853  14.006
65123W        W37438   2.650  19.806  10.832
65124W        W37439   9.733  24.973   4.411
65125W        W37440  36.970  11.370   0.858
65126W        W37441  20.106  38.006   2.422
65127W        W37442   3.959  42.032  14.750
65128W        W37443  13.661  29.035   2.234
65129W        W37444   0.696  32.503   0.226
65130W        W37445  33.934   3.789  11.562
65131W        W37446   5.309  35.854   4.193
65132W        W37447   2.130  31.412   4.548
65133W        W37448   2.744  36.888   4.399
65134W        W37449  29.547  44.244   3.610
65135W        W37450  35.864   1.713  14.922
65136W        W37451  15.737  27.281   3.805
65137W        W37452  34.560  25.128  14.842
65138W        W37453  27.769   3.418  13.641
65139W        W37454  31.668  29.955  14.837
65140W        W37455  42.084  22.242   4.120
65141W        W37456  10.729   6.954   0.176
65142W        W37457  41.824  32.637   1.426
65143W        W37458  41.930   6.492   0.467
65144W        W37459  24.300   3.428   5.082
65145W        W37460  23.618  40.980  11.678
65146W        W37461  12.258   9.048   3.639
65147W        W37462  40.015  32.147   2.968
65148W        W37463  32.354  30.457  11.506
65149W        W37464  16.854  31.953  12.953
65150W        W37465   3.232  19.833  14.786
65151W        W37466  10.175  21.023   0.916
65152W        W37467  29.438   4.432  13.588
65153W        W37468  30.566  29.119  13.934
65154W        W37469  30.789  44.769  10.720
65155W        W37470   9.108  10.143  13.580
65156W        W37471  43.804  14.844   2.844
65157W        W37472   4.773  15.029   2.664
65158W        W37473   9.537  33.001  14.263
65159W        W37474   1.941  23.480  11.668
65160W        W37475   7.086  31.198   4.199
65161W        W37476  10.539  24.984   4.142
65162W        W37477  26.598   8.461  10.927
65163W        W37478   8.589   0.402  10.593
65164W        W37479  15.351   6.649   0.448
65165W        W37480   0.491   6.245  14.278
65166W        W37481  22.977  24.579  13.397
65167W        W37482  15.601  15.698   4.574
65168W        W37483   1.858   8.219   0.392
65169W        W37484   3.812   6.638   3.962
65170W        W37485  24.972  39.232   3.848
65171W        W37486  15.536  36.553  12.369
65172W        W37487  39.488  12.566  11.614
65173W        W37488  28.564  27.486  14.999
65174W        W37489  40.842   6.350  14.884
65175W        W37490  25.569   2.458  11.645
65176W        W37491  19.583  19.081  13.989
65177W        W37492  29.151   8.172  13.890
65178W        W37493  28.142  42.918   4.658
65179W        W37494  25.902  42.974   0.331
65180W        W37495  32.199   7.226   2.815
65181W        W37496  22.277  28.458  10.679
65182W        W37497  12.311  30.070  12.448
65183W        W37498  14.176  38.848   4.556
65184W        W37499  26.346   2.517   2.618
65185W        W37500  20.311   1.680  13.591
65186W        W37501   5.176  21.747  13.920
65187W        W37502   4.171   8.739   2.861
65188W        W37503  23.803   4.690  11.094
65189W        W37504  16.704  37.382   4.571
65190W        W37505  37.948  30.994  11.575
65191W        W37506  39.097   9.235  11.622
65192W        W37507  30.036  40.328  14.987
65193W        W37508  35.263  32.415  14.457
65194W        W37509  27.147  23.161   0.710
65195W        W37510   6.258  13.652   0.682
65196W        W37511  27.058   8.510  11.179
65197W        W37512  25.688   4.682   4.519
65198W        W37513  37.202  39.945  11.412
65199W        W37514  21.660  16.022   1.820
65200W        W37515  29.977  25.590  13.095
65201W        W37516   2.239  23.552   1.446
65202W        W37517  24.645   0.716   3.194
65203W        W37518  42.420  40.053   0.453
65204W        W37519  43.951  41.780  13.495
65205W        W37520  43.792  38.050   0.236
65206W        W37521  16.154  40.124   9.845
65207W        W37522  31.105  34.550  14.827
65208W        W37523   9.557  16.718   1.381
65209W        W37524  35.159   0.405  12.457
65210W        W37525  34.814  12.872   2.875
65211W        W37526  34.190  44.348   3.125
65212W        W37527  37.619  40.056   2.632
65213W        W37528  35.793  34.377   4.327
65214W        W37529  17.037  16.765  11.030
65215W        W37530  35.186  35.413   0.856
65216W        W37531   1.851   3.822  12.419
65217W        W37532  13.960  31.583   0.281
65218W        W37533  33.125  41.916  13.486
65219W        W37534   2.119   5.848  11.398
65220W        W37535  19.885   4.347  12.569
65221W        W37536  30.839   8.607  13.384
65222W        W37537  12.822  35.834   1.884
65223W        W37538   8.778  28.640   2.188
65224W        W37539  43.813  15.234   3.287
65225W        W37540  23.445  15.795   3.320
65226W        W37541  41.993  22.713   4.324
65227W        W37542  27.598  27.964   3.085
65228W        W37543   9.517  10.806  12.835
65229W        W37544  30.453  40.063  14.787
65230W        W37545  29.561  10.555   0.693
65231W        W37546  18.159  43.603  13.301
65232W        W37547  11.364  10.736  13.727
65233W        W37548  39.749  40.867   2.356
65234W        W37549  10.921  18.034  13.040
65235W        W37550  34.456  22.691  11.959
65236W        W37551  34.446  12.362  12.052
65237W        W37552  43.535   4.397  14.401
65238W        W37553  40.063  20.339   2.998
65239W        W37554  11.230  33.901   3.577
65240W        W37555  33.970  38.167   0.447
65241W        W37556   7.187  39.418   1.700
65242W        W37557   5.176  31.410  11.972
65243W        W37558   3.922  36.356   4.291
65244W        W37559  38.863   6.275   1.719
65245W        W37560  37.549  29.076  13.761
65246W        W37561  11.542   3.884  14.737
65247W        W37562  40.931   4.400  12.027
65248W        W37563  34.397  23.648   2.284
65249W        W37564  35.596  41.561   3.581
65250W        W37565  27.638  15.764   0.428
65251W        W37566  42.314  11.763  13.319
65252W        W37567  23.900  19.329  13.281
65253W        W37568  32.145  13.883  11.656
65254W        W37569  40.524  39.830  14.784
65255W        W37570  40.632  11.403  10.974
65256W        W37571   3.314   3.221   2.236
65257W        W37572  30.812  15.861   3.644
65258W        W37573  16.285   6.174   1.290
65259W        W37574  14.286  28.082  10.897
65260W        W37575  16.731   7.928   4.030
65261W        W37576   7.818  40.695   2.726
65262W        W37577  18.113   9.314  14.820
65263W        W37578  13.143  39.292   4.577
65264W        W37579  35.983  36.417   3.728
65265W        W37580  31.957  29.931  12.843
65266W        W37581  26.309  41.652  11.876
65267W        W37582  18.550   9.575   4.586
65268W        W37583  35.507  33.166  11.912
65269W        W37584  10.906  34.122  13.736
65270W        W37585  44.746   9.842   2.152
65271W        W37586  12.769  18.649   5.741
65272W        W37587   4.600  37.341   3.279
65273W        W37588  42.944  39.582  14.492
65274W        W37589  44.441  12.899  14.406
65275W        W37590  10.822  37.722  14.852
65276W        W37591  14.368  14.245   2.647
65277W        W37592  41.567  39.524  12.096
65278W        W37593  24.841  39.163  14.855
65279W        W37594  28.908  25.497  10.699
65280W        W37595  39.843   4.768  13.916
65281W        W37596  19.557   2.700   5.249
65282W        W37597  27.118  21.044   1.742
65283W        W37598  43.986  33.192   4.054
65284W        W37599  15.106  21.809   4.454
65285W        W37600   3.136  42.818  12.473
65286W        W37601   8.659  12.383   0.430
65287W        W37602  44.824   8.318  13.099
65288W        W37603  31.013  25.517  12.678
65289W        W37604  29.451   8.275  12.047
65290W        W37605  29.912  20.224   0.510
65291W        W37606  44.842  23.574  14.993
65292W        W37607  38.452  27.705   0.446
65293W        W37608  36.313   5.411  12.809
65294W        W37609  22.532  12.619   4.573
65295W        W37610  26.125  15.334  12.514
65296W        W37611  14.736  10.619   4.250
65297W        W37612  16.025  14.709   1.001
65298W        W37613   9.823  40.556   2.801
65299W        W37614  26.525   7.138   0.392
65300W        W37615  28.876  39.593  12.834
65301W        W37616  19.237  15.245   0.271
65302W        W37617   7.852  27.012   1.834
65303W        W37618  39.478  15.172   0.529
65304W        W37619  25.536   8.121   0.817
65305W        W37620  30.193  27.398  12.150
65306W        W37621   4.551  34.002  12.548
65307W        W37622  12.296  36.293   2.180
65308W        W37623  20.477  29.790  14.967
65309W        W37624  15.328  37.470   0.940
65310W        W37625   3.006  35.863   1.370
65311W        W37626   2.599  10.928   2.573
65312W        W37627  37.362  20.779  11.064
65313W        W37628  42.542  11.118  14.901
65314W        W37629  26.152  30.917   2.969
65315W        W37630  22.292  28.017   3.666
65316W        W37631   2.916  29.510  11.166
65317W        W37632  22.483  12.091   0.769
65318W        W37633   4.338  16.792   1.996
65319W        W37634   7.373  12.180   2.151
65320W        W37635  24.284  40.328   2.137
65321W        W37636  26.403  10.353  14.846
65322W        W37637  11.306  39.336   4.310
65323W        W37638   1.198  20.145  12.699
65324W        W37639   2.253   9.864  13.353
65325W        W37640  41.255  19.436   1.395
65326W        W37641  26.301  28.039  14.868
65327W        W37642  11.250  42.852  10.918
65328W        W37643  15.684  12.360   3.235
65329W        W37644  30.199  32.913   1.634
65330W        W37645  11.889   9.618   2.674
65331W        W37646  41.071   1.346   1.788
65332W        W37647  13.766  28.581  13.993
65333W        W37648  36.846  29.173   4.591
65334W        W37649  38.826  42.866   0.205
65335W        W37650  21.761  17.612  10.678
65336W        W37651  29.949  44.006   1.396
65337W        W37652  30.209  14.572  12.151
65338W        W37653  27.409  13.694  12.719
65339W        W37654  39.536  42.256  14.885
65340W        W37655  44.851  40.419   3.356
65341W        W37656  36.063  42.389   3.828
65342W        W37657   3.639   0.079   1.772
65343W        W37658  28.079  41.315   1.637
65344W        W37659  18.649  36.330   2.852
65345W        W37660  44.205  18.824  10.471
65346W        W37661  16.658  22.711   2.217
65347W        W37662  10.134  38.468   4.317
65348W        W37663  19.089  17.564   2.178
65349W        W37664  33.475  18.132   4.577
65350W        W37665  34.912   3.713   1.437
65351W        W37666  34.856  14.585   4.400
65352W        W37667  17.890  32.928  13.035
65353W        W37668  41.318   4.335  10.683
65354W        W37669   7.677  31.231  10.726
65355W        W37670  26.138  35.050   1.806
65356W        W37671  40.522  23.062  11.261
65357W        W37672  34.497  35.857  11.577
65358W        W37673  31.681  39.123   1.697
65359W        W37674  10.885  39.526   4.087
65360W        W37675  16.184  14.168   1.610
65361W        W37676  24.381   5.858   0.330
65362W        W37677  33.947   6.913   1.724
65363W        W37678  21.135  17.862  11.226
65364W        W37679  33.274  21.138  13.796
65365W        W37680   7.549  28.774   1.456
65366W        W37681  38.431  12.704   2.861
65367W        W37682  24.635   1.961   0.995
65368W        W37683  12.863  13.268   4.630
65369W        W37684  34.215  13.290  12.031
65370W        W37685  44.880  18.347   0.943
65371W        W37686  32.521   1.415  14.115
65372W        W37687  21.664  15.713  11.334
65373W        W37688  13.130  34.400   2.287
65374W        W37689  26.773  10.150   2.799
65375W        W37690  27.501  24.439   1.743
65376W        W37691  28.245  12.232   1.986
65377W        W37692  29.232  16.885  14.413
65378W        W37693   0.969   9.405  10.678
65379W        W37694  36.627  44.074  13.740
65380W        W37695  21.777  11.396   2.238
65381W        W37696   7.445  18.663   0.786
65382W        W37697  43.710  30.007  13.958
65383W        W37698  38.340  16.870  12.059
65384W        W37699  35.531  19.037   2.084
65385W        W37700  12.856  31.283   3.129
65386W        W37701  33.643  34.812   3.381
65387W        W37702   7.757  22.180  11.898
65388W        W37703  20.685   5.734   4.197
65389W        W37704  26.597  36.923   4.846
65390W        W37705  12.851  41.412  13.524
65391W        W37706   6.393  12.127   2.550
65392W        W37707  17.035  17.158  14.826
65393W        W37708  32.874  34.273   2.269
65394W        W37709  25.862  14.435   0.777
65395W        W37710  37.204  43.281   3.470
65396W        W37711  37.903   5.282   0.502
65397W        W37712   6.831  38.861   0.880
65398W        W37713   3.306  41.925  12.521
65399W        W37714  11.241   4.353  10.831
65400W        W37715  29.692   0.815   4.602
65401W        W37716   3.398   3.785   1.047
65402W        W37717  18.289   0.233  11.021
65403W        W37718  23.294  42.354  13.547
65404W        W37719  31.456  22.121   4.562
65405W        W37720  34.344  31.110  12.012
65406W        W37721  27.429  33.962  12.613
65407W        W37722  28.642   4.180  12.459
65408W        W37723  18.063   2.757   0.884
65409W        W37724  21.218  42.894  12.830
65410W        W37725  40.352  25.630  14.566
65411W        W37726  22.821  14.326   3.097
65412W        W37727  18.238  31.226   5.034
65413W        W37728   1.065  10.267   9.867
65414W        W37729  21.347  23.423  10.307
65415W        W37730  17.032  24.728  12.539
65416W        W37731  17.633  29.007   4.892
65417W        W37732   7.265  30.550   4.601
65418W        W37733   2.456  38.180   1.042
65419W        W37734  27.274  26.135   3.774
65420W        W37735  27.005  40.527   2.320
65421W        W37736   3.214   1.458  14.457
65422W        W37737  31.697  22.632  12.952
65423W        W37738  40.445  12.605   3.837
65424W        W37739  20.992   5.267   1.789
65425W        W37740  17.101  16.059   4.760
65426W        W37741  22.063  43.598   0.880
65427W        W37742  33.419  16.173  12.312
65428W        W37743  41.904  17.726   1.888
65429W        W37744  24.239  40.866  13.848
65430W        W37745   6.245  29.628  12.406
65431W        W37746  16.211   9.471  14.593
65432W        W37747  29.449  18.971   4.063
65433W        W37748  11.811  19.504   2.384
65434W        W37749  25.727   5.373  13.505
65435W        W37750  44.492  32.662   1.548
65436W        W37751  30.779  40.447   2.280
65437W        W37752  13.872  42.859  12.315
65438W        W37753  35.876  24.556   2.126
65439W        W37754  16.856  24.629   3.102
65440W        W37755  37.903  40.925  13.819
65441W        W37756  18.784  32.991  13.104
65442W        W37757  28.970  11.929   4.565
65443W        W37758  31.849   5.731  10.566
65444W        W37759  16.212   2.795   4.290
65445W        W37760   9.872  17.122   2.853
65446W        W37761  26.076  11.043   4.563
65447W        W37762  27.041  33.399   0.952
65448W        W37763  32.574  18.221  10.586
65449W        W37764   3.869  20.650   1.872
65450W        W37765  16.332  43.843   3.833
65451W        W37766  23.598   3.474   2.807
65452W        W37767  30.963  13.210   2.380
65453W        W37768  36.285  17.015  10.351
65454W        W37769  35.985  24.980   1.242
65455W        W37770  17.687  21.633   2.415
65456W        W37771   1.963  30.543  12.091
65457W        W37772   0.441  37.937   2.731
65458W        W37773  35.595  37.503  14.824
65459W        W37774  33.955   4.733  12.623
65460W        W37775  23.497   5.652  11.202
65461W        W37776   4.213  10.724   1.691
65462W        W37777  26.021  37.405  10.871
65463W        W37778   7.177  17.109   4.256
65464W        W37779   8.830  25.486   5.163
65465W        W37780  17.228  12.691  10.677
65466W        W37781  17.180   6.834  10.595
65467W        W37782  41.393   9.143   3.361
65468W        W37783  24.038  26.974   3.642
65469W        W37784   6.395  35.650  11.470
65470W        W37785   4.968  41.361  14.401
65471W        W37786   4.756  43.791   4.726
65472W        W37787  16.178   8.757   1.245
65473W        W37788  27.639  27.160  11.335
65474W        W37789  20.645  37.055   4.966
65475W        W37790  41.325  24.072   2.807
65476W        W37791  38.915   5.887  13.073
65477W        W37792  37.946  13.828  12.323
65478W        W37793   3.833  16.541  13.873
65479W        W37794  19.734  44.548   3.835
65480W        W37795  44.286   5.699  13.997
65481W        W37796  16.660  12.281   4.814
65482W        W37797   1.755  26.113  14.375
65483W        W37798  41.902  23.058  10.907
65484W        W37799  42.346  40.709  13.533
65485W        W37800  20.327  28.967  13.352
65486W        W37801  25.201  11.203  11.710
65487W        W37802  36.368  42.960  14.315
65488W        W37803  20.943  44.665  10.158
65489W        W37804  25.214  22.345   2.395
65490W        W37805  19.405  20.236   4.054
65491W        W37806  10.713  28.182   1.242
65492W        W37807  28.123  29.639   1.460
65493W        W37808  36.145   4.887  13.272
65494W        W37809  38.460   5.506   1.801
65495W        W37810  24.222  10.083  12.043
65496W        W37811  36.276  13.795  10.669
65497W        W37812   6.511   7.758  13.377
65498W        W37813  33.522  21.426  12.873
65499W        W37814  10.945   2.784   0.264
65500W        W37815  38.641  24.714  10.469
65501W        W37816   2.043   6.720  12.982
65502W        W37817   2.387  36.876  10.755
65503W        W37818   6.146  15.018  11.981
65504W        W37819  14.840   8.301   1.253
65505W        W37820  16.148   8.938   1.736
65506W        W37821   9.362  14.289   1.940
65507W        W37822  35.403  18.288  10.648
65508W        W37823  12.615  42.552  12.804
65509W        W37824  19.708  23.097   4.867
65510W        W37825  35.344  25.081  11.091
65511W        W37826  18.598  16.401   4.617
65512W        W37827  40.765  10.720  14.907
65513W        W37828  32.110   6.392  14.454
65514W        W37829  35.782  31.532  14.068
65515W        W37830  28.087  27.860  12.496
65516W        W37831  13.310  18.825  12.358
65517W        W37832   1.114  21.962   0.686
65518W        W37833  40.331   3.359  13.266
65519W        W37834  24.927  41.829   2.122
65520W        W37835  42.272   0.462   2.988
65521W        W37836  24.638   3.185   0.247
65522W        W37837   4.328  23.905   4.497
65523W        W37838  22.258  13.275  14.423
65524W        W37839  43.430   4.458   3.187
65525W        W37840  32.680  12.635  13.431
65526W        W37841  40.948  38.080  14.836
65527W        W37842  32.962  18.048  12.482
65528W        W37843  10.657  24.869  11.589
65529W        W37844  30.110   8.776  13.916
65530W        W37845   7.342  16.540   3.503
65531W        W37846   5.426  30.576   3.685
65532W        W37847   0.159  38.826   0.580
65533W        W37848  14.767  12.583  13.260
65534W        W37849   1.267  19.784   1.908
65535W        W37850  34.188  10.115   4.020
65536W        W37851  15.712  39.036   3.313
65537W        W37852  44.865  37.652  13.557
65538W        W37853  35.130  11.650   3.242
65539W        W37854  31.373  12.547  11.501
65540W        W37855   0.479  33.192  10.343
65541W        W37856  36.881  17.257  11.967
65542W        W37857  20.475  19.239   0.881
65543W        W37858  21.813   6.851  14.978
65544W        W37859  40.450  37.620  14.307
65545W        W37860  44.946  19.620   2.168
65546W        W37861   2.973  35.398  12.436
65547W        W37862  44.130   4.145   4.127
65548W        W37863  32.460  39.010   3.384
65549W        W37864  23.699  22.209   4.554
65550W        W37865   3.449  35.101   1.972
65551W        W37866  42.968  10.046  11.933
65552W        W37867  27.691   7.678  12.682
65553W        W37868   0.459  17.112  13.525
65554W        W37869  36.548  40.871  13.066
65555W        W37870  21.162  43.324   1.903
65556W        W37871  42.301  35.893   3.285
65557W        W37872  12.681  21.148   3.045
65558W        W37873   6.422  37.964  12.492
65559W        W37874   7.907  15.631   5.013
65560W        W37875   8.887   3.319  12.088
65561W        W37876  26.418  20.340   4.583
65562W        W37877  14.020   9.769   3.888
65563W        W37878  44.770  24.759  11.041
65564W        W37879  27.736   5.763   0.500
65565W        W37880   9.771  36.833  14.974
65566W        W37881  18.567  42.585  10.399
65567W        W37882  26.658  23.026   2.640
65568W        W37883  39.972  25.789  13.160
65569W        W37884   2.551  29.963   2.889
65570W        W37885  40.968  20.814  11.595
65571W        W37886  18.760  44.805  11.658
65572W        W37887  33.512  32.893   0.313
65573W        W37888  30.271  33.793   3.642
65574W        W37889  23.109  13.949   3.803
65575W        W37890  32.626  12.184  12.137
65576W        W37891   9.255  42.452  11.944
65577W        W37892   5.097  18.634  13.650
65578W        W37893   3.923   4.008   4.290
65579W        W37894  36.955  21.667  14.196
65580W        W37895  27.435   0.289   1.302
65581W        W37896  34.795   4.953   1.914
65582W        W37897  44.543  33.183  12.928
65583W        W37898   4.853   7.398  10.033
65584W        W37899   7.896  18.660   3.169
65585W        W37900   7.299   0.631   2.867
65586W        W37901  19.269  38.813   2.867
65587W        W37902  17.322  38.065   2.765
65588W        W37903  44.114  18.299  13.823
65589W        W37904  31.415  36.347   0.508
65590W        W37905  38.820  29.597   0.498
65591W        W37906  27.853  19.017   1.398
65592W        W37907  32.914  33.616   1.602
65593W        W37908  39.253  38.518   2.703
65594W        W37909  36.108  27.604  12.439
65595W        W37910   6.063  11.576  11.097
65596W        W37911  44.437  23.488  10.795
65597W        W37912  30.153  16.622  11.237
65598W        W37913  12.399  34.072   0.381
65599W        W37914  12.836  30.724  11.044
65600W        W37915  15.114   8.268   2.575
65601W        W37916  37.489  31.898   0.778
65602W        W37917  12.229  37.327  13.877
65603W        W37918  31.028  11.951   3.752
65604W        W37919  43.245  41.602  12.080
65605W        W37920  29.538  16.772  12.953
65606W        W37921  37.528  30.667  10.711
65607W        W37922  20.468  42.083  13.057
65608W        W37923  42.094  44.822  13.754
65609W        W37924  32.843  21.553   4.789
65610W        W37925  30.332  37.312   2.771
65611W        W37926  19.714  22.811   1.971
65612W        W37927   0.546   8.394   0.420
65613W        W37928  30.676   3.275   4.299
65614W        W37929  43.556  31.641   4.199
65615W        W37930   5.218  32.336  14.020
65616W        W37931   6.393  23.721  13.756
65617W        W37932  27.397  15.808  13.160
65618W        W37933  38.645   5.720   4.170
65619W        W37934  27.628   6.122  11.024
65620W        W37935  17.140   8.407   4.680
65621W        W37936  41.905  39.311   4.688
65622W        W37937  18.991  26.649   3.568
65623W        W37938  27.232  12.970  12.959
65624W        W37939  26.274   8.292  12.570
65625W        W37940   2.415  22.625  11.699
65626W        W37941  38.801  41.838   2.894
65627W        W37942   0.028  11.788   1.449
65628W        W37943  16.587  23.175   0.973
65629W        W37944  25.740  30.380   0.306
65630W        W37945  21.748  28.733   4.106
65631W        W37946  25.592  15.243   4.319
65632W        W37947  24.763   5.160  12.164
65633W        W37948  22.987   3.403   0.812
65634W        W37949   4.825  16.596  10.133
65635W        W37950  23.850  17.808   1.337
65636W        W37951  26.977  31.906  10.612
65637W        W37952  14.132   6.350  11.977
65638W        W37953  17.666  10.398  12.904
65639W        W37954   3.004  39.427  13.211
65640W        W37955  43.940  34.039  11.709
65641W        W37956  29.120   2.405   1.810
65642W        W37957  28.939  15.089   4.901
65643W        W37958  13.834  43.516   2.422
65644W        W37959   8.739  40.862   3.698
65645W        W37960  39.784   3.380   0.425
65646W        W37961  35.367   6.523   3.233
65647W        W37962  37.056   8.847  11.111
65648W        W37963  26.210  43.895   0.595
65649W        W37964  44.348  13.450   4.506
65650W        W37965   2.821  17.311  14.356
65651W        W37966  33.079   6.993   1.792
65652W        W37967  12.826  41.596  11.076
65653W        W37968  25.642  40.904  13.583
65654W        W37969  26.708  19.576  14.310
65655W        W37970  40.867  44.529   0.155
65656W        W37971  40.574  39.510  12.036
65657W        W37972  12.255  42.050  14.014
65658W        W37973  42.716  42.806   0.487
65659W        W37974  21.792  30.840   3.301
65660W        W37975  12.764  40.405  10.648
65661W        W37976  19.161  28.207  13.433
65662W        W37977  26.178   0.219  11.071
65663W        W37978  38.072  37.516  13.780
65664W        W37979  24.461  28.549  10.894
65665W        W37980  15.876  22.946  14.070
65666W        W37981  23.139  37.724   2.671
65667W        W37982  30.435  23.142   1.279
65668W        W37983   6.420  12.514  12.803
65669W        W37984   3.716  23.948   0.428
65670W        W37985   2.727   2.554   4.022
65671W        W37986  10.350   2.875   3.309
65672W        W37987  35.972  30.079  12.365
65673W        W37988   9.738  27.107   1.965
65674W        W37989  38.558  28.054   2.153
65675W        W37990  10.113  35.324  10.563
65676W        W37991  15.645  39.212   1.353
65677W        W37992  37.086  25.015   4.762
65678W        W37993   5.354  19.163   3.609
65679W        W37994  28.036   7.101   3.281
65680W        W37995  37.480  27.498  13.163
65681W        W37996  18.786  23.909  11.170
65682W        W37997   5.692  36.159  12.087
65683W        W37998  28.578  32.674   3.801
65684W        W37999  35.473   0.925  13.496
65685W        W38000  16.784  42.918  11.234
65686W        W38001  37.357  41.124   1.782
65687W        W38002   6.619   8.300  11.403
65688W        W38003  42.855   2.923  10.728
65689W        W38004   4.423  41.939   4.731
65690W        W38005  41.830  37.845  10.919
65691W        W38006   5.943  21.181   4.691
65692W        W38007  19.598  22.520   4.927
65693W        W38008  18.194  43.749   4.629
65694W        W38009  26.255  17.488  14.885
65695W        W38010  32.896  44.971   2.412
65696W        W38011  29.075  40.017   3.255
65697W        W38012  30.987   6.303   4.144
65698W        W38013  22.188  18.824  11.108
65699W        W38014  21.242   3.890   2.400
65700W        W38015  39.442  32.161  12.567
65701W        W38016  21.304   4.606  10.310
65702W        W38017   4.626  39.374  14.073
65703W        W38018  17.528  11.303   9.577
65704W        W38019  10.817  35.128  12.849
65705W        W38020  11.158  36.067  13.008
65706W        W38021   5.646  21.629  13.282
65707W        W38022  30.324  31.164  14.972
65708W        W38023  36.236  37.869   4.514
65709W        W38024   8.681  22.277   3.091
65710W        W38025   1.021  26.182  13.279
65711W        W38026  38.516  30.536   3.915
65712W        W38027  40.031  27.673  14.974
65713W        W38028  17.602  36.516  12.521
65714W        W38029   0.321   0.623   1.716
65715W        W38030   0.698  22.205  13.977
65716W        W38031  28.586  16.079   3.503
65717W        W38032  20.765  37.437  12.181
65718W        W38033  38.097  28.910  10.751
65719W        W38034   4.304  15.990   3.226
65720W        W38035   4.863  29.829   4.444
65721W        W38036  43.868   2.326   3.627
65722W        W38037  43.235  34.927   0.853
65723W        W38038   0.565  16.386   4.062
65724W        W38039  13.343  39.930  12.822
65725W        W38040  17.894   6.376   2.066
65726W        W38041  44.091  42.307   3.421
65727W        W38042  23.753  17.827  10.844
65728W        W38043  14.604  33.003  12.860
65729W        W38044  34.725  29.891   2.282
65730W        W38045  27.897  18.795  10.700
65731W        W38046  35.049  12.996  11.819
65732W        W38047   6.957  18.527   0.750
65733W        W38048  18.710   6.592   3.813
65734W        W38049  40.487  27.139   1.908
65735W        W38050  26.210   1.200   4.166
65736W        W38051  17.848   6.406  14.361
65737W        W38052  43.842  24.189   1.202
65738W        W38053  13.796  27.384   1.252
65739W        W38054  32.683   9.860  13.355
65740W        W38055  29.232  42.869   2.447
65741W        W38056  15.871  27.458   3.355
65742W        W38057  44.632  26.669   1.651
65743W        W38058  43.691  18.323  12.638
65744W        W38059  43.019  13.965  13.945
65745W        W38060  39.584  42.076   1.261
65746W        W38061  26.733  24.188  12.110
65747W        W38062  32.158  36.158   4.821
65748W        W38063  19.544  13.703   4.839
65749W        W38064  27.404  20.745  12.853
65750W        W38065   1.248  42.372  13.841
65751W        W38066  20.780  36.927  12.064
65752W        W38067  11.175  18.565  11.497
65753W        W38068   7.333   3.613   2.283
65754W        W38069  24.753  26.621   1.841
65755W        W38070   4.973   7.242  12.507
65756W        W38071  43.554   0.480  13.850
65757W        W38072  27.376  22.405  11.627
65758W        W38073  16.683   4.469  12.105
65759W        W38074  43.883  21.725   3.088
65760W        W38075  34.945  43.761   0.921
65761W        W38076  14.709  17.292  10.703
65762W        W38077   3.769  33.993  10.692
65763W        W38078  40.765  28.902   3.241
65764W        W38079   4.191  40.041  11.504
65765W        W38080  19.217   9.506  13.480
65766W        W38081  27.428  20.441   2.834
65767W        W38082  24.659  22.115  11.701
65768W        W38083  28.507  41.258   3.490
65769W        W38084  11.107  39.980  10.639
65770W        W38085  13.076  14.756  14.094
65771W        W38086  35.826  10.032   4.437
65772W        W38087  22.237   6.192   2.241
65773W        W38088  43.460  44.140  11.134
65774W        W38089  37.192   0.451  10.837
65775W        W38090  20.165   6.856  13.022
65776W        W38091  36.175  29.436   0.250
65777W        W38092  37.560  40.160   1.842
65778W        W38093  34.120  27.512  14.889
65779W        W38094   0.491  26.495   2.669
65780W        W38095  13.726  32.709  11.453
65781W        W38096  16.797  11.141   2.854
65782W        W38097   4.863   7.361   3.566
65783W        W38098  29.572   1.306  14.789
65784W        W38099  25.794  20.053   2.250
65785W        W38100  25.435   2.623   4.080
65786W        W38101  30.387  20.234   5.020
65787W        W38102  22.074  25.952  10.658
65788W        W38103  30.256   8.783  14.867
65789W        W38104   6.966  33.304  11.592
65790W        W38105  30.107  20.566  11.092
65791W        W38106  13.057   5.611  12.262
65792W        W38107  17.740  10.247   2.272
65793W        W38108   6.613  40.431   2.209
65794W        W38109  20.551  29.535  12.027
65795W        W38110   5.205  40.791  13.861
65796W        W38111  12.142  42.528   2.164
65797W        W38112   3.258  29.266   5.174
65798W        W38113  32.973  42.823   4.143
65799W        W38114   7.744  16.242  10.504
65800W        W38115  44.182  39.392   1.073
65801W        W38116  37.331  38.831  13.725
65802W        W38117   7.299  11.693   2.317
65803W        W38118  33.542  19.028   4.581
65804W        W38119  10.775   6.706  13.835
65805W        W38120  15.547  42.692  11.101
65806W        W38121   1.445  43.420  13.439
65807W        W38122  27.735  38.417   4.906
65808W        W38123  37.019  36.519  12.902
65809W        W38124  40.141   0.497  13.333
65810W        W38125  37.131  14.699   2.279
65811W        W38126  26.681  40.844  12.010
65812W        W38127  15.258  43.316  14.539
65813W        W38128  29.724  26.045  13.092
65814W        W38129  35.872  21.498  13.928
65815W        W38130  21.518  27.484   3.179
65816W        W38131  32.939   2.477  12.185
65817W        W38132  33.575   8.206  12.135
65818W        W38133  20.293   2.935   4.444
65819W        W38134  34.836   9.370  11.183
65820W        W38135  25.979  17.608  12.109
65821W        W38136  42.778  33.809   5.121
65822W        W38137   9.770  28.471   3.879
65823W        W38138  33.044   6.281  12.826
65824W        W38139  30.205   2.636   2.967
65825W        W38140  19.187  38.034   0.910
65826W        W38141  36.396   8.420   0.741
65827W        W38142   8.731  32.985   4.675
65828W        W38143  40.574  29.456  14.403
65829W        W38144  34.573   0.651  11.137
65830W        W38145  39.184   0.037   2.869
65831W        W38146  38.722  25.074   3.866
65832W        W38147  31.908  37.121   0.734
65833W        W38148  36.731  30.753   2.750
65834W        W38149  30.032  22.545  10.634
65835W        W38150  10.269   4.360   1.292
65836W        W38151  12.730   7.894  11.609
65837W        W38152  11.426   0.748   5.175
65838W        W38153  30.160  39.875  13.382
65839W        W38154   8.889   4.341   3.776
65840W        W38155  29.648   2.724   2.311
65841W        W38156  20.037  33.331   0.282
65842W        W38157  31.046   3.109  11.468
65843W        W38158  11.800  26.123  12.933
65844W        W38159  37.595  37.764  12.475
65845W        W38160  23.271   7.391  12.494
65846W        W38161  16.688  43.832  13.351
65847W        W38162  27.599  32.543  10.576
65848W        W38163  19.432   2.659   2.224
65849W        W38164  44.878   3.568   4.563
65850W        W38165  16.572   8.680   1.928
65851W        W38166  18.133  13.659  14.986
65852W        W38167  25.378  26.593  14.248
65853W        W38168  35.819  25.702   2.668
65854W        W38169   4.627  27.977   3.315
65855W        W38170  31.377  13.091   2.723
65856W        W38171  38.480  15.983   4.273
65857W        W38172  33.223  38.675  13.030
65858W        W38173  15.920  16.065   0.695
65859W        W38174  13.882  14.266  14.712
65860W        W38175  33.103  36.901   2.187
65861W        W38176  19.594  43.936  10.703
65862W        W38177  27.727  38.321   0.015
65863W        W38178  27.933  10.308  14.804
65864W        W38179  32.334  12.395   2.924
65865W        W38180  39.804  22.111  13.537
65866W        W38181   6.865  39.034   4.533
65867W        W38182   3.675  14.171  14.249
65868W        W38183  12.772  19.776   1.305
65869W        W38184   7.206  38.980  14.884
65870W        W38185   3.382  10.906  11.108
65871W        W38186  18.337  36.426  13.646
65872W        W38187  35.295  38.894  14.264
65873W        W38188  29.467  43.528  13.861
65874W        W38189  15.840  22.568  13.170
65875W        W38190   7.861   3.425   0.039
65876W        W38191  25.095   2.850  14.401
65877W        W38192  18.773  30.243   0.386
65878W        W38193  31.652  43.795   3.652
65879W        W38194  42.622  19.749   1.300
65880W        W38195  44.931   8.976  13.959
65881W        W38196  21.307  17.545   3.669
65882W        W38197  14.388  43.351  12.907
65883W        W38198  44.043  24.940  12.418
65884W        W38199  29.669  26.598   1.263
65885W        W38200  33.412  17.302   3.381
65886W        W38201   4.343  41.229   1.828
65887W        W38202  42.703   5.671   2.786
65888W        W38203   3.224  10.183   3.837
65889W        W38204  43.777  38.987  13.839
65890W        W38205   5.740   1.226   1.129
65891W        W38206  42.260  37.079  13.561
65892W        W38207  14.727  27.444   2.386
65893W        W38208   2.663   1.636   4.220
65894W        W38209  10.277   6.162   2.182
65895W        W38210  16.760  30.140  14.012
65896W        W38211  20.006  35.318  12.030
65897W        W38212  34.501   0.232  14.382
65898W        W38213  35.791  33.245  14.353
65899W        W38214  30.952  36.081   4.663
65900W        W38215  14.673   3.953  11.640
65901W        W38216  35.416  31.831  13.270
65902W        W38217  26.754  31.022   3.097
65903W        W38218   5.951  16.020  11.185
65904W        W38219  19.223  39.021  12.879
65905W        W38220  41.850  39.359  12.487
65906W        W38221  20.266  43.876   4.252
65907W        W38222   7.511  34.894   3.171
65908W        W38223  38.820  32.680  13.664
65909W        W38224  40.049  34.877  13.292
65910W        W38225   3.279  10.383   5.079
65911W        W38226  18.503  20.527   3.899
65912W        W38227  25.094  10.485   3.677
65913W        W38228  36.131  24.188  14.805
65914W        W38229  30.470  38.053   1.248
65915W        W38230  21.602  36.477   3.701
65916W        W38231   4.567  11.730   3.959
65917W        W38232  24.447  15.238   3.772
65918W        W38233  24.701  12.416  10.929
65919W        W38234   9.770  42.270   0.373
65920W        W38235  20.641  19.558   2.731
65921W        W38236  33.022   1.859  14.926
65922W        W38237  16.796  11.905   3.945
65923W        W38238  34.335  11.240   1.344
65924W        W38239  34.351  25.923  11.259
65925W        W38240   8.098  27.475   4.188
65926W        W38241  17.834  35.128  12.067
65927W        W38242  27.139   4.284  12.317
65928W        W38243  16.505   2.802  10.661
65929W        W38244   3.294  38.316   0.860
65930W        W38245  43.502  26.989   3.337
65931W        W38246  30.967  44.258  10.482
65932W        W38247  18.772  29.744   0.218
65933W        W38248  14.616   0.411  13.039
65934W        W38249  30.260  21.256  12.033
65935W        W38250  40.064  23.244  13.916
65936W        W38251  40.216  43.947  11.531
65937W        W38252   8.858  38.035   3.430
65938W        W38253  22.070   6.801  13.839
65939W        W38254  17.717  15.860  12.964
65940W        W38255  27.113  31.414   1.708
65941W        W38256   8.875  24.993  14.322
65942W        W38257  41.595   2.500  10.728
65943W        W38258   8.562  29.694  12.496
65944W        W38259  14.236  33.452  14.325
65945W        W38260  20.816  19.780   3.185
65946W        W38261  14.677  38.630   3.990
65947W        W38262  18.766  27.869   4.140
65948W        W38263   3.317  33.598  14.896
65949W        W38264   9.633  18.199  11.657
65950W        W38265  23.290  15.712   4.397
65951W        W38266  39.870   7.654   3.834
65952W        W38267   1.771  18.661   3.279
65953W        W38268  20.287  29.089   2.786
65954W        W38269  36.809  40.139  11.120
65955W        W38270  14.881  14.773  14.304
65956W        W38271   6.691  43.538  14.596
65957W        W38272   0.467  44.286   1.185
65958W        W38273  22.513  29.489   3.863
65959W        W38274   7.474  34.578  12.096
65960W        W38275  11.211  44.800  11.653
65961W        W38276   0.352  13.604   2.915
65962W        W38277  35.689  42.937  14.006
65963W        W38278  35.999  20.996  12.002
65964W        W38279  36.002  43.546  14.900
65965W        W38280  28.067  40.562   4.469
65966W        W38281  43.811   3.226   2.722
65967W        W38282  10.304  36.821  14.300
65968W        W38283  34.413   1.484  13.984
65969W        W38284  29.249   6.864   1.827
65970W        W38285  29.984  10.576  13.129
65971W        W38286   6.437  29.666   0.479
65972W        W38287  19.129  10.990  13.983
65973W        W38288  20.362  18.646  12.040
65974W        W38289  15.236  32.510   4.197
65975W        W38290  35.917  39.460   0.640
65976W        W38291  39.749  19.694  12.081
65977W        W38292  43.884  30.847   0.300
65978W        W38293   9.664  40.431  14.353
65979W        W38294  30.173  41.947   0.240
65980W        W38295  43.174  41.884   2.199
65981W        W38296  28.609  42.416   4.571
65982W        W38297  22.363  31.520  14.785
65983W        W38298  20.057  28.694   0.247
65984W        W38299  16.638  27.567  12.687
65985W        W38300  23.697   8.986  11.641
65986W        W38301  37.419  41.505   2.217
65987W        W38302  42.830  39.825   2.385
65988W        W38303  10.878   3.848   1.230
65989W        W38304   9.742  15.080   4.258
65990W        W38305  23.017   4.452   2.294
65991W        W38306  18.770  16.598  12.577
65992W        W38307  43.765   0.284  13.411
65993W        W38308  14.884   5.826   1.376
65994W        W38309  12.572  14.860  13.991
65995W        W38310  27.075  17.359  14.112
65996W        W38311  14.383  26.979   2.538
65997W        W38312   5.425   5.271  10.396
65998W        W38313  34.085   9.476  12.989
65999W        W38314  27.122  33.715   1.377
66000W        W38315  24.936  11.339   0.395
66001W        W38316  42.837   5.361   0.398
66002W        W38317   9.666  18.153  14.322
66003W        W38318  33.109  15.077  10.975
66004W        W38319  12.880  20.141   4.793
66005W        W38320   3.495  15.517  14.768
66006W        W38321   1.218  34.077  13.587
66007W        W38322  21.337  42.856  11.497
66008W        W38323   1.662   1.560  10.739
66009W        W38324   2.672   3.363   3.806
66010W        W38325  37.252  29.065  12.492
66011W        W38326  40.798  10.309   3.712
66012W        W38327  31.873  20.332  13.885
66013W        W38328  31.222   0.163  12.559
66014W        W38329  19.512  20.284   1.874
66015W        W38330  17.196  43.874  12.448
66016W        W38331  25.634  11.406  13.833
66017W        W38332  32.627  33.473  14.970
66018W        W38333  16.264  20.028   0.007
66019W        W38334  18.609  18.032   1.885
66020W        W38335   8.737  26.251   3.158
66021W        W38336   8.142  22.660   1.392
66022W        W38337  30.439  16.730   2.156
66023W        W38338  39.520  21.479   2.874
66024W        W38339  38.639  27.510  14.495
66025W        W38340  33.044   9.451  13.910
66026W        W38341  14.121  40.337   3.607
66027W        W38342  32.382  27.609   4.434
66028W        W38343   2.409  28.431   2.700
66029W        W38344  15.560   4.352   4.769
66030W        W38345  11.196  41.458   3.201
66031W        W38346   9.587  35.577   2.257
66032W        W38347  26.590  16.498  13.531
66033W        W38348  32.584  14.721   4.822
66034W        W38349   7.915  10.015  11.965
66035W        W38350  31.407  25.052  14.506
66036W        W38351  38.458   7.522   0.521
66037W        W38352  15.634  41.537   3.129
66038W        W38353  44.965   5.201  11.614
66039W        W38354   8.716   8.790  12.384
66040W        W38355  24.712  42.747   2.167
66041W        W38356  37.916  22.236   4.537
66042W        W38357  19.716  38.936   4.489
66043W        W38358   7.705  31.913  12.445
66044W        W38359   2.454  18.424  13.153
66045W        W38360  32.817  16.062  14.812
66046W        W38361   1.415  43.768   2.253
66047W        W38362  38.814  27.271   1.714
66048W        W38363  41.672  29.460   1.425
66049W        W38364  22.349  27.341  11.378
66050W        W38365  21.443  14.352   1.895
66051W        W38366  20.655   1.266  14.799
66052W        W38367  34.894  31.841  11.609
66053W        W38368  37.156  21.137  14.311
66054W        W38369  40.798  10.198   1.078
66055W        W38370  33.672  28.043   0.870
66056W        W38371   6.210  20.250   3.968
66057W        W38372  36.874   6.684   2.203
66058W        W38373  31.945   1.436   2.803
66059W        W38374   9.255  24.756  12.603
66060W        W38375  32.677   0.574   3.115
66061W        W38376   9.374  34.688   4.098
66062W        W38377  42.508  19.277  11.614
66063W        W38378  11.141  31.990  14.602
66064W        W38379  22.795  25.133   3.162
66065W        W38380  29.143  12.071   0.422
66066W        W38381  40.699  40.896  13.578
66067W        W38382  12.545   9.753  10.675
66068W        W38383   8.803  36.006   1.748
66069W        W38384  43.926   3.979  11.717
66070W        W38385  14.586   5.400  14.374
66071W        W38386  19.205  12.924   1.438
66072W        W38387  26.642  26.451   4.118
66073W        W38388  44.931   2.133   2.327
66074W        W38389  11.721   9.887   1.202
66075W        W38390  38.408  25.726  12.427
66076W        W38391  19.190  41.099   2.243
66077W        W38392  41.911  33.922  11.045
66078W        W38393  29.163   3.467   2.800
66079W        W38394   8.184   2.812  14.054
66080W        W38395  12.149  24.236  14.900
66081W        W38396  13.982  42.443   1.651
66082W        W38397  13.275  32.069   0.035
66083W        W38398   5.695  38.872  14.779
66084W        W38399  34.239  43.042  10.524
66085W        W38400   9.081  35.426   2.349
66086W        W38401  10.263   7.842  10.633
66087W        W38402  28.075  23.089   1.739
66088W        W38403   4.317   1.383  14.723
66089W        W38404  16.578   4.586  10.503
66090W        W38405   0.935  32.956  11.072
66091W        W38406  39.828   9.283   0.388
66092W        W38407  19.055  42.835   2.526
66093W        W38408  34.822  14.027  10.510
66094W        W38409   9.102  10.074   4.771
66095W        W38410  30.338   8.877  11.186
66096W        W38411   2.728  44.535   2.716
66097W        W38412  15.340  29.407   3.906
66098W        W38413  16.840   1.793   2.808
66099W        W38414  12.152   4.916   0.236
66100W        W38415  29.165   6.769   1.339
66101W        W38416  26.700   9.311   4.169
66102W        W38417   8.254   5.424  11.501
66103W        W38418  36.793  16.292   1.918
66104W        W38419   3.619  30.975   1.318
66105W        W38420  21.199  36.006  10.757
66106W        W38421  31.852   6.185  14.858
66107W        W38422   4.225  17.852   0.337
66108W        W38423  33.364  32.620   0.733
66109W        W38424  35.476  11.868   1.667
66110W        W38425   8.503   7.194  11.507
66111W        W38426  12.243  33.914  13.804
66112W        W38427   5.657  37.366  11.504
66113W        W38428  18.885  32.338   2.327
66114W        W38429  16.981  15.744   3.286
66115W        W38430  11.685  10.252  13.380
66116W        W38431  30.543  24.484   3.264
66117W        W38432  12.329  17.892  14.875
66118W        W38433  41.260  28.636  11.595
66119W        W38434  26.324  13.636  14.038
66120W        W38435  24.096  29.956  11.895
66121W        W38436  39.796   1.320  12.961
66122W        W38437  24.048  29.816   3.238
66123W        W38438   4.737  38.588  10.638
66124W        W38439  25.948   8.943   4.075
66125W        W38440  43.554   1.681   4.600
66126W        W38441  35.477  33.392  14.868
66127W        W38442  22.158   7.190  12.962
66128W        W38443  11.886   7.915   0.425
66129W        W38444   8.900  21.412   5.167
66130W        W38445  12.832   2.785  12.057
66131W        W38446   5.330  36.032   0.646
66132W        W38447  18.104  37.942   4.976
66133W        W38448  44.711  32.009   1.435
66134W        W38449  39.590  33.072   2.695
66135W        W38450  10.792  33.982   2.094
66136W        W38451  15.736  32.739  12.087
66137W        W38452  29.447  26.652   9.638
66138W        W38453  14.978  16.356  13.410
66139W        W38454  12.444  35.177   1.658
66140W        W38455   2.945  36.004   4.392
66141W        W38456  34.051  34.091  12.505
66142W        W38457  10.939  32.718  14.544
66143W        W38458  12.650  28.639  14.385
66144W        W38459   7.212  25.011  11.658
66145W        W38460  30.623  44.799   1.710
66146W        W38461  21.630  28.538  14.547
66147W        W38462  13.271  14.660  11.449
66148W        W38463  10.968   6.270  13.997
66149W        W38464   6.808  38.125   0.467
66150W        W38465  15.071  10.666  14.805
66151W        W38466  19.884  10.452  11.525
66152W        W38467   7.729  10.839   2.343
66153W        W38468  17.107  10.160   0.978
66154W        W38469  24.763  26.296  14.823
66155W        W38470  21.129  39.037   0.259
66156W        W38471  44.395  33.582  14.205
66157W        W38472   9.142   1.052   1.269
66158W        W38473  21.589  13.819  14.114
66159W        W38474  22.573   8.405   2.177
66160W        W38475   2.869   9.671   2.551
66161W        W38476  37.112   9.652   3.258
66162W        W38477   9.389  16.677  12.479
66163W        W38478  29.867  34.462  14.581
66164W        W38479  38.861   7.755   2.243
66165W        W38480  30.792  20.864   2.819
66166W        W38481  29.139   8.124  14.887
66167W        W38482  17.294  12.539   3.717
66168W        W38483  24.200   2.364  13.457
66169W        W38484   0.189  11.357   5.246
66170W        W38485  38.592   9.110  11.676
66171W        W38486  26.140  19.525   3.118
66172W        W38487  15.596  15.599   3.704
66173W        W38488  31.027  23.742  13.548
66174W        W38489  17.674  33.156  10.691
66175W        W38490  22.972  28.989  12.428
66176W        W38491  23.036   2.445   3.151
66177W        W38492  13.559  10.762  11.488
66178W        W38493  26.453  42.011  14.628
66179W        W38494  19.667   8.252  13.526
66180W        W38495  22.488  17.856   1.763
66181W        W38496  29.578  17.960  10.398
66182W        W38497  25.645  28.054   2.256
66183W        W38498   1.931  25.509  14.370
66184W        W38499  40.552  22.680   0.949
66185W        W38500  22.994  13.305  11.123
66186W        W38501  23.450   5.388  11.650
66187W        W38502   1.235  33.926  14.482
66188W        W38503  26.740  10.131   4.152
66189W        W38504  13.908  24.282   3.786
66190W        W38505  21.855  23.352   2.413
66191W        W38506   4.703  24.036  10.919
66192W        W38507   2.256  35.829   1.795
66193W        W38508  17.620  12.280  12.076
66194W        W38509   5.644  17.263  14.382
66195W        W38510  32.112   8.746  10.715
66196W        W38511  24.241  15.606  11.598
66197W        W38512  42.420  20.639   4.862
66198W        W38513   7.052  23.459   2.001
66199W        W38514  16.298  12.216  13.182
66200W        W38515  43.278   8.193  11.980
66201W        W38516  22.780   3.403  12.104
66202W        W38517  11.109  18.987   2.243
66203W        W38518  33.464   3.246   2.780
66204W        W38519   5.285  30.860  12.825
66205W        W38520  22.287   5.052   0.280
66206W        W38521  18.276  21.960   0.305
66207W        W38522  16.160  10.305   0.554
66208W        W38523  20.271  10.467   4.310
66209W        W38524  43.116  25.953   1.524
66210W        W38525  41.545  43.511  14.543
66211W        W38526  35.819  17.628  10.740
66212W        W38527   9.297  25.448  11.643
66213W        W38528  27.054  36.831   0.848
66214W        W38529  13.173  13.761   0.518
66215W        W38530  39.444  17.584   2.648
66216W        W38531   4.433  19.771   2.817
66217W        W38532  39.404  41.741  13.121
66218W        W38533  21.319  27.014  11.217
66219W        W38534  33.191  43.057  11.388
66220W        W38535   4.730  37.864  13.545
66221W        W38536  31.347  33.285  12.927
66222W        W38537  23.056  13.350  14.895
66223W        W38538   6.121  32.216   2.086
66224W        W38539  11.818  38.813   1.342
66225W        W38540  37.902  24.245   2.467
66226W        W38541   6.467  33.967  13.836
66227W        W38542  13.465  33.110  12.480
66228W        W38543  41.414   9.996   9.929
66229W        W38544  34.104  16.743   4.482
66230W        W38545  13.718  36.674   1.188
66231W        W38546  13.602  16.086   3.128
66232W        W38547  30.337  32.483  13.920
66233W        W38548  16.022  10.956   2.730
66234W        W38549  30.345  39.385  14.971
66235W        W38550  41.955  34.870  10.921
66236W        W38551   8.418  24.201   3.344
66237W        W38552   1.205   6.167   1.313
66238W        W38553  29.737  35.357  11.909
66239W        W38554  29.335  13.876  14.169
66240W        W38555  23.516  10.083   3.768
66241W        W38556  37.039  23.226   2.772
66242W        W38557  17.275  20.338   0.282
66243W        W38558  25.696  13.242   2.294
66244W        W38559  12.352  31.636   0.197
66245W        W38560  37.269  28.043  11.027
66246W        W38561  21.035  13.782   2.262
66247W        W38562  40.460  12.082  13.947
66248W        W38563  32.459  15.632   1.263
66249W        W38564  12.959  35.255   2.773
66250W        W38565  43.856  26.927  10.866
66251W        W38566   6.771  40.690   2.645
66252W        W38567  13.813  34.342   1.881
66253W        W38568  36.860   0.702   0.380
66254W        W38569  34.977  29.643  11.480
66255W        W38570  12.057  25.163  12.514
66256W        W38571  14.975  24.492   1.161
66257W        W38572  23.707  39.666  14.303
66258W        W38573  23.298  36.114  11.254
66259W        W38574   8.687  37.202   2.358
66260W        W38575  37.944  12.775   0.210
66261W        W38576   7.180  37.298   0.418
66262W        W38577   5.798  27.262   1.229
66263W        W38578  21.473   8.646  13.386
66264W        W38579  18.144   6.922  11.623
66265W        W38580  30.630   0.729  12.921
66266W        W38581  33.966   3.251  12.453
66267W        W38582  26.731  13.728  12.929
66268W        W38583  39.270  20.242   0.158
66269W        W38584  33.606   1.267  12.024
66270W        W38585  14.147  30.069  14.326
66271W        W38586  24.477   2.016  11.119
66272W        W38587  34.338  42.199  11.564
66273W        W38588  10.609  26.668  12.037
66274W        W38589  32.719   4.841  11.631
66275W        W38590   0.187  23.540   2.825
66276W        W38591  30.597   3.982   0.465
66277W        W38592  22.185  12.811   0.341
66278W        W38593  38.476   7.831   4.670
66279W        W38594   7.091  20.257   0.357
66280W        W38595   2.838  31.156  13.958
66281W        W38596  35.838  38.476   0.463
66282W        W38597  26.462  14.613   2.984
66283W        W38598  28.498  17.206   2.439
66284W        W38599  20.503  44.211  10.772
66285W        W38600  30.407  24.868   4.490
66286W        W38601  26.037  42.216  11.135
66287W        W38602  27.566  23.541  10.760
66288W        W38603  26.228  23.887   0.091
66289W        W38604   8.788  41.917  12.620
66290W        W38605  21.486  13.844   4.258
66291W        W38606   8.606  17.651   5.135
66292W        W38607  11.989  22.960   3.162
66293W        W38608  41.962   3.967  12.535
66294W        W38609   0.597  30.067   3.896
66295W        W38610  11.251  20.377  12.058
66296W        W38611  28.925  27.733   3.258
66297W        W38612  14.340  42.364  13.434
66298W        W38613  40.055  18.081  11.868
66299W        W38614  36.070  34.403   0.292
66300W        W38615  32.428  15.780  10.713
66301W        W38616   6.678  11.856  13.511
66302W        W38617   1.832  31.039  10.418
66303W        W38618  36.937   7.717   0.936
66304W        W38619  29.437  44.952  12.383
66305W        W38620  30.553   3.255  11.536
66306W        W38621  28.304   8.167   0.580
66307W        W38622  28.510  38.570   3.184
66308W        W38623  22.118  18.647  10.626
66309W        W38624  32.770  30.924   4.694
66310W        W38625  21.534   7.900  12.057
66311W        W38626  38.065  21.114  11.714
66312W        W38627   5.683  40.800  12.186
66313W        W38628  28.302   0.897  12.636
66314W        W38629  26.669  18.685   3.019
66315W        W38630  20.513  34.543  13.663
66316W        W38631  24.504  31.252   4.532
66317W        W38632   3.184  20.543   4.296
66318W        W38633  17.049  38.007  13.887
66319W        W38634   6.715  13.843  13.404
66320W        W38635  16.248  12.048  12.693
66321W        W38636   5.468  30.708   2.795
66322W        W38637  42.048  38.569   1.375
66323W        W38638  35.594   8.105  14.459
66324W        W38639  21.178  15.849   1.630
66325W        W38640  23.714  40.069  13.966
66326W        W38641  19.677  35.589   0.778
66327W        W38642   4.306  44.982   0.592
66328W        W38643  31.718  12.253  12.938
66329W        W38644  18.576  37.992   5.171
66330W        W38645  12.225   2.301  13.400
66331W        W38646  39.301  41.128   2.453
66332W        W38647  12.242  23.063   3.608
66333W        W38648   5.454  15.666   2.507
66334W        W38649  34.568   3.447  14.330
66335W        W38650   1.260  44.459  11.237
66336W        W38651  43.960  21.039   3.721
66337W        W38652  40.427  41.912   1.936
66338W        W38653  13.140   6.660  12.019
66339W        W38654  27.269   0.187  11.149
66340W        W38655  39.204  24.881   3.770
66341W        W38656  37.945  22.592   1.315
66342W        W38657  37.176  40.470  11.980
66343W        W38658  33.873  44.653   4.922
66344W        W38659  15.301  43.371  12.524
66345W        W38660  14.646   8.800   1.329
66346W        W38661   6.851  25.288  11.459
66347W        W38662   8.730  21.716  13.951
66348W        W38663   8.282   3.649   1.272
66349W        W38664  12.316  24.610   1.229
66350W        W38665  27.836  34.491  11.488
66351W        W38666  40.277  44.224   2.650
66352W        W38667  29.373  39.296  11.626
66353W        W38668  24.746   3.725  13.450
66354W        W38669  32.814  26.550  11.558
66355W        W38670  24.743  37.899   4.670
66356W        W38671   8.701  33.077   1.830
66357W        W38672  14.361  20.796  14.876
66358W        W38673   7.841  15.238   4.266
66359W        W38674  29.024   8.657  11.873
66360W        W38675  23.924  36.405  12.957
66361W        W38676   6.462  31.144  14.880
66362W        W38677  11.383  23.523   1.253
66363W        W38678   6.985  44.678  13.924
66364W        W38679  40.910   0.694  11.833
66365W        W38680  37.055  43.410  14.882
66366W        W38681  29.247  11.383  14.452
66367W        W38682   8.113  34.960  12.191
66368W        W38683  19.404  10.924   5.027
66369W        W38684  44.274  25.350  14.439
66370W        W38685  40.141   3.776  12.951
66371W        W38686  29.063  28.175   4.480
66372W        W38687   5.736   3.618   2.621
66373W        W38688  42.339  14.992  12.989
66374W        W38689  33.724  26.187  13.882
66375W        W38690  39.589  21.145   0.430
66376W        W38691  23.715   3.871  13.556
66377W        W38692  40.192  38.662  12.817
66378W        W38693  21.955  32.527  10.748
66379W        W38694  15.882  37.740   2.450
66380W        W38695   8.634  15.108   2.859
66381W        W38696  39.827  17.050   1.076
66382W        W38697  14.213  14.334   0.237
66383W        W38698  40.694  32.548   0.112
66384W        W38699  10.157   7.753   1.195
66385W        W38700  20.711  18.872  11.749
66386W        W38701  36.299   8.868  10.045
66387W        W38702   3.218   0.955  13.481
66388W        W38703  19.554  27.611   0.789
66389W        W38704  36.756  21.093  12.373
66390W        W38705  16.731  37.992   3.974
66391W        W38706  32.755  41.545  14.801
66392W        W38707   3.027  34.033   3.718
66393W        W38708   2.021  40.456   1.336
66394W        W38709  21.131  11.350  11.258
66395W        W38710  17.220   0.184   2.352
66396W        W38711  43.723  16.999   0.277
66397W        W38712  10.602   4.254  14.896
66398W        W38713  15.137  40.887   1.895
66399W        W38714  29.831  42.829  14.877
66400W        W38715  23.221   7.418  11.984
66401W        W38716  19.541  21.073   0.974
66402W        W38717  17.343   4.570  13.922
66403W        W38718  24.337   9.110  14.413
66404W        W38719  17.158  22.757  11.514
66405W        W38720  15.696  32.239  14.335
66406W        W38721  41.399   7.883   2.800
66407W        W38722   1.938  20.773   0.619
66408W        W38723  30.074  14.249   2.958
66409W        W38724  22.496  30.234   4.338
66410W        W38725  31.079  15.071  13.988
66411W        W38726  31.142  43.177   1.417
66412W        W38727  13.036  16.842  10.418
66413W        W38728   2.695   8.505  11.398
66414W        W38729  36.847  17.810  10.728
66415W        W38730  36.903   4.672   5.016
66416W        W38731  11.452  40.374   4.347
66417W        W38732  21.616  24.247  11.481
66418W        W38733  38.860  27.420  13.722
66419W        W38734  35.958  27.133  14.465
66420W        W38735   4.965   1.005  13.781
66421W        W38736   2.670  18.234  12.669
66422W        W38737  23.168  37.338  11.416
66423W        W38738   2.952  43.056  12.060
66424W        W38739  44.792  42.485  12.457
66425W        W38740  31.890  17.061   0.419
66426W        W38741  36.269  17.689  14.344
66427W        W38742  36.121  31.686  11.211
66428W        W38743  17.098   5.792  12.757
66429W        W38744  22.769  37.897   1.882
66430W        W38745  31.647  26.465   1.801
66431W        W38746  13.760  10.343   4.508
66432W        W38747  19.720   7.857   2.406
66433W        W38748  38.056  38.779  11.209
66434W        W38749  34.920   3.489   9.532
66435W        W38750  39.957  44.891   0.736
66436W        W38751  38.677  13.912   3.565
66437W        W38752  36.900  29.381   3.647
66438W        W38753   3.046  23.774  12.491
66439W        W38754  21.121  34.292  12.473
66440W        W38755   6.251  30.626   1.371
66441W        W38756  20.032  11.954   2.694
66442W        W38757  17.141   6.890   2.322
66443W        W38758  21.486  10.304  14.366
66444W        W38759  43.487   9.417   1.735
66445W        W38760  44.795   3.053   1.920
66446W        W38761  39.999   9.070  14.871
66447W        W38762  34.976  25.999  12.006
66448W        W38763   5.501  42.575  12.509
66449W        W38764  13.633  19.060   2.902
66450W        W38765  43.582  24.564   4.705
66451W        W38766   1.375  32.595  13.437
66452W        W38767  35.106   6.241   4.518
66453W        W38768  25.547  42.805  13.920
66454W        W38769  17.663  21.509   3.480
66455W        W38770  11.458  36.123   3.208
66456W        W38771  43.381   7.238   4.540
66457W        W38772   4.290  14.301   0.066
66458W        W38773  19.844  27.470  12.530
66459W        W38774  34.382  42.838  14.461
66460W        W38775  12.578  12.151   4.459
66461W        W38776  12.158  10.061  14.825
66462W        W38777   2.384   4.289   1.855
66463W        W38778   3.143   6.700   3.693
66464W        W38779  18.673  20.584  13.369
66465W        W38780  11.751  24.472  12.011
66466W        W38781  24.666  18.445   1.228
66467W        W38782  39.206  24.659   3.302
66468W        W38783  13.319   4.771  12.448
66469W        W38784  13.307  17.264  12.425
66470W        W38785  24.845  39.857  12.908
66471W        W38786  14.130   3.429  14.493
66472W        W38787  37.351  33.038   1.236
66473W        W38788  14.159  25.037   2.688
66474W        W38789   5.082  31.997  10.702
66475W        W38790  17.100   6.593  10.146
66476W        W38791   8.204  40.443  11.526
66477W        W38792   3.792   0.489   3.464
66478W        W38793   6.327   3.447   0.055
66479W        W38794  28.002   7.338  12.189
66480W        W38795  19.598  31.907   3.491
66481W        W38796  38.062  17.707   1.046
66482W        W38797  19.588  14.598  13.411
66483W        W38798  27.342  36.553   1.692
66484W        W38799  31.125  15.045   4.126
66485W        W38800  31.539  13.235   4.692
66486W        W38801  29.440   9.111   1.221
66487W        W38802  26.652  14.438  13.475
66488W        W38803  18.201   7.983  11.561
66489W        W38804  35.839  23.539  12.899
66490W        W38805  10.212  37.426   1.011
66491W        W38806  11.151  43.932  13.496
66492W        W38807  21.392   8.457  14.079
66493W        W38808  35.808  34.935  12.507
66494W        W38809  31.478  41.407   2.635
66495W        W38810  12.897  26.746   1.372
66496W        W38811  44.893  11.048   0.962
66497W        W38812  39.831  44.575   4.540
66498W        W38813   7.380  36.898   1.877
66499W        W38814  30.668  40.928  12.137
66500W        W38815   4.466  21.306   0.499
66501W        W38816  26.339  16.156  11.272
66502W        W38817  20.222   3.982  10.974
66503W        W38818  14.763  11.737  13.063
66504W        W38819  38.423  22.715  14.281
66505W        W38820  23.554  10.932  12.082
66506W        W38821  20.206   1.300   0.670
66507W        W38822  36.061  25.255   4.295
66508W        W38823  43.906  36.323   0.174
66509W        W38824  14.841  24.968   1.357
66510W        W38825   4.258  43.044   3.826
66511W        W38826  15.555  42.863   2.661
66512W        W38827   7.977   0.621  12.419
66513W        W38828   8.238  36.048   0.638
66514W        W38829   7.925   0.458  14.904
66515W        W38830  41.868  26.753   1.828
66516W        W38831  21.480  35.040  10.221
66517W        W38832  43.581  26.671   1.276
66518W        W38833  38.186  40.388   4.790
66519W        W38834  24.264  25.537  10.401
66520W        W38835  23.015  41.479  10.809
66521W        W38836  44.905   4.372   2.194
66522W        W38837  34.163  18.267  14.107
66523W        W38838  33.335  33.305  10.628
66524W        W38839  22.484   1.908   2.350
66525W        W38840  27.625  30.386  10.904
66526W        W38841  31.208   9.811  11.097
66527W        W38842  38.668   6.207   4.292
66528W        W38843  37.337  24.702   1.998
66529W        W38844   7.694  29.456   4.657
66530W        W38845  16.610   6.934  14.660
66531W        W38846  18.174  11.785  10.044
66532W        W38847  28.515  23.647   3.990
66533W        W38848  32.100  23.207  10.714
66534W        W38849  30.568   5.295  13.809
66535W        W38850  19.574  31.976  11.651
66536W        W38851  10.635  16.481   1.288
66537W        W38852  39.352   8.919  12.368
66538W        W38853  26.187  15.113  14.861
66539W        W38854  35.255  20.304  11.101
66540W        W38855   2.841   7.689  12.436
66541W        W38856  25.965   5.958   4.518
66542W        W38857  36.857  22.175   3.331
66543W        W38858   0.403  31.005  10.910
66544W        W38859  33.468  25.678  10.347
66545W        W38860   6.715  38.007  13.396
66546W        W38861   8.704  24.572  11.677
66547W        W38862  24.410   2.398   2.816
66548W        W38863  42.121   6.703   2.324
66549W        W38864   2.231  20.342  13.451
66550W        W38865  28.991  44.527  14.905
66551W        W38866  11.096  36.847   2.213
66552W        W38867  36.023  42.349   0.734
66553W        W38868  29.610  25.278   5.016
66554W        W38869  39.989   5.495  12.634
66555W        W38870  17.387  33.453   2.334
66556W        W38871  38.298   4.924   3.195
66557W        W38872  37.187  17.838   0.290
66558W        W38873  11.799   3.639   2.754
66559W        W38874   8.829  15.241   4.627
66560W        W38875   1.354  43.985   2.731
66561W        W38876  37.168   1.029  13.487
66562W        W38877  42.831  31.057  11.796
66563W        W38878  15.125  39.046  13.486
66564W        W38879  24.556  37.651  12.592
66565W        W38880  38.134  26.472  10.565
66566W        W38881  29.484  21.691  13.769
66567W        W38882   8.355   5.242  13.426
66568W        W38883  37.440  34.974   4.654
66569W        W38884  31.934  38.391  10.737
66570W        W38885   0.495   1.111   4.187
66571W        W38886  36.610  18.705  10.977
66572W        W38887  34.927   8.741   5.052
66573W        W38888  28.946  44.947   3.630
66574W        W38889  35.997  35.302  12.186
66575W        W38890   8.660  12.189  14.181
66576W        W38891  39.543  20.077   4.684
66577W        W38892  10.780  41.289   1.366
66578W        W38893   8.154  38.547   0.777
66579W        W38894  29.469  34.955   0.338
66580W        W38895  25.506  15.564  10.440
66581W        W38896  10.383   4.013   1.971
66582W        W38897   0.859  35.451   2.839
66583W        W38898  22.127  34.148   3.162
66584W        W38899   8.157  31.625   2.498
66585W        W38900   0.839  14.156  10.701
66586W        W38901  43.590  37.239  14.072
66587W        W38902  11.013  17.292  12.572
66588W        W38903  38.062  27.071  13.944
66589W        W38904  22.935  20.403  12.550
66590W        W38905  31.922  41.005  14.439
66591W        W38906   2.274   3.546  13.826
66592W        W38907  18.458  25.353  11.472
66593W        W38908   4.338  21.434  13.241
66594W        W38909  28.987   1.907  12.523
66595W        W38910  10.668   4.156  13.452
66596W        W38911   2.727  29.461   3.274
66597W        W38912  18.240  30.062  12.923
66598W        W38913  38.902   3.972  13.536
66599W        W38914  25.175   0.859   2.919
66600W        W38915  12.059  10.627  13.147
66601W        W38916  35.668  35.441   1.044
66602W        W38917   2.243  22.510  14.448
66603W        W38918   7.880  15.630   2.903
66604W        W38919  34.891  18.577   0.959
66605W        W38920   1.458   1.786   1.547
66606W        W38921  11.122  28.938  14.893
66607W        W38922  11.552  39.904  11.517
66608W        W38923   4.896  15.606  14.756
66609W        W38924  26.579  17.901  14.858
66610W        W38925  15.696  37.076   2.753
66611W        W38926   8.330  21.141   4.661
66612W        W38927  27.230  17.685   3.671
66613W        W38928  15.267   7.312   4.454
66614W        W38929  43.949   4.549   0.355
66615W        W38930  26.675   5.751   3.916
66616W        W38931   3.517  31.892   1.362
66617W        W38932   3.920  10.686  10.583
66618W        W38933  12.085  37.271   5.000
66619W        W38934  42.002   5.276  10.734
66620W        W38935  44.029  16.194   3.729
66621W        W38936  20.914   3.009   0.299
66622W        W38937  28.268  25.504   0.424
66623W        W38938   6.229  39.975   0.694
66624W        W38939  31.066  30.961  12.493
66625W        W38940  12.114  18.939   9.628
66626W        W38941  22.790   7.231   4.887
66627W        W38942  10.254  24.516   2.575
66628W        W38943  15.353   7.363  11.941
66629W        W38944   3.022  28.154  13.878
66630W        W38945  24.956  40.454  13.802
66631W        W38946  34.746  27.358  13.015
66632W        W38947  32.429  40.996  12.999
66633W        W38948  41.783  12.298   2.061
66634W        W38949  19.242  14.275  14.558
66635W        W38950   9.974   3.544   0.955
66636W        W38951  27.612  24.657   4.262
66637W        W38952  18.765  30.083  12.960
66638W        W38953  14.833  44.377  13.194
66639W        W38954   5.205  41.533  11.637
66640W        W38955   0.842  23.688  12.412
66641W        W38956  31.558  18.491  13.802
66642W        W38957  16.335  20.566  13.476
66643W        W38958  22.993  44.431  14.827
66644W        W38959  43.756  25.645  12.854
66645W        W38960   8.362  31.879   3.767
66646W        W38961   0.891  33.424  12.647
66647W        W38962   8.952  32.816  12.494
66648W        W38963  14.370  24.464   4.022
66649W        W38964  10.567  36.808  13.851
66650W        W38965  23.609  26.079   4.453
66651W        W38966   6.707  20.856  13.084
66652W        W38967  21.641  19.228  14.840
66653W        W38968  31.659  26.182  12.907
66654W        W38969  32.104  21.217   3.016
66655W        W38970  34.953   1.840   0.309
66656W        W38971  18.533  35.732   3.530
66657W        W38972  30.421  27.226   1.228
66658W        W38973  30.255   4.386   2.898
66659W        W38974  20.149   5.918  13.287
66660W        W38975  21.004  29.721   0.043
66661W        W38976  35.889  35.015  10.982
66662W        W38977  19.317  37.904  12.095
66663W        W38978   6.289   8.610   0.401
66664W        W38979  21.274  19.844   5.040
66665W        W38980  11.538  44.026  14.814
66666W        W38981  27.486  41.034  11.028
66667W        W38982  33.418   9.257   4.521
66668W        W38983  19.295  40.629   0.804
66669W        W38984  14.134  13.875   1.303
66670W        W38985  30.920  43.396   3.740
66671W        W38986  28.540   8.893   1.349
66672W        W38987   7.313  40.353  11.007
66673W        W38988  19.610  11.104   3.341
66674W        W38989  36.370  31.077   1.942
66675W        W38990  33.452  30.401  14.372
66676W        W38991  35.416   2.028   2.440
66677W        W38992   4.164  33.090   0.373
66678W        W38993  37.018   6.854   1.720
66679W        W38994  30.099   9.284   1.799
66680W        W38995  32.097  33.045  13.001
66681W        W38996  21.180  20.733   3.600
66682W        W38997  24.120  25.296   1.395
66683W        W38998  43.259   4.492  14.835
66684W        W38999  14.565  29.610  12.943
66685W        W39000  13.258   2.916  11.825
66686W        W39001  22.134  12.153  10.701
66687W        W39002  28.050  31.821  11.470
66688W        W39003  11.870   7.689   3.703
66689W        W39004  28.412  19.041  13.066
66690W        W39005   5.952  11.606  10.606
66691W        W39006   0.899  30.608   4.609
66692W        W39007  29.029  34.413   3.729
66693W        W39008  26.870  22.181   4.714
66694W        W39009  30.499   4.720   4.651
66695W        W39010  34.651   1.836  13.016
66696W        W39011   7.427   7.967   0.947
66697W        W39012  15.687   4.171  12.196
66698W        W39013  33.061   1.357   0.742
66699W        W39014   4.405   5.698  13.018
66700W        W39015  40.635  42.903  14.520
66701W        W39016  20.463  23.084   4.196
66702W        W39017  28.873  26.798  13.448
66703W        W39018  32.307   5.949  12.385
66704W        W39019  44.441  42.562  14.859
66705W        W39020  10.795  32.423   2.861
66706W        W39021  40.020   1.869  11.114
66707W        W39022  37.854   1.809  11.177
66708W        W39023  33.547  24.076  11.075
66709W        W39024  22.283  10.854   3.627
66710W        W39025   2.686  19.561  12.592
66711W        W39026  24.628  23.055   2.609
66712W        W39027  14.790  19.401   0.828
66713W        W39028  30.121   1.102   2.724
66714W        W39029  25.683  35.028  12.581
66715W        W39030  28.470   5.466   2.129
66716W        W39031  22.013   6.674  12.344
66717W        W39032  18.177  15.872   1.139
66718W        W39033   9.605  40.373   2.322
66719W        W39034  38.044  23.775   0.367
66720W        W39035  42.143  35.116  14.360
66721W        W39036  17.700   3.918  13.651
66722W        W39037  16.588  21.656  13.851
66723W        W39038  22.568   1.375  10.870
66724W        W39039  34.045  30.372   1.677
66725W        W39040   0.294  43.782  10.828
66726W        W39041  39.448  43.943   2.184
66727W        W39042  34.123  15.348  11.184
66728W        W39043  22.241  34.036   3.643
66729W        W39044  14.297  27.778  13.437
66730W        W39045  22.020  38.068   3.120
66731W        W39046  44.547  41.401   1.330
66732W        W39047  39.280  41.124  12.346
66733W        W39048  27.479  40.636   0.271
66734W        W39049   1.777  36.082   1.725
66735W        W39050  29.303  26.213  11.608
66736W        W39051  14.051  25.986   3.257
66737W        W39052  40.539  38.987  12.992
66738W        W39053  32.600  18.029   2.920
66739W        W39054  18.027   1.529   4.434
66740W        W39055   3.585  12.101   4.271
66741W        W39056  38.221  36.287   3.701
66742W        W39057   6.217   1.299  12.065
66743W        W39058   0.597  15.171   3.844
66744W        W39059  34.628  41.556  14.293
66745W        W39060  17.298  36.854   3.848
66746W        W39061  37.294   8.918   2.363
66747W        W39062   8.809   0.901  12.987
66748W        W39063   0.411  34.493  13.909
66749W        W39064   0.786  17.826   1.470
66750W        W39065  38.298  13.437   0.847
66751W        W39066   0.805  30.971   0.342
66752W        W39067  34.358   6.154  11.524
66753W        W39068  37.400  19.082  10.879
66754W        W39069  33.459  28.738  12.489
66755W        W39070   5.270  38.082  12.403
66756W        W39071  30.903   2.799   4.123
66757W        W39072   5.490  27.105   2.332
66758W        W39073   4.314  44.541   1.720
66759W        W39074  34.223  21.996  14.780
66760W        W39075   8.208  21.557   2.772
66761W        W39076  41.351  26.614   1.925
66762W        W39077   2.334   0.691   3.318
66763W        W39078  39.324   4.852   3.149
66764W        W39079  30.835  41.883   3.891
66765W        W39080  34.911  37.410   5.019
66766W        W39081  43.452  38.391   0.809
66767W        W39082  32.097  25.002   1.253
66768W        W39083  43.993  39.581   3.909
66769W        W39084  27.446  10.792  11.276
66770W        W39085  44.456  19.580  13.432
66771W        W39086  23.029   4.899  11.644
66772W        W39087  14.622  44.732  14.602
66773W        W39088  18.098  28.554  10.557
66774W        W39089  12.143  12.225   1.854
66775W        W39090  27.880  39.526  13.065
66776W        W39091   4.736  23.624   1.813
66777W        W39092  15.191  17.102   2.735
66778W        W39093   4.191  13.161  13.044
66779W        W39094  10.900  39.066   1.730
66780W        W39095   9.002  34.951   2.100
66781W        W39096   8.914   1.585   2.753
66782W        W39097   2.669  27.655  10.835
66783W        W39098  27.740  22.079  10.531
66784W        W39099  43.219  36.944   2.120
66785W        W39100  17.381  30.431   2.746
66786W        W39101   0.268  17.531  13.156
66787W        W39102  26.551  16.308   3.651
66788W        W39103   2.340  37.920  14.416
66789W        W39104   9.871  32.223  14.436
66790W        W39105  10.358  14.796  10.746
66791W        W39106  19.033  20.033  13.341
66792W        W39107  20.497  44.663  13.424
66793W        W39108  21.743  25.940   1.457
66794W        W39109   5.684   3.670  13.811
66795W        W39110  10.687   2.752  14.830
66796W        W39111   4.677  14.085  10.059
66797W        W39112  24.166   9.742   3.246
66798W        W39113  15.913  44.803   1.297
66799W        W39114  38.421  26.848  10.758
66800W        W39115   5.773  21.143  12.060
66801W        W39116  44.355  32.471   0.684
66802W        W39117  19.227  36.060  12.446
66803W        W39118  43.643  18.229  14.021
66804W        W39119   7.956   8.226   4.162
66805W        W39120  44.982  40.759  14.350
66806W        W39121  20.060  23.481  12.340
66807W        W39122  15.476  24.583   3.723
66808W        W39123  25.955  10.487   3.638
66809W        W39124   7.730  23.843  14.913
66810W        W39125  30.520  21.022   0.467
66811W        W39126  35.307  33.303   3.744
66812W        W39127  32.027  34.904   3.676
66813W        W39128  16.271  18.749  12.081
66814W        W39129  24.529  26.484  12.097
66815W        W39130  29.397   3.623   3.248
66816W        W39131   8.195  26.748   2.804
66817W        W39132  42.284  12.559  11.226
66818W        W39133  21.583  31.895   1.224
66819W        W39134  24.583  17.582   3.538
66820W        W39135   2.864  32.583  11.232
66821W        W39136  22.490  24.189  11.570
66822W        W39137  12.239  21.554   3.913
66823W        W39138   5.964  39.237   0.289
66824W        W39139  43.969  25.467   3.810
66825W        W39140   8.248  40.840   2.014
66826W        W39141  21.416  34.013   0.723
66827W        W39142  18.361  25.402   2.250
66828W        W39143  39.049  42.436  14.990
66829W        W39144  41.538  26.897  13.966
66830W        W39145   4.778   7.401   0.627
66831W        W39146   5.353  13.687  11.586
66832W        W39147  36.342  33.071  14.874
66833W        W39148  33.977  12.881  12.975
66834W        W39149  15.657  28.161  13.966
66835W        W39150  32.835  30.588   0.901
66836W        W39151  26.514  13.556  10.440
66837W        W39152   8.414   7.871   4.167
66838W        W39153  35.740  34.817   3.610
66839W        W39154  31.341   2.921   0.754
66840W        W39155   2.416  24.435   1.387
66841W        W39156  25.259  43.886  13.547
66842W        W39157   0.303   9.881  11.125
66843W        W39158  34.362  35.190  14.961
66844W        W39159  23.956  43.271  12.318
66845W        W39160   1.672  14.710   4.298
66846W        W39161  18.292  17.181  14.316
66847W        W39162  25.797  29.469   0.798
66848W        W39163   8.647  18.896   2.307
66849W        W39164   4.600  19.133  14.829
66850W        W39165   6.836  44.422  13.499
66851W        W39166   0.072  44.321   2.189
66852W        W39167  19.275  37.291  11.483
66853W        W39168   5.283   3.418  12.937
66854W        W39169  18.560  25.777  12.313
66855W        W39170  20.558   9.632   4.668
66856W        W39171  13.062  25.942   1.727
66857W        W39172  23.674  15.147  12.122
66858W        W39173   9.464   0.419  11.161
66859W        W39174   6.669   8.809  13.795
66860W        W39175   9.144  28.778  12.529
66861W        W39176   9.283  30.335  11.188
66862W        W39177  11.204  41.254   4.631
66863W        W39178  31.133   4.343   1.822
66864W        W39179  12.396  17.997  11.064
66865W        W39180  36.599  18.765  13.995
66866W        W39181  22.070  41.370  13.907
66867W        W39182  23.028  37.975  13.362
66868W        W39183  31.136  30.579   3.728
66869W        W39184  38.285  11.288   3.734
66870W        W39185  12.001  43.717   2.458
66871W        W39186  18.935  14.899  10.776
66872W        W39187   4.961  15.691   3.824
66873W        W39188  16.047  26.530  10.864
66874W        W39189   2.157   0.117   1.788
66875W        W39190  13.303   4.953  10.612
66876W        W39191  21.294  26.966   3.211
66877W        W39192  29.535  12.604   4.562
66878W        W39193  25.502  17.387   1.717
66879W        W39194   3.920  31.493   4.254
66880W        W39195  34.934  13.196  13.967
66881W        W39196   1.090  24.832  14.914
66882W        W39197   1.262  26.004   1.158
66883W        W39198  29.102  23.275   3.204
66884W        W39199   9.921  18.131  13.012
66885W        W39200  28.167  36.805  11.612
66886W        W39201   0.303  21.901  11.182
66887W        W39202  13.154  10.630   2.678
66888W        W39203  37.408  36.949  14.821
66889W        W39204  44.526   3.859   2.827
66890W        W39205  26.216  25.590  13.033
66891W        W39206  27.216  42.309   2.945
66892W        W39207  22.937   1.268  13.074
66893W        W39208  14.137   2.163  10.923
66894W        W39209   6.415  30.263  14.763
66895W        W39210  41.918  24.303   0.631
66896W        W39211  37.973  34.907  11.974
66897W        W39212  11.594   6.324  14.079
66898W        W39213  27.831  44.058   3.788
66899W        W39214  11.226  24.215   3.628
66900W        W39215  17.319  17.080   3.671
66901W        W39216   8.233  21.250   3.757
66902W        W39217  16.026  26.849   3.743
66903W        W39218  36.278  23.170   2.324
66904W        W39219  16.682  39.601  14.343
66905W        W39220  12.773  30.292   2.833
66906W        W39221   5.998  24.623  13.504
66907W        W39222  14.264  38.140  13.000
66908W        W39223  16.781   5.224   2.681
66909W        W39224  42.015   4.211   1.763
66910W        W39225  18.790  39.384  11.367
66911W        W39226  39.889  34.514  14.985
66912W        W39227  18.647   5.410   1.779
66913W        W39228   3.714  24.759  14.779
66914W        W39229  16.659  35.815   3.658
66915W        W39230  33.106  34.702   9.864
66916W        W39231   6.723  10.645  13.915
66917W        W39232   8.114  19.587   2.769
66918W        W39233  25.261  13.256  12.945
66919W        W39234  38.557  30.688  14.350
66920W        W39235  14.166   5.833  11.353
66921W        W39236  27.820  31.135  10.187
66922W        W39237  15.418  26.673  11.430
66923W        W39238  26.905  32.855  11.736
66924W        W39239   1.363  38.916   2.094
66925W        W39240   6.221  25.688  13.849
66926W        W39241  33.433  39.092  12.333
66927W        W39242  12.168   4.726  11.191
66928W        W39243  33.479  36.954  14.568
66929W        W39244  23.422  13.106   3.653
66930W        W39245  17.613  40.363   1.599
66931W        W39246   2.676  39.686   2.704
66932W        W39247   3.019  31.451  12.426
66933W        W39248  41.306  37.228   3.745
66934W        W39249  25.734   2.333   2.343
66935W        W39250  19.722  16.596   1.711
66936W        W39251  17.078  38.545  13.928
66937W        W39252  29.653  20.601  14.120
66938W        W39253  34.299  24.483  14.037
66939W        W39254  24.514  42.126   1.519
66940W        W39255  30.900  37.060  14.019
66941W        W39256  24.047   3.000   4.918
66942W        W39257  29.493  34.105   1.456
66943W        W39258  24.670  36.323   3.650
66944W        W39259  20.303  35.307  11.031
66945W        W39260  41.715   2.374   2.923
66946W        W39261  19.606  44.552  13.374
66947W        W39262  27.544   5.752   4.560
66948W        W39263  21.792   4.450  10.341
66949W        W39264  13.168  21.293   1.424
66950W        W39265  18.511   2.880  13.557
66951W        W39266  26.878  12.420   2.222
66952W        W39267  43.026   3.969   1.200
66953W        W39268  36.474  29.998   2.854
66954W        W39269  16.815   6.741  11.386
66955W        W39270  12.580  35.383   3.120
66956W        W39271  35.873  20.527   1.138
66957W        W39272  22.288  31.886   2.601
66958W        W39273   4.666  12.586  12.137
66959W        W39274  42.745  40.302  13.123
66960W        W39275  15.913  31.959  11.716
66961W        W39276  19.105  36.900  14.960
66962W        W39277  35.235   5.468  11.583
66963W        W39278  36.924  15.645  11.761
66964W        W39279  11.264   9.315  14.431
66965W        W39280  41.488  21.259  13.501
66966W        W39281  23.248   0.416  14.987
66967W        W39282  38.799  18.114  14.034
66968W        W39283  26.210   6.779   2.865
66969W        W39284  43.402  27.554   4.578
66970W        W39285   4.475  41.481   1.362
66971W        W39286  33.421  11.812  14.982
66972W        W39287  18.556  26.182   2.004
66973W        W39288   2.903   9.656  14.434
66974W        W39289  14.539  11.268   2.666
66975W        W39290  12.169  39.001  11.978
66976W        W39291  11.305  16.773  13.408
66977W        W39292  35.603  43.467   2.759
66978W        W39293  44.784   7.710  14.331
66979W        W39294  43.494   0.274  12.945
66980W        W39295  12.889  35.822  12.434
66981W        W39296  26.077  24.709   0.005
66982W        W39297  31.732  23.520  12.054
66983W        W39298   3.919   1.189  14.993
66984W        W39299  28.441   7.256   3.572
66985W        W39300  36.071   4.935  14.730
66986W        W39301  14.761  11.885  14.038
66987W        W39302  24.203   7.394  12.164
66988W        W39303  36.045  11.876  14.926
66989W        W39304  24.676  41.492   3.225
66990W        W39305   7.643   0.242   0.827
66991W        W39306  18.753  11.304  11.004
66992W        W39307  33.144  31.423  14.903
66993W        W39308   5.746  43.848   0.686
66994W        W39309   1.787  42.233  11.835
66995W        W39310  11.843  38.698   2.401
66996W        W39311  10.076   3.696   3.307
66997W        W39312  17.418  19.996   3.983
66998W        W39313  44.447   5.249   2.150
66999W        W39314  33.370  34.636   0.754
67000W        W39315   5.807  19.011   3.103
67001W        W39316  20.080   3.782   1.335
67002W        W39317  11.419  39.836   1.922
67003W        W39318  40.904   4.874   4.344
67004W        W39319   0.761   3.903  12.476
67005W        W39320  41.301   2.599   2.617
67006W        W39321   7.353  35.456   0.450
67007W        W39322   0.824   7.060   2.657
67008W        W39323  28.847  29.275   3.246
67009W        W39324  37.888   4.840   1.397
67010W        W39325   4.734   4.987  13.695
67011W        W39326  40.457  41.559   0.981
67012W        W39327  13.544   1.000   1.936
67013W        W39328  19.314  31.128   3.686
67014W        W39329  26.114   6.422  11.019
67015W        W39330  43.783  37.502   0.925
67016W        W39331   8.498  36.423  13.283
67017W        W39332  22.159  27.442   0.856
67018W        W39333  38.613  34.860  10.366
67019W        W39334  13.309  17.642  13.561
67020W        W39335   3.238   4.240   2.667
67021W        W39336  22.115   2.561  11.949
67022W        W39337  38.683  42.342  11.594
67023W        W39338   3.895  40.621  12.743
67024W        W39339  18.215  32.177  14.949
67025W        W39340  21.813  13.738  13.226
67026W        W39341  17.084  11.414  11.941
67027W        W39342  10.162  24.347  13.341
67028W        W39343   5.436   2.926   2.939
67029W        W39344  31.226  16.589  10.829
67030W        W39345   4.755  37.463  14.303
67031W        W39346  14.632  25.090  12.114
67032W        W39347  22.046  19.735   9.831
67033W        W39348   3.160  17.264   0.666
67034W        W39349  14.792  20.366   4.608
67035W        W39350  36.853  31.114   4.344
67036W        W39351   0.250  36.132   2.611
67037W        W39352  33.086   8.095  12.761
67038W        W39353  34.574  27.272  11.095
67039W        W39354  29.560  27.851   4.590
67040W        W39355  24.480  10.357  13.773
67041W        W39356  24.732  16.276  12.101
67042W        W39357  13.714  19.966  13.777
67043W        W39358  35.074  26.026   0.029
67044W        W39359  33.271  17.738   1.758
67045W        W39360  36.300  38.793   1.966
67046W        W39361  32.598  19.390   3.298
67047W        W39362  23.237  25.646   2.160
67048W        W39363  21.714  22.663  13.586
67049W        W39364   2.810  11.293  11.657
67050W        W39365  31.032   9.475  10.737
67051W        W39366   6.439  31.864   4.118
67052W        W39367  15.443   2.769  13.396
67053W        W39368  11.779   6.360  10.678
67054W        W39369  22.114  32.074  13.656
67055W        W39370   0.806   9.503  13.687
67056W        W39371  16.926  35.776   2.642
67057W        W39372  16.591  25.994   0.901
67058W        W39373  23.274  44.796   4.667
67059W        W39374  22.505  41.414  10.876
67060W        W39375   3.782  14.369   1.371
67061W        W39376  32.420   6.772   2.699
67062W        W39377  44.285  18.809   5.229
67063W        W39378   8.961  22.868   0.880
67064W        W39379  30.420  37.099  11.186
67065W        W39380  43.907   5.958  12.788
67066W        W39381  10.661  27.395  11.490
67067W        W39382  30.560  41.721   0.538
67068W        W39383  18.237  14.363  13.414
67069W        W39384  11.259  14.789   1.717
67070W        W39385  31.656  44.575   0.014
67071W        W39386  36.418  14.166   3.422
67072W        W39387  11.622   2.422   2.206
67073W        W39388  19.196  32.704  13.276
67074W        W39389  10.846  27.692   4.171
67075W        W39390  39.722  44.074  11.522
67076W        W39391  33.872  15.608   2.768
67077W        W39392  19.576  34.579  10.846
67078W        W39393  40.274  39.067  12.013
67079W        W39394  16.262  37.623   0.949
67080W        W39395  14.803   9.858  12.568
67081W        W39396  15.960  16.341   1.156
67082W        W39397  40.659   1.306  10.677
67083W        W39398  25.688  24.340  13.864
67084W        W39399  14.213  27.697   1.215
67085W        W39400  14.049   8.249   0.901
67086W        W39401  35.978  11.056   1.817
67087W        W39402  11.929  17.675  13.789
67088W        W39403  34.814  40.387  11.667
67089W        W39404  28.990   4.430   1.465
67090W        W39405  13.746  16.629   4.035
67091W        W39406   3.277  44.400  13.474
67092W        W39407  43.823  18.266   4.579
67093W        W39408  36.095  11.637   4.202
67094W        W39409  13.861  24.200   1.728
67095W        W39410  18.557  20.729   0.244
67096W        W39411  20.045  41.402  14.772
67097W        W39412  13.140  19.081  13.019
67098W        W39413   8.898   7.703  14.563
67099W        W39414  35.959   8.248  13.537
67100W        W39415  34.346  10.774   1.917
67101W        W39416  33.896  37.642   2.144
67102W        W39417  14.328  29.957  11.552
67103W        W39418  19.197   0.904  11.525
67104W        W39419  20.543  41.832  11.616
67105W        W39420  40.785   8.432   2.706
67106W        W39421  34.887   7.731   1.177
67107W        W39422  35.681  13.463  11.238
67108W        W39423  19.174   0.487   2.836
67109W        W39424  12.559  28.107   0.258
67110W        W39425  26.567   6.720  11.010
67111W        W39426  12.915  39.354   4.094
67112W        W39427  26.197  11.903   0.448
67113W        W39428  34.598   7.731   1.737
67114W        W39429   6.620  37.433   1.732
67115W        W39430   5.838  30.419  12.734
67116W        W39431  23.585   6.919   3.594
67117W        W39432   3.182  22.203   4.193
67118W        W39433  30.963  11.681  11.759
67119W        W39434  14.105  19.360  10.389
67120W        W39435  25.599   8.701  12.475
67121W        W39436   3.162  13.128   2.315
67122W        W39437  24.764   8.223   2.481
67123W        W39438  41.048   3.512   4.145
67124W        W39439   5.776  17.556  12.596
67125W        W39440  12.052  10.725   0.846
67126W        W39441  21.990  30.156   4.457
67127W        W39442   0.264  29.601   4.763
67128W        W39443  12.552   5.580  12.421
67129W        W39444  25.220  40.922  13.894
67130W        W39445  10.617  23.655  12.997
67131W        W39446  28.378  16.914   3.275
67132W        W39447  18.767   7.748  13.478
67133W        W39448  26.931   1.906   0.628
67134W        W39449  11.050  43.964   4.624
67135W        W39450  25.103  14.843  12.621
67136W        W39451  17.069   0.864   3.596
67137W        W39452  37.688  41.975   3.864
67138W        W39453  21.726  12.540   0.270
67139W        W39454  20.753  11.715   0.017
67140W        W39455   1.515  15.571  13.036
67141W        W39456  17.086  38.535   9.805
67142W        W39457  40.499  38.551  14.280
67143W        W39458  18.670  23.142   1.312
67144W        W39459   3.692  21.644   1.415
67145W        W39460   3.329  10.623   4.085
67146W        W39461  43.751   6.175   0.100
67147W        W39462  38.018  25.160   2.365
67148W        W39463  17.651   9.238  13.067
67149W        W39464  28.192  43.069   3.541
67150W        W39465  13.263  36.067   4.072
67151W        W39466  39.921  20.249   4.021
67152W        W39467  20.405  20.135  11.207
67153W        W39468  26.695  36.083   4.538
67154W        W39469  33.114  41.039   1.243
67155W        W39470  19.696  12.601  11.922
67156W        W39471  12.185  29.064  10.880
67157W        W39472  10.211  31.553  10.193
67158W        W39473  38.434  17.807   2.065
67159W        W39474   9.760  30.558   4.881
67160W        W39475   6.648  28.815  12.512
67161W        W39476  11.779  43.214   3.022
67162W        W39477  31.808  34.149   4.091
67163W        W39478   8.129  44.378   2.710
67164W        W39479  37.627  26.019  10.647
67165W        W39480  19.524  10.431   0.915
67166W        W39481  16.659   4.894   1.552
67167W        W39482  37.512  16.871  13.089
67168W        W39483  20.621   2.221  12.918
67169W        W39484  23.887  30.838   0.425
67170W        W39485  20.143  22.206  12.450
67171W        W39486  18.014  11.570   1.251
67172W        W39487  37.830   4.812   0.760
67173W        W39488  26.210  24.259   2.831
67174W        W39489  25.954  30.733  14.984
67175W        W39490   7.314  13.125   0.348
67176W        W39491  42.415  27.359   0.190
67177W        W39492  42.489  30.362  12.018
67178W        W39493   8.764   6.059  13.629
67179W        W39494  38.407  14.087  11.533
67180W        W39495   7.743  16.593  13.397
67181W        W39496  28.527   4.461  12.046
67182W        W39497  12.810  34.841  14.451
67183W        W39498  39.166   4.195   2.714
67184W        W39499  18.253  40.369   1.332
67185W        W39500  18.842  23.789   1.950
67186W        W39501  21.709  37.500  11.148
67187W        W39502  10.313  17.352  13.638
67188W        W39503  32.446  38.775   3.848
67189W        W39504  25.436  26.112  14.446
67190W        W39505  30.632  29.128   2.039
67191W        W39506  11.792  10.262   0.851
67192W        W39507  16.850  32.418  13.479
67193W        W39508  22.787  13.287   5.187
67194W        W39509  40.865  25.277   4.594
67195W        W39510  27.501   4.157  14.955
67196W        W39511   4.109   9.858  12.957
67197W        W39512   6.326  32.508  12.577
67198W        W39513  26.228  43.864  13.169
67199W        W39514  19.334  26.858  14.826
67200W        W39515  26.641  20.319  13.039
67201W        W39516  20.479  16.288   2.256
67202W        W39517  29.432  37.263   2.752
67203W        W39518  34.627  11.352  11.252
67204W        W39519  34.580   6.458  13.652
67205W        W39520  26.508   3.734   1.775
67206W        W39521  41.415  21.268   1.815
67207W        W39522  17.907   9.144  10.226
67208W        W39523  32.530  41.210   3.845
67209W        W39524   0.748  14.271  13.030
67210W        W39525  39.808   0.846   2.275
67211W        W39526  28.092   9.903   3.356
67212W        W39527  41.955  13.578   0.532
67213W        W39528  38.285  28.462  14.768
67214W        W39529  18.133  11.421  10.831
67215W        W39530  17.296  12.288  13.453
67216W        W39531  44.258   1.778   2.563
67217W        W39532  31.046  38.051  14.587
67218W        W39533  43.788  32.592  13.907
67219W        W39534  36.018  31.573   3.589
67220W        W39535  20.744  18.103  13.329
67221W        W39536  41.853  25.449   5.008
67222W        W39537  24.756  25.142  11.874
67223W        W39538  32.961  32.195   2.811
67224W        W39539  42.341   4.400   0.468
67225W        W39540  19.667  22.002   0.314
67226W        W39541   4.921  24.479  12.546
67227W        W39542  31.242   5.869   3.259
67228W        W39543  27.780  36.423  11.648
67229W        W39544  33.515  15.560  12.657
67230W        W39545  34.667  30.525  14.763
67231W        W39546  28.968  27.193  11.598
67232W        W39547  27.226   8.342   2.762
67233W        W39548  29.469  11.694   1.727
67234W        W39549  18.266  31.329  13.502
67235W        W39550  40.865  41.292  13.013
67236W        W39551  10.875  21.649  11.546
67237W        W39552  24.291  30.754   4.598
67238W        W39553  37.359   8.475  10.879
67239W        W39554  36.953  38.084  14.065
67240W        W39555  42.416  40.992  11.888
67241W        W39556   7.203  40.975  14.938
67242W        W39557  23.688  18.082  13.324
67243W        W39558   4.459   0.854  12.127
67244W        W39559  30.567   2.718   0.796
67245W        W39560  23.004  29.567  12.045
67246W        W39561  37.267  26.182  10.100
67247W        W39562   7.913  35.418  14.087
67248W        W39563  28.535  24.878   2.326
67249W        W39564  16.526  15.192   2.319
67250W        W39565  37.557   6.687  13.840
67251W        W39566  27.731  25.970   3.893
67252W        W39567  28.610  21.546   4.683
67253W        W39568  23.616  18.843  11.660
67254W        W39569  44.359  24.659   1.730
67255W        W39570  20.624  31.212   4.084
67256W        W39571  17.848   2.012   0.397
67257W        W39572   8.762  39.460  13.801
67258W        W39573  34.110   2.301   1.486
67259W        W39574   6.783  11.261   4.382
67260W        W39575  44.238  17.147   3.197
67261W        W39576   4.267  41.070  14.767
67262W        W39577  13.467  26.741   1.959
67263W        W39578  22.852  44.333   2.941
67264W        W39579  25.514  15.672   0.703
67265W        W39580  39.954  40.483  13.547
67266W        W39581   1.992   5.259  10.945
67267W        W39582  44.712  32.718   0.417
67268W        W39583  33.897  19.774   4.995
67269W        W39584   8.910  16.125   0.726
67270W        W39585  43.001   4.908  13.840
67271W        W39586  29.056  24.323   0.779
67272W        W39587  39.337  15.646  14.822
67273W        W39588   7.801  35.570   2.800
67274W        W39589  25.787  25.419   4.239
67275W        W39590  32.039   7.474  13.723
67276W        W39591   1.983  31.423   1.758
67277W        W39592   6.838  13.581  13.830
67278W        W39593  21.095   3.407  11.634
67279W        W39594  16.380  31.137   1.736
67280W        W39595  38.898   3.405   0.218
67281W        W39596  16.153  17.016  11.963
67282W        W39597  26.326  14.211   0.761
67283W        W39598  17.688  40.629  10.295
67284W        W39599  43.988   8.614  14.025
67285W        W39600   7.642  26.357   5.027
67286W        W39601  44.583  13.133  13.947
67287W        W39602  13.964  20.476  14.804
67288W        W39603  35.159  12.552   3.135
67289W        W39604  33.969  33.121   0.486
67290W        W39605  37.154  12.330   2.682
67291W        W39606  14.336  39.558  13.001
67292W        W39607  41.633   1.991   5.068
67293W        W39608  15.726  10.432   0.276
67294W        W39609  17.670  24.282   3.892
67295W        W39610  23.525   7.236  13.364
67296W        W39611   6.320  15.005   3.422
67297W        W39612  11.685   1.760   1.095
67298W        W39613  27.977  10.340  12.733
67299W        W39614   3.710   2.789  14.260
67300W        W39615  21.545   0.549   3.281
67301W        W39616  29.900  32.612  14.580
67302W        W39617  25.607  16.013  10.729
67303W        W39618  35.606   7.156   4.769
67304W        W39619  22.462  20.506  14.908
67305W        W39620  22.076  32.730   1.954
67306W        W39621  13.722  12.855   4.207
67307W        W39622  36.935  24.088  12.872
67308W        W39623  27.799  42.540  11.168
67309W        W39624  26.596  26.974  13.457
67310W        W39625  17.578  22.058   1.819
67311W        W39626   1.220  15.065  13.157
67312W        W39627  35.548   1.531   4.639
67313W        W39628   3.451  35.159  13.835
67314W        W39629  19.018  21.470   3.248
67315W        W39630  28.825  14.779  12.685
67316W        W39631  25.226  29.616   2.714
67317W        W39632  38.947  32.463   0.376
67318W        W39633   6.847  44.845   2.695
67319W        W39634  44.464  33.893   0.771
67320W        W39635   8.710  16.363   1.894
67321W        W39636  11.497  28.421   3.702
67322W        W39637  30.902  34.921   0.492
67323W        W39638  28.625   7.877   1.601
67324W        W39639  38.298  33.589  14.464
67325W        W39640  38.857  24.965   0.440
67326W        W39641  35.562   4.239   4.591
67327W        W39642  10.250   9.967   3.819
67328W        W39643  29.453  14.288   4.712
67329W        W39644  20.360  24.291   3.791
67330W        W39645  17.315   2.331  10.417
67331W        W39646  31.979  29.083  11.228
67332W        W39647  39.865  39.818  11.215
67333W        W39648  33.883  12.834   1.389
67334W        W39649  11.327  19.825   1.799
67335W        W39650  18.153  11.591  12.636
67336W        W39651   3.946  41.115   3.815
67337W        W39652  27.141  15.591   1.354
67338W        W39653  37.056  27.630   4.763
67339W        W39654  41.271  32.476   0.949
67340W        W39655  26.959  15.823   0.771
67341W        W39656  31.556   9.326  13.091
67342W        W39657  14.732  28.729   2.756
67343W        W39658  21.763  13.736  10.943
67344W        W39659  15.128  44.895   1.721
67345W        W39660  40.056  22.523  14.694
67346W        W39661  43.541  26.097  12.463
67347W        W39662  32.868  41.296  13.932
67348W        W39663  41.255   0.217  11.118
67349W        W39664   5.649  12.265  13.104
67350W        W39665   9.328  42.797   1.726
67351W        W39666   2.339  34.092   4.909
67352W        W39667   5.215   5.257   3.637
67353W        W39668   9.549  32.444   3.164
67354W        W39669  38.537  21.463   5.217
67355W        W39670   9.419  36.659   2.156
67356W        W39671  44.871   9.309  11.453
67357W        W39672  32.866  44.499   4.615
67358W        W39673   5.498  22.674   3.121
67359W        W39674  17.363  24.554   1.281
67360W        W39675   5.710   2.265  11.227
67361W        W39676   7.969   1.868   2.480
67362W        W39677  27.702  17.405  10.591
67363W        W39678  12.706  10.579  11.938
67364W        W39679  38.841   9.321   1.804
67365W        W39680  21.797  20.655   1.770
67366W        W39681  10.193  28.451  13.412
67367W        W39682  10.296  20.113  10.977
67368W        W39683  17.191  41.904  13.001
67369W        W39684  27.635  36.502  13.414
67370W        W39685  42.719  10.851   2.618
67371W        W39686  17.566  31.968   2.812
67372W        W39687  33.876  42.086  10.731
67373W        W39688  35.833   1.282   2.281
67374W        W39689   3.300   3.437   4.604
67375W        W39690   9.031  15.235   3.803
67376W        W39691  35.051  43.016   1.717
67377W        W39692  28.701  15.741  13.960
67378W        W39693  35.306  12.806  13.906
67379W        W39694  13.582  10.394   3.230
67380W        W39695  25.261  38.994   0.784
67381W        W39696   5.875  32.077  14.351
67382W        W39697  37.598  21.217   0.191
67383W        W39698  13.221   2.731  13.240
67384W        W39699   1.714  39.852   2.991
67385W        W39700  25.265  38.006  12.093
67386W        W39701  28.757  17.235   1.305
67387W        W39702  13.747  32.691  12.547
67388W        W39703  44.422  34.397   1.628
67389W        W39704   9.653  38.404   1.788
67390W        W39705  38.818  44.108  11.090
67391W        W39706  42.500   8.822   0.208
67392W        W39707   3.038  23.844  11.456
67393W        W39708  40.330  39.309   2.878
67394W        W39709   7.517  25.198   1.074
67395W        W39710  17.309   7.188   1.402
67396W        W39711  27.757   5.708   1.893
67397W        W39712   6.174  43.872  10.950
67398W        W39713  12.862  17.507  12.424
67399W        W39714   3.243  33.904  13.536
67400W        W39715  18.344  18.137  11.645
67401W        W39716   6.412  19.104   0.144
67402W        W39717  43.912   8.563  12.764
67403W        W39718   0.862  22.642   1.259
67404W        W39719   8.942  22.953  14.705
67405W        W39720  22.567  43.009   1.259
67406W        W39721  21.575  40.518   0.340
67407W        W39722   1.766  14.952  11.974
67408W        W39723   4.888  19.574  14.954
67409W        W39724  30.206  28.572  11.014
67410W        W39725  10.679  29.523  11.000
67411W        W39726  25.633  16.330   0.395
67412W        W39727  12.527   0.510  13.494
67413W        W39728  22.943  29.410   3.582
67414W        W39729   7.827  24.754   3.665
67415W        W39730  25.694  12.034  11.519
67416W        W39731  35.937  32.335   0.977
67417W        W39732  12.151  37.790   3.582
67418W        W39733  31.723  35.923   1.846
67419W        W39734  11.506  14.348  13.371
67420W        W39735   8.920  36.855  14.580
67421W        W39736  20.431  14.462  12.189
67422W        W39737   8.870  11.425  14.377
67423W        W39738  24.016  21.746   0.456
67424W        W39739  10.785  42.052  10.924
67425W        W39740  43.065   0.499  11.724
67426W        W39741  41.137   8.743   3.643
67427W        W39742  23.232  22.342   5.430
67428W        W39743  40.625  37.502   2.636
67429W        W39744  20.785  43.796  14.764
67430W        W39745   0.710   7.260  10.674
67431W        W39746  36.217  29.697   4.236
67432W        W39747  12.405  29.566  12.390
67433W        W39748  35.303  40.824   4.706
67434W        W39749   3.454  13.685  12.983
67435W        W39750   1.182  39.260   4.499
67436W        W39751   9.399  23.151   4.060
67437W        W39752  36.829   1.384  11.714
67438W        W39753  21.223  23.576  13.102
67439W        W39754  21.806  44.980  12.109
67440W        W39755  27.245  28.247   3.971
67441W        W39756   5.320  41.044  12.491
67442W        W39757  13.198  10.884   4.039
67443W        W39758  15.551  13.955  10.641
67444W        W39759  16.119  26.565  14.923
67445W        W39760   6.172   7.311   9.861
67446W        W39761  13.696   8.250   4.953
67447W        W39762  29.545   1.690   4.759
67448W        W39763  39.803  34.377   3.654
67449W        W39764  33.138   4.799   1.253
67450W        W39765   8.810  19.303  12.006
67451W        W39766  29.023  31.059   4.161
67452W        W39767  38.114  39.810  11.096
67453W        W39768  29.972  38.967   0.100
67454W        W39769  16.066  34.965   4.638
67455W        W39770  16.177  25.967   1.229
67456W        W39771   7.279   1.679   1.229
67457W        W39772  31.669  43.111  12.943
67458W        W39773  23.494  17.806   0.380
67459W        W39774   2.936   7.676   4.369
67460W        W39775  32.499  15.572  13.484
67461W        W39776  24.057  41.209   4.551
67462W        W39777  31.892  13.801   4.017
67463W        W39778  25.160  13.689   1.271
67464W        W39779  22.670  36.602   2.275
67465W        W39780   4.006   6.595  11.265
67466W        W39781  10.214  24.517  10.683
67467W        W39782  14.026  24.779  10.550
67468W        W39783  40.909  13.612   4.183
67469W        W39784   8.257  20.149  12.789
67470W        W39785   2.678  28.037   4.490
67471W        W39786  19.477  33.163   2.519
67472W        W39787  23.670  39.998   4.473
67473W        W39788   6.674  41.089   2.292
67474W        W39789  30.851  41.258   1.831
67475W        W39790   5.714  13.603  11.219
67476W        W39791  19.315  16.209   0.786
67477W        W39792  28.241  26.397  12.439
67478W        W39793  18.847   5.279  10.724
67479W        W39794  17.317  19.520  13.952
67480W        W39795  26.015  21.294  11.863
67481W        W39796  27.915   2.659   4.823
67482W        W39797  11.435  27.391  13.478
67483W        W39798  19.078  12.955  10.496
67484W        W39799  12.900  27.918   3.017
67485W        W39800  16.764  25.187   4.301
67486W        W39801  32.856  29.377   4.160
67487W        W39802   3.165  19.674  14.267
67488W        W39803   1.314  29.955  11.595
67489W        W39804  12.426  17.596  10.025
67490W        W39805   2.817  14.262   1.280
67491W        W39806  40.065   2.816  11.969
67492W        W39807  25.324  35.050  14.026
67493W        W39808  44.554  39.086  14.851
67494W        W39809  17.072  15.165   3.728
67495W        W39810  12.847  43.722   0.473
67496W        W39811   7.372  27.601   0.142
67497W        W39812  20.656   6.598  12.948
67498W        W39813   1.950  40.788   2.869
67499W        W39814  33.977   9.091   5.064
67500W        W39815  18.122  10.177  12.947
67501W        W39816  35.027  11.225  13.833
67502W        W39817  31.002  43.076   3.303
67503W        W39818  19.117  33.101  12.466
67504W        W39819  42.966  10.383   2.895
67505W        W39820  17.016  24.986  12.075
67506W        W39821  20.499   2.668  12.009
67507W        W39822   5.228  24.621  14.774
67508W        W39823  11.715  39.152  13.142
67509W        W39824  36.713  32.689   4.817
67510W        W39825  37.580  21.879   4.792
67511W        W39826  30.999  20.305   2.766
67512W        W39827  40.248  24.565   0.444
67513W        W39828  13.939  10.784   3.077
67514W        W39829  23.074  30.327   2.611
67515W        W39830  38.094  33.395  10.247
67516W        W39831   3.204  44.390   2.884
67517W        W39832  36.443  29.198   0.644
67518W        W39833  35.823  37.157  13.560
67519W        W39834   2.481  40.534   1.079
67520W        W39835  40.576  40.666   3.159
67521W        W39836  31.244  19.577  12.075
67522W        W39837   9.239  29.395  11.312
67523W        W39838  38.021   9.410  13.443
67524W        W39839  23.599   8.113   4.120
67525W        W39840   3.713  18.149   1.170
67526W        W39841  40.877   6.645   1.920
67527W        W39842  21.028  44.943  13.794
67528W        W39843  23.318  29.639  10.744
67529W        W39844  31.131  37.059  10.569
67530W        W39845  34.532  34.779  10.688
67531W        W39846  12.957   8.172  13.068
67532W        W39847  42.042  39.335  12.006
67533W        W39848  42.469  18.078   2.767
67534W        W39849  27.438  34.094  10.282
67535W        W39850  23.748  39.464   0.523
67536W        W39851  40.815   7.216   1.178
67537W        W39852  38.489   7.184  13.854
67538W        W39853  16.133  29.035   0.704
67539W        W39854  28.412  35.826  13.051
67540W        W39855  20.372  42.357  14.272
67541W        W39856   0.726  44.750  12.407
67542W        W39857  19.180  10.463  14.002
67543W        W39858  43.471  23.661   2.855
67544W        W39859  27.208  16.580   1.791
67545W        W39860   0.509   7.171  12.060
67546W        W39861  10.925  41.783  14.979
67547W        W39862  23.557  11.058   1.113
67548W        W39863   1.281  30.015  14.108
67549W        W39864   1.836   8.294  13.925
67550W        W39865  30.267  31.530  13.800
67551W        W39866  38.967   6.959  13.791
67552W        W39867  19.305  38.448   3.221
67553W        W39868   9.383  25.698   4.349
67554W        W39869  28.286  22.562   1.001
67555W        W39870  26.035  27.237   0.790
67556W        W39871  18.855  19.667   4.275
67557W        W39872  12.234  18.904  12.874
67558W        W39873  16.352  15.391   3.202
67559W        W39874  36.540  30.345  10.847
67560W        W39875  15.301  22.709  12.925
67561W        W39876  43.728   9.187   1.309
67562W        W39877   4.852   1.963  13.012
67563W        W39878  24.152   6.313   0.217
67564W        W39879  39.287  32.427   0.774
67565W        W39880  33.842   6.200  11.556
67566W        W39881  32.933  22.662   3.543
67567W        W39882  39.439  30.838   0.378
67568W        W39883  19.685  12.974  11.122
67569W        W39884  11.171  22.635  14.341
67570W        W39885  18.459   7.743  13.023
67571W        W39886   3.272   5.137   1.151
67572W        W39887  16.508  18.686  14.952
67573W        W39888  43.503  20.751   3.187
67574W        W39889  10.269  21.700   4.064
67575W        W39890  43.519  43.074  13.497
67576W        W39891  38.266  10.935   0.730
67577W        W39892  10.834  29.137  14.310
67578W        W39893  22.740  16.994  11.961
67579W        W39894  12.364  44.295  11.668
67580W        W39895  31.443  27.998  10.608
67581W        W39896  10.849  39.811   1.347
67582W        W39897  44.945  39.597   4.683
67583W        W39898  15.304   7.203  10.389
67584W        W39899  31.099  28.538   4.393
67585W        W39900  43.964  43.740   4.085
67586W        W39901   5.906  36.722   4.945
67587W        W39902  36.430  24.178   3.856
67588W        W39903  30.451  29.747   3.796
67589W        W39904  12.142   3.319  13.369
67590W        W39905   7.585  40.064  14.271
67591W        W39906  23.441  11.086   0.590
67592W        W39907  38.337  10.678   2.946
67593W        W39908  17.725   3.082   4.695
67594W        W39909  38.404   9.258  14.883
67595W        W39910  20.409  14.434  11.069
67596W        W39911  38.610   9.201   1.316
67597W        W39912  34.608  26.678   0.891
67598W        W39913  27.316   7.400  10.900
67599W        W39914  33.975  18.304  12.625
67600W        W39915  35.563  10.654  14.451
67601W        W39916  14.272  37.507  11.015
67602W        W39917  31.029  24.135   0.824
67603W        W39918   8.614   5.951  14.142
67604W        W39919  44.356  20.930   2.317
67605W        W39920  29.220  33.680   5.436
67606W        W39921  32.049  42.928  10.767
67607W        W39922   2.390  22.725   3.060
67608W        W39923  12.540  29.122   4.384
67609W        W39924   6.675  16.726  14.567
67610W        W39925  43.264   7.651  14.020
67611W        W39926  43.828   8.879   0.895
67612W        W39927  19.115  38.748  13.304
67613W        W39928  10.800  16.384   4.558
67614W        W39929  44.804  39.897  14.243
67615W        W39930  36.561  31.746  12.169
67616W        W39931  12.335  22.161   4.173
67617W        W39932  33.176  29.025   4.417
67618W        W39933  26.001  28.017   0.276
67619W        W39934  41.258  24.685   3.844
67620W        W39935   9.213  20.251   3.604
67621W        W39936  37.911  44.836  12.346
67622W        W39937  11.926  32.500  10.698
67623W        W39938  12.237   1.177   0.340
67624W        W39939  39.067  34.727   0.881
67625W        W39940  17.152  16.847   0.906
67626W        W39941  16.930  40.674   1.323
67627W        W39942   4.550  42.759   5.085
67628W        W39943   0.426  12.147  12.170
67629W        W39944  23.475  30.973   4.635
67630W        W39945  20.096  11.334  14.993
67631W        W39946  23.820  19.089  10.626
67632W        W39947   9.927  28.466  13.870
67633W        W39948  20.489  26.231   0.096
67634W        W39949  22.124  19.053  13.449
67635W        W39950  12.584  27.103   2.561
67636W        W39951  23.550  35.871  10.681
67637W        W39952  44.900  36.206  13.591
67638W        W39953  44.798  18.131  14.423
67639W        W39954  10.138  28.648  14.847
67640W        W39955  38.765  41.713   3.900
67641W        W39956   0.574  44.712   0.303
67642W        W39957   3.435  29.004  11.621
67643W        W39958   2.090  28.558  10.872
67644W        W39959  43.119  16.246  14.783
67645W        W39960  26.508  31.080  13.638
67646W        W39961   3.609  17.861   4.523
67647W        W39962  18.144   3.735  11.506
67648W        W39963  29.191  15.335   1.806
67649W        W39964  43.505  34.006   0.763
67650W        W39965   4.824   0.999  14.622
67651W        W39966  27.648   4.448  13.344
67652W        W39967  20.435  40.510   3.825
67653W        W39968  20.727   4.666  14.842
67654W        W39969  42.688  30.105   3.013
67655W        W39970  42.624  38.792   0.838
67656W        W39971  43.001  30.526  12.914
67657W        W39972   2.373  44.540  12.895
67658W        W39973  19.939  40.035  14.272
67659W        W39974  28.611  37.765  11.154
67660W        W39975  43.476  42.905  10.683
67661W        W39976  24.982  17.713   2.372
67662W        W39977  27.889  17.696  12.889
67663W        W39978  12.363  25.200  10.596
67664W        W39979  29.650  18.573  14.953
67665W        W39980  30.121  21.418  14.258
67666W        W39981  12.635  35.120  14.856
67667W        W39982  31.936  37.348   1.975
67668W        W39983  18.805  32.612  13.599
67669W        W39984   4.466  26.475   3.738
67670W        W39985  15.837  34.179  13.524
67671W        W39986   8.927  14.133  14.807
67672W        W39987  20.730  40.406   2.217
67673W        W39988  36.557  20.127   2.809
67674W        W39989  42.321   7.180   0.901
67675W        W39990   8.385  20.123  11.011
67676W        W39991   0.980  36.553  13.931
67677W        W39992   9.338  34.281  12.351
67678W        W39993  43.517   8.319  13.959
67679W        W39994  19.121   4.975  12.771
67680W        W39995  41.185  17.308   1.734
67681W        W39996   5.746   2.839   3.568
67682W        W39997  35.425  18.762  13.269
67683W        W39998   1.351  24.289  12.879
67684W        W39999  19.786  36.012   2.206
67685W        W40000  17.284  44.371   4.547
67686W        W40001  14.622  17.615  11.107
67687W        W40002  39.274   4.392   1.721
67688W        W40003  24.915   6.477   4.241
67689W        W40004  22.376  26.100  13.403
67690W        W40005  26.200  17.823   0.704
67691W        W40006   6.680   7.286  13.148
67692W        W40007  37.603   2.711  10.582
67693W        W40008  22.281  33.464   4.146
67694W        W40009  33.922  38.186  12.578
67695W        W40010   6.359   4.806   2.001
67696W        W40011   0.722  19.885   4.435
67697W        W40012  36.731  21.314  11.537
67698W        W40013  33.642  24.570  11.195
67699W        W40014  41.306  44.378   4.027
67700W        W40015  19.226   9.632   2.457
67701W        W40016  27.745  10.369  11.182
67702W        W40017  44.747  20.538   2.485
67703W        W40018   6.731  32.089  14.800
67704W        W40019  18.306   1.267   4.837
67705W        W40020  40.204  32.182   4.154
67706W        W40021  39.007  23.899  11.204
67707W        W40022  13.295  30.347  13.005
67708W        W40023  15.363  37.414  13.962
67709W        W40024  17.667   8.674  14.401
67710W        W40025  30.908  32.914  10.973
67711W        W40026  13.641  25.758   2.711
67712W        W40027   2.320  28.150   2.271
67713W        W40028   5.292  31.137  12.399
67714W        W40029  30.862   3.149   0.822
67715W        W40030  24.200  44.724   4.604
67716W        W40031  25.434  21.077  12.270
67717W        W40032   7.914  21.616  14.512
67718W        W40033  18.044  16.350   2.700
67719W        W40034  17.449  31.121  12.622
67720W        W40035  44.536   4.950  11.428
67721W        W40036  34.352  17.062   1.538
67722W        W40037  36.337   3.212  13.503
67723W        W40038  36.207  11.596  12.090
67724W        W40039   3.918  36.975  11.539
67725W        W40040   1.258   4.655  12.616
67726W        W40041   0.069  37.989  14.368
67727W        W40042  29.871   9.703  14.292
67728W        W40043  12.270  32.036  10.931
67729W        W40044  35.039  29.018   4.143
67730W        W40045   3.130  16.382   1.743
67731W        W40046   6.683  19.036  13.898
67732W        W40047  37.294  32.578   1.869
67733W        W40048   8.020  35.655   0.064
67734W        W40049  19.266  26.518   3.141
67735W        W40050  22.978  37.146  14.026
67736W        W40051  39.478  12.646  10.756
67737W        W40052  35.502  30.550  13.296
67738W        W40053  17.720  24.615   4.298
67739W        W40054   8.936  18.626   3.161
67740W        W40055  36.411  33.158   0.822
67741W        W40056   1.371  41.190  11.520
67742W        W40057   7.320  38.089  14.052
67743W        W40058  44.430  21.751  11.562
67744W        W40059  13.819   1.739   0.393
67745W        W40060   3.387  26.734   2.217
67746W        W40061  23.020  16.058   1.296
67747W        W40062   7.121  44.277   4.915
67748W        W40063  43.324  22.226  11.176
67749W        W40064  18.095  14.188   1.104
67750W        W40065  26.668  34.123  13.063
67751W        W40066  27.533  10.743   5.049
67752W        W40067  10.646  26.102  14.892
67753W        W40068  36.217  32.396  10.805
67754W        W40069  20.842   9.132   0.837
67755W        W40070   7.157  24.762  12.109
67756W        W40071  22.520  11.863  14.286
67757W        W40072  23.783  22.008  12.530
67758W        W40073  40.919  28.432   1.798
67759W        W40074   0.393   6.859  10.720
67760W        W40075   3.326  41.428   4.084
67761W        W40076  43.098  10.718   4.885
67762W        W40077   3.817   9.370  12.044
67763W        W40078  43.478   6.223   1.275
67764W        W40079  41.829  38.749  11.087
67765W        W40080  32.444   9.243  11.552
67766W        W40081  14.248  42.330  10.762
67767W        W40082  10.676   4.219  14.371
67768W        W40083  31.464  29.545   0.997
67769W        W40084  37.396  44.011   0.519
67770W        W40085  42.599   4.688  12.830
67771W        W40086  13.586  13.635  13.790
67772W        W40087  11.880  19.026   3.354
67773W        W40088  27.631   8.921  13.744
67774W        W40089  35.587  19.122  14.858
67775W        W40090  44.566  43.618   2.246
67776W        W40091  27.801   0.767   2.842
67777W        W40092  39.090   4.018   4.102
67778W        W40093  38.588  44.915   1.679
67779W        W40094  38.428  42.593   2.361
67780W        W40095  37.918  24.651  12.391
67781W        W40096  29.449  31.571   9.944
67782W        W40097   3.291   8.403  11.532
67783W        W40098  12.780   2.034  13.342
67784W        W40099  18.003  12.322  12.485
67785W        W40100  11.506  17.230  12.458
67786W        W40101  10.798  10.260   0.226
67787W        W40102  44.645  22.302   2.195
67788W        W40103  24.268  40.914  14.900
67789W        W40104  35.815  14.760   2.384
67790W        W40105  33.857   9.119  11.089
67791W        W40106  42.270   7.246  11.850
67792W        W40107  40.357   1.761  10.667
67793W        W40108  34.446  28.612  12.486
67794W        W40109  30.406  32.487   1.437
67795W        W40110  17.278   2.430   1.400
67796W        W40111  36.162  20.204  11.312
67797W        W40112  11.239  36.860   4.079
67798W        W40113  26.992   2.810  13.482
67799W        W40114  33.907  31.870   0.030
67800W        W40115  23.281  19.163  10.615
67801W        W40116  21.661  10.323   0.277
67802W        W40117   3.441  18.274  14.297
67803W        W40118  40.412   5.773   3.251
67804W        W40119  19.212  42.272   0.339
67805W        W40120   1.862  36.441  12.383
67806W        W40121   4.593  13.860   0.840
67807W        W40122   8.506   2.868   3.241
67808W        W40123  15.715  11.973  10.177
67809W        W40124  22.582  24.011  14.438
67810W        W40125  10.258  32.529   2.887
67811W        W40126  23.070  33.392  13.746
67812W        W40127  33.816   4.864   2.266
67813W        W40128  41.355   2.043   1.246
67814W        W40129   2.747  23.878  14.264
67815W        W40130   1.560   0.823  11.638
67816W        W40131  24.707   5.247  14.444
67817W        W40132  11.635   3.476   1.830
67818W        W40133   8.322   9.402   3.866
67819W        W40134  37.741  44.099   4.272
67820W        W40135  10.347  37.174   4.067
67821W        W40136   6.268  14.351   2.225
67822W        W40137  34.434  31.352  13.334
67823W        W40138   7.097   2.247   2.752
67824W        W40139  37.282  23.919   5.092
67825W        W40140  17.172  29.286  11.249
67826W        W40141  37.630  28.046   3.743
67827W        W40142   3.933  16.521  11.010
67828W        W40143   9.702   2.935   2.053
67829W        W40144  27.197  15.251   2.314
67830W        W40145  44.576  37.984  14.527
67831W        W40146   5.206  39.482  13.262
67832W        W40147  11.913  40.758   2.268
67833W        W40148  35.567  22.533  10.466
67834W        W40149  19.154  14.935  12.392
67835W        W40150   5.031  36.991   0.836
67836W        W40151   8.675  10.596  12.891
67837W        W40152  27.683   5.791   5.577
67838W        W40153  15.181  41.427   3.354
67839W        W40154  16.973  23.561   3.757
67840W        W40155  32.592  27.938   1.808
67841W        W40156  43.327  14.069   3.763
67842W        W40157  18.236  19.781  13.351
67843W        W40158  21.536  21.711  11.916
67844W        W40159   4.408   2.064   0.398
67845W        W40160  31.804  32.050  12.419
67846W        W40161  11.793  10.744  14.132
67847W        W40162  44.066  11.173  12.874
67848W        W40163  16.364  10.641  12.952
67849W        W40164   2.817  44.052   2.805
67850W        W40165  15.098  42.788   3.678
67851W        W40166   4.282   6.168  14.232
67852W        W40167  17.875  41.052  11.129
67853W        W40168  44.008  15.827   1.383
67854W        W40169  22.094   3.384   2.231
67855W        W40170  34.025  14.205  12.680
67856W        W40171  36.489  12.518  14.402
67857W        W40172   5.631  12.930  14.960
67858W        W40173  14.802  31.595  11.157
67859W        W40174  35.425  42.085   0.442
67860W        W40175   9.695  22.085  11.503
67861W        W40176  23.139   5.767  12.565
67862W        W40177   4.201  32.965   2.620
67863W        W40178  29.368  27.390  12.823
67864W        W40179  18.888  42.283  10.757
67865W        W40180  36.817  31.062  13.455
67866W        W40181   7.263  26.734  13.039
67867W        W40182  10.683  19.027  13.878
67868W        W40183   1.012  38.562   4.006
67869W        W40184  16.368  11.552  12.606
67870W        W40185  17.425  14.342   4.905
67871W        W40186  30.896  19.120  12.878
67872W        W40187   2.225   7.132  10.315
67873W        W40188  38.099  36.331   3.190
67874W        W40189  26.170  44.184   1.663
67875W        W40190  42.597  42.850  11.844
67876W        W40191  40.015   0.965  11.691
67877W        W40192  34.307  11.814   3.817
67878W        W40193  29.353  23.439   2.758
67879W        W40194  44.876  42.546   3.833
67880W        W40195  29.421  37.560  14.999
67881W        W40196  24.021  20.116  14.223
67882W        W40197   4.843  34.674   4.575
67883W        W40198  38.982   7.872  12.026
67884W        W40199  19.199  20.241   0.982
67885W        W40200  40.644   6.385   1.078
67886W        W40201   6.656  31.327  12.538
67887W        W40202   4.903  37.531  12.100
67888W        W40203  43.225  28.141   0.775
67889W        W40204   6.287  27.233  13.822
67890W        W40205  16.282  18.146  10.717
67891W        W40206  21.314  42.340  13.605
67892W        W40207  28.485   1.295  10.554
67893W        W40208  18.812   6.219   4.167
67894W        W40209  38.052  33.649   0.538
67895W        W40210  27.432  18.127  11.138
67896W        W40211   6.314  24.954  11.658
67897W        W40212  40.136  27.159  11.032
67898W        W40213  30.519  39.350   1.774
67899W        W40214  25.899  31.492  14.968
67900W        W40215  39.940  20.212   1.654
67901W        W40216  44.164   9.843  12.955
67902W        W40217  34.319  17.579   1.714
67903W        W40218  33.879  38.132   2.282
67904W        W40219  18.129  20.468   1.274
67905W        W40220  16.856  15.622  14.251
67906W        W40221  19.880  39.439  11.539
67907W        W40222  11.839  19.251  10.522
67908W        W40223  22.691  18.703  14.506
67909W        W40224  18.132   8.612   9.523
67910W        W40225  16.757  33.475   1.787
67911W        W40226  12.318   8.786  13.458
67912W        W40227  42.887  14.293   0.680
67913W        W40228  23.062  15.644   2.968
67914W        W40229  40.397  20.666   0.454
67915W        W40230   6.365  31.606  10.882
67916W        W40231  35.230  17.257   2.076
67917W        W40232  37.892  33.389  10.746
67918W        W40233  20.027  34.773   4.073
67919W        W40234   8.770  41.914  13.133
67920W        W40235  32.555  21.596  12.898
67921W        W40236  32.024  38.754  14.851
67922W        W40237  18.493  39.360   2.849
67923W        W40238  38.600   9.669  12.501
67924W        W40239  34.468  38.031  12.600
67925W        W40240  19.087  31.251   4.133
67926W        W40241  23.090  33.415  11.002
67927W        W40242   3.864  31.193   2.752
67928W        W40243  28.037  17.037   2.293
67929W        W40244  42.930  31.112   4.367
67930W        W40245  26.160   1.930  10.732
67931W        W40246  36.659  10.317   4.010
67932W        W40247   6.437  22.732   1.721
67933W        W40248   5.875   1.198  13.402
67934W        W40249  17.370   1.459  11.006
67935W        W40250  25.599  20.115  11.453
67936W        W40251  43.823   8.396  13.251
67937W        W40252  30.668  14.846   1.312
67938W        W40253  38.522  40.991  10.684
67939W        W40254   1.345   3.965   2.690
67940W        W40255  37.550  10.469  13.412
67941W        W40256   9.698  35.378  13.044
67942W        W40257   6.254  25.176  13.939
67943W        W40258  20.558  23.329   2.800
67944W        W40259  37.025  23.510   4.506
67945W        W40260  16.670   6.022  12.973
67946W        W40261  15.296   0.851  12.915
67947W        W40262  13.034  11.325  12.396
67948W        W40263  20.727   6.186   1.771
67949W        W40264  25.725   8.091   1.424
67950W        W40265  35.612  31.389   3.056
67951W        W40266   5.600  42.765  14.726
67952W        W40267  14.052   4.532   0.383
67953W        W40268  22.567  44.778   2.871
67954W        W40269  35.040  15.089   1.538
67955W        W40270  17.084   6.283   2.838
67956W        W40271   5.727  14.814  11.592
67957W        W40272  43.616  16.185  14.793
67958W        W40273  26.462  18.637  11.879
67959W        W40274  20.388  39.276  11.579
67960W        W40275   5.244   0.299   3.196
67961W        W40276  42.731   9.487   2.628
67962W        W40277  22.196  12.410  14.476
67963W        W40278  26.507  27.296  13.013
67964W        W40279  22.176  21.731  11.115
67965W        W40280  35.279  12.744  12.558
67966W        W40281   3.918  38.366  11.552
67967W        W40282  34.942  40.269   1.440
67968W        W40283  43.581  17.023   2.180
67969W        W40284  24.025  23.424   3.879
67970W        W40285   8.359   1.004   4.591
67971W        W40286   0.056  12.740   2.271
67972W        W40287  28.385  14.618   2.813
67973W        W40288  36.866  32.494  12.625
67974W        W40289  36.455  21.258  11.957
67975W        W40290  26.425  12.340  11.070
67976W        W40291  33.525  34.575  13.375
67977W        W40292  17.743  41.473   9.810
67978W        W40293  13.755   4.347   4.085
67979W        W40294  39.281  38.514  10.668
67980W        W40295  19.024  25.515  11.494
67981W        W40296   8.742  41.477   4.761
67982W        W40297  42.406  34.138   4.399
67983W        W40298  22.615  29.146   3.140
67984W        W40299  37.991  21.709   4.536
67985W        W40300  43.603  30.121   4.135
67986W        W40301  40.286  43.134   1.165
67987W        W40302   7.872  27.200  10.522
67988W        W40303  35.495   9.160   3.450
67989W        W40304  12.949  11.295   3.762
67990W        W40305  21.672  43.890   4.218
67991W        W40306  44.928   2.253  13.310
67992W        W40307  30.066  17.838  10.587
67993W        W40308   3.321  36.236   5.282
67994W        W40309  12.311  21.337  14.046
67995W        W40310  12.267   9.163  11.137
67996W        W40311  39.442   6.423  14.328
67997W        W40312  22.434  30.538   1.148
67998W        W40313  43.053  17.287   1.342
67999W        W40314  11.908   0.748   0.950
68000W        W40315  37.882  22.531   0.285
68001W        W40316  44.953  21.222  11.963
68002W        W40317  25.539  24.163   3.622
68003W        W40318   5.711  34.565  10.846
68004W        W40319  31.413  24.211  11.236
68005W        W40320  41.177  31.955  11.977
68006W        W40321   0.758  28.825  13.926
68007W        W40322  31.425  40.919   2.375
68008W        W40323   1.441  44.971  13.099
68009W        W40324  44.935  37.742   4.959
68010W        W40325  28.898  31.923  12.034
68011W        W40326  27.589  41.917   3.574
68012W        W40327   9.278  37.781   3.709
68013W        W40328  27.839  11.550   3.669
68014W        W40329  38.356   6.476  12.209
68015W        W40330   1.820   9.361   1.973
68016W        W40331  44.256  12.626   2.780
68017W        W40332  15.196  10.889  11.496
68018W        W40333  27.834  27.022   1.415
68019W        W40334  18.450  35.964   0.317
68020W        W40335  22.518  40.354   0.203
68021W        W40336   3.777  13.582  12.461
68022W        W40337  40.787  23.815   3.682
68023W        W40338  28.707   7.224  13.519
68024W        W40339  38.874   3.045   4.403
68025W        W40340  24.177   4.335  11.222
68026W        W40341  18.701  12.353   4.820
68027W        W40342  28.524  41.276  10.922
68028W        W40343  14.829  14.348  13.571
68029W        W40344  41.436  24.402   3.181
68030W        W40345  11.122  30.419   0.446
68031W        W40346  31.678  32.474  14.915
68032W        W40347   0.437  11.649  14.451
68033W        W40348   8.359   8.085   2.479
68034W        W40349  44.964  20.281  10.782
68035W        W40350   6.326  37.566  12.152
68036W        W40351  25.058  16.465   1.368
68037W        W40352  17.109   2.283   4.597
68038W        W40353  37.575  25.532   1.696
68039W        W40354   3.149  35.598   0.725
68040W        W40355  17.300  18.232   2.800
68041W        W40356  11.212  36.857   4.595
68042W        W40357  15.269  42.620  10.658
68043W        W40358  17.365  21.048   2.747
68044W        W40359  42.509  20.977  13.463
68045W        W40360  26.592  39.912  10.669
68046W        W40361  39.880  18.700   0.292
68047W        W40362  21.623  33.486   2.750
68048W        W40363   1.802   5.414   4.399
68049W        W40364  17.035  18.811  12.624
68050W        W40365   1.336  21.453   1.371
68051W        W40366  15.495  33.177  13.241
68052W        W40367  34.142  13.220   3.607
68053W        W40368  19.270  37.366  14.804
68054W        W40369  26.440  11.128  14.396
68055W        W40370  43.970  36.036  13.290
68056W        W40371   7.962  19.443  11.643
68057W        W40372  22.074   6.945  11.012
68058W        W40373   7.505  23.000  11.600
68059W        W40374  41.306  11.115   0.245
68060W        W40375  18.251   8.634   0.465
68061W        W40376  14.553  24.156  11.443
68062W        W40377  30.876   7.376  14.801
68063W        W40378  42.685  39.293  13.378
68064W        W40379  25.251  31.745  10.730
68065W        W40380  23.162  20.621   1.765
68066W        W40381   7.779  21.030   0.472
68067W        W40382   8.595  11.462   1.388
68068W        W40383   8.242  11.138  11.263
68069W        W40384  16.832  33.079   3.093
68070W        W40385  34.948   1.386  11.486
68071W        W40386  16.485  31.640  13.875
68072W        W40387  23.624  33.108  10.401
68073W        W40388  36.909  24.600  12.749
68074W        W40389  36.513  36.198   1.099
68075W        W40390  42.527  13.069   2.804
68076W        W40391  29.035  32.499  12.286
68077W        W40392  18.114  25.697  12.004
68078W        W40393   8.357  24.600  10.753
68079W        W40394  42.525  42.626   3.186
68080W        W40395   5.862   3.901   2.193
68081W        W40396  23.622  34.141  12.856
68082W        W40397  35.866  36.635  13.531
68083W        W40398   5.371  34.296   5.043
68084W        W40399  17.791   5.906  13.107
68085W        W40400  43.966  18.142  10.546
68086W        W40401  12.090  43.362   4.666
68087W        W40402   0.062  28.111  11.601
68088W        W40403   8.460  17.521   2.298
68089W        W40404  43.803  20.798   1.298
68090W        W40405  39.556  28.231   3.653
68091W        W40406  42.508  29.730  14.946
68092W        W40407  13.152  16.050  12.543
68093W        W40408  42.429   6.928  11.416
68094W        W40409  24.709  34.123   4.588
68095W        W40410  22.926  15.149  12.753
68096W        W40411  31.925  35.308  14.962
68097W        W40412  18.406   6.953  14.557
68098W        W40413  42.430  13.104   3.828
68099W        W40414   1.224   7.699   2.078
68100W        W40415   6.996   3.046   4.059
68101W        W40416  13.253  28.092   1.276
68102W        W40417  43.035  31.826   2.798
68103W        W40418  29.850  14.355   5.024
68104W        W40419  40.587  17.813  14.932
68105W        W40420  18.088  24.203   3.202
68106W        W40421  36.647   5.795  13.480
68107W        W40422   4.464   3.649   2.720
68108W        W40423  39.448  29.869  12.528
68109W        W40424  38.565  39.443   1.340
68110W        W40425   6.788  42.903   4.072
68111W        W40426  36.979  31.797  13.974
68112W        W40427  28.053  18.966  11.141
68113W        W40428  13.113  38.062   3.206
68114W        W40429  16.510  43.038  14.083
68115W        W40430  32.706  39.216   2.683
68116W        W40431  32.348  35.336   2.756
68117W        W40432  26.077  19.231   2.674
68118W        W40433  10.107  31.141   1.956
68119W        W40434  44.457  32.384  11.574
68120W        W40435  41.349   8.973  11.565
68121W        W40436  29.690   4.896   4.629
68122W        W40437   5.854  24.853  13.955
68123W        W40438  38.310   9.577   2.557
68124W        W40439  21.947  35.523  12.958
68125W        W40440   4.876  13.098   1.737
68126W        W40441   5.721   5.129   2.776
68127W        W40442  36.261  16.493   0.820
68128W        W40443   5.841   1.960   1.798
68129W        W40444   8.585  22.661   5.001
68130W        W40445   6.840  30.481   4.933
68131W        W40446  10.759  30.932   1.133
68132W        W40447   2.434  17.737   4.503
68133W        W40448  14.294  43.256  10.690
68134W        W40449  27.016  29.020   2.386
68135W        W40450   3.646  20.959   3.278
68136W        W40451  25.725  13.057  10.740
68137W        W40452   1.499   7.141  11.039
68138W        W40453  34.581   3.546  11.275
68139W        W40454  36.623  39.625  11.064
68140W        W40455  27.400  41.360  13.988
68141W        W40456   0.455  37.346  13.976
68142W        W40457   7.867  20.457  13.323
68143W        W40458  17.012  19.044   2.999
68144W        W40459  12.643  19.822  12.988
68145W        W40460   5.640  23.131   4.716
68146W        W40461  34.760  13.814   2.726
68147W        W40462  36.459  14.292   2.921
68148W        W40463  15.284  14.502   1.725
68149W        W40464  10.204   2.559  13.029
68150W        W40465   7.338  38.333   4.190
68151W        W40466  42.769   0.838   4.899
68152W        W40467  38.977  43.653   3.844
68153W        W40468  21.575   7.117  10.973
68154W        W40469  35.191  39.576   2.399
68155W        W40470   5.103   6.157   0.303
68156W        W40471  38.429  40.291   2.806
68157W        W40472  44.330  15.235   3.232
68158W        W40473  27.079  17.176  14.604
68159W        W40474  19.670  41.796  13.250
68160W        W40475  24.264  33.040   4.806
68161W        W40476  44.734  22.584  13.790
68162W        W40477  19.014   5.093   1.413
68163W        W40478   7.195   7.403   4.861
68164W        W40479  38.453  42.260  12.035
68165W        W40480  19.262  37.662   4.220
68166W        W40481   1.723  18.663  12.067
68167W        W40482   1.738  23.133   4.329
68168W        W40483  30.611  39.627   1.345
68169W        W40484   0.567  33.429   5.716
68170W        W40485  32.663  20.981   5.389
68171W        W40486   4.133   1.431   2.248
68172W        W40487  40.339   9.690  11.561
68173W        W40488  43.165  15.308   4.142
68174W        W40489  35.394  25.884   3.642
68175W        W40490   2.984  20.732  11.822
68176W        W40491  35.537   4.790   2.305
68177W        W40492   9.839  37.803   4.405
68178W        W40493  27.543  31.446   5.486
68179W        W40494  19.514   5.080  11.505
68180W        W40495  13.497  35.013   2.643
68181W        W40496  33.501  39.419   3.178
68182W        W40497  39.777  24.649   1.428
68183W        W40498  17.166  31.090   4.112
68184W        W40499  43.007  20.972   9.869
68185W        W40500  42.739   8.247  11.074
68186W        W40501  39.595  21.203   2.202
68187W        W40502   4.280  30.140  12.617
68188W        W40503  22.740   9.639  14.826
68189W        W40504  13.967  15.980   1.892
68190W        W40505  26.235  44.537  14.839
68191W        W40506  11.263  30.835  12.524
68192W        W40507  40.571  11.294  11.474
68193W        W40508  17.317  17.838   0.654
68194W        W40509  44.464  18.010   2.702
68195W        W40510  22.024  43.873   2.465
68196W        W40511   0.813  31.877   3.324
68197W        W40512   6.133   0.157  11.678
68198W        W40513  10.647  34.120   4.570
68199W        W40514  41.947   7.413   2.313
68200W        W40515  17.624  18.200   2.363
68201W        W40516  44.495   6.686  10.735
68202W        W40517  44.321  25.710  14.823
68203W        W40518  10.844  33.346  14.780
68204W        W40519   3.339   8.459  12.588
68205W        W40520  36.391  43.545   3.139
68206W        W40521  23.045  38.315   0.387
68207W        W40522   5.775  14.204   2.320
68208W        W40523   6.797  12.349   2.853
68209W        W40524  44.680  10.613   1.791
68210W        W40525  22.220  17.693   2.734
68211W        W40526  40.544   9.087  10.058
68212W        W40527   5.646  36.892   1.315
68213W        W40528  42.796  10.203  12.393
68214W        W40529  17.343  10.402  11.232
68215W        W40530   1.719  25.496  10.723
68216W        W40531  41.018   1.972  11.895
68217W        W40532   6.434  11.062   1.465
68218W        W40533  12.322  33.253  12.043
68219W        W40534   6.127  28.492   3.674
68220W        W40535  37.401   2.438  10.976
68221W        W40536  13.817  23.256  13.387
68222W        W40537  15.535  31.084   3.169
68223W        W40538  30.545  20.778  14.372
68224W        W40539   3.789  23.764  14.939
68225W        W40540  28.598  36.299  13.059
68226W        W40541  34.309  30.861   1.383
68227W        W40542   0.676  39.596  14.515
68228W        W40543  14.551  21.240   1.734
68229W        W40544  35.937  13.384   2.316
68230W        W40545  38.795   4.468   1.428
68231W        W40546  21.256  40.593  14.555
68232W        W40547  27.765  40.961   3.159
68233W        W40548   4.739  28.211  10.196
68234W        W40549   5.072  16.084  13.186
68235W        W40550  30.155  28.454   0.968
68236W        W40551  34.178  18.132  13.609
68237W        W40552  24.808  19.318   0.590
68238W        W40553  11.209  14.277   4.312
68239W        W40554  23.838  19.065   0.781
68240W        W40555   3.855  27.938   4.572
68241W        W40556  34.121  16.052  11.677
68242W        W40557   1.029  11.706   0.418
68243W        W40558  15.396   1.748  13.589
68244W        W40559  41.273   5.881   3.375
68245W        W40560  41.310  10.263   1.304
68246W        W40561  20.298  33.483   2.516
68247W        W40562  41.093  35.945  11.017
68248W        W40563   1.249  13.766  13.199
68249W        W40564  17.251  31.435  14.979
68250W        W40565   6.609  31.122  12.024
68251W        W40566   5.607  27.085   1.692
68252W        W40567  21.767  15.654   2.297
68253W        W40568  41.226  12.482  14.439
68254W        W40569  21.273  28.039   1.876
68255W        W40570   9.726   0.921   4.574
68256W        W40571   9.852  32.415  10.427
68257W        W40572  10.270  19.432  12.848
68258W        W40573  19.196   6.603   0.419
68259W        W40574  12.260  10.572   3.687
68260W        W40575  13.054  39.553  14.025
68261W        W40576  15.544  27.159  11.254
68262W        W40577  23.650  43.435   3.216
68263W        W40578  11.584  21.635   9.991
68264W        W40579  42.991   5.144  11.535
68265W        W40580   2.290  24.561  11.502
68266W        W40581  22.781  36.684   1.301
68267W        W40582  31.752  37.069   3.387
68268W        W40583  10.642  37.475  10.728
68269W        W40584  35.005  43.844  11.992
68270W        W40585  34.377  30.472  11.378
68271W        W40586  42.459  41.460  14.269
68272W        W40587  36.835  20.124  13.687
68273W        W40588   8.292  33.614  12.532
68274W        W40589   3.781   8.312  14.826
68275W        W40590  44.184  31.628   2.266
68276W        W40591  13.209  31.591  14.831
68277W        W40592   9.187   5.855   3.151
68278W        W40593  16.760  43.592  11.533
68279W        W40594  22.807  19.199  14.383
68280W        W40595  41.484  12.964  12.549
68281W        W40596   7.340  33.546   2.769
68282W        W40597  11.690   6.883   0.343
68283W        W40598   1.275  17.740  14.791
68284W        W40599  28.544  38.193  14.217
68285W        W40600   0.539  32.652  11.190
68286W        W40601   6.490  27.102  12.939
68287W        W40602  29.097  32.725  10.998
68288W        W40603  17.642  40.082  10.344
68289W        W40604  19.294   1.024  13.325
68290W        W40605  13.655  10.069  12.510
68291W        W40606  19.219  24.610   0.787
68292W        W40607  44.745  25.184   2.648
68293W        W40608  32.375  12.193   4.364
68294W        W40609  42.201   4.316  10.765
68295W        W40610  32.960  42.827  13.499
68296W        W40611   4.696   8.905  13.788
68297W        W40612  29.846   5.139  12.501
68298W        W40613   6.728  24.656  13.354
68299W        W40614   8.199   5.673   0.011
68300W        W40615  41.428   7.363   1.315
68301W        W40616  13.711  22.270   2.821
68302W        W40617  26.599  21.362   3.701
68303W        W40618   2.874  39.873  13.417
68304W        W40619  32.964  13.678   1.982
68305W        W40620  23.572  12.713   4.430
68306W        W40621  12.641  41.916  13.686
68307W        W40622  17.830  10.283   4.656
68308W        W40623   2.971  43.288   5.003
68309W        W40624  31.079  26.762  13.517
68310W        W40625   3.709  32.439   3.310
68311W        W40626  15.326   4.258  10.655
68312W        W40627  44.726  22.621   3.782
68313W        W40628  10.686  13.122  12.375
68314W        W40629   2.358  13.854  14.828
68315W        W40630  23.782  15.209  11.153
68316W        W40631  14.514  12.607  11.109
68317W        W40632  23.078  13.093  13.937
68318W        W40633  27.532  25.356  13.043
68319W        W40634  43.825   9.184   0.409
68320W        W40635  41.993   1.705  12.450
68321W        W40636  35.033  10.394   3.765
68322W        W40637   2.316  27.420  14.060
68323W        W40638  27.598  19.092   4.593
68324W        W40639  27.665  12.251  11.554
68325W        W40640   8.150   4.280   3.337
68326W        W40641  29.603  26.787   1.769
68327W        W40642  37.173  26.766  11.961
68328W        W40643  24.396  16.184  12.538
68329W        W40644  38.397  16.674  10.627
68330W        W40645  30.640  27.205  10.586
68331W        W40646  36.422   8.848  12.960
68332W        W40647  39.887  39.960  12.258
68333W        W40648   8.819  13.853   0.468
68334W        W40649  17.840  42.310  10.763
68335W        W40650  33.523  11.636  11.994
68336W        W40651   6.238  18.924   0.633
68337W        W40652  22.714   7.439  12.107
68338W        W40653  16.706  37.099  14.855
68339W        W40654  37.743  40.672  11.172
68340W        W40655  31.530   5.751  14.569
68341W        W40656  39.978  32.649   4.265
68342W        W40657  24.096  40.616  10.656
68343W        W40658  31.071  14.666  11.962
68344W        W40659  11.767  10.292  12.099
68345W        W40660  31.581   9.003   0.884
68346W        W40661  27.748  11.295  14.228
68347W        W40662  44.992   6.756   2.765
68348W        W40663  26.607   0.234  10.782
68349W        W40664  35.551  20.839  10.422
68350W        W40665  21.701  26.541   0.218
68351W        W40666   5.313  43.731  13.562
68352W        W40667   0.752  18.732   1.781
68353W        W40668  39.520  15.756   1.142
68354W        W40669  31.494  10.077  10.105
68355W        W40670  14.932  32.502   2.436
68356W        W40671  27.472  16.674  11.408
68357W        W40672  33.792  14.920  11.185
68358W        W40673  17.328   3.166   1.809
68359W        W40674  10.548  38.804  12.020
68360W        W40675  10.248   3.636   2.824
68361W        W40676  10.155  17.955  14.325
68362W        W40677  27.535  34.909  10.703
68363W        W40678  14.197  25.690   2.107
68364W        W40679   3.361  39.271   0.001
68365W        W40680  17.610  18.228   0.899
68366W        W40681  35.072  27.711  11.669
68367W        W40682  21.049   4.454  14.409
68368W        W40683  23.540  12.630  12.090
68369W        W40684  14.850  37.535  13.410
68370W        W40685  40.258  24.641  11.521
68371W        W40686  38.203   6.401   4.457
68372W        W40687  19.356   6.729   2.665
68373W        W40688  25.069   8.385  13.301
68374W        W40689  27.093   4.513   4.611
68375W        W40690   3.228  11.036  12.551
68376W        W40691   4.739  21.661  14.198
68377W        W40692  30.120  30.931  12.560
68378W        W40693   9.954  32.087   2.250
68379W        W40694  37.734  19.351   1.242
68380W        W40695  34.040  35.905   2.061
68381W        W40696  14.017  18.076  10.637
68382W        W40697   9.730  13.566   3.419
68383W        W40698  15.384  34.849   4.145
68384W        W40699  43.713  16.689  12.851
68385W        W40700  17.373  24.269   0.850
68386W        W40701  13.520  37.786   3.377
68387W        W40702  26.198  37.410   2.906
68388W        W40703  14.328  14.576  14.370
68389W        W40704  35.578  30.176  13.925
68390W        W40705  41.490  40.932   0.716
68391W        W40706   3.945  37.647   0.024
68392W        W40707  41.048  24.137  13.757
68393W        W40708  12.264  15.802  12.153
68394W        W40709  27.400  21.623  11.932
68395W        W40710  17.604  41.813  11.601
68396W        W40711  27.049   1.548  14.367
68397W        W40712  32.013  31.517   2.813
68398W        W40713   0.770  24.228   1.989
68399W        W40714   3.385  37.350   0.689
68400W        W40715  15.674  37.628   4.536
68401W        W40716  28.379   3.171   4.039
68402W        W40717  38.904  19.650  11.488
68403W        W40718  40.957   4.351   0.831
68404W        W40719  42.397  15.784  14.769
68405W        W40720  29.391  11.079  14.859
68406W        W40721  34.398  32.916   0.269
68407W        W40722  36.588  29.983  13.811
68408W        W40723  10.564  29.579   4.493
68409W        W40724   0.880  23.683  13.942
68410W        W40725   2.726   2.705   2.672
68411W        W40726   6.805  40.853   4.039
68412W        W40727  26.624  43.188   2.799
68413W        W40728  15.238   2.372   4.473
68414W        W40729  23.223  25.618  10.683
68415W        W40730  37.377   2.104   4.584
68416W        W40731  10.617  34.776  11.072
68417W        W40732  26.233  28.541  13.805
68418W        W40733  14.755  13.535   2.357
68419W        W40734  31.907  15.604   4.154
68420W        W40735   6.289  21.983   0.962
68421W        W40736   0.872   0.819   1.957
68422W        W40737  11.060  28.245  12.766
68423W        W40738  25.681  41.359   3.132
68424W        W40739  26.140  37.903  12.540
68425W        W40740  11.305  10.871  11.509
68426W        W40741  43.685  39.988  14.956
68427W        W40742   0.896  14.883   3.423
68428W        W40743   4.871   2.317   2.582
68429W        W40744  12.297  36.038   3.617
68430W        W40745   0.474   8.447  14.553
68431W        W40746  40.967  29.549   3.221
68432W        W40747   7.851   7.807   3.862
68433W        W40748   6.295   0.959   4.304
68434W        W40749  28.910  35.873   2.812
68435W        W40750  36.388   2.925  11.143
68436W        W40751   1.697  20.470   1.485
68437W        W40752   0.040  21.052  14.201
68438W        W40753  10.132   3.034  13.968
68439W        W40754  42.438  10.402  13.507
68440W        W40755   8.418  19.592  13.388
68441W        W40756  44.747  30.927   2.763
68442W        W40757  24.475  21.845  13.021
68443W        W40758  19.489  26.042   3.117
68444W        W40759  22.671  35.164   1.368
68445W        W40760   8.588  31.480  10.767
68446W        W40761  40.278   9.108   1.658
68447W        W40762  37.009  44.339   1.279
68448W        W40763   6.224  23.598   0.995
68449W        W40764  34.144  10.691  13.499
68450W        W40765  24.682  38.346  14.476
68451W        W40766  38.927  41.533  14.446
68452W        W40767  13.026  41.803  10.649
68453W        W40768  32.286  23.162   2.684
68454W        W40769  39.989  36.038   0.791
68455W        W40770  33.927  16.915  13.993
68456W        W40771   8.758   2.110   2.692
68457W        W40772  31.555  41.296   0.866
68458W        W40773  44.409  24.442   3.598
68459W        W40774  11.155  18.385  11.967
68460W        W40775  37.810  23.802   1.191
68461W        W40776  17.843  22.150  11.135
68462W        W40777   1.795   2.064  14.689
68463W        W40778  32.638   0.987   1.439
68464W        W40779  34.100  10.682  12.588
68465W        W40780  40.491  22.777  12.012
68466W        W40781  33.180  10.453  10.627
68467W        W40782  29.583  12.482  13.804
68468W        W40783  14.106  44.040  10.525
68469W        W40784  31.494   4.160  13.023
68470W        W40785  27.147  30.952   0.400
68471W        W40786  39.688  27.690  11.628
68472W        W40787  29.209  10.374  14.461
68473W        W40788  40.171   7.520  11.901
68474W        W40789  42.612   7.110   0.441
68475W        W40790  28.061  18.545  14.759
68476W        W40791   5.451  30.197   2.828
68477W        W40792  37.155  37.422  14.750
68478W        W40793  18.103  21.267   0.787
68479W        W40794  27.905  41.260  13.414
68480W        W40795  16.213  23.730  14.955
68481W        W40796  41.489  39.025  12.030
68482W        W40797   2.125   8.313  14.390
68483W        W40798  26.795   3.789  10.612
68484W        W40799  36.030   2.511   4.135
68485W        W40800   7.467  14.155   4.692
68486W        W40801  13.229  25.439   0.222
68487W        W40802  25.796  27.624  13.537
68488W        W40803  27.555  43.868  14.916
68489W        W40804  10.402  40.322   3.247
68490W        W40805  27.772   8.753   4.615
68491W        W40806  37.113   8.767   2.832
68492W        W40807  36.288  24.001   0.301
68493W        W40808  34.826  18.880  12.120
68494W        W40809  29.964   1.430  14.074
68495W        W40810   7.149   3.651  13.395
68496W        W40811  36.898  28.985   1.422
68497W        W40812  21.178  15.202   0.278
68498W        W40813  34.611  43.906  12.325
68499W        W40814  43.476  20.439  10.954
68500W        W40815   8.826  40.914   2.328
68501W        W40816  37.585  36.004  11.137
68502W        W40817   1.838  25.614   0.269
68503W        W40818  31.871  24.521   2.807
68504W        W40819   6.855  11.699  11.193
68505W        W40820  37.536  41.097   3.604
68506W        W40821  30.542   6.459   1.790
68507W        W40822  28.865   1.976  11.182
68508W        W40823  11.657  30.128   0.460
68509W        W40824  10.889  28.926  10.554
68510W        W40825   3.196  37.563   2.208
68511W        W40826  36.399  43.244  13.406
68512W        W40827  29.989   2.877   4.221
68513W        W40828   6.565   1.762  13.360
68514W        W40829   5.323  40.084   2.043
68515W        W40830   4.429  34.964   4.009
68516W        W40831  33.069  44.902  12.571
68517W        W40832  40.427   7.922  13.528
68518W        W40833   5.892  15.421   1.408
68519W        W40834  29.167  21.256  14.707
68520W        W40835   6.243  11.208  13.448
68521W        W40836  40.345   2.130  12.790
68522W        W40837  32.642  32.620  11.699
68523W        W40838  17.598  16.133   4.648
68524W        W40839  15.063  39.100   1.613
68525W        W40840  24.713  38.820   1.857
68526W        W40841  18.206  41.050   3.202
68527W        W40842  19.529  32.550   4.234
68528W        W40843   2.428  37.443   0.261
68529W        W40844  29.926   6.822   4.379
68530W        W40845   8.657  36.437  12.683
68531W        W40846  30.623  21.585   2.359
68532W        W40847  33.101  12.500  12.064
68533W        W40848  17.801  13.692  12.545
68534W        W40849  37.335   1.739  12.076
68535W        W40850   7.137  28.767  13.660
68536W        W40851  35.580  22.186  12.057
68537W        W40852  36.663  39.880  11.669
68538W        W40853  29.775  10.586   2.662
68539W        W40854   4.130  10.753   1.179
68540W        W40855  30.398  41.030   3.905
68541W        W40856  34.859   0.706  14.249
68542W        W40857   6.930  41.336  13.249
68543W        W40858  40.610   8.309   2.214
68544W        W40859  23.398  43.253   1.810
68545W        W40860  35.139  33.215   1.230
68546W        W40861  21.619  28.064   3.262
68547W        W40862  26.520  16.377   0.950
68548W        W40863   9.937  23.207  14.875
68549W        W40864  16.572  37.063  10.699
68550W        W40865  41.473   4.171  13.430
68551W        W40866  17.350   1.901  10.733
68552W        W40867   6.203  33.375   0.796
68553W        W40868  36.450  16.164   0.302
68554W        W40869   3.326  28.176  10.530
68555W        W40870  18.668   4.498  12.000
68556W        W40871   0.516  20.653   0.516
68557W        W40872  37.318   3.078   2.769
68558W        W40873   5.200  32.569   2.356
68559W        W40874  16.795  36.712  12.954
68560W        W40875  15.635  22.944   2.819
68561W        W40876   0.280  25.420  11.562
68562W        W40877  14.632  32.506   1.966
68563W        W40878  10.389  29.648  13.564
68564W        W40879  26.250  14.033   4.249
68565W        W40880  42.044   9.158  14.936
68566W        W40881  33.243  38.815   3.404
68567W        W40882  13.904  25.734  11.041
68568W        W40883   0.061  14.344  11.958
68569W        W40884  24.481  40.667  11.173
68570W        W40885  39.502  22.976  12.596
68571W        W40886   9.266  33.819   4.599
68572W        W40887  30.170  12.601   4.542
68573W        W40888  41.890  14.740  14.290
68574W        W40889  30.742   8.119  12.538
68575W        W40890  10.826  19.166   5.496
68576W        W40891  15.220  29.024  11.819
68577W        W40892  25.483  26.240   4.722
68578W        W40893  21.452   0.342  11.035
68579W        W40894  13.874  38.514   1.386
68580W        W40895  21.472  24.434   1.503
68581W        W40896  33.202  13.059  12.094
68582W        W40897   7.473  43.493  13.793
68583W        W40898  15.217   1.455  11.247
68584W        W40899  17.865  26.629   1.418
68585W        W40900  28.454   0.009   3.355
68586W        W40901  15.760  44.497  11.454
68587W        W40902  17.451  25.509  14.494
68588W        W40903  22.704  35.154   0.446
68589W        W40904   4.816  28.911   4.898
68590W        W40905  29.877  43.758  11.127
68591W        W40906   1.307   0.854   1.314
68592W        W40907  14.087  33.003  10.767
68593W        W40908  29.626  12.837  14.231
68594W        W40909  28.608   8.726  10.013
68595W        W40910  22.277   1.776  14.405
68596W        W40911  39.858  30.478   5.203
68597W        W40912  39.111  42.507   1.890
68598W        W40913  34.521  21.013  10.926
68599W        W40914   5.788  24.176  14.476
68600W        W40915  24.958  42.420   0.781
68601W        W40916  35.823   8.661  12.533
68602W        W40917  42.832  39.547  10.719
68603W        W40918  44.921  12.909  12.577
68604W        W40919  30.642  43.431   2.424
68605W        W40920  17.861  25.527   2.202
68606W        W40921  40.164  44.492   0.488
68607W        W40922  24.209  44.582  10.964
68608W        W40923  33.658  14.384   2.356
68609W        W40924   8.324  40.533   3.820
68610W        W40925  13.644  40.865   4.221
68611W        W40926  18.358   9.278  14.350
68612W        W40927   4.223  12.781  11.396
68613W        W40928  27.918  25.579  14.417
68614W        W40929   7.696   0.517  11.597
68615W        W40930  34.855  41.763   1.188
68616W        W40931  30.901  37.230  12.766
68617W        W40932   8.790  12.406   2.836
68618W        W40933  34.273  16.738  11.003
68619W        W40934  39.422  33.658  12.513
68620W        W40935  30.095  38.894  11.670
68621W        W40936   5.941   6.426   2.256
68622W        W40937  24.941   5.272   1.839
68623W        W40938  34.457  27.591   4.679
68624W        W40939  34.351  16.440   2.211
68625W        W40940   2.364  30.214   1.215
68626W        W40941  32.576  29.186  13.352
68627W        W40942  13.718  16.817  13.856
68628W        W40943   7.717   7.263  12.976
68629W        W40944   5.263   6.796   2.363
68630W        W40945   5.004  24.366   5.127
68631W        W40946   8.402  19.320   0.846
68632W        W40947  42.909   8.874  10.374
68633W        W40948  29.756  43.025  10.713
68634W        W40949  43.101  12.792  11.653
68635W        W40950  44.939  16.989   2.226
68636W        W40951  43.456  32.024   2.568
68637W        W40952  37.952  16.630  12.949
68638W        W40953  27.209  25.484   0.322
68639W        W40954  43.857  16.089   0.403
68640W        W40955  42.544  19.825   0.528
68641W        W40956  23.032   2.650   1.774
68642W        W40957  25.230  30.550   4.597
68643W        W40958   9.002  29.528  12.830
68644W        W40959  17.535   1.793  12.897
68645W        W40960   9.018  35.079  12.471
68646W        W40961  34.630  39.096  10.406
68647W        W40962   4.440  29.948  13.861
68648W        W40963  14.758  10.361   4.942
68649W        W40964  34.369  12.148   1.246
68650W        W40965   0.372  23.777  14.037
68651W        W40966   1.991  40.410  12.922
68652W        W40967  40.066  33.643   2.293
68653W        W40968  19.641  30.651   4.522
68654W        W40969  11.640   6.702   4.609
68655W        W40970  35.776  15.177   4.101
68656W        W40971   9.830  44.967   4.798
68657W        W40972   4.370  35.987  12.666
68658W        W40973  23.362  23.577  13.824
68659W        W40974   8.424  43.246   3.258
68660W        W40975  39.507  43.199  11.621
68661W        W40976   7.285  13.802   2.285
68662W        W40977  22.667  22.769  13.277
68663W        W40978   2.912  18.538   3.560
68664W        W40979  25.643   2.686  13.879
68665W        W40980  38.535  13.331  12.172
68666W        W40981   5.242  27.182  11.832
68667W        W40982  31.386  40.276  11.393
68668W        W40983  25.601  36.321   3.696
68669W        W40984  29.999  34.902   4.357
68670W        W40985  33.570  38.314   9.938
68671W        W40986  32.640  18.285  14.454
68672W        W40987  30.566  24.446  13.664
68673W        W40988   0.854   4.018   2.758
68674W        W40989  15.708  19.057   3.553
68675W        W40990  31.881  40.295  11.555
68676W        W40991  43.709   7.802  14.332
68677W        W40992  22.506  42.371  12.898
68678W        W40993  28.678  18.903   1.148
68679W        W40994  41.503  37.286   2.821
68680W        W40995  11.673  27.580   2.834
68681W        W40996  14.616  12.911  14.699
68682W        W40997  24.613  31.932  12.844
68683W        W40998  11.977  17.567   9.771
68684W        W40999   3.775  27.111   4.057
68685W        W41000  13.684  40.209  13.509
68686W        W41001  10.706  21.266   0.829
68687W        W41002   7.742  21.600  12.651
68688W        W41003  34.454  11.251   4.585
68689W        W41004  12.701  17.797  12.845
68690W        W41005   0.903  12.457   5.368
68691W        W41006   8.214  40.208  11.068
68692W        W41007  18.084  30.039  14.821
68693W        W41008  27.916  27.605  12.932
68694W        W41009  14.139  39.161   4.986
68695W        W41010  31.712  13.312   4.188
68696W        W41011   6.869  29.103   0.846
68697W        W41012  34.533  40.611  14.760
68698W        W41013  24.112  14.801  13.288
68699W        W41014  25.693  18.869   2.722
68700W        W41015  32.589  41.100   4.396
68701W        W41016  42.818   2.516   4.570
68702W        W41017  14.359  25.523  11.045
68703W        W41018  37.020  39.360   2.371
68704W        W41019  43.917  12.228  13.955
68705W        W41020  28.023  37.974   1.285
68706W        W41021  43.887   6.491  10.676
68707W        W41022  28.960  39.465   1.052
68708W        W41023  22.049  43.250   1.981
68709W        W41024   5.135  44.321  12.988
68710W        W41025   8.159   8.766  12.961
68711W        W41026  22.495  40.807   2.731
68712W        W41027   2.925  25.441  13.449
68713W        W41028  20.097  37.379  14.952
68714W        W41029  18.204  40.835  10.173
68715W        W41030  14.334  39.600   0.443
68716W        W41031  23.142  11.153   2.768
68717W        W41032  11.520   9.398  10.695
68718W        W41033  22.329  16.679  10.624
68719W        W41034  43.202  38.595  13.456
68720W        W41035  10.400  38.043  14.934
68721W        W41036  42.874   2.485  13.065
68722W        W41037  22.552   6.917  13.954
68723W        W41038  37.108  33.944  11.778
68724W        W41039   9.563  39.867  11.300
68725W        W41040  21.462  38.898  13.460
68726W        W41041   0.969  41.600   0.519
68727W        W41042  30.419  36.493   0.783
68728W        W41043  11.455  21.205  11.681
68729W        W41044  39.462   6.621   4.775
68730W        W41045  15.214  30.746   2.334
68731W        W41046  41.748   0.678   0.664
68732W        W41047  39.521   1.296   0.677
68733W        W41048  27.994  43.883  12.027
68734W        W41049  22.750   4.497  10.817
68735W        W41050  10.406  30.613  14.576
68736W        W41051  37.623   3.919   2.777
68737W        W41052   7.947   6.112  13.905
68738W        W41053  21.858   5.391   2.401
68739W        W41054  44.738  40.560   1.744
68740W        W41055   2.354  19.354   0.084
68741W        W41056  33.417  30.952  14.362
68742W        W41057  20.564  18.288  14.971
68743W        W41058  10.210   6.233  10.661
68744W        W41059  35.323  40.463  12.349
68745W        W41060  25.765  31.638  11.039
68746W        W41061  15.244  35.918   4.247
68747W        W41062  25.758  21.528  10.576
68748W        W41063   1.381  36.649  12.476
68749W        W41064  38.294  39.147  13.905
68750W        W41065  19.192   1.083  10.546
68751W        W41066  38.148   1.435   3.272
68752W        W41067  18.529  15.641   0.837
68753W        W41068  23.718  20.196  12.367
68754W        W41069  24.493   1.061   3.553
68755W        W41070  10.734  23.312   2.796
68756W        W41071  19.557  20.211  11.000
68757W        W41072  16.682  30.888   3.986
68758W        W41073  20.488  39.048   0.765
68759W        W41074  22.338  36.108  11.295
68760W        W41075   4.256  39.405   0.070
68761W        W41076   2.390   6.165   0.391
68762W        W41077  44.789  31.548  12.521
68763W        W41078  12.250  41.364  12.796
68764W        W41079  11.403  17.863  14.975
68765W        W41080  19.285   6.014  12.714
68766W        W41081  44.788  22.074  13.695
68767W        W41082  24.863  28.813  12.789
68768W        W41083  15.819   1.859  10.712
68769W        W41084  28.755   3.405  14.518
68770W        W41085   1.656  28.857  14.426
68771W        W41086   3.407  22.620   4.454
68772W        W41087   6.017  36.017  10.811
68773W        W41088  44.329  24.773  12.798
68774W        W41089  32.845  10.137   1.138
68775W        W41090  44.414  24.184   4.032
68776W        W41091  36.477  28.358  14.449
68777W        W41092  33.611  23.083  13.363
68778W        W41093   8.257  26.577   3.302
68779W        W41094   2.785  27.431   3.841
68780W        W41095  10.267  21.063   2.817
68781W        W41096  14.815   9.567  13.604
68782W        W41097  13.651  40.945  13.057
68783W        W41098  35.447   2.184   3.299
68784W        W41099  37.953  19.370  10.993
68785W        W41100  37.110  35.366   4.587
68786W        W41101  29.948  40.467   4.649
68787W        W41102  16.531  42.991   2.541
68788W        W41103  25.671  38.140  11.827
68789W        W41104  34.551  18.246  11.063
68790W        W41105   9.377  13.594  12.915
68791W        W41106   3.065  11.306  11.206
68792W        W41107  22.839  27.015  11.145
68793W        W41108  28.151  11.533  11.579
68794W        W41109  23.555  34.984  12.142
68795W        W41110   5.656  21.007   3.296
68796W        W41111  39.594  25.103  14.750
68797W        W41112   6.356  14.203  12.927
68798W        W41113  41.147  41.303   0.506
68799W        W41114  24.224  28.528   1.896
68800W        W41115   9.119   4.869  13.363
68801W        W41116  41.792  26.567   2.857
68802W        W41117  14.920  22.188   3.288
68803W        W41118  34.938  43.800   3.551
68804W        W41119  19.640  19.107   1.413
68805W        W41120   5.594  37.555   1.746
68806W        W41121  37.106  43.552   1.694
68807W        W41122  14.649  39.030   4.865
68808W        W41123  40.404  16.141  14.762
68809W        W41124   9.632  39.463   0.486
68810W        W41125  31.185  34.188  11.046
68811W        W41126   0.070   4.441  12.899
68812W        W41127   5.713  20.200   2.604
68813W        W41128  44.966  34.414  13.230
68814W        W41129  28.205   2.181  14.274
68815W        W41130  24.059   6.710   3.905
68816W        W41131  16.169  22.545  11.935
68817W        W41132  37.035  42.957   3.809
68818W        W41133  36.269  12.266   3.588
68819W        W41134   2.742  32.354   2.016
68820W        W41135  39.516  35.460  11.646
68821W        W41136  16.380   5.949  11.335
68822W        W41137  40.085   6.306   2.361
68823W        W41138  38.606  28.135  13.435
68824W        W41139   4.439  25.129  10.662
68825W        W41140  21.526  13.525   1.500
68826W        W41141   3.284  37.535   5.293
68827W        W41142  41.553  15.765   0.497
68828W        W41143   4.841   9.749   4.154
68829W        W41144   2.366  30.220   4.242
68830W        W41145   9.728  31.202   1.620
68831W        W41146  41.061  40.906   3.688
68832W        W41147  29.435  33.669  11.138
68833W        W41148   9.734  11.732   4.185
68834W        W41149  31.169  42.740   2.229
68835W        W41150  35.156  36.423   2.599
68836W        W41151  19.129  22.032   3.201
68837W        W41152  28.760   5.201   0.842
68838W        W41153  17.193  20.661  11.110
68839W        W41154  43.829  15.092   2.316
68840W        W41155   1.203  27.461   0.931
68841W        W41156   2.246   6.336  11.567
68842W        W41157  20.917   7.205  11.681
68843W        W41158  31.306   2.895   3.807
68844W        W41159  29.606  27.471  13.377
68845W        W41160  29.043  42.582   1.991
68846W        W41161  19.023  38.350   3.645
68847W        W41162   7.503  22.977  14.252
68848W        W41163  36.921  19.810   1.215
68849W        W41164   5.037   4.277  10.357
68850W        W41165  17.365  22.033  13.957
68851W        W41166  34.857  23.160  11.383
68852W        W41167   7.438  32.025   2.408
68853W        W41168  44.549  37.275   0.557
68854W        W41169  12.626  33.678   0.998
68855W        W41170  42.308   3.604  11.897
68856W        W41171   1.208  23.075   0.251
68857W        W41172  35.638  25.210   2.690
68858W        W41173  21.222  11.806  11.469
68859W        W41174  26.517   4.187   0.482
68860W        W41175  15.336  41.916   3.305
68861W        W41176  24.174  26.475  14.355
68862W        W41177  25.718  44.439   4.608
68863W        W41178  41.008  31.516  12.192
68864W        W41179  39.202  13.421   3.372
68865W        W41180  41.464  18.518   2.642
68866W        W41181  15.367  26.063  11.944
68867W        W41182  24.124  34.476  10.758
68868W        W41183  33.809  22.299  14.846
68869W        W41184   1.536   0.803  14.874
68870W        W41185   5.165  40.847  12.046
68871W        W41186   1.820   7.811  12.065
68872W        W41187   1.395  14.500  14.407
68873W        W41188  17.880  25.016  14.899
68874W        W41189   4.869  43.329  11.170
68875W        W41190  31.535  37.921  14.406
68876W        W41191  15.061  14.397  12.015
68877W        W41192  10.613  44.839  11.506
68878W        W41193  33.321  15.111  13.420
68879W        W41194   5.940  32.673   1.803
68880W        W41195  23.183   7.888  11.669
68881W        W41196  18.531  10.505  12.865
68882W        W41197  23.075   0.438  12.552
68883W        W41198  42.832  34.522  10.516
68884W        W41199  19.437  22.170  11.577
68885W        W41200  21.810  27.957  11.903
68886W        W41201   3.835   9.149  14.459
68887W        W41202  41.291  27.234   2.633
68888W        W41203   2.251  40.889  14.469
68889W        W41204  13.714  32.150  12.617
68890W        W41205  23.383  14.897  11.019
68891W        W41206  30.842  37.259  14.735
68892W        W41207  11.687  12.265  11.060
68893W        W41208  17.751  14.605   2.109
68894W        W41209  13.152  22.768  14.349
68895W        W41210  10.088   4.498  11.066
68896W        W41211  44.935  26.538  14.442
68897W        W41212  12.314  18.768   5.511
68898W        W41213  25.016   9.647   3.132
68899W        W41214  28.546  25.048   0.430
68900W        W41215  38.911   2.756   3.420
68901W        W41216   9.183  25.075  10.717
68902W        W41217  29.970  39.293   2.324
68903W        W41218  37.402  27.765   3.358
68904W        W41219  11.225  21.805   1.726
68905W        W41220  44.714  18.061   4.238
68906W        W41221  38.620  24.938   1.700
68907W        W41222  20.901   8.367  11.453
68908W        W41223  22.980  34.510   2.614
68909W        W41224  11.834  40.720   4.041
68910W        W41225  39.391  10.255  13.378
68911W        W41226  20.265   1.897  13.118
68912W        W41227   9.278   1.047  10.645
68913W        W41228  12.286  12.784   3.965
68914W        W41229  30.390   0.504  11.154
68915W        W41230  38.729   8.417  13.803
68916W        W41231  38.544  15.091   3.166
68917W        W41232   6.145  20.964   3.159
68918W        W41233  42.084  31.940   0.904
68919W        W41234  23.069   8.345  12.434
68920W        W41235  16.464  33.147  12.478
68921W        W41236  11.200   4.015   3.165
68922W        W41237  41.270  34.101  12.465
68923W        W41238  26.219   8.875  14.132
68924W        W41239  42.801  35.841   4.431
68925W        W41240  35.203  15.132  11.476
68926W        W41241  41.886  27.564   2.654
68927W        W41242  20.689  23.240   1.339
68928W        W41243  34.112  24.145   0.703
68929W        W41244   5.408  42.083  11.614
68930W        W41245  19.022  17.218  12.549
68931W        W41246  13.640  28.378   1.503
68932W        W41247  44.788  20.727   1.021
68933W        W41248  36.293  30.435  13.835
68934W        W41249   0.738  44.827  12.903
68935W        W41250  11.942   8.172  11.025
68936W        W41251  32.496  40.844  11.255
68937W        W41252  42.168  43.272  12.923
68938W        W41253  27.013  27.701  11.493
68939W        W41254  21.197  33.301   2.984
68940W        W41255   2.454  10.547   0.862
68941W        W41256  13.235  11.285   3.333
68942W        W41257  34.431  43.288  10.929
68943W        W41258  25.270  31.171  11.993
68944W        W41259   9.942   9.206  12.224
68945W        W41260  35.032   9.134   4.735
68946W        W41261  14.383  26.048  12.145
68947W        W41262  28.612  37.790  14.905
68948W        W41263  34.399  37.023  14.059
68949W        W41264  11.253   4.762   4.658
68950W        W41265  14.708  34.107  12.061
68951W        W41266   1.959  14.177   0.673
68952W        W41267  35.397  25.169   4.624
68953W        W41268   6.304  15.667  10.772
68954W        W41269  40.581   2.101   1.711
68955W        W41270  44.406  10.900   0.765
68956W        W41271   5.927  33.940   2.331
68957W        W41272  39.835  30.235  10.532
68958W        W41273  20.328  12.787   0.256
68959W        W41274  35.308   2.992   3.623
68960W        W41275  29.090  10.583  11.588
68961W        W41276  14.625   1.735   3.134
68962W        W41277  30.474  22.116  10.278
68963W        W41278   6.947   3.981  14.430
68964W        W41279   7.270   2.816  10.437
68965W        W41280  30.938  37.456   4.378
68966W        W41281  27.509  39.493  11.997
68967W        W41282  43.513  13.996   2.924
68968W        W41283  23.511  24.239   0.128
68969W        W41284  38.769  26.955  14.542
68970W        W41285  35.062  15.129   0.487
68971W        W41286  43.408  40.276  11.578
68972W        W41287  30.043  33.371   3.429
68973W        W41288  35.237  39.355   2.864
68974W        W41289  20.320  44.919  12.942
68975W        W41290   3.949  44.798   2.520
68976W        W41291  39.782   6.841  12.836
68977W        W41292  39.256  13.843  14.323
68978W        W41293   1.493  35.878   1.327
68979W        W41294   9.339   6.907   4.336
68980W        W41295  11.608  32.550  12.410
68981W        W41296  39.475  28.047  12.459
68982W        W41297  31.852  37.659   4.530
68983W        W41298  19.752  34.843   1.297
68984W        W41299  31.757  31.666  14.069
68985W        W41300  15.544  35.822   3.816
68986W        W41301  39.975   4.392   2.016
68987W        W41302   2.784  32.163  14.015
68988W        W41303  41.870  22.544  10.987
68989W        W41304   0.933  30.444  12.043
68990W        W41305  38.879  28.957  12.473
68991W        W41306  44.544  40.019  13.771
68992W        W41307  22.764  31.871   1.372
68993W        W41308  11.369  25.498  14.883
68994W        W41309  20.101  22.495  11.031
68995W        W41310  36.332  12.399  13.098
68996W        W41311   4.466  26.866   0.746
68997W        W41312  42.267  21.229   1.981
68998W        W41313  43.592  32.216  10.189
68999W        W41314  34.624  24.617   2.111
69000W        W41315  20.680   6.463  12.451
69001W        W41316  19.184   8.931   3.690
69002W        W41317   0.294  21.997   3.133
69003W        W41318   2.742  32.103  11.143
69004W        W41319   2.136  25.514  12.422
69005W        W41320  29.162  39.340   4.227
69006W        W41321  18.419   5.756   4.124
69007W        W41322  43.846  24.966  11.554
69008W        W41323   9.558  37.997  12.465
69009W        W41324  41.592  27.449  11.212
69010W        W41325  20.283  20.425  13.190
69011W        W41326   4.816  23.783   3.985
69012W        W41327  14.822  41.989   3.273
69013W        W41328   5.443  27.584   4.608
69014W        W41329  34.850   5.183  11.414
69015W        W41330  24.788  38.598  12.279
69016W        W41331  32.883   3.021  12.970
69017W        W41332  15.633  38.171  11.230
69018W        W41333  42.747  36.871   2.305
69019W        W41334  33.512   7.240   4.569
69020W        W41335  26.624  17.309   0.945
69021W        W41336  38.585  11.762  11.005
69022W        W41337  40.316  42.074  11.971
69023W        W41338  40.838  17.584   4.560
69024W        W41339  30.999  29.427  12.373
69025W        W41340  18.553   6.377   0.785
69026W        W41341  16.199  19.647   1.297
69027W        W41342  29.980  18.996   2.821
69028W        W41343  38.679  40.066  13.434
69029W        W41344  42.331  37.872  10.669
69030W        W41345   7.211  25.543   3.831
69031W        W41346  34.816   5.419  11.868
69032W        W41347  22.156  40.446   2.554
69033W        W41348   8.804  41.884   0.977
69034W        W41349   7.795  17.266   3.254
69035W        W41350  15.959  15.975   3.621
69036W        W41351   0.452   3.570   0.903
69037W        W41352  13.238  19.052   0.238
69038W        W41353  17.271  14.455  10.395
69039W        W41354  14.064  32.680  14.815
69040W        W41355  29.089  12.400   3.647
69041W        W41356  18.296  33.481  13.371
69042W        W41357  10.230  38.760  14.441
69043W        W41358  25.163  11.368   2.374
69044W        W41359  16.790  40.556  13.469
69045W        W41360  16.138  32.118   1.702
69046W        W41361  23.798  28.997   2.742
69047W        W41362  23.807  13.260  14.419
69048W        W41363  42.872  24.151  12.063
69049W        W41364   6.229  16.931  14.727
69050W        W41365  14.232   2.926  14.774
69051W        W41366  34.873  10.075  12.884
69052W        W41367  14.877  26.003   4.460
69053W        W41368  41.272   1.366  14.062
69054W        W41369  19.559  41.415  14.988
69055W        W41370  17.957  39.556   2.255
69056W        W41371  13.544  32.678  13.442
69057W        W41372  20.683  19.616   2.200
69058W        W41373   6.839   5.259   0.975
69059W        W41374  16.786  36.603  14.839
69060W        W41375  14.843   6.954  14.358
69061W        W41376  12.666  43.198  13.433
69062W        W41377  15.946  25.249  13.312
69063W        W41378   7.821  24.117   0.345
69064W        W41379  12.688  19.003  11.135
69065W        W41380   4.314  23.503  12.881
69066W        W41381  33.018  10.860  13.933
69067W        W41382   2.154  35.058   5.350
69068W        W41383  32.157   4.661  12.011
69069W        W41384  11.314   1.740  11.890
69070W        W41385  11.345  21.627   1.261
69071W        W41386   0.990   1.804   0.246
69072W        W41387  13.677  17.588   4.059
69073W        W41388   1.004  35.089   2.398
69074W        W41389  32.357  42.908  12.636
69075W        W41390  23.674  23.669   2.923
69076W        W41391   3.900  27.556   3.390
69077W        W41392  40.027  29.764   3.724
69078W        W41393  37.309  22.389   3.930
69079W        W41394  35.330  14.745  10.712
69080W        W41395  34.945  41.351  13.054
69081W        W41396  15.283  13.985  11.072
69082W        W41397  13.709  14.805  11.715
69083W        W41398  14.698   7.333  14.674
69084W        W41399  21.714  19.931   4.254
69085W        W41400   1.826   7.107   4.120
69086W        W41401  42.072  24.174  11.645
69087W        W41402  10.224  43.025   3.321
69088W        W41403  28.833   7.765  12.843
69089W        W41404  39.483  23.432   1.877
69090W        W41405  18.538  32.337  14.555
69091W        W41406  31.363  41.788   0.801
69092W        W41407  41.550   1.937   2.153
69093W        W41408  28.242   8.568  13.748
69094W        W41409  28.293  16.315   4.520
69095W        W41410  10.799  41.909  13.768
69096W        W41411   0.104  40.865   2.702
69097W        W41412  27.967   2.938   0.211
69098W        W41413  41.671  26.250   5.126
69099W        W41414  17.174  23.881  10.460
69100W        W41415  14.090   0.561   3.460
69101W        W41416  16.206  17.743  13.926
69102W        W41417  12.339  20.147   2.330
69103W        W41418  41.919  40.852   3.096
69104W        W41419   9.855  15.168  11.941
69105W        W41420  13.842  15.617  11.552
69106W        W41421  18.223  17.582   1.052
69107W        W41422  32.413  37.037   0.456
69108W        W41423   2.486  26.265   2.088
69109W        W41424  20.007  34.169  13.001
69110W        W41425  42.326  34.187  11.171
69111W        W41426  34.229  30.935  11.556
69112W        W41427  22.973  27.575   4.170
69113W        W41428  18.342  34.511  11.531
69114W        W41429  21.055   6.890  14.304
69115W        W41430  12.802  19.177   4.727
69116W        W41431  44.932   8.073   2.733
69117W        W41432  42.500   1.118   3.630
69118W        W41433  10.111  17.333   1.610
69119W        W41434  38.921  37.483  12.636
69120W        W41435  15.099  19.791  14.511
69121W        W41436  28.063   5.737   2.312
69122W        W41437   8.219  23.999   0.009
69123W        W41438  37.709   6.339  13.072
69124W        W41439  10.761   1.510   2.200
69125W        W41440  42.956  16.142   0.469
69126W        W41441  34.949  16.001   4.084
69127W        W41442  11.730  39.382   3.146
69128W        W41443  10.186  18.511   1.162
69129W        W41444  28.311  30.141   1.386
69130W        W41445   6.700  29.446   4.352
69131W        W41446  35.389  36.851  14.966
69132W        W41447  17.554  44.836   4.364
69133W        W41448   3.967  28.670   1.822
69134W        W41449  19.509  34.664   4.654
69135W        W41450  34.515   3.470   3.109
69136W        W41451  16.661  43.541  14.390
69137W        W41452  22.479  11.581   4.498
69138W        W41453  11.833  34.432   1.878
69139W        W41454   1.717  11.321   2.571
69140W        W41455  36.033  18.206  11.559
69141W        W41456   6.200  15.929  14.833
69142W        W41457   8.273  36.183  13.740
69143W        W41458   0.750  19.631  11.934
69144W        W41459  34.604  22.219  11.860
69145W        W41460   5.473   5.254  11.422
69146W        W41461  30.441  35.743   3.845
69147W        W41462  36.233  21.173  12.423
69148W        W41463  41.563  29.611   3.093
69149W        W41464  26.642  40.612   3.134
69150W        W41465  40.767   6.752   2.803
69151W        W41466  20.663  18.028   1.293
69152W        W41467  39.251  23.204  10.602
69153W        W41468  11.560  22.508  12.157
69154W        W41469  34.211  35.565  12.115
69155W        W41470   7.428  28.697   4.842
69156W        W41471   3.279  17.632   1.735
69157W        W41472   7.729  16.295  13.834
69158W        W41473  38.863  21.664   2.193
69159W        W41474   6.484  18.127   1.639
69160W        W41475  23.145  16.066  10.969
69161W        W41476  16.463  15.800   3.496
69162W        W41477  33.372  31.205  11.580
69163W        W41478  43.855  23.855   0.701
69164W        W41479  17.683  15.758   1.296
69165W        W41480  31.233  39.337  10.722
69166W        W41481  18.363  40.568  14.486
69167W        W41482   5.144  35.811  14.824
69168W        W41483  19.149   6.087  10.882
69169W        W41484   9.602  30.373  14.963
69170W        W41485  14.323  30.658  14.824
69171W        W41486   0.165  31.704   1.412
69172W        W41487  38.066  34.616  10.599
69173W        W41488   6.476  32.484  10.760
69174W        W41489  17.724  20.635  10.886
69175W        W41490   2.063   1.065  13.882
69176W        W41491  42.843   3.864  14.082
69177W        W41492  19.502   6.515   0.852
69178W        W41493   5.268  16.374   3.216
69179W        W41494   0.054   8.748  12.902
69180W        W41495   6.736  26.585   0.676
69181W        W41496  27.463  32.073  10.657
69182W        W41497  33.706   3.008  11.962
69183W        W41498  23.520  20.337   4.745
69184W        W41499  36.063  34.846  11.988
69185W        W41500  13.863  38.104   3.656
69186W        W41501  10.308  16.481  12.500
69187W        W41502  31.169   6.361  13.499
69188W        W41503  34.170   3.822  10.707
69189W        W41504  34.894   9.951  13.376
69190W        W41505  28.898  20.156   1.343
69191W        W41506  11.658   1.344   2.300
69192W        W41507  40.424  26.999   0.145
69193W        W41508  37.106  16.129  11.669
69194W        W41509   0.986   7.416   3.590
69195W        W41510  27.870  41.750   1.413
69196W        W41511  23.331  34.908   4.860
69197W        W41512  44.543  12.755   2.210
69198W        W41513  39.640   9.278  13.100
69199W        W41514  34.401   7.691  12.105
69200W        W41515  38.892  11.367   4.354
69201W        W41516  40.029  21.556  14.761
69202W        W41517  32.176  13.292  11.030
69203W        W41518   3.594  15.816  10.368
69204W        W41519  20.993  23.252  11.109
69205W        W41520   6.841  40.612  12.074
69206W        W41521  35.532   9.551  11.504
69207W        W41522  44.288  18.378  14.379
69208W        W41523  43.338  43.554  13.594
69209W        W41524   3.949   9.742  11.228
69210W        W41525   1.801  34.060   9.815
69211W        W41526  40.496  30.948   1.833
69212W        W41527  15.014  20.461   2.822
69213W        W41528  10.310   8.684  14.511
69214W        W41529   9.165  27.266   4.085
69215W        W41530  15.151  10.867   2.859
69216W        W41531  21.769  15.318  13.720
69217W        W41532   3.325  44.313  12.411
69218W        W41533  35.095  11.688   0.746
69219W        W41534  25.496  37.408  10.578
69220W        W41535   6.339  24.148  10.610
69221W        W41536  18.077   8.484  11.497
69222W        W41537  27.787   1.899   4.975
69223W        W41538  32.213  36.042  14.411
69224W        W41539  33.668  13.320   1.433
69225W        W41540  15.342  38.156  10.636
69226W        W41541  42.479  16.543  14.380
69227W        W41542   4.670   2.771   2.326
69228W        W41543   4.375  28.859   2.826
69229W        W41544  12.158   4.674   4.576
69230W        W41545  23.465  19.178   4.053
69231W        W41546  33.604  36.975   4.543
69232W        W41547  40.301  33.883   3.243
69233W        W41548  44.220  31.069   3.763
69234W        W41549  35.926  12.374   2.396
69235W        W41550  35.874  44.577   0.229
69236W        W41551   5.275   9.357   2.103
69237W        W41552  25.454   4.414   4.129
69238W        W41553  34.523  25.925   3.695
69239W        W41554  26.055  11.747  11.791
69240W        W41555  41.535  43.968  14.297
69241W        W41556  44.269  19.448  12.137
69242W        W41557  11.556   2.044  13.025
69243W        W41558  35.626  43.012  11.540
69244W        W41559  19.647  12.694   2.435
69245W        W41560   3.291  33.521   1.314
69246W        W41561   5.161   1.912  12.592
69247W        W41562  28.599  35.332  14.956
69248W        W41563   9.226  13.789   0.812
69249W        W41564   8.714  37.541   3.607
69250W        W41565   8.810  41.228   0.399
69251W        W41566  33.216  32.129   0.697
69252W        W41567   5.307   3.845   2.823
69253W        W41568  32.600   1.311   2.424
69254W        W41569  42.047  33.315   3.365
69255W        W41570  29.696  35.790   0.921
69256W        W41571  18.774  44.856   4.533
69257W        W41572  16.624   9.794   9.823
69258W        W41573   7.825   5.334  14.808
69259W        W41574  32.688  43.495   4.190
69260W        W41575  42.324   6.191  10.678
69261W        W41576  21.875   0.934   0.046
69262W        W41577  38.272  11.086  14.310
69263W        W41578  44.360   7.219  12.858
69264W        W41579  15.562  40.807  13.797
69265W        W41580  12.740  32.580  14.099
69266W        W41581  25.473  10.348  12.837
69267W        W41582  33.560  22.874   4.819
69268W        W41583  20.666  43.564  12.946
69269W        W41584   2.402  26.216   4.267
69270W        W41585   6.697  38.133   2.867
69271W        W41586  29.648  39.552  13.481
69272W        W41587  40.831  18.947  11.182
69273W        W41588  33.868   7.618  13.370
69274W        W41589  39.525  22.795   4.334
69275W        W41590  30.569  19.066  10.697
69276W        W41591   4.427  22.266   0.362
69277W        W41592  30.633   9.760  14.548
69278W        W41593  32.889  20.172  14.804
69279W        W41594  18.701  34.525   4.062
69280W        W41595   1.174  33.185  11.993
69281W        W41596  41.473  13.147  14.981
69282W        W41597  43.381  39.509  14.812
69283W        W41598  20.961  27.210  14.411
69284W        W41599   9.078  20.155   0.125
69285W        W41600   3.527  42.550  13.322
69286W        W41601  33.722  16.097   2.719
69287W        W41602  15.293  25.559   2.238
69288W        W41603  44.322  20.965   0.793
69289W        W41604   7.234  44.328   3.787
69290W        W41605   5.695  23.887  14.963
69291W        W41606   8.283  37.580  10.664
69292W        W41607   7.008  16.336  14.479
69293W        W41608  31.957  31.689   3.400
69294W        W41609  19.517  30.315  12.670
69295W        W41610  26.241  33.809   0.416
69296W        W41611  38.992  12.692   1.839
69297W        W41612   5.779  38.833   3.463
69298W        W41613  31.009   0.336  12.054
69299W        W41614  16.531  10.464   1.454
69300W        W41615   5.934   6.762  14.469
69301W        W41616   1.838   1.357  12.443
69302W        W41617   6.396  27.666  11.962
69303W        W41618  10.969  15.655  10.775
69304W        W41619  17.013  39.349  12.410
69305W        W41620  35.770  12.869   4.269
69306W        W41621  27.509  12.122   2.764
69307W        W41622  43.514  29.651   3.340
69308W        W41623  27.995  42.391   2.299
69309W        W41624  43.973  40.876   1.151
69310W        W41625  18.068   7.972   4.592
69311W        W41626  23.254  23.565   2.420
69312W        W41627  30.877  16.836  11.727
69313W        W41628  43.533   6.702  14.314
69314W        W41629  34.557  16.674   1.250
69315W        W41630  15.335  10.674  13.902
69316W        W41631  26.569  20.522   4.121
69317W        W41632  26.576   9.903  10.713
69318W        W41633   5.302  43.412  11.434
69319W        W41634  16.276  31.698  11.394
69320W        W41635  27.512  14.144   3.700
69321W        W41636  40.006   5.812   2.523
69322W        W41637  33.604  34.702   2.674
69323W        W41638  12.891   3.154   3.213
69324W        W41639  32.164  26.280  10.540
69325W        W41640  26.643  44.068  13.432
69326W        W41641   9.568  38.937   3.568
69327W        W41642   2.808  18.083  11.226
69328W        W41643  23.480  28.642   3.460
69329W        W41644  22.657  33.121  11.525
69330W        W41645  37.482  24.614  14.568
69331W        W41646  18.829  34.358   0.856
69332W        W41647  37.276  44.769   4.213
69333W        W41648  11.841  13.313  12.976
69334W        W41649  44.327  34.384  13.989
69335W        W41650  33.428  23.637   1.539
69336W        W41651  20.420   0.116  14.512
69337W        W41652  44.072  26.729   4.125
69338W        W41653  35.409  37.405   4.474
69339W        W41654  37.831  27.008  11.572
69340W        W41655  27.524  36.619   2.167
69341W        W41656  19.532  10.716  10.765
69342W        W41657  34.865  25.239  11.005
69343W        W41658  21.788  35.619  13.451
69344W        W41659   3.858  22.647  13.256
69345W        W41660  43.314  38.390   4.333
69346W        W41661  19.682   0.766  11.347
69347W        W41662   1.109  24.920   0.455
69348W        W41663  39.547  21.809   1.359
69349W        W41664  41.085   8.448  12.428
69350W        W41665  21.797  21.572   2.733
69351W        W41666  13.662  14.673   1.032
69352W        W41667  20.944  16.270  14.076
69353W        W41668  39.402  29.411   3.313
69354W        W41669  34.746  41.050   2.431
69355W        W41670  39.534  24.773  12.881
69356W        W41671  22.237   8.801   2.268
69357W        W41672   2.645  41.307   2.304
69358W        W41673  16.208  20.199  12.647
69359W        W41674  29.682  12.709   2.216
69360W        W41675  30.088  36.154  13.603
69361W        W41676  12.331  27.119   0.047
69362W        W41677  19.753  42.223  13.523
69363W        W41678  18.438  28.072   4.555
69364W        W41679  22.789  22.534   1.141
69365W        W41680  40.679   3.428  11.246
69366W        W41681  21.210  20.903   5.103
69367W        W41682  16.057   1.450   1.307
69368W        W41683  27.030   3.305  14.963
69369W        W41684  26.444  36.908   2.783
69370W        W41685  21.306  43.346  10.960
69371W        W41686  38.588  26.085   0.209
69372W        W41687  13.204  32.117  12.482
69373W        W41688   0.157   9.386  11.047
69374W        W41689  25.979  33.901   2.894
69375W        W41690   6.481   3.830   4.180
69376W        W41691  34.583   8.886   1.147
69377W        W41692  43.442  38.748  11.625
69378W        W41693  12.272   8.735  10.715
69379W        W41694  29.973  41.319  14.938
69380W        W41695  39.747  24.452   3.550
69381W        W41696  38.540  30.422   0.747
69382W        W41697  10.465  24.108   3.257
69383W        W41698  23.924  28.636   4.800
69384W        W41699  32.051  13.993  12.163
69385W        W41700   0.719  42.734  12.438
69386W        W41701   1.444  44.471  11.746
69387W        W41702   1.938   1.303   0.740
69388W        W41703  32.443  26.678   1.370
69389W        W41704  36.033   2.757   3.675
69390W        W41705  19.795  31.113  13.172
69391W        W41706  26.934  14.790  12.626
69392W        W41707  14.288  22.864   3.201
69393W        W41708  43.432  31.405   0.939
69394W        W41709  27.615  22.463   2.130
69395W        W41710  28.999  33.353   0.853
69396W        W41711  26.886   2.721  11.167
69397W        W41712   1.775  17.151   2.405
69398W        W41713  43.323  25.084  10.664
69399W        W41714  10.424  26.394   2.304
69400W        W41715  20.682   9.341   1.875
69401W        W41716  12.099   9.916  12.088
69402W        W41717  34.456  25.887   2.930
69403W        W41718  41.288  30.911  11.119
69404W        W41719  30.905  13.619  11.158
69405W        W41720  39.897  25.576  10.206
69406W        W41721  25.193  40.316  11.519
69407W        W41722  21.136  35.398  13.816
69408W        W41723  25.899  25.082  11.082
69409W        W41724  22.951   6.307  13.299
69410W        W41725   2.977  27.045   2.369
69411W        W41726  33.886  15.374   3.362
69412W        W41727  30.807  30.072  12.021
69413W        W41728  38.435  42.756  11.944
69414W        W41729  34.228  24.807   4.964
69415W        W41730  36.874   0.814  11.035
69416W        W41731  43.525  38.192  13.428
69417W        W41732  30.987  22.750   0.441
69418W        W41733  20.751   5.826  14.959
69419W        W41734  39.651  33.467   3.776
69420W        W41735   5.972  10.769  13.373
69421W        W41736  17.122  21.564   4.651
69422W        W41737  26.939  28.146  13.997
69423W        W41738  29.157  28.645   0.805
69424W        W41739   5.713  34.962   1.299
69425W        W41740  29.444  15.203   4.762
69426W        W41741   3.809   0.353   5.292
69427W        W41742  21.539  17.261  13.013
69428W        W41743   8.664  35.272   1.214
69429W        W41744  14.574  34.198   2.303
69430W        W41745  27.684  43.523  12.469
69431W        W41746   0.134  24.188  13.809
69432W        W41747  36.811   7.725   2.444
69433W        W41748  28.138  32.386   2.673
69434W        W41749  12.408  28.604  11.669
69435W        W41750  30.399  41.933   1.169
69436W        W41751  22.929  37.033  11.067
69437W        W41752  43.589  35.884  14.377
69438W        W41753  19.077   1.685   3.106
69439W        W41754   7.884  11.867   0.934
69440W        W41755   9.708   6.414  14.473
69441W        W41756  31.685   3.249   5.025
69442W        W41757  30.154   4.303   0.481
69443W        W41758  27.079  31.261   5.297
69444W        W41759  39.637  11.471  11.973
69445W        W41760  44.445  33.007  13.424
69446W        W41761   3.459  25.991   2.805
69447W        W41762  20.813  20.745  13.020
69448W        W41763   5.595  10.784   4.922
69449W        W41764   8.842   8.767  11.879
69450W        W41765   0.917  12.354   1.282
69451W        W41766  39.176   9.177  10.713
69452W        W41767  41.445  34.042  11.995
69453W        W41768  18.645  11.664  14.366
69454W        W41769  10.927  25.578   4.088
69455W        W41770  24.668  32.385  14.374
69456W        W41771   6.719  26.619   4.675
69457W        W41772  22.231  36.694  14.135
69458W        W41773  11.719  28.594  13.517
69459W        W41774  28.904   6.671   0.640
69460W        W41775  33.029  32.220  11.684
69461W        W41776  34.443  40.859  12.493
69462W        W41777  24.667  17.333  12.978
69463W        W41778  30.028  21.305  14.745
69464W        W41779  32.782   9.295  11.120
69465W        W41780  28.144  42.368  12.059
69466W        W41781   5.224  40.016   4.523
69467W        W41782   3.014  13.303   4.191
69468W        W41783  44.074   4.626  11.144
69469W        W41784  22.435   7.865  12.026
69470W        W41785  41.288  36.425   3.261
69471W        W41786  33.845  10.314  11.646
69472W        W41787  14.170   2.091  14.189
69473W        W41788  18.787   8.222  10.655
69474W        W41789  25.626  40.642   4.530
69475W        W41790  35.333  18.886   4.082
69476W        W41791   7.939  30.665   2.386
69477W        W41792  32.847   6.075  14.924
69478W        W41793  29.805  25.788   1.660
69479W        W41794  30.212   3.902   1.713
69480W        W41795  32.063  31.688   1.764
69481W        W41796  19.372  16.685   0.010
69482W        W41797  20.953  32.101   2.666
69483W        W41798  13.641  24.916   4.321
69484W        W41799  20.543  25.519  13.752
69485W        W41800  16.658  23.860  11.474
69486W        W41801  34.584  42.935   0.964
69487W        W41802  23.556  27.561  13.873
69488W        W41803  23.985  19.203   3.350
69489W        W41804  18.742  30.685  13.330
69490W        W41805  35.983   8.093   0.803
69491W        W41806   5.915  21.048   0.428
69492W        W41807   6.292  38.316   1.912
69493W        W41808  17.066  14.582  12.734
69494W        W41809   9.205  27.711   3.398
69495W        W41810  30.341  42.675  11.748
69496W        W41811  28.020   0.787   2.349
69497W        W41812  23.715  42.816  12.316
69498W        W41813  26.512  15.141   2.779
69499W        W41814   4.157   0.953   3.697
69500W        W41815   6.759  44.219   3.944
69501W        W41816  27.659  22.169  13.065
69502W        W41817  13.334  37.157   0.498
69503W        W41818  37.254  24.220  12.084
69504W        W41819  41.910  24.289  13.073
69505W        W41820  22.273  35.983  12.815
69506W        W41821  17.354  15.347  12.065
69507W        W41822   8.407  34.153  11.278
69508W        W41823  24.533  27.956   4.788
69509W        W41824  18.201  29.439   1.014
69510W        W41825  11.871   8.907  12.549
69511W        W41826   9.973  21.929  11.069
69512W        W41827  37.117  30.326   3.621
69513W        W41828  43.947   0.291   1.871
69514W        W41829  22.781  32.377   3.697
69515W        W41830  36.641  15.022  12.418
69516W        W41831  35.042  42.718   2.748
69517W        W41832   8.405   9.219  12.908
69518W        W41833  31.404  39.531   1.867
69519W        W41834  33.083  18.196   1.174
69520W        W41835  11.455  20.421  14.039
69521W        W41836  39.567  27.598   1.210
69522W        W41837  15.392  34.981   0.441
69523W        W41838  27.914  31.919   3.494
69524W        W41839  43.439  36.657  12.067
69525W        W41840  24.465  10.395  14.643
69526W        W41841  44.259  30.626   2.799
69527W        W41842  39.751  19.228   2.759
69528W        W41843  31.193   4.774   1.481
69529W        W41844  40.823  34.454   4.485
69530W        W41845  11.287  15.713   4.195
69531W        W41846   4.364   2.328   2.366
69532W        W41847  10.895  39.667  14.792
69533W        W41848  35.002  29.070   4.669
69534W        W41849  41.886  25.164   3.340
69535W        W41850  44.481   5.470  13.370
69536W        W41851  42.023  40.028  14.340
69537W        W41852   1.827   9.396  14.872
69538W        W41853  18.292   5.932   3.231
69539W        W41854  25.098  44.810   4.186
69540W        W41855  35.571  34.650   2.625
69541W        W41856   9.254  15.946  11.413
69542W        W41857   7.925   7.193   0.835
69543W        W41858  17.249  30.356  10.942
69544W        W41859  44.400  20.211   1.796
69545W        W41860   4.711  13.280   2.216
69546W        W41861  26.807   9.335   1.721
69547W        W41862   6.188  25.123   0.551
69548W        W41863   8.712  31.619  12.056
69549W        W41864  40.200  28.494   0.301
69550W        W41865   5.133   5.353  14.494
69551W        W41866  24.039   1.060  13.967
69552W        W41867   0.681  34.904   3.388
69553W        W41868  37.332  33.518   0.950
69554W        W41869  38.955  33.031  14.825
69555W        W41870  40.991  34.129  14.375
69556W        W41871   9.915  42.523   4.760
69557W        W41872  41.881  44.449   1.632
69558W        W41873  15.713  38.059   2.839
69559W        W41874  21.078   7.347  12.179
69560W        W41875  21.759   7.361  13.977
69561W        W41876  22.469  20.234  12.130
69562W        W41877  41.782  42.072   0.797
69563W        W41878  13.632  39.012   4.644
69564W        W41879  31.011  13.850  13.454
69565W        W41880  41.334  13.913   3.700
69566W        W41881  43.218  23.500   1.738
69567W        W41882  17.144   3.843   4.356
69568W        W41883  21.912  39.852  13.216
69569W        W41884  42.967  36.569  13.319
69570W        W41885  11.557  31.584  13.888
69571W        W41886  17.615  36.502   4.165
69572W        W41887  21.942  30.363  12.937
69573W        W41888  32.613  15.549  11.551
69574W        W41889  38.387   0.325   0.943
69575W        W41890  20.049   1.782  11.538
69576W        W41891  28.964   3.154   3.648
69577W        W41892  41.899  28.251   4.882
69578W        W41893  20.582   2.838  13.867
69579W        W41894  14.335   2.626  11.128
69580W        W41895  25.007  29.718  12.099
69581W        W41896  20.504  37.753   2.127
69582W        W41897  41.378  35.173   4.625
69583W        W41898  12.897   1.809  14.523
69584W        W41899  13.836  34.849   1.822
69585W        W41900   1.286   0.343   1.323
69586W        W41901  20.679   7.712   3.648
69587W        W41902  43.580  36.337  10.912
69588W        W41903  17.240   9.095  10.886
69589W        W41904   9.455  13.032   3.205
69590W        W41905  16.213  15.158  12.789
69591W        W41906   9.550  42.427   0.807
69592W        W41907   5.995  18.241  12.472
69593W        W41908  34.364  37.066   0.430
69594W        W41909  40.802  13.620   2.761
69595W        W41910   8.064  38.621  14.880
69596W        W41911  16.089  27.995  11.120
69597W        W41912  24.276  41.846  14.831
69598W        W41913   2.945  37.261  14.545
69599W        W41914  12.619  44.922  11.227
69600W        W41915  32.390   8.083   4.064
69601W        W41916   7.335   8.984   3.451
69602W        W41917  26.188  12.267   0.852
69603W        W41918  21.517   9.102  11.120
69604W        W41919  40.987  32.487   4.304
69605W        W41920  32.200  10.408   0.282
69606W        W41921   4.894  24.542   1.427
69607W        W41922  13.653  39.920  11.512
69608W        W41923  24.077  39.797   2.144
69609W        W41924  37.046  16.081   4.102
69610W        W41925  10.113  43.166  13.785
69611W        W41926  12.399  31.528   1.616
69612W        W41927  28.176  27.200   1.086
69613W        W41928   2.777   8.225   0.976
69614W        W41929  14.533   0.346  13.964
69615W        W41930  11.950  41.145   4.467
69616W        W41931   9.412   0.028  11.988
69617W        W41932  15.289  22.439  13.620
69618W        W41933  18.630  27.497  13.673
69619W        W41934  22.420   3.213   5.151
69620W        W41935  30.471  34.258  11.154
69621W        W41936  19.029   5.303  14.969
69622W        W41937  21.071   8.811  14.894
69623W        W41938   2.272  25.509  11.537
69624W        W41939  28.511  42.183  12.364
69625W        W41940  23.663   7.763  14.309
69626W        W41941   6.763  33.876   0.440
69627W        W41942  35.989  39.925  11.665
69628W        W41943  18.811  33.570  13.386
69629W        W41944  27.001  17.014  10.721
69630W        W41945  36.881  12.644   2.256
69631W        W41946   7.343   2.759  10.944
69632W        W41947   1.871  41.168   3.694
69633W        W41948  13.294  28.671   0.345
69634W        W41949  13.427  35.423   4.230
69635W        W41950  19.575  13.780   1.361
69636W        W41951  17.365  17.938   1.994
69637W        W41952  34.891   2.733   3.740
69638W        W41953  18.825  27.460  11.129
69639W        W41954  20.307  36.458  11.551
69640W        W41955  34.852  34.067   2.951
69641W        W41956   7.382  41.482  12.967
69642W        W41957   2.773  35.402  10.438
69643W        W41958  33.151   5.019  11.424
69644W        W41959  40.282  11.145  12.590
69645W        W41960  15.432   5.848   1.269
69646W        W41961   3.712  33.319   2.216
69647W        W41962  41.682  25.492  14.026
69648W        W41963  24.100  18.873  14.901
69649W        W41964  17.002  26.020  13.228
69650W        W41965  17.783   1.645  10.751
69651W        W41966  10.560  42.411   5.015
69652W        W41967  33.865   0.717  11.644
69653W        W41968  37.625  36.865  13.949
69654W        W41969   3.518  43.988  13.915
69655W        W41970  42.004  41.738   3.624
69656W        W41971  42.174  30.060   4.519
69657W        W41972  16.204  39.003  12.581
69658W        W41973  21.388  10.305  12.341
69659W        W41974  10.850   8.288   4.454
69660W        W41975  42.911  16.247  14.326
69661W        W41976  44.098  18.842  13.477
69662W        W41977   7.648  22.840   2.657
69663W        W41978  33.145   3.947   2.722
69664W        W41979   6.724  39.394   2.856
69665W        W41980  21.454  36.387   2.696
69666W        W41981  15.746  29.606  13.419
69667W        W41982  14.543   3.933  12.903
69668W        W41983  38.380  25.741   3.340
69669W        W41984  21.982  44.328   4.215
69670W        W41985  30.593  33.173   0.981
69671W        W41986  30.563  13.650  14.722
69672W        W41987  15.995  16.237  11.299
69673W        W41988  12.121  26.780   1.750
69674W        W41989  25.503   0.541   2.547
69675W        W41990  42.301  29.204  14.912
69676W        W41991  21.780   5.714  12.879
69677W        W41992  24.554  16.648  13.002
69678W        W41993   2.769  44.753   0.857
69679W        W41994   1.764  22.085  13.762
69680W        W41995  18.211  33.903  13.671
69681W        W41996  14.343  29.809  12.515
69682W        W41997   3.900  12.953   4.379
69683W        W41998   3.219  33.209   0.873
69684W        W41999   8.949   4.917  14.413
69685W        W42000  22.021  20.079  11.845
69686W        W42001  11.283  13.887  10.780
69687W        W42002   5.854   2.298  12.963
69688W        W42003  15.332  33.599  14.402
69689W        W42004  17.647  40.123   3.191
69690W        W42005  42.020  12.134  13.963
69691W        W42006  21.181  40.830   0.518
69692W        W42007   3.199  36.405  12.180
69693W        W42008  24.917   0.279  13.098
69694W        W42009  39.540  11.749  10.486
69695W        W42010  24.700  36.316   2.815
69696W        W42011   2.784  19.341  14.401
69697W        W42012  36.596   5.125   3.247
69698W        W42013  38.282  38.005  11.935
69699W        W42014   5.443  21.701  10.760
69700W        W42015  32.898  20.521  10.747
69701W        W42016  26.992  13.282  12.607
69702W        W42017  17.146  11.807  13.667
69703W        W42018  10.715  36.118   2.886
69704W        W42019  26.497  23.848  14.168
69705W        W42020   1.236  30.908  11.600
69706W        W42021  39.019  21.747  10.497
69707W        W42022   1.801  13.722   2.959
69708W        W42023  30.648  33.901   4.084
69709W        W42024  31.219  18.798  11.053
69710W        W42025  18.110  37.693   2.026
69711W        W42026  16.357  40.941   3.812
69712W        W42027  11.680  29.012  12.849
69713W        W42028   1.779  33.963   0.479
69714W        W42029  28.623  10.701  11.785
69715W        W42030  16.582  12.149  14.246
69716W        W42031  43.970  17.352   2.108
69717W        W42032   4.554  41.344   0.370
69718W        W42033  15.095  43.552   1.574
69719W        W42034  41.310  28.207   0.452
69720W        W42035  38.373  42.131   2.085
69721W        W42036  15.279  16.111   4.510
69722W        W42037   6.436  38.005  13.827
69723W        W42038   2.247  34.883   1.886
69724W        W42039  16.991  17.332   4.491
69725W        W42040  27.686  22.937   2.318
69726W        W42041  12.082  32.982   1.334
69727W        W42042  22.066  30.055  11.637
69728W        W42043  42.730  16.751  13.172
69729W        W42044  25.866   1.388   3.286
69730W        W42045   6.286  34.232   4.559
69731W        W42046  12.629  23.025  12.458
69732W        W42047  43.293  27.574   4.080
69733W        W42048  43.165  28.872  14.436
69734W        W42049  29.707   0.959  11.839
69735W        W42050  12.875   3.921  10.953
69736W        W42051  32.570   4.607   2.774
69737W        W42052  18.492  18.460  14.451
69738W        W42053  23.608  25.259  13.424
69739W        W42054  10.342  23.041   2.629
69740W        W42055  38.250   5.745   2.345
69741W        W42056  35.443  11.838  13.043
69742W        W42057   2.377  30.451  14.893
69743W        W42058   0.670  33.029   2.054
69744W        W42059  27.203  30.529  13.747
69745W        W42060   1.549   0.955  12.906
69746W        W42061  12.803   6.363   4.813
69747W        W42062  10.148   9.061   0.771
69748W        W42063   4.320  32.560  10.563
69749W        W42064  18.056  37.455   0.995
69750W        W42065  21.683   6.086  11.129
69751W        W42066  43.406  37.799  13.121
69752W        W42067  21.215  12.399  12.523
69753W        W42068   6.435   1.609  13.873
69754W        W42069   5.433  34.117   3.645
69755W        W42070  35.209  41.462  11.640
69756W        W42071   1.371   2.406  12.904
69757W        W42072   5.904  21.533   3.981
69758W        W42073   5.532  25.853   1.307
69759W        W42074   6.814  44.371   2.907
69760W        W42075  32.641  11.089   2.845
69761W        W42076  35.107  28.828  10.955
69762W        W42077  38.569  10.409  14.866
69763W        W42078  30.427  28.440   2.716
69764W        W42079  28.435  43.499   0.828
69765W        W42080  28.981  18.859  12.947
69766W        W42081  22.724  12.736  13.881
69767W        W42082  33.791  25.672  12.548
69768W        W42083  15.561  18.557   3.666
69769W        W42084   3.853  19.654   3.087
69770W        W42085  35.151  18.580   2.709
69771W        W42086  19.901  44.215  12.034
69772W        W42087  11.801  26.633   5.072
69773W        W42088  14.393  15.049  13.908
69774W        W42089  26.574  36.561   4.077
69775W        W42090   4.657  12.613  14.830
69776W        W42091  37.579  39.920   4.340
69777W        W42092  27.510  31.717   0.240
69778W        W42093  17.310  35.061  11.163
69779W        W42094  37.122  16.220   2.809
69780W        W42095  25.131  18.229   1.615
69781W        W42096   1.740  38.060   2.191
69782W        W42097   4.322  41.679   0.888
69783W        W42098  42.306  18.590   2.754
69784W        W42099  44.224  34.252  11.013
69785W        W42100   3.850  23.464  14.005
69786W        W42101  33.147   0.855   1.501
69787W        W42102  25.298  14.891   0.667
69788W        W42103  16.358  28.105  13.457
69789W        W42104  39.722  30.179   3.688
69790W        W42105  26.878  30.068  12.568
69791W        W42106  17.683  19.343  14.947
69792W        W42107  21.139   5.792   3.944
69793W        W42108  14.802  23.462   4.670
69794W        W42109   4.512   0.031   3.663
69795W        W42110  43.088  30.749  11.445
69796W        W42111  33.816   7.446   2.888
69797W        W42112  25.575  19.887   5.795
69798W        W42113  21.130   5.845   0.466
69799W        W42114  16.086  21.787  14.948
69800W        W42115   2.290  17.892  11.322
69801W        W42116  28.473   6.371   3.683
69802W        W42117   9.465  13.297   0.798
69803W        W42118  23.022   2.921   2.219
69804W        W42119  42.994   8.781   1.901
69805W        W42120  30.592  42.016   2.184
69806W        W42121  27.453  35.891   1.422
69807W        W42122  38.012  18.104   2.136
69808W        W42123  33.082  34.590   0.205
69809W        W42124  42.137   6.550   5.025
69810W        W42125  36.978  30.078  11.400
69811W        W42126  16.192  20.618  12.960
69812W        W42127  35.110  11.021  13.344
69813W        W42128  35.593  30.896  11.142
69814W        W42129  36.528  34.193  14.056
69815W        W42130   2.057  19.089   3.380
69816W        W42131  26.167  20.056  11.021
69817W        W42132  20.132   0.760   3.711
69818W        W42133  10.124  28.001  14.166
69819W        W42134  33.067  39.691   3.158
69820W        W42135  11.177  29.416   0.088
69821W        W42136  42.095  18.146   4.582
69822W        W42137   9.507  22.141  13.561
69823W        W42138   2.202   8.306   3.158
69824W        W42139  13.600   6.913  14.333
69825W        W42140  21.111  18.316  14.794
69826W        W42141  27.065  12.820   4.185
69827W        W42142  15.378   4.454  13.995
69828W        W42143   5.231  38.374  13.829
69829W        W42144  25.195  10.333   4.655
69830W        W42145   3.861  23.025   2.337
69831W        W42146  22.198   8.628   1.768
69832W        W42147   2.839   2.406   2.270
69833W        W42148  34.381  12.149  14.832
69834W        W42149  31.469  16.483   4.150
69835W        W42150  32.659   4.099   0.700
69836W        W42151  15.844  30.443  11.086
69837W        W42152   0.934   0.071   2.529
69838W        W42153  23.880   9.775  10.547
69839W        W42154  44.419  22.832   4.666
69840W        W42155  17.284  21.252   3.213
69841W        W42156  12.322   3.188   0.433
69842W        W42157   7.418  20.725   3.069
69843W        W42158  41.301   5.674   1.886
69844W        W42159   3.448  21.182  10.613
69845W        W42160  11.554  19.129  12.221
69846W        W42161  26.700  41.566   2.647
69847W        W42162  38.489  24.976  13.796
69848W        W42163  25.794  14.613  11.655
69849W        W42164  37.159  19.656   1.695
69850W        W42165  29.455  10.060   0.807
69851W        W42166  36.441   3.470   2.251
69852W        W42167  31.870  21.764  12.952
69853W        W42168  13.861  27.192  13.962
69854W        W42169  34.695  27.073   3.350
69855W        W42170   1.436   6.466   4.330
69856W        W42171  14.815   9.375  12.386
69857W        W42172  28.177  39.386   2.149
69858W        W42173  28.478  44.279   1.769
69859W        W42174  40.020  42.694  11.263
69860W        W42175  30.514  33.598  13.664
69861W        W42176  22.023   0.747   2.289
69862W        W42177  18.518  38.626  11.187
69863W        W42178  10.799  18.295  10.286
69864W        W42179   3.474  31.286  11.058
69865W        W42180  20.017  44.720   2.121
69866W        W42181   5.209  40.419  10.634
69867W        W42182  31.564   0.918  11.102
69868W        W42183  39.915   2.947  10.586
69869W        W42184  24.939  28.200  10.976
69870W        W42185  16.903  38.216   3.555
69871W        W42186   2.013  43.731   4.242
69872W        W42187   2.791  31.870   0.828
69873W        W42188  30.195  20.185   3.697
69874W        W42189  16.757   0.487  14.299
69875W        W42190  30.943   6.511  11.934
69876W        W42191  12.724  24.030  11.710
69877W        W42192   3.220  35.678   4.679
69878W        W42193  20.636  23.013  12.816
69879W        W42194  23.625  24.892  13.897
69880W        W42195  38.097  43.011  11.665
69881W        W42196  33.996  33.387   0.929
69882W        W42197   0.826   9.772   1.535
69883W        W42198  23.518  13.641  14.250
69884W        W42199  30.589  35.504  12.845
69885W        W42200  44.666   9.235  10.990
69886W        W42201   2.314  23.244  12.477
69887W        W42202  33.039  29.088  11.243
69888W        W42203  31.429   9.270   2.150
69889W        W42204   2.017  18.808  11.671
69890W        W42205   7.195  21.079  12.911
69891W        W42206   0.412  10.867  13.770
69892W        W42207  25.039  12.251  13.107
69893W        W42208  21.138   1.262   1.684
69894W        W42209  26.793  32.834   4.607
69895W        W42210  39.373  40.334  12.822
69896W        W42211   3.257  10.442  10.886
69897W        W42212  21.992  22.073  14.430
69898W        W42213  13.155  21.043  13.283
69899W        W42214  42.330   2.279  13.941
69900W        W42215  35.833   5.714  12.051
69901W        W42216  23.451  35.463  13.821
69902W        W42217  38.759  43.053   4.651
69903W        W42218  28.105  15.561   0.422
69904W        W42219   4.359  41.738   3.366
69905W        W42220  16.770  44.354  11.167
69906W        W42221  38.590  37.208  11.090
69907W        W42222   2.613  19.128   4.169
69908W        W42223  36.410  43.400  14.623
69909W        W42224  38.276   9.475  11.989
69910W        W42225  35.345  18.212   4.689
69911W        W42226  42.508   0.305   0.850
69912W        W42227  16.518  20.667   0.442
69913W        W42228  26.012  27.144  11.213
69914W        W42229  26.494  11.809  13.062
69915W        W42230   5.507  10.100   3.238
69916W        W42231  42.005  21.785  14.935
69917W        W42232  11.663  38.189   2.410
69918W        W42233  41.934  35.317  12.368
69919W        W42234   4.534  25.296  12.408
69920W        W42235  33.188  36.094  14.407
69921W        W42236  43.515  34.931  10.183
69922W        W42237   2.540  38.907  12.928
69923W        W42238  19.938  16.270  13.897
69924W        W42239   6.204  30.075   0.787
69925W        W42240  32.542  26.959   2.732
69926W        W42241  27.461  13.746   1.420
69927W        W42242  28.988  40.681  12.900
69928W        W42243  10.753   2.347  11.949
69929W        W42244  10.240  41.716  12.658
69930W        W42245  33.538  33.126   0.783
69931W        W42246  14.695  30.619   3.646
69932W        W42247   8.898  14.961  11.371
69933W        W42248  38.876  40.272   4.480
69934W        W42249   6.796  27.890  11.668
69935W        W42250  16.795   1.737   1.879
69936W        W42251  24.554  32.734   2.278
69937W        W42252  30.503  14.622   1.787
69938W        W42253  30.022  22.041   0.960
69939W        W42254  26.110  24.658  12.602
69940W        W42255   2.907   3.207  13.177
69941W        W42256  13.267  28.603  11.031
69942W        W42257  14.592  26.692   4.434
69943W        W42258   2.419  44.494   0.409
69944W        W42259  21.460  40.388   4.248
69945W        W42260  32.991  30.436   4.602
69946W        W42261  34.852  33.100   4.552
69947W        W42262  39.037  10.229   2.203
69948W        W42263  25.542  27.199   4.623
69949W        W42264   1.990  22.933  11.599
69950W        W42265  29.516   0.291  10.239
69951W        W42266   2.380   2.770   1.280
69952W        W42267  33.119  12.295  11.586
69953W        W42268  23.643  36.521   4.178
69954W        W42269  22.184  10.408  14.666
69955W        W42270   0.665  34.442  11.301
69956W        W42271  23.360  15.863  13.054
69957W        W42272  18.171   6.164   1.685
69958W        W42273  41.978  34.674   1.858
69959W        W42274  25.251  18.528  13.395
69960W        W42275  13.302  25.582  12.382
69961W        W42276  12.173  25.386  13.498
69962W        W42277  25.731  43.400  11.631
69963W        W42278  38.032  35.975   1.861
69964W        W42279   3.397   3.070  12.292
69965W        W42280  26.674   7.793  10.220
69966W        W42281   1.152  12.333   1.780
69967W        W42282  29.609  41.304   0.531
69968W        W42283  40.329  35.084  14.293
69969W        W42284  22.250  24.838  13.917
69970W        W42285  30.928  30.100   4.646
69971W        W42286  33.900  32.579  13.561
69972W        W42287  34.032  23.575   0.752
69973W        W42288  39.789  20.932  11.913
69974W        W42289  18.645  23.874  14.971
69975W        W42290   8.406  19.775   3.738
69976W        W42291  11.119  44.885  14.828
69977W        W42292  39.978  33.507  12.425
69978W        W42293  33.841  30.335   2.621
69979W        W42294  37.283   1.243   0.333
69980W        W42295   5.481  22.744  13.011
69981W        W42296  28.607   3.024   3.267
69982W        W42297   5.382   7.699  11.222
69983W        W42298  29.713   9.921   2.176
69984W        W42299   0.648  39.937  10.414
69985W        W42300  23.976   2.409  12.054
69986W        W42301  11.407  36.054  13.464
69987W        W42302  33.101   5.599   4.423
69988W        W42303  19.797  26.577  10.436
69989W        W42304  29.838  20.604  13.585
69990W        W42305  44.278   6.350   4.630
69991W        W42306  26.056  32.521   4.004
69992W        W42307  22.495  14.213  10.143
69993W        W42308  26.668  23.124   1.281
69994W        W42309  18.804  23.666  11.647
69995W        W42310  23.217  10.699   4.571
69996W        W42311   0.852  39.547   1.653
69997W        W42312  37.359  28.639   0.404
69998W        W42313  35.807  32.466  13.054
69999W        W42314  18.155  26.052   0.457
70000W        W42315  33.907  27.836  12.579
70001W        W42316  22.182   2.860  10.678
70002W        W42317  18.698  30.818  12.411
70003W        W42318   2.375  37.164  12.692
70004W        W42319  14.777  37.366   5.384
70005W        W42320  18.074  44.430   0.392
70006W        W42321  35.309  35.081   0.270
70007W        W42322   6.901  20.429  13.369
70008W        W42323  18.403  14.244   0.690
70009W        W42324  36.067  16.747  12.594
70010W        W42325  18.616   3.186  13.068
70011W        W42326   0.831  22.245  10.497
70012W        W42327  19.190   8.930  13.846
70013W        W42328  11.190  11.146   1.898
70014W        W42329  16.212  29.093   4.661
70015W        W42330  30.452  44.034   1.228
70016W        W42331  12.124   7.705   2.338
70017W        W42332   8.927  32.417  10.661
70018W        W42333  35.157  38.147   2.235
70019W        W42334  14.201   7.453   4.153
70020W        W42335   0.895  31.167   1.805
70021W        W42336   2.859  30.478   4.318
70022W        W42337  30.764  21.178  11.977
70023W        W42338  28.448   4.945   5.075
70024W        W42339  16.644  33.073   2.620
70025W        W42340   7.000  30.294  11.637
70026W        W42341  23.997  38.505  12.643
70027W        W42342   5.808   8.876  10.581
70028W        W42343   2.932   7.104   0.287
70029W        W42344   7.639  35.586  12.608
70030W        W42345  38.224   0.689   1.263
70031W        W42346  31.452   7.358   3.801
70032W        W42347  43.618  12.000  11.778
70033W        W42348  13.192  26.357  14.307
70034W        W42349   3.660   7.896  14.456
70035W        W42350  44.372   7.325  12.336
70036W        W42351  30.167  12.778   1.883
70037W        W42352  27.531  24.252  13.945
70038W        W42353   5.450   9.365   0.251
70039W        W42354  44.401  13.628  14.051
70040W        W42355  44.046  43.965  13.818
70041W        W42356   1.251  38.495  11.506
70042W        W42357  16.267  19.080   4.542
70043W        W42358  26.554  26.015  13.424
70044W        W42359  24.575  32.518   3.134
70045W        W42360  20.157   0.533  14.297
70046W        W42361  39.810  33.211  12.050
70047W        W42362   9.326   8.752   3.797
70048W        W42363  19.016  10.008   3.225
70049W        W42364  11.124  15.049  11.530
70050W        W42365   8.890  43.367  14.930
70051W        W42366  33.442  14.584   0.215
70052W        W42367   8.984   8.314  12.096
70053W        W42368   7.456  40.449   4.604
70054W        W42369  12.088  32.919  13.005
70055W        W42370  42.877  36.255  14.850
70056W        W42371  16.581   0.763   3.802
70057W        W42372  30.609   1.777   3.778
70058W        W42373   0.473  30.720   3.319
70059W        W42374  29.842  44.264   0.059
70060W        W42375  42.447  23.042   1.302
70061W        W42376   7.946  32.052   1.154
70062W        W42377  23.774   7.803   3.321
70063W        W42378   5.174  17.114  13.010
70064W        W42379  14.387  38.234  13.961
70065W        W42380  35.460  15.971   2.799
70066W        W42381  20.242  20.015  11.691
70067W        W42382  10.760  33.134   4.546
70068W        W42383  40.163   7.279   4.092
70069W        W42384   6.694  35.910  14.580
70070W        W42385  12.743  20.299   0.375
70071W        W42386  34.100   6.414   3.614
70072W        W42387  19.997   3.861   3.190
70073W        W42388  44.331  16.600  14.901
70074W        W42389   1.187   8.925  14.405
70075W        W42390  42.937  37.553   2.848
70076W        W42391  15.334  38.276  13.722
70077W        W42392   4.742  15.849   4.828
70078W        W42393  22.559  12.091   4.554
70079W        W42394  14.726   2.179  14.429
70080W        W42395  28.070  36.045  13.890
70081W        W42396  17.253  36.971   3.306
70082W        W42397  21.067  36.624  11.033
70083W        W42398   9.247  32.212  14.785
70084W        W42399   4.996   9.332  14.000
70085W        W42400  20.097  18.717  11.611
70086W        W42401   5.897  44.007  13.388
70087W        W42402   2.017  17.963  14.993
70088W        W42403   3.854  39.446  14.747
70089W        W42404  36.599  35.923   4.066
70090W        W42405  39.062   8.444  12.034
70091W        W42406  38.317  29.027  11.209
70092W        W42407  44.411  38.485   3.267
70093W        W42408   6.398  35.975   4.709
70094W        W42409  38.366  12.739   1.332
70095W        W42410   3.883  43.683   4.410
70096W        W42411  39.900   9.917  10.679
70097W        W42412  18.192   7.918   4.090
70098W        W42413   1.782  31.955   1.137
70099W        W42414  35.578  13.907  12.034
70100W        W42415  20.495  25.202   2.305
70101W        W42416   7.892   8.724   4.711
70102W        W42417   5.843   7.509  10.578
70103W        W42418  38.132  38.409   3.589
70104W        W42419  22.691  13.049  12.555
70105W        W42420  32.360  17.892  11.146
70106W        W42421  15.910  32.346   2.432
70107W        W42422  38.357  22.989  12.914
70108W        W42423  24.976   2.462   0.698
70109W        W42424  13.428  42.939   4.468
70110W        W42425  16.697  36.268  11.216
70111W        W42426  36.961  20.557  13.424
70112W        W42427  16.753  30.121   4.564
70113W        W42428  19.280  27.413   3.297
70114W        W42429   5.753  27.933  13.581
70115W        W42430  34.491  22.265   4.919
70116W        W42431  30.671  38.856   3.705
70117W        W42432  15.325  34.112  14.377
70118W        W42433  34.069  19.078  13.340
70119W        W42434  40.789   3.777  13.752
70120W        W42435  10.101  33.905   1.613
70121W        W42436  37.296  31.527   0.416
70122W        W42437  40.726  22.522   1.948
70123W        W42438  35.046  24.805  13.603
70124W        W42439  27.801  30.057   1.580
70125W        W42440   5.246  41.746  14.840
70126W        W42441  31.588  13.771   1.704
70127W        W42442   2.434  31.989  10.175
70128W        W42443  30.028  15.818  11.673
70129W        W42444  11.815  16.648  11.056
70130W        W42445  25.077  31.083   3.698
70131W        W42446  26.620  26.453  10.594
70132W        W42447  18.172  41.675  13.404
70133W        W42448  10.213  12.291   3.522
70134W        W42449   5.277   0.304  12.984
70135W        W42450  33.235  42.671  11.026
70136W        W42451   7.736   4.695   4.494
70137W        W42452  19.602  36.307   2.593
70138W        W42453  32.947   2.820  14.944
70139W        W42454  21.141  24.491  13.377
70140W        W42455  41.134  11.283   2.888
70141W        W42456  39.630  18.520   0.829
70142W        W42457  21.211  11.926  14.869
70143W        W42458  28.345  31.100  10.113
70144W        W42459  34.606  15.178  14.016
70145W        W42460  44.469  32.729   4.652
70146W        W42461  34.016   1.904  11.126
70147W        W42462  35.124  13.682  12.159
70148W        W42463   7.721  32.137  12.922
70149W        W42464  15.135  34.990  14.096
70150W        W42465   2.194  21.035  12.357
70151W        W42466  36.820  31.666  11.084
70152W        W42467   5.469  24.535  11.102
70153W        W42468  29.470  13.595  10.894
70154W        W42469  29.996  29.167   0.404
70155W        W42470  14.670  26.202  11.732
70156W        W42471  41.878  15.131   2.633
70157W        W42472  42.252  38.450   2.259
70158W        W42473  14.367  39.758  11.114
70159W        W42474   0.350  17.116  14.590
70160W        W42475   0.261   4.438  12.415
70161W        W42476   7.678  18.436  11.451
70162W        W42477  16.983  31.727  14.004
70163W        W42478  37.494   8.472  12.550
70164W        W42479  39.931   1.499  11.566
70165W        W42480  18.128  19.418   0.273
70166W        W42481  17.209  27.580   1.505
70167W        W42482   3.842  28.250  10.585
70168W        W42483  43.498  41.384   5.194
70169W        W42484  11.101  21.341   2.898
70170W        W42485  32.844   6.678  14.090
70171W        W42486   7.426  16.772  13.807
70172W        W42487  24.398  16.709   3.680
70173W        W42488  10.711  41.883  14.492
70174W        W42489  36.648   8.724   1.537
70175W        W42490  40.244  43.633   0.965
70176W        W42491   0.799   6.016  11.640
70177W        W42492  26.236  39.357   4.134
70178W        W42493  37.355  25.157   0.820
70179W        W42494  33.540  32.840   1.213
70180W        W42495  22.075  41.800   3.205
70181W        W42496  39.307   6.656   2.793
70182W        W42497   4.129   2.716  13.008
70183W        W42498  25.506  14.737   3.255
70184W        W42499   5.493  22.020   2.427
70185W        W42500  18.720   1.376   2.255
70186W        W42501  10.762  30.838  11.685
70187W        W42502  16.283  34.088   0.009
70188W        W42503  38.176   3.208   5.018
70189W        W42504   3.202  27.667   2.231
70190W        W42505  44.469  34.652   0.235
70191W        W42506  44.440  33.383   0.614
70192W        W42507   2.918  22.631  13.480
70193W        W42508  40.752  23.315   0.296
70194W        W42509  43.843  26.945   2.814
70195W        W42510  16.236   6.494   0.898
70196W        W42511   0.954   0.311  11.649
70197W        W42512  18.023   6.872  14.189
70198W        W42513  19.683   6.349   1.842
70199W        W42514  12.243  37.066  11.572
70200W        W42515  13.249  18.681  10.577
70201W        W42516  26.067  17.953  14.770
70202W        W42517  15.261  16.207  10.746
70203W        W42518  16.043   2.649   2.021
70204W        W42519  13.465  39.929   3.792
70205W        W42520  15.033  15.521   0.858
70206W        W42521   3.930  18.097  11.986
70207W        W42522   6.997  27.904   2.360
70208W        W42523  33.003  28.447  12.476
70209W        W42524  20.708  19.969   0.476
70210W        W42525  26.929  12.158  11.976
70211W        W42526   7.170  16.989  14.964
70212W        W42527   4.403  25.448  11.915
70213W        W42528  40.067  18.244   2.872
70214W        W42529  24.121  26.568   2.766
70215W        W42530  24.954   6.821   0.461
70216W        W42531   1.251  13.085  13.764
70217W        W42532  36.623   4.799  14.895
70218W        W42533   5.019  22.362  13.013
70219W        W42534  19.720   4.795  14.889
70220W        W42535  39.984  38.908  12.412
70221W        W42536  10.879  31.718  13.415
70222W        W42537  23.478   8.834  13.983
70223W        W42538  25.221   0.794  11.516
70224W        W42539  39.762  11.273  11.222
70225W        W42540  16.917  13.238  12.360
70226W        W42541  43.434  38.321  10.680
70227W        W42542  12.282  43.282  11.253
70228W        W42543   4.913  18.487  12.493
70229W        W42544  39.846  22.670  11.210
70230W        W42545  43.516  43.142   2.844
70231W        W42546  38.991  35.591   2.207
70232W        W42547  15.792  25.329   1.364
70233W        W42548  14.801  22.458  12.257
70234W        W42549  17.222  32.676   0.339
70235W        W42550   0.103  32.919  11.158
70236W        W42551  42.289  41.303   0.871
70237W        W42552  21.165  27.070  13.529
70238W        W42553  28.352  31.652   1.397
70239W        W42554  42.821  36.136  13.569
70240W        W42555  22.292  36.964   4.088
70241W        W42556  16.172  11.273   0.500
70242W        W42557  34.352  17.761  11.045
70243W        W42558  15.360   4.885  12.441
70244W        W42559  42.971  15.208  14.420
70245W        W42560  34.574  30.657  10.949
70246W        W42561  22.643  13.078  13.487
70247W        W42562  27.414  18.230   3.364
70248W        W42563  41.497  32.080  14.598
70249W        W42564  41.556  43.776  10.694
70250W        W42565  38.050  28.696   1.202
70251W        W42566  37.449  34.074   0.792
70252W        W42567  24.509   4.622  13.335
70253W        W42568  43.988  17.788   4.711
70254W        W42569  24.539  16.475   1.204
70255W        W42570   7.290   8.454  12.913
70256W        W42571  35.079  27.988  14.380
70257W        W42572  27.500  37.124  12.946
70258W        W42573  12.227  43.343   2.782
70259W        W42574  25.452  21.272   4.648
70260W        W42575  42.900   1.744   3.356
70261W        W42576  19.005  12.648  12.931
70262W        W42577  15.562  29.920  13.066
70263W        W42578  23.157  32.180   1.260
70264W        W42579  41.808  34.551  14.877
70265W        W42580  15.425  16.691   2.957
70266W        W42581  33.164  16.660  12.007
70267W        W42582  37.694  18.472   4.965
70268W        W42583  23.239  15.822  11.437
70269W        W42584  40.639  34.012  13.527
70270W        W42585  17.755   0.270  11.005
70271W        W42586  22.706  27.673  13.325
70272W        W42587  36.114  37.849   3.287
70273W        W42588  42.053  23.836  10.185
70274W        W42589  33.933  36.000   2.548
70275W        W42590  23.746  39.778  12.477
70276W        W42591  31.923  12.172   4.635
70277W        W42592   1.957  23.078   1.958
70278W        W42593  21.911   6.587   4.506
70279W        W42594   6.072  31.964   5.074
70280W        W42595  13.255  27.617  11.270
70281W        W42596  39.322  42.873  12.006
70282W        W42597  34.011  11.215   2.703
70283W        W42598  40.351  26.961   1.102
70284W        W42599  43.379  23.354   1.252
70285W        W42600  20.273  19.601  11.391
70286W        W42601   3.748  11.165  10.423
70287W        W42602   2.350  35.999   9.690
70288W        W42603  44.975  39.923  11.222
70289W        W42604  22.782  32.843   3.905
70290W        W42605  13.371  29.579  12.125
70291W        W42606  39.473   3.485   0.989
70292W        W42607  23.252  13.855   4.289
70293W        W42608   1.198  26.602  14.911
70294W        W42609  36.464  42.534  10.334
70295W        W42610  42.017  11.325   4.622
70296W        W42611  29.710  32.774   1.862
70297W        W42612  28.446  20.915  13.714
70298W        W42613   7.367   3.389   0.887
70299W        W42614  21.112  28.957   2.334
70300W        W42615  26.565  15.315   4.563
70301W        W42616   5.039   3.216   4.312
70302W        W42617   6.624   5.902  12.427
70303W        W42618   5.017  16.702   4.673
70304W        W42619  21.216  11.645   0.381
70305W        W42620  21.565  44.243  11.555
70306W        W42621  13.891   3.236  13.011
70307W        W42622  24.185   8.369   4.942
70308W        W42623  41.357  26.580  12.550
70309W        W42624  29.485  16.255   0.337
70310W        W42625   3.607   9.628   1.709
70311W        W42626   7.149  36.593  12.570
70312W        W42627  33.995   3.578   3.292
70313W        W42628  24.318   5.756  11.441
70314W        W42629  18.572  24.278  13.509
70315W        W42630  42.813  13.770  12.941
70316W        W42631  27.894   1.255  11.879
70317W        W42632  11.801   7.308  14.479
70318W        W42633   9.945   8.400  12.303
70319W        W42634   8.136  32.785   0.109
70320W        W42635  37.511  35.901   0.938
70321W        W42636  21.567   2.031   3.230
70322W        W42637   3.511  25.171  12.568
70323W        W42638  24.251  21.880  14.981
70324W        W42639  40.925  13.632  13.443
70325W        W42640  36.823  25.085  12.933
70326W        W42641  38.897   3.455   2.391
70327W        W42642  18.668  27.072   0.830
70328W        W42643  18.216  35.807  10.292
70329W        W42644   1.916  41.351   3.210
70330W        W42645  22.173  32.417  14.996
70331W        W42646   4.477  13.323  14.451
70332W        W42647  40.910   9.294   4.860
70333W        W42648  38.053  16.989  11.642
70334W        W42649  26.446  32.294  12.502
70335W        W42650  29.085  21.008  13.366
70336W        W42651  15.092  29.909  10.278
70337W        W42652  29.039   9.743   0.707
70338W        W42653  26.071  19.489  14.872
70339W        W42654   5.592   8.584  12.647
70340W        W42655  38.526  41.866  10.438
70341W        W42656  19.481  14.434   4.234
70342W        W42657  14.545  26.181   0.150
70343W        W42658  32.864  35.177   3.524
70344W        W42659  24.347  23.250   1.648
70345W        W42660  38.981  40.023  14.044
70346W        W42661  15.390   7.165   3.627
70347W        W42662  24.833  40.172   5.141
70348W        W42663  12.868  38.880   0.289
70349W        W42664  14.761  37.639   1.643
70350W        W42665  32.633  39.762  10.640
70351W        W42666  34.905  11.897  14.341
70352W        W42667   6.623   3.681   2.774
70353W        W42668  18.830  14.354  13.916
70354W        W42669   2.940  30.513  11.448
70355W        W42670  26.623  41.456  10.908
70356W        W42671  22.188  33.330  12.069
70357W        W42672  31.582  22.548  11.196
70358W        W42673  28.796  25.648  13.806
70359W        W42674  24.667  16.284   2.445
70360W        W42675   7.705  16.078   1.797
70361W        W42676   5.902  15.640  13.869
70362W        W42677  21.159  11.730   2.177
70363W        W42678  33.534  16.944   0.477
70364W        W42679  33.230  23.205   1.896
70365W        W42680  27.371   8.675   3.672
70366W        W42681  32.981  27.267  11.170
70367W        W42682   4.434  15.748  11.148
70368W        W42683  15.482   1.686  12.056
70369W        W42684  17.142  23.060   9.901
70370W        W42685   9.822  22.454  11.921
70371W        W42686  21.826  22.263  14.895
70372W        W42687  40.413  43.464  11.641
70373W        W42688   9.449   0.805   0.819
70374W        W42689  39.952  44.083   4.355
70375W        W42690  30.555  19.591  11.958
70376W        W42691  13.279  42.325   1.476
70377W        W42692  35.921  18.242  10.774
70378W        W42693  43.821  37.121   1.374
70379W        W42694   0.682  30.717  10.152
70380W        W42695  16.183  31.871  12.189
70381W        W42696  44.399  28.880  13.904
70382W        W42697   6.046  17.355  12.144
70383W        W42698  42.517   7.780  12.201
70384W        W42699  12.601  13.819   2.890
70385W        W42700  13.637  29.961   2.224
70386W        W42701  11.398  36.377   0.365
70387W        W42702  43.761  29.070  12.011
70388W        W42703  12.745   8.056  14.069
70389W        W42704  13.179  12.774  14.918
70390W        W42705  32.688  41.958   0.464
70391W        W42706  14.138  16.945   4.596
70392W        W42707  39.842  31.924   2.501
70393W        W42708  30.170  24.695   2.484
70394W        W42709  22.065  13.027   0.824
70395W        W42710  44.927  14.208   1.429
70396W        W42711  17.160  25.308   0.820
70397W        W42712  14.213   0.918   1.195
70398W        W42713  17.686  33.225   0.656
70399W        W42714  16.417  39.548   5.387
70400W        W42715   3.437   1.659   0.763
70401W        W42716  44.236  32.032  12.940
70402W        W42717   8.985  17.482   0.812
70403W        W42718  12.573  27.634   3.780
70404W        W42719  34.080  42.077   2.450
70405W        W42720  31.462  44.242   2.774
70406W        W42721  40.397   1.531   4.098
70407W        W42722  31.203  22.286  14.545
70408W        W42723  24.238  27.503   3.604
70409W        W42724  36.003  14.813   1.391
70410W        W42725  28.549   2.414  14.611
70411W        W42726   3.743  16.337  12.496
70412W        W42727  24.196  11.062   0.032
70413W        W42728  23.816  39.631   4.141
70414W        W42729  11.766   0.763   3.380
70415W        W42730  37.414  11.155  13.064
70416W        W42731  32.001  16.212  13.064
70417W        W42732   5.781  29.102   0.754
70418W        W42733   8.705  16.659  12.091
70419W        W42734  11.876  33.334  10.967
70420W        W42735   3.985  32.883   2.143
70421W        W42736   1.303   2.360   3.652
70422W        W42737  37.072  35.997   2.841
70423W        W42738   1.903  15.871   1.861
70424W        W42739  30.011  19.272   0.852
70425W        W42740  22.704  23.403  12.100
70426W        W42741   5.404  19.681   4.922
70427W        W42742  29.340  19.823   1.905
70428W        W42743  23.906  39.551   0.038
70429W        W42744  10.404  33.375   3.909
70430W        W42745   8.483  14.159   4.705
70431W        W42746   4.449  40.035  10.656
70432W        W42747  42.037  28.509  12.166
70433W        W42748  12.300   5.191   2.733
70434W        W42749   7.713  25.809   4.971
70435W        W42750   9.620  21.411   4.066
70436W        W42751  33.560   0.360  13.339
70437W        W42752  13.478   3.835   2.306
70438W        W42753  12.790  25.567  11.661
70439W        W42754  14.496  23.324   3.329
70440W        W42755  19.594  12.363   4.661
70441W        W42756  42.288  10.467  13.001
70442W        W42757  18.911  12.916   0.624
70443W        W42758  15.874  41.143  12.966
70444W        W42759  43.279  18.697   2.750
70445W        W42760  24.861  19.324  12.340
70446W        W42761  29.694   9.197   0.756
70447W        W42762  33.825  34.446   3.080
70448W        W42763   7.341   3.347   3.796
70449W        W42764  37.487   1.919  13.617
70450W        W42765  39.497  26.276  11.062
70451W        W42766  42.331   9.167   2.750
70452W        W42767  21.939  24.641   1.420
70453W        W42768  21.636  27.042   2.371
70454W        W42769   9.270  35.948   4.842
70455W        W42770  16.857  23.165   1.411
70456W        W42771  20.304  28.502   1.701
70457W        W42772  22.588  27.709   3.221
70458W        W42773  44.364  19.649   3.714
70459W        W42774  30.660  42.083   0.181
70460W        W42775  16.253  14.643  11.975
70461W        W42776  20.093  16.366   1.317
70462W        W42777   2.548  16.380  12.602
70463W        W42778  26.209  13.793  13.427
70464W        W42779  24.070  43.548  13.258
70465W        W42780   8.419  43.409  11.675
70466W        W42781  35.620  15.159   0.788
70467W        W42782   9.395  17.060  14.004
70468W        W42783  37.139  32.843   4.520
70469W        W42784   5.284  33.093   3.693
70470W        W42785  37.598  30.553  11.545
70471W        W42786  36.153  36.915  13.898
70472W        W42787  21.761  32.104   4.272
70473W        W42788  16.233  28.721  11.542
70474W        W42789  12.797  16.093   2.233
70475W        W42790  35.565   0.532   4.613
70476W        W42791  11.329  18.761  11.035
70477W        W42792  28.449  40.454  10.558
70478W        W42793  14.660  30.037  13.279
70479W        W42794  22.500  27.752   4.070
70480W        W42795  25.812  28.512   0.363
70481W        W42796  15.427  43.370  13.027
70482W        W42797  13.750   0.431   3.802
70483W        W42798  21.353  12.622  12.028
70484W        W42799  20.252  12.923   4.173
70485W        W42800  41.421   7.482  13.723
70486W        W42801  10.872  19.979   0.719
70487W        W42802  22.800   6.285  11.185
70488W        W42803  43.734  38.845   3.268
70489W        W42804  20.063  40.484   2.811
70490W        W42805  35.610   6.243   4.618
70491W        W42806  34.594  19.540   2.699
70492W        W42807   3.563   5.834  11.781
70493W        W42808   2.879   2.928  13.865
70494W        W42809  38.006  12.385   1.238
70495W        W42810  37.551  43.172  10.966
70496W        W42811  23.978  18.196   3.126
70497W        W42812  36.236  12.639   4.280
70498W        W42813  31.300  43.780  12.644
70499W        W42814  13.181  33.986  11.421
70500W        W42815  33.542  20.315   0.845
70501W        W42816  26.223  18.702  12.553
70502W        W42817  44.811   2.948  13.265
70503W        W42818  40.629  31.881  11.615
70504W        W42819  40.764  22.318   2.861
70505W        W42820  20.546  33.919   0.259
70506W        W42821  11.105  28.762   4.575
70507W        W42822  33.639  40.101  10.365
70508W        W42823  40.822  33.568   2.905
70509W        W42824   3.903   0.936   3.227
70510W        W42825  15.206  20.557  11.856
70511W        W42826  20.706  33.783  11.533
70512W        W42827   6.124   1.822  12.502
70513W        W42828  19.763  10.965  11.569
70514W        W42829   3.840   6.671  13.900
70515W        W42830  26.363  22.720   1.798
70516W        W42831  18.196  32.614  12.406
70517W        W42832   3.517  14.093   3.649
70518W        W42833   9.973  13.382   0.684
70519W        W42834  19.700  25.218   1.251
70520W        W42835   1.854  23.685   1.782
70521W        W42836  21.348   0.325   0.711
70522W        W42837  34.591  27.541  11.982
70523W        W42838  24.512  28.599   1.030
70524W        W42839  21.199  42.796   3.299
70525W        W42840  17.930   8.890   3.936
70526W        W42841   7.984   2.707  11.306
70527W        W42842  39.612  36.593  14.052
70528W        W42843  13.687   3.152   3.311
70529W        W42844  14.297  26.916  14.008
70530W        W42845   0.794   6.413   1.690
70531W        W42846  22.544  18.771   3.055
70532W        W42847   6.408  38.025   4.192
70533W        W42848  16.017  16.334  13.476
70534W        W42849  27.006  15.824   3.604
70535W        W42850  37.740  44.975   4.105
70536W        W42851  44.665   0.075   4.503
70537W        W42852   0.180  27.154   0.770
70538W        W42853  20.966   0.837   1.413
70539W        W42854  41.068  10.806  12.483
70540W        W42855   1.843  34.852   0.494
70541W        W42856   4.331   1.856  10.851
70542W        W42857  25.236   7.406   4.554
70543W        W42858  29.439  36.739   2.640
70544W        W42859  32.979  25.204   2.831
70545W        W42860  35.054  30.760  11.105
70546W        W42861  25.986  16.746  10.623
70547W        W42862  43.460  21.087  12.769
70548W        W42863  14.802  20.439  11.145
70549W        W42864  36.039  22.463  11.197
70550W        W42865  38.922  18.789   1.796
70551W        W42866  42.994  26.760   3.221
70552W        W42867   5.350  29.408  11.944
70553W        W42868   9.358  19.744  13.629
70554W        W42869  32.190   8.892   2.316
70555W        W42870  33.960   2.101   4.638
70556W        W42871  21.581  28.906   0.881
70557W        W42872  37.744  14.410  14.921
70558W        W42873  25.899  38.831   1.444
70559W        W42874  36.491  43.617   0.115
70560W        W42875   7.202  22.520   4.003
70561W        W42876  10.518  37.849  14.455
70562W        W42877   9.691   8.800  12.547
70563W        W42878   3.251  42.540   0.480
70564W        W42879  17.189  36.099   1.718
70565W        W42880   2.472  19.402  13.745
70566W        W42881  19.151  32.525   4.693
70567W        W42882  35.255  29.971   2.285
70568W        W42883  25.558  22.513  14.416
70569W        W42884  28.288  37.687   0.770
70570W        W42885   3.970   2.491   1.799
70571W        W42886  22.053   8.782   2.751
70572W        W42887  17.089  26.632  10.678
70573W        W42888  23.983  22.945   1.854
70574W        W42889  29.329  31.047   0.907
70575W        W42890   5.477   0.959  11.472
70576W        W42891  17.319  19.505  12.215
70577W        W42892  43.230   9.105  12.007
70578W        W42893   1.018  40.496   1.278
70579W        W42894  25.311  25.279  11.733
70580W        W42895  34.384  37.057   1.779
70581W        W42896  36.669  25.518   2.811
70582W        W42897  25.126  10.912   3.948
70583W        W42898  31.616  17.036   4.242
70584W        W42899  32.403   0.986  12.937
70585W        W42900  25.575  42.523   2.148
70586W        W42901   4.979  34.944   0.319
70587W        W42902  20.674  28.044   4.438
70588W        W42903   0.829  11.904   5.327
70589W        W42904  13.686  15.955  12.685
70590W        W42905  17.631  10.559   4.267
70591W        W42906  44.357  25.952   3.461
70592W        W42907   8.697  31.223   3.238
70593W        W42908   7.149   6.957   3.094
70594W        W42909  33.519  14.761   3.186
70595W        W42910   0.270  18.567  11.710
70596W        W42911  16.746   0.524   3.362
70597W        W42912  43.739  10.097  11.158
70598W        W42913  41.335  32.922  14.048
70599W        W42914   5.506  22.492   1.633
70600W        W42915  41.921  39.838   4.011
70601W        W42916  19.211  29.731  13.503
70602W        W42917  35.288  14.632   4.649
70603W        W42918   7.771  26.693   4.014
70604W        W42919  25.977   9.591   1.229
70605W        W42920  14.102   5.745   4.048
70606W        W42921   9.687  29.409   4.471
70607W        W42922   3.296  28.207   0.279
70608W        W42923  29.030  11.347   1.692
70609W        W42924   7.538  27.974  14.783
70610W        W42925  15.149   5.504  13.089
70611W        W42926  33.048   8.213  13.275
70612W        W42927  24.694  32.135  10.261
70613W        W42928  44.359  20.081   3.998
70614W        W42929  17.293   5.105   0.289
70615W        W42930   4.231  39.885   0.381
70616W        W42931  37.392  38.853  10.789
70617W        W42932   5.678  38.722  12.931
70618W        W42933  37.631  36.945   1.223
70619W        W42934  28.636  36.144   1.919
70620W        W42935  42.040  36.339   2.282
70621W        W42936  20.849  13.025   0.212
70622W        W42937   4.703   4.440  14.383
70623W        W42938  42.107  42.008  13.420
70624W        W42939   7.139  29.203   0.398
70625W        W42940  42.983  24.770  14.988
70626W        W42941  28.042  40.048  14.256
70627W        W42942  10.880  33.707  11.234
70628W        W42943  21.597  12.116  13.851
70629W        W42944  38.974  40.397   1.644
70630W        W42945  20.523  16.362  11.623
70631W        W42946  32.177   1.527   0.852
70632W        W42947  17.206   8.337  12.771
70633W        W42948  36.543  17.756  11.124
70634W        W42949  27.452   5.101  10.244
70635W        W42950  15.618  43.071   2.199
70636W        W42951  31.926  12.977  11.360
70637W        W42952  12.179  43.165   1.310
70638W        W42953  39.013  25.256   1.888
70639W        W42954  44.835  37.525   0.893
70640W        W42955   5.998   2.048   0.918
70641W        W42956  36.202  33.526   0.370
70642W        W42957   3.737  13.067  12.437
70643W        W42958  23.103  44.972  12.761
70644W        W42959   1.105  23.857   3.836
70645W        W42960   3.550  31.962  10.073
70646W        W42961  16.859  35.608  13.087
70647W        W42962  22.250  11.191   2.297
70648W        W42963  29.431  10.892  14.291
70649W        W42964  12.780  28.807   3.397
70650W        W42965  28.265  26.820  12.738
70651W        W42966  43.285  24.929  12.103
70652W        W42967   0.731  14.853   1.276
70653W        W42968  37.546  32.981   2.611
70654W        W42969  25.471  36.659   4.095
70655W        W42970  30.835  44.866   1.019
70656W        W42971  24.618   2.810  11.433
70657W        W42972  12.658  28.851   2.850
70658W        W42973  43.377  35.912   3.770
70659W        W42974  44.279  35.103   0.769
70660W        W42975  34.012  19.324  12.009
70661W        W42976   8.364  23.201  11.511
70662W        W42977  42.984   3.928  10.708
70663W        W42978  23.003  22.978   3.753
70664W        W42979  33.408  27.903  14.985
70665W        W42980  26.476  18.641   4.249
70666W        W42981  34.053  21.112  14.440
70667W        W42982  13.772   6.731   3.652
70668W        W42983  33.958   2.080   0.277
70669W        W42984  11.162  40.528  14.485
70670W        W42985  36.100  14.073  13.870
70671W        W42986  12.696  15.190   2.436
70672W        W42987  24.219   6.984   2.381
70673W        W42988  15.137  35.062   0.893
70674W        W42989   3.934   9.109  12.631
70675W        W42990   6.283  21.076  11.180
70676W        W42991  12.446  32.428  11.212
70677W        W42992  44.971  35.679  13.609
70678W        W42993  12.288  14.091  13.098
70679W        W42994  13.184  18.587  13.324
70680W        W42995   9.371  27.569  10.415
70681W        W42996  27.066  37.888   3.293
70682W        W42997  42.783  41.093  14.453
70683W        W42998   6.213   6.095   4.971
70684W        W42999  26.189  20.734  11.649
70685W        W43000  13.794  41.297  13.437
70686W        W43001   7.709   6.346  14.313
70687W        W43002  28.563  15.280  13.068
70688W        W43003  24.027  21.218  11.592
70689W        W43004  26.602  37.575   4.239
70690W        W43005  26.547   6.231   1.654
70691W        W43006  22.026  35.927  14.346
70692W        W43007  36.512  12.569   3.244
70693W        W43008   8.452  24.215  13.069
70694W        W43009  12.101  19.206   2.038
70695W        W43010  32.331  30.009  13.391
70696W        W43011   4.832  14.384   4.475
70697W        W43012  15.856  33.145   1.669
70698W        W43013  26.456   8.109   1.893
70699W        W43014  20.154  30.015   0.886
70700W        W43015  43.417  21.126  11.739
70701W        W43016  32.657  23.154  11.627
70702W        W43017  24.117  17.160   3.198
70703W        W43018  35.104  39.353  14.423
70704W        W43019  39.973  36.378   2.251
70705W        W43020   1.739   3.959   1.366
70706W        W43021  14.253   8.426  13.064
70707W        W43022   3.068   7.437  14.914
70708W        W43023  21.021  21.726   3.611
70709W        W43024  23.252  22.038  12.046
70710W        W43025  38.889  30.088   4.419
70711W        W43026   0.810  23.200   3.291
70712W        W43027  38.232  10.093  11.060
70713W        W43028   0.244  36.861   9.790
70714W        W43029   6.502  44.917  14.816
70715W        W43030  14.778  11.632  13.573
70716W        W43031  40.445  14.137   4.726
70717W        W43032   3.079  43.936   1.622
70718W        W43033  32.551   4.738   0.470
70719W        W43034  24.042  11.786   0.545
70720W        W43035  21.128  19.686   0.291
70721W        W43036  23.915  11.130   4.137
70722W        W43037   5.998  12.129  10.688
70723W        W43038  34.415  13.389  13.860
70724W        W43039  12.480  12.470   1.543
70725W        W43040  25.140   5.279   4.250
70726W        W43041  10.598  35.604   2.895
70727W        W43042  20.924  12.749   3.626
70728W        W43043   7.774  36.772   0.999
70729W        W43044  43.928  32.092   2.251
70730W        W43045  16.346   4.477   2.334
70731W        W43046  33.719  28.924   3.713
70732W        W43047  12.352  28.658  13.945
70733W        W43048  38.155   5.143   2.381
70734W        W43049  43.201  25.992  11.602
70735W        W43050  43.695  27.268  13.441
70736W        W43051   2.717  38.959  11.528
70737W        W43052  25.662   4.264   5.422
70738W        W43053  31.129  29.537  12.830
70739W        W43054   7.631  44.269  14.397
70740W        W43055  29.205  17.173  14.896
70741W        W43056  14.526  18.772   1.423
70742W        W43057   7.373  29.955  14.969
70743W        W43058  15.219  12.362   3.837
70744W        W43059   8.844  29.615  13.296
70745W        W43060  13.688   3.522   1.854
70746W        W43061  16.720   1.036   4.230
70747W        W43062  34.098  34.515  10.809
70748W        W43063  25.239  18.018  13.480
70749W        W43064  29.358  13.704   0.443
70750W        W43065  10.620   9.162   2.791
70751W        W43066  18.571  32.441  11.141
70752W        W43067  15.262   8.223   3.542
70753W        W43068   4.056  32.947   3.133
70754W        W43069  41.650  24.229   3.689
70755W        W43070  21.186  28.537  14.284
70756W        W43071  37.151  21.772  10.741
70757W        W43072  22.736  12.829  11.200
70758W        W43073  30.192  28.477   3.191
70759W        W43074  22.930  14.200  11.353
70760W        W43075  20.650   1.919   3.713
70761W        W43076   0.511  20.039   3.450
70762W        W43077  36.805  22.200   2.817
70763W        W43078  20.235  16.239  13.475
70764W        W43079  12.578  14.470   4.303
70765W        W43080   2.949  15.507  12.078
70766W        W43081  29.202   8.704  14.961
70767W        W43082  18.829   7.295  13.221
70768W        W43083  21.776  14.856   2.756
70769W        W43084  44.987  10.714  11.280
70770W        W43085  12.059  19.222  10.057
70771W        W43086  41.955  20.058   1.815
70772W        W43087  37.658  22.684  10.644
70773W        W43088  15.500  31.973   4.186
70774W        W43089  14.031  26.401  14.910
70775W        W43090  32.937  41.447  13.046
70776W        W43091  43.717  19.661   2.915
70777W        W43092   3.545  31.871  14.492
70778W        W43093  16.429  13.297  13.490
70779W        W43094  41.064   9.482  11.554
70780W        W43095   7.124  17.075  13.003
70781W        W43096  13.543  42.410  12.098
70782W        W43097  36.755  24.966  11.500
70783W        W43098  35.460  34.215   2.957
70784W        W43099  27.478  23.468  11.687
70785W        W43100  39.353   1.544  10.568
70786W        W43101  18.284  44.587  12.917
70787W        W43102  26.429  31.189   0.859
70788W        W43103  29.293  33.160   5.347
70789W        W43104  38.073  33.045   1.712
70790W        W43105  35.119  16.216  14.526
70791W        W43106  39.349  16.997   0.847
70792W        W43107   9.283  44.527  11.485
70793W        W43108  32.905  43.991  10.307
70794W        W43109  44.592  43.445   3.665
70795W        W43110  17.600  39.145   3.511
70796W        W43111  17.747   0.294  12.448
70797W        W43112  36.531   4.670   1.968
70798W        W43113  23.756   7.179   2.234
70799W        W43114  32.971  23.401   1.473
70800W        W43115   7.128  42.446   2.863
70801W        W43116  21.831  13.436   4.353
70802W        W43117  29.231  21.556   4.488
70803W        W43118  39.276  34.970   4.329
70804W        W43119  30.610  18.575   3.754
70805W        W43120  15.120  15.218  14.412
70806W        W43121  32.452  42.455  12.908
70807W        W43122   7.222  15.004  12.871
70808W        W43123  20.105   5.293  14.497
70809W        W43124   1.931  42.852  11.138
70810W        W43125  37.782  14.011   2.384
70811W        W43126   7.863  29.071   3.339
70812W        W43127  35.111  10.867   2.431
70813W        W43128  12.748  34.102   4.238
70814W        W43129  30.939  31.088   4.642
70815W        W43130  30.040  43.939   4.415
70816W        W43131   1.250  28.122  13.982
70817W        W43132  37.803  10.698  12.838
70818W        W43133  33.534  42.198   4.545
70819W        W43134  20.562  22.428  10.314
70820W        W43135  19.982  28.648   2.878
70821W        W43136  20.808  14.448   3.132
70822W        W43137  19.814  32.993  12.086
70823W        W43138  36.874  18.199   2.531
70824W        W43139   3.715  10.773  13.263
70825W        W43140   3.019  20.066  12.453
70826W        W43141  14.706  35.533  12.986
70827W        W43142  18.573  26.043  13.322
70828W        W43143  35.944  37.770  13.551
70829W        W43144  29.514   6.095  10.565
70830W        W43145  27.943  23.553  14.301
70831W        W43146   0.347  31.008   2.268
70832W        W43147  42.460   5.707   0.500
70833W        W43148  24.746   0.876   0.737
70834W        W43149  33.379  37.055   0.080
70835W        W43150   8.239   2.514  12.603
70836W        W43151  34.872  17.547  10.900
70837W        W43152  16.678  19.600  13.453
70838W        W43153  33.696  24.465   1.984
70839W        W43154   1.360  42.083   4.734
70840W        W43155  36.844  43.077  14.534
70841W        W43156  33.619  28.773  10.819
70842W        W43157  20.532   2.740   1.366
70843W        W43158   5.695   4.011  10.810
70844W        W43159   2.751   9.913  12.858
70845W        W43160   8.091  10.220  12.420
70846W        W43161  41.576  24.626   0.899
70847W        W43162   1.209  35.552   3.260
70848W        W43163  22.549  27.338   2.866
70849W        W43164  28.810   5.679   1.810
70850W        W43165  42.265  40.037  11.603
70851W        W43166  10.441   5.883   1.780
70852W        W43167  20.401  35.834  11.078
70853W        W43168  19.296  43.769   2.899
70854W        W43169  33.955   9.175  13.425
70855W        W43170   7.933  43.059   1.412
70856W        W43171   0.883   3.431  11.580
70857W        W43172  11.686  35.847  12.136
70858W        W43173  41.933   7.296   4.323
70859W        W43174  44.831   9.591   4.124
70860W        W43175  36.138  37.304   3.200
70861W        W43176  36.408  26.173   1.928
70862W        W43177  21.431  15.007   3.403
70863W        W43178  31.457  19.710   1.846
70864W        W43179  28.475   6.359   1.725
70865W        W43180  18.392  29.229   1.819
70866W        W43181   5.795  37.560  14.449
70867W        W43182  44.943   9.007   2.472
70868W        W43183  11.118  24.292   0.870
70869W        W43184  39.125  17.625   4.176
70870W        W43185  19.025  40.787   1.312
70871W        W43186  17.694  28.192  11.270
70872W        W43187  11.646  34.352  11.819
70873W        W43188   0.810  27.924  14.239
70874W        W43189  30.143  34.606  13.064
70875W        W43190  12.498  41.811  12.369
70876W        W43191  41.325  17.797  11.606
70877W        W43192  37.744  44.542  10.762
70878W        W43193  13.651  20.250   0.251
70879W        W43194  36.429  21.049   2.137
70880W        W43195   0.475  21.227   0.468
70881W        W43196   7.120  42.290  11.199
70882W        W43197  30.613  28.981  12.932
70883W        W43198  44.287  39.591   1.604
70884W        W43199  44.734  44.581  12.001
70885W        W43200  25.207  19.811   4.569
70886W        W43201  18.368  31.228   1.566
70887W        W43202  10.990  41.449  13.900
70888W        W43203  22.905  19.746  11.454
70889W        W43204  25.543  33.646   4.424
70890W        W43205  40.360  14.968   0.446
70891W        W43206  12.409  26.161  11.039
70892W        W43207  39.628  30.115  12.080
70893W        W43208  20.665  13.542  12.301
70894W        W43209  13.104  35.100  13.554
70895W        W43210   9.156  34.448   1.433
70896W        W43211   9.428  27.498  12.099
70897W        W43212   6.002   7.999  10.482
70898W        W43213  38.885   8.304   1.273
70899W        W43214  38.353  28.933  13.097
70900W        W43215  26.514  33.050   0.814
70901W        W43216  40.619  15.832   2.196
70902W        W43217  17.045  15.266   2.399
70903W        W43218  11.662   8.784   4.530
70904W        W43219  11.673  40.913   3.593
70905W        W43220  34.330  26.614   1.325
70906W        W43221  21.058  22.345   4.751
70907W        W43222  10.707   1.360  13.468
70908W        W43223   0.735   9.279  12.474
70909W        W43224  25.958  25.128  14.691
70910W        W43225  22.059  41.444  12.448
70911W        W43226  36.362   1.042  11.122
70912W        W43227   5.278  25.623  14.498
70913W        W43228  37.019   4.245   2.437
70914W        W43229  37.090  18.274  12.118
70915W        W43230   6.932   2.535  14.319
70916W        W43231  12.163  26.269   0.596
70917W        W43232  19.148  17.560   4.960
70918W        W43233  43.520   2.946   3.147
70919W        W43234   4.930   0.813   0.115
70920W        W43235  11.876  19.780  12.372
70921W        W43236   0.472  26.131   3.274
70922W        W43237  13.711  42.689   3.632
70923W        W43238  22.559  15.298  14.782
70924W        W43239  34.541  38.963   1.253
70925W        W43240  22.929  39.406   0.894
70926W        W43241  31.678  18.286   1.316
70927W        W43242  32.347  42.831  14.376
70928W        W43243  14.834   8.193   3.224
70929W        W43244  28.047   9.906  11.096
70930W        W43245   0.403  19.979  12.489
70931W        W43246  42.280  27.695  11.673
70932W        W43247  35.344   0.050  13.612
70933W        W43248  42.343  18.489   1.830
70934W        W43249   3.486   0.270   3.108
70935W        W43250   7.574  36.869  13.256
70936W        W43251   6.560  42.297   2.906
70937W        W43252  30.239  28.589  11.634
70938W        W43253  41.492  14.862   1.508
70939W        W43254   6.642  22.016   3.855
70940W        W43255  22.735  41.849   2.798
70941W        W43256  44.879  38.031   4.385
70942W        W43257   6.266  14.044   1.432
70943W        W43258  44.485  24.206   1.957
70944W        W43259  21.508  12.713  13.415
70945W        W43260  19.124   0.058  14.791
70946W        W43261   0.008   3.811  13.794
70947W        W43262   5.266  37.620   3.673
70948W        W43263   8.887   4.301   1.534
70949W        W43264  15.756  38.909   3.794
70950W        W43265  36.685  43.306   3.585
70951W        W43266  32.477  15.126  14.966
70952W        W43267  23.583  15.710   2.803
70953W        W43268  30.739  13.917   1.269
70954W        W43269  23.164  38.025  14.399
70955W        W43270  16.597   8.410  14.825
70956W        W43271  42.498  20.104   0.117
70957W        W43272  37.946  20.330   1.809
70958W        W43273   3.303  15.134   0.068
70959W        W43274  27.070  24.091   0.982
70960W        W43275  40.260  19.560   4.175
70961W        W43276   4.296  33.903   1.873
70962W        W43277   1.684  42.761  10.698
70963W        W43278   0.433  27.842   3.277
70964W        W43279  35.652   2.021  11.952
70965W        W43280  25.095  30.573   1.736
70966W        W43281  42.514  20.125   0.950
70967W        W43282  26.108  24.419   1.339
70968W        W43283   3.229  37.564   4.737
70969W        W43284  14.949   5.135   0.238
70970W        W43285  26.473  30.146   4.081
70971W        W43286  41.257  23.176   0.348
70972W        W43287  12.669  39.374  10.683
70973W        W43288  29.696  18.557   2.747
70974W        W43289  22.522  28.452   3.809
70975W        W43290   9.073  31.661  13.898
70976W        W43291  42.972   7.744  11.827
70977W        W43292  29.039  29.480  11.909
70978W        W43293   8.636  15.861  13.102
70979W        W43294  40.250  17.628   1.629
70980W        W43295  15.263  42.094   1.235
70981W        W43296  23.192  17.096   0.643
70982W        W43297   9.137   1.461   0.639
70983W        W43298  19.735  26.601   1.665
70984W        W43299  17.593   2.691  10.704
70985W        W43300   4.803  35.676   1.927
70986W        W43301  29.235  31.401   2.412
70987W        W43302  37.406   7.934   0.793
70988W        W43303   7.139  37.836  14.504
70989W        W43304  42.324  35.726  14.943
70990W        W43305   9.830  20.844  12.415
70991W        W43306  11.596   6.066   4.385
70992W        W43307   3.355  28.688   1.004
70993W        W43308  20.138   9.445  12.004
70994W        W43309  26.007   9.845  13.868
70995W        W43310  15.464  37.199   4.748
70996W        W43311  15.313  16.585   4.283
70997W        W43312  42.097  19.408   3.245
70998W        W43313  30.647  20.690  12.154
70999W        W43314  20.000  42.413   1.330
71000W        W43315  11.723  13.888   0.330
71001W        W43316  22.772  39.671   1.783
71002W        W43317  33.864  42.801   3.000
71003W        W43318  38.104  42.591  11.355
71004W        W43319  28.289  35.503   4.190
71005W        W43320  22.212  25.144   2.282
71006W        W43321  26.197   2.843   4.580
71007W        W43322  26.193  31.441   0.426
71008W        W43323   6.239  32.483  11.220
71009W        W43324  39.069   5.365   4.830
71010W        W43325  15.787  18.540   0.813
71011W        W43326  32.827  12.798  11.482
71012W        W43327  12.386   4.770  13.382
71013W        W43328  16.607  13.106  14.787
71014W        W43329  34.893  21.505  12.953
71015W        W43330  35.341  43.448  11.589
71016W        W43331  12.087  29.503  10.629
71017W        W43332  35.137  13.574  12.667
71018W        W43333   8.223   5.586   2.530
71019W        W43334  38.410   2.799   4.312
71020W        W43335  35.939  34.043   2.813
71021W        W43336   7.768  44.255   3.714
71022W        W43337  10.176  40.410   4.528
71023W        W43338  16.734  13.674   1.411
71024W        W43339  37.845   6.204  10.395
71025W        W43340  22.333  12.311   1.496
71026W        W43341  37.348  28.054  10.519
71027W        W43342  19.297  17.751  13.184
71028W        W43343   2.447  15.276   3.448
71029W        W43344  29.850   8.043   0.412
71030W        W43345  44.307  33.804  11.978
71031W        W43346  31.071   2.321  14.889
71032W        W43347   0.493   5.812  12.909
71033W        W43348   0.342  33.231   0.830
71034W        W43349   5.795  38.500   3.839
71035W        W43350  41.820   6.005   2.996
71036W        W43351   4.321  19.899   1.661
71037W        W43352   2.171  36.880   2.631
71038W        W43353  11.579   1.060   4.380
71039W        W43354   1.084  28.532  14.242
71040W        W43355  10.273   1.325   2.150
71041W        W43356   2.563  27.573  14.487
71042W        W43357   0.782  12.682  11.526
71043W        W43358  41.723  10.353  11.724
71044W        W43359  40.664  43.349   0.853
71045W        W43360  12.663  42.310  12.342
71046W        W43361  42.472  40.095   3.193
71047W        W43362   0.105  44.157   0.301
71048W        W43363  39.845  11.660  11.565
71049W        W43364  34.054   0.957  13.011
71050W        W43365  21.308  21.551  13.401
71051W        W43366  12.359  15.828  10.782
71052W        W43367  31.862  30.499   2.971
71053W        W43368  24.802  10.708  12.339
71054W        W43369  28.823  30.601  14.205
71055W        W43370  13.923  35.609   0.427
71056W        W43371  34.137  36.403  11.144
71057W        W43372  24.380  29.652   2.216
71058W        W43373  25.086   1.674   1.299
71059W        W43374   1.905  16.749   2.088
71060W        W43375  17.177  27.252  11.537
71061W        W43376  20.118  35.658  13.456
71062W        W43377   5.308  22.752  12.038
71063W        W43378  23.037  40.867  14.023
71064W        W43379  15.109  22.567  10.622
71065W        W43380  41.996  25.675   1.889
71066W        W43381  22.022  39.043  11.987
71067W        W43382  27.915  24.221   4.278
71068W        W43383  32.585   3.959  14.875
71069W        W43384   0.903  10.247  14.278
71070W        W43385  19.239  26.841   2.301
71071W        W43386   8.832  29.027   0.899
71072W        W43387   7.805  17.324  14.993
71073W        W43388  15.330   6.752  14.253
71074W        W43389  38.871  17.750   1.800
71075W        W43390  20.309  21.507  10.690
71076W        W43391   6.237  21.743   4.330
71077W        W43392   9.387  32.449   0.318
71078W        W43393  34.881  43.353  13.535
71079W        W43394  39.926   4.099  13.340
71080W        W43395  34.562  34.273  10.800
71081W        W43396   5.769  22.073  13.497
71082W        W43397  36.004  21.502  11.996
71083W        W43398  22.334  20.026  10.165
71084W        W43399   8.825  16.523   1.067
71085W        W43400  33.778  15.757  14.805
71086W        W43401  25.234   3.419   1.411
71087W        W43402  17.289  36.555   0.996
71088W        W43403  33.374  32.049  10.446
71089W        W43404  17.161  40.748   3.317
71090W        W43405  44.057  43.496   2.250
71091W        W43406  34.860  16.951  13.573
71092W        W43407  23.016  37.221   2.726
71093W        W43408  43.021  37.371  13.151
71094W        W43409   0.833  28.265   3.720
71095W        W43410  21.990  29.585   3.839
71096W        W43411  11.695  10.863   1.257
71097W        W43412  12.001   6.108   2.739
71098W        W43413  11.221  25.231   2.905
71099W        W43414  17.666   4.406  14.292
71100W        W43415  11.088   2.970   1.864
71101W        W43416  40.062  40.040   2.869
71102W        W43417  41.319   1.623   3.576
71103W        W43418  36.424  35.972   1.574
71104W        W43419   0.397  24.102   4.000
71105W        W43420  28.469  15.335  10.812
71106W        W43421  21.065  23.680  12.074
71107W        W43422  13.680  35.623   1.284
71108W        W43423   4.559  28.160  14.795
71109W        W43424  24.815  34.667  13.331
71110W        W43425  12.702  25.418   3.671
71111W        W43426  32.308  14.553   1.275
71112W        W43427  42.120  23.666  11.485
71113W        W43428  21.707  12.060   4.185
71114W        W43429  33.622  25.970   2.615
71115W        W43430   3.835   7.407   4.671
71116W        W43431  27.069  41.309  11.154
71117W        W43432   6.863  32.856   0.817
71118W        W43433   0.847  20.722  14.551
71119W        W43434  32.567  34.058  11.996
71120W        W43435   5.042  10.325   3.350
71121W        W43436  42.931  21.280   3.132
71122W        W43437  43.535  28.886  11.468
71123W        W43438  18.539   8.351   2.830
71124W        W43439   2.300  38.687   1.024
71125W        W43440  21.083   0.864   2.429
71126W        W43441  15.326  44.981  14.105
71127W        W43442  40.563   3.297   3.394
71128W        W43443  14.548  41.053   3.214
71129W        W43444  10.176  29.252  10.368
71130W        W43445  36.653   6.485  10.173
71131W        W43446  16.871   6.709   1.911
71132W        W43447   3.495   2.141  12.816
71133W        W43448  20.015   6.998  10.634
71134W        W43449  33.979   2.793   0.744
71135W        W43450  19.663   3.354   1.218
71136W        W43451  17.866  30.974  12.898
71137W        W43452  38.335  21.508  13.827
71138W        W43453  20.613  35.340   2.225
71139W        W43454   7.892  14.285   3.073
71140W        W43455  30.575  15.780  14.359
71141W        W43456  40.055  34.009   2.784
71142W        W43457  26.120  33.513   3.228
71143W        W43458  26.672   6.197  11.047
71144W        W43459  32.346  41.253  10.655
71145W        W43460  39.360   4.611   0.031
71146W        W43461   6.100  30.600   2.266
71147W        W43462  10.274   3.252   0.658
71148W        W43463  39.052  13.183   1.395
71149W        W43464  38.028  34.364   1.204
71150W        W43465   2.734  43.156  14.564
71151W        W43466  19.939  11.835  12.446
71152W        W43467   1.710  42.515   0.365
71153W        W43468  10.759  33.539  14.290
71154W        W43469  25.997   8.749   0.031
71155W        W43470  37.819   3.853  10.541
71156W        W43471  19.763   0.627   5.024
71157W        W43472  12.220  39.484   2.904
71158W        W43473  26.800  23.563   2.698
71159W        W43474   5.324  26.701   2.930
71160W        W43475   6.911  14.126   3.327
71161W        W43476  41.565  16.976   0.004
71162W        W43477  24.195  10.241   4.552
71163W        W43478   4.771   8.193  12.643
71164W        W43479  21.363  37.140   4.300
71165W        W43480   1.828  36.936  12.598
71166W        W43481  33.101  41.895   3.250
71167W        W43482  34.839   9.922  14.873
71168W        W43483  31.158   9.153  14.686
71169W        W43484  37.576  19.982   1.752
71170W        W43485  18.058   9.413   4.691
71171W        W43486   5.764  35.959   2.320
71172W        W43487  30.159  17.704  14.319
71173W        W43488  19.283  44.191   0.893
71174W        W43489  15.363  36.405  14.000
71175W        W43490   5.726  36.187   1.834
71176W        W43491  33.407   8.175   2.234
71177W        W43492   9.935   4.369   3.652
71178W        W43493  10.709  20.602   3.392
71179W        W43494  12.362  44.319   1.770
71180W        W43495  30.777  43.032   4.914
71181W        W43496  28.579   6.438  10.237
71182W        W43497  34.047  20.015   0.654
71183W        W43498  25.017  35.704   2.447
71184W        W43499  14.325  13.270   1.793
71185W        W43500   3.878  11.948  12.064
71186W        W43501   5.405  12.064   3.315
71187W        W43502  37.357  26.388   2.654
71188W        W43503  23.043   4.979   2.300
71189W        W43504  35.148  27.360   2.239
71190W        W43505  11.716  26.025   3.199
71191W        W43506   6.587  36.928   4.101
71192W        W43507  43.799  22.044   2.692
71193W        W43508  17.173   1.991   0.409
71194W        W43509  26.358   3.428   2.190
71195W        W43510  15.865  34.428  12.544
71196W        W43511   2.491  21.471  12.356
71197W        W43512  24.523  28.257  12.047
71198W        W43513  26.213  19.622   3.980
71199W        W43514  12.208   5.818   0.269
71200W        W43515  20.546   6.085  12.787
71201W        W43516  31.144  43.045  11.878
71202W        W43517  23.010  29.863   2.884
71203W        W43518  18.739   4.329   0.335
71204W        W43519  21.201  35.823   0.876
71205W        W43520  23.921   9.186  12.068
71206W        W43521  32.282  10.135   1.163
71207W        W43522  35.316  20.261   3.121
71208W        W43523   1.207  39.063  10.839
71209W        W43524  37.413  17.372   0.353
71210W        W43525  25.184  38.618   2.186
71211W        W43526  36.074  31.632   3.061
71212W        W43527  22.628   2.533   4.014
71213W        W43528   1.859  32.805  11.478
71214W        W43529   7.379   0.456  14.132
71215W        W43530  22.270  25.711  11.113
71216W        W43531   4.965  26.652   4.596
71217W        W43532   2.183  21.558   3.548
71218W        W43533  19.808  20.598   3.969
71219W        W43534  30.125  36.794  13.033
71220W        W43535  44.270  14.303  11.582
71221W        W43536  21.434  36.027   1.350
71222W        W43537  43.989  33.910   2.768
71223W        W43538  19.872  37.044   0.508
71224W        W43539  17.067   6.280   1.677
71225W        W43540  17.172  34.059   3.198
71226W        W43541  28.587   1.770  13.525
71227W        W43542  29.846  16.746  12.525
71228W        W43543  33.795  14.798  14.865
71229W        W43544  22.035  18.148  14.175
71230W        W43545   4.213  18.169   1.261
71231W        W43546  20.613  40.772   3.169
71232W        W43547  32.100  13.496   1.804
71233W        W43548  11.820   0.862  11.639
71234W        W43549  39.378  23.137   3.193
71235W        W43550  23.012  32.592  13.785
71236W        W43551  21.088  38.810   4.922
71237W        W43552   7.426   7.345  11.614
71238W        W43553  38.836   8.374  14.817
71239W        W43554  38.402  21.270   0.164
71240W        W43555   9.612   0.522   3.601
71241W        W43556  12.143  42.071   4.453
71242W        W43557   5.753  41.755   3.901
71243W        W43558  25.669  42.871  12.833
71244W        W43559  33.726  32.463  10.481
71245W        W43560  25.426  42.559  11.588
71246W        W43561   6.692  18.900   3.813
71247W        W43562  18.837   7.450   4.513
71248W        W43563  37.184  26.607   1.698
71249W        W43564  28.249  17.572  14.590
71250W        W43565  15.126  28.025  12.087
71251W        W43566  26.715  33.116  13.057
71252W        W43567  42.273  15.334   3.907
71253W        W43568   0.739  36.160   1.761
71254W        W43569  29.008  34.776  12.403
71255W        W43570  26.439  28.490   1.045
71256W        W43571   2.928  19.530   3.798
71257W        W43572  33.457   2.556  12.307
71258W        W43573  29.117  39.730  10.484
71259W        W43574  36.874  34.868  10.927
71260W        W43575  30.647  35.685  11.032
71261W        W43576   0.821   3.405   0.417
71262W        W43577   0.277  37.759  10.714
71263W        W43578  13.610  17.069  10.648
71264W        W43579  30.637  26.610   1.777
71265W        W43580   1.385  39.571  13.977
71266W        W43581  39.658  25.557   2.883
71267W        W43582  24.927  22.473  11.390
71268W        W43583   9.397  20.498  10.672
71269W        W43584   9.744  13.014  13.796
71270W        W43585  13.174  17.517   1.315
71271W        W43586  14.054  37.884  13.495
71272W        W43587  24.460  33.092  13.871
71273W        W43588   1.303   6.660   1.164
71274W        W43589   0.164   6.986  12.404
71275W        W43590  30.924   4.259  14.761
71276W        W43591  16.394  25.380  12.472
71277W        W43592  19.690  43.867  12.338
71278W        W43593  19.637  26.432  13.001
71279W        W43594  43.757   1.485  13.885
71280W        W43595   2.125  22.059  11.101
71281W        W43596   7.793  24.633   3.163
71282W        W43597   5.314  18.054  14.781
71283W        W43598  31.511  12.332   1.165
71284W        W43599   4.951  25.807   1.315
71285W        W43600  18.231   0.084  13.078
71286W        W43601   1.285  36.851   2.295
71287W        W43602  24.707   6.247   4.649
71288W        W43603  33.451  42.390  11.923
71289W        W43604   8.446   7.153  14.890
71290W        W43605  43.981  42.269  12.111
71291W        W43606  17.269  18.514  13.035
71292W        W43607  39.331  17.946   3.645
71293W        W43608  27.046  21.321   0.818
71294W        W43609  33.497  36.463   4.593
71295W        W43610  24.466   1.687  10.265
71296W        W43611  29.362  26.924   3.545
71297W        W43612  24.906  20.575  12.986
71298W        W43613  21.176   2.813  14.901
71299W        W43614  20.064  34.897   2.788
71300W        W43615  15.855   2.311  12.353
71301W        W43616  32.045   9.704   1.465
71302W        W43617   0.912   6.469  12.486
71303W        W43618   5.309  38.608  12.483
71304W        W43619  28.139  21.026   3.624
71305W        W43620  30.155  39.351   1.365
71306W        W43621  26.953  28.542  12.823
71307W        W43622  14.070  19.581  13.109
71308W        W43623  42.234  26.771  12.984
71309W        W43624  12.951   5.709   2.593
71310W        W43625  23.545   2.932   4.208
71311W        W43626  22.157  21.242  11.448
71312W        W43627   8.413   2.016   3.168
71313W        W43628   6.762  40.769   1.376
71314W        W43629  19.293   9.133  14.394
71315W        W43630   2.463  22.887  14.195
71316W        W43631  29.457  35.586   3.287
71317W        W43632  36.880  39.021   4.653
71318W        W43633  32.919  13.637   1.431
71319W        W43634  16.809   9.201   5.643
71320W        W43635  11.197  23.315   4.222
71321W        W43636  16.970  42.225   3.786
71322W        W43637  14.753  29.066   4.451
71323W        W43638   1.755  35.208   5.061
71324W        W43639  13.365   3.781   0.986
71325W        W43640  19.526  35.059  11.514
71326W        W43641  12.227  42.837  11.013
71327W        W43642  25.183  19.437   3.212
71328W        W43643  31.156  19.781   3.651
71329W        W43644  15.589  24.897  10.183
71330W        W43645  32.881  31.694   2.725
71331W        W43646   5.148  17.115   3.666
71332W        W43647  30.601   6.855  12.097
71333W        W43648  27.228   6.926  11.167
71334W        W43649   3.852  40.629   3.731
71335W        W43650  39.706  35.159   4.060
71336W        W43651  23.447  36.702   4.613
71337W        W43652   2.156   3.426   3.856
71338W        W43653   8.928  36.757  11.210
71339W        W43654  16.191  39.104  10.574
71340W        W43655  28.088  20.430   1.754
71341W        W43656  40.067  41.746   3.378
71342W        W43657   9.478  32.906  12.510
71343W        W43658   3.860  35.542  12.921
71344W        W43659  34.034  12.210  11.683
71345W        W43660  29.407   5.855  10.997
71346W        W43661  28.736  40.889   3.174
71347W        W43662  21.246  41.278   3.161
71348W        W43663  14.037  21.550   0.514
71349W        W43664  44.481  44.422   2.213
71350W        W43665  21.052  11.576   3.245
71351W        W43666   3.541  18.070   1.640
71352W        W43667  28.071  29.564   0.935
71353W        W43668  41.844  23.590   1.229
71354W        W43669  25.606  32.335  11.540
71355W        W43670  14.661   1.285   4.526
71356W        W43671  19.391  33.970   4.073
71357W        W43672   2.930  34.426  12.417
71358W        W43673   1.353  40.182  14.412
71359W        W43674   4.330  42.194   0.799
71360W        W43675  37.572  36.502   2.435
71361W        W43676  25.958  14.409   4.063
71362W        W43677  40.994  31.542   2.309
71363W        W43678   2.737  34.295   0.317
71364W        W43679   9.186  36.828  11.989
71365W        W43680  38.649  32.066  11.118
71366W        W43681  22.599  32.590  14.185
71367W        W43682  32.586  36.462  12.218
71368W        W43683  14.285  21.521   3.861
71369W        W43684  39.409  21.079   4.615
71370W        W43685  11.109  25.043   2.434
71371W        W43686  38.347   7.251  11.090
71372W        W43687   8.084  42.652  13.866
71373W        W43688  29.431  24.583  10.557
71374W        W43689  30.630  44.445   3.184
71375W        W43690   8.157  22.957  12.517
71376W        W43691  17.804  30.099   2.786
71377W        W43692   4.773   6.466   4.630
71378W        W43693  37.714  25.206   4.221
71379W        W43694  16.138  17.004   2.315
71380W        W43695   9.147   2.540  10.523
71381W        W43696   8.643   0.408  13.121
71382W        W43697  44.666  36.017   3.749
71383W        W43698  17.471   0.687  14.875
71384W        W43699  26.333  27.983   2.884
71385W        W43700   2.714  20.543   4.655
71386W        W43701  43.467  18.636   4.523
71387W        W43702  38.864  35.580  13.443
71388W        W43703  21.576  39.349   1.186
71389W        W43704   5.216  17.963   4.245
71390W        W43705   1.307  16.471  13.564
71391W        W43706  44.313  32.572   2.538
71392W        W43707   5.492   4.091  14.063
71393W        W43708  42.318   1.210   2.245
71394W        W43709  44.690  29.754  13.923
71395W        W43710  41.789  15.690   3.321
71396W        W43711  37.959   6.119   3.682
71397W        W43712  11.093  35.886  13.866
71398W        W43713  23.001  41.203   0.047
71399W        W43714  15.448   0.304  10.222
71400W        W43715  11.422   0.633   2.617
71401W        W43716  12.218  13.836  11.977
71402W        W43717  34.785  20.456   3.780
71403W        W43718   5.331   7.413   2.919
71404W        W43719  43.066   9.801  14.523
71405W        W43720   4.694  20.370  12.109
71406W        W43721  22.459  42.473  14.975
71407W        W43722  32.848   3.882   4.521
71408W        W43723  28.717   3.799   1.338
71409W        W43724  13.237  30.931  13.335
71410W        W43725  37.047  35.442  10.649
71411W        W43726  16.202  14.173   2.151
71412W        W43727  40.327  12.220  11.928
71413W        W43728  13.873  20.040   4.153
71414W        W43729  37.800  13.385  10.610
71415W        W43730  17.351  35.414   2.319
71416W        W43731  31.440  16.753   2.292
71417W        W43732  40.683  28.582  13.637
71418W        W43733  28.891  41.399   3.146
71419W        W43734  40.503  12.281  11.462
71420W        W43735  21.686  17.598  11.632
71421W        W43736  15.782   8.275  13.994
71422W        W43737  27.587  16.094  10.735
71423W        W43738  32.493   0.653  10.511
71424W        W43739  28.099   4.809   4.729
71425W        W43740   3.712  12.317  14.419
71426W        W43741  34.121  40.506  13.476
71427W        W43742   1.701   7.676   1.900
71428W        W43743  23.250  34.724   4.188
71429W        W43744  10.729  38.800  14.557
71430W        W43745  30.625  37.288  12.306
71431W        W43746  17.660   8.159   3.283
71432W        W43747  19.066  38.528   1.737
71433W        W43748  44.857   1.203  13.452
71434W        W43749  32.075   2.115   5.092
71435W        W43750  15.672   2.750   0.847
71436W        W43751  29.604  30.965   1.360
71437W        W43752  35.927   4.810   3.810
71438W        W43753  16.279   9.470  14.041
71439W        W43754  35.663   3.647  10.529
71440W        W43755   3.652  30.035  14.321
71441W        W43756  30.878  26.864   0.324
71442W        W43757  28.634  23.262  13.925
71443W        W43758   6.816  22.497   3.606
71444W        W43759  26.535   7.292  12.815
71445W        W43760   4.033  12.143  12.501
71446W        W43761  22.546  25.532   2.901
71447W        W43762  17.588  31.865   0.091
71448W        W43763  11.504  17.538  14.410
71449W        W43764   7.906  25.897  14.819
71450W        W43765  19.711  35.164   3.848
71451W        W43766  42.934  23.480  14.983
71452W        W43767  24.649  21.647  12.148
71453W        W43768  15.983  42.830   0.298
71454W        W43769  27.009  10.243  13.093
71455W        W43770  34.474  30.694  14.310
71456W        W43771  41.050  11.597   3.816
71457W        W43772  38.130  40.254  12.008
71458W        W43773   4.987  23.190   0.987
71459W        W43774   1.973  11.873   3.397
71460W        W43775  19.185  21.134   0.014
71461W        W43776  19.670  36.098   0.882
71462W        W43777  27.622  20.688   1.674
71463W        W43778   4.909  36.004   0.328
71464W        W43779  30.078  30.963   3.668
71465W        W43780   7.168  41.856  12.484
71466W        W43781  31.939  25.984   2.378
71467W        W43782  44.327   9.188   0.230
71468W        W43783  31.625  37.947   1.073
71469W        W43784  36.311   4.416  13.464
71470W        W43785  24.574  34.098   1.228
71471W        W43786   4.023  16.756   2.915
71472W        W43787   6.222  37.377  12.615
71473W        W43788  35.398  42.314   4.165
71474W        W43789   7.277  43.264  12.407
71475W        W43790  24.626   3.524  11.778
71476W        W43791   5.325   8.232   4.537
71477W        W43792  36.986  10.005  11.589
71478W        W43793  30.035  13.558  14.805
71479W        W43794  42.846  44.383   3.344
71480W        W43795  36.504  22.766  12.053
71481W        W43796   6.425   1.165  12.552
71482W        W43797   4.255   5.326  14.753
71483W        W43798  17.332  34.815   0.034
71484W        W43799  20.746  10.679  14.632
71485W        W43800  32.000   6.323  13.899
71486W        W43801  19.087   1.233  12.915
71487W        W43802  11.195  18.594  14.521
71488W        W43803  17.260  31.982  13.285
71489W        W43804   9.927  19.032  11.166
71490W        W43805  24.215  20.198  11.498
71491W        W43806  12.470  37.465   0.757
71492W        W43807  11.553   9.167   3.156
71493W        W43808  15.651  44.819  14.533
71494W        W43809  41.588  38.234  11.141
71495W        W43810   6.459   7.815  10.598
71496W        W43811  31.960  32.036   0.733
71497W        W43812   6.410  25.318   2.823
71498W        W43813  30.166  23.747  11.738
71499W        W43814  31.566  33.529   0.773
71500W        W43815  44.322  30.460  11.584
71501W        W43816  22.696  21.995  11.581
71502W        W43817   6.835   1.337  10.712
71503W        W43818  15.155  34.298  11.438
71504W        W43819  10.263  17.829  11.997
71505W        W43820   3.314   1.633  12.332
71506W        W43821  42.984  30.044   1.703
71507W        W43822  20.061  39.140  14.300
71508W        W43823  13.889  40.765   2.380
71509W        W43824  15.168  38.817  11.410
71510W        W43825  11.752  27.586  14.451
71511W        W43826  24.961  38.035  12.503
71512W        W43827   1.011  32.158   4.620
71513W        W43828   0.241   1.626   0.615
71514W        W43829  18.135  33.965   3.233
71515W        W43830  26.304  16.028  14.813
71516W        W43831  44.229  19.579   2.898
71517W        W43832   8.289  39.565  14.875
71518W        W43833  16.692  25.129  12.983
71519W        W43834  22.827  32.111  10.592
71520W        W43835  41.427  15.295  11.003
71521W        W43836  16.107  39.949  10.545
71522W        W43837  26.670  25.027   0.915
71523W        W43838  29.944  13.728  10.746
71524W        W43839  35.899  32.460   3.215
71525W        W43840  31.184   7.741  12.400
71526W        W43841  11.723  24.212  11.574
71527W        W43842  13.087   4.103  12.948
71528W        W43843   1.010  37.368   1.315
71529W        W43844  39.919  14.215   1.056
71530W        W43845   6.195  22.117   3.372
71531W        W43846  28.904   6.236   5.112
71532W        W43847   3.072  20.974   4.548
71533W        W43848  34.666  24.900   4.040
71534W        W43849   1.332  31.101   3.162
71535W        W43850  31.890   8.784   2.696
71536W        W43851   2.265  14.314  12.839
71537W        W43852  28.311   7.313   4.987
71538W        W43853  43.870  23.248   4.641
71539W        W43854  37.803   9.596   2.712
71540W        W43855  20.303  37.777   4.292
71541W        W43856  28.893  21.730   1.755
71542W        W43857  14.084  40.460  14.885
71543W        W43858  43.837  40.332  12.204
71544W        W43859  41.293  41.570  12.866
71545W        W43860  24.461  26.091  12.830
71546W        W43861   6.250   6.585  10.733
71547W        W43862   2.984  12.356   2.894
71548W        W43863   3.373  28.391  14.515
71549W        W43864  18.569  42.932  14.309
71550W        W43865  16.284   7.292  12.947
71551W        W43866   3.249  27.133   1.375
71552W        W43867   0.332  37.663   0.813
71553W        W43868  24.807  43.825   4.227
71554W        W43869  16.001  43.085  13.723
71555W        W43870   0.769  16.719   3.720
71556W        W43871  25.075  38.441  13.255
71557W        W43872  14.811  44.495   0.818
71558W        W43873   3.203  23.705  11.969
71559W        W43874  35.220   7.603  11.740
71560W        W43875  36.798  43.829  11.348
71561W        W43876  22.302   4.108  13.594
71562W        W43877   1.610  33.084   1.816
71563W        W43878  15.275  30.718   2.889
71564W        W43879  23.694   9.936   3.256
71565W        W43880  35.371  23.182  11.597
71566W        W43881   7.001  21.050  10.727
71567W        W43882  43.274  23.713  13.548
71568W        W43883  11.277  10.723  14.219
71569W        W43884  23.496   8.693  14.750
71570W        W43885   4.974   1.025   4.332
71571W        W43886  16.881  38.099  12.029
71572W        W43887  26.130   7.921   3.170
71573W        W43888  28.089  40.502  10.138
71574W        W43889  22.062  36.337   2.924
71575W        W43890  38.349  30.035   2.141
71576W        W43891  32.008  32.975   2.629
71577W        W43892  26.076  44.484   3.021
71578W        W43893  15.170  41.571  10.600
71579W        W43894  25.348  42.909  14.508
71580W        W43895  20.961  38.198  12.170
71581W        W43896  14.162   6.766  12.324
71582W        W43897  23.553  39.516   3.726
71583W        W43898   5.211   1.251  11.984
71584W        W43899  25.696  21.714   3.726
71585W        W43900  27.094   1.039  14.386
71586W        W43901  33.999  20.513   0.699
71587W        W43902  28.067  32.046   5.048
71588W        W43903  36.720  25.014  13.515
71589W        W43904  35.478  16.408  11.950
71590W        W43905  24.316  18.649  14.480
71591W        W43906  28.568  25.281   3.178
71592W        W43907  11.736   8.155   2.832
71593W        W43908  40.849  28.845  12.327
71594W        W43909  10.449  11.682  13.083
71595W        W43910  44.422  11.129   0.003
71596W        W43911  21.985  37.172  14.175
71597W        W43912  11.330   9.599  12.709
71598W        W43913  14.836  29.901  10.726
71599W        W43914  17.828  19.133  14.433
71600W        W43915   1.948   5.697   2.623
71601W        W43916  35.339  15.453   4.859
71602W        W43917  29.979  23.306   0.432
71603W        W43918  19.598  38.718   9.805
71604W        W43919  41.927   8.939   3.294
71605W        W43920   9.758  38.386  11.205
71606W        W43921  32.056  33.951   2.914
71607W        W43922   2.892  38.573  10.355
71608W        W43923  21.977  13.720   2.119
71609W        W43924  22.040  20.950   3.623
71610W        W43925   6.366  22.792  12.906
71611W        W43926  23.659  34.824   3.425
71612W        W43927  14.600   1.159  12.381
71613W        W43928   8.118   3.283  14.283
71614W        W43929   2.999  40.934  14.876
71615W        W43930   2.220  21.058   4.261
71616W        W43931  39.450  39.565   4.008
71617W        W43932  28.033  29.852  10.718
71618W        W43933  32.109   5.376   1.964
71619W        W43934   5.024  21.031  12.664
71620W        W43935  27.148  37.904  11.450
71621W        W43936  17.060  32.466   0.893
71622W        W43937  40.726   4.923   4.922
71623W        W43938   3.624  29.475  11.632
71624W        W43939  25.064  12.699   4.511
71625W        W43940  36.858  14.253  11.041
71626W        W43941   5.841  10.646  11.176
71627W        W43942  40.822   7.623  14.117
71628W        W43943  37.506  29.452  13.393
71629W        W43944  31.995  41.908  10.489
71630W        W43945   4.185  32.543  13.970
71631W        W43946   7.713  10.402  10.181
71632W        W43947  33.424  39.229  14.798
71633W        W43948   5.931  25.295  12.572
71634W        W43949   7.697  37.655   3.776
71635W        W43950  26.484  34.267  11.690
71636W        W43951  38.104  42.815   3.875
71637W        W43952  34.314  44.462  12.818
71638W        W43953  40.078   3.364  13.974
71639W        W43954   0.007  21.562  11.461
71640W        W43955   4.286  24.503  13.000
71641W        W43956  19.855  24.784  13.430
71642W        W43957  20.327  29.960   2.929
71643W        W43958  19.716  17.997  11.224
71644W        W43959  30.006  39.932  12.455
71645W        W43960  35.868   2.971  11.110
71646W        W43961  22.026  16.821   2.803
71647W        W43962  25.467   2.344  12.875
71648W        W43963   6.316  21.598  10.932
71649W        W43964   7.617  25.127   3.244
71650W        W43965  26.384  27.189  13.992
71651W        W43966  37.919  22.243   3.663
71652W        W43967  37.410  13.063  10.798
71653W        W43968  28.029  23.613   2.183
71654W        W43969  15.157   5.730   4.155
71655W        W43970  43.321  20.326  13.454
71656W        W43971  40.972  32.359  10.584
71657W        W43972  12.939  14.596   0.821
71658W        W43973   7.934  23.551  11.170
71659W        W43974  25.184  12.770  12.284
71660W        W43975  39.433  30.546  12.911
71661W        W43976  40.301  21.041  10.543
71662W        W43977  43.072   0.636  12.927
71663W        W43978   4.728  33.532  13.432
71664W        W43979  13.674  32.701   2.916
71665W        W43980  21.912   3.538   4.049
71666W        W43981   2.734  15.391  10.866
71667W        W43982  39.532  10.149  14.853
71668W        W43983   8.113  13.468   2.109
71669W        W43984  15.811  11.217  13.215
71670W        W43985  26.232  35.450  11.529
71671W        W43986  13.647  25.867  14.413
71672W        W43987  14.203  19.588  14.398
71673W        W43988  35.910  44.091  11.115
71674W        W43989  16.316   0.278   1.719
71675W        W43990  36.821  19.747   4.503
71676W        W43991  15.736  37.598  11.186
71677W        W43992   7.412  27.653  12.595
71678W        W43993   8.911  17.594  11.603
71679W        W43994  16.111  17.090   4.538
71680W        W43995  28.769  34.218   0.905
71681W        W43996  33.434  43.032   0.954
71682W        W43997  25.189  41.791  10.909
71683W        W43998  24.514  12.460  14.431
71684W        W43999   3.398  39.486  12.865
71685W        W44000   8.452  34.588  12.093
71686W        W44001  44.070  10.899   1.460
71687W        W44002  18.709  10.092  10.541
71688W        W44003  43.475  32.607   2.733
71689W        W44004  17.099  26.089   3.850
71690W        W44005  18.567  34.980  13.417
71691W        W44006  33.997   8.228   1.260
71692W        W44007  15.872  23.157   1.299
71693W        W44008   2.361  22.096   3.653
71694W        W44009  28.655  23.001   2.387
71695W        W44010   9.201  41.531   4.987
71696W        W44011  33.610   9.011  11.646
71697W        W44012  10.574  19.528  13.991
71698W        W44013   3.715  41.248  14.021
71699W        W44014   6.495  30.061  13.860
71700W        W44015  12.551  30.820   1.268
71701W        W44016  30.228  13.651  12.162
71702W        W44017   0.904  27.554   3.222
71703W        W44018  36.886  31.136  11.104
71704W        W44019  43.722  20.296   1.274
71705W        W44020  40.182  32.715   2.285
71706W        W44021  25.518  34.060  13.119
71707W        W44022  32.461  23.579   0.353
71708W        W44023  18.599  36.851  12.325
71709W        W44024   0.554   4.256   1.947
71710W        W44025  35.498   4.862  14.066
71711W        W44026   1.900  33.399   1.534
71712W        W44027  32.486  39.454   3.110
71713W        W44028   3.875  41.243  11.120
71714W        W44029  35.437  41.202  12.008
71715W        W44030  18.330   7.408  13.421
71716W        W44031  13.193  19.430   4.526
71717W        W44032  38.401  33.314   0.361
71718W        W44033  39.778  40.914   1.387
71719W        W44034  14.193   6.414   3.205
71720W        W44035  34.007   9.682  13.449
71721W        W44036  43.050  32.504  11.548
71722W        W44037  11.452  40.965   0.810
71723W        W44038   6.038   1.722   4.562
71724W        W44039  25.953  21.504   4.129
71725W        W44040  28.608   8.557   3.338
71726W        W44041  10.447  34.105  12.487
71727W        W44042  27.776   4.698   1.705
71728W        W44043   7.811  19.563  11.150
71729W        W44044  42.470  22.300  13.005
71730W        W44045  41.934   3.525  14.782
71731W        W44046  38.758  35.437  13.967
71732W        W44047  28.690  10.231   2.657
71733W        W44048  39.805  43.020  12.075
71734W        W44049  15.795  42.408  14.142
71735W        W44050  40.250   8.749  12.361
71736W        W44051  35.831  33.870   4.169
71737W        W44052  32.340   9.756  12.946
71738W        W44053   5.315  30.600   1.432
71739W        W44054  20.105  37.281   4.363
71740W        W44055  17.672   7.924   2.810
71741W        W44056  28.095  38.378   3.495
71742W        W44057  32.006  15.734  14.492
71743W        W44058  40.842  22.945  13.401
71744W        W44059  44.912  22.411   1.758
71745W        W44060  36.000  24.011  12.054
71746W        W44061   4.997   0.455  10.649
71747W        W44062  36.601  26.685   9.918
71748W        W44063   0.170  11.707  12.131
71749W        W44064  39.447   9.153   1.298
71750W        W44065  24.037   9.494  11.333
71751W        W44066  42.327  31.635  11.655
71752W        W44067  39.532  31.190   3.178
71753W        W44068   7.781   8.887   5.186
71754W        W44069  31.563  43.221  10.368
71755W        W44070  44.684  37.503  10.345
71756W        W44071  26.564  35.566  14.009
71757W        W44072  34.364  19.721   3.244
71758W        W44073   8.085  29.926  11.610
71759W        W44074  18.914  30.610   0.776
71760W        W44075  43.816  18.641   4.951
71761W        W44076   9.915  38.099   0.831
71762W        W44077  19.867  22.460  11.624
71763W        W44078   1.914   8.300  11.920
71764W        W44079   5.689  36.609  11.059
71765W        W44080  17.296  28.748  12.650
71766W        W44081  31.878  21.807   0.390
71767W        W44082  28.560  42.189   0.888
71768W        W44083  32.836  20.693   0.906
71769W        W44084  18.666   4.437  13.858
71770W        W44085  43.763   7.661  13.834
71771W        W44086   9.592  21.688  11.847
71772W        W44087  36.304  16.720   0.268
71773W        W44088  25.822  28.053   2.862
71774W        W44089  11.680  43.908  12.143
71775W        W44090  42.421  34.091  12.674
71776W        W44091   5.740  31.832   4.689
71777W        W44092  29.960  10.331   3.925
71778W        W44093  19.762   1.451   1.357
71779W        W44094  22.748  37.167  13.555
71780W        W44095  30.085  40.521   0.482
71781W        W44096  29.977  27.928  13.859
71782W        W44097   0.358  10.255  13.546
71783W        W44098  35.032  27.866  10.674
71784W        W44099   1.443  31.573  13.926
71785W        W44100   2.019  21.054  10.731
71786W        W44101   7.528  22.640  11.976
71787W        W44102  41.666  43.886   0.709
71788W        W44103  13.471  43.722  11.107
71789W        W44104  38.719  22.235  11.440
71790W        W44105  20.506  15.817  11.719
71791W        W44106  42.996  32.469   0.018
71792W        W44107  40.275  14.402  11.062
71793W        W44108   1.297  22.615   0.001
71794W        W44109  42.974  36.724  12.490
71795W        W44110  23.496  22.273   3.569
71796W        W44111   0.337  32.163   1.570
71797W        W44112  43.823  23.402  11.674
71798W        W44113  14.642  11.736  12.160
71799W        W44114  16.574   8.763   4.097
71800W        W44115  34.833  31.903   2.803
71801W        W44116  34.346   4.303  14.297
71802W        W44117   8.595  39.007  11.177
71803W        W44118   7.921   1.364   0.395
71804W        W44119  29.468   3.422  10.744
71805W        W44120  31.436  14.369   2.929
71806W        W44121  18.700  25.746  10.676
71807W        W44122  23.312  13.714   1.179
71808W        W44123  44.060   8.354   4.590
71809W        W44124  35.048  28.943  12.124
71810W        W44125  17.715  40.439   0.322
71811W        W44126  29.041  15.889   1.801
71812W        W44127   4.169  25.711  12.421
71813W        W44128  44.246  40.396   1.748
71814W        W44129  21.503  44.583  13.415
71815W        W44130  36.938  22.759   1.953
71816W        W44131  29.957  31.394   2.677
71817W        W44132  11.777   7.397   0.399
71818W        W44133  12.953  13.888  12.197
71819W        W44134   1.511  17.744  10.782
71820W        W44135  36.133  16.974   2.167
71821W        W44136  23.740   0.839  12.964
71822W        W44137  34.111   2.752   1.260
71823W        W44138  43.406  20.495   2.741
71824W        W44139   0.531  43.190   0.317
71825W        W44140   0.798   0.909   0.971
71826W        W44141  22.245   7.626   1.449
71827W        W44142  43.723  39.030  11.194
71828W        W44143  16.302  27.289   3.720
71829W        W44144  37.394  34.006  14.764
71830W        W44145  36.586  22.611  13.463
71831W        W44146  30.952  19.493   0.940
71832W        W44147  29.939  28.159   3.912
71833W        W44148  11.212  40.674   3.118
71834W        W44149  32.635  12.027   2.741
71835W        W44150  27.700  44.501   2.821
71836W        W44151  43.693  15.394   4.115
71837W        W44152  24.721  39.338   0.337
71838W        W44153  11.382  32.592  11.947
71839W        W44154  18.846  21.303  11.635
71840W        W44155  25.984   9.789  13.270
71841W        W44156  40.014   3.362   1.817
71842W        W44157  19.978  27.223  14.058
71843W        W44158  20.895  14.876   4.275
71844W        W44159  11.650  35.030  10.762
71845W        W44160  37.060  36.601  10.580
71846W        W44161  28.435  12.578   0.504
71847W        W44162  35.855   8.742  11.492
71848W        W44163  41.200   0.043   1.801
71849W        W44164  38.842   6.967  11.134
71850W        W44165  29.308  33.580  12.852
71851W        W44166  42.991  18.036   2.775
71852W        W44167  25.083  13.843  14.347
71853W        W44168  10.799  38.417   2.573
71854W        W44169  20.122  33.747   0.811
71855W        W44170  13.958  14.619   1.982
71856W        W44171  33.247   8.085  11.390
71857W        W44172  18.554  35.464   1.693
71858W        W44173  32.146  34.761  13.476
71859W        W44174  15.325  44.242  13.120
71860W        W44175  32.180  17.253   2.491
71861W        W44176  18.093   0.991  11.385
71862W        W44177  13.545  31.464   2.135
71863W        W44178  11.345  24.791  12.098
71864W        W44179  29.928   6.363   4.130
71865W        W44180   6.879  22.386  13.975
71866W        W44181  27.205  43.564   1.791
71867W        W44182  25.884  37.962   2.750
71868W        W44183  18.079  17.126  11.643
71869W        W44184  38.607  42.573   0.624
71870W        W44185  18.851  29.605   3.241
71871W        W44186  21.296  18.812  13.054
71872W        W44187  37.762  23.723   5.140
71873W        W44188  15.976  18.206   9.901
71874W        W44189  14.632  31.327  13.454
71875W        W44190  15.322  41.064   1.430
71876W        W44191  30.703  37.867   0.280
71877W        W44192   1.343  28.308  11.973
71878W        W44193  31.927  23.767  12.460
71879W        W44194  38.215  37.392  11.409
71880W        W44195  32.713  26.768   3.918
71881W        W44196  34.902  18.197   4.431
71882W        W44197  10.786  11.164   2.690
71883W        W44198   4.709   8.643   1.920
71884W        W44199  13.775  12.493  10.622
71885W        W44200  30.928  21.729   0.319
71886W        W44201  13.593  40.801   0.178
71887W        W44202  25.025  20.739   3.362
71888W        W44203  20.209  15.526   2.293
71889W        W44204  30.093   2.466   0.684
71890W        W44205  14.217  27.026  11.357
71891W        W44206   5.780  31.868  12.533
71892W        W44207  10.047  22.659   2.442
71893W        W44208  31.093   5.988  14.413
71894W        W44209  24.150  18.493   2.463
71895W        W44210  22.225   9.468   4.063
71896W        W44211  36.445  40.958   3.220
71897W        W44212   3.859  23.249  14.839
71898W        W44213  36.691  30.631   4.448
71899W        W44214  20.200   4.804   2.023
71900W        W44215  16.089   0.510  13.140
71901W        W44216  34.441   8.845   1.690
71902W        W44217  29.604  39.312   1.831
71903W        W44218   6.369   3.803   0.566
71904W        W44219   1.136   7.671  12.918
71905W        W44220  43.527  19.019   4.157
71906W        W44221  11.676   7.866   4.141
71907W        W44222  13.590  39.991   4.382
71908W        W44223  14.133   5.385  11.633
71909W        W44224  41.525  23.801  12.598
71910W        W44225  27.897  34.039   3.692
71911W        W44226  11.066  26.585   1.635
71912W        W44227  34.437  27.056   2.484
71913W        W44228  11.609  29.674  11.910
71914W        W44229  18.565   7.441  14.735
71915W        W44230   4.508  21.810   0.634
71916W        W44231  36.010  24.726   4.244
71917W        W44232  39.805  34.437  10.862
71918W        W44233  41.358  33.297  13.691
71919W        W44234   7.913   8.259  13.584
71920W        W44235  13.018  34.714  12.496
71921W        W44236  38.346  21.205   1.134
71922W        W44237   5.714  25.787  11.668
71923W        W44238  18.547  29.277   0.423
71924W        W44239  25.847   8.646   1.391
71925W        W44240  24.027  26.129  11.022
71926W        W44241  13.290  14.210   0.797
71927W        W44242  10.337  33.454   0.927
71928W        W44243   2.673  44.195   4.440
71929W        W44244  23.947  43.337  11.492
71930W        W44245  41.961   3.575  12.919
71931W        W44246  43.207  20.981   2.796
71932W        W44247  41.000  37.468  13.132
71933W        W44248  41.024  11.558   0.303
71934W        W44249  29.459  15.581   4.338
71935W        W44250  35.393  25.746   1.380
71936W        W44251  36.129  40.131  14.590
71937W        W44252   5.020  25.479  12.549
71938W        W44253  44.024  37.863  14.357
71939W        W44254  19.110  33.038   0.357
71940W        W44255  38.702  24.510  12.870
71941W        W44256   8.743   8.253  13.051
71942W        W44257  13.982  15.354   2.764
71943W        W44258  12.776  12.783   2.737
71944W        W44259  15.417   4.711   2.214
71945W        W44260  33.267  20.166  12.432
71946W        W44261  19.621  28.412   0.366
71947W        W44262  34.053  41.111  10.941
71948W        W44263   5.916  38.462  11.179
71949W        W44264  17.864  14.173  14.288
71950W        W44265  19.004  35.152  13.639
71951W        W44266  11.187  43.752   4.173
71952W        W44267   2.487   2.219  11.548
71953W        W44268  25.991  13.838  12.414
71954W        W44269   5.263  35.910   2.111
71955W        W44270   0.369  35.623   0.807
71956W        W44271  28.551  14.469  10.732
71957W        W44272   3.039   1.916   2.946
71958W        W44273   9.708  14.420   3.797
71959W        W44274  14.723  37.604   3.860
71960W        W44275  32.990   4.409  13.969
71961W        W44276  21.635  16.400   2.824
71962W        W44277  24.478  38.671  12.670
71963W        W44278  38.661  26.071  13.893
71964W        W44279  15.991  42.148  13.735
71965W        W44280   3.719   2.951   2.422
71966W        W44281  32.643  14.827  13.015
71967W        W44282  19.050  38.742   4.687
71968W        W44283   9.658  41.131  14.754
71969W        W44284  28.505  12.721   1.983
71970W        W44285  30.036   9.639   3.717
71971W        W44286  19.454  26.678  14.340
71972W        W44287  21.268  29.875  14.010
71973W        W44288   7.715  41.167   3.624
71974W        W44289   9.986   6.745  12.003
71975W        W44290  36.784  30.482   1.380
71976W        W44291   8.801  10.359  14.409
71977W        W44292  41.659  36.512   4.992
71978W        W44293   5.112  24.604   0.277
71979W        W44294  14.537  43.823  14.474
71980W        W44295   2.221  20.083   4.082
71981W        W44296   9.522  11.842   0.067
71982W        W44297  41.036  31.912  10.299
71983W        W44298  12.101  22.697  10.483
71984W        W44299   9.989   3.501  14.162
71985W        W44300  31.124  20.121   3.219
71986W        W44301   9.292   7.923   1.410
71987W        W44302  34.008  40.769  12.819
71988W        W44303  18.271  30.655   2.356
71989W        W44304  39.410  26.170   5.483
71990W        W44305   5.223   7.308  12.954
71991W        W44306  38.345   6.785  14.903
71992W        W44307  17.449  18.545  12.492
71993W        W44308  29.726  14.090  11.578
71994W        W44309  19.360   5.980   3.940
71995W        W44310  30.890  42.035  10.921
71996W        W44311  21.034  36.293  12.311
71997W        W44312   3.716  22.926  11.571
71998W        W44313   6.257  17.729   1.871
71999W        W44314  12.367  43.875   3.835
72000W        W44315  40.433  26.505   0.295
72001W        W44316  25.637   0.325   4.059
72002W        W44317  23.509  10.854   1.874
72003W        W44318  37.431  12.690   3.011
72004W        W44319  42.092   8.309  12.857
72005W        W44320  14.685  33.614  11.246
72006W        W44321  37.574   7.885   4.165
72007W        W44322  20.594   5.153  10.757
72008W        W44323  17.898  11.105  11.960
72009W        W44324  44.385  19.175  13.735
72010W        W44325  40.604  27.475   0.272
72011W        W44326  11.683  37.070   0.299
72012W        W44327  23.996  42.894  10.692
72013W        W44328  25.448  18.660  12.944
72014W        W44329  43.827  21.896  12.198
72015W        W44330   7.699   5.039   3.580
72016W        W44331  35.661   8.940   4.948
72017W        W44332  37.601  39.617   1.150
72018W        W44333   0.968  12.289  14.895
72019W        W44334  38.558  22.935   3.278
72020W        W44335  18.963  13.765   3.168
72021W        W44336   6.126  24.849   1.931
72022W        W44337  16.107  23.403   2.250
72023W        W44338  39.824  17.332  11.125
72024W        W44339   1.772   6.781   0.976
72025W        W44340  26.827   7.177   4.600
72026W        W44341  14.391   5.661  10.925
72027W        W44342  43.400   2.922   0.779
72028W        W44343  34.977   7.407   1.577
72029W        W44344   9.347  35.414   4.920
72030W        W44345  13.770   8.497  12.863
72031W        W44346   9.001  43.317  10.817
72032W        W44347  35.904   0.712  12.094
72033W        W44348   0.671  10.083  10.775
72034W        W44349  42.511  36.441  10.589
72035W        W44350  34.154  41.437  14.530
72036W        W44351  40.818  43.127  10.756
72037W        W44352  12.641  43.136  12.005
72038W        W44353  23.582  19.810   4.669
72039W        W44354   5.924  33.402  13.551
72040W        W44355  33.176  13.226   3.186
72041W        W44356  19.147  17.211  10.690
72042W        W44357  18.080  11.536   3.509
72043W        W44358  27.247  22.952   4.288
72044W        W44359  11.766  28.697   1.792
72045W        W44360  30.430  23.687   3.947
72046W        W44361  41.059  36.098  12.976
72047W        W44362  26.230  35.060   0.815
72048W        W44363  23.297  11.350  11.160
72049W        W44364  25.442  12.328  11.181
72050W        W44365  21.290  17.673   2.244
72051W        W44366  12.347  14.236   3.704
72052W        W44367   7.222  24.477  13.438
72053W        W44368  28.326  38.201   0.706
72054W        W44369  15.157   3.185  12.467
72055W        W44370   6.416  26.512  14.321
72056W        W44371  16.995   7.270  13.051
72057W        W44372  39.383  31.986  10.326
72058W        W44373  11.865  25.659   0.776
72059W        W44374  38.813  40.952  11.095
72060W        W44375   5.362   5.371   1.384
72061W        W44376  41.904  43.384   0.234
72062W        W44377   5.764   2.781  13.953
72063W        W44378  36.384  40.354   2.362
72064W        W44379  16.210  35.005   2.818
72065W        W44380  11.651  17.817   2.840
72066W        W44381   6.735  34.411  12.492
72067W        W44382  27.130  23.240  14.301
72068W        W44383  26.233   3.804  13.791
72069W        W44384   2.239  44.562   2.852
72070W        W44385  38.549   8.172   2.228
72071W        W44386  35.504  11.612   2.636
72072W        W44387  44.007  13.140  12.640
72073W        W44388  30.392  22.382   4.186
72074W        W44389  20.094  13.558  12.030
72075W        W44390   8.927  16.024   4.297
72076W        W44391   0.791  37.593  10.656
72077W        W44392   3.469  35.587   0.334
72078W        W44393  32.361   5.210   4.178
72079W        W44394  27.530  44.293  13.069
72080W        W44395  30.981  23.248   0.521
72081W        W44396  43.135  33.148   1.919
72082W        W44397  17.278   2.860  12.528
72083W        W44398  17.692  19.649  10.387
72084W        W44399   3.199  19.469   0.162
72085W        W44400  13.158  14.023  13.017
72086W        W44401  21.505  23.634  13.541
72087W        W44402   6.898  20.045   3.351
72088W        W44403  17.136  17.072  10.628
72089W        W44404   1.050  14.601   0.806
72090W        W44405  19.314  27.891   3.121
72091W        W44406  12.841  38.566   4.211
72092W        W44407  22.804   1.828  12.582
72093W        W44408  27.027   2.280   0.958
72094W        W44409  15.838  40.462  11.518
72095W        W44410  33.824  36.869  12.334
72096W        W44411  44.028  40.826  10.593
72097W        W44412  33.454   0.193  11.084
72098W        W44413   0.509  11.636   0.318
72099W        W44414  38.147  36.821   3.045
72100W        W44415  15.359  36.361  14.936
72101W        W44416  27.847  38.785   3.716
72102W        W44417   3.697  25.204  11.145
72103W        W44418   5.705  35.846  14.887
72104W        W44419  26.306  14.051  11.194
72105W        W44420  33.661  42.675   0.679
72106W        W44421  18.144  37.073  12.842
72107W        W44422  25.960  19.574  13.021
72108W        W44423  37.986  44.855   4.538
72109W        W44424   4.719  28.589   2.534
72110W        W44425  24.697  16.539  14.794
72111W        W44426  10.418  26.161   1.034
72112W        W44427  25.040  33.316   5.035
72113W        W44428  22.730  41.922  10.826
72114W        W44429  30.486   8.301  14.910
72115W        W44430   7.870   6.522   5.224
72116W        W44431  30.878   5.777  10.802
72117W        W44432   6.435   5.696  11.993
72118W        W44433  35.952  29.461  13.787
72119W        W44434  14.548   5.837   0.910
72120W        W44435  19.820  29.154   1.846
72121W        W44436  15.244  21.558  14.253
72122W        W44437   4.401  18.269   4.547
72123W        W44438   1.023  19.796   3.060
72124W        W44439  35.681   1.412  13.476
72125W        W44440   6.386   2.324  10.663
72126W        W44441   3.241  33.155  10.969
72127W        W44442  13.171   1.153  11.131
72128W        W44443  33.290  24.628  13.933
72129W        W44444  42.307  34.811  13.925
72130W        W44445  16.345  19.718   2.742
72131W        W44446  26.177  19.112  12.906
72132W        W44447  29.860  42.302  12.547
72133W        W44448  29.363  24.633  14.040
72134W        W44449   9.935  41.512   2.727
72135W        W44450   8.339   3.342   3.335
72136W        W44451  27.597  33.566  11.570
72137W        W44452  21.143  15.349   4.471
72138W        W44453  15.304  43.744  14.806
72139W        W44454   2.915  13.391   0.376
72140W        W44455  14.632  36.177   2.156
72141W        W44456  37.464  10.267  14.971
72142W        W44457   6.756   8.297   2.398
72143W        W44458  23.698  18.158  10.039
72144W        W44459   4.957  42.428  13.366
72145W        W44460  37.431  40.084   3.846
72146W        W44461   5.226  18.348   1.167
72147W        W44462  15.963  43.334   4.639
72148W        W44463  17.096   2.810   0.056
72149W        W44464  17.053  24.024  13.784
72150W        W44465  20.489  32.535  14.648
72151W        W44466  20.247  24.588  14.737
72152W        W44467  44.023  39.153  12.180
72153W        W44468  14.701   0.827  14.025
72154W        W44469  22.561  18.802   9.826
72155W        W44470  38.248   5.209   3.632
72156W        W44471  29.208  22.937   1.282
72157W        W44472  28.500   2.000   3.271
72158W        W44473  18.778  21.766   1.785
72159W        W44474   8.791  43.441   1.803
72160W        W44475   6.313  24.990   4.567
72161W        W44476  17.480   2.516  14.831
72162W        W44477   2.772  34.282  11.941
72163W        W44478  11.196  36.147  12.177
72164W        W44479  26.120  16.574  13.776
72165W        W44480   6.381   1.295  13.435
72166W        W44481  39.990  35.052   4.483
72167W        W44482  15.310  17.522   0.790
72168W        W44483  15.170   1.476   4.961
72169W        W44484  38.175  24.575  12.868
72170W        W44485  38.412  38.786  12.065
72171W        W44486  13.839  35.961   4.649
72172W        W44487  41.943   0.166   2.727
72173W        W44488  10.649  27.565  14.515
72174W        W44489  41.520  10.762   1.216
72175W        W44490   6.730  26.990  13.960
72176W        W44491  22.063   7.266   2.858
72177W        W44492  19.855  19.400  11.128
72178W        W44493  31.889  11.131   1.020
72179W        W44494  35.314  16.786  13.831
72180W        W44495  31.919  40.332  13.322
72181W        W44496  12.776  36.069   2.375
72182W        W44497  37.128   5.185  12.308
72183W        W44498  32.587   9.983   4.123
72184W        W44499  33.428  23.140  11.079
72185W        W44500  11.174  31.841   1.060
72186W        W44501  19.537  41.775   1.686
72187W        W44502  40.844  12.238  12.308
72188W        W44503  40.802   7.143  14.306
72189W        W44504  25.701  24.364   4.085
72190W        W44505   7.279  38.434  11.085
72191W        W44506  36.855  38.068   0.405
72192W        W44507  44.962  33.521  14.901
72193W        W44508  16.306  27.204   3.188
72194W        W44509   9.711  18.696  11.540
72195W        W44510   5.132   2.895  11.602
72196W        W44511   3.461  33.845  11.525
72197W        W44512  22.497  22.085  13.074
72198W        W44513  14.177   4.944   4.627
72199W        W44514  25.989  14.106   0.344
72200W        W44515   5.990  39.277   2.275
72201W        W44516   8.219   2.371  12.081
72202W        W44517   9.601  40.693  11.582
72203W        W44518  41.998  29.928   0.341
72204W        W44519  33.564   3.455  12.771
72205W        W44520  19.758  14.501  11.106
72206W        W44521  17.218   4.979   2.407
72207W        W44522  33.431  11.451   4.566
72208W        W44523  10.997   4.248  11.295
72209W        W44524   5.601  36.321   2.658
72210W        W44525   5.840  19.112  13.030
72211W        W44526  15.652  18.208  12.438
72212W        W44527   9.498  20.162   1.091
72213W        W44528  17.180  16.998  14.302
72214W        W44529  15.398  32.042  11.613
72215W        W44530  10.617   7.854  14.770
72216W        W44531  12.370  22.810  13.915
72217W        W44532   8.324  17.609  11.608
72218W        W44533  33.841  17.294  10.596
72219W        W44534  15.649  30.426  13.067
72220W        W44535  29.692  21.115  12.891
72221W        W44536  31.494  27.114  11.550
72222W        W44537   3.703   4.233   1.185
72223W        W44538  12.567   0.294   0.437
72224W        W44539  39.094  44.255  14.740
72225W        W44540  19.679  37.496   0.725
72226W        W44541  14.753  43.038   0.913
72227W        W44542  26.207  25.135   4.053
72228W        W44543  43.817  44.407   2.391
72229W        W44544   6.352  10.265  13.865
72230W        W44545   9.181  24.666  14.035
72231W        W44546  22.969  34.511  11.631
72232W        W44547  33.074  42.616  12.162
72233W        W44548  11.263  26.159   4.984
72234W        W44549  18.816   8.619  12.933
72235W        W44550  33.977  35.871  13.887
72236W        W44551  18.593   7.909   4.563
72237W        W44552  19.060  25.188  12.955
72238W        W44553  12.454  24.145   0.316
72239W        W44554  29.411  13.410   3.065
72240W        W44555  32.067  16.336   1.112
72241W        W44556  35.060  25.838  11.544
72242W        W44557   7.750  10.814   4.789
72243W        W44558   1.429  24.694  13.824
72244W        W44559  37.991   3.053  13.124
72245W        W44560  39.947  43.869  13.061
72246W        W44561  20.018  41.983   1.626
72247W        W44562  12.771   2.936  13.047
72248W        W44563  14.375  14.666   3.788
72249W        W44564  35.026  16.519  11.595
72250W        W44565  19.068  16.545  13.503
72251W        W44566  14.285  38.758  11.446
72252W        W44567  32.533  43.373  12.470
72253W        W44568  43.821  19.650  10.898
72254W        W44569  22.735  14.611   4.676
72255W        W44570  31.492  27.098  10.870
72256W        W44571  15.623   9.024  10.766
72257W        W44572  43.519  39.020  12.064
72258W        W44573  28.666  16.319   2.546
72259W        W44574  36.531   4.765  11.457
72260W        W44575  43.350  23.740  14.495
72261W        W44576  29.354  19.481  14.866
72262W        W44577   8.501  21.904   0.823
72263W        W44578   5.316   4.408  10.790
72264W        W44579  39.340  12.027  11.670
72265W        W44580  19.305  23.765   1.259
72266W        W44581  30.431   0.514   1.361
72267W        W44582  44.527  10.178   0.531
72268W        W44583   6.024  37.347   4.572
72269W        W44584  29.958  25.910  11.046
72270W        W44585  23.009  22.975  14.892
72271W        W44586  33.027  19.770  13.918
72272W        W44587  20.128   4.933  10.572
72273W        W44588  20.675  19.293  11.469
72274W        W44589   1.516  14.883   1.858
72275W        W44590  10.898  17.792  10.210
72276W        W44591  25.271  29.974   3.284
72277W        W44592  37.312   5.127  12.809
72278W        W44593  27.465  36.481   0.793
72279W        W44594  14.855  21.297   0.752
72280W        W44595  13.547  32.367   4.205
72281W        W44596   9.674   1.493   3.327
72282W        W44597   9.378  12.954  14.932
72283W        W44598  10.088  42.348   0.807
72284W        W44599  44.388  40.493   3.124
72285W        W44600  26.446  15.716   0.806
72286W        W44601  42.612  31.638  11.213
72287W        W44602  12.160  42.404  12.137
72288W        W44603  27.098  34.530  12.472
72289W        W44604  27.599   4.078  10.218
72290W        W44605  41.435   5.304   0.343
72291W        W44606  31.075  22.591   3.112
72292W        W44607  31.819  38.327  12.888
72293W        W44608  26.863  11.853   3.960
72294W        W44609  10.835  13.660   0.347
72295W        W44610   5.731  29.468   2.898
72296W        W44611   2.467  18.747  11.418
72297W        W44612  34.443  22.062   2.463
72298W        W44613  17.580   7.261   0.592
72299W        W44614  23.578  22.672  13.579
72300W        W44615  14.308  20.539  11.150
72301W        W44616  44.092  14.644   2.385
72302W        W44617  29.667  34.887  11.691
72303W        W44618  17.721  11.345   5.521
72304W        W44619  42.738  20.242   1.450
72305W        W44620  16.917  30.198  13.512
72306W        W44621  28.916  28.789   1.266
72307W        W44622  20.169  22.213   4.717
72308W        W44623  21.692  44.822  10.734
72309W        W44624  30.452  25.800  12.423
72310W        W44625   8.849  11.268   1.794
72311W        W44626  14.735  23.092   2.212
72312W        W44627  35.084  27.659   0.803
72313W        W44628  10.231  43.059  10.944
72314W        W44629  10.554  36.454   4.660
72315W        W44630  41.568  18.137   4.658
72316W        W44631  39.378   5.698   2.871
72317W        W44632  13.707  10.605  12.522
72318W        W44633  28.730  29.433   3.763
72319W        W44634  12.344  14.595   1.676
72320W        W44635  32.202  16.705   1.863
72321W        W44636   1.805  12.886  10.597
72322W        W44637  21.218  28.984  14.969
72323W        W44638  30.771  31.569   3.709
72324W        W44639  16.598   5.388  11.057
72325W        W44640   9.789   8.749   2.859
72326W        W44641  16.632  35.713   4.691
72327W        W44642  27.853   4.966  11.570
72328W        W44643  25.151  43.189   4.754
72329W        W44644  23.797  27.436   4.662
72330W        W44645  36.057  44.444   1.988
72331W        W44646  35.817  19.002  12.100
72332W        W44647   2.944  28.134  11.557
72333W        W44648  27.180  13.252   2.863
72334W        W44649  11.724  13.281  10.985
72335W        W44650   1.354  15.833  14.812
72336W        W44651  39.561  37.507   4.520
72337W        W44652   8.246  30.837   2.811
72338W        W44653  23.163  13.649   2.826
72339W        W44654  27.305   4.447   0.362
72340W        W44655  24.993   1.991   3.368
72341W        W44656  21.673  12.314  10.444
72342W        W44657  25.814  43.967   4.328
72343W        W44658   6.335  22.434   3.771
72344W        W44659  19.628  42.951  14.412
72345W        W44660  35.866  31.938   2.209
72346W        W44661  40.618  14.373  13.493
72347W        W44662  28.614   4.760  14.087
72348W        W44663  37.830   1.304  10.567
72349W        W44664   9.369  22.301  14.062
72350W        W44665  35.136  43.841  13.821
72351W        W44666   7.787  40.644   3.627
72352W        W44667  30.932  23.607  11.510
72353W        W44668  32.415  43.104   1.715
72354W        W44669  38.397   2.210  11.514
72355W        W44670  35.003   7.186   1.111
72356W        W44671   2.810  12.071  13.404
72357W        W44672  30.356  10.784   1.268
72358W        W44673   2.990   1.071   2.863
72359W        W44674  15.141  10.155  14.913
72360W        W44675  30.670  42.973   2.170
72361W        W44676  14.379  28.388  12.909
72362W        W44677  25.468  25.508   1.208
72363W        W44678  40.908  38.401   3.408
72364W        W44679  31.165  27.927   1.802
72365W        W44680  11.091  32.340   0.957
72366W        W44681  32.314  10.437  12.659
72367W        W44682  14.090   9.560  10.573
72368W        W44683   2.264   0.764   1.473
72369W        W44684  19.466   0.342   1.967
72370W        W44685  15.154  24.927   0.910
72371W        W44686  26.957  37.375  12.566
72372W        W44687  17.669  34.077  10.594
72373W        W44688   6.835  30.679   2.968
72374W        W44689  39.371  36.647   2.822
72375W        W44690  25.840  13.712  14.339
72376W        W44691  34.355  40.892   2.156
72377W        W44692  18.693  24.532   3.127
72378W        W44693  38.445  31.190  14.389
72379W        W44694  33.914  44.939  14.272
72380W        W44695  12.566  42.643  11.937
72381W        W44696  32.404  33.629   1.838
72382W        W44697  37.461  40.599  12.393
72383W        W44698  13.204   0.981  10.592
72384W        W44699  20.971   6.675  12.101
72385W        W44700  17.296   6.846  13.056
72386W        W44701   8.628  43.771   4.106
72387W        W44702  18.050   5.715  10.645
72388W        W44703  26.049  13.194   4.324
72389W        W44704   9.604  28.472  12.522
72390W        W44705  15.220   5.707  13.569
72391W        W44706  30.970  20.357   1.406
72392W        W44707  20.951  17.884  12.055
72393W        W44708  39.192  22.400  11.612
72394W        W44709   5.937  22.091   2.664
72395W        W44710  30.190  36.042  11.804
72396W        W44711  12.472  38.985  11.559
72397W        W44712  35.879  39.092  13.000
72398W        W44713   9.832  44.731  11.995
72399W        W44714   7.657  21.195  14.325
72400W        W44715  17.003  29.611  12.940
72401W        W44716  22.262  23.600   4.421
72402W        W44717  23.579   8.358  11.591
72403W        W44718  20.215  35.375  13.893
72404W        W44719  31.851  24.506  14.788
72405W        W44720  11.645  21.161  12.679
72406W        W44721  23.376  21.781   3.683
72407W        W44722  35.882  13.850   0.873
72408W        W44723  33.570  15.521  13.169
72409W        W44724  23.037  27.011   2.825
72410W        W44725  19.672  15.685   1.428
72411W        W44726  34.311   5.181   1.798
72412W        W44727  18.100  34.409  12.798
72413W        W44728  38.489  10.542  12.339
72414W        W44729   2.820  12.646  14.376
72415W        W44730  41.128  39.092  10.609
72416W        W44731  16.002  15.169  10.353
72417W        W44732  35.410  16.303   3.216
72418W        W44733  30.329  19.164   2.477
72419W        W44734  27.997  42.366   2.810
72420W        W44735  25.911   0.468   2.864
72421W        W44736  22.786  21.637  10.412
72422W        W44737  17.604  36.800  10.685
72423W        W44738  30.501  22.121   0.672
72424W        W44739  26.246   9.967  12.841
72425W        W44740   2.342  34.922   2.731
72426W        W44741  25.130  29.550   4.489
72427W        W44742  20.510  29.462   3.661
72428W        W44743  17.136   0.267  14.694
72429W        W44744  23.954  40.459  14.936
72430W        W44745  15.987  21.099   2.304
72431W        W44746  36.834  10.161  10.570
72432W        W44747  10.361  17.659  12.506
72433W        W44748  34.842   6.697  14.866
72434W        W44749  34.848  24.615  12.636
72435W        W44750  27.998  14.807   1.850
72436W        W44751  34.458  29.825   1.379
72437W        W44752   2.417  44.329  13.934
72438W        W44753  37.418   7.274  14.524
72439W        W44754  22.897   0.956   9.870
72440W        W44755  14.613   2.461   2.327
72441W        W44756   4.782  15.314   4.119
72442W        W44757  40.298  41.472   0.154
72443W        W44758  32.485  28.778   1.418
72444W        W44759   3.142   1.891   5.095
72445W        W44760  38.196  20.879  14.372
72446W        W44761  27.972  23.476  13.012
72447W        W44762   9.837  35.532  14.034
72448W        W44763  17.592   1.946  13.389
72449W        W44764  22.652   5.355  11.060
72450W        W44765   7.770  38.213  11.079
72451W        W44766   8.854  40.339  13.970
72452W        W44767  10.727  42.955  11.143
72453W        W44768  18.530  26.818   3.180
72454W        W44769  25.110  34.505   4.607
72455W        W44770  14.046   5.958   1.000
72456W        W44771  25.222  29.516   0.260
72457W        W44772  36.504  38.790  12.977
72458W        W44773  28.507  44.744  10.589
72459W        W44774   0.276  12.722   4.615
72460W        W44775  23.276  23.748   0.162
72461W        W44776   2.727  41.633   1.889
72462W        W44777  11.827  24.464  11.123
72463W        W44778  42.328  39.073  12.363
72464W        W44779  22.636   9.661  12.531
72465W        W44780  28.008  11.607  10.538
72466W        W44781  23.779  23.135  14.391
72467W        W44782  21.272  12.594   1.022
72468W        W44783  44.316   3.010  13.576
72469W        W44784  11.116   9.266  13.622
72470W        W44785  26.425  24.402   2.364
72471W        W44786   6.838   3.993   1.242
72472W        W44787   1.894  34.851  12.520
72473W        W44788  30.558  28.678  12.503
72474W        W44789  20.139  40.108  13.806
72475W        W44790  40.355  31.072   1.158
72476W        W44791  31.879   6.121   3.383
72477W        W44792   1.254  23.737  13.576
72478W        W44793  26.209  25.603   0.398
72479W        W44794  23.812  42.509  13.537
72480W        W44795  26.371  42.704   0.342
72481W        W44796  38.416  17.260   1.278
72482W        W44797  18.742  28.845   4.993
72483W        W44798  26.532  15.836  12.907
72484W        W44799   3.214  17.697   0.308
72485W        W44800  39.978   4.260  11.093
72486W        W44801  33.761  44.526  10.045
72487W        W44802  28.153  27.991   1.593
72488W        W44803  17.078  14.777  13.761
72489W        W44804  32.693  42.984  14.023
72490W        W44805  43.961  21.197  14.179
72491W        W44806  14.302   7.370   0.482
72492W        W44807  26.496   3.729   4.375
72493W        W44808  41.823  37.472  11.864
72494W        W44809  15.554   5.329  12.825
72495W        W44810  16.558  29.949  14.471
72496W        W44811  41.966  24.287   0.122
72497W        W44812  37.041  19.685   4.021
72498W        W44813  37.223  22.057  14.483
72499W        W44814  24.169  44.314  10.505
72500W        W44815  34.057  14.448  14.540
72501W        W44816   2.534  19.208  11.664
72502W        W44817  21.192  28.042   0.030
72503W        W44818   1.495  29.188  12.476
72504W        W44819  37.482   2.439  13.481
72505W        W44820  22.956  17.395   3.858
72506W        W44821  24.701  24.356   4.122
72507W        W44822   3.196  31.826  11.088
72508W        W44823  11.373  33.737  11.059
72509W        W44824   2.643   8.522   4.264
72510W        W44825  15.765  18.839  11.824
72511W        W44826  41.009  42.292  12.930
72512W        W44827  18.859  15.609  14.404
72513W        W44828  37.914  41.363  12.516
72514W        W44829  15.378   8.932  11.751
72515W        W44830  36.561  36.261  12.934
72516W        W44831  30.888  41.489  11.603
72517W        W44832  30.918  44.212  13.458
72518W        W44833  36.780  19.953   5.048
72519W        W44834  37.491  27.220   1.431
72520W        W44835  37.323  28.915  11.240
72521W        W44836   2.428   7.407   1.433
72522W        W44837   5.874  44.534   4.824
72523W        W44838  26.878  27.022   2.190
72524W        W44839  35.565  12.330  10.787
72525W        W44840  33.395   7.444  12.498
72526W        W44841   5.404  29.173  11.466
72527W        W44842  31.970  32.425   1.319
72528W        W44843  40.578  26.713  13.918
72529W        W44844  28.714  13.844   2.401
72530W        W44845  14.161  23.119  13.787
72531W        W44846  36.405  39.785  14.868
72532W        W44847  38.117   6.583  13.265
72533W        W44848   0.737  24.686   3.306
72534W        W44849  13.283  12.617   2.749
72535W        W44850  16.581   2.807  13.724
72536W        W44851  20.641  24.821   1.451
72537W        W44852  15.116  10.379   1.871
72538W        W44853   3.267  35.171   4.460
72539W        W44854  14.874   0.824   4.568
72540W        W44855  10.951  33.356  13.835
72541W        W44856  43.021  41.995   2.882
72542W        W44857  41.774  42.551  10.575
72543W        W44858  35.800  25.261  11.681
72544W        W44859  33.309  31.701   4.331
72545W        W44860  12.794  14.652  11.638
72546W        W44861  11.727  30.675   3.833
72547W        W44862  22.406  26.686   4.094
72548W        W44863  22.740  29.456  12.485
72549W        W44864   6.205  34.483   1.771
72550W        W44865   5.441  25.897   2.599
72551W        W44866  38.397   6.724  11.261
72552W        W44867  11.130  37.974  14.434
72553W        W44868   4.363  25.936  11.976
72554W        W44869  14.111  41.931   2.011
72555W        W44870  26.436  35.570   0.636
72556W        W44871  23.670  37.270  12.101
72557W        W44872  41.098  23.159   1.831
72558W        W44873  38.310  27.065   4.281
72559W        W44874   7.828   5.894   2.419
72560W        W44875  28.100   1.286  14.361
72561W        W44876  28.698   8.754  10.972
72562W        W44877  36.827  22.283   9.820
72563W        W44878  40.838  32.800  11.994
72564W        W44879  43.481  33.806   3.666
72565W        W44880  33.868  33.522  13.125
72566W        W44881  41.001   7.708  12.085
72567W        W44882  18.645  21.806   3.345
72568W        W44883  29.324   6.352   3.336
72569W        W44884  31.706   9.625  11.036
72570W        W44885   6.520  34.899   0.871
72571W        W44886  22.809  38.427   2.830
72572W        W44887  44.985  42.069  10.857
72573W        W44888  18.306   7.700  11.119
72574W        W44889   5.518  15.123   1.209
72575W        W44890   4.842  23.198  10.669
72576W        W44891  22.928  30.539   0.759
72577W        W44892  10.362  15.295  11.961
72578W        W44893  31.381  15.494   2.399
72579W        W44894  21.175  25.866   2.179
72580W        W44895  20.812  42.363  13.462
72581W        W44896  24.572  12.441   3.176
72582W        W44897  30.981   1.292  14.065
72583W        W44898  44.553   3.294  14.531
72584W        W44899  14.581  40.198  12.406
72585W        W44900  33.825  18.794  12.530
72586W        W44901  41.828  36.385  14.494
72587W        W44902  38.194  40.425   0.776
72588W        W44903  22.787  11.447  11.138
72589W        W44904  42.752  27.609   0.487
72590W        W44905  31.162  23.468   1.841
72591W        W44906   3.575  12.845  13.694
72592W        W44907  21.512   2.491   0.789
72593W        W44908  20.196  21.493   4.226
72594W        W44909  13.642  33.681   4.425
72595W        W44910  28.138  25.702   4.390
72596W        W44911  32.407   3.298   1.340
72597W        W44912  10.769  33.540   1.234
72598W        W44913  26.068  33.393  14.792
72599W        W44914  38.493  36.423   2.266
72600W        W44915   9.731   1.770   2.885
72601W        W44916  14.713   9.215  13.173
72602W        W44917  24.680   7.299  10.729
72603W        W44918  15.220  41.019  14.156
72604W        W44919  34.865  22.906   4.919
72605W        W44920  24.552  44.932   3.632
72606W        W44921  17.730   7.310  13.573
72607W        W44922  31.154  31.420  14.888
72608W        W44923  44.480  18.616   3.657
72609W        W44924  35.511   9.448  12.447
72610W        W44925   9.643  27.467   1.045
72611W        W44926  44.467  37.545  11.138
72612W        W44927  39.935   7.334  13.937
72613W        W44928  14.265  13.319  12.998
72614W        W44929  30.373  43.421   2.866
72615W        W44930  38.588  19.362   2.238
72616W        W44931  37.991   2.376   0.894
72617W        W44932  36.836  41.693   4.283
72618W        W44933  43.208  29.067  11.088
72619W        W44934  37.577   3.369  12.985
72620W        W44935   1.584   4.199   4.183
72621W        W44936  42.485  27.757   0.933
72622W        W44937  20.528  40.934   1.321
72623W        W44938  43.991  41.992   1.779
72624W        W44939   7.937  22.931  11.859
72625W        W44940  30.354  34.332  14.425
72626W        W44941   6.224   3.379  11.337
72627W        W44942  36.224  34.643   4.343
72628W        W44943  30.993  11.890   1.396
72629W        W44944  23.988  17.105  14.257
72630W        W44945  34.876  32.489  12.927
72631W        W44946  27.907  21.867   0.000
72632W        W44947   1.202   3.178   3.568
72633W        W44948  44.185  20.162   3.515
72634W        W44949  41.883  41.564  10.755
72635W        W44950  27.401  36.259   3.994
72636W        W44951  17.246   5.886  11.731
72637W        W44952  19.431  22.695   2.436
72638W        W44953  14.266  11.307   0.148
72639W        W44954  30.659   4.911  11.592
72640W        W44955   4.400  29.731   3.307
72641W        W44956  41.737  30.109  12.951
72642W        W44957  23.216  10.687   1.342
72643W        W44958   6.233  17.885   0.768
72644W        W44959  18.356   1.864  14.225
72645W        W44960   6.104   0.189  10.738
72646W        W44961  31.665   6.448  13.526
72647W        W44962   6.354  28.373  10.710
72648W        W44963  18.119  12.873  12.411
72649W        W44964  39.030  20.709   5.041
72650W        W44965  24.603  23.051   3.613
72651W        W44966  20.604  10.911  13.115
72652W        W44967  11.192  30.620  12.010
72653W        W44968  14.135  35.401   3.105
72654W        W44969  17.759  39.911  13.859
72655W        W44970   1.781  27.671   2.182
72656W        W44971   4.194  28.526   3.210
72657W        W44972  42.079  22.263   4.633
72658W        W44973  30.200   0.726   1.785
72659W        W44974  33.536  27.048   1.191
72660W        W44975  21.750  10.631   1.493
72661W        W44976  35.488  23.504  10.866
72662W        W44977  20.807  30.049   2.671
72663W        W44978   1.262  36.112  13.340
72664W        W44979  41.172   5.911  14.443
72665W        W44980  19.379  36.936   0.410
72666W        W44981  42.287   5.949  13.915
72667W        W44982  30.170  40.961  11.405
72668W        W44983  35.241  41.825  10.675
72669W        W44984  31.946  43.377   2.391
72670W        W44985  17.061  12.535   3.252
72671W        W44986   9.631  14.724  12.049
72672W        W44987  23.523  43.524   2.737
72673W        W44988  17.277  40.162  11.884
72674W        W44989  23.723  18.323  10.965
72675W        W44990  28.103   2.520   0.527
72676W        W44991  23.983   1.932  11.184
72677W        W44992   2.368   9.734   3.733
72678W        W44993  19.713  28.860   3.267
72679W        W44994  41.663  36.838   0.955
72680W        W44995  23.089  34.703  12.496
72681W        W44996  36.525  18.092  14.698
72682W        W44997  31.577  21.983   1.373
72683W        W44998  31.604  23.383  10.886
72684W        W44999   2.119  27.966   1.827
72685W        W45000   9.227  20.217  13.799
72686W        W45001  36.853   6.869  12.948
72687W        W45002  34.711   3.851   1.925
72688W        W45003  17.201   7.856   4.563
72689W        W45004  20.576   8.036  10.257
72690W        W45005  17.425   0.962  13.535
72691W        W45006  31.449   2.575   4.771
72692W        W45007   1.033  43.448   1.029
72693W        W45008  16.412   2.350   1.346
72694W        W45009  43.598  28.644   3.353
72695W        W45010   2.455   3.591   2.550
72696W        W45011  41.535  29.058  11.505
72697W        W45012  15.852   5.458  13.991
72698W        W45013  36.395  38.033  13.469
72699W        W45014  38.482  38.805   0.219
72700W        W45015  43.059  38.547  13.991
72701W        W45016  13.328  38.064  11.990
72702W        W45017  43.890  27.371  14.915
72703W        W45018  17.493  34.555  13.791
72704W        W45019   4.872  39.685   2.462
72705W        W45020   3.785  15.160   3.259
72706W        W45021   9.451  39.888   0.195
72707W        W45022  27.951   6.217   3.529
72708W        W45023  37.227  38.651   2.780
72709W        W45024  19.065  43.324   0.869
72710W        W45025  15.894  39.436   0.931
72711W        W45026  27.672  16.672   3.919
72712W        W45027   9.359   4.245   0.420
72713W        W45028  11.791  17.366  11.587
72714W        W45029  41.245  19.730  13.345
72715W        W45030  36.242  18.271  12.421
72716W        W45031  43.899  16.366   2.838
72717W        W45032  15.807  16.321   3.232
72718W        W45033   0.685  10.610  11.968
72719W        W45034  21.617  42.069  12.961
72720W        W45035  36.484  37.647   4.966
72721W        W45036  16.766  12.420   0.771
72722W        W45037  38.297  37.164  14.506
72723W        W45038   8.663  22.222  12.943
72724W        W45039   4.054  27.368   2.178
72725W        W45040  17.058  35.915  11.684
72726W        W45041  28.002  32.268  13.905
72727W        W45042  34.139  10.219   0.454
72728W        W45043  24.074  35.501   1.963
72729W        W45044  29.676  13.301  13.378
72730W        W45045  35.593   3.717   4.551
72731W        W45046   6.459  18.639   2.808
72732W        W45047  13.439  27.584  13.794
72733W        W45048  28.392  29.965   0.903
72734W        W45049  24.034   8.389   4.282
72735W        W45050  14.438  30.084   2.163
72736W        W45051  19.188  25.141   2.447
72737W        W45052  19.900  14.333   0.741
72738W        W45053  36.964   1.910   3.677
72739W        W45054  37.572   1.324  13.349
72740W        W45055  27.958  11.115  10.702
72741W        W45056  43.405  15.479  14.384
72742W        W45057   5.783  17.815  12.144
72743W        W45058  11.684  31.341   1.387
72744W        W45059  42.722   8.679   4.736
72745W        W45060  26.996   7.560  12.927
72746W        W45061   3.737  44.591   3.921
72747W        W45062   8.390  41.965   3.190
72748W        W45063  23.654  42.461   3.191
72749W        W45064   9.150  36.464  14.912
72750W        W45065   2.529  14.243   3.152
72751W        W45066   8.913  41.976   4.926
72752W        W45067  27.696  32.898   4.281
72753W        W45068  14.308   5.240  13.885
72754W        W45069  25.099  36.518  11.028
72755W        W45070  37.743  41.451  11.609
72756W        W45071   8.639  34.099  14.668
72757W        W45072  26.989  14.519   2.994
72758W        W45073  27.229  14.767  10.702
72759W        W45074  18.705  17.022   0.204
72760W        W45075  15.955  27.778  10.334
72761W        W45076  19.150   1.189   3.149
72762W        W45077  31.155  39.848  10.677
72763W        W45078  24.657  11.577  11.182
72764W        W45079  11.355   6.499   4.215
72765W        W45080  12.560  11.222  11.523
72766W        W45081   3.406  14.208   4.145
72767W        W45082  40.092  29.515  12.509
72768W        W45083  22.984  30.914  11.068
72769W        W45084  12.064  32.084  14.318
72770W        W45085  16.256  10.807  10.674
72771W        W45086  40.922  18.248   1.255
72772W        W45087  25.610   4.607   3.669
72773W        W45088  26.302  22.483   3.163
72774W        W45089  32.994  32.868   0.286
72775W        W45090   7.854  13.583   0.862
72776W        W45091   6.963   9.282  13.891
72777W        W45092  33.939  37.390  12.255
72778W        W45093   5.005  39.960   1.664
72779W        W45094   2.394   5.179  11.902
72780W        W45095  24.971  41.672  11.366
72781W        W45096  32.939  20.904  13.333
72782W        W45097  13.397  44.313   0.751
72783W        W45098  19.884  38.849  11.130
72784W        W45099  36.040  26.287  14.755
72785W        W45100  26.081  32.052   5.647
72786W        W45101  32.130  10.328   2.709
72787W        W45102   3.682  40.986  12.386
72788W        W45103  34.545  28.900  12.929
72789W        W45104  27.099  15.711  13.564
72790W        W45105  14.175  18.652   0.019
72791W        W45106  16.151  37.344   1.420
72792W        W45107  34.463  15.645  12.895
72793W        W45108  29.650  42.890   4.534
72794W        W45109  33.704  14.606  11.582
72795W        W45110  17.293  13.705  14.110
72796W        W45111  35.475  21.205   3.604
72797W        W45112  39.883   2.802   3.089
72798W        W45113  24.517  30.102  13.396
72799W        W45114  37.365  22.597   0.335
72800W        W45115   1.527   9.606  12.391
72801W        W45116  38.772   1.075  10.360
72802W        W45117  16.818  13.593  12.720
72803W        W45118  34.376  28.511  13.990
72804W        W45119  29.020  29.070  10.651
72805W        W45120  44.962  35.347   0.061
72806W        W45121  33.344  31.225   3.444
72807W        W45122  14.887  13.140  14.307
72808W        W45123  22.657  22.185   4.661
72809W        W45124  30.191   7.365   3.712
72810W        W45125  28.971  44.307   3.014
72811W        W45126  10.141   5.908   0.043
72812W        W45127   7.508  27.429   1.939
72813W        W45128  37.990  23.179  11.296
72814W        W45129   8.416  11.321   0.919
72815W        W45130  12.952  29.136  14.906
72816W        W45131   3.323  24.188  11.169
72817W        W45132  38.599   1.356   3.029
72818W        W45133  33.223   0.371   2.327
72819W        W45134  36.383  36.426  14.888
72820W        W45135  23.633  15.264   0.223
72821W        W45136   4.788  17.947   4.530
72822W        W45137  31.896  24.789  14.352
72823W        W45138  36.423  15.195  14.307
72824W        W45139  18.532  10.242   2.761
72825W        W45140  41.040  39.879  14.792
72826W        W45141   1.515  36.862  13.030
72827W        W45142  14.076  19.813   3.382
72828W        W45143  24.623   2.850   1.714
72829W        W45144  36.913  16.284  13.553
72830W        W45145  31.996  17.103  11.173
72831W        W45146  26.077  38.839  14.586
72832W        W45147  17.608  23.666  10.687
72833W        W45148   0.542  38.646   0.884
72834W        W45149  34.456  36.685   0.051
72835W        W45150  26.656  37.816  12.602
72836W        W45151   0.408  43.030   2.135
72837W        W45152  44.262  17.372  14.502
72838W        W45153  36.892   9.274   2.995
72839W        W45154  39.800   1.493  14.744
72840W        W45155   2.896  12.804   2.675
72841W        W45156  37.565   5.401   1.741
72842W        W45157  42.794  23.959   0.175
72843W        W45158  42.639  37.019   4.048
72844W        W45159   0.988   8.936   3.658
72845W        W45160  30.255   4.844   2.114
72846W        W45161  33.942  23.122  12.923
72847W        W45162  21.660  18.107   4.097
72848W        W45163   8.178   7.330  14.288
72849W        W45164   8.422  32.524  10.552
72850W        W45165   1.500  25.049   3.236
72851W        W45166  29.223  19.267   3.240
72852W        W45167  29.602  23.613   4.971
72853W        W45168   1.758  17.839  12.526
72854W        W45169  41.208  15.749  12.566
72855W        W45170  18.585  15.407  13.998
72856W        W45171  36.107  24.821  11.619
72857W        W45172  19.626  36.941  13.374
72858W        W45173  11.176   4.693  12.099
72859W        W45174   0.227  24.802   1.218
72860W        W45175  40.370  16.373   0.991
72861W        W45176  43.445  24.928  13.006
72862W        W45177  35.659   5.374   4.764
72863W        W45178  13.549  38.324   3.295
72864W        W45179  40.341  44.647   0.975
72865W        W45180  21.562   2.244  13.766
72866W        W45181  22.741  24.646   3.896
72867W        W45182  25.724  15.628  12.465
72868W        W45183  40.059  35.396   3.758
72869W        W45184  24.109  35.535  14.881
72870W        W45185  44.035  33.377   2.777
72871W        W45186   4.626   5.669   3.356
72872W        W45187  13.982  44.626  12.925
72873W        W45188   1.424  32.711  14.851
72874W        W45189  37.170   9.353  12.049
72875W        W45190  40.597   7.175  14.795
72876W        W45191  20.232  16.808   1.602
72877W        W45192  14.391  43.412   5.062
72878W        W45193  34.269  27.191   5.020
72879W        W45194  15.246  29.382   0.796
72880W        W45195   8.164  15.777   0.914
72881W        W45196  25.310  31.672  14.340
72882W        W45197  12.412   9.776   1.820
72883W        W45198  37.524  44.754   0.992
72884W        W45199  12.700  14.355   2.078
72885W        W45200  41.549  13.612   2.255
72886W        W45201   6.371  41.158  12.376
72887W        W45202   9.894  12.567  12.391
72888W        W45203  41.850  19.089   0.452
72889W        W45204  10.199  31.435  11.163
72890W        W45205  13.645   1.697   4.241
72891W        W45206   4.784  13.397  12.515
72892W        W45207  24.740  36.216  14.766
72893W        W45208  29.159  20.523  13.940
72894W        W45209  30.054   2.260  10.653
72895W        W45210   1.767  41.360   2.180
72896W        W45211   1.072  43.471   3.874
72897W        W45212  38.870  12.161  14.324
72898W        W45213  26.498  34.034  12.144
72899W        W45214  21.342  40.461   3.723
72900W        W45215  17.390   4.301  13.483
72901W        W45216  25.987   1.754   2.926
72902W        W45217   0.417   5.094  13.622
72903W        W45218  23.913   8.869   4.478
72904W        W45219  39.077  17.542   2.235
72905W        W45220  10.201  30.742   0.513
72906W        W45221  15.202  15.292   3.847
72907W        W45222  21.535  22.017   2.945
72908W        W45223  15.056  33.569   1.624
72909W        W45224  38.006  26.609   0.541
72910W        W45225  41.920  40.375  13.431
72911W        W45226   1.136   8.772  10.177
72912W        W45227  10.739   3.359   2.808
72913W        W45228  36.861   1.854   3.168
72914W        W45229  27.075  33.457  13.288
72915W        W45230  25.151  36.556   3.675
72916W        W45231  44.263   9.140   0.742
72917W        W45232  24.253  39.916   4.073
72918W        W45233  34.420  24.058   4.433
72919W        W45234  24.454  36.047  13.443
72920W        W45235  22.726  16.943  10.402
72921W        W45236  25.240  36.485   2.807
72922W        W45237   5.206  28.485  14.261
72923W        W45238  44.791   0.889  13.005
72924W        W45239  32.539  29.387  14.168
72925W        W45240  32.542   4.651   1.023
72926W        W45241   5.508  34.963   0.818
72927W        W45242  35.543  33.501   1.354
72928W        W45243  15.273  34.763   2.810
72929W        W45244  19.540  32.628   2.850
72930W        W45245   3.423  23.435  12.374
72931W        W45246   2.983  26.008  10.596
72932W        W45247  28.288  29.830   2.767
72933W        W45248   7.119  19.095   0.731
72934W        W45249  18.935  35.808   1.248
72935W        W45250  21.697  43.456  10.611
72936W        W45251  24.032  31.882   4.122
72937W        W45252   4.596  26.449  11.103
72938W        W45253  19.087  42.287  13.951
72939W        W45254  14.178  28.403  12.142
72940W        W45255  20.658  12.282  13.094
72941W        W45256  23.938  32.624   4.724
72942W        W45257   1.038  40.308   2.189
72943W        W45258  15.097  40.083  14.509
72944W        W45259  43.795  10.948   3.703
72945W        W45260   5.926  17.568  14.044
72946W        W45261   6.605  42.870  14.795
72947W        W45262  10.180  12.350  14.418
72948W        W45263   6.157   6.843   0.745
72949W        W45264   7.257  42.788  11.148
72950W        W45265  21.612   7.775   1.828
72951W        W45266  12.025  22.333  12.379
72952W        W45267  39.009  33.997   2.875
72953W        W45268  13.376   9.336   2.297
72954W        W45269  23.032   0.247   4.701
72955W        W45270  34.357  30.815   3.155
72956W        W45271  43.988  31.565  13.017
72957W        W45272  10.145  20.084  11.833
72958W        W45273  35.171  14.426  13.509
72959W        W45274   0.512  27.245  11.129
72960W        W45275  27.304  30.924   1.813
72961W        W45276   8.140  18.220   3.236
72962W        W45277  27.980  34.816  11.096
72963W        W45278  19.679  28.982  12.049
72964W        W45279  16.732  31.916   2.934
72965W        W45280  23.443   7.971   1.739
72966W        W45281   0.425  24.187   2.366
72967W        W45282  20.443  11.732  12.513
72968W        W45283  13.840  39.916   3.441
72969W        W45284  11.560   7.789  14.499
72970W        W45285   0.033  13.633   3.780
72971W        W45286  42.636  22.455  11.646
72972W        W45287  16.005  33.414  10.670
72973W        W45288   3.467  28.264   1.288
72974W        W45289  10.310   5.694   4.852
72975W        W45290   9.347  13.486  11.567
72976W        W45291   9.216   2.388   3.142
72977W        W45292   1.880   8.955  11.180
72978W        W45293  12.690  10.920  13.945
72979W        W45294  35.537   7.916   3.213
72980W        W45295  38.973  41.015  12.771
72981W        W45296  44.812  42.626   1.402
72982W        W45297  30.164  13.540  14.292
72983W        W45298  18.429  24.202  12.084
72984W        W45299  34.468  17.067   4.301
72985W        W45300  44.752  37.003  10.530
72986W        W45301   2.250  42.960  13.555
72987W        W45302   3.998   5.806  10.598
72988W        W45303  25.881  35.498   1.960
72989W        W45304   8.752  39.898  13.499
72990W        W45305  18.550  39.827  11.548
72991W        W45306   4.190   0.430  14.780
72992W        W45307  29.354  44.957   0.411
72993W        W45308  34.592   4.895  11.756
72994W        W45309  44.053  39.372  10.402
72995W        W45310  15.873   7.185  12.671
72996W        W45311  14.460  11.677  11.684
72997W        W45312  44.785  34.245   0.298
72998W        W45313  25.164  44.942  13.458
72999W        W45314  40.413   8.202   3.821
73000W        W45315  17.575  28.047  12.562
73001W        W45316  37.979  26.078   0.900
73002W        W45317  25.090  40.535   3.330
73003W        W45318  19.432   2.368  11.089
73004W        W45319  41.920  32.802  13.203
73005W        W45320  12.757  37.455  12.311
73006W        W45321  18.892  15.619   4.968
73007W        W45322  14.305   0.383  11.760
73008W        W45323  40.600  25.373  12.091
73009W        W45324  34.201  43.968  12.630
73010W        W45325   4.150  35.076  12.083
73011W        W45326  22.599  25.348  14.517
73012W        W45327  31.975  17.494   0.927
73013W        W45328  10.403  13.666  14.939
73014W        W45329   2.286  10.310   3.400
73015W        W45330  25.513  37.552   5.039
73016W        W45331  42.391   7.136  12.935
73017W        W45332   5.321  14.224  11.736
73018W        W45333  30.892  35.252   2.847
73019W        W45334  22.649  28.011   0.242
73020W        W45335   6.113   8.646  11.127
73021W        W45336  26.733   2.524   1.284
73022W        W45337   5.547  44.094   4.112
73023W        W45338  35.535   5.470  13.345
73024W        W45339  44.920  36.580   4.221
73025W        W45340  37.490  24.560   2.520
73026W        W45341  14.021  22.511   0.499
73027W        W45342   2.969  38.960   0.555
73028W        W45343   9.348  26.548  14.494
73029W        W45344  31.086  12.824  10.731
73030W        W45345  21.264  33.821   1.897
73031W        W45346  26.924  18.493   5.115
73032W        W45347  35.556  13.546   1.163
73033W        W45348  41.726   4.147  10.956
73034W        W45349  16.561  28.096   2.462
73035W        W45350  16.337  29.292  12.448
73036W        W45351  27.580  11.140   0.203
73037W        W45352  32.543  27.975  11.117
73038W        W45353  23.996  22.898   3.813
73039W        W45354  36.893  37.076  10.564
73040W        W45355  42.992  29.245  11.536
73041W        W45356  38.286   1.615   4.543
73042W        W45357  24.409  42.654   1.512
73043W        W45358  13.406   5.645  14.798
73044W        W45359  20.326   3.029   1.756
73045W        W45360  27.316  19.556  12.539
73046W        W45361  20.029  44.869  13.368
73047W        W45362  26.097  26.756  14.156
73048W        W45363  11.368   5.529   1.807
73049W        W45364  14.974  20.209  11.562
73050W        W45365  24.918  36.935  14.335
73051W        W45366  42.610  17.102   0.820
73052W        W45367  27.421  24.414  11.625
73053W        W45368  19.608  28.205   1.954
73054W        W45369  44.905  34.684   2.329
73055W        W45370  41.519  16.574   3.984
73056W        W45371   7.577  43.370  12.010
73057W        W45372  12.759  39.606  12.377
73058W        W45373  43.382  16.604   1.946
73059W        W45374   2.773  35.525  11.382
73060W        W45375  38.711  34.607   1.803
73061W        W45376  20.534   7.526   0.817
73062W        W45377  27.505  16.325   2.155
73063W        W45378  10.665  42.751  12.601
73064W        W45379   4.160  29.499  14.960
73065W        W45380  21.596  39.252  14.304
73066W        W45381  27.121  39.776  12.500
73067W        W45382  41.769   5.082  11.165
73068W        W45383  22.705   7.859  14.375
73069W        W45384   9.792  20.132  10.848
73070W        W45385   0.986   2.403  11.839
73071W        W45386  23.971  20.906   2.517
73072W        W45387   9.111   4.010  13.306
73073W        W45388  18.176  14.292   2.126
73074W        W45389  29.909  12.155   3.079
73075W        W45390  25.186  15.496   4.153
73076W        W45391   4.104  42.724  10.036
73077W        W45392  21.074  17.288   1.940
73078W        W45393   4.357   4.902   0.086
73079W        W45394  11.214  33.674  14.499
73080W        W45395   3.620   4.812   3.324
73081W        W45396  14.946  15.124  11.860
73082W        W45397  42.731  12.568  10.461
73083W        W45398  40.941  30.603   1.712
73084W        W45399  19.744   1.888  13.325
73085W        W45400  42.385  15.183   2.851
73086W        W45401  39.828  39.907  10.533
73087W        W45402   5.793  32.353   4.722
73088W        W45403  23.305   4.151  11.223
73089W        W45404  40.395  18.966  12.549
73090W        W45405  36.629  41.518  13.455
73091W        W45406   6.427  39.331   0.055
73092W        W45407  24.141  31.328  14.814
73093W        W45408  23.625  25.974  13.193
73094W        W45409  23.195  41.994  12.181
73095W        W45410  16.674  21.245   4.379
73096W        W45411  21.508  18.213   4.575
73097W        W45412   9.569  14.448   0.347
73098W        W45413  42.536  29.943   2.018
73099W        W45414  13.690  28.138   0.962
73100W        W45415  32.556   7.454  12.473
73101W        W45416  36.031  32.055   2.713
73102W        W45417  37.577  24.926   2.902
73103W        W45418  40.953  42.033   4.653
73104W        W45419   9.609  19.276   3.674
73105W        W45420  44.694   6.204   4.909
73106W        W45421  34.238   9.764  12.221
73107W        W45422   2.661  26.956   3.673
73108W        W45423  34.396  36.550   1.898
73109W        W45424   2.337  27.591   4.598
73110W        W45425  25.681  10.510  11.517
73111W        W45426  33.978  13.681  13.857
73112W        W45427   4.409   1.592   4.482
73113W        W45428  27.426  41.074   2.782
73114W        W45429  27.826  26.508  12.743
73115W        W45430  29.064  43.480  10.651
73116W        W45431  20.860   2.005  11.155
73117W        W45432  27.124  31.428  11.743
73118W        W45433  38.528  20.185   4.603
73119W        W45434  21.551  24.480  12.520
73120W        W45435  43.292  36.886  14.364
73121W        W45436  21.686  21.218  10.148
73122W        W45437  28.490  33.443  11.154
73123W        W45438  32.439  24.032   4.611
73124W        W45439  27.646  13.563  13.751
73125W        W45440  40.666  29.675   1.297
73126W        W45441  28.608  15.490   4.937
73127W        W45442  10.140  35.844   0.975
73128W        W45443  44.858  38.721  13.462
73129W        W45444   0.377   1.347  14.088
73130W        W45445  10.414  33.889   0.282
73131W        W45446  17.352  25.406   2.175
73132W        W45447  28.308  39.189   3.994
73133W        W45448  19.700   8.678   4.715
73134W        W45449  36.977  33.463  11.626
73135W        W45450   1.329  44.696   3.396
73136W        W45451  37.800  31.664   3.583
73137W        W45452  32.878   6.512   1.798
73138W        W45453  27.514  25.636   1.754
73139W        W45454  27.202  29.155  11.519
73140W        W45455   8.270   8.878   0.626
73141W        W45456  21.778  39.063  12.890
73142W        W45457  19.609  22.177   0.802
73143W        W45458   6.650  15.576  13.426
73144W        W45459  11.071   2.652  11.613
73145W        W45460  31.902  32.927  14.801
73146W        W45461  14.417  29.145   2.656
73147W        W45462  43.499  36.394   2.079
73148W        W45463   8.751  20.246  12.940
73149W        W45464   0.703  15.689  12.611
73150W        W45465  37.320  41.452   1.389
73151W        W45466  18.771  17.024   1.823
73152W        W45467  27.552   6.235   0.626
73153W        W45468  26.013   2.726   3.016
73154W        W45469  28.428   1.340   1.823
73155W        W45470  38.211  41.902   3.849
73156W        W45471  35.433  26.980  14.518
73157W        W45472  19.705  19.431  13.625
73158W        W45473  36.943  36.038   0.841
73159W        W45474  36.720  33.668   0.351
73160W        W45475  22.536  36.327   2.696
73161W        W45476   5.296  19.095  13.773
73162W        W45477  16.165   8.357   2.712
73163W        W45478  18.464  44.110   3.742
73164W        W45479   1.474  25.654   4.231
73165W        W45480  27.528   8.764  10.663
73166W        W45481  34.919  29.154   0.097
73167W        W45482  44.918  40.876   4.569
73168W        W45483   3.320  33.131   4.538
73169W        W45484  40.416   8.205   4.342
73170W        W45485  10.100   4.296   2.707
73171W        W45486  22.641  39.355  13.764
73172W        W45487  22.094  29.675   1.999
73173W        W45488  29.052  37.038   0.518
73174W        W45489  29.912  27.705   4.200
73175W        W45490  21.222   7.634  10.408
73176W        W45491  44.643  39.136  13.696
73177W        W45492  16.666  41.452  13.381
73178W        W45493   2.457  43.397   0.749
73179W        W45494   2.431  31.477  14.956
73180W        W45495  37.976  13.850   0.797
73181W        W45496  40.061  19.292   0.796
73182W        W45497   4.476  24.256   1.304
73183W        W45498  27.140  40.647  11.116
73184W        W45499   0.475   5.161  13.083
73185W        W45500  21.412  41.903  11.125
73186W        W45501  29.174  24.994  13.052
73187W        W45502  25.380  15.297   1.024
73188W        W45503   8.070  25.973  13.812
73189W        W45504  41.287  26.193  13.546
73190W        W45505  27.978  36.903  13.408
73191W        W45506   1.379   3.194  11.534
73192W        W45507  13.155  18.080  14.936
73193W        W45508  43.018   7.791   0.884
73194W        W45509  23.951  16.755  13.194
73195W        W45510  42.008  42.706  14.645
73196W        W45511   1.309   2.182  11.489
73197W        W45512  25.022  35.479  10.737
73198W        W45513  34.888   3.210  13.971
73199W        W45514   6.332  39.113  11.624
73200W        W45515  36.062   9.331  14.311
73201W        W45516  35.543  11.769  12.141
73202W        W45517  30.687  42.084   3.364
73203W        W45518  25.503  28.124   0.290
73204W        W45519  13.023   7.315  14.058
73205W        W45520  16.850  14.192  11.560
73206W        W45521   5.822  32.614  13.034
73207W        W45522  42.801  20.606  14.340
73208W        W45523  25.501   8.761  10.696
73209W        W45524  13.254  31.530   3.374
73210W        W45525  32.168  14.227   4.181
73211W        W45526  14.141   9.979   0.695
73212W        W45527  22.242   6.787   2.815
73213W        W45528  40.818  28.543   3.616
73214W        W45529  32.369  40.477   0.490
73215W        W45530  42.821  41.020   0.289
73216W        W45531  38.775  37.539   0.900
73217W        W45532  31.504   1.208  12.411
73218W        W45533   2.540  30.040  13.345
73219W        W45534  17.539  18.856   1.785
73220W        W45535  39.506  14.660   0.432
73221W        W45536  44.368  41.748  13.943
73222W        W45537  28.928  33.514   1.848
73223W        W45538  23.636   1.158   4.784
73224W        W45539   9.169  29.425  14.024
73225W        W45540  21.460  25.708   3.757
73226W        W45541  40.307  10.872   1.882
73227W        W45542  32.885   7.475   1.767
73228W        W45543  44.493   8.747  13.804
73229W        W45544   1.407  23.584   2.007
73230W        W45545  26.081  16.129   1.173
73231W        W45546  16.182   7.150   3.345
73232W        W45547  20.829  29.456   4.576
73233W        W45548  34.757  23.754   3.583
73234W        W45549  20.905  37.796   1.779
73235W        W45550   0.945   8.716   3.183
73236W        W45551   9.693  26.930   1.301
73237W        W45552   8.703   2.278  10.663
73238W        W45553  44.177  35.508   3.295
73239W        W45554  41.938  21.548   2.316
73240W        W45555  21.589  39.407  10.688
73241W        W45556  39.052  18.542   4.621
73242W        W45557  43.060  19.259   0.928
73243W        W45558  24.036   3.495   2.154
73244W        W45559  15.304  36.617   0.868
73245W        W45560  29.518  28.383   4.613
73246W        W45561  29.012  14.571  11.683
73247W        W45562   8.917  40.284  12.145
73248W        W45563  27.419   4.345  10.925
73249W        W45564  18.883  43.828   0.856
73250W        W45565   6.857  26.967   2.102
73251W        W45566  27.501  18.290   4.183
73252W        W45567  29.853  42.032   3.566
73253W        W45568   4.453  28.774  13.454
73254W        W45569  10.366  26.124  14.262
73255W        W45570  30.554  19.736  13.434
73256W        W45571  19.297  24.930   0.003
73257W        W45572  17.756  26.527   2.324
73258W        W45573   8.323  10.931   3.628
73259W        W45574  38.103  24.000  14.914
73260W        W45575  23.505   5.025   1.704
73261W        W45576   5.688  10.858  11.629
73262W        W45577  18.156  38.300  13.402
73263W        W45578  42.499  43.203   1.636
73264W        W45579  37.142   1.964  12.490
73265W        W45580  21.686  10.634  14.758
73266W        W45581  29.483   8.414  14.227
73267W        W45582  25.582  21.946   4.177
73268W        W45583  29.332   0.080  12.876
73269W        W45584  31.035  13.523  12.406
73270W        W45585   8.351   4.295  14.334
73271W        W45586  36.111  28.141  13.499
73272W        W45587  10.175  38.080   2.244
73273W        W45588  39.680  36.899   0.077
73274W        W45589  12.206  35.271  11.174
73275W        W45590  44.057  17.349  13.353
73276W        W45591  33.886  16.625  13.381
73277W        W45592  37.075  34.470   0.500
73278W        W45593   6.188  19.081   2.689
73279W        W45594   8.796  30.442  12.841
73280W        W45595  25.059  28.373  11.913
73281W        W45596  35.155  17.755   1.292
73282W        W45597   6.786  11.120   0.766
73283W        W45598   2.951  21.490   4.544
73284W        W45599  43.880  17.736   1.408
73285W        W45600  44.961   1.533   1.908
73286W        W45601   6.848   1.761  14.841
73287W        W45602   9.605  12.855  10.537
73288W        W45603  14.705  32.355  10.581
73289W        W45604  29.963  30.477  14.699
73290W        W45605  32.973  43.305   2.840
73291W        W45606  21.942  12.854  14.322
73292W        W45607  36.401  28.144   3.195
73293W        W45608  35.647   4.071  12.647
73294W        W45609   0.322  21.265   2.308
73295W        W45610  34.008  42.460   0.978
73296W        W45611   4.801   6.191  13.034
73297W        W45612  41.854  16.943  12.358
73298W        W45613  37.549  13.189   1.454
73299W        W45614  24.338  22.035   4.651
73300W        W45615  17.710  38.288   4.850
73301W        W45616   7.339  20.259  11.095
73302W        W45617   9.966  40.082   1.319
73303W        W45618  13.326  44.719  14.063
73304W        W45619   7.407  12.397  14.848
73305W        W45620  20.600  11.252  14.848
73306W        W45621  13.917  40.495  13.144
73307W        W45622  38.624  40.268  12.152
73308W        W45623  32.588  25.100  12.813
73309W        W45624  41.391   4.643  12.516
73310W        W45625   3.439   8.194   4.518
73311W        W45626  16.689  40.746  10.770
73312W        W45627  40.780  21.183  11.913
73313W        W45628   2.288  21.869   0.795
73314W        W45629   7.591  40.928  14.124
73315W        W45630  18.085  40.087   2.258
73316W        W45631  31.507  44.267   0.995
73317W        W45632  13.553  25.901   3.247
73318W        W45633  16.797  41.955  13.360
73319W        W45634  16.601  36.561  10.795
73320W        W45635   0.529  29.118  12.564
73321W        W45636  24.765  44.974   4.571
73322W        W45637   9.880   4.696   2.446
73323W        W45638  38.216  13.644   3.594
73324W        W45639  13.891  44.426  14.248
73325W        W45640  28.580  22.227   3.536
73326W        W45641  24.074  15.105  14.954
73327W        W45642  22.828  15.640   4.140
73328W        W45643  32.417  18.856  12.419
73329W        W45644  17.199  21.529   2.709
73330W        W45645  14.583  17.673   0.144
73331W        W45646  25.168   4.084  13.433
73332W        W45647  32.921  34.632   4.821
73333W        W45648  28.123  44.078  13.953
73334W        W45649  22.837  43.893   4.217
73335W        W45650  20.669   4.986  11.996
73336W        W45651  40.540  32.677  11.085
73337W        W45652  22.573  19.192  10.168
73338W        W45653  33.333   4.675   0.010
73339W        W45654  19.475  39.802  11.124
73340W        W45655   9.277  27.683   1.313
73341W        W45656  44.261  41.010  12.519
73342W        W45657   1.889  27.212  11.722
73343W        W45658  39.482   4.693  11.781
73344W        W45659  38.059  21.237  13.421
73345W        W45660  36.488  26.884   2.670
73346W        W45661  37.340  33.609  12.909
73347W        W45662  30.171  22.655  12.899
73348W        W45663  40.327   7.764   4.096
73349W        W45664   3.280  31.720   0.922
73350W        W45665  41.291  42.971   3.724
73351W        W45666  36.599  33.178  14.048
73352W        W45667   3.452  33.032  13.781
73353W        W45668  43.570  29.071   4.825
73354W        W45669  35.236  28.493  13.562
73355W        W45670   6.515   0.006  11.006
73356W        W45671   4.753  36.043  10.387
73357W        W45672  43.840   2.682   0.894
73358W        W45673  25.589  40.469   3.558
73359W        W45674  24.143  18.155   0.659
73360W        W45675  36.996  34.980   4.104
73361W        W45676  41.829   2.839   1.870
73362W        W45677  37.912  37.535   3.717
73363W        W45678  24.933  29.454  14.765
73364W        W45679  15.203   9.121   3.542
73365W        W45680  16.708   2.456  14.116
73366W        W45681  35.264  14.712   0.298
73367W        W45682  32.027  28.097  10.749
73368W        W45683  36.400  15.625  11.634
73369W        W45684  17.164  42.537  12.853
73370W        W45685  28.516   2.143  12.516
73371W        W45686  36.780  36.042  14.911
73372W        W45687  25.538  21.540  14.565
73373W        W45688  13.581   2.525  12.444
73374W        W45689  15.483   2.755  12.500
73375W        W45690  15.222   7.877   3.114
73376W        W45691   7.631  41.636  12.531
73377W        W45692  23.094   3.155   1.711
73378W        W45693  22.883  13.388   2.448
73379W        W45694  41.404   5.256   4.611
73380W        W45695  20.261  27.083   0.672
73381W        W45696  19.547  17.727  14.583
73382W        W45697  17.239  14.908   4.174
73383W        W45698  41.864  27.690  14.047
73384W        W45699  42.276  36.792   2.994
73385W        W45700  11.569  18.606   3.292
73386W        W45701  40.489   6.085   0.709
73387W        W45702  36.950   0.256  13.618
73388W        W45703   4.779  44.747   1.526
73389W        W45704  25.602  14.656  12.629
73390W        W45705  26.998  32.077   3.655
73391W        W45706  24.714   7.832  13.884
73392W        W45707  22.439  18.782   0.945
73393W        W45708  36.874   0.206   1.461
73394W        W45709  19.161  10.324   2.291
73395W        W45710  34.526   9.327  11.595
73396W        W45711  10.881  29.664  13.844
73397W        W45712  41.435  35.438  13.511
73398W        W45713  26.143   3.218   3.113
73399W        W45714  14.085   6.484   4.393
73400W        W45715  17.177  29.872  11.141
73401W        W45716  26.484   2.960   1.370
73402W        W45717  21.145  38.789  12.822
73403W        W45718  28.440  27.021   4.566
73404W        W45719   5.101   3.986  14.430
73405W        W45720  22.290  13.121  12.013
73406W        W45721   6.779   7.394   5.157
73407W        W45722  40.337  32.471   3.737
73408W        W45723  35.042   7.616   4.096
73409W        W45724  13.337  16.045  14.874
73410W        W45725  21.587   3.625  13.495
73411W        W45726  21.734  19.165  11.443
73412W        W45727  20.708  19.147   1.905
73413W        W45728   9.431  12.308  11.627
73414W        W45729  27.847  23.601  14.817
73415W        W45730  22.967  36.961  12.376
73416W        W45731  17.316  37.732   1.917
73417W        W45732   3.643  29.179  14.303
73418W        W45733  31.139  34.205   2.926
73419W        W45734  39.197  41.437   2.886
73420W        W45735  40.800  32.294  11.878
73421W        W45736  18.653   7.303  14.253
73422W        W45737  28.077  11.628   1.341
73423W        W45738   6.803   8.283   3.334
73424W        W45739  28.317  13.232   4.525
73425W        W45740  25.595  19.370   2.846
73426W        W45741  33.349  43.522  12.272
73427W        W45742  24.575  34.855   2.542
73428W        W45743   6.722  11.755   4.569
73429W        W45744   9.135  26.687  14.014
73430W        W45745  24.925  28.409   4.816
73431W        W45746  14.759  40.208   1.619
73432W        W45747   9.041  31.480   2.210
73433W        W45748  44.657  28.997   1.196
73434W        W45749  34.454   1.431   0.516
73435W        W45750  39.141  22.232  12.919
73436W        W45751  31.921  32.589   3.301
73437W        W45752  36.178  14.418  11.526
73438W        W45753   4.171  16.572   2.444
73439W        W45754  44.285  36.853  13.484
73440W        W45755   9.274  39.400  13.953
73441W        W45756  36.981  13.585   2.372
73442W        W45757  35.612  39.363  12.106
73443W        W45758  26.198  13.944   5.272
73444W        W45759  27.809   0.896  12.480
73445W        W45760  36.676  41.460   2.626
73446W        W45761  39.129  16.558   3.330
73447W        W45762  28.969  13.663  12.732
73448W        W45763   9.807  29.460   0.278
73449W        W45764   3.908  41.392   4.249
73450W        W45765  43.824  28.990   2.155
73451W        W45766  38.172  12.199   2.727
73452W        W45767  10.208  26.098   3.238
73453W        W45768  39.793   8.713  12.553
73454W        W45769  17.441  10.592  14.879
73455W        W45770  23.088  32.831  12.938
73456W        W45771  20.158  10.312   3.405
73457W        W45772  15.839   6.882   3.639
73458W        W45773   9.655  13.987   0.555
73459W        W45774  26.500  36.769   1.919
73460W        W45775  39.284  23.122   1.462
73461W        W45776   1.486   7.970  13.187
73462W        W45777  34.939  12.632  14.870
73463W        W45778  19.694   2.929  13.382
73464W        W45779  39.341  25.430  13.846
73465W        W45780   7.375  31.690   0.653
73466W        W45781  42.069  13.376   4.099
73467W        W45782   7.209  31.636  12.516
73468W        W45783  27.549  38.574   2.343
73469W        W45784  42.347   0.356  11.135
73470W        W45785  10.871   3.850   2.155
73471W        W45786  17.007   1.525   4.977
73472W        W45787   3.221  41.382  11.214
73473W        W45788  21.802  18.660  13.991
73474W        W45789  43.242   8.150  11.088
73475W        W45790  41.336  14.900  10.690
73476W        W45791   8.517  27.200  14.920
73477W        W45792  32.365  32.851  12.553
73478W        W45793  31.006  41.823  13.924
73479W        W45794   7.212  33.383  13.097
73480W        W45795  44.516  44.983   2.729
73481W        W45796   0.825  17.785   0.959
73482W        W45797  24.182   9.589  11.852
73483W        W45798  20.263   5.412   1.255
73484W        W45799  42.483  32.341   3.627
73485W        W45800  31.219  26.620   2.621
73486W        W45801  15.662  34.970   0.958
73487W        W45802  21.996  28.505  11.110
73488W        W45803  27.828  27.529   2.733
73489W        W45804  11.260  37.423  11.611
73490W        W45805  13.101  21.494   3.663
73491W        W45806   1.074  21.240  10.384
73492W        W45807  32.041  16.295   2.144
73493W        W45808  41.669  31.944  12.789
73494W        W45809   1.230  19.488  12.481
73495W        W45810  24.122  31.371  12.501
73496W        W45811  16.181  17.255  14.529
73497W        W45812  30.141  20.758  12.079
73498W        W45813  12.400  27.554  13.113
73499W        W45814  44.026  26.210   2.321
73500W        W45815  35.479   4.383   1.453
73501W        W45816  26.171  39.286  11.175
73502W        W45817  16.486  32.512   1.577
73503W        W45818  22.207  35.767  11.652
73504W        W45819  22.938   8.762  12.133
73505W        W45820  18.801   3.602   2.417
73506W        W45821  38.989  12.402   4.260
73507W        W45822  10.076  28.006  13.660
73508W        W45823  40.850  40.100   2.679
73509W        W45824   6.691  17.111  11.204
73510W        W45825  15.159  35.354  13.222
73511W        W45826  36.638  33.965   2.060
73512W        W45827  31.391  18.165  12.009
73513W        W45828  35.803  18.233   0.255
73514W        W45829  32.050  44.853   1.714
73515W        W45830  20.112  18.062  13.139
73516W        W45831   6.831  11.925  11.671
73517W        W45832   8.037   2.153  11.310
73518W        W45833   2.286  29.890  14.309
73519W        W45834  24.693  14.533  12.865
73520W        W45835  10.785  16.833  11.495
73521W        W45836   4.000  33.575   4.197
73522W        W45837  16.566  35.038  11.465
73523W        W45838  18.114  27.473   2.356
73524W        W45839  19.581  30.939   0.012
73525W        W45840  31.700  34.403   4.543
73526W        W45841  35.440  37.034  13.180
73527W        W45842   4.897   3.021  13.805
73528W        W45843   4.229  32.523   3.402
73529W        W45844  42.536  29.121   4.735
73530W        W45845   6.952  14.880   3.691
73531W        W45846  32.624  27.437   2.429
73532W        W45847  12.078  39.996   4.930
73533W        W45848  31.976  20.757  14.140
73534W        W45849  30.549  15.309   0.339
73535W        W45850  29.416  34.429   2.340
73536W        W45851   7.286  20.117   2.194
73537W        W45852  32.579  11.730   4.227
73538W        W45853  37.381  36.626  14.376
73539W        W45854  27.989   2.873   1.798
73540W        W45855  40.751  36.944  11.400
73541W        W45856   2.733   6.150  11.577
73542W        W45857  22.989  30.446  11.258
73543W        W45858  28.953   8.248  12.176
73544W        W45859   7.342  37.958  11.250
73545W        W45860  17.127  36.601   4.888
73546W        W45861  13.618  12.266   0.812
73547W        W45862   7.455   1.996  10.687
73548W        W45863  44.968  18.973   1.423
73549W        W45864   0.904  34.225   4.554
73550W        W45865  12.272  15.012   4.655
73551W        W45866  31.576  26.041  13.808
73552W        W45867  39.690  29.638   5.011
73553W        W45868  38.010   8.748  14.211
73554W        W45869  24.973   1.621   0.780
73555W        W45870  28.738  16.306   1.157
73556W        W45871   6.021  35.483   2.121
73557W        W45872  35.013  10.622  10.693
73558W        W45873  19.837  37.182  12.097
73559W        W45874   0.772  16.256  14.437
73560W        W45875  10.255  30.712   4.537
73561W        W45876  15.398  31.216  12.958
73562W        W45877  15.481  33.016  11.568
73563W        W45878  39.584  42.889   4.123
73564W        W45879   9.950  27.455   2.258
73565W        W45880  12.246  21.140  10.660
73566W        W45881  41.980   6.247   0.914
73567W        W45882  37.084  42.154  12.235
73568W        W45883  20.726   3.318   1.939
73569W        W45884  22.287  20.037   5.120
73570W        W45885   3.677  16.316  13.426
73571W        W45886  29.437  34.275  14.798
73572W        W45887  19.022  11.666   4.181
73573W        W45888  23.688  34.535   1.342
73574W        W45889  43.049  43.306   4.699
73575W        W45890  40.771   2.465  11.137
73576W        W45891  34.504  23.557  12.075
73577W        W45892  20.237  40.607  10.421
73578W        W45893  43.423  16.118   0.735
73579W        W45894  28.937  29.529   1.830
73580W        W45895  26.259  24.397   4.880
73581W        W45896  16.329   4.291  14.843
73582W        W45897  44.245  37.964  12.102
73583W        W45898  40.895   6.189  13.107
73584W        W45899  38.151   0.259  14.335
73585W        W45900  18.057   2.689   2.975
73586W        W45901  32.588  39.650   0.951
73587W        W45902  32.845  10.408   3.990
73588W        W45903  24.099  44.781  11.439
73589W        W45904   0.007  14.059  11.110
73590W        W45905  27.505  19.663   1.792
73591W        W45906  23.022   1.317   3.581
73592W        W45907  38.415   0.001   0.110
73593W        W45908  24.517  42.458   2.989
73594W        W45909  28.530  14.767  11.711
73595W        W45910  26.755  14.695   3.813
73596W        W45911   4.357   9.388   2.326
73597W        W45912  40.951  33.149  11.637
73598W        W45913   9.754  37.228   4.220
73599W        W45914  22.942  12.406   0.050
73600W        W45915  26.312  35.016   5.079
73601W        W45916   2.626   0.735  11.427
73602W        W45917  23.072  27.727  13.934
73603W        W45918  30.570  40.845  13.187
73604W        W45919  29.862  41.252  13.612
73605W        W45920  38.264  19.583   4.039
73606W        W45921   8.960  24.745  12.115
73607W        W45922   8.352  24.344   0.395
73608W        W45923  10.294   3.116   2.849
73609W        W45924   3.965   9.738   3.633
73610W        W45925  19.888   8.781   5.420
73611W        W45926  23.990  24.920  13.510
73612W        W45927   3.521  21.276   3.659
73613W        W45928  40.805  29.247  11.973
73614W        W45929  28.533  35.291  13.725
73615W        W45930  14.274  22.545  13.615
73616W        W45931  30.591   6.185  10.715
73617W        W45932  25.782  15.863  11.208
73618W        W45933  30.509   4.723   4.115
73619W        W45934   3.815  41.052  14.514
73620W        W45935  30.419   6.662  11.573
73621W        W45936   5.135   3.635   0.678
73622W        W45937   5.896  13.670  11.696
73623W        W45938  21.321  16.524  12.068
73624W        W45939  31.933  28.025  13.033
73625W        W45940   6.321  22.229  11.535
73626W        W45941  16.969   9.384   0.305
73627W        W45942  35.134  35.791  12.272
73628W        W45943   0.950  15.336   0.331
73629W        W45944  11.292  41.315  11.131
73630W        W45945  26.480  41.812   1.355
73631W        W45946  32.394  21.254   0.244
73632W        W45947  11.310  41.907   3.895
73633W        W45948   9.368  15.504   5.151
73634W        W45949  30.832  32.590   0.273
73635W        W45950  11.261  25.548  13.426
73636W        W45951   2.098   7.103   1.194
73637W        W45952   1.316  23.616   4.808
73638W        W45953  36.358   2.686   1.728
73639W        W45954  27.650  37.930  11.374
73640W        W45955   0.143  11.359   4.237
73641W        W45956  26.203  31.653   0.905
73642W        W45957  21.059  33.332  12.383
73643W        W45958   4.620  34.530   0.972
73644W        W45959  22.913   5.199  12.060
73645W        W45960  27.085  12.534  11.546
73646W        W45961   1.355  31.914   0.352
73647W        W45962  23.673  16.820   3.212
73648W        W45963   6.369  20.693  14.425
73649W        W45964  25.650  23.255   2.875
73650W        W45965  26.188  15.611   4.104
73651W        W45966  25.438  35.381   0.756
73652W        W45967  37.846  42.513  13.434
73653W        W45968   2.784  33.626   3.467
73654W        W45969  39.556  28.634  14.420
73655W        W45970  26.179  12.805  10.770
73656W        W45971   0.529  39.051   1.726
73657W        W45972   7.784   1.437  12.150
73658W        W45973  19.311  18.622   1.406
73659W        W45974   5.185  31.043  14.417
73660W        W45975  20.457  42.293  11.841
73661W        W45976  26.520  23.443  14.937
73662W        W45977  40.885  10.717  13.910
73663W        W45978  35.944   6.357   1.478
73664W        W45979  26.199  13.531   4.707
73665W        W45980  28.461  28.603   1.479
73666W        W45981   4.790  40.941   1.833
73667W        W45982  10.383   5.252   1.399
73668W        W45983  19.941  36.585   2.293
73669W        W45984   3.966   4.194  12.909
73670W        W45985  24.600   9.669   1.906
73671W        W45986   8.207  37.634   4.572
73672W        W45987  33.150  20.106  14.327
73673W        W45988  32.181  10.764  14.278
73674W        W45989  25.743  25.439   3.240
73675W        W45990  32.929  13.119   3.664
73676W        W45991  36.738  40.060   0.331
73677W        W45992  38.055  27.683   1.285
73678W        W45993  16.579  26.401   0.063
73679W        W45994  35.498   9.057   4.463
73680W        W45995  32.657   8.885  12.902
73681W        W45996   4.050  14.797   0.002
73682W        W45997  19.112  40.309   1.717
73683W        W45998  37.872  29.695   2.103
73684W        W45999   0.834  23.019   4.918
73685W        W46000  36.704  23.043   3.152
73686W        W46001  43.874  30.991   2.318
73687W        W46002  26.713   8.662  11.975
73688W        W46003   9.296   6.787   3.340
73689W        W46004   3.295  39.104  11.993
73690W        W46005   9.634  24.418  14.046
73691W        W46006  35.512  34.684   3.155
73692W        W46007   7.430  24.431   2.852
73693W        W46008   6.446  11.362  12.435
73694W        W46009  31.854  25.165   3.713
73695W        W46010  25.213  12.090  10.752
73696W        W46011   4.690  34.466  13.903
73697W        W46012  11.833   0.233   0.945
73698W        W46013  36.681  36.023   3.544
73699W        W46014  12.500  39.080  14.958
73700W        W46015   8.933  15.795  13.974
73701W        W46016   1.800  28.185   2.223
73702W        W46017  29.961  13.436   2.259
73703W        W46018  41.423  27.036  12.778
73704W        W46019  42.903  34.886   4.382
73705W        W46020  29.523   0.790  12.315
73706W        W46021   4.954  42.823  13.889
73707W        W46022   2.425  24.468  14.979
73708W        W46023  39.367   1.456   1.717
73709W        W46024  20.141   9.874  11.727
73710W        W46025  19.116  24.136  14.493
73711W        W46026  14.247  16.719  10.808
73712W        W46027  31.510  16.338   0.361
73713W        W46028  39.879  27.682   2.377
73714W        W46029  22.987   1.256   1.646
73715W        W46030  23.723   6.213   2.386
73716W        W46031  37.902  44.045  13.897
73717W        W46032  20.941   8.259   4.881
73718W        W46033   3.825  37.598   0.515
73719W        W46034  10.547  27.697   0.047
73720W        W46035   7.909  37.939   3.399
73721W        W46036  35.642  10.478  12.567
73722W        W46037   9.160  14.656   3.269
73723W        W46038  39.525  17.051   2.744
73724W        W46039  32.566   9.154   0.838
73725W        W46040   3.694   6.316  12.931
73726W        W46041  20.432   9.109   4.931
73727W        W46042  20.642  22.033   0.368
73728W        W46043  31.087  35.574   1.332
73729W        W46044   3.450  29.680   4.260
73730W        W46045  22.217  42.331   3.610
73731W        W46046  37.131   0.030  11.997
73732W        W46047  35.098   7.688   3.164
73733W        W46048  18.635  43.232  13.857
73734W        W46049   2.506  40.795  14.916
73735W        W46050  19.694   5.689  13.406
73736W        W46051  14.286  43.915   3.815
73737W        W46052  39.491  16.208   3.222
73738W        W46053   9.703  22.971  13.738
73739W        W46054  29.248  29.280  12.723
73740W        W46055  27.648   1.618   1.283
73741W        W46056  34.483   9.365   1.873
73742W        W46057  34.039  25.041  11.355
73743W        W46058  25.527  28.088  13.544
73744W        W46059  33.905   2.255   3.809
73745W        W46060  25.258  39.993   2.132
73746W        W46061  44.206  17.149  10.981
73747W        W46062  32.097  43.755   1.627
73748W        W46063  39.508   7.222  10.651
73749W        W46064  24.527  41.372  14.866
73750W        W46065  17.709   0.004   1.139
73751W        W46066  12.341  19.234   3.485
73752W        W46067  10.894   1.051   0.824
73753W        W46068  39.204  14.688  13.164
73754W        W46069  43.499  25.646  13.308
73755W        W46070   2.989   1.288  13.068
73756W        W46071   4.262  30.036   1.911
73757W        W46072   7.087   5.137   0.528
73758W        W46073   0.200   5.709   2.118
73759W        W46074  10.743   6.446   0.820
73760W        W46075  33.820  34.497  12.942
73761W        W46076  18.805  43.821  11.363
73762W        W46077   5.738  40.752   4.590
73763W        W46078  27.624  14.332   0.682
73764W        W46079  38.329   5.430  13.404
73765W        W46080  21.722  20.484   2.302
73766W        W46081  35.365  38.878  12.067
73767W        W46082   0.296  25.947   0.208
73768W        W46083   5.074   1.805  13.468
73769W        W46084  10.243  22.213   2.248
73770W        W46085  17.284   8.679  10.023
73771W        W46086  21.516  34.521   0.862
73772W        W46087  25.975  36.328  11.635
73773W        W46088  26.132  27.945  12.509
73774W        W46089  20.278  22.682  12.627
73775W        W46090  31.956  11.985  11.127
73776W        W46091  27.764  33.936  10.678
73777W        W46092  42.868  44.746  13.428
73778W        W46093  11.659  36.957   4.368
73779W        W46094   6.858  44.777   0.841
73780W        W46095   7.389  31.956   3.861
73781W        W46096  13.919  28.536   3.813
73782W        W46097  20.697  43.170   1.729
73783W        W46098   0.256  37.012   2.251
73784W        W46099   2.167  34.126   3.234
73785W        W46100  33.691  16.825   1.762
73786W        W46101  38.452  10.786   1.205
73787W        W46102   2.638  36.470  11.600
73788W        W46103  11.581  15.267  12.673
73789W        W46104  44.554  17.515  14.109
73790W        W46105  31.003  30.758   1.396
73791W        W46106   0.245  12.683   2.836
73792W        W46107  14.381  12.393  12.534
73793W        W46108  24.565   9.229   2.221
73794W        W46109  17.301  29.424   0.734
73795W        W46110  22.036  26.963   0.306
73796W        W46111  19.479  16.769  13.290
73797W        W46112  12.256  13.307  12.141
73798W        W46113  28.149  27.450  10.699
73799W        W46114  28.672  23.134  14.440
73800W        W46115   1.305  28.228  10.806
73801W        W46116  21.005  35.481   4.110
73802W        W46117  24.636  19.072   4.009
73803W        W46118  21.274   8.138  14.498
73804W        W46119  44.146  40.404   4.576
73805W        W46120  35.170  32.646  10.684
73806W        W46121   2.933   9.341   4.757
73807W        W46122  26.425   3.959   3.655
73808W        W46123   5.474  12.689  12.810
73809W        W46124  23.603   2.062   2.711
73810W        W46125   0.485  18.698  14.050
73811W        W46126   3.211  30.005  10.823
73812W        W46127  19.412  15.669   3.739
73813W        W46128   5.659  18.432   3.154
73814W        W46129  44.581   5.807  10.323
73815W        W46130  44.941  23.326   4.254
73816W        W46131  33.101  29.644  10.545
73817W        W46132  44.665  27.171  11.303
73818W        W46133  35.420   4.753   3.163
73819W        W46134  26.052  22.727  14.398
73820W        W46135   9.949  21.321  12.636
73821W        W46136  13.636  15.473  13.587
73822W        W46137  42.550  22.986   4.470
73823W        W46138  33.927  18.593  13.411
73824W        W46139   0.682  19.794  14.856
73825W        W46140  31.699  18.325  14.281
73826W        W46141  13.302  16.447  11.045
73827W        W46142  34.052  13.843   4.694
73828W        W46143   1.817  30.690  14.750
73829W        W46144  17.790  44.190  14.806
73830W        W46145   8.882   7.681   0.443
73831W        W46146   6.341  11.588  14.385
73832W        W46147  40.896  16.582  14.806
73833W        W46148  20.667   3.698  11.524
73834W        W46149   6.186  27.811   4.150
73835W        W46150   4.286  33.871  13.473
73836W        W46151  10.707  28.615  12.181
73837W        W46152  38.639  35.565   0.446
73838W        W46153  38.480  19.194   3.081
73839W        W46154  29.124  12.582  14.404
73840W        W46155  35.811   1.242   1.763
73841W        W46156  20.174  17.686  11.599
73842W        W46157  32.501  30.914   1.751
73843W        W46158  29.827  13.797  13.947
73844W        W46159  27.653   3.701  11.563
73845W        W46160  33.032   1.297   1.252
73846W        W46161  10.436   0.773   0.804
73847W        W46162  38.404  35.063   4.605
73848W        W46163  20.744   2.482   2.222
73849W        W46164  29.892  22.668  12.468
73850W        W46165  42.314  32.175   4.486
73851W        W46166  24.415  19.232  14.651
73852W        W46167  25.774  21.677   4.564
73853W        W46168   0.219  34.022   3.195
73854W        W46169  21.600  27.714  13.872
73855W        W46170  34.912  36.360  14.706
73856W        W46171  31.103  33.156   0.775
73857W        W46172  44.607  10.292  10.234
73858W        W46173  37.476  38.300  12.461
73859W        W46174  10.606   3.658   4.068
73860W        W46175  11.564  29.039   4.590
73861W        W46176  34.312   4.357   3.263
73862W        W46177  17.316  14.884   1.273
73863W        W46178  25.341  13.248   3.602
73864W        W46179   3.961   1.412  13.911
73865W        W46180   7.315  36.414   4.053
73866W        W46181  15.366  14.094   0.805
73867W        W46182  17.734  31.014   9.920
73868W        W46183  12.723  19.682   4.606
73869W        W46184  42.857  11.855   0.397
73870W        W46185  27.088  43.082  10.237
73871W        W46186  16.796  19.506   0.494
73872W        W46187  32.502   0.073  14.748
73873W        W46188  25.204  41.587   3.234
73874W        W46189  12.677  34.665   3.150
73875W        W46190  41.710  12.683   4.491
73876W        W46191  40.164  15.371  11.190
73877W        W46192  17.216  13.484  11.955
73878W        W46193   2.197  41.596   2.349
73879W        W46194   4.671  29.053   0.256
73880W        W46195  20.363   4.625  11.823
73881W        W46196  23.928   7.362   2.685
73882W        W46197  14.497  41.573   3.204
73883W        W46198   0.377  24.641  13.856
73884W        W46199  13.838  39.784  11.969
73885W        W46200  25.122  21.641   1.851
73886W        W46201  29.576   5.754   2.602
73887W        W46202  32.524  29.543   4.921
73888W        W46203  25.224  41.523   1.846
73889W        W46204   1.138  24.658   2.582
73890W        W46205  37.635  33.356   3.938
73891W        W46206  31.676  24.851  13.198
73892W        W46207  37.834  35.722  13.553
73893W        W46208  31.447  21.053  11.428
73894W        W46209  19.762  27.457  11.201
73895W        W46210  29.598  19.607   0.983
73896W        W46211   7.870  43.257   3.303
73897W        W46212   4.842  19.003  11.629
73898W        W46213  39.391  13.889  12.010
73899W        W46214  14.193  10.601  14.881
73900W        W46215  35.050  39.336  13.580
73901W        W46216  36.750  18.380  12.496
73902W        W46217   6.762  18.117  14.839
73903W        W46218  21.561   1.019   2.400
73904W        W46219  19.248   6.281   2.109
73905W        W46220  29.655   0.893   2.683
73906W        W46221   1.001  15.605   1.660
73907W        W46222  31.421  14.146  13.834
73908W        W46223  23.036  33.123  12.461
73909W        W46224  20.091   2.828  11.688
73910W        W46225  33.909  15.215   1.975
73911W        W46226  15.097  44.188  13.604
73912W        W46227  39.330  26.753  11.027
73913W        W46228  40.388   7.464  14.427
73914W        W46229   1.827  31.447   3.599
73915W        W46230  14.322   9.348   0.360
73916W        W46231  30.053  39.814  14.996
73917W        W46232  40.968  19.066  10.704
73918W        W46233   9.653   8.780   4.229
73919W        W46234  20.642  23.012  13.340
73920W        W46235  22.757  22.506   4.038
73921W        W46236  18.462  35.836   2.757
73922W        W46237  44.442  40.006   0.295
73923W        W46238  17.147  20.234   1.662
73924W        W46239   1.972   9.002   4.503
73925W        W46240  21.066   1.371   3.315
73926W        W46241   9.857   0.734   3.187
73927W        W46242  43.483   8.653  14.563
73928W        W46243  24.163  12.452  12.987
73929W        W46244  20.103  35.991   1.804
73930W        W46245  32.991  11.168   1.694
73931W        W46246  24.641  12.098   0.864
73932W        W46247   6.235  21.849   0.159
73933W        W46248  32.952   8.363   3.231
73934W        W46249   5.317  16.978   0.647
73935W        W46250  19.076  28.061  10.710
73936W        W46251  21.385  24.026   0.822
73937W        W46252  24.716  26.052   1.263
73938W        W46253  15.078  44.887  10.901
73939W        W46254  25.568  28.774   3.569
73940W        W46255  36.723  12.350   1.829
73941W        W46256  13.621  13.742  10.654
73942W        W46257   3.010  40.787  11.504
73943W        W46258  27.133  21.309   3.581
73944W        W46259  23.213  30.495  10.816
73945W        W46260  40.605   2.867  14.968
73946W        W46261   0.703  40.360  14.067
73947W        W46262  23.829  12.871  12.953
73948W        W46263   7.330  21.575  13.034
73949W        W46264   5.085  27.587   2.379
73950W        W46265  15.562  13.318   2.338
73951W        W46266  15.787  23.517  12.814
73952W        W46267  11.848  28.619  14.018
73953W        W46268  42.875  22.182  14.341
73954W        W46269  42.980  10.780  13.979
73955W        W46270  32.060  39.328  13.841
73956W        W46271  33.489   2.548  11.554
73957W        W46272   1.561  34.877   3.684
73958W        W46273  43.976  33.286   1.996
73959W        W46274  23.698   9.730  14.896
73960W        W46275  14.091   3.399   4.633
73961W        W46276  28.801   1.053  12.808
73962W        W46277  21.921  30.542  11.685
73963W        W46278   7.352  25.543   2.474
73964W        W46279   9.871   5.169   4.089
73965W        W46280  36.166  43.231   4.669
73966W        W46281   3.160  37.961   2.938
73967W        W46282  31.134   2.383   3.902
73968W        W46283   8.898  12.198   1.909
73969W        W46284   4.093  12.419  12.071
73970W        W46285   9.266   7.776   4.317
73971W        W46286  41.367  15.260  14.050
73972W        W46287  38.989  37.833   3.201
73973W        W46288  17.723  18.084   1.400
73974W        W46289  11.589  20.626   0.849
73975W        W46290  31.868  25.042  13.886
73976W        W46291   7.756  12.228   1.766
73977W        W46292  30.890   7.379  13.749
73978W        W46293   4.834  36.914   1.771
73979W        W46294  42.079  23.989   1.465
73980W        W46295  44.272   4.624   4.258
73981W        W46296  10.722  16.108  11.954
73982W        W46297  17.072   2.776  10.629
73983W        W46298   6.031  21.242  11.616
73984W        W46299  27.527  14.535   3.148
73985W        W46300  35.050  23.354  13.425
73986W        W46301   5.240  38.054   0.872
73987W        W46302   9.760  26.282   5.001
73988W        W46303   4.779  31.528   1.210
73989W        W46304   5.924  23.692  14.524
73990W        W46305  17.142  37.990  14.829
73991W        W46306  11.345  39.514   3.799
73992W        W46307  27.530  29.952  11.181
73993W        W46308  18.818  28.917   1.820
73994W        W46309  17.252  29.523   5.070
73995W        W46310  34.581  32.224  11.653
73996W        W46311  40.969  40.847   0.698
73997W        W46312  28.634  22.651  14.050
73998W        W46313  15.555  10.838  14.987
73999W        W46314  14.561  10.652  14.513
74000W        W46315  32.036  16.013   3.020
74001W        W46316   1.317  31.912  13.540
74002W        W46317  43.762  38.815  12.487
74003W        W46318   8.387  19.997  10.517
74004W        W46319  29.695  16.374  13.280
74005W        W46320  44.886   8.485  14.075
74006W        W46321  30.766  33.896   3.602
74007W        W46322  35.857  24.209   4.185
74008W        W46323   8.888  30.292   1.743
74009W        W46324  21.876  14.516  10.413
74010W        W46325  10.863  20.018   1.721
74011W        W46326  22.555  31.052   3.721
74012W        W46327  25.478   3.478  14.003
74013W        W46328  33.443  36.627   4.065
74014W        W46329  37.000  33.047   1.716
74015W        W46330  19.542  28.959   1.306
74016W        W46331  44.495  10.089   0.014
74017W        W46332  22.662  13.611   4.757
74018W        W46333  11.751   9.243   0.533
74019W        W46334  24.616  19.712   0.894
74020W        W46335  15.332  14.334  13.539
74021W        W46336  21.569  44.711   3.656
74022W        W46337  38.914  31.085   4.578
74023W        W46338  43.424  41.408  11.292
74024W        W46339  23.655  39.754   0.936
74025W        W46340  21.454  28.516  11.931
74026W        W46341  30.279  18.601  12.203
74027W        W46342  21.275  35.539  14.793
74028W        W46343  38.615  17.764  13.064
74029W        W46344  30.487  11.130   1.634
74030W        W46345  44.417  42.072   2.646
74031W        W46346  18.847  42.262  13.462
74032W        W46347  25.404   4.866  10.245
74033W        W46348  14.079  27.346  12.629
74034W        W46349   1.833  30.528   2.200
74035W        W46350   6.391  41.327  14.465
74036W        W46351  23.494  35.088   1.489
74037W        W46352  15.330  36.036   1.453
74038W        W46353  42.559  44.637  13.868
74039W        W46354  32.483  16.793  11.514
74040W        W46355   7.395  11.221   2.453
74041W        W46356  40.989   3.215   1.743
74042W        W46357  20.636  14.652   4.824
74043W        W46358  32.933  43.486  10.634
74044W        W46359  40.509  39.127   0.994
74045W        W46360  12.980  17.800   1.895
74046W        W46361  37.706  16.249   4.615
74047W        W46362  27.230  40.974  14.971
74048W        W46363   4.639   7.688  11.959
74049W        W46364   7.291  21.776   0.297
74050W        W46365  28.643   1.294  14.333
74051W        W46366  35.504  14.755   5.084
74052W        W46367   3.992   7.517  13.499
74053W        W46368  26.508  27.913  12.156
74054W        W46369  24.640  25.158   4.513
74055W        W46370  43.899  36.660   3.659
74056W        W46371  22.523  10.921   1.936
74057W        W46372  33.732  32.890   3.814
74058W        W46373  35.094  13.844   3.146
74059W        W46374  20.927  25.218  13.965
74060W        W46375   6.352  18.905  14.318
74061W        W46376  10.249  12.689   4.980
74062W        W46377  20.514  33.942   4.143
74063W        W46378  37.321  24.477   3.025
74064W        W46379  13.577   0.298   3.299
74065W        W46380  26.741  43.040   0.880
74066W        W46381  25.638  21.795   0.057
74067W        W46382  32.604   8.202  13.974
74068W        W46383  32.089   0.447  14.905
74069W        W46384  25.563   9.237  13.928
74070W        W46385  13.460  14.775  10.584
74071W        W46386   8.720  42.536  11.217
74072W        W46387  44.660   2.004   2.783
74073W        W46388  23.127   1.573   4.045
74074W        W46389  31.397  38.723   5.204
74075W        W46390  28.643  13.412  10.549
74076W        W46391  23.732  39.962   0.397
74077W        W46392   1.683   3.159  14.741
74078W        W46393   8.062   2.123   0.840
74079W        W46394   7.093   2.356  10.762
74080W        W46395  16.908   3.228  12.406
74081W        W46396  36.535  37.036   0.736
74082W        W46397   6.377  40.412  13.848
74083W        W46398  18.996  24.625   0.313
74084W        W46399  29.965   3.869   2.662
74085W        W46400  42.625  11.064   3.440
74086W        W46401  29.052  32.201   4.982
74087W        W46402  31.550  27.114  14.866
74088W        W46403  17.613  38.080  14.450
74089W        W46404  16.019  33.622  10.005
74090W        W46405  43.026  13.338   3.197
74091W        W46406  42.199  34.278  14.008
74092W        W46407  34.934  12.133  11.975
74093W        W46408  38.802  23.728   1.561
74094W        W46409   2.922  24.369   0.037
74095W        W46410  11.246  31.394   3.751
74096W        W46411  16.122  23.134   2.715
74097W        W46412  39.169  40.119   1.249
74098W        W46413  14.296   8.264  14.432
74099W        W46414  34.044  21.809   1.529
74100W        W46415  10.309  10.071   0.323
74101W        W46416   8.344  41.980  10.715
74102W        W46417   7.123  12.190   4.550
74103W        W46418  28.942  33.538   3.274
74104W        W46419  11.672  39.696  13.965
74105W        W46420  18.502  37.897   0.220
74106W        W46421  24.639   5.692   1.966
74107W        W46422  43.356  12.659   1.041
74108W        W46423   7.831  20.095  11.115
74109W        W46424  24.227  44.748  12.315
74110W        W46425  30.388  14.307   1.329
74111W        W46426  26.472  11.637  14.510
74112W        W46427  25.676  27.414   3.338
74113W        W46428   9.422   0.837  14.931
74114W        W46429   9.659  31.225   4.065
74115W        W46430  11.212  30.430  11.045
74116W        W46431  13.824   1.126   1.512
74117W        W46432   4.399  11.319   0.430
74118W        W46433  25.598  32.680   3.133
74119W        W46434   8.277  18.532   2.310
74120W        W46435  21.003  41.461   2.736
74121W        W46436  27.585  33.601   4.569
74122W        W46437  42.857  40.490   1.804
74123W        W46438   2.350  33.350  10.935
74124W        W46439  25.452   1.244  11.641
74125W        W46440  30.919  44.288   2.752
74126W        W46441  16.593  31.023   3.506
74127W        W46442  26.517   4.389   0.960
74128W        W46443  16.918  21.444  12.939
74129W        W46444  28.104   4.718  10.790
74130W        W46445   7.685  20.356  14.954
74131W        W46446  39.645  25.256   5.053
74132W        W46447   1.578  34.388   1.311
74133W        W46448  42.835  30.984  12.307
74134W        W46449  11.779  20.120  12.762
74135W        W46450  33.626  33.959  12.151
74136W        W46451  22.549   1.979  13.498
74137W        W46452  22.305  15.681   4.152
74138W        W46453  40.047  20.690   3.771
74139W        W46454  10.960  22.866  14.898
74140W        W46455  25.519   0.990   2.254
74141W        W46456  31.951  16.804   2.316
74142W        W46457  19.526  24.323  13.398
74143W        W46458  10.153  23.000   0.745
74144W        W46459  18.055  20.520   3.101
74145W        W46460  18.560  38.623   0.839
74146W        W46461  23.207   1.804   3.527
74147W        W46462  35.642   0.420  10.719
74148W        W46463  28.926  23.073  11.233
74149W        W46464  20.224  42.491  10.910
74150W        W46465  37.582  42.247   0.445
74151W        W46466   8.939  39.728   0.239
74152W        W46467  38.930  39.065   3.411
74153W        W46468  26.727  17.839   0.785
74154W        W46469  19.647   0.841   4.083
74155W        W46470  43.211  24.951   5.034
74156W        W46471  10.658  17.315   4.716
74157W        W46472  27.946  35.798   0.268
74158W        W46473   9.449   9.782  13.490
74159W        W46474  41.114   2.808  11.935
74160W        W46475   1.921   5.374   1.359
74161W        W46476  38.090  17.766  14.791
74162W        W46477   1.406  36.413   2.868
74163W        W46478  15.309   3.206  11.546
74164W        W46479  35.315  32.733   2.656
74165W        W46480   4.572  43.897  12.556
74166W        W46481   6.257  35.641   4.343
74167W        W46482  15.778  17.122   3.658
74168W        W46483  36.111  10.346   0.917
74169W        W46484   9.376  25.032   0.360
74170W        W46485  11.386  10.633   0.902
74171W        W46486  18.576  35.654  12.071
74172W        W46487  16.859  18.356  11.542
74173W        W46488  21.697  26.020   2.035
74174W        W46489  16.063  10.760  12.520
74175W        W46490  35.140  26.731   0.897
74176W        W46491  18.348  17.277  11.217
74177W        W46492  12.723  16.212  13.520
74178W        W46493  42.965   7.840  12.821
74179W        W46494  39.032   5.467   1.415
74180W        W46495  13.767  24.026   3.345
74181W        W46496  31.847  41.353  12.041
74182W        W46497   0.560  13.338   0.724
74183W        W46498  22.766  26.475  10.370
74184W        W46499   8.368  31.461   4.126
74185W        W46500  35.139  26.530  12.807
74186W        W46501  23.268   6.746  13.323
74187W        W46502  37.855  21.218  10.783
74188W        W46503  40.029  23.468  10.675
74189W        W46504  27.618   0.389  12.555
74190W        W46505  10.797   4.342   2.315
74191W        W46506  34.836  38.620  10.337
74192W        W46507  17.398  39.371   1.508
74193W        W46508  37.407  11.624   1.536
74194W        W46509  43.948   6.529   1.826
74195W        W46510   8.127  13.741   4.704
74196W        W46511  36.544   0.026  12.877
74197W        W46512  41.416  25.187   5.107
74198W        W46513   7.410   4.997  11.045
74199W        W46514  32.702  17.250  11.694
74200W        W46515  43.256   0.705  14.704
74201W        W46516  32.057  30.416  13.275
74202W        W46517  32.788  34.523   1.382
74203W        W46518   4.691  14.755   1.238
74204W        W46519   6.298   0.689   0.680
74205W        W46520  11.820  14.326  12.935
74206W        W46521   1.374  21.253   2.437
74207W        W46522  28.066   9.845  11.599
74208W        W46523  26.921  20.120   4.008
74209W        W46524   2.466  40.165  11.195
74210W        W46525  31.383   2.717   3.326
74211W        W46526   6.774  26.014   2.459
74212W        W46527   7.772  31.049   2.111
74213W        W46528  43.252  16.764  13.084
74214W        W46529   9.768   7.884  11.453
74215W        W46530  41.298  32.841   4.087
74216W        W46531   3.725  12.360  13.401
74217W        W46532  31.838  29.143   0.296
74218W        W46533  30.454  43.267  12.758
74219W        W46534  17.269  30.510  13.747
74220W        W46535  42.272  28.160  12.967
74221W        W46536  17.637  31.499  12.972
74222W        W46537  37.134  39.602   1.402
74223W        W46538  19.708  14.053   0.235
74224W        W46539  36.944   8.250   1.373
74225W        W46540  40.786  14.819  12.369
74226W        W46541  11.325   4.123   3.872
74227W        W46542   7.016  11.015  10.697
74228W        W46543  41.466  29.015   1.204
74229W        W46544  28.054  25.142   4.131
74230W        W46545  35.770   2.516   0.475
74231W        W46546   7.656   0.742  10.986
74232W        W46547   9.851  38.638   4.747
74233W        W46548  25.177  20.552   2.184
74234W        W46549  15.831  28.065  13.357
74235W        W46550  20.744  37.907   3.528
74236W        W46551  28.668  18.664  12.573
74237W        W46552   1.726  11.179  12.612
74238W        W46553   0.845  13.098  14.507
74239W        W46554  40.833   8.918  12.591
74240W        W46555  38.800  28.517  14.808
74241W        W46556  25.621  11.539  11.568
74242W        W46557  31.001  28.358  12.563
74243W        W46558  16.240   0.397   4.567
74244W        W46559  16.327  42.439  14.904
74245W        W46560  27.248  17.152  12.090
74246W        W46561  18.603  31.434   4.093
74247W        W46562  36.094  31.069   1.298
74248W        W46563  38.092  43.744  10.657
74249W        W46564  17.154  26.923  13.733
74250W        W46565  32.463  30.058  13.891
74251W        W46566  15.015  37.052   4.979
74252W        W46567  24.542  25.658   4.323
74253W        W46568  43.952  24.893   0.451
74254W        W46569   9.804  38.047  12.944
74255W        W46570   4.714  42.297   4.156
74256W        W46571  37.825  37.981  10.928
74257W        W46572  16.833   7.638   1.950
74258W        W46573  23.027   5.936   2.605
74259W        W46574   3.925  36.603  13.847
74260W        W46575  20.610  21.177  12.297
74261W        W46576   6.471   6.691   0.365
74262W        W46577  23.052  16.161  13.898
74263W        W46578  25.159  24.140   3.128
74264W        W46579  24.103  42.297   1.820
74265W        W46580  26.750  29.634   1.855
74266W        W46581  14.981   9.385   3.089
74267W        W46582  38.923  44.273  13.887
74268W        W46583  21.303  27.151  14.023
74269W        W46584  21.601  10.342  13.350
74270W        W46585  35.440  36.889   4.283
74271W        W46586  39.858  32.364   4.979
74272W        W46587  25.715  31.108  11.690
74273W        W46588  14.095   7.181  13.858
74274W        W46589  21.179  27.535   1.810
74275W        W46590  15.755   1.199   0.353
74276W        W46591  23.750  40.895   4.273
74277W        W46592   1.046  20.802  10.676
74278W        W46593  11.581   3.928  10.760
74279W        W46594  14.503  20.318  10.724
74280W        W46595  44.336   0.233  10.240
74281W        W46596  23.552  11.300   1.637
74282W        W46597  19.994  17.757  12.086
74283W        W46598   7.677  37.808  13.756
74284W        W46599   0.310  37.856   2.202
74285W        W46600  29.553  40.853  12.873
74286W        W46601  31.663   9.296  14.508
74287W        W46602  17.079  27.475  11.055
74288W        W46603  33.146  14.365   3.625
74289W        W46604  11.294  22.790  10.936
74290W        W46605  35.875  29.613  10.587
74291W        W46606  40.395   4.555   4.750
74292W        W46607  24.647  23.657  14.975
74293W        W46608  41.006  19.552  12.911
74294W        W46609  25.559  21.796  11.090
74295W        W46610  30.007  30.144   2.148
74296W        W46611  39.558  13.243  13.043
74297W        W46612   4.961  33.059  14.718
74298W        W46613   0.524  24.078  13.464
74299W        W46614   8.302  32.166  12.385
74300W        W46615  27.567  18.511  13.919
74301W        W46616  40.401  16.679  10.644
74302W        W46617   8.328  19.129   4.253
74303W        W46618   3.027   6.889  10.539
74304W        W46619  18.603  22.831   3.105
74305W        W46620  38.871   8.178   0.758
74306W        W46621  28.932  20.123   0.413
74307W        W46622   3.947  32.335   4.812
74308W        W46623   0.581  15.220   2.543
74309W        W46624  16.949  44.784  12.524
74310W        W46625  27.360  25.966  12.562
74311W        W46626  31.713  24.978  12.215
74312W        W46627   7.353  24.755   4.125
74313W        W46628  12.307  10.219  11.411
74314W        W46629  13.324  44.973  13.593
74315W        W46630  30.409   8.255   4.653
74316W        W46631  19.794  35.195   3.236
74317W        W46632  43.069  33.755  11.021
74318W        W46633  26.741  13.871  14.803
74319W        W46634  22.407  30.065   1.361
74320W        W46635  29.206  21.575   2.172
74321W        W46636  33.507  10.723  12.919
74322W        W46637   6.235   7.859  12.361
74323W        W46638   1.465  19.364   3.964
74324W        W46639  40.999  42.968   4.162
74325W        W46640  37.543   9.953  13.407
74326W        W46641  37.809   2.211  10.709
74327W        W46642   5.024  16.411  14.442
74328W        W46643  43.380  14.277  14.157
74329W        W46644   0.318  34.010   1.842
74330W        W46645  39.633  28.523   0.385
74331W        W46646  41.888  32.433   1.889
74332W        W46647  19.139  15.610   2.455
74333W        W46648   3.255  19.709   1.047
74334W        W46649  28.989   0.847   2.314
74335W        W46650  15.187   4.636  13.443
74336W        W46651  40.603  35.093  12.422
74337W        W46652  10.494  42.693   0.752
74338W        W46653  17.498   6.397  11.066
74339W        W46654  20.222  20.044   0.321
74340W        W46655  20.009  18.152  14.000
74341W        W46656  31.491   1.145  14.680
74342W        W46657  16.720  33.331   3.942
74343W        W46658   4.677  32.961   2.863
74344W        W46659  41.097  15.333   4.670
74345W        W46660  11.528  32.408   3.271
74346W        W46661  27.484  24.161   1.307
74347W        W46662  42.768  29.940  12.584
74348W        W46663  26.673  16.639   4.080
74349W        W46664  33.915  36.506  13.527
74350W        W46665  30.608  24.258   3.734
74351W        W46666  41.532  41.824  13.422
74352W        W46667   7.913  14.757   4.458
74353W        W46668   3.762  22.668  14.213
74354W        W46669  34.644  31.528  11.974
74355W        W46670  35.655  36.395  11.912
74356W        W46671  37.577  28.743   3.326
74357W        W46672  37.404  37.646   3.688
74358W        W46673  41.708  33.162   4.086
74359W        W46674  15.152  31.544  14.763
74360W        W46675  29.001   2.987  11.388
74361W        W46676   7.022  27.483   4.937
74362W        W46677  19.245  34.668   0.759
74363W        W46678  31.987  33.974   4.627
74364W        W46679  38.804  24.534   3.792
74365W        W46680   0.602   0.607   5.097
74366W        W46681  28.414  33.450   3.287
74367W        W46682  36.404  33.413  11.451
74368W        W46683   1.793  14.640   1.367
74369W        W46684  35.521  41.084   3.251
74370W        W46685  36.051  18.530   4.266
74371W        W46686  42.914  17.455   4.549
74372W        W46687   3.263  11.799  11.209
74373W        W46688  38.646  28.183  12.458
74374W        W46689   4.016   0.992   0.525
74375W        W46690  21.613  22.098  10.428
74376W        W46691  43.019  28.494  11.931
74377W        W46692  35.452   9.630   3.669
74378W        W46693  18.703  12.184   3.607
74379W        W46694  18.170  38.323   0.187
74380W        W46695   2.849  10.389   0.245
74381W        W46696  44.070  34.108  10.391
74382W        W46697  32.456  31.138   3.999
74383W        W46698  40.830  29.708  11.110
74384W        W46699  29.290   9.227  14.827
74385W        W46700   0.275  12.887   0.768
74386W        W46701  34.557  40.069   1.744
74387W        W46702  44.777  42.104   1.485
74388W        W46703  38.499   4.943  14.365
74389W        W46704  40.017   0.571  12.360
74390W        W46705  14.763  23.717  11.042
74391W        W46706  19.552  17.276  13.909
74392W        W46707  21.734  13.168  13.337
74393W        W46708  40.909   6.084  10.740
74394W        W46709  18.118  10.544  11.182
74395W        W46710  42.331  29.051   2.403
74396W        W46711  43.207  34.044   0.289
74397W        W46712  28.371  36.529   4.169
74398W        W46713   4.829  39.568   1.363
74399W        W46714   3.526  43.308   0.039
74400W        W46715  43.314  14.281  13.643
74401W        W46716  26.080  37.515   2.394
74402W        W46717  40.060  19.098  14.849
74403W        W46718  11.440  10.700   1.735
74404W        W46719  36.178   5.427   3.310
74405W        W46720   9.056  24.605   1.703
74406W        W46721  32.162  24.981  11.191
74407W        W46722  11.517   2.470   3.450
74408W        W46723  24.099  32.977  14.853
74409W        W46724  28.175  10.765  10.381
74410W        W46725  37.211  11.658  13.009
74411W        W46726  43.731  41.114  14.301
74412W        W46727  23.598  39.172  14.223
74413W        W46728  43.814  35.642  13.974
74414W        W46729  37.273   9.881  12.004
74415W        W46730  43.770  23.330  12.580
74416W        W46731  39.656  16.137   0.265
74417W        W46732  16.616   4.317  14.344
74418W        W46733  31.016  26.810  12.230
74419W        W46734  28.489  17.611   1.622
74420W        W46735   0.506  36.443   5.190
74421W        W46736  19.816  25.681   4.676
74422W        W46737   7.936  22.939   4.572
74423W        W46738  37.421  37.926   4.118
74424W        W46739  41.289  27.472   1.851
74425W        W46740  33.921   4.379   0.705
74426W        W46741   4.777  13.844  10.540
74427W        W46742  38.078  30.556   1.600
74428W        W46743  25.159  10.289  12.042
74429W        W46744  11.044   9.052  11.136
74430W        W46745  38.279  14.674  14.424
74431W        W46746  20.140  41.096   9.500
74432W        W46747  13.833  40.770   3.684
74433W        W46748  44.109  31.250  14.731
74434W        W46749  29.946  27.957  10.746
74435W        W46750  42.082  36.131   0.399
74436W        W46751  26.611  17.172   3.091
74437W        W46752   7.888   2.984  13.613
74438W        W46753  29.372  42.817   3.226
74439W        W46754  33.616  27.511   2.130
74440W        W46755   7.647   9.928  13.704
74441W        W46756   9.387  11.436   0.883
74442W        W46757   7.862  34.282   2.269
74443W        W46758   8.214  31.955  12.843
74444W        W46759  18.808   4.801   0.041
74445W        W46760  10.868   2.980  14.377
74446W        W46761  38.858  26.487  12.624
74447W        W46762  27.094  29.251   3.353
74448W        W46763  18.157  43.701   0.505
74449W        W46764  16.052  41.285   3.297
74450W        W46765  34.894   5.318   4.066
74451W        W46766  19.940   8.579  12.504
74452W        W46767  18.566   5.783  10.709
74453W        W46768  15.125   4.788  14.867
74454W        W46769  19.589  19.133  11.966
74455W        W46770   8.414  38.908   4.726
74456W        W46771  23.102  10.765  13.481
74457W        W46772   7.656  28.317   3.203
74458W        W46773   2.249  30.202   3.314
74459W        W46774  38.908  36.818  11.394
74460W        W46775  34.000  10.374   3.108
74461W        W46776  10.852  14.815  13.334
74462W        W46777  25.516  23.346   3.867
74463W        W46778  13.273  13.569   1.846
74464W        W46779  29.980  25.191   4.581
74465W        W46780  14.065  17.699  11.166
74466W        W46781  43.317  40.292   4.201
74467W        W46782  17.735  42.179   4.126
74468W        W46783   8.899  16.685  12.561
74469W        W46784   1.706  15.756   0.395
74470W        W46785  35.167  32.994   3.159
74471W        W46786  39.612  12.584  12.499
74472W        W46787  21.860  31.437   3.692
74473W        W46788  16.899  14.692   3.182
74474W        W46789   6.785   7.205   4.490
74475W        W46790  21.690   0.719   4.566
74476W        W46791  20.539  25.445  11.537
74477W        W46792  18.233   4.352  14.135
74478W        W46793   6.291  20.815   4.509
74479W        W46794  43.829  41.792  14.868
74480W        W46795  36.838  14.278  12.891
74481W        W46796  29.636  17.662   4.489
74482W        W46797   4.702  42.909  13.381
74483W        W46798   5.686   6.817  13.497
74484W        W46799  32.054  36.314   3.814
74485W        W46800   5.230  44.716  13.444
74486W        W46801  43.005  37.510  10.548
74487W        W46802  40.065  20.757  13.358
74488W        W46803   2.535   5.829   4.577
74489W        W46804   2.927  37.574  11.153
74490W        W46805  16.404  12.606   3.973
74491W        W46806   1.917  28.566  11.545
74492W        W46807  25.844  43.079  14.566
74493W        W46808  15.362  30.956   0.590
74494W        W46809  38.810  44.094   0.144
74495W        W46810  10.126   9.209   2.625
74496W        W46811  12.833  39.317  12.808
74497W        W46812  12.234  33.059   0.517
74498W        W46813   8.392  30.236  14.519
74499W        W46814  33.292  30.880   4.711
74500W        W46815  20.990  43.131   2.382
74501W        W46816  41.431   3.401  10.737
74502W        W46817   6.767  40.727  12.944
74503W        W46818  12.356  42.455   4.175
74504W        W46819  33.676   7.876  14.279
74505W        W46820  34.399  31.315  12.494
74506W        W46821  34.945   7.195   4.488
74507W        W46822   1.938  43.973   0.294
74508W        W46823   8.981   6.054   4.233
74509W        W46824  25.104  29.984  10.653
74510W        W46825  43.228   7.716  14.533
74511W        W46826  37.373   1.901  14.135
74512W        W46827  23.675  11.975  13.397
74513W        W46828  14.298   1.458  14.745
74514W        W46829  12.229  38.880  11.128
74515W        W46830   2.774   9.238  13.561
74516W        W46831  22.884  42.555  14.099
74517W        W46832  29.606  17.747  13.229
74518W        W46833   2.910   0.873  11.026
74519W        W46834  38.179  20.452   3.425
74520W        W46835  22.780  42.963   3.177
74521W        W46836  28.005  43.882   2.876
74522W        W46837  38.897   5.240   1.865
74523W        W46838  27.618  17.919  10.659
74524W        W46839  30.045   5.928   3.379
74525W        W46840   1.030  36.857  12.817
74526W        W46841  16.547   7.169   2.839
74527W        W46842   3.212   3.563  12.220
74528W        W46843  27.456  25.159  11.122
74529W        W46844  36.217   2.761  11.594
74530W        W46845  26.678  28.912  14.452
74531W        W46846  16.407  43.565  12.921
74532W        W46847  30.507  22.801  14.236
74533W        W46848   4.505  26.069  14.562
74534W        W46849  39.909  41.808   0.885
74535W        W46850  22.258  42.744  10.370
74536W        W46851  12.256  21.650  12.140
74537W        W46852  24.900   4.939  10.192
74538W        W46853  17.559  35.378  14.271
74539W        W46854   7.730  19.915   2.494
74540W        W46855  11.554  37.815  14.109
74541W        W46856  26.783  27.480   4.054
74542W        W46857   1.994  13.771  13.359
74543W        W46858   2.977  28.414   1.899
74544W        W46859  36.835  31.020  11.654
74545W        W46860  21.400   6.233   4.639
74546W        W46861  25.227  38.524  13.734
74547W        W46862   1.207  38.865  13.376
74548W        W46863  27.278  31.010   3.148
74549W        W46864  27.300   0.777  12.337
74550W        W46865  28.420  24.240  13.859
74551W        W46866  38.868  30.066   9.843
74552W        W46867  36.336  34.003   0.476
74553W        W46868  11.824  42.220   3.805
74554W        W46869  20.118  30.708   0.195
74555W        W46870  42.683   1.932  13.852
74556W        W46871  31.052  33.779   2.624
74557W        W46872  43.734  34.221  14.804
74558W        W46873  17.662  44.691  14.796
74559W        W46874  34.345   4.186   3.832
74560W        W46875   4.282  44.701  10.445
74561W        W46876  21.609  44.820   1.805
74562W        W46877   4.873  13.425   0.890
74563W        W46878  34.285  30.089  11.719
74564W        W46879  25.718  40.502  10.601
74565W        W46880  41.427  33.647  10.761
74566W        W46881  13.637   2.689   3.105
74567W        W46882  32.657  11.930   0.787
74568W        W46883   0.471  19.556  14.433
74569W        W46884  13.834  40.718  11.590
74570W        W46885  23.451   2.538   1.090
74571W        W46886   0.688  42.401   4.062
74572W        W46887  11.439  22.181   2.833
74573W        W46888  27.272   2.779   2.835
74574W        W46889  13.408  27.980  14.953
74575W        W46890  42.844  12.091   1.811
74576W        W46891  17.487  13.287   2.784
74577W        W46892  42.402  22.431  14.449
74578W        W46893  10.545  33.452   2.867
74579W        W46894  33.560  15.841  10.424
74580W        W46895  25.668  23.771  13.889
74581W        W46896  14.242   2.009   0.247
74582W        W46897  35.425  23.547  14.001
74583W        W46898  31.954   1.232  13.039
74584W        W46899  21.665  10.598   2.692
74585W        W46900  14.660  42.217  11.072
74586W        W46901   9.336  27.075  13.376
74587W        W46902   5.138  12.809  14.871
74588W        W46903   2.243  43.721  14.805
74589W        W46904  17.869   6.910   1.973
74590W        W46905   6.171  35.845  14.617
74591W        W46906  25.803  35.292   2.914
74592W        W46907  40.997   5.237   1.787
74593W        W46908  41.975  15.856   2.653
74594W        W46909  16.145  40.204  12.959
74595W        W46910  44.421   0.880   3.197
74596W        W46911  37.078  28.591  12.524
74597W        W46912  26.526  38.156   5.082
74598W        W46913  17.220  33.148   1.848
74599W        W46914   3.398  39.506  14.001
74600W        W46915  17.185   4.524   2.153
74601W        W46916   0.978  32.456   2.604
74602W        W46917  37.064  20.104  12.669
74603W        W46918  43.772  30.993  12.567
74604W        W46919   9.787   8.774  11.986
74605W        W46920  43.021  19.966   1.778
74606W        W46921  11.682  40.575   2.906
74607W        W46922  44.256  37.014   3.172
74608W        W46923  24.212  12.197  11.651
74609W        W46924  23.754   3.423   3.675
74610W        W46925   5.967  30.557  11.202
74611W        W46926  23.944  18.187  14.275
74612W        W46927  16.130  41.351  13.378
74613W        W46928  24.139   7.758  11.819
74614W        W46929  20.607  23.098  10.419
74615W        W46930  42.565  38.453   2.735
74616W        W46931   7.932   8.002   0.937
74617W        W46932  16.015  17.311  13.082
74618W        W46933  29.145  25.583  14.896
74619W        W46934  29.669  25.040  10.612
74620W        W46935  25.061  26.913   3.757
74621W        W46936  18.069  39.822  10.129
74622W        W46937  15.128  36.028  12.680
74623W        W46938  41.879   9.777   0.657
74624W        W46939  39.252  11.178   3.755
74625W        W46940  34.499  35.039  11.196
74626W        W46941   6.143   9.394   4.582
74627W        W46942  44.159  17.319  11.872
74628W        W46943  27.586  31.563   2.949
74629W        W46944  18.208  34.491  14.589
74630W        W46945  19.991  34.450  11.673
74631W        W46946   3.973   4.163  14.894
74632W        W46947  21.433  12.772   3.699
74633W        W46948   7.473  36.955  12.743
74634W        W46949  28.376   3.770  14.271
74635W        W46950  37.569  14.229   1.627
74636W        W46951  17.547  28.914  13.074
74637W        W46952  11.675   3.977  12.028
74638W        W46953  20.287   1.826  12.007
74639W        W46954  19.506  33.552  12.979
74640W        W46955  34.657   1.852   4.142
74641W        W46956  38.281  41.444  10.705
74642W        W46957  26.377  15.031   3.675
74643W        W46958   3.263  32.172   4.160
74644W        W46959  25.816  34.858  14.068
74645W        W46960  41.842  30.621  13.053
74646W        W46961  21.148  42.996   1.500
74647W        W46962   9.213  29.868  13.538
74648W        W46963  14.367   6.196   4.051
74649W        W46964  37.851   0.552  13.968
74650W        W46965  10.553  27.733   0.984
74651W        W46966   1.776  34.418   3.781
74652W        W46967   1.809  11.906  10.155
74653W        W46968  24.675  19.147  12.831
74654W        W46969  14.093  14.384   1.181
74655W        W46970  33.141  21.604   3.091
74656W        W46971  23.634  11.720  11.030
74657W        W46972   0.402  31.704  14.880
74658W        W46973  16.352  20.582   2.249
74659W        W46974   0.264  10.785   4.562
74660W        W46975  42.295  13.196  13.379
74661W        W46976  35.222   3.770  12.055
74662W        W46977  10.873   1.966  14.415
74663W        W46978  17.368  39.523   0.514
74664W        W46979  44.521  27.014   4.265
74665W        W46980   4.697  19.589   1.873
74666W        W46981  19.931  41.339  14.275
74667W        W46982  29.908  26.398  10.827
74668W        W46983  44.847   3.609  11.653
74669W        W46984  28.460  28.473  11.179
74670W        W46985  12.060  35.538  10.751
74671W        W46986  14.224  19.811  13.558
74672W        W46987   8.606  27.289  11.487
74673W        W46988  39.142   6.291   4.067
74674W        W46989  24.812  43.895  14.863
74675W        W46990  37.389  40.753   3.216
74676W        W46991  30.231   0.283   2.376
74677W        W46992  23.516  21.232   2.401
74678W        W46993  23.295  15.632   0.018
74679W        W46994  13.202  17.580   0.005
74680W        W46995  41.464  11.288  13.345
74681W        W46996   2.152  18.797   0.898
74682W        W46997   3.497  26.899  11.991
74683W        W46998  19.583  11.229  13.763
74684W        W46999   1.425  16.166  10.558
74685W        W47000  32.454  13.855  10.709
74686W        W47001  21.559  43.866  13.266
74687W        W47002  35.387  32.615  11.927
74688W        W47003  44.991  33.556   3.169
74689W        W47004  41.726  18.116  10.350
74690W        W47005  15.762  21.653  14.440
74691W        W47006   0.793  26.957  12.643
74692W        W47007   5.780   2.722  12.637
74693W        W47008  19.544  13.578  11.969
74694W        W47009  13.773  20.618   1.878
74695W        W47010   5.247   2.278  14.822
74696W        W47011  18.667  41.585   2.657
74697W        W47012  19.519  20.585  11.513
74698W        W47013  38.980  30.639  10.252
74699W        W47014  44.751  11.602   4.527
74700W        W47015  19.729  44.409   2.425
74701W        W47016  40.908  35.473  12.223
74702W        W47017   9.704   9.491  10.634
74703W        W47018  30.708   8.418   2.737
74704W        W47019   5.454  21.674   3.707
74705W        W47020  44.995   1.659   2.473
74706W        W47021  36.963  28.902  12.953
74707W        W47022   1.092  25.087  11.299
74708W        W47023  42.306  27.692  14.807
74709W        W47024  33.711  21.507   2.465
74710W        W47025   9.663   4.238  11.216
74711W        W47026  36.960  34.955   1.848
74712W        W47027   2.298  19.163   2.020
74713W        W47028  31.213  12.728   0.835
74714W        W47029  27.643  35.439  13.495
74715W        W47030  41.090  36.637  12.988
74716W        W47031  12.443  25.603  14.906
74717W        W47032   0.903  29.409   0.202
74718W        W47033  32.918   3.927   1.874
74719W        W47034  18.203  42.335   2.783
74720W        W47035  18.725  29.904  10.175
74721W        W47036   1.495   3.270   2.174
74722W        W47037   6.451  20.812   2.744
74723W        W47038   1.019   5.782   0.282
74724W        W47039   9.033  17.584  10.417
74725W        W47040  23.748  16.910  11.126
74726W        W47041  19.043   5.689  12.322
74727W        W47042  14.604  44.836   4.614
74728W        W47043   7.168  24.769  13.011
74729W        W47044  31.205  41.896  13.273
74730W        W47045   0.936   3.832  13.802
74731W        W47046  44.399  42.980   3.403
74732W        W47047  33.177  26.832  14.115
74733W        W47048  20.536  21.686   2.267
74734W        W47049  36.758  39.991   3.248
74735W        W47050  32.822  33.486  13.019
74736W        W47051  31.868  17.070  13.995
74737W        W47052  44.203   3.461   2.954
74738W        W47053  28.482  13.822  14.279
74739W        W47054   5.779  21.096   0.910
74740W        W47055  22.479  44.886   0.493
74741W        W47056  15.346  19.683  14.947
74742W        W47057  21.564  12.555   4.151
74743W        W47058  34.101  20.974  13.047
74744W        W47059   0.091  14.403   1.884
74745W        W47060  15.960  39.390   1.837
74746W        W47061  43.750  44.899   4.897
74747W        W47062  42.949   4.489   3.443
74748W        W47063   6.042  37.199   2.734
74749W        W47064  24.095  40.334  12.074
74750W        W47065  36.397  42.034   4.194
74751W        W47066  26.565  42.665   2.730
74752W        W47067  36.764  32.045   3.217
74753W        W47068  11.706  33.393   3.232
74754W        W47069  18.384  39.194   0.742
74755W        W47070   2.098  29.050   0.798
74756W        W47071  17.429   2.289  11.377
74757W        W47072  29.100  38.561  11.198
74758W        W47073  31.581   9.683   1.230
74759W        W47074  29.185  13.555  14.551
74760W        W47075   2.482  25.902   3.098
74761W        W47076  21.624  39.856   4.566
74762W        W47077  10.623  29.470   5.003
74763W        W47078  10.107  28.688   0.876
74764W        W47079  37.817  38.759  12.526
74765W        W47080  21.223  40.860  14.110
74766W        W47081  40.797  30.532  12.537
74767W        W47082   4.660  13.333   3.470
74768W        W47083  36.944  10.134   3.587
74769W        W47084  36.413  15.455  13.824
74770W        W47085  15.608  37.862  13.856
74771W        W47086  35.006  41.738  13.415
74772W        W47087  24.515  44.888  10.645
74773W        W47088  21.923  32.029  10.895
74774W        W47089   5.746   7.510   0.470
74775W        W47090   4.453  42.460  13.430
74776W        W47091   7.282   5.246   4.191
74777W        W47092   6.426  20.294  11.532
74778W        W47093  41.791  23.589   3.746
74779W        W47094  41.475  12.312   2.881
74780W        W47095  13.633  18.048  13.357
74781W        W47096  14.675   4.988  10.798
74782W        W47097  39.870  44.671   1.749
74783W        W47098  11.056   9.186  11.630
74784W        W47099  36.646  25.986   2.369
74785W        W47100  21.227   0.500  12.945
74786W        W47101  18.662  31.636   1.709
74787W        W47102   1.462  44.286   2.313
74788W        W47103  23.250  29.408  12.460
74789W        W47104  15.404  34.566  12.318
74790W        W47105  10.686  19.744   4.667
74791W        W47106  36.470  30.480   3.104
74792W        W47107  43.938   8.880  14.961
74793W        W47108  20.421  31.679  10.442
74794W        W47109  13.350  25.085   2.255
74795W        W47110  33.138  33.684   3.455
74796W        W47111   5.979  29.633   1.932
74797W        W47112   6.802  41.418   0.713
74798W        W47113  31.999   3.287  12.058
74799W        W47114  22.862  12.082  11.609
74800W        W47115  16.800  41.390   4.498
74801W        W47116  36.625  18.799  11.882
74802W        W47117  34.553  34.463   4.916
74803W        W47118  23.952  29.923  11.379
74804W        W47119  11.424   8.161  10.849
74805W        W47120  19.745   7.003  13.960
74806W        W47121  25.410  22.271   2.866
74807W        W47122  42.031  21.710   3.397
74808W        W47123  43.157  43.824  11.469
74809W        W47124  40.775  40.085  11.381
74810W        W47125   8.793  34.935  11.546
74811W        W47126  40.267  34.841  11.436
74812W        W47127  36.662  35.384  14.518
74813W        W47128  29.562  13.266   0.017
74814W        W47129  17.329  35.912  13.070
74815W        W47130  28.716  12.082   2.202
74816W        W47131  27.063   6.728  10.612
74817W        W47132  23.013   3.373  11.633
74818W        W47133  32.490  32.623   1.306
74819W        W47134  33.896   6.793  13.049
74820W        W47135  36.047  32.563   0.100
74821W        W47136   3.965  12.617   1.212
74822W        W47137   2.887  37.322   4.042
74823W        W47138  12.421   8.000  11.108
74824W        W47139  28.341  15.772  13.173
74825W        W47140  36.799  31.743   1.779
74826W        W47141   7.327  23.960  13.409
74827W        W47142   6.636  31.533   2.333
74828W        W47143  20.686  11.627   1.842
74829W        W47144   2.738  11.957   4.264
74830W        W47145  24.616  38.109  10.663
74831W        W47146   2.755  33.089  11.130
74832W        W47147  28.868   4.382   0.285
74833W        W47148   9.154   0.611   3.195
74834W        W47149   2.658   0.693   3.801
74835W        W47150  32.853  25.422   2.375
74836W        W47151  17.217  18.579  11.887
74837W        W47152  33.437   0.426   3.681
74838W        W47153  30.608  31.623  12.860
74839W        W47154  30.514  14.039  13.423
74840W        W47155   7.802  28.608  11.904
74841W        W47156  24.226  18.066  13.309
74842W        W47157  25.189   3.642   4.167
74843W        W47158  22.651   9.960   4.642
74844W        W47159  14.148  13.621  10.674
74845W        W47160   1.704  16.348   1.826
74846W        W47161  19.766  10.388   1.924
74847W        W47162  42.219  19.513   1.755
74848W        W47163  36.309  31.619  13.985
74849W        W47164  20.657   0.027   3.750
74850W        W47165  18.671   8.741  13.793
74851W        W47166   6.052  32.368  11.693
74852W        W47167   7.359  22.995   3.919
74853W        W47168  23.660  10.399  12.785
74854W        W47169  10.189  26.690   2.640
74855W        W47170  14.690  23.764   0.494
74856W        W47171   9.922  16.771   0.018
74857W        W47172  28.686  18.341   0.961
74858W        W47173  14.511  34.933   4.439
74859W        W47174  11.420  11.420  12.087
74860W        W47175   2.489  17.429  12.064
74861W        W47176  24.111   1.328   1.425
74862W        W47177  19.677  40.436   1.531
74863W        W47178  33.789  17.976  11.707
74864W        W47179  34.557  22.788   2.847
74865W        W47180  42.129  14.399  11.607
74866W        W47181   5.765   3.891  12.425
74867W        W47182  14.020  19.606   0.370
74868W        W47183  23.736   3.860   0.828
74869W        W47184  11.786  38.492  12.374
74870W        W47185  25.002  24.499  14.969
74871W        W47186  20.597  37.384   4.101
74872W        W47187   2.987  20.863   2.138
74873W        W47188  22.214  30.977   4.998
74874W        W47189  38.482   3.224  12.456
74875W        W47190  26.629   2.757  12.792
74876W        W47191  17.133  43.744   3.473
74877W        W47192   5.303  25.611   0.919
74878W        W47193   2.342  22.075   4.192
74879W        W47194   4.732  26.501  10.438
74880W        W47195  11.339  34.556  10.629
74881W        W47196  35.782  32.846   2.133
74882W        W47197   7.349  37.586  14.086
74883W        W47198  32.932  28.804   1.858
74884W        W47199  40.562  41.424  11.213
74885W        W47200  33.355  21.466   4.753
74886W        W47201   9.680  10.786   2.771
74887W        W47202   8.882  30.647   0.860
74888W        W47203  42.308  12.274  10.745
74889W        W47204  26.420  31.380  14.955
74890W        W47205   0.975  39.521   2.819
74891W        W47206  44.594  21.730  14.787
74892W        W47207  15.718   0.303  11.895
74893W        W47208   9.178  35.472   3.001
74894W        W47209   9.698  18.310   2.334
74895W        W47210  30.604   8.644  11.582
74896W        W47211  23.047  39.431  12.935
74897W        W47212   0.096  42.360   3.404
74898W        W47213  19.622  35.330   0.329
74899W        W47214  10.259  33.312   4.502
74900W        W47215  32.871  20.498  12.548
74901W        W47216  33.810  26.630   1.329
74902W        W47217  15.903   5.869   1.500
74903W        W47218  31.126  14.270   0.991
74904W        W47219   7.801  23.888   0.821
74905W        W47220  39.896  33.504  11.597
74906W        W47221  21.061  11.239   1.805
74907W        W47222  17.013  41.708   0.319
74908W        W47223   4.925  21.097   0.376
74909W        W47224  23.591  23.676  12.324
74910W        W47225   9.234  43.494  12.041
74911W        W47226  36.712   7.881  11.631
74912W        W47227  23.256  11.367  12.051
74913W        W47228  23.053   4.711  13.509
74914W        W47229  11.362  16.130  14.156
74915W        W47230  22.983  29.006  11.643
74916W        W47231  28.689   6.858   2.497
74917W        W47232  28.727   4.597   2.813
74918W        W47233  32.112   2.833  13.983
74919W        W47234  36.342  29.859  10.708
74920W        W47235  37.407  11.948   4.630
74921W        W47236  29.076  11.638   4.158
74922W        W47237  43.842  32.337   4.039
74923W        W47238  44.518   5.587   0.145
74924W        W47239  12.838  17.793  13.750
74925W        W47240  42.303  30.150  12.461
74926W        W47241  43.374  11.421  13.990
74927W        W47242  25.041  33.285   2.065
74928W        W47243  13.690  23.611  14.436
74929W        W47244  44.121  13.094   0.365
74930W        W47245   4.557  11.618   5.089
74931W        W47246  12.237  43.836   2.904
74932W        W47247  44.037   5.155   2.442
74933W        W47248   7.273  11.686   4.584
74934W        W47249  30.070  10.533  12.130
74935W        W47250  25.139   1.897  14.496
74936W        W47251   8.189  22.521   2.982
74937W        W47252  13.117  44.438  12.912
74938W        W47253  11.275  31.598   1.506
74939W        W47254  10.871  34.096   4.090
74940W        W47255  31.562  26.380   0.865
74941W        W47256  14.892   3.113   2.899
74942W        W47257  23.339  32.488  13.403
74943W        W47258  32.292  31.877   5.341
74944W        W47259  16.253   1.415  12.161
74945W        W47260  39.391  19.019   1.824
74946W        W47261   1.866  20.879  11.491
74947W        W47262  30.445   3.837   2.861
74948W        W47263  13.981  26.397   4.945
74949W        W47264  20.760  25.568   3.073
74950W        W47265  14.165   4.410   4.811
74951W        W47266  40.528  16.183  14.251
74952W        W47267  12.611  42.422  13.875
74953W        W47268  43.729  40.918   3.042
74954W        W47269  12.078  24.195   4.190
74955W        W47270  19.264  12.076  14.828
74956W        W47271  15.004   1.913   4.671
74957W        W47272  44.422  34.824   2.180
74958W        W47273  42.348  34.054  12.170
74959W        W47274  28.495  36.390   2.354
74960W        W47275  28.608  10.854  12.283
74961W        W47276   0.011  29.193   0.315
74962W        W47277  29.580  15.706   4.836
74963W        W47278   4.710  34.514  14.805
74964W        W47279  30.924  13.899  11.574
74965W        W47280   1.738  23.719  11.224
74966W        W47281  14.557  28.412   1.244
74967W        W47282  26.951  24.997   2.743
74968W        W47283   7.870   7.851   3.345
74969W        W47284   5.639  43.590  12.407
74970W        W47285  11.216  13.739  14.484
74971W        W47286   6.178  23.098  11.179
74972W        W47287   6.182  42.094  12.597
74973W        W47288  36.514  15.174  11.150
74974W        W47289  44.031  19.178   4.147
74975W        W47290  23.980  28.748   3.345
74976W        W47291  32.631  11.670  12.665
74977W        W47292  21.197  13.130  13.451
74978W        W47293  27.985  44.228  12.395
74979W        W47294  11.283   4.207   2.252
74980W        W47295  15.754  22.517   3.733
74981W        W47296   7.458   6.824  12.893
74982W        W47297   5.745   3.830   3.108
74983W        W47298  11.931   0.032   2.259
74984W        W47299  30.795  42.594   3.352
74985W        W47300  30.929  29.973   1.838
74986W        W47301  40.473   4.846  10.280
74987W        W47302  35.977  15.626  13.026
74988W        W47303  23.475  22.955   1.776
74989W        W47304   5.209  42.887  13.445
74990W        W47305  42.830   0.936  10.514
74991W        W47306   3.450  30.513   1.841
74992W        W47307  43.171  38.059   3.584
74993W        W47308  30.451   7.181   1.371
74994W        W47309  33.369  11.168  12.139
74995W        W47310  31.926   0.818   2.114
74996W        W47311  10.499  36.784   1.362
74997W        W47312  35.886   7.176  12.066
74998W        W47313   1.379  13.348   1.706
74999W        W47314  42.914  30.232  14.348
75000W        W47315  11.745  12.835  12.827
75001W        W47316   3.951  28.284   1.436
75002W        W47317  31.058  20.096  11.458
75003W        W47318  15.360   0.428   0.845
75004W        W47319  34.452  43.445   2.830
75005W        W47320  35.568  33.644  12.584
75006W        W47321   4.407  22.533  11.991
75007W        W47322  19.512   6.670  13.628
75008W        W47323   8.864  34.514  10.736
75009W        W47324  16.018  37.049  11.944
75010W        W47325  12.760   2.545  13.414
75011W        W47326  39.810  41.991  10.758
75012W        W47327  31.243  21.313  11.809
75013W        W47328  42.692  20.741  10.733
75014W        W47329  34.971  18.544  14.010
75015W        W47330   0.935  18.000  10.264
75016W        W47331  40.480  25.250  14.214
75017W        W47332  11.760  28.673   2.685
75018W        W47333  30.509  38.074  14.766
75019W        W47334  20.158   3.225   3.322
75020W        W47335  32.906   5.949  14.384
75021W        W47336  43.505  14.666  14.485
75022W        W47337  10.120  31.744  13.874
75023W        W47338  38.839   5.470  11.147
75024W        W47339   0.458  40.633  12.062
75025W        W47340  19.641  39.525   3.256
75026W        W47341  36.950  37.313   0.920
75027W        W47342  43.811  26.150  12.925
75028W        W47343  29.109  30.311   3.647
75029W        W47344  41.282   0.871   2.896
75030W        W47345  14.876   0.236  11.887
75031W        W47346  28.614  35.965   3.315
75032W        W47347  37.867  19.198  11.875
75033W        W47348  39.398  22.947   5.648
75034W        W47349  32.235  40.301  14.416
75035W        W47350  37.950  27.496  11.404
75036W        W47351  40.403  29.420   2.196
75037W        W47352   4.842  40.516  11.582
75038W        W47353  25.350   5.697  12.317
75039W        W47354   4.919  44.908  12.145
75040W        W47355  16.158  10.420  13.513
75041W        W47356  17.085   6.276  13.894
75042W        W47357  31.476  32.940   4.953
75043W        W47358  27.117   9.857  11.398
75044W        W47359  11.685  10.933  12.828
75045W        W47360  24.749   7.770   4.266
75046W        W47361  18.728  41.322   2.213
75047W        W47362   6.960  13.834   0.063
75048W        W47363   5.781  31.961   2.429
75049W        W47364  17.323  21.555   0.215
75050W        W47365  10.920  34.410  12.350
75051W        W47366  39.814   3.814  13.986
75052W        W47367  22.729  32.484  11.196
75053W        W47368  16.807  11.698  14.035
75054W        W47369  42.582  13.645   1.263
75055W        W47370  22.640   6.871  14.461
75056W        W47371  20.700  22.482   2.694
75057W        W47372  15.509  20.571   0.505
75058W        W47373  37.359  30.274   4.242
75059W        W47374  44.328  10.445  11.521
75060W        W47375  23.080  34.032  12.929
75061W        W47376  27.992  14.259  10.668
75062W        W47377  32.650  32.571  10.824
75063W        W47378  32.021  15.378  13.577
75064W        W47379  29.427   6.467  13.008
75065W        W47380   6.282  34.167  12.394
75066W        W47381  43.631  24.583  12.617
75067W        W47382   4.268  17.074   2.605
75068W        W47383  11.240  43.867   1.499
75069W        W47384  19.522  27.485   2.729
75070W        W47385  24.471   1.013   1.187
75071W        W47386  13.987  30.884   0.883
75072W        W47387  16.825  41.356  11.660
75073W        W47388  44.354  37.048  10.201
75074W        W47389  28.826  28.600  12.935
75075W        W47390  43.737  43.557  13.952
75076W        W47391  17.578  25.678  11.933
75077W        W47392  34.313  22.659   0.496
75078W        W47393   3.536   2.381   3.716
75079W        W47394   7.375  14.364   0.890
75080W        W47395   0.526  24.974  11.992
75081W        W47396  18.221  25.919   2.318
75082W        W47397  37.953   8.784   5.070
75083W        W47398  11.499   6.205   5.083
75084W        W47399  28.924   4.723   2.305
75085W        W47400  36.970   1.300   4.955
75086W        W47401  31.705  31.929   2.125
75087W        W47402  35.844  40.426  14.283
75088W        W47403  32.564  18.997  13.412
75089W        W47404   1.500  37.053  11.679
75090W        W47405  41.537  17.167  13.420
75091W        W47406  36.988  32.102   0.814
75092W        W47407   1.494  27.288  13.785
75093W        W47408  27.776  29.139  14.379
75094W        W47409  19.078  22.762  12.910
75095W        W47410  25.438  44.100   2.197
75096W        W47411  26.342  14.735   4.111
75097W        W47412  26.496  30.926   1.367
75098W        W47413  16.741  37.592  11.989
75099W        W47414  32.055  11.102  12.954
75100W        W47415  28.021  44.889   4.406
75101W        W47416   1.855  38.888  14.993
75102W        W47417  42.804  23.758   2.600
75103W        W47418  38.398  19.639   4.524
75104W        W47419  38.215  36.416   1.630
75105W        W47420  44.559  18.683  13.603
75106W        W47421  26.504  11.821  11.090
75107W        W47422   6.394   5.940  13.405
75108W        W47423  28.994  26.507   3.674
75109W        W47424  16.826  19.749  11.052
75110W        W47425  35.619  11.188  14.445
75111W        W47426  16.138  11.242  14.015
75112W        W47427  42.027  14.600  12.842
75113W        W47428   7.662  16.126   0.248
75114W        W47429  38.145   8.575   3.672
75115W        W47430  12.711  31.924   1.702
75116W        W47431  19.561  38.293   3.664
75117W        W47432  39.906  34.916  12.193
75118W        W47433  24.556  25.157   3.629
75119W        W47434  24.785  22.981  11.187
75120W        W47435  30.486  41.363  13.057
75121W        W47436  33.858  24.159  14.162
75122W        W47437  24.005  31.200  12.982
75123W        W47438   5.264  40.529  12.440
75124W        W47439  21.686  22.446  14.044
75125W        W47440  35.532  44.854   1.701
75126W        W47441  13.016  20.288   4.169
75127W        W47442  21.664   1.666  11.435
75128W        W47443  13.148  41.443   4.983
75129W        W47444   8.448  24.177  10.441
75130W        W47445   2.450  32.035  10.704
75131W        W47446   9.245  32.317   3.593
75132W        W47447  15.839  19.655   2.929
75133W        W47448  29.969  21.169  10.271
75134W        W47449  12.847   3.170   0.521
75135W        W47450   5.937  22.906   0.768
75136W        W47451  25.483   2.202  13.764
75137W        W47452  13.477  24.640   2.499
75138W        W47453  27.666  19.206  11.847
75139W        W47454  34.492   7.423   4.779
75140W        W47455  10.232  33.807   3.178
75141W        W47456   6.394  32.476   2.717
75142W        W47457  22.216  29.549  11.621
75143W        W47458  36.787  28.148   0.865
75144W        W47459  32.405  37.503  10.721
75145W        W47460  19.702  25.734   1.391
75146W        W47461  36.968  42.798   0.010
75147W        W47462  34.416  37.481   3.582
75148W        W47463   1.819   1.664   4.469
75149W        W47464  28.483  29.009   4.477
75150W        W47465  21.752  32.943   1.238
75151W        W47466  24.456  17.814  11.202
75152W        W47467  40.398  21.950  12.501
75153W        W47468  36.539  35.483  10.547
75154W        W47469   8.166  20.933  13.009
75155W        W47470  13.260   5.124  14.859
75156W        W47471  27.785   3.037  10.250
75157W        W47472   9.119  15.169  14.370
75158W        W47473  43.855  22.529  13.256
75159W        W47474  36.056  44.956  12.491
75160W        W47475  20.531  12.152  14.073
75161W        W47476  17.006  21.671   1.160
75162W        W47477  20.258   3.360  14.074
75163W        W47478  42.068  11.143  10.829
75164W        W47479  37.681  42.494   3.793
75165W        W47480   0.448  38.621  11.148
75166W        W47481  28.912  32.217  14.029
75167W        W47482  37.637  15.079  12.621
75168W        W47483   1.471   1.934  13.558
75169W        W47484  11.505  23.894   3.325
75170W        W47485   7.856  44.628  12.591
75171W        W47486  40.841   9.008   1.815
75172W        W47487  19.307   1.527   4.684
75173W        W47488  20.327  33.104  12.084
75174W        W47489  43.004   8.240   4.480
75175W        W47490  28.199  31.043  13.657
75176W        W47491  38.235  41.970  13.895
75177W        W47492  38.858  30.661  13.628
75178W        W47493  16.301   4.244  11.660
75179W        W47494  11.592  32.831  13.037
75180W        W47495  38.100  30.076  14.891
75181W        W47496  31.265  25.483   0.094
75182W        W47497  20.570   6.073  14.544
75183W        W47498   2.915  20.131  10.512
75184W        W47499  10.182  43.394  11.965
75185W        W47500   2.957  36.855  12.495
75186W        W47501   7.386  41.470  14.949
75187W        W47502  29.737  11.863  10.576
75188W        W47503  24.337  37.501   3.241
75189W        W47504  40.884  16.579  14.293
75190W        W47505   7.473  18.244  12.443
75191W        W47506  32.310  25.159  10.710
75192W        W47507   9.800  10.739   1.900
75193W        W47508   2.840  39.317  11.900
75194W        W47509  37.822  29.657   2.633
75195W        W47510  44.513  14.993  14.402
75196W        W47511  38.998  12.172   1.221
75197W        W47512  42.557  11.466   0.724
75198W        W47513  24.635   0.533   3.678
75199W        W47514   1.723  19.763  14.800
75200W        W47515   4.321  23.096  10.732
75201W        W47516   5.168  30.836  12.004
75202W        W47517  16.824  25.191  14.867
75203W        W47518  38.594  22.552  14.746
75204W        W47519  36.582   6.268   2.385
75205W        W47520  20.777   0.970  11.136
75206W        W47521  43.503  18.782  12.046
75207W        W47522   7.723  31.434   4.608
75208W        W47523  13.744  20.113   1.685
75209W        W47524  38.739  21.703   4.127
75210W        W47525  38.916  43.934  10.351
75211W        W47526   1.946  36.448   2.806
75212W        W47527  12.586  42.903  11.491
75213W        W47528  31.587  32.388  13.558
75214W        W47529  36.611  23.192   1.309
75215W        W47530  29.253  25.380   2.603
75216W        W47531  30.001  36.106   0.011
75217W        W47532   1.977  11.323   2.106
75218W        W47533  33.114  21.644  13.542
75219W        W47534  36.041  31.883   1.724
75220W        W47535   5.660  43.450   2.288
75221W        W47536  29.102   9.151  12.105
75222W        W47537  34.152  20.276   1.132
75223W        W47538  11.682  25.901  13.445
75224W        W47539   5.435   7.197   1.146
75225W        W47540  23.561  39.786  10.927
75226W        W47541  24.736  16.807   0.801
75227W        W47542   0.921  21.135   1.268
75228W        W47543  24.965  14.638  13.978
75229W        W47544  24.516   9.702  12.240
75230W        W47545  40.733  35.178   3.644
75231W        W47546  28.034  33.572  13.441
75232W        W47547  44.831  40.727  11.664
75233W        W47548  18.708  30.601  11.954
75234W        W47549  21.014  26.502  11.976
75235W        W47550  14.719  41.336   1.344
75236W        W47551  37.583  44.870   1.858
75237W        W47552  43.727  31.901   3.779
75238W        W47553  35.001  34.130  13.417
75239W        W47554   3.282   7.668  12.123
75240W        W47555  28.135  19.788   3.052
75241W        W47556   6.640   0.826   5.137
75242W        W47557   5.821  13.997   4.203
75243W        W47558   2.473  43.199   5.184
75244W        W47559  20.464  12.066   3.566
75245W        W47560  20.808  35.641   1.848
75246W        W47561  17.532   9.867   5.507
75247W        W47562  43.425  27.194  12.134
75248W        W47563   6.778   2.698  14.792
75249W        W47564   0.988   6.261   0.752
75250W        W47565  14.737  22.726   1.658
75251W        W47566  33.118   0.416   1.235
75252W        W47567  31.995  20.078   4.993
75253W        W47568  18.253  29.883   4.652
75254W        W47569  30.614  31.455  11.950
75255W        W47570  27.647  22.515   3.194
75256W        W47571  15.582   4.830   4.489
75257W        W47572   4.485  44.759  14.514
75258W        W47573  37.545  32.013   0.293
75259W        W47574  11.137  16.383   1.221
75260W        W47575  20.207  15.363   4.472
75261W        W47576  16.155   4.800   4.002
75262W        W47577   3.662  33.905   1.245
75263W        W47578  30.304  12.070   4.477
75264W        W47579  39.430  27.248   3.712
75265W        W47580  15.136  23.388  11.204
75266W        W47581  24.931  26.638   2.400
75267W        W47582  32.948   0.803  11.869
75268W        W47583  13.584  17.099   2.813
75269W        W47584  26.895  42.419   3.900
75270W        W47585  40.988  41.600   1.337
75271W        W47586  30.443  40.347   0.821
75272W        W47587  18.151  37.785  13.488
75273W        W47588  40.119  22.177   2.203
75274W        W47589  42.508  26.437  11.920
75275W        W47590  23.328   2.832  13.395
75276W        W47591  20.577  10.073   2.386
75277W        W47592   9.366  29.599   2.189
75278W        W47593  34.565  16.317  11.727
75279W        W47594  10.656   7.278   1.360
75280W        W47595  42.719  28.806  11.045
75281W        W47596  20.062  37.190  10.742
75282W        W47597  12.032  19.975   4.126
75283W        W47598  35.875  28.619   4.625
75284W        W47599  41.226  38.330   2.402
75285W        W47600  23.296  41.340   0.496
75286W        W47601  16.283  32.576   0.750
75287W        W47602  18.956  12.681  12.429
75288W        W47603  34.883  18.999  13.775
75289W        W47604  16.719  17.858   1.442
75290W        W47605  27.610  15.175  10.751
75291W        W47606  24.762  27.449  13.476
75292W        W47607  21.290   7.577   5.068
75293W        W47608   2.381  40.044  12.051
75294W        W47609  42.902   3.008  13.165
75295W        W47610  19.217   4.626   1.875
75296W        W47611  20.705  26.201   3.685
75297W        W47612  39.534  40.290  11.966
75298W        W47613  12.332  17.114  12.579
75299W        W47614  12.849  19.145   1.753
75300W        W47615  36.041   2.211   0.865
75301W        W47616  31.853  18.003   0.808
75302W        W47617  37.416  44.167   1.012
75303W        W47618  39.958  16.872  14.268
75304W        W47619  11.375  38.761   0.601
75305W        W47620  11.723  29.232   4.095
75306W        W47621  21.158  13.311  14.819
75307W        W47622  31.105   2.574  11.562
75308W        W47623  38.157  13.573   0.358
75309W        W47624   8.586  28.739  13.407
75310W        W47625  25.951  18.667  13.040
75311W        W47626  30.585  41.174  14.184
75312W        W47627  22.484   2.838  11.085
75313W        W47628  33.826  22.073  10.538
75314W        W47629  30.486  31.282   1.759
75315W        W47630  37.237  33.037  11.081
75316W        W47631  24.423  26.629   4.252
75317W        W47632  20.142   9.187  14.065
75318W        W47633   0.985   5.870  13.023
75319W        W47634  25.482   9.551   5.077
75320W        W47635   5.517  22.231  13.075
75321W        W47636  23.757  41.237   0.270
75322W        W47637  32.927  28.418   0.890
75323W        W47638  37.036  31.938   0.243
75324W        W47639  40.883  13.093   2.097
75325W        W47640  17.012  17.235  12.977
75326W        W47641  30.624  35.598  13.787
75327W        W47642  18.814  33.355   0.685
75328W        W47643  28.763  26.087  11.584
75329W        W47644  28.125  37.014   0.941
75330W        W47645   1.468  31.446   1.754
75331W        W47646  14.830  18.739   2.300
75332W        W47647  37.960  23.983   5.530
75333W        W47648   6.146  26.302  10.165
75334W        W47649  16.219   1.859   4.011
75335W        W47650  37.812   9.288   1.759
75336W        W47651  14.576  44.312   4.368
75337W        W47652  39.319  26.467  14.714
75338W        W47653   5.168  27.764   4.216
75339W        W47654   1.740   3.983  10.920
75340W        W47655   2.696  33.559   1.388
75341W        W47656   2.246   2.762  10.529
75342W        W47657  10.722  25.042   1.635
75343W        W47658  27.051  15.275   1.827
75344W        W47659  28.028  31.005   1.302
75345W        W47660  16.864  17.694   4.087
75346W        W47661   8.113  37.286   5.346
75347W        W47662  41.856   1.096  10.311
75348W        W47663   3.367  12.362   4.665
75349W        W47664  13.333  20.694  14.057
75350W        W47665  40.500  30.641   1.408
75351W        W47666   0.915  27.242  12.187
75352W        W47667  16.234  34.403  12.048
75353W        W47668  13.853  16.734   2.602
75354W        W47669  38.761  10.022   4.524
75355W        W47670  39.298  14.638  10.460
75356W        W47671  43.379  10.385  10.340
75357W        W47672  24.363  24.431   2.562
75358W        W47673   3.775  27.475  12.793
75359W        W47674  31.573  36.646   2.235
75360W        W47675   2.916   2.959  12.446
75361W        W47676  34.527  22.753  13.352
75362W        W47677  12.543   5.290  13.347
75363W        W47678   4.415   5.266   3.079
75364W        W47679   2.763  36.742   1.578
75365W        W47680   3.300  37.343  12.808
75366W        W47681   4.028  15.591  14.783
75367W        W47682  21.955  18.160   1.157
75368W        W47683  44.041  30.381   3.261
75369W        W47684  10.647  15.646  11.177
75370W        W47685  29.109  15.342   0.924
75371W        W47686  29.054  41.650   1.589
75372W        W47687  19.679  39.369   1.803
75373W        W47688  35.895   3.987   4.229
75374W        W47689  18.677  17.609   0.261
75375W        W47690  35.603  25.897  12.377
75376W        W47691  25.518  41.391  13.438
75377W        W47692   0.121   5.025   3.243
75378W        W47693  19.296  44.202   2.222
75379W        W47694  39.458  23.418   3.656
75380W        W47695  40.977  35.537  12.736
75381W        W47696  11.451  44.839   0.960
75382W        W47697  10.608  22.215   4.601
75383W        W47698  11.258   3.505   2.764
75384W        W47699  18.315  15.137  11.950
75385W        W47700  35.137  20.013  10.700
75386W        W47701  22.712   4.350  13.384
75387W        W47702  22.743  42.510   2.025
75388W        W47703  27.665  42.302  11.604
75389W        W47704  14.051  38.663  12.160
75390W        W47705  16.521  12.177  12.268
75391W        W47706  19.278  18.200  13.470
75392W        W47707  13.176  36.130   3.178
75393W        W47708  44.998  25.552   1.767
75394W        W47709  23.283   5.753   1.267
75395W        W47710  11.846  25.676  11.539
75396W        W47711  19.696  15.659   2.452
75397W        W47712  10.753   8.311  13.444
75398W        W47713   8.118  14.194  13.380
75399W        W47714  34.265  44.391   2.191
75400W        W47715   8.655  39.511   1.844
75401W        W47716   8.329   7.655   4.709
75402W        W47717  21.033  27.662   4.582
75403W        W47718   0.720  10.649  13.416
75404W        W47719  13.656  33.624   3.900
75405W        W47720  11.620  11.190   3.580
75406W        W47721  10.803  17.190   1.290
75407W        W47722  23.834  44.212   0.090
75408W        W47723  24.979  25.698  13.245
75409W        W47724  28.686  14.639   4.433
75410W        W47725  36.671  29.614   3.217
75411W        W47726  16.130  44.138   2.358
75412W        W47727  21.653  30.886   1.957
75413W        W47728  34.833  30.772   1.267
75414W        W47729  39.935  32.694  11.167
75415W        W47730  14.848  23.591   3.784
75416W        W47731  39.546  35.349   0.422
75417W        W47732  34.429  26.700  14.040
75418W        W47733  11.080  41.234   4.075
75419W        W47734  14.842  22.507  11.694
75420W        W47735  25.944  21.030  10.573
75421W        W47736  21.240  38.499   1.792
75422W        W47737  40.251  10.306   0.408
75423W        W47738  42.569  34.594   1.228
75424W        W47739  38.904   1.360   3.909
75425W        W47740  44.270  15.901   4.662
75426W        W47741  10.657  11.554   1.324
75427W        W47742  43.337  29.403   2.842
75428W        W47743  29.121   0.117   4.515
75429W        W47744   9.439   6.025  11.661
75430W        W47745   0.755  36.417  11.115
75431W        W47746  26.756  34.392   5.199
75432W        W47747  42.766   2.915  11.592
75433W        W47748  35.199  41.360  14.914
75434W        W47749  12.205   6.185  10.931
75435W        W47750  33.015   1.569   2.614
75436W        W47751  30.908  13.048  13.959
75437W        W47752  35.081  36.541   1.288
75438W        W47753   8.578  33.018  14.836
75439W        W47754  10.273  16.780   3.214
75440W        W47755  17.439  38.192   3.757
75441W        W47756  15.203  33.949  14.862
75442W        W47757  27.499  10.899  10.777
75443W        W47758  43.253   7.750   4.550
75444W        W47759  38.449  40.818   4.706
75445W        W47760  24.256  15.308  10.999
75446W        W47761   4.936  40.348  13.799
75447W        W47762  31.016  41.238  13.878
75448W        W47763  15.179   6.244  11.839
75449W        W47764  41.514  17.322  11.587
75450W        W47765  39.652   7.448  14.890
75451W        W47766  31.059  28.697  10.791
75452W        W47767  16.446  10.864   9.693
75453W        W47768  22.124   7.796   1.930
75454W        W47769  12.586   0.900   3.242
75455W        W47770  15.334  16.593   0.487
75456W        W47771  38.855  16.970   1.338
75457W        W47772  11.410  39.046   1.579
75458W        W47773  31.471  34.884   4.494
75459W        W47774  44.060  10.940   2.386
75460W        W47775  15.792  30.424  13.960
75461W        W47776   4.215  20.100  13.507
75462W        W47777  20.227  36.691  10.729
75463W        W47778  37.379  37.520  11.187
75464W        W47779  12.649  32.392  12.386
75465W        W47780  22.928  35.634   1.416
75466W        W47781  18.142  40.537  14.006
75467W        W47782  38.293  10.083   1.647
75468W        W47783  24.617  34.622   4.487
75469W        W47784  28.665  12.864  10.580
75470W        W47785  22.268  40.334   1.234
75471W        W47786  39.926  29.637   4.552
75472W        W47787   3.322  16.813   1.914
75473W        W47788   5.451  17.506   4.300
75474W        W47789   5.101  38.610   0.939
75475W        W47790  36.393   3.952  14.812
75476W        W47791  25.268  10.213   2.898
75477W        W47792  31.996  32.682   0.868
75478W        W47793  17.220   0.941   2.676
75479W        W47794  43.261  34.391  12.994
75480W        W47795  11.876  11.909   4.842
75481W        W47796  28.636   8.051   3.360
75482W        W47797  22.071   0.235  12.473
75483W        W47798  38.798  30.033   1.851
75484W        W47799  19.195   3.518   4.498
75485W        W47800  16.584   9.732   1.742
75486W        W47801  28.539  30.160  14.054
75487W        W47802   5.771   6.946   2.250
75488W        W47803  25.626   6.699  13.067
75489W        W47804  33.365  41.902  14.356
75490W        W47805  19.483  34.934  13.466
75491W        W47806  37.286  10.161  14.500
75492W        W47807   9.138  28.753  13.429
75493W        W47808  26.368   8.363  11.746
75494W        W47809  21.195  40.659  11.633
75495W        W47810   0.553  13.297  11.460
75496W        W47811  38.180   4.563  12.620
75497W        W47812  32.164  17.294  13.594
75498W        W47813  30.416  32.402   3.916
75499W        W47814  31.418  43.022   4.126
75500W        W47815  29.451  27.915   0.900
75501W        W47816  35.334  40.415  14.397
75502W        W47817  18.069  10.662  13.142
75503W        W47818  16.255  34.551  11.537
75504W        W47819  19.033  43.468   4.351
75505W        W47820  22.939  24.791   2.612
75506W        W47821  17.068   9.946  12.088
75507W        W47822  33.504  28.796  13.333
75508W        W47823  11.191  34.608  13.105
75509W        W47824  34.306  10.633   2.789
75510W        W47825  42.287  16.505  13.022
75511W        W47826  10.132  10.678   4.331
75512W        W47827   4.167  21.586   1.654
75513W        W47828   0.451  20.052  10.658
75514W        W47829  28.236  23.585   4.855
75515W        W47830  29.832  14.634   1.000
75516W        W47831   8.848  15.863   1.765
75517W        W47832  13.873  43.318  11.646
75518W        W47833  43.617  18.891  13.320
75519W        W47834  23.867  21.170   1.704
75520W        W47835   2.919  10.273   0.758
75521W        W47836  20.029  40.997  10.717
75522W        W47837  43.096   1.431  12.866
75523W        W47838   9.584  26.003   2.750
75524W        W47839  16.473   5.323   4.597
75525W        W47840  10.310   1.837   2.355
75526W        W47841  22.051  16.099   3.922
75527W        W47842  12.181  22.170  10.419
75528W        W47843   8.953  28.603  12.018
75529W        W47844  10.897  30.484   4.411
75530W        W47845  42.827   7.304   0.906
75531W        W47846  29.142  22.649  12.106
75532W        W47847  36.957  44.644  12.818
75533W        W47848  44.934  17.629   0.274
75534W        W47849  16.138  27.636  13.384
75535W        W47850  26.080  42.757  14.900
75536W        W47851  41.732  36.058  14.095
75537W        W47852   5.802   0.952   4.564
75538W        W47853  20.256  40.815   2.186
75539W        W47854  37.308  31.910   2.209
75540W        W47855  32.159   1.383   4.250
75541W        W47856  19.079  14.743   0.331
75542W        W47857  23.114  10.191   4.580
75543W        W47858  28.898  32.451  10.580
75544W        W47859  39.089  18.056  12.182
75545W        W47860  22.696  29.016   4.335
75546W        W47861  20.011  39.819  11.108
75547W        W47862   4.976  38.333  14.691
75548W        W47863  43.953  23.412   3.586
75549W        W47864  14.718  26.340   1.411
75550W        W47865  22.494   1.811  12.161
75551W        W47866  21.762  16.251  13.576
75552W        W47867   3.488  30.077   3.442
75553W        W47868  36.605  38.326   0.791
75554W        W47869  16.220  11.672  13.090
75555W        W47870  42.883  29.125   2.019
75556W        W47871  33.111  36.896   3.690
75557W        W47872  12.617  44.178   0.369
75558W        W47873  40.334  35.313  13.556
75559W        W47874  35.637  40.847   4.165
75560W        W47875  17.459  11.821  14.949
75561W        W47876  15.545  32.682  10.798
75562W        W47877  19.683  19.184   2.938
75563W        W47878   2.132  16.656  12.378
75564W        W47879   8.761   7.618  11.215
75565W        W47880   5.850  15.520  14.884
75566W        W47881  16.587   2.408   4.600
75567W        W47882  26.148  32.600  14.351
75568W        W47883  29.214   2.621  11.668
75569W        W47884  37.042   2.976   1.891
75570W        W47885  17.873  27.406   4.311
75571W        W47886  17.961  13.276  14.668
75572W        W47887  40.523   6.284  12.486
75573W        W47888   2.853  34.374  14.795
75574W        W47889  36.784  32.126  12.997
75575W        W47890   7.923  26.067   1.457
75576W        W47891  42.514  41.450   3.757
75577W        W47892  13.533  24.053  13.881
75578W        W47893  43.882  29.988  14.472
75579W        W47894   7.848   5.786   0.370
75580W        W47895  16.436  25.543  14.819
75581W        W47896   9.369  19.079  14.401
75582W        W47897   8.948  39.284   4.683
75583W        W47898   4.860  10.476   5.216
75584W        W47899  41.268  20.458   4.088
75585W        W47900  10.149  25.787   1.878
75586W        W47901   1.980  23.226  11.139
75587W        W47902  31.397  18.855   3.363
75588W        W47903  38.880  13.484   5.147
75589W        W47904   6.886  37.988  14.961
75590W        W47905  33.803  12.712  11.463
75591W        W47906   4.656   6.960   4.581
75592W        W47907  19.999  37.321  12.582
75593W        W47908  21.506  30.870  12.879
75594W        W47909  38.593  31.038   3.587
75595W        W47910  19.850  44.712   2.894
75596W        W47911  32.981  39.858   4.540
75597W        W47912  17.541  24.062  13.560
75598W        W47913  11.176  29.529  10.626
75599W        W47914  37.934  27.156   1.158
75600W        W47915  31.478  20.222  13.587
75601W        W47916  28.633   5.352  12.996
75602W        W47917  20.965  37.344  14.941
75603W        W47918  23.544   3.312  13.535
75604W        W47919  11.100  31.310  12.544
75605W        W47920   3.757  30.630  11.202
75606W        W47921  28.396  44.845  11.370
75607W        W47922  13.966  30.123   0.411
75608W        W47923   5.100  27.162  14.669
75609W        W47924  41.462  42.053  12.963
75610W        W47925   2.816   8.692  12.639
75611W        W47926   9.427  25.772  11.174
75612W        W47927  38.995   6.684  14.281
75613W        W47928  11.745  19.830  11.394
75614W        W47929  16.663  30.862   2.625
75615W        W47930  41.150  44.087  10.572
75616W        W47931  19.067  27.688  13.393
75617W        W47932   5.902   1.709  12.056
75618W        W47933  36.061  25.729   4.090
75619W        W47934  11.499  11.125   4.109
75620W        W47935  11.332  18.783   1.633
75621W        W47936  17.701   3.301  14.480
75622W        W47937  37.330  12.111  14.506
75623W        W47938  38.259  23.509   5.008
75624W        W47939  18.658  34.336  14.357
75625W        W47940  26.940  38.755  11.190
75626W        W47941  42.155  11.268   3.269
75627W        W47942  18.474   8.778  12.591
75628W        W47943  17.548  21.240   4.560
75629W        W47944  19.718  42.478  11.487
75630W        W47945  35.684  24.814  11.938
75631W        W47946   2.467   8.999  12.408
75632W        W47947  24.003  44.734   2.364
75633W        W47948  26.977  32.085   0.840
75634W        W47949   8.096   9.340   2.824
75635W        W47950   7.690  31.309   0.441
75636W        W47951   7.502  37.559  11.546
75637W        W47952  40.576  34.121   0.032
75638W        W47953  20.157   3.668   2.724
75639W        W47954  29.582   9.688  14.973
75640W        W47955  22.734  24.489  10.186
75641W        W47956  14.914   7.368   3.551
75642W        W47957  32.939   8.220   0.189
75643W        W47958  29.030  43.929   0.323
75644W        W47959   7.543  16.724  12.108
75645W        W47960  28.567  10.628  14.443
75646W        W47961  32.077  37.076  14.679
75647W        W47962  15.198   3.919  14.132
75648W        W47963  31.391   2.076  13.678
75649W        W47964  23.671   4.368  11.980
75650W        W47965   1.353  24.011  14.799
75651W        W47966  37.397   7.098   1.971
75652W        W47967  35.186   7.301   2.583
75653W        W47968   0.290  36.216  10.516
75654W        W47969  16.048  43.992   4.244
75655W        W47970   4.205  11.727   2.632
75656W        W47971  22.491   3.505  11.663
75657W        W47972  29.062  31.339   3.707
75658W        W47973  25.718  37.428   0.026
75659W        W47974  26.099  11.159  13.511
75660W        W47975  30.845   0.284   3.737
75661W        W47976  23.125  16.215  10.470
75662W        W47977  25.237  22.213  11.031
75663W        W47978  17.512  15.663  12.511
75664W        W47979   3.374  20.195   3.611
75665W        W47980  10.480  43.380   2.607
75666W        W47981  31.644   8.826  13.043
75667W        W47982  40.604  22.548   4.803
75668W        W47983  37.407  16.822   2.236
75669W        W47984  26.963   7.294  13.803
75670W        W47985   2.848  23.419  11.673
75671W        W47986  40.979   7.766  13.041
75672W        W47987  16.889  30.892  11.746
75673W        W47988  28.315  44.948   2.338
75674W        W47989  25.176  11.810   4.090
75675W        W47990   1.638   0.345   0.954
75676W        W47991  15.434  10.397  12.980
75677W        W47992  15.094  18.843  11.054
75678W        W47993   8.080  24.249   2.959
75679W        W47994  30.507  34.947   4.426
75680W        W47995  11.831  26.950   1.343
75681W        W47996   4.397  11.242   1.360
75682W        W47997  24.948  43.279   2.729
75683W        W47998  12.263  12.238  10.400
75684W        W47999  44.993  15.955   0.960
75685W        W48000  16.069  13.886  10.677
75686W        W48001  35.076  30.053  11.834
75687W        W48002  13.692  42.997   0.662
75688W        W48003   0.061  41.346   1.383
75689W        W48004  11.681  16.366  11.664
75690W        W48005  37.827  20.066   2.238
75691W        W48006  24.263  11.326  11.800
75692W        W48007  34.493  40.884   1.341
75693W        W48008   5.772  22.008   0.840
75694W        W48009  38.754   9.046   0.542
75695W        W48010  25.684  41.148  11.173
75696W        W48011   7.149   8.661   2.471
75697W        W48012  32.656  31.030   0.382
75698W        W48013  11.196  38.451  10.709
75699W        W48014  42.049  39.261  14.473
75700W        W48015  11.719  35.672   0.793
75701W        W48016  24.685  28.075   1.251
75702W        W48017   2.716   7.881   2.261
75703W        W48018  28.511  17.138   4.303
75704W        W48019   4.177  31.064   2.311
75705W        W48020  21.725  25.031   0.515
75706W        W48021  12.594  21.424   3.578
75707W        W48022  28.522   1.221   1.328
75708W        W48023   7.486   0.710  13.712
75709W        W48024  40.336   7.755  14.010
75710W        W48025  43.452  33.154  14.522
75711W        W48026  23.537  20.726   2.272
75712W        W48027  16.258  28.166  14.444
75713W        W48028  17.120  28.469  14.779
75714W        W48029  11.110  14.649  14.196
75715W        W48030  21.556  35.353  10.636
75716W        W48031  28.987  38.555   1.929
75717W        W48032  31.339  43.583   0.234
75718W        W48033  11.344   4.721  11.599
75719W        W48034  13.124  17.519  11.975
75720W        W48035  26.180  29.186   3.110
75721W        W48036  36.793  38.842   0.854
75722W        W48037  21.450   2.605  13.401
75723W        W48038   2.058   3.716   1.049
75724W        W48039  22.602  30.173   3.264
75725W        W48040  23.533  16.114  14.061
75726W        W48041   8.945  20.704   3.695
75727W        W48042   0.996  10.764   1.348
75728W        W48043  29.373   2.977   2.710
75729W        W48044   8.189  39.070   0.794
75730W        W48045  40.263  28.004  11.975
75731W        W48046  31.919  30.703  12.413
75732W        W48047  41.919   5.840   4.512
75733W        W48048  18.275  18.629  12.858
75734W        W48049  13.915  26.019   0.831
75735W        W48050   7.433  16.055  14.363
75736W        W48051   4.129  36.030  14.957
75737W        W48052   2.811  25.268  13.936
75738W        W48053  38.596  26.472   5.203
75739W        W48054   4.181  16.635  12.352
75740W        W48055  26.269   9.150  14.825
75741W        W48056  41.903  32.087   1.398
75742W        W48057  29.480  35.068  13.090
75743W        W48058  31.416   8.678   2.857
75744W        W48059  25.518  31.290  13.371
75745W        W48060  18.784  34.734   1.248
75746W        W48061  35.069  25.424  14.408
75747W        W48062  18.130  24.089   4.116
75748W        W48063  17.543   3.582  14.027
75749W        W48064  29.484  43.443  10.939
75750W        W48065  29.525   3.204   0.920
75751W        W48066  24.160  31.157   0.767
75752W        W48067  18.492  35.013   2.833
75753W        W48068  41.301   3.127   2.690
75754W        W48069  24.089  35.125   3.305
75755W        W48070  39.817  39.589  14.926
75756W        W48071  29.526  10.137   1.749
75757W        W48072  15.601  12.225   1.868
75758W        W48073  36.820  30.630  12.933
75759W        W48074  28.434  42.207   3.678
75760W        W48075  40.545  35.533  13.093
75761W        W48076  13.228  38.641   1.516
75762W        W48077  37.904  42.398  14.994
75763W        W48078  10.362  21.557  12.840
75764W        W48079  12.105  31.580  13.065
75765W        W48080  16.041  28.548   3.411
75766W        W48081  11.532  42.461   4.633
75767W        W48082  44.986  22.029  14.621
75768W        W48083   4.755  41.231  12.122
75769W        W48084  22.720  17.719  11.597
75770W        W48085  18.580  39.409  13.440
75771W        W48086  15.160   0.726   4.156
75772W        W48087  32.514  27.128   4.242
75773W        W48088  17.805  37.456   2.650
75774W        W48089  28.666  28.110   1.446
75775W        W48090  33.462   6.635   1.819
75776W        W48091   8.698  13.696   1.466
75777W        W48092  23.971  14.642   4.246
75778W        W48093  33.273   1.184   3.256
75779W        W48094  23.822  21.123   4.011
75780W        W48095  35.570   8.364   3.003
75781W        W48096  44.379   9.897   3.190
75782W        W48097   4.740   6.303   1.734
75783W        W48098  39.053   5.437  14.774
75784W        W48099  13.878  29.278  11.410
75785W        W48100  31.218  17.598  13.095
75786W        W48101   7.376  30.308  12.017
75787W        W48102  24.690  32.415  13.060
75788W        W48103   8.133  33.175  13.477
75789W        W48104  15.575  38.724   2.337
75790W        W48105  35.527  23.762  11.905
75791W        W48106  17.547  32.035   4.179
75792W        W48107  31.104  42.974  10.657
75793W        W48108   4.373  10.860  10.367
75794W        W48109  36.854   3.587   0.700
75795W        W48110  17.200  18.954   2.172
75796W        W48111  19.979  36.373  14.394
75797W        W48112   4.331  29.731   3.818
75798W        W48113  17.539   1.398   4.283
75799W        W48114   6.413  28.166  11.945
75800W        W48115   1.361  28.691  12.359
75801W        W48116  38.409  23.461   2.214
75802W        W48117  30.520  35.092   4.924
75803W        W48118  41.884  40.051   0.218
75804W        W48119  44.323   6.438   1.461
75805W        W48120  37.424  29.455   1.461
75806W        W48121  42.468  24.123  11.307
75807W        W48122   7.796  44.040  14.854
75808W        W48123  31.454  16.855   0.276
75809W        W48124  26.223  15.130  12.045
75810W        W48125  40.351  41.017  14.894
75811W        W48126  24.337   9.392   1.459
75812W        W48127  15.327   3.815  13.258
75813W        W48128  16.104  32.010   0.263
75814W        W48129  42.354  18.878   0.456
75815W        W48130  43.321  21.054  14.507
75816W        W48131  32.184  36.543  13.057
75817W        W48132  24.146  35.071   2.274
75818W        W48133  32.554  15.158   2.693
75819W        W48134  40.525  42.816   0.805
75820W        W48135  26.720  34.300  14.307
75821W        W48136   8.189  15.092   1.890
75822W        W48137  11.931  14.783  14.373
75823W        W48138  34.463  34.825  13.675
75824W        W48139  42.695  11.606  12.985
75825W        W48140  18.574  35.991   1.843
75826W        W48141  11.305  36.369   2.230
75827W        W48142  29.129  16.149   2.290
75828W        W48143  32.580  33.155   0.401
75829W        W48144  19.678   8.456  14.068
75830W        W48145   4.613  41.904  12.716
75831W        W48146  11.697  33.688   0.877
75832W        W48147  33.423  20.511  10.701
75833W        W48148  19.376  25.492   3.807
75834W        W48149  35.582  21.744  12.884
75835W        W48150  40.569   2.040   4.034
75836W        W48151  24.680   5.513   4.230
75837W        W48152  42.312  31.208   4.641
75838W        W48153   1.280  24.732   3.577
75839W        W48154   8.541  13.145   2.144
75840W        W48155  27.668  39.200   0.469
75841W        W48156   7.109  40.786   2.263
75842W        W48157  33.691  12.146   1.877
75843W        W48158   6.946   3.059  10.749
75844W        W48159  23.138  36.664  13.867
75845W        W48160   6.554   8.810  12.423
75846W        W48161  18.595  43.514   0.245
75847W        W48162  39.402  33.582   4.639
75848W        W48163   2.495  41.245  13.058
75849W        W48164  17.244   7.638   4.071
75850W        W48165  36.944  14.104  13.824
75851W        W48166  22.650   7.354   1.684
75852W        W48167  39.061  25.913   0.486
75853W        W48168  22.780   4.711  13.941
75854W        W48169  31.695  15.655  11.082
75855W        W48170  42.050  16.260  14.459
75856W        W48171   0.807  33.351  14.561
75857W        W48172   8.436  44.337  13.626
75858W        W48173  22.670  27.047  11.645
75859W        W48174  28.903  30.532  13.354
75860W        W48175  30.359   3.557  14.951
75861W        W48176  23.647  24.107  12.617
75862W        W48177  25.652  26.796  13.872
75863W        W48178  19.753  44.944  13.804
75864W        W48179  38.905  43.758   1.399
75865W        W48180   7.244  17.219  14.079
75866W        W48181  28.007  33.721   0.881
75867W        W48182   3.181   4.863   5.042
75868W        W48183  13.373  19.857   1.931
75869W        W48184   2.232   9.244  10.469
75870W        W48185  32.700   9.069   5.123
75871W        W48186  13.911  12.130  13.851
75872W        W48187  41.377  36.748   2.863
75873W        W48188   7.714  12.095  11.601
75874W        W48189  42.491  15.362  12.209
75875W        W48190   1.435  32.503   2.844
75876W        W48191  17.135  27.773  11.679
75877W        W48192  25.732  24.915  14.001
75878W        W48193  22.193  28.217   4.138
75879W        W48194   9.109   0.690  14.533
75880W        W48195   0.018  12.050  12.492
75881W        W48196  37.367   4.529   2.163
75882W        W48197  12.758  22.452  13.929
75883W        W48198  21.449   3.330  14.881
75884W        W48199  28.330  17.047  14.122
75885W        W48200  26.890  24.418  10.803
75886W        W48201  15.545  19.187  11.111
75887W        W48202  33.493  17.288   3.890
75888W        W48203  15.541   9.411   3.875
75889W        W48204  35.273   9.764   1.746
75890W        W48205   0.445  13.674   3.434
75891W        W48206   1.673  33.125  12.084
75892W        W48207   4.463  39.782   4.072
75893W        W48208  28.960  14.067   1.346
75894W        W48209  29.050   6.394  13.374
75895W        W48210  43.312   9.278   4.554
75896W        W48211  25.738  24.808  12.974
75897W        W48212   2.902  37.229   1.458
75898W        W48213  12.588  25.266  11.282
75899W        W48214  30.936  14.706   2.874
75900W        W48215   7.342  35.673  13.453
75901W        W48216  16.737   1.619  12.288
75902W        W48217  32.544  42.760  10.714
75903W        W48218  32.399  14.701   4.330
75904W        W48219   2.492   8.196   2.710
75905W        W48220  19.556  41.469  12.402
75906W        W48221   9.728  33.897   1.949
75907W        W48222  36.566  43.047   4.024
75908W        W48223   1.327  37.532  11.589
75909W        W48224  25.471  28.142   1.764
75910W        W48225   0.407   7.532   2.352
75911W        W48226   3.302  23.613  14.879
75912W        W48227  33.108  29.493   4.622
75913W        W48228  24.869  23.169   4.890
75914W        W48229  10.884  20.540   2.823
75915W        W48230  40.761  19.023   2.628
75916W        W48231  37.788  38.108  11.872
75917W        W48232   2.280   6.239   3.131
75918W        W48233  32.296  42.999   4.916
75919W        W48234   5.909  33.139   4.146
75920W        W48235  25.568  42.016  13.153
75921W        W48236  44.432  17.535   0.945
75922W        W48237  23.997   5.420   3.086
75923W        W48238  27.112  37.294   1.550
75924W        W48239   4.749  31.906   0.848
75925W        W48240  21.431   5.989   1.421
75926W        W48241  13.322  16.586  14.882
75927W        W48242  42.650  19.725  13.785
75928W        W48243  41.785   8.742  12.784
75929W        W48244  18.567  31.704   4.535
75930W        W48245  15.745  28.967   3.281
75931W        W48246  40.116   7.214  14.952
75932W        W48247  36.922  32.820   0.349
75933W        W48248  21.655  10.312   3.867
75934W        W48249  44.219  32.947   0.397
75935W        W48250   0.141  28.179   2.998
75936W        W48251  33.465  30.434   3.784
75937W        W48252   4.914  15.720   0.267
75938W        W48253  12.708  33.812  13.455
75939W        W48254  23.808  34.158  11.596
75940W        W48255  34.118  15.849   2.316
75941W        W48256  39.143  24.551  13.157
75942W        W48257  30.913  17.782   1.446
75943W        W48258  24.051   3.289  10.416
75944W        W48259  14.094   1.975  13.184
75945W        W48260  26.820  40.218  12.656
75946W        W48261   5.690  18.582  14.945
75947W        W48262   2.766  23.680   2.155
75948W        W48263  34.144  35.039  13.304
75949W        W48264  37.231  33.814   0.398
75950W        W48265  39.292   5.512   0.955
75951W        W48266   7.826  29.973   4.672
75952W        W48267  41.868  25.737   3.454
75953W        W48268  38.287  28.513   4.248
75954W        W48269  44.038  18.560   2.354
75955W        W48270  10.323  33.911   2.666
75956W        W48271  24.715  14.669   1.400
75957W        W48272  41.351  25.072   0.857
75958W        W48273   5.265  28.041   1.142
75959W        W48274   0.706  16.512  10.653
75960W        W48275  22.629  27.822  14.757
75961W        W48276   5.608  18.488   2.359
75962W        W48277  39.529  26.017  11.509
75963W        W48278  33.500  15.287  14.948
75964W        W48279  41.083  11.200  10.776
75965W        W48280  11.205  39.243   0.692
75966W        W48281   0.944  36.808   5.202
75967W        W48282  24.646   3.665   4.705
75968W        W48283   8.165   8.833  12.460
75969W        W48284  23.578   7.402  10.650
75970W        W48285  44.509   3.204  12.774
75971W        W48286   1.799   8.441  11.438
75972W        W48287  37.368   5.206  13.306
75973W        W48288   0.678  17.718   1.952
75974W        W48289   1.208  35.080   0.981
75975W        W48290   9.877  11.738  14.344
75976W        W48291   4.963   0.493   2.804
75977W        W48292  19.820  41.870  14.980
75978W        W48293   5.420  17.734   2.876
75979W        W48294   4.226  38.681   0.807
75980W        W48295   7.757  27.243  12.500
75981W        W48296  37.042  29.563  11.325
75982W        W48297  29.002  37.541  13.193
75983W        W48298  43.012   2.212   3.132
75984W        W48299  36.449  44.511  12.899
75985W        W48300  25.640  36.147  12.015
75986W        W48301  36.533  33.449   1.306
75987W        W48302   7.956  25.708  14.248
75988W        W48303  31.956  41.841   1.880
75989W        W48304   7.169  10.926  13.967
75990W        W48305  23.892   3.834   2.526
75991W        W48306   3.819  41.460   0.648
75992W        W48307  25.702  26.418   1.439
75993W        W48308  25.042   7.472  12.466
75994W        W48309  37.761   0.783  14.804
75995W        W48310  18.757  36.007  10.168
75996W        W48311  43.729  29.024  10.952
75997W        W48312  10.035  40.979  11.560
75998W        W48313  20.199  35.658   2.205
75999W        W48314   3.709  18.687  12.268
76000W        W48315  24.727   4.805   1.846
76001W        W48316  23.243  43.007  12.366
76002W        W48317  38.085  40.061  11.549
76003W        W48318   9.290  40.517  10.730
76004W        W48319  32.526   3.776   1.536
76005W        W48320  13.156   6.125   1.347
76006W        W48321  22.142  12.278  13.042
76007W        W48322  30.598  16.335   0.424
76008W        W48323  14.322   7.639   2.324
76009W        W48324   2.911  43.336  13.573
76010W        W48325  41.337   3.154  13.524
76011W        W48326  12.804  27.004  14.825
76012W        W48327  18.842  30.156   2.818
76013W        W48328   7.179  33.627  12.452
76014W        W48329  12.787  20.060  12.555
76015W        W48330  34.363  44.951  11.620
76016W        W48331  21.489   2.409  14.248
76017W        W48332  33.976  15.734   4.629
76018W        W48333  34.140  38.487  14.760
76019W        W48334  34.576  27.076   1.381
76020W        W48335  29.687  36.632   3.070
76021W        W48336   6.416  11.790   4.155
76022W        W48337  42.899  43.476   1.858
76023W        W48338  19.710  24.812   4.151
76024W        W48339  42.294  17.584  13.100
76025W        W48340  24.642  39.693  10.917
76026W        W48341  16.316  19.683   3.279
76027W        W48342  13.184  29.641   2.953
76028W        W48343  34.559  21.241   2.169
76029W        W48344  14.024  10.552   3.519
76030W        W48345  43.520  37.395   0.429
76031W        W48346  21.601  30.032   3.696
76032W        W48347  27.112  42.296  13.468
76033W        W48348   0.551  32.998   4.066
76034W        W48349  16.848  36.928   1.849
76035W        W48350   6.265  43.895   1.478
76036W        W48351  18.419  19.649  13.869
76037W        W48352  44.813  20.769   3.452
76038W        W48353   5.688  27.104   3.244
76039W        W48354  21.092   7.579   0.852
76040W        W48355  22.893  23.780   3.295
76041W        W48356  38.468  18.343   2.224
76042W        W48357  11.687  11.601  10.479
76043W        W48358  34.970  26.169   3.649
76044W        W48359  20.775  16.487   0.962
76045W        W48360  41.334  31.583   4.631
76046W        W48361  17.539   7.214  12.760
76047W        W48362  33.123  26.621   1.062
76048W        W48363  22.242   9.870  12.223
76049W        W48364  28.409   1.284  11.826
76050W        W48365  13.055  21.949  11.078
76051W        W48366  17.615  23.317  13.751
76052W        W48367  36.577  26.013  10.598
76053W        W48368  43.753  25.107  12.034
76054W        W48369   6.051   5.010  13.796
76055W        W48370  11.330  11.736   0.330
76056W        W48371  28.508  16.710   2.196
76057W        W48372  22.594  42.398   0.972
76058W        W48373   5.794  38.742   0.269
76059W        W48374  10.341  13.467  14.437
76060W        W48375   6.785  16.470  13.592
76061W        W48376  25.452  25.480  13.305
76062W        W48377   2.496  41.961  13.544
76063W        W48378  41.089  17.743   2.920
76064W        W48379   3.148  42.776   2.702
76065W        W48380  39.146  11.369  13.346
76066W        W48381  38.756  24.234  12.429
76067W        W48382  35.910  33.350   1.692
76068W        W48383   6.381  35.871   2.779
76069W        W48384  28.894  16.834   0.897
76070W        W48385  20.506  42.289   1.201
76071W        W48386  27.444  43.927  10.657
76072W        W48387  25.017  16.711   4.490
76073W        W48388  10.048  11.820  11.169
76074W        W48389  35.017  38.890   3.395
76075W        W48390  31.132  17.123   2.146
76076W        W48391  33.953  22.694  11.947
76077W        W48392  32.141  41.592  13.430
76078W        W48393  14.286  15.145   3.655
76079W        W48394  18.975   2.827  11.674
76080W        W48395  15.476  36.155  13.049
76081W        W48396   6.634  29.514   3.808
76082W        W48397   2.830   2.676   4.521
76083W        W48398  27.265  34.154   0.417
76084W        W48399  29.666  24.201   1.390
76085W        W48400  19.822  13.763  11.569
76086W        W48401  26.165   8.738   3.658
76087W        W48402   0.609   4.821   2.149
76088W        W48403  42.819  33.691  14.761
76089W        W48404  35.653   3.995  14.919
76090W        W48405  38.794  32.113   4.509
76091W        W48406  44.458  21.518   4.177
76092W        W48407   5.225  21.698   4.192
76093W        W48408  42.065  25.187   0.432
76094W        W48409  40.559  18.152   0.742
76095W        W48410  35.131  16.184  12.999
76096W        W48411   2.266  13.069  12.703
76097W        W48412  20.442  36.338  14.605
76098W        W48413  33.497  30.386   0.303
76099W        W48414  24.129   3.701  11.663
76100W        W48415  18.536   7.888   3.300
76101W        W48416  18.756  41.471  11.803
76102W        W48417  18.207  12.036  12.097
76103W        W48418  23.246  44.129   3.198
76104W        W48419  20.314  19.158  11.121
76105W        W48420  21.406   0.788   4.137
76106W        W48421  11.152  25.097  12.504
76107W        W48422  22.768  37.659   5.112
76108W        W48423  17.158  33.957  12.000
76109W        W48424  41.000  43.292  13.838
76110W        W48425  29.588  30.968  12.622
76111W        W48426  33.985   6.386   0.792
76112W        W48427   7.839  36.047  10.405
76113W        W48428  18.465  14.923  10.564
76114W        W48429  35.985  31.346   1.727
76115W        W48430  16.125  11.163   4.612
76116W        W48431  16.199  17.499  12.633
76117W        W48432   7.456   5.864  14.302
76118W        W48433  28.028   8.906  13.399
76119W        W48434  25.476  30.964   0.663
76120W        W48435  39.362  42.361   3.432
76121W        W48436  34.635   0.930  11.624
76122W        W48437  42.994   0.490  10.737
76123W        W48438  31.495   2.006  14.794
76124W        W48439  39.273  36.331  11.149
76125W        W48440  14.587  28.943   1.276
76126W        W48441   0.766  35.387  11.073
76127W        W48442  35.372   3.408   2.301
76128W        W48443  17.905  23.750   4.746
76129W        W48444  28.499  34.941   0.296
76130W        W48445  21.465  40.298   4.764
76131W        W48446  24.097  17.680   3.345
76132W        W48447   3.231  33.495  13.894
76133W        W48448  41.729  39.895   3.543
76134W        W48449  23.507  33.596   0.262
76135W        W48450  32.910  41.375   4.692
76136W        W48451  18.810  43.334   1.335
76137W        W48452  26.183  16.341  14.390
76138W        W48453   1.141  39.192   0.337
76139W        W48454  44.969  30.121   2.358
76140W        W48455  21.578   3.846   4.771
76141W        W48456  32.936  16.481   2.244
76142W        W48457  35.490  13.181  11.624
76143W        W48458   2.049  17.803   0.828
76144W        W48459  44.454  20.967  12.031
76145W        W48460  37.569  23.111   2.777
76146W        W48461  31.540  28.542  10.415
76147W        W48462   0.432  26.949   1.583
76148W        W48463  26.426  18.066  12.474
76149W        W48464  40.881  12.076  10.600
76150W        W48465  22.309   4.426  14.588
76151W        W48466   6.680  29.469  13.796
76152W        W48467   0.677   6.302  12.913
76153W        W48468  26.943  42.686  13.983
76154W        W48469  15.175  24.624   4.609
76155W        W48470  28.918  44.226   0.749
76156W        W48471  30.175  39.042   0.594
76157W        W48472  16.127  36.094   5.005
76158W        W48473  19.696   0.261   1.472
76159W        W48474  32.053  34.727  10.314
76160W        W48475  27.108  11.343  14.138
76161W        W48476  20.700  40.713  12.384
76162W        W48477  13.591  19.837  11.474
76163W        W48478  26.117  22.250   1.837
76164W        W48479  39.000  23.010  11.074
76165W        W48480   1.215  31.396   0.359
76166W        W48481   5.319  40.846   1.324
76167W        W48482  13.279  35.196  12.171
76168W        W48483   4.770   3.713   1.604
76169W        W48484   7.802   9.501   0.898
76170W        W48485   6.855   8.190  14.958
76171W        W48486  37.038   1.455  12.643
76172W        W48487  27.243   1.544   4.248
76173W        W48488  42.110  37.991   2.058
76174W        W48489  26.994   3.780   1.079
76175W        W48490  30.968  44.454   1.875
76176W        W48491  29.596  27.015  13.099
76177W        W48492  14.599  23.888  11.881
76178W        W48493  44.957  19.550  14.332
76179W        W48494  32.353  26.257   0.452
76180W        W48495  32.498  39.447   0.118
76181W        W48496   9.745  30.882   4.458
76182W        W48497  31.603  17.779  12.340
76183W        W48498   2.752   4.298   0.328
76184W        W48499   2.444  36.584  13.861
76185W        W48500   7.623  10.267  11.626
76186W        W48501  11.888   9.405   1.013
76187W        W48502  40.086  23.241   1.767
76188W        W48503  19.212  35.511   2.274
76189W        W48504  36.086   9.353  14.830
76190W        W48505  10.588  24.630  13.443
76191W        W48506  25.548  27.773  13.089
76192W        W48507   5.715  18.609  12.904
76193W        W48508  34.530  35.449   0.392
76194W        W48509  27.549  22.514   4.291
76195W        W48510   6.754   1.317   1.008
76196W        W48511  26.121  41.956  12.840
76197W        W48512  32.142  28.493   4.927
76198W        W48513  16.665   9.789   4.510
76199W        W48514  44.337   6.344  12.014
76200W        W48515  17.432   6.223   3.265
76201W        W48516  23.650  12.906  14.756
76202W        W48517   3.307  34.154  14.931
76203W        W48518  33.998  31.460  10.615
76204W        W48519  33.548   7.806   0.798
76205W        W48520  16.176  25.493   0.275
76206W        W48521  25.181   0.473  13.518
76207W        W48522  22.032  26.372   3.274
76208W        W48523  25.201   3.216  12.905
76209W        W48524  29.156  19.062   0.358
76210W        W48525  42.332   1.368  14.896
76211W        W48526  16.069   0.235   3.078
76212W        W48527  17.927  13.819   4.107
76213W        W48528  34.095   3.249  10.682
76214W        W48529  40.599   3.718   3.681
76215W        W48530  31.021  15.561   0.371
76216W        W48531  27.218  32.572  13.454
76217W        W48532  35.205  31.657  12.805
76218W        W48533  16.062   3.665   1.278
76219W        W48534  23.662  14.552  13.301
76220W        W48535  20.926   0.374  12.132
76221W        W48536   5.401   3.283  11.894
76222W        W48537  11.169   5.323  14.514
76223W        W48538   3.716   4.646  14.461
76224W        W48539  22.033  28.482   2.357
76225W        W48540  15.753  25.763   0.490
76226W        W48541  30.554  30.732   4.738
76227W        W48542  12.327  20.736   5.091
76228W        W48543  13.614   3.187   4.535
76229W        W48544  14.881  42.424   0.370
76230W        W48545  23.491  21.086  13.363
76231W        W48546  20.484  26.089   2.828
76232W        W48547  10.320  35.979   1.959
76233W        W48548  15.485  28.608   9.966
76234W        W48549  17.785  41.412   3.143
76235W        W48550  42.997  23.542  10.241
76236W        W48551  44.233  21.237  12.443
76237W        W48552   1.025  14.702  12.829
76238W        W48553  20.088   5.319  13.980
76239W        W48554  28.632  33.507   3.743
76240W        W48555  12.781  14.327  10.883
76241W        W48556  34.930  17.224   4.120
76242W        W48557  20.576  17.702  14.434
76243W        W48558   5.202  34.293  10.621
76244W        W48559  21.072   7.646   4.537
76245W        W48560  33.258  13.401  10.180
76246W        W48561   2.414  25.692   4.116
76247W        W48562  17.081  23.849   0.745
76248W        W48563  43.393  39.421   4.078
76249W        W48564  33.741  36.394   3.226
76250W        W48565  31.900  37.337   2.485
76251W        W48566  38.589  15.110   2.640
76252W        W48567   7.682  37.270   0.970
76253W        W48568  27.553  17.600   4.984
76254W        W48569  19.732   9.420  14.293
76255W        W48570  11.723  42.962  11.735
76256W        W48571   5.856   2.679   3.091
76257W        W48572  40.281  16.178  13.802
76258W        W48573  15.910   0.884   2.702
76259W        W48574  35.586   7.166   2.170
76260W        W48575  38.764  17.538   3.771
76261W        W48576  35.956  24.193   0.707
76262W        W48577  15.122  43.345  13.429
76263W        W48578   7.006  38.441   2.563
76264W        W48579  33.715  33.041  12.968
76265W        W48580   2.722   1.203  11.722
76266W        W48581  10.248  36.393   3.770
76267W        W48582  26.103  11.907  12.262
76268W        W48583  41.271  33.434   0.753
76269W        W48584  21.603   0.206   2.772
76270W        W48585  20.771  10.339   5.118
76271W        W48586  41.421   7.069   4.474
76272W        W48587  25.946  35.069   1.285
76273W        W48588  35.198  21.993   2.261
76274W        W48589  28.507  27.932   0.818
76275W        W48590  22.740  33.131  10.727
76276W        W48591  11.706   3.966   0.206
76277W        W48592  29.642  42.315  11.206
76278W        W48593   3.217   0.549   2.162
76279W        W48594   8.931  31.029   3.663
76280W        W48595  25.487   1.314  10.720
76281W        W48596   3.434  43.017   2.312
76282W        W48597  39.597  11.645   0.910
76283W        W48598  21.532  24.130   2.690
76284W        W48599  34.504  29.471  10.530
76285W        W48600  39.908  29.376   3.429
76286W        W48601  36.855   5.628  13.963
76287W        W48602  12.464  29.177   3.219
76288W        W48603  20.184  22.645  12.116
76289W        W48604  26.390   5.840   4.787
76290W        W48605  40.271  21.568  13.885
76291W        W48606  24.064  29.071  12.426
76292W        W48607  20.578  20.094  10.721
76293W        W48608  32.405  30.147  11.933
76294W        W48609  34.236  22.942   0.061
76295W        W48610  20.777   5.573   4.684
76296W        W48611  18.380  44.969  13.888
76297W        W48612  26.717  15.111   2.223
76298W        W48613  15.649   0.980   4.183
76299W        W48614  24.681  28.995  11.599
76300W        W48615   5.173   1.103  12.510
76301W        W48616  42.331  16.245   3.765
76302W        W48617  18.322  17.285   3.691
76303W        W48618  38.723  40.318   0.779
76304W        W48619  28.619  36.367  12.074
76305W        W48620  25.189  32.313   1.756
76306W        W48621  25.327  30.410  13.937
76307W        W48622  19.017  42.763  10.587
76308W        W48623   3.631  28.259  10.101
76309W        W48624  36.457  24.098   0.797
76310W        W48625  25.147  27.689   4.070
76311W        W48626  25.100  12.840  13.786
76312W        W48627  30.603  31.531  11.453
76313W        W48628  26.609  31.828  14.458
76314W        W48629  40.872   9.428   3.650
76315W        W48630  42.134   5.826   0.116
76316W        W48631  29.414   9.695  13.335
76317W        W48632  41.254  29.968  10.989
76318W        W48633  34.936  29.860  12.287
76319W        W48634  44.469  36.813   3.583
76320W        W48635  17.777  41.137  10.233
76321W        W48636  41.413  32.345   4.049
76322W        W48637  40.331  15.693  13.054
76323W        W48638  33.995  17.342   4.006
76324W        W48639  41.732  22.060  11.168
76325W        W48640   6.480  35.426  13.869
76326W        W48641  19.242  21.146   1.407
76327W        W48642  15.116  13.452   1.557
76328W        W48643  41.354  15.111  13.132
76329W        W48644  30.660   3.368   2.395
76330W        W48645  43.489  24.946  13.771
76331W        W48646   1.755  16.706  11.998
76332W        W48647  25.728   4.380  14.895
76333W        W48648  34.534   5.089   3.671
76334W        W48649   3.493  19.147   4.034
76335W        W48650   1.155  40.767   2.378
76336W        W48651  44.756  32.386  14.476
76337W        W48652   3.761  11.280   3.634
76338W        W48653  38.645  37.620   4.609
76339W        W48654  22.447  32.930  11.112
76340W        W48655  11.326  14.083   9.633
76341W        W48656   1.437  38.106  12.743
76342W        W48657  39.451  30.279  11.531
76343W        W48658  40.585  31.329  12.937
76344W        W48659  24.643  22.301   1.786
76345W        W48660   6.671   2.255  13.362
76346W        W48661   9.606   7.826  14.847
76347W        W48662  27.196   9.864  12.776
76348W        W48663  18.519  16.302  12.932
76349W        W48664  40.040  35.389   1.308
76350W        W48665  29.997  28.958  14.928
76351W        W48666   1.791  18.113   2.878
76352W        W48667   2.243   7.859   4.091
76353W        W48668  41.175  31.895   4.027
76354W        W48669  39.899  18.007   4.751
76355W        W48670  12.869  38.235   2.337
76356W        W48671  41.092  14.354  11.479
76357W        W48672   3.515  21.604   0.920
76358W        W48673  19.771  38.660  10.282
76359W        W48674  12.325  43.066  12.942
76360W        W48675  12.396   0.972   0.857
76361W        W48676  32.461  44.503   1.808
76362W        W48677  20.637  20.698  12.522
76363W        W48678  22.528  41.214  12.451
76364W        W48679  10.161  32.037  14.825
76365W        W48680  32.745  14.271   1.284
76366W        W48681   4.057   5.774  11.608
76367W        W48682  24.499  41.411   4.255
76368W        W48683   3.322   5.567  12.150
76369W        W48684  34.859  17.587   3.749
76370W        W48685   1.038  12.759   4.138
76371W        W48686  16.260  12.743  13.064
76372W        W48687  41.565   0.434  12.455
76373W        W48688  25.647  40.547  14.512
76374W        W48689  20.500  13.066  12.055
76375W        W48690   6.840  44.378  11.506
76376W        W48691   8.636  41.992   2.692
76377W        W48692  44.255   8.884  11.485
76378W        W48693  25.088  34.830   1.349
76379W        W48694  42.318  17.159   4.072
76380W        W48695  20.462   8.200  14.916
76381W        W48696   5.476  24.681  12.066
76382W        W48697   2.216  24.770  11.970
76383W        W48698  43.104  17.924  13.346
76384W        W48699  13.558   6.890   1.612
76385W        W48700  25.250  35.885  12.950
76386W        W48701  23.749  34.795   0.523
76387W        W48702  42.977  17.634  14.254
76388W        W48703  44.835  28.055   4.008
76389W        W48704  43.602   4.832   1.357
76390W        W48705   9.920  10.111  12.145
76391W        W48706  39.938   6.772  10.908
76392W        W48707  32.541  17.703  10.693
76393W        W48708  43.063  19.282  11.570
76394W        W48709  25.265  14.114   3.437
76395W        W48710  16.735  11.087  10.566
76396W        W48711  29.176  25.720   1.292
76397W        W48712  21.039  43.430   0.077
76398W        W48713  33.968   8.172  11.437
76399W        W48714  34.886  33.130  11.370
76400W        W48715  23.108  38.569   1.282
76401W        W48716  27.655   1.543   0.759
76402W        W48717  26.059  44.503   0.782
76403W        W48718  15.537  24.099   3.490
76404W        W48719  22.666  43.868   3.711
76405W        W48720  43.487  36.154  12.155
76406W        W48721  25.784  22.255   3.666
76407W        W48722  14.377  22.500  11.946
76408W        W48723  27.074  42.812  13.486
76409W        W48724  18.110  40.442   4.511
76410W        W48725  15.748   5.421  14.893
76411W        W48726   6.758  28.326  12.596
76412W        W48727  36.511  29.144  12.089
76413W        W48728  16.529   8.987  13.343
76414W        W48729  28.042  28.044   2.100
76415W        W48730  20.175  28.952  12.623
76416W        W48731  16.206  36.327  11.087
76417W        W48732  19.784  38.314  14.020
76418W        W48733  31.271  38.273   4.262
76419W        W48734  36.979   4.906   0.341
76420W        W48735  33.515  44.887  11.655
76421W        W48736  15.630   1.221   5.009
76422W        W48737  44.432   7.164  11.029
76423W        W48738  29.060   4.300   1.992
76424W        W48739  18.034  16.040   4.039
76425W        W48740  30.528  29.782   2.876
76426W        W48741  35.483   8.240   4.029
76427W        W48742  22.805   7.676  12.555
76428W        W48743  34.984  37.034   0.305
76429W        W48744  41.006  24.691   1.802
76430W        W48745  12.272  32.637   0.226
76431W        W48746  37.393  20.708   1.170
76432W        W48747   1.752  26.083   0.457
76433W        W48748  39.382  35.114   3.093
76434W        W48749  40.474   7.222   3.408
76435W        W48750  25.761  23.688   3.566
76436W        W48751  41.032  14.571  13.747
76437W        W48752  13.244  24.731  12.094
76438W        W48753  10.266  36.886   2.721
76439W        W48754  43.724  33.127   2.424
76440W        W48755   2.779  23.735  13.008
76441W        W48756  10.238  38.964   2.235
76442W        W48757  16.375   4.971   2.454
76443W        W48758  16.553  23.654   2.210
76444W        W48759  18.485  22.094  12.447
76445W        W48760  29.773   9.946   4.766
76446W        W48761  22.608   9.100  11.131
76447W        W48762  25.188   4.045  10.304
76448W        W48763  15.881  18.874  11.337
76449W        W48764   0.361  35.542  14.760
76450W        W48765  25.703  10.663   4.461
76451W        W48766  34.453  44.498   2.676
76452W        W48767  18.844   6.125  12.480
76453W        W48768   2.833   0.515  14.872
76454W        W48769  19.851  27.072   2.844
76455W        W48770  36.340   6.721  12.980
76456W        W48771   3.454  19.585  11.509
76457W        W48772  31.862  12.117   0.818
76458W        W48773  31.255  32.197   4.393
76459W        W48774  40.468   5.322  10.607
76460W        W48775   0.916  23.324  14.879
76461W        W48776   0.055   8.189   1.395
76462W        W48777  15.079   3.403  11.958
76463W        W48778  43.721  12.350   0.790
76464W        W48779  11.692  15.791   0.327
76465W        W48780  20.982  24.772   0.334
76466W        W48781  36.643  40.602  12.618
76467W        W48782  27.638  25.538   1.253
76468W        W48783  44.551  24.993  12.368
76469W        W48784  38.356  12.713   4.202
76470W        W48785  19.994  37.833   1.969
76471W        W48786  27.774  37.926  13.343
76472W        W48787  25.496   8.587  11.573
76473W        W48788  19.289  21.929  14.029
76474W        W48789  35.011  33.879   0.763
76475W        W48790  33.085  28.067  11.572
76476W        W48791  44.824  37.511  14.572
76477W        W48792  39.403  28.473   3.161
76478W        W48793  31.147  10.713   0.851
76479W        W48794   8.295  20.112   1.223
76480W        W48795   7.873  26.254  14.435
76481W        W48796   8.681   0.269   0.811
76482W        W48797  23.380  36.986  14.319
76483W        W48798  38.001  42.870   2.407
76484W        W48799   8.521  16.608  11.054
76485W        W48800  10.071  27.107   4.457
76486W        W48801  17.499   0.772   4.689
76487W        W48802  17.111  38.751   2.278
76488W        W48803  30.948  24.485   1.780
76489W        W48804  29.083  37.960   0.053
76490W        W48805  10.092   9.714   2.394
76491W        W48806  23.425  39.322   1.019
76492W        W48807  41.776  31.146   2.307
76493W        W48808  29.831  12.780   0.104
76494W        W48809  14.585  18.544  13.595
76495W        W48810   1.750  20.583  12.705
76496W        W48811  21.572  34.345  10.734
76497W        W48812  19.852  33.472   2.777
76498W        W48813  30.372  33.721  11.190
76499W        W48814   9.867   9.423   4.561
76500W        W48815  35.836   7.096  11.182
76501W        W48816  41.343   1.467   2.193
76502W        W48817   0.491   4.800   0.233
76503W        W48818  42.504  20.762   2.189
76504W        W48819  10.124  19.327  12.012
76505W        W48820   3.434  30.593  11.617
76506W        W48821   1.778  44.411   2.695
76507W        W48822  27.811  21.005  14.499
76508W        W48823  27.605  40.183   0.058
76509W        W48824  22.403  15.164   3.561
76510W        W48825  27.608   6.933   4.058
76511W        W48826  23.079  41.712   1.326
76512W        W48827  29.949  27.412  13.017
76513W        W48828  36.380  36.999   2.865
76514W        W48829  42.749  26.150   2.759
76515W        W48830   7.596   2.357   2.876
76516W        W48831  30.217  24.524   1.392
76517W        W48832  34.824  15.629  13.868
76518W        W48833   3.482  13.163   0.466
76519W        W48834  40.500  28.135  10.644
76520W        W48835   3.643  20.116  13.323
76521W        W48836  41.529  21.999   0.021
76522W        W48837  34.532  19.338  12.150
76523W        W48838  35.905  38.711  12.474
76524W        W48839  21.699   2.348   2.397
76525W        W48840  33.317  20.230  13.792
76526W        W48841  35.950  30.085   4.520
76527W        W48842  28.842  33.930   4.534
76528W        W48843  26.625  22.496   2.699
76529W        W48844  34.057   1.864   1.234
76530W        W48845  28.470  19.848   1.394
76531W        W48846  32.887  17.178   1.291
76532W        W48847  24.716   3.360  12.268
76533W        W48848  17.699  22.689   4.352
76534W        W48849  37.604  40.195   3.143
76535W        W48850  34.309  22.494   1.453
76536W        W48851  42.072  43.591   4.055
76537W        W48852  25.007  33.540  13.152
76538W        W48853   7.236  20.303  14.460
76539W        W48854  38.519  35.079   0.372
76540W        W48855  44.060   3.291   1.257
76541W        W48856  40.802  33.586   0.337
76542W        W48857  27.943  41.298  11.561
76543W        W48858  30.512  29.090  11.584
76544W        W48859  15.688  35.072   2.777
76545W        W48860  44.443  11.885   4.827
76546W        W48861  12.634  44.552  10.885
76547W        W48862   6.734   3.108   2.869
76548W        W48863  23.306  32.123   0.546
76549W        W48864  26.376  44.096   1.199
76550W        W48865  25.764  43.741  13.437
76551W        W48866  21.147  17.100  13.982
76552W        W48867  26.488  14.734  12.880
76553W        W48868   0.492  28.264  12.519
76554W        W48869  43.779  39.508  11.904
76555W        W48870  14.867   3.503  14.896
76556W        W48871   5.233  40.005  14.116
76557W        W48872  23.197  16.715  12.621
76558W        W48873   3.627  25.286   1.211
76559W        W48874  35.946   0.321  14.941
76560W        W48875  30.869  25.227   3.604
76561W        W48876  11.481   5.212   4.557
76562W        W48877  16.789   3.680   2.261
76563W        W48878  40.788  37.334  10.766
76564W        W48879  17.351   0.922  14.409
76565W        W48880  38.745  12.193   0.204
76566W        W48881  15.739  35.314   0.185
76567W        W48882  22.944   7.910  12.129
76568W        W48883  38.500   5.989   1.958
76569W        W48884   1.738  18.363  12.494
76570W        W48885  31.022  25.283   2.175
76571W        W48886  40.823  34.051   1.483
76572W        W48887  16.117  17.542   2.311
76573W        W48888   3.471   9.690   3.861
76574W        W48889  32.112  18.182   1.645
76575W        W48890   6.442  10.550   4.925
76576W        W48891  36.454  29.289   4.978
76577W        W48892  29.624  35.523  12.895
76578W        W48893   6.984  18.735  10.894
76579W        W48894  40.725   6.760  12.474
76580W        W48895  35.480  20.974   2.619
76581W        W48896  27.316  10.965   1.452
76582W        W48897  31.182  31.962   1.966
76583W        W48898  35.478  15.767  13.010
76584W        W48899  21.080  39.391   0.640
76585W        W48900  24.605   8.462  13.108
76586W        W48901  18.538  25.228  13.607
76587W        W48902  36.537  18.414   4.173
76588W        W48903  19.509   2.196  13.792
76589W        W48904  40.383  19.233  14.455
76590W        W48905  29.840  16.124   3.725
76591W        W48906  28.386   2.443   0.113
76592W        W48907  32.340  44.340   3.735
76593W        W48908  10.389  24.106   0.415
76594W        W48909  13.377  35.089   1.784
76595W        W48910  28.143  24.253  13.407
76596W        W48911  10.913  41.960  13.283
76597W        W48912   9.112  28.042  14.056
76598W        W48913  18.213  12.374   0.851
76599W        W48914   9.728   1.791   1.292
76600W        W48915   2.708  42.931   2.457
76601W        W48916  18.271  19.774  11.630
76602W        W48917  39.923  38.826  11.071
76603W        W48918  11.637  39.687   0.872
76604W        W48919  40.393  41.773  11.564
76605W        W48920  13.135  13.821  14.013
76606W        W48921  37.834  15.497  12.387
76607W        W48922  14.600   0.046   0.014
76608W        W48923  13.138  32.910  10.935
76609W        W48924  39.402  30.660   3.354
76610W        W48925  17.241  37.813  13.429
76611W        W48926  44.955   1.730  13.419
76612W        W48927   9.850  24.979   1.607
76613W        W48928   3.993  15.526  11.284
76614W        W48929  18.470   3.282  13.904
76615W        W48930  36.492  14.039  13.528
76616W        W48931  26.926  11.798  14.337
76617W        W48932  30.167   6.036  11.992
76618W        W48933   6.798  16.444   1.417
76619W        W48934  25.692  18.058   2.255
76620W        W48935  10.808  25.953   0.745
76621W        W48936  40.921   5.086  10.450
76622W        W48937  36.847   8.716  12.619
76623W        W48938  39.448   7.950  14.066
76624W        W48939   9.233  31.455  12.650
76625W        W48940  33.993  28.141  14.292
76626W        W48941  35.638  20.167  14.122
76627W        W48942  40.359  21.122  13.668
76628W        W48943   8.363  19.105  14.986
76629W        W48944   4.140  41.717  11.110
76630W        W48945   3.822  39.021   0.855
76631W        W48946  13.309  16.305   0.326
76632W        W48947  40.809  21.536  13.993
76633W        W48948  44.984  40.774   1.313
76634W        W48949   8.641   2.548  13.970
76635W        W48950  36.046  44.716  14.319
76636W        W48951  40.522  34.032   4.751
76637W        W48952  28.982  16.378   1.627
76638W        W48953   4.689  25.580  14.440
76639W        W48954  42.424  15.809   4.017
76640W        W48955  44.892  15.800   0.056
76641W        W48956  16.993  18.882   1.261
76642W        W48957  32.209   1.703   1.795
76643W        W48958  17.367  16.961   4.189
76644W        W48959  44.461  14.610  12.469
76645W        W48960  14.461  34.533  11.411
76646W        W48961   6.879  41.408  11.059
76647W        W48962   8.633  28.119   2.919
76648W        W48963   9.019  23.188  13.731
76649W        W48964  22.278  17.648   3.663
76650W        W48965   5.707  31.738   1.950
76651W        W48966  30.492   9.283   2.198
76652W        W48967  42.554   8.762   3.833
76653W        W48968  11.635  31.187  12.483
76654W        W48969  23.993  36.976  12.372
76655W        W48970  38.077  15.292   3.224
76656W        W48971  23.470  15.622  10.398
76657W        W48972  17.579  28.563   5.274
76658W        W48973   0.225   1.334  11.634
76659W        W48974  20.526  18.310   3.337
76660W        W48975  43.513  24.625  11.734
76661W        W48976  42.918  11.254   3.840
76662W        W48977   9.253   7.729   0.796
76663W        W48978  38.899  26.571  13.969
76664W        W48979  19.601   7.767   1.918
76665W        W48980   5.920  33.561  10.717
76666W        W48981  40.564  14.522   0.265
76667W        W48982  20.180  24.522  12.511
76668W        W48983  20.648  24.505   1.001
76669W        W48984  37.900   1.268   2.827
76670W        W48985   9.152  40.403  14.404
76671W        W48986  25.494  35.916  11.587
76672W        W48987  32.895  21.667  12.046
76673W        W48988  36.017  42.274   3.326
76674W        W48989  10.626   9.842   2.321
76675W        W48990  10.504  11.613  14.870
76676W        W48991  11.272  38.551  12.513
76677W        W48992  21.452  18.795  12.175
76678W        W48993  27.666  21.941  11.636
76679W        W48994  24.333  20.952   1.625
76680W        W48995  25.960  43.096   2.911
76681W        W48996  11.864  13.097   1.817
76682W        W48997  26.347   2.482   0.000
76683W        W48998   1.241  18.639   4.062
76684W        W48999  43.394  33.109  10.541
76685W        W49000  15.312  35.783   2.829
76686W        W49001  33.406   3.052  14.892
76687W        W49002  37.538  32.965  13.421
76688W        W49003  16.021  41.591   0.927
76689W        W49004  22.648  22.778   4.952
76690W        W49005  30.391   7.567   4.470
76691W        W49006   9.925  34.993   2.928
76692W        W49007  21.449   3.396  11.036
76693W        W49008  25.171  42.001  13.837
76694W        W49009   5.033  24.254  13.402
76695W        W49010  13.659  25.125  10.392
76696W        W49011   2.475  26.273  14.785
76697W        W49012   6.609   4.277   0.432
76698W        W49013  31.902  10.784   3.244
76699W        W49014  15.039  25.071   4.405
76700W        W49015   5.173  34.536  13.028
76701W        W49016  34.365  40.356  12.550
76702W        W49017   0.680  15.794   0.302
76703W        W49018   2.414  39.472   4.547
76704W        W49019  10.888  21.012  13.273
76705W        W49020  20.037  33.854   0.272
76706W        W49021   9.458  32.647  13.119
76707W        W49022  24.010  39.900  11.162
76708W        W49023  30.142  12.853  10.635
76709W        W49024  39.596  31.828  12.190
76710W        W49025  42.927  19.646  13.298
76711W        W49026   1.319  18.348  12.184
76712W        W49027  23.200  31.543   1.259
76713W        W49028  26.741  11.836  13.838
76714W        W49029  11.324  28.575  13.082
76715W        W49030  25.297   9.319   4.608
76716W        W49031  14.686  32.542   3.700
76717W        W49032  10.703  25.128   3.270
76718W        W49033  12.893  44.515  14.467
76719W        W49034  22.260  33.592  14.978
76720W        W49035  21.485   2.158  12.508
76721W        W49036  38.468  39.941   4.600
76722W        W49037  40.046   4.519   3.010
76723W        W49038  31.613  16.296  12.722
76724W        W49039  35.158  37.145   2.249
76725W        W49040  34.095  31.646   3.314
76726W        W49041  17.355   5.103  13.208
76727W        W49042  36.817  20.321   3.245
76728W        W49043  28.684  12.162   0.205
76729W        W49044   7.797  20.507   1.815
76730W        W49045  14.264  20.685   3.765
76731W        W49046   7.606  40.819   1.113
76732W        W49047   4.542  40.324  11.226
76733W        W49048  29.628  25.767  11.631
76734W        W49049  29.849  39.430  12.467
76735W        W49050  14.779  21.774  13.738
76736W        W49051  37.822  24.455   3.096
76737W        W49052  44.495  19.163  11.368
76738W        W49053  36.405  12.715   3.787
76739W        W49054  37.380   9.734   3.706
76740W        W49055  30.554  29.204  12.451
76741W        W49056  43.201  11.707  13.148
76742W        W49057  18.274  20.252   2.698
76743W        W49058  27.187  11.205  11.101
76744W        W49059  39.383   8.434  12.493
76745W        W49060  20.916  36.058   1.252
76746W        W49061   4.304  11.631  13.632
76747W        W49062  31.515  35.906  11.545
76748W        W49063  41.993  40.744   3.604
76749W        W49064   5.279  18.727   0.246
76750W        W49065  25.276  34.657  11.952
76751W        W49066  23.836  27.572  12.048
76752W        W49067   8.671   1.983  10.073
76753W        W49068  29.157  11.695   1.299
76754W        W49069   9.295  31.870  11.077
76755W        W49070  23.045  15.403  14.631
76756W        W49071  22.583  31.209   0.506
76757W        W49072  16.659  22.409  13.110
76758W        W49073  29.126  40.367   2.378
76759W        W49074  29.578  16.221  12.819
76760W        W49075  28.029   5.087   3.042
76761W        W49076  42.141  40.513  14.536
76762W        W49077  32.880  26.204   0.403
76763W        W49078  30.803  23.800   3.604
76764W        W49079   1.111  19.485  14.066
76765W        W49080   9.596  17.583  12.052
76766W        W49081   2.279  32.620  12.455
76767W        W49082  42.123  31.899   9.880
76768W        W49083  23.583   4.896  10.688
76769W        W49084  12.632  39.419  13.278
76770W        W49085  11.824  14.188   2.619
76771W        W49086  25.841   8.459   3.980
76772W        W49087  35.002   2.585  14.620
76773W        W49088  34.441  44.874  13.533
76774W        W49089  24.899  20.798   1.705
76775W        W49090  23.157   5.204  13.409
76776W        W49091  14.337   9.809  12.349
76777W        W49092  22.831  17.097  13.012
76778W        W49093  41.964  17.935   2.808
76779W        W49094  39.266  31.937  12.979
76780W        W49095  40.357  39.992   3.731
76781W        W49096  41.506  21.803  13.554
76782W        W49097  24.965   2.279  13.752
76783W        W49098  16.399  36.589  12.037
76784W        W49099  29.486   0.750  14.028
76785W        W49100  23.720  24.625  12.520
76786W        W49101  16.530  30.690   9.724
76787W        W49102   6.212  15.679   0.761
76788W        W49103   3.648  42.912  12.493
76789W        W49104  35.371  11.689  14.352
76790W        W49105  30.078  34.438  10.813
76791W        W49106  31.887  13.182   3.711
76792W        W49107  19.250  31.923  14.872
76793W        W49108   8.664   7.216   0.367
76794W        W49109  26.452  30.410  12.424
76795W        W49110  36.492  14.940  14.765
76796W        W49111   4.789  26.292  14.938
76797W        W49112  39.033  14.486   1.201
76798W        W49113  12.903  43.330  13.881
76799W        W49114  43.235  28.885   2.843
76800W        W49115  27.259  35.460   1.159
76801W        W49116  33.871  11.467  11.007
76802W        W49117  29.594  11.624  11.951
76803W        W49118  13.054  18.065   4.585
76804W        W49119  12.997  43.914   2.149
76805W        W49120  43.295   4.977  13.402
76806W        W49121  38.853  40.866   2.390
76807W        W49122  33.141  31.067  13.517
76808W        W49123  12.402  35.987  12.312
76809W        W49124  43.821  32.350  14.360
76810W        W49125  14.925  10.680   3.268
76811W        W49126  40.961   5.956   2.515
76812W        W49127  32.711  40.379  11.265
76813W        W49128   8.201  25.202  13.985
76814W        W49129  39.897  33.403   4.510
76815W        W49130  31.181  38.524   2.821
76816W        W49131  13.893  37.556   3.633
76817W        W49132  44.503  36.686   1.845
76818W        W49133  21.653  41.815  14.438
76819W        W49134   7.198  16.694  13.341
76820W        W49135  39.878  34.429  12.906
76821W        W49136   7.534  39.647   4.057
76822W        W49137   8.488  31.147   4.926
76823W        W49138   3.661  33.793  12.048
76824W        W49139  13.972  19.548   4.337
76825W        W49140   9.391   7.323   3.556
76826W        W49141  22.944   8.663  13.179
76827W        W49142  26.376  32.449   1.247
76828W        W49143   6.644   3.997  10.704
76829W        W49144  37.001  17.750   1.798
76830W        W49145  29.508  29.885   4.267
76831W        W49146  39.930  19.520   2.382
76832W        W49147  18.029   3.468  14.058
76833W        W49148  29.993  39.410  11.012
76834W        W49149  28.563  21.967   0.772
76835W        W49150  33.359   4.331   1.281
76836W        W49151  41.486   4.228   0.839
76837W        W49152   7.702  29.449  10.963
76838W        W49153  19.776  13.131   4.191
76839W        W49154  10.877   7.913  12.046
76840W        W49155  29.995  16.762  10.757
76841W        W49156  10.179   8.214  11.421
76842W        W49157  34.369   5.317  11.591
76843W        W49158  36.656   4.196   2.852
76844W        W49159  22.596   3.279   9.983
76845W        W49160  27.877  43.879   1.306
76846W        W49161  25.446  13.690   2.290
76847W        W49162  13.579  36.452  11.188
76848W        W49163   6.318  29.334  13.464
76849W        W49164  24.707   0.213   4.090
76850W        W49165  28.216  21.482  13.571
76851W        W49166  26.458  33.579  10.680
76852W        W49167  38.549  41.553   5.025
76853W        W49168   7.841  35.737   0.547
76854W        W49169  10.444  10.549  12.582
76855W        W49170  15.321  17.666  12.915
76856W        W49171  14.721   6.371   2.161
76857W        W49172  34.619  18.754   4.576
76858W        W49173  28.677  40.383   3.288
76859W        W49174  24.080   3.687   1.683
76860W        W49175  40.027   5.003   2.297
76861W        W49176  44.680  13.698  14.842
76862W        W49177  42.768  18.817  13.860
76863W        W49178  16.756  31.538  14.831
76864W        W49179  11.416  25.689   1.803
76865W        W49180   4.455  12.073  12.136
76866W        W49181  39.911   3.119  13.549
76867W        W49182  43.099  10.089   0.507
76868W        W49183  40.567  33.040   2.771
76869W        W49184  24.294  13.287  12.484
76870W        W49185   6.918  17.737  13.052
76871W        W49186  21.531   3.944   4.254
76872W        W49187   7.385  31.059   4.745
76873W        W49188  28.805  20.278  11.916
76874W        W49189  12.012  41.340   0.524
76875W        W49190  31.491  25.353  13.248
76876W        W49191  15.698   9.891   2.218
76877W        W49192   6.118  28.677   4.168
76878W        W49193  20.405  36.907   4.025
76879W        W49194  42.659  15.772  12.804
76880W        W49195  27.288   4.037   4.114
76881W        W49196   7.467  17.863   2.372
76882W        W49197  19.641  15.401  12.851
76883W        W49198   4.738  28.114  11.079
76884W        W49199  38.783  23.242   1.365
76885W        W49200   6.431  23.163   1.438
76886W        W49201   2.749  41.680   3.620
76887W        W49202  19.172  31.073  11.200
76888W        W49203  28.219  27.491  13.334
76889W        W49204  16.026  22.601   1.359
76890W        W49205  16.910  40.387   0.886
76891W        W49206  44.730  12.311  10.265
76892W        W49207  24.479  30.128   3.380
76893W        W49208  44.128   1.112  14.428
76894W        W49209  23.720  23.815   0.485
76895W        W49210  22.738  18.135  12.827
76896W        W49211  26.114  32.454  12.898
76897W        W49212  24.198   6.198  11.646
76898W        W49213  35.027  11.163   0.702
76899W        W49214  34.630  17.801  12.009
76900W        W49215  44.390  38.890   1.186
76901W        W49216  40.264  17.228   4.979
76902W        W49217  35.335  19.376   1.711
76903W        W49218  12.378  24.003   1.856
76904W        W49219  24.111  16.013   4.468
76905W        W49220  41.618   9.912  14.619
76906W        W49221  34.256  27.442   0.381
76907W        W49222   3.824  34.669  11.376
76908W        W49223  22.562  36.471   4.785
76909W        W49224   0.337  36.660   0.858
76910W        W49225  41.496   4.791  10.499
76911W        W49226  21.002  10.067   0.825
76912W        W49227  14.231   4.267  12.454
76913W        W49228  33.703  33.080  11.646
76914W        W49229  19.059  28.656   0.265
76915W        W49230   1.812  21.770   1.524
76916W        W49231  36.813   9.173  10.765
76917W        W49232  17.307  32.289   4.758
76918W        W49233  23.776  22.274   1.291
76919W        W49234  43.918  13.277  14.901
76920W        W49235  14.227   1.672   0.704
76921W        W49236   3.989  38.921   3.107
76922W        W49237  38.927  31.661   3.598
76923W        W49238  37.449  12.577   3.540
76924W        W49239  15.608  29.093   4.218
76925W        W49240  12.625  10.331  10.592
76926W        W49241  19.921  39.665  14.801
76927W        W49242   9.317  41.568   3.587
76928W        W49243  40.752  38.952   0.142
76929W        W49244   5.929  18.124   2.229
76930W        W49245  34.346  31.046   2.600
76931W        W49246  41.464  22.930   1.513
76932W        W49247  40.043  22.535  13.323
76933W        W49248  12.659  39.543   0.877
76934W        W49249  39.331  17.674   3.161
76935W        W49250  39.900  28.495   1.453
76936W        W49251  28.231  12.163  14.859
76937W        W49252  42.935  12.867  10.885
76938W        W49253   8.723  15.369  10.526
76939W        W49254  40.656  37.955   2.897
76940W        W49255  26.031   6.526   0.724
76941W        W49256  28.526   1.023   4.205
76942W        W49257  40.376   0.425   3.463
76943W        W49258  22.692  11.390   1.147
76944W        W49259  13.750  18.815  12.841
76945W        W49260  19.851   1.727  12.853
76946W        W49261  18.795  35.392   4.284
76947W        W49262  15.156  43.578   4.020
76948W        W49263  27.033  13.765   2.761
76949W        W49264  13.364  35.164   3.129
76950W        W49265  29.876  27.592  14.901
76951W        W49266   4.515  15.684   2.847
76952W        W49267  12.275  20.503  14.349
76953W        W49268  11.201  10.856   2.819
76954W        W49269   0.349   2.775  13.454
76955W        W49270  10.588  24.085   1.353
76956W        W49271  31.842  25.292  14.340
76957W        W49272  14.280  32.012   2.870
76958W        W49273  44.570   7.575   4.138
76959W        W49274   4.011  30.479  10.763
76960W        W49275   1.390  38.343   1.308
76961W        W49276   9.197  33.412  14.344
76962W        W49277  21.093  12.325   2.847
76963W        W49278  36.965  26.372   4.297
76964W        W49279  38.430  16.051   2.886
76965W        W49280   8.702  44.776   3.252
76966W        W49281   9.726  26.798  13.135
76967W        W49282  35.781   3.202   3.693
76968W        W49283  18.046  25.026   3.719
76969W        W49284  23.687  44.308  12.140
76970W        W49285  24.996  15.556   2.565
76971W        W49286  31.132  16.137  10.570
76972W        W49287  13.842   8.974   2.778
76973W        W49288  27.443  27.982  10.671
76974W        W49289  41.019  10.698   1.362
76975W        W49290  27.208   7.362  11.954
76976W        W49291  36.261  12.789  12.760
76977W        W49292  23.473  16.197   2.626
76978W        W49293  13.329  39.891  14.827
76979W        W49294  25.592  41.046   3.725
76980W        W49295  29.003  27.733  12.479
76981W        W49296  42.228  18.763   4.153
76982W        W49297  39.633  41.065  10.726
76983W        W49298  20.509  18.736  14.506
76984W        W49299   6.829  17.586  14.853
76985W        W49300  30.570  36.365  13.481
76986W        W49301  22.703   0.717   4.944
76987W        W49302  39.906  12.385   2.300
76988W        W49303  20.205  32.584   3.658
76989W        W49304   7.252   4.747   3.565
76990W        W49305  30.245  41.922  12.950
76991W        W49306  26.011   5.488   3.571
76992W        W49307  37.570  28.075  12.405
76993W        W49308   4.511  31.155   2.690
76994W        W49309  20.827   7.847  10.698
76995W        W49310   8.542  42.514   0.793
76996W        W49311   4.193  36.363  11.185
76997W        W49312  38.863  36.284   2.897
76998W        W49313   1.816  27.580   1.637
76999W        W49314  25.140  26.393   3.719
77000W        W49315   1.354  25.695  14.747
77001W        W49316   5.723  34.681   1.719
77002W        W49317   0.751  37.813   1.137
77003W        W49318  35.952  14.624   3.701
77004W        W49319  20.566  29.019   2.361
77005W        W49320  10.885  26.664  11.199
77006W        W49321   3.961  22.473   2.341
77007W        W49322  18.904   2.168  11.171
77008W        W49323  38.060  15.154   2.660
77009W        W49324   8.246  36.608   3.667
77010W        W49325  42.815  17.013  10.968
77011W        W49326  31.396  20.066   4.621
77012W        W49327  30.921   5.492   4.464
77013W        W49328  25.071  17.736   3.726
77014W        W49329   6.200  12.861  11.179
77015W        W49330  26.956  38.710  10.126
77016W        W49331  36.162   9.142  12.147
77017W        W49332   6.232  32.599   1.334
77018W        W49333  42.068  37.629   1.428
77019W        W49334  20.164  39.547   1.639
77020W        W49335  38.963  40.885   4.803
77021W        W49336  20.240  36.917   0.176
77022W        W49337  19.176  13.796   3.719
77023W        W49338   8.915  21.794  13.099
77024W        W49339  29.622   7.732   1.436
77025W        W49340  23.614   9.260   0.954
77026W        W49341   2.656  22.238   3.187
77027W        W49342  20.032   1.434  13.234
77028W        W49343  29.491  16.047   2.857
77029W        W49344  17.572  16.813  10.758
77030W        W49345  10.865  25.598  14.930
77031W        W49346  25.709  19.592  13.481
77032W        W49347  22.692   4.817   4.005
77033W        W49348  27.066  23.001  12.021
77034W        W49349  43.821  37.368   9.916
77035W        W49350  43.717   4.990  12.400
77036W        W49351   4.990  22.282   1.414
77037W        W49352  10.828   7.469   0.911
77038W        W49353  14.581  18.444   4.400
77039W        W49354  33.950  16.820   2.236
77040W        W49355  23.147  37.577   1.705
77041W        W49356  43.059  28.909   1.133
77042W        W49357  15.562   4.312  11.234
77043W        W49358   6.849  29.981   1.136
77044W        W49359  15.652  20.667  11.106
77045W        W49360  29.989  34.243   3.605
77046W        W49361  16.683  41.773   0.745
77047W        W49362  27.726  36.312   3.096
77048W        W49363  19.321  32.939  12.020
77049W        W49364  32.660  10.405   4.483
77050W        W49365  35.969  38.408  14.557
77051W        W49366   3.722  27.624  11.512
77052W        W49367  18.648  42.325  11.217
77053W        W49368  33.111  40.791  11.982
77054W        W49369  27.102   6.844  13.995
77055W        W49370  35.814  43.755   4.066
77056W        W49371  25.968  16.123  13.981
77057W        W49372  24.411   1.230  11.553
77058W        W49373   0.019  23.991  11.564
77059W        W49374  31.685  24.591   4.565
77060W        W49375  20.039  35.978  11.558
77061W        W49376  16.380  10.182  10.825
77062W        W49377  20.185   3.917  13.405
77063W        W49378  20.253   8.794   9.873
77064W        W49379   8.406  27.132   0.781
77065W        W49380   5.273  20.179   2.305
77066W        W49381  30.916  42.854   1.736
77067W        W49382  41.014  15.802   0.454
77068W        W49383  13.347  27.591   4.193
77069W        W49384   0.494  40.571   1.309
77070W        W49385  30.481  37.996  12.327
77071W        W49386  22.095  16.103   4.950
77072W        W49387  18.141  30.394   4.613
77073W        W49388  36.429  20.796   2.600
77074W        W49389  12.682  33.369   3.668
77075W        W49390   9.246  38.497  14.457
77076W        W49391   1.343  34.529  13.310
77077W        W49392  17.939  20.773  14.918
77078W        W49393   7.229  18.333  10.618
77079W        W49394  41.720  38.515   2.330
77080W        W49395  20.621  11.887   2.360
77081W        W49396  34.014  22.192   3.165
77082W        W49397  22.938   3.969  11.612
77083W        W49398  33.603   2.339  13.788
77084W        W49399  41.068  11.970  14.477
77085W        W49400  34.853   7.878  13.294
77086W        W49401  27.706   2.737  10.674
77087W        W49402  26.995  37.617   0.231
77088W        W49403  17.547  36.284  13.859
77089W        W49404  27.887  14.230  12.077
77090W        W49405  37.014  25.309   0.441
77091W        W49406   9.356  28.604   4.624
77092W        W49407   7.582  36.994   0.539
77093W        W49408  37.294   6.873   4.334
77094W        W49409  29.046  43.519   4.677
77095W        W49410  12.382  36.088   1.729
77096W        W49411   8.124  23.731  10.706
77097W        W49412  42.137  39.721   4.453
77098W        W49413   4.139  15.105  11.027
77099W        W49414   4.353   2.514  12.564
77100W        W49415  14.770   4.296  11.991
77101W        W49416  43.735  14.648   1.461
77102W        W49417  10.454   0.648   2.718
77103W        W49418  26.484   2.885   0.320
77104W        W49419  22.165  42.528   2.705
77105W        W49420  17.827   4.401  13.794
77106W        W49421  36.890  27.879  13.013
77107W        W49422   1.417  43.752   0.857
77108W        W49423  14.690   5.204   3.128
77109W        W49424  23.633  33.899  14.277
77110W        W49425  41.095  26.478  14.575
77111W        W49426   3.246  14.328  11.165
77112W        W49427   5.341  12.252   4.352
77113W        W49428  28.090  26.160   3.202
77114W        W49429  15.843  33.473   2.084
77115W        W49430   8.716  25.040   1.674
77116W        W49431   8.850  32.380  14.438
77117W        W49432  42.593  42.449  12.149
77118W        W49433  36.977  31.607   4.177
77119W        W49434   1.451  42.004   3.789
77120W        W49435  29.010  21.159   0.237
77121W        W49436  29.943  14.297  14.068
77122W        W49437  39.059  27.562  14.171
77123W        W49438  44.223   8.196  12.560
77124W        W49439  14.851   0.962   2.389
77125W        W49440  43.547   7.884   1.793
77126W        W49441  32.964  25.606  12.892
77127W        W49442  32.426  43.859  13.405
77128W        W49443   6.957   3.520   3.115
77129W        W49444  15.913  28.378   0.304
77130W        W49445  14.793  13.888  11.227
77131W        W49446  21.585  16.915   1.913
77132W        W49447  41.784  36.081   1.435
77133W        W49448  16.493  26.510   4.217
77134W        W49449  21.500  34.601   1.709
77135W        W49450  33.309   2.784   1.881
77136W        W49451  40.032  24.077   5.250
77137W        W49452  32.699  15.876   0.689
77138W        W49453  42.996  32.010  11.468
77139W        W49454  14.246  37.132   3.320
77140W        W49455   2.310  24.349  13.787
77141W        W49456   9.461  16.047   4.438
77142W        W49457  35.876  16.700   0.551
77143W        W49458  21.457  28.496  11.111
77144W        W49459  24.720  13.419   1.358
77145W        W49460  23.041  27.998   1.448
77146W        W49461   8.855   5.262   1.340
77147W        W49462  20.263  23.264  13.042
77148W        W49463  39.757  24.656  11.897
77149W        W49464  28.929  35.898  13.021
77150W        W49465  32.129   1.209   3.228
77151W        W49466  17.099  31.935  14.899
77152W        W49467  21.351   4.668   2.300
77153W        W49468   8.767   6.334   0.558
77154W        W49469  40.711  37.048  13.015
77155W        W49470   9.672  37.631   0.735
77156W        W49471  32.067  42.427   2.674
77157W        W49472  25.564  14.364   5.026
77158W        W49473  12.057   8.426   1.728
77159W        W49474  43.024  16.534  11.001
77160W        W49475   4.200   8.575   3.704
77161W        W49476  29.229  23.469   0.982
77162W        W49477  23.666  40.924   0.667
77163W        W49478  36.891   5.919   4.603
77164W        W49479   5.572  40.106  12.427
77165W        W49480   5.702   5.451   3.582
77166W        W49481  32.476   7.777   0.692
77167W        W49482  10.565   7.436  12.046
77168W        W49483  17.189  42.837  13.547
77169W        W49484   3.445  42.038  10.714
77170W        W49485  36.506  17.037   0.626
77171W        W49486   4.392   4.962   1.553
77172W        W49487  10.379  26.972   3.548
77173W        W49488  28.456  29.051   3.967
77174W        W49489  37.345  15.688  10.493
77175W        W49490  33.504  12.635   1.756
77176W        W49491  41.812  22.165  12.085
77177W        W49492   5.313  16.825  14.309
77178W        W49493  11.438  32.301  11.127
77179W        W49494  21.232  16.797  11.231
77180W        W49495   5.480  39.196  11.346
77181W        W49496  44.289  41.378   9.904
77182W        W49497  42.939  15.429  13.604
77183W        W49498  31.474  38.999  11.960
77184W        W49499  29.688  32.936   5.091
77185W        W49500  24.528   6.467  11.990
77186W        W49501  17.484  41.594   5.645
77187W        W49502   6.182  33.146   3.698
77188W        W49503  33.422  39.118  12.827
77189W        W49504   9.068  44.556   2.124
77190W        W49505  42.980   5.872   4.546
77191W        W49506  30.582  42.444   3.803
77192W        W49507  24.032  33.739  13.825
77193W        W49508   7.005   0.684   3.678
77194W        W49509  17.512  10.368   9.529
77195W        W49510  27.984  19.370  13.038
77196W        W49511   3.638   6.775   3.485
77197W        W49512   2.041  14.158  10.647
77198W        W49513  27.807  30.857   0.861
77199W        W49514   8.823  38.085  13.052
77200W        W49515   0.079  17.132   0.472
77201W        W49516  19.093  32.226  12.506
77202W        W49517  11.465  41.817   0.100
77203W        W49518  16.879  37.498   4.072
77204W        W49519  24.086  10.139  14.965
77205W        W49520   0.748  39.868  10.904
77206W        W49521  29.463  36.450   4.201
77207W        W49522  10.218  31.565   0.048
77208W        W49523  39.893   6.636  11.398
77209W        W49524  28.213   6.849   3.804
77210W        W49525  31.063  42.252   2.110
77211W        W49526  28.515  24.020   3.626
77212W        W49527   0.492  30.057  13.873
77213W        W49528   4.891   1.057   5.025
77214W        W49529  31.738  34.078  12.370
77215W        W49530  19.523  23.047  13.046
77216W        W49531  32.776  30.408  12.674
77217W        W49532  25.855   8.291  14.809
77218W        W49533  15.215  38.433  11.070
77219W        W49534  28.947  30.691   4.531
77220W        W49535  38.979  34.956   4.767
77221W        W49536  26.782   9.658  11.745
77222W        W49537  10.396  18.028   4.019
77223W        W49538  42.282  11.881  10.357
77224W        W49539  23.134  28.363   3.184
77225W        W49540  41.521  44.829   4.270
77226W        W49541  20.331  31.512  12.540
77227W        W49542  19.084  30.485  12.942
77228W        W49543  32.256  29.500  12.872
77229W        W49544  31.033  40.686  14.801
77230W        W49545  10.622  10.765  13.010
77231W        W49546  22.741  17.756   2.679
77232W        W49547  15.258  28.363   3.596
77233W        W49548  32.808  15.334  13.135
77234W        W49549  20.552  35.384  10.475
77235W        W49550  33.644  42.339  14.296
77236W        W49551   6.549  27.413  10.881
77237W        W49552  35.665   3.314  12.874
77238W        W49553  23.762  23.003   0.833
77239W        W49554  25.576   1.735   1.572
77240W        W49555  32.627  26.687   0.279
77241W        W49556  14.993  11.727  12.564
77242W        W49557   9.738  22.418  11.103
77243W        W49558  27.486  14.260   1.265
77244W        W49559   1.404  11.068   1.332
77245W        W49560  21.662  17.006   0.722
77246W        W49561  18.226   9.280   3.830
77247W        W49562  22.257  15.551   0.908
77248W        W49563  23.761   4.758   3.313
77249W        W49564  39.321   8.666  13.362
77250W        W49565  18.068  11.037   3.519
77251W        W49566  13.930   8.736   0.765
77252W        W49567   7.441   4.838   2.695
77253W        W49568  43.583  37.143  11.947
77254W        W49569  42.815   7.547  14.297
77255W        W49570  18.311  24.750  13.527
77256W        W49571  27.887  23.004  13.803
77257W        W49572  12.430  36.477  10.785
77258W        W49573   0.815  35.425  10.251
77259W        W49574  25.084  35.571   3.801
77260W        W49575   8.842  10.327   0.358
77261W        W49576  38.088  22.109   0.566
77262W        W49577   6.342  26.214   1.571
77263W        W49578   2.262  29.864   2.446
77264W        W49579   6.765  13.823   0.576
77265W        W49580  20.218  20.537  11.807
77266W        W49581  33.076   0.831  14.099
77267W        W49582   0.542  43.569   3.882
77268W        W49583  17.964  18.679  12.428
77269W        W49584  26.031  43.792   4.798
77270W        W49585  41.313  26.084   1.844
77271W        W49586  26.495  22.592  13.854
77272W        W49587  23.826  42.541   3.713
77273W        W49588  16.187   2.096   4.825
77274W        W49589  35.355  31.668   1.377
77275W        W49590   9.671  35.961  14.258
77276W        W49591  17.861  38.371   9.925
77277W        W49592  33.123  37.576   4.039
77278W        W49593  32.562   1.484   3.951
77279W        W49594  14.763  16.228  14.888
77280W        W49595  43.970   8.902   2.312
77281W        W49596  20.651  14.876  14.032
77282W        W49597  36.027  22.995  12.015
77283W        W49598  12.615  21.617  14.869
77284W        W49599  33.777  29.926  13.608
77285W        W49600  19.434  26.640  13.458
77286W        W49601  25.212  11.213  13.067
77287W        W49602  41.501  11.813   0.362
77288W        W49603  40.242   9.669   1.604
77289W        W49604  21.441   7.280   1.075
77290W        W49605  19.058  28.427   4.825
77291W        W49606  31.046   4.097   3.662
77292W        W49607  27.119  15.220  10.906
77293W        W49608   1.362  29.639   1.818
77294W        W49609   7.381  25.515  11.642
77295W        W49610  34.838   4.829  10.598
77296W        W49611   0.148  28.535   3.783
77297W        W49612  13.149  12.215  12.390
77298W        W49613   8.228  13.179   0.286
77299W        W49614   8.633  40.752  11.502
77300W        W49615  18.414  43.961   2.727
77301W        W49616  31.434  39.475  13.522
77302W        W49617   9.882  41.780   3.685
77303W        W49618  26.428   9.750  13.550
77304W        W49619  35.528   3.201   3.227
77305W        W49620   7.624  37.350   1.855
77306W        W49621  19.346  42.510   3.244
77307W        W49622  22.090  16.055   2.141
77308W        W49623   2.376   1.461   4.873
77309W        W49624  18.060  40.982  14.324
77310W        W49625  42.930  33.468  10.612
77311W        W49626  18.209  11.262   4.524
77312W        W49627  14.121  14.752   0.776
77313W        W49628  31.689  37.614   0.691
77314W        W49629   2.751   3.453  13.653
77315W        W49630  27.002  38.430  13.318
77316W        W49631   0.517   6.788  13.037
77317W        W49632  40.052  39.173  12.859
77318W        W49633  27.871  22.741   1.337
77319W        W49634   9.389   1.861   1.914
77320W        W49635  16.800  25.678  11.515
77321W        W49636   4.900  28.018   3.797
77322W        W49637  21.629  30.278   0.235
77323W        W49638  31.603  25.470   3.321
77324W        W49639  34.527   5.256  10.619
77325W        W49640  15.585  34.476   0.265
77326W        W49641  15.230  23.276  14.810
77327W        W49642  37.410  25.285   3.280
77328W        W49643  26.083  25.198   2.224
77329W        W49644   4.769  23.101   2.368
77330W        W49645  34.348  18.535   4.177
77331W        W49646  12.184  34.153  12.340
77332W        W49647  39.415  21.698   2.375
77333W        W49648   7.731  16.000   3.749
77334W        W49649  15.311   3.789   2.251
77335W        W49650  43.415   4.199   4.585
77336W        W49651  17.609  27.647   4.680
77337W        W49652  15.039  28.661   5.005
77338W        W49653  21.318  31.000  14.316
77339W        W49654  37.570   5.965   4.037
77340W        W49655  15.698  18.887  13.213
77341W        W49656   4.488  43.704  13.028
77342W        W49657   5.726  19.241  12.523
77343W        W49658   4.179  19.667   2.110
77344W        W49659  33.418  34.979  13.837
77345W        W49660   7.848  43.562   1.605
77346W        W49661  31.588  10.104  11.993
77347W        W49662  36.549  14.661   0.226
77348W        W49663  28.611  11.372   4.086
77349W        W49664  14.844  43.962   0.548
77350W        W49665  30.080   2.933   4.724
77351W        W49666  35.810  35.554   4.541
77352W        W49667  25.029  22.594   1.983
77353W        W49668  41.528  24.071  13.934
77354W        W49669  20.098  42.808  12.366
77355W        W49670  39.124  16.374  13.421
77356W        W49671  20.670  32.667   1.248
77357W        W49672  17.187  31.519  11.534
77358W        W49673  32.621   8.250   3.627
77359W        W49674  32.827  11.859  11.685
77360W        W49675  19.030  31.635   0.291
77361W        W49676  39.017   9.527   2.774
77362W        W49677  16.647  21.420   0.782
77363W        W49678  37.304  20.798  13.878
77364W        W49679  33.159  20.761   0.479
77365W        W49680  18.553  22.195   1.524
77366W        W49681  24.675   0.390  10.948
77367W        W49682  11.389   6.827   2.319
77368W        W49683  30.442  31.597   1.338
77369W        W49684   0.276  38.330  12.851
77370W        W49685  21.019  24.873  14.365
77371W        W49686   3.045  40.058   2.713
77372W        W49687  34.355  30.751   4.792
77373W        W49688  25.536  17.901   1.731
77374W        W49689   5.208  23.117   1.462
77375W        W49690  31.752  38.920  13.405
77376W        W49691  11.278  39.063  13.477
77377W        W49692  42.456  30.036  14.482
77378W        W49693   8.720  32.915  10.685
77379W        W49694  15.664  21.744  10.620
77380W        W49695  21.638  20.457  13.808
77381W        W49696  13.630   5.914  12.031
77382W        W49697  24.558   8.655  11.613
77383W        W49698  40.399  26.229   4.631
77384W        W49699  37.914  44.762  11.834
77385W        W49700  30.575  34.919   1.268
77386W        W49701   9.796  19.510   0.478
77387W        W49702   4.096   3.983  13.658
77388W        W49703  37.711  11.017   3.332
77389W        W49704   6.430  29.981  12.040
77390W        W49705  42.566  13.703   2.208
77391W        W49706  12.594  15.168  12.529
77392W        W49707   4.292  44.219  10.193
77393W        W49708   0.899  20.088   2.185
77394W        W49709  27.671  18.221   2.450
77395W        W49710  19.060  10.320  12.983
77396W        W49711   2.111  25.994  11.612
77397W        W49712  14.785  21.129  12.447
77398W        W49713   9.667  24.474   4.207
77399W        W49714   1.397  43.785   0.253
77400W        W49715  31.204  10.683  13.582
77401W        W49716  28.675  12.329  12.807
77402W        W49717  40.449   0.870   0.471
77403W        W49718  17.640  25.311   3.580
77404W        W49719  22.168  33.214  13.045
77405W        W49720  42.433  35.871   4.800
77406W        W49721  20.110   0.497   2.688
77407W        W49722  37.436  11.953  12.629
77408W        W49723   9.692  34.495   3.710
77409W        W49724   3.637  39.008  13.990
77410W        W49725  23.467  37.885  12.486
77411W        W49726  21.296   0.954  11.073
77412W        W49727  31.371  10.174  13.732
77413W        W49728  25.967   7.296  13.730
77414W        W49729  23.284  37.075   1.866
77415W        W49730   0.932  11.889   1.955
77416W        W49731  32.950  33.044   4.259
77417W        W49732  25.093  36.074   3.803
77418W        W49733  20.169  37.384   2.881
77419W        W49734  42.187   8.568   4.796
77420W        W49735  39.765  31.079  11.134
77421W        W49736  36.843  34.132  12.423
77422W        W49737  14.683  38.748   0.393
77423W        W49738   5.260  22.137   3.900
77424W        W49739  17.352  41.014   3.736
77425W        W49740  42.341  20.906  12.561
77426W        W49741   6.278  35.958   2.229
77427W        W49742  42.433  40.514  11.705
77428W        W49743  17.083  14.813  14.837
77429W        W49744  14.123  33.757   1.550
77430W        W49745   1.401  37.777  11.156
77431W        W49746  26.518  17.351   2.019
77432W        W49747  20.514  15.267  14.452
77433W        W49748  34.906   6.431   1.881
77434W        W49749   8.032  10.790  12.268
77435W        W49750  34.253  44.287   0.788
77436W        W49751  32.334  30.509  14.111
77437W        W49752  25.549  22.711  14.902
77438W        W49753  22.002  27.704   4.044
77439W        W49754  18.085  10.757  13.647
77440W        W49755  36.476   3.235   0.733
77441W        W49756  24.488  13.795   4.708
77442W        W49757  39.643  10.877   3.922
77443W        W49758   8.871  24.447   3.252
77444W        W49759  26.645  17.229   4.148
77445W        W49760  43.904  11.356   3.397
77446W        W49761  24.814  30.469  12.159
77447W        W49762  30.928   9.877  12.056
77448W        W49763  38.027  38.895  14.288
77449W        W49764  21.971  28.440  11.908
77450W        W49765  11.208   5.891   4.096
77451W        W49766   7.928  31.202   4.182
77452W        W49767  26.157  23.092   0.410
77453W        W49768   7.375  15.996  13.023
77454W        W49769  25.547   4.496  13.407
77455W        W49770  14.429  12.810  12.861
77456W        W49771  36.645  26.154  12.282
77457W        W49772  30.233  29.365  12.865
77458W        W49773  16.400  26.172   4.612
77459W        W49774  37.235  24.345  10.058
77460W        W49775  18.481  32.044  14.154
77461W        W49776  21.378  42.605  14.040
77462W        W49777  17.142  21.789   4.183
77463W        W49778   6.647   6.173  11.444
77464W        W49779   3.407  21.970  12.480
77465W        W49780  14.176  37.484  14.513
77466W        W49781   8.243   3.525   4.349
77467W        W49782   6.728  11.717   9.814
77468W        W49783   7.707  41.464   4.508
77469W        W49784  10.373   4.846  12.963
77470W        W49785  21.708   2.977   4.173
77471W        W49786  26.941  15.011   0.485
77472W        W49787  19.377  44.700   4.381
77473W        W49788  25.519  25.217  14.962
77474W        W49789   1.003  24.609   1.715
77475W        W49790  38.760  34.908   1.277
77476W        W49791  42.921  39.936  13.780
77477W        W49792  23.070  27.937  14.443
77478W        W49793  28.009   6.191   5.598
77479W        W49794  20.911  33.044   2.601
77480W        W49795  31.202  12.138   0.227
77481W        W49796   4.730  27.903  10.609
77482W        W49797  34.057   9.192   3.615
77483W        W49798  37.787  14.663   1.371
77484W        W49799  14.504  14.186   4.637
77485W        W49800  24.522  26.804  11.246
77486W        W49801   9.771  21.035   4.579
77487W        W49802  20.619  19.913   3.825
77488W        W49803  38.048  14.182  11.937
77489W        W49804  41.016   1.933   3.255
77490W        W49805  36.402  33.389  10.573
77491W        W49806  42.945  23.292   0.929
77492W        W49807  21.745   1.375  13.152
77493W        W49808  30.432   7.894  14.552
77494W        W49809   5.768  21.088   2.789
77495W        W49810  39.801  25.558  11.560
77496W        W49811  32.660  19.009   2.900
77497W        W49812  19.164  29.179   3.142
77498W        W49813  35.916  34.037   3.701
77499W        W49814  37.122   6.855  13.404
77500W        W49815  39.756   4.241  12.869
77501W        W49816  33.982  19.199  12.865
77502W        W49817   2.478  39.432  14.529
77503W        W49818  11.846  42.207   0.897
77504W        W49819  28.379  41.077   4.005
77505W        W49820   5.370  10.711   0.658
77506W        W49821  44.924  23.997   2.747
77507W        W49822  35.398   1.295  13.033
77508W        W49823  25.553   6.275   0.780
77509W        W49824  12.340   8.254   0.337
77510W        W49825  11.205  11.892   1.350
77511W        W49826  14.443  18.020  12.952
77512W        W49827  33.442  12.836  12.968
77513W        W49828   9.700  38.103   3.445
77514W        W49829  29.139   2.854   0.939
77515W        W49830  37.889  25.618  11.897
77516W        W49831  31.123  43.025   0.314
77517W        W49832  30.328  13.833   3.132
77518W        W49833  40.863  38.831  11.391
77519W        W49834  38.273  14.133   3.336
77520W        W49835  33.978  37.893  14.964
77521W        W49836  32.399  25.574  12.718
77522W        W49837  41.453  32.676  10.604
77523W        W49838  42.001  29.575  12.050
77524W        W49839  39.487  20.482  12.505
77525W        W49840  20.523  34.458  11.848
77526W        W49841  20.847  32.310  13.671
77527W        W49842  27.005   8.729  10.709
77528W        W49843   4.680  36.482   0.369
77529W        W49844  28.462   0.863  14.589
77530W        W49845  35.153   6.732  11.669
77531W        W49846   9.894  16.815   4.760
77532W        W49847  13.302   2.436  11.968
77533W        W49848   7.837  43.002   0.886
77534W        W49849  16.599  41.849   3.783
77535W        W49850  41.568   2.055  12.493
77536W        W49851  10.144  36.898  13.352
77537W        W49852  31.171  43.933   1.892
77538W        W49853  32.475  41.574   2.835
77539W        W49854   2.248  39.906  11.577
77540W        W49855  28.210  40.591   3.299
77541W        W49856   2.759  12.180   2.466
77542W        W49857   3.406  38.824  13.246
77543W        W49858  16.441  24.924   4.623
77544W        W49859   7.369  24.246   4.112
77545W        W49860  22.124   0.486   0.227
77546W        W49861  35.420  12.081  14.721
77547W        W49862  15.575  14.314  14.010
77548W        W49863  36.299  21.239  13.740
77549W        W49864   2.658  39.409  12.768
77550W        W49865   3.187  27.689  10.660
77551W        W49866  11.769   5.561   3.705
77552W        W49867  21.679  27.944   2.727
77553W        W49868  38.106  38.067  14.955
77554W        W49869   2.439  43.358  13.261
77555W        W49870   5.672  38.247   0.261
77556W        W49871  18.326  25.671  11.056
77557W        W49872  10.382  11.785   2.446
77558W        W49873  31.878   1.479  13.503
77559W        W49874  37.078  34.191   2.883
77560W        W49875  22.149  34.586  14.900
77561W        W49876  27.844  34.075   4.499
77562W        W49877  13.294  22.369   3.632
77563W        W49878  10.368  25.201   3.661
77564W        W49879   8.171   9.120  14.647
77565W        W49880  37.844  26.110  11.118
77566W        W49881  37.906   3.142  11.743
77567W        W49882  44.744  14.240  10.681
77568W        W49883  26.967   1.857  13.899
77569W        W49884   3.117  14.468   2.603
77570W        W49885  36.310  26.300   0.552
77571W        W49886  12.876  17.402  10.244
77572W        W49887  23.688  34.594  14.418
77573W        W49888  41.328  16.459   3.534
77574W        W49889  32.236  15.684   0.801
77575W        W49890  17.044   9.250  12.794
77576W        W49891  13.434  30.435   2.361
77577W        W49892   6.932  12.340   2.363
77578W        W49893  21.772  23.843   2.318
77579W        W49894  38.346   0.306  11.483
77580W        W49895  44.317   6.348   3.709
77581W        W49896  26.943   0.568   0.367
77582W        W49897  28.143   7.670  14.339
77583W        W49898  32.136  42.843   0.333
77584W        W49899  41.891  33.440   4.508
77585W        W49900  34.449   9.387  13.363
77586W        W49901  28.896  23.559  14.248
77587W        W49902  32.877  35.044  11.999
77588W        W49903  18.054  12.201   4.101
77589W        W49904  24.153  30.623  10.267
77590W        W49905   7.864  11.924  13.117
77591W        W49906  39.633   0.665  11.532
77592W        W49907  43.095  24.912   0.474
77593W        W49908  36.645   6.371  12.718
77594W        W49909  11.300  16.105  11.445
77595W        W49910  25.344  41.896   4.290
77596W        W49911  16.956  31.348  11.991
77597W        W49912  34.149  26.961   1.667
77598W        W49913  11.074  23.738  11.193
77599W        W49914  29.436  25.597   3.520
77600W        W49915   9.417  36.385  12.004
77601W        W49916  36.766  31.580   2.327
77602W        W49917  13.941  28.083  13.152
77603W        W49918  22.022  26.713  11.074
77604W        W49919  44.812  43.283   3.188
77605W        W49920  12.689   1.773  12.000
77606W        W49921  37.366   2.930  14.858
77607W        W49922  11.148   9.705   4.457
77608W        W49923  22.997  33.521   0.269
77609W        W49924  21.489  25.306   5.017
77610W        W49925  26.854  17.389  12.784
77611W        W49926  24.535  24.039   3.755
77612W        W49927   6.766   7.961  12.462
77613W        W49928  33.116  43.452   0.839
77614W        W49929   4.918  42.135  14.950
77615W        W49930   8.446  44.706  14.973
77616W        W49931   3.178  28.641   1.489
77617W        W49932   1.916  18.644  10.677
77618W        W49933   4.800  12.790   3.002
77619W        W49934   3.518  33.106  14.830
77620W        W49935  11.347  42.453   3.882
77621W        W49936  43.271  38.074  13.867
77622W        W49937  44.424  10.795  12.992
77623W        W49938  42.967  27.781   3.179
77624W        W49939  38.549  10.869  13.853
77625W        W49940   5.150  20.658   0.209
77626W        W49941  33.947   5.919   1.867
77627W        W49942  19.838  36.629  13.745
77628W        W49943   6.403  10.546   0.349
77629W        W49944   9.342  33.335   4.429
77630W        W49945  18.724   3.756   4.553
77631W        W49946  28.539   9.534  14.527
77632W        W49947  23.212   0.693  10.966
77633W        W49948  42.352  36.648   4.290
77634W        W49949  44.960  44.489  11.553
77635W        W49950  22.210   5.112   1.498
77636W        W49951  14.838  11.262  10.719
77637W        W49952  19.227  43.500  13.042
77638W        W49953  38.036  24.023   2.904
77639W        W49954  40.517   5.440   4.842
77640W        W49955  25.054  26.052   3.328
77641W        W49956  17.697  38.027  12.578
77642W        W49957  37.788   9.912  11.246
77643W        W49958   0.902  16.017  10.475
77644W        W49959  36.437  36.850  10.721
77645W        W49960  29.078   8.685  14.080
77646W        W49961  18.972   7.408   0.106
77647W        W49962  23.709  44.612  11.108
77648W        W49963  37.281  19.993  13.490
77649W        W49964  17.307  29.030  12.227
77650W        W49965  10.862  43.392   0.756
77651W        W49966  21.736   8.637   4.169
77652W        W49967  20.684  35.850  10.640
77653W        W49968  24.500  43.838  12.981
77654W        W49969  20.534  19.214  14.979
77655W        W49970  27.504  41.334   0.750
77656W        W49971  19.270   8.992   3.151
77657W        W49972  26.002  40.623   3.873
77658W        W49973  10.789  25.735   1.195
77659W        W49974  21.820  18.803  11.787
77660W        W49975   7.606  19.240   4.340
77661W        W49976  18.019  42.986  12.730
77662W        W49977   2.491  12.622  12.854
77663W        W49978  26.304  17.163  11.972
77664W        W49979  36.330  40.046  11.299
77665W        W49980  26.877  10.886  14.281
77666W        W49981  33.454  23.115   1.435
77667W        W49982  30.951  12.875  14.874
77668W        W49983  42.864  38.991   2.777
77669W        W49984  40.482  27.553   0.932
77670W        W49985  19.080  33.548   3.298
77671W        W49986   8.440   6.752   1.380
77672W        W49987  29.951  14.651   3.786
77673W        W49988   7.836   5.196  11.249
77674W        W49989  42.787  14.011   4.501
77675W        W49990  34.552  41.777   0.528
77676W        W49991   0.282   0.796   0.840
77677W        W49992  21.351  24.623   3.876
77678W        W49993   8.808   9.712  13.738
77679W        W49994  30.078  32.324  11.046
77680W        W49995  15.440  17.820   2.641
77681W        W49996  42.250  32.397  13.290
77682W        W49997   5.346  34.366   4.156
77683W        W49998  35.473  35.858   0.742
77684W        W49999   2.426  24.229  13.042
77685W        W50000  13.635  34.968  11.853
77686W        W50001  23.851  17.971  11.343
77687W        W50002  30.659  36.688   4.095
77688W        W50003   5.054  21.779  13.006
77689W        W50004   1.350  19.960  11.191
77690W        W50005  40.970  43.601  10.591
77691W        W50006  11.209  20.210  10.621
77692W        W50007  11.787  17.157  11.037
77693W        W50008  36.009  35.995  12.834
77694W        W50009  13.380  38.936   0.211
77695W        W50010  35.752  33.548   3.667
77696W        W50011   6.429  28.749   1.174
77697W        W50012  12.600  40.108  12.430
77698W        W50013  38.581  32.040   0.315
77699W        W50014  36.543   9.972   0.080
77700W        W50015  20.112  16.202   3.872
77701W        W50016  38.275   2.223  12.969
77702W        W50017  38.827  39.326   2.749
77703W        W50018  25.480  26.235  11.613
77704W        W50019   6.024  14.191  10.513
77705W        W50020   3.654   3.433   5.152
77706W        W50021  34.053  36.600   0.459
77707W        W50022  16.543  31.655  11.868
77708W        W50023  22.158  44.405   4.716
77709W        W50024  33.541  33.951  13.197
77710W        W50025  25.530  37.897   0.990
77711W        W50026  24.484  22.709  11.503
77712W        W50027   7.464   0.712  14.948
77713W        W50028   0.727  15.378  13.270
77714W        W50029  20.760  16.271  13.485
77715W        W50030  19.041  17.300  13.939
77716W        W50031  21.467  26.015  14.814
77717W        W50032  32.079  36.837   2.704
77718W        W50033  19.502   1.881   1.240
77719W        W50034   6.783   4.185  14.946
77720W        W50035  15.053  22.586   1.297
77721W        W50036   9.410   8.374   2.708
77722W        W50037  11.860  41.219   3.963
77723W        W50038   4.332  35.549  12.350
77724W        W50039  12.207  18.754   3.679
77725W        W50040  42.795  32.089  13.202
77726W        W50041  38.923  22.149   2.923
77727W        W50042  28.716  17.869   1.238
77728W        W50043  32.042  10.568  13.816
77729W        W50044  40.298  25.416  10.805
77730W        W50045   9.160  36.483  10.732
77731W        W50046  28.105   6.790   2.337
77732W        W50047  29.388  35.481  10.493
77733W        W50048  41.332   5.339   1.392
77734W        W50049  37.327  26.179  11.050
77735W        W50050  11.873  27.694  13.922
77736W        W50051  34.989   0.306   2.280
77737W        W50052  42.966   2.683   0.965
77738W        W50053  42.498  12.151   2.814
77739W        W50054  31.026  44.434   0.755
77740W        W50055  37.601  30.926  13.962
77741W        W50056   8.995  12.462  13.293
77742W        W50057  44.679  14.776  11.616
77743W        W50058  21.961  17.732  12.048
77744W        W50059  14.588   2.940  10.798
77745W        W50060  19.120  23.720  14.807
77746W        W50061  17.364  21.661  14.328
77747W        W50062   9.126  24.189  14.939
77748W        W50063  17.888  25.002  12.512
77749W        W50064  36.568  14.214  10.610
77750W        W50065   9.364  35.511  13.825
77751W        W50066  32.376   2.609  11.053
77752W        W50067  31.068   2.928   1.629
77753W        W50068  32.027  35.712   0.359
77754W        W50069  16.636  29.318  10.701
77755W        W50070  29.499  16.794  13.479
77756W        W50071  32.024  40.044   0.448
77757W        W50072  20.944  37.827   0.133
77758W        W50073  40.441  35.988  14.332
77759W        W50074  18.691   6.807  12.971
77760W        W50075  44.830   0.504   2.800
77761W        W50076   7.437  27.525  11.129
77762W        W50077  31.366  16.024  14.952
77763W        W50078  25.510   7.187   4.157
77764W        W50079  14.199  44.020  14.134
77765W        W50080  39.705  19.725   1.445
77766W        W50081   9.787  39.948  10.422
77767W        W50082   1.216  22.628  14.471
77768W        W50083  39.063  37.451   1.739
77769W        W50084  15.664   3.729  12.469
77770W        W50085  28.236  20.703  14.408
77771W        W50086  43.191  43.707   2.573
77772W        W50087  22.330  26.776  12.370
77773W        W50088   3.196  29.798   0.754
77774W        W50089  42.184  24.799  10.069
77775W        W50090  30.468  42.568   2.897
77776W        W50091  17.923  22.743   0.928
77777W        W50092  12.320  25.730  11.713
77778W        W50093   6.771  21.892  13.904
77779W        W50094  32.190  43.810  14.035
77780W        W50095  37.031  42.933   2.688
77781W        W50096   5.115  35.596  11.591
77782W        W50097  41.988  35.316  13.389
77783W        W50098   1.383  18.907   0.413
77784W        W50099   7.892  17.526   3.719
77785W        W50100  44.448  31.980  13.423
77786W        W50101  18.985  22.510  12.023
77787W        W50102  24.298   9.626  14.242
77788W        W50103   4.630  36.659  11.171
77789W        W50104  19.083  28.933   4.593
77790W        W50105   5.396  27.775  13.928
77791W        W50106  24.179  27.322  11.748
77792W        W50107  38.518  36.936  13.238
77793W        W50108   4.832  14.668   1.733
77794W        W50109  20.217  22.933   5.067
77795W        W50110  42.756  18.242   4.070
77796W        W50111  25.665  28.071  11.136
77797W        W50112  38.024  16.015   1.240
77798W        W50113  21.384  25.483  11.067
77799W        W50114   0.767  11.426   2.783
77800W        W50115  17.679  14.345  11.030
77801W        W50116  37.622  21.036   4.558
77802W        W50117  31.428  17.063  10.681
77803W        W50118  13.839  42.836   4.129
77804W        W50119  19.065  15.743   1.957
77805W        W50120  35.773  33.006   2.645
77806W        W50121  14.210  35.643   1.869
77807W        W50122  41.015  35.172  14.031
77808W        W50123   2.134  21.362   3.079
77809W        W50124   8.118   3.946   1.703
77810W        W50125   3.760  32.842   4.691
77811W        W50126  25.615   1.345   3.779
77812W        W50127   9.979  14.806   0.266
77813W        W50128  11.832   4.590  11.529
77814W        W50129  27.215  21.655   4.462
77815W        W50130  39.367  21.635   0.355
77816W        W50131  25.166   8.635  10.321
77817W        W50132  29.212  32.170  10.270
77818W        W50133  18.787   8.564   3.768
77819W        W50134  44.703   2.014   3.706
77820W        W50135  15.244  35.847  11.111
77821W        W50136   5.283  28.903   0.774
77822W        W50137  16.597  16.093  14.232
77823W        W50138  24.686  25.646   3.320
77824W        W50139  37.385   2.912  13.791
77825W        W50140  40.776   1.584  14.155
77826W        W50141  26.218   6.707   1.990
77827W        W50142  36.862  35.136   0.920
77828W        W50143  18.142  22.458  10.637
77829W        W50144  38.345  17.317   1.879
77830W        W50145  14.082  35.218  11.527
77831W        W50146  13.141  34.916  11.720
77832W        W50147  34.711  30.486  10.488
77833W        W50148  13.196   5.716  11.768
77834W        W50149  28.847   8.468  13.559
77835W        W50150   9.050   4.486   0.061
77836W        W50151   9.464  12.587  14.000
77837W        W50152  16.487  42.463   1.823
77838W        W50153  43.831  14.081   1.354
77839W        W50154  22.599  10.604  13.490
77840W        W50155  26.473  31.645   1.710
77841W        W50156  43.341  22.032  12.027
77842W        W50157  36.043  38.182   1.986
77843W        W50158   9.648  41.503  14.392
77844W        W50159  29.917  35.638   2.180
77845W        W50160   0.245   2.740   1.920
77846W        W50161   9.129  38.038  13.496
77847W        W50162  30.213  27.578   1.759
77848W        W50163  43.332  35.156   2.713
77849W        W50164   7.770  36.161   2.274
77850W        W50165   1.346   2.284  12.406
77851W        W50166   8.696  28.184  11.829
77852W        W50167   0.804  41.594  12.083
77853W        W50168  13.141  32.624  12.429
77854W        W50169  27.730  24.298   2.673
77855W        W50170  21.254   4.377  12.271
77856W        W50171  36.885  24.039   0.369
77857W        W50172  25.750  38.460   4.234
77858W        W50173  17.867  20.067   3.757
77859W        W50174   7.789  40.638   0.467
77860W        W50175   2.859  44.943   1.331
77861W        W50176  44.870  27.091   4.673
77862W        W50177   4.791  33.266   1.106
77863W        W50178  28.026   3.523   0.856
77864W        W50179  42.952  12.453  11.184
77865W        W50180  24.994  14.743   3.203
77866W        W50181  33.305  42.468   1.652
77867W        W50182   1.045  18.379   3.624
77868W        W50183  23.651  23.625   4.300
77869W        W50184  22.513  28.671  11.999
77870W        W50185   8.639  37.039   4.256
77871W        W50186  19.873  31.846  10.401
77872W        W50187  14.613  37.261   1.328
77873W        W50188  16.276  32.007  13.586
77874W        W50189  28.402  28.428   2.828
77875W        W50190  30.538   2.612  13.995
77876W        W50191   7.657   6.701  11.637
77877W        W50192  41.545  17.989  13.501
77878W        W50193   0.182  18.265   3.224
77879W        W50194  15.262  22.320  12.071
77880W        W50195  32.558   6.138   0.437
77881W        W50196  27.674  14.796  11.085
77882W        W50197  24.557  15.110   1.134
77883W        W50198  16.756  21.877   4.948
77884W        W50199  14.135  41.902   0.205
77885W        W50200  29.325  39.586  14.954
77886W        W50201  10.592   7.823  12.957
77887W        W50202  11.528   9.381  11.595
77888W        W50203  27.594  13.805  11.969
77889W        W50204  40.382  16.223  12.870
77890W        W50205  17.601  39.056   2.252
77891W        W50206  13.923  26.795  12.605
77892W        W50207   2.994  37.468   0.088
77893W        W50208  21.650   7.857   4.821
77894W        W50209  42.594  16.478   2.354
77895W        W50210  37.834  28.876  11.208
77896W        W50211  29.482  19.148   1.195
77897W        W50212   0.754  10.760   0.371
77898W        W50213  18.174  22.001  11.494
77899W        W50214  31.332  28.932   4.106
77900W        W50215   5.130  24.533   2.835
77901W        W50216  42.277  32.557   2.255
77902W        W50217  31.888  11.154  12.435
77903W        W50218  24.669  30.861  10.649
77904W        W50219   3.979  38.839   1.321
77905W        W50220   5.119  37.841   2.869
77906W        W50221  30.502  33.497   3.240
77907W        W50222  34.536  24.310   4.881
77908W        W50223  42.275  24.534  12.429
77909W        W50224   7.921   8.628  11.231
77910W        W50225  43.359   3.012   2.671
77911W        W50226   1.290  31.340  14.441
77912W        W50227  15.359  43.923  13.945
77913W        W50228  22.614  27.228   4.020
77914W        W50229  34.978   2.828   1.113
77915W        W50230  26.949  43.950  14.377
77916W        W50231  19.525  44.843   1.976
77917W        W50232  23.708  14.643   3.749
77918W        W50233   8.142  15.560   4.569
77919W        W50234  39.100  27.661  14.694
77920W        W50235  20.055  26.166  14.780
77921W        W50236   4.285  34.597  11.981
77922W        W50237  26.211  20.239   2.614
77923W        W50238  37.429  40.437   4.276
77924W        W50239  29.496   1.219  10.812
77925W        W50240  37.316  17.837  12.047
77926W        W50241  39.927   1.529   3.821
77927W        W50242  22.747  19.700   0.198
77928W        W50243  36.036   2.899  13.240
77929W        W50244  17.715  31.687  14.184
77930W        W50245  16.426  44.893   1.349
77931W        W50246  30.971  25.309   3.105
77932W        W50247  37.116  26.011  10.596
77933W        W50248  17.280  30.406   5.383
77934W        W50249  41.241  10.143  11.817
77935W        W50250  38.450  42.917  10.959
77936W        W50251  25.065  44.816  11.838
77937W        W50252  25.622  11.191   3.149
77938W        W50253  38.366  22.161  12.536
77939W        W50254  15.126  27.457   0.886
77940W        W50255  41.285  40.458  14.877
77941W        W50256   9.008  18.087  10.214
77942W        W50257  30.697  22.606  13.798
77943W        W50258  21.184  17.022  12.055
77944W        W50259  17.356  41.917  12.039
77945W        W50260  40.551  29.725  12.069
77946W        W50261  36.004  24.954   0.269
77947W        W50262   9.174  29.622   2.691
77948W        W50263   0.101   8.797   2.028
77949W        W50264  38.121   9.246   2.169
77950W        W50265   6.709   2.910  13.964
77951W        W50266  27.471   7.122   0.318
77952W        W50267  27.517  31.690   1.520
77953W        W50268   0.274   2.205  10.639
77954W        W50269   4.286  36.390   4.660
77955W        W50270  26.767   7.244   0.855
77956W        W50271  32.637  35.575   1.494
77957W        W50272  39.271   9.797  10.643
77958W        W50273   4.351  38.747   2.180
77959W        W50274   3.829  16.815   1.758
77960W        W50275  21.998  34.501   2.450
77961W        W50276   6.109  13.652  12.159
77962W        W50277  18.027  35.003  11.563
77963W        W50278  26.288  25.862   1.192
77964W        W50279  34.593  12.205   2.168
77965W        W50280   6.794   5.526   3.557
77966W        W50281  14.583  36.950  14.808
77967W        W50282  44.273   7.263   2.786
77968W        W50283  35.377   1.855   5.177
77969W        W50284  20.743  42.087   0.529
77970W        W50285  17.153   6.310   5.212
77971W        W50286   6.176  40.891   4.335
77972W        W50287  40.318  22.047   2.754
77973W        W50288  13.622  18.760  11.089
77974W        W50289  30.138   9.161   3.942
77975W        W50290  31.047  12.621   0.346
77976W        W50291   5.363  12.226  12.194
77977W        W50292  14.589  42.596  13.016
77978W        W50293  25.001  36.332  13.774
77979W        W50294  22.195   4.684   2.828
77980W        W50295  15.278  12.888   4.264
77981W        W50296  31.503   9.177  13.587
77982W        W50297  17.840   2.029   4.530
77983W        W50298  18.657  42.342   4.386
77984W        W50299   3.156  30.086   2.017
77985W        W50300  22.235  29.037   0.667
77986W        W50301  26.177  33.992  14.924
77987W        W50302   4.105  19.697   1.225
77988W        W50303  25.580  31.661   3.199
77989W        W50304   0.777  25.048   2.710
77990W        W50305  31.914  35.457  12.684
77991W        W50306  24.566   3.817  12.471
77992W        W50307  29.023  12.347   2.778
77993W        W50308  10.106  24.158   1.063
77994W        W50309  31.616  43.033  12.096
77995W        W50310   2.697  30.213  14.190
77996W        W50311  14.723   5.415   3.603
77997W        W50312   1.949  31.733  12.993
77998W        W50313  14.478  29.019   3.488
77999W        W50314   4.856   2.959  10.764
78000W        W50315  29.621  11.674   4.166
78001W        W50316   3.982  44.365   1.330
78002W        W50317   0.963  37.120   4.226
78003W        W50318  36.657  38.992   3.813
78004W        W50319   5.730  26.394   5.036
78005W        W50320  30.529  15.351   1.334
78006W        W50321  14.810  15.117   2.277
78007W        W50322  20.668  32.558   2.666
78008W        W50323  39.277  31.080   1.195
78009W        W50324  22.629  14.765   2.882
78010W        W50325  12.888  16.316  14.934
78011W        W50326  29.856   7.767   3.546
78012W        W50327  26.438  19.194  14.560
78013W        W50328  24.697  26.586   1.309
78014W        W50329  14.352  25.232   3.117
78015W        W50330  16.998   0.913  10.689
78016W        W50331   6.195   2.006   0.460
78017W        W50332  15.390  10.506   3.188
78018W        W50333  40.728   3.301  12.491
78019W        W50334   4.740  30.098  14.257
78020W        W50335  21.011   5.259  13.005
78021W        W50336  10.634  11.219   0.284
78022W        W50337   7.707   8.732   1.916
78023W        W50338  25.098  42.983  14.956
78024W        W50339  23.781  15.675  14.144
78025W        W50340   4.457  37.543   4.219
78026W        W50341  33.381  18.531   0.695
78027W        W50342  11.796  31.922   2.105
78028W        W50343   2.203  38.400  13.014
78029W        W50344  16.131   3.538  12.470
78030W        W50345  43.592  29.684   1.585
78031W        W50346  37.533  12.467  12.627
78032W        W50347  30.530  22.170  13.498
78033W        W50348  35.146  38.377  14.976
78034W        W50349  39.335  26.695  14.250
78035W        W50350   8.228   6.305  14.346
78036W        W50351  11.666  44.201   3.157
78037W        W50352  31.309  33.969  11.496
78038W        W50353  33.096  32.154   3.599
78039W        W50354  30.073   3.849  13.273
78040W        W50355  19.715   6.997   0.780
78041W        W50356  16.455  37.218   3.708
78042W        W50357  38.126  28.863  11.658
78043W        W50358  19.738  14.330  13.854
78044W        W50359  22.058  20.317  13.054
78045W        W50360  44.137  22.779  11.762
78046W        W50361  19.750  12.213  14.052
78047W        W50362  12.583   6.681  14.312
78048W        W50363  35.089  22.959   1.330
78049W        W50364  14.003  14.296  11.092
78050W        W50365   1.929   3.042   4.132
78051W        W50366  26.445  14.898  13.400
78052W        W50367  31.023  24.685  10.586
78053W        W50368   0.802  31.368   0.698
78054W        W50369   2.371  24.470   1.919
78055W        W50370   4.906  11.340  11.576
78056W        W50371  44.088  40.363   1.218
78057W        W50372  40.583  26.741   4.550
78058W        W50373  22.634  35.975  11.836
78059W        W50374  42.570  35.962   1.755
78060W        W50375   6.261  42.346  13.036
78061W        W50376  43.785  11.691  13.797
78062W        W50377  33.436  33.940   2.293
78063W        W50378  11.912  34.004   1.280
78064W        W50379  16.063  36.658   0.478
78065W        W50380  34.891  40.161   3.611
78066W        W50381   2.795  32.677   2.972
78067W        W50382  25.527   3.376   1.928
78068W        W50383   5.718  18.023  12.884
78069W        W50384  16.631  26.331  12.288
78070W        W50385  33.861  15.566  11.595
78071W        W50386  39.494  15.377   1.538
78072W        W50387   3.391  30.064   1.543
78073W        W50388  31.178  10.553   4.168
78074W        W50389  29.695   0.378  12.566
78075W        W50390  20.698  23.435   4.552
78076W        W50391  11.810  30.536  14.799
78077W        W50392  15.754  44.076   0.055
78078W        W50393  14.828   6.791   1.848
78079W        W50394  36.092   5.358   0.552
78080W        W50395   7.253   8.843  14.991
78081W        W50396   5.205  38.924  13.027
78082W        W50397  13.096   4.617  12.894
78083W        W50398   0.144   8.687   0.964
78084W        W50399  40.728   3.219   2.194
78085W        W50400  35.985  10.580   0.452
78086W        W50401  18.254  26.437   2.325
78087W        W50402  41.842   4.913  13.313
78088W        W50403   0.214  29.633  13.961
78089W        W50404   5.357  43.498  14.020
78090W        W50405   6.178  42.037   0.970
78091W        W50406  14.527   7.254   2.634
78092W        W50407  15.912  31.007  10.487
78093W        W50408  12.160  39.321  10.394
78094W        W50409  24.675  27.576   2.297
78095W        W50410  11.785  25.965   1.263
78096W        W50411  44.364  27.617  13.983
78097W        W50412  40.828  19.622  13.627
78098W        W50413  16.020   5.963  14.026
78099W        W50414  24.177  23.152  13.937
78100W        W50415   5.749  42.343  12.987
78101W        W50416   8.618  14.977  12.278
78102W        W50417  19.127   4.867  14.214
78103W        W50418  38.823  32.205  13.495
78104W        W50419  33.937  42.505   4.358
78105W        W50420   0.841  34.833  12.316
78106W        W50421  35.722  23.580   3.908
78107W        W50422  36.615   1.981  11.200
78108W        W50423  33.448  14.116   3.304
78109W        W50424  14.617  31.329   4.335
78110W        W50425  30.991  20.089  14.780
78111W        W50426  25.839  33.872   3.780
78112W        W50427   5.132   6.846   0.926
78113W        W50428  10.891  34.046   1.220
78114W        W50429  38.894  11.879   4.273
78115W        W50430  40.999   0.079  14.833
78116W        W50431  42.494   1.503   4.467
78117W        W50432  42.730  28.487   0.301
78118W        W50433  42.081  38.699   4.125
78119W        W50434  22.081  41.806  12.811
78120W        W50435  33.856  41.088   3.591
78121W        W50436  22.986  32.670  11.605
78122W        W50437  35.918  39.252   4.065
78123W        W50438   1.238  21.705   2.245
78124W        W50439  26.813  37.269   1.108
78125W        W50440  44.019  10.836  14.793
78126W        W50441  26.104  32.011   3.932
78127W        W50442  36.235  23.701   3.806
78128W        W50443  31.915  42.399  10.661
78129W        W50444  32.505  23.171  13.954
78130W        W50445  23.408   2.559   2.785
78131W        W50446  36.511  17.171   2.461
78132W        W50447   5.908   9.226   4.103
78133W        W50448  37.510   4.822  14.016
78134W        W50449   9.178  33.157  10.644
78135W        W50450   7.402  21.988   2.991
78136W        W50451  15.049  30.167   1.063
78137W        W50452  34.974   1.227   2.680
78138W        W50453  11.607  12.112   0.675
78139W        W50454  13.052  17.288   1.760
78140W        W50455  40.599  44.839  10.727
78141W        W50456   8.920   1.449   4.855
78142W        W50457  26.017  13.123  11.159
78143W        W50458  44.759  38.707  12.625
78144W        W50459  34.561  17.102   3.773
78145W        W50460   7.737   8.134  12.842
78146W        W50461  37.339  21.454   3.773
78147W        W50462  37.449  35.111   1.777
78148W        W50463  18.186  33.119  10.695
78149W        W50464  40.730  17.077   1.705
78150W        W50465  40.587  40.508   2.247
78151W        W50466  25.636  16.016   2.916
78152W        W50467  41.565  26.263   2.273
78153W        W50468  12.971   5.167  12.561
78154W        W50469   6.041   3.476   0.908
78155W        W50470  24.530  30.588   2.373
78156W        W50471  36.134  13.674   0.225
78157W        W50472   7.986  27.869  14.516
78158W        W50473  30.376  22.144  13.979
78159W        W50474  12.661  21.571   4.257
78160W        W50475  29.919  44.907   2.228
78161W        W50476   4.753  19.503  14.454
78162W        W50477  24.153  29.731  13.838
78163W        W50478  23.472  41.904   4.452
78164W        W50479  25.846  29.733   3.899
78165W        W50480  30.449  11.904  12.445
78166W        W50481   6.057  44.955   3.134
78167W        W50482  39.314  39.825   0.032
78168W        W50483  43.683  23.570   1.976
78169W        W50484  18.846  29.475   4.217
78170W        W50485  42.902   8.965   3.267
78171W        W50486  34.878   4.486  10.995
78172W        W50487  26.135   6.863   5.502
78173W        W50488  18.810  14.186   2.896
78174W        W50489  41.533   9.436   4.247
78175W        W50490  19.755  12.307  12.329
78176W        W50491  42.588   6.551  12.353
78177W        W50492  31.388  42.424   0.286
78178W        W50493   7.911  41.011  13.491
78179W        W50494  25.043  27.609  13.065
78180W        W50495  39.992  27.073  14.880
78181W        W50496  18.963   8.550  13.418
78182W        W50497  38.300  20.988   4.098
78183W        W50498  21.408   6.464  13.302
78184W        W50499  21.068  37.584   2.834
78185W        W50500  41.450   2.416   0.269
78186W        W50501   2.277  30.444  14.032
78187W        W50502  20.785  44.500  11.124
78188W        W50503  17.700  16.980   2.870
78189W        W50504  44.737  10.113   4.215
78190W        W50505  32.489   2.964  14.721
78191W        W50506  15.239  17.127  14.373
78192W        W50507  20.085  31.813  14.351
78193W        W50508  23.951   4.429   2.227
78194W        W50509  13.856  20.823  12.131
78195W        W50510   7.598  43.144   1.828
78196W        W50511  14.297   2.200   1.967
78197W        W50512   4.752  28.715  14.525
78198W        W50513   3.306   2.851  13.283
78199W        W50514  28.631  23.245  12.770
78200W        W50515  15.188   0.966  13.958
78201W        W50516  13.718  24.719   1.645
78202W        W50517  39.366   3.285  12.885
78203W        W50518  33.266  39.958  12.508
78204W        W50519  27.518  34.745  13.904
78205W        W50520   7.289  21.900  12.471
78206W        W50521  40.396  20.648   2.719
78207W        W50522  42.478   6.685  10.565
78208W        W50523  22.732  40.257  12.366
78209W        W50524  13.163  25.055  13.998
78210W        W50525  31.126  40.102  12.929
78211W        W50526   5.950  41.862  13.005
78212W        W50527  35.374  28.356  11.068
78213W        W50528   5.970   0.352   2.811
78214W        W50529  29.555  10.676   1.743
78215W        W50530  35.410  17.066  13.404
78216W        W50531  41.480  12.488  12.755
78217W        W50532  14.547  19.269   4.899
78218W        W50533  42.999  11.129   0.737
78219W        W50534  22.270   9.340   0.245
78220W        W50535  33.625  13.256   2.884
78221W        W50536   5.414  33.029   2.299
78222W        W50537  39.925   3.621  13.499
78223W        W50538  14.143  20.338  13.430
78224W        W50539  31.179  17.364   1.337
78225W        W50540  30.914  18.813  14.402
78226W        W50541  34.427  21.585   1.262
78227W        W50542  38.542  18.667  10.743
78228W        W50543  43.630  28.226  13.940
78229W        W50544   7.171  43.612   2.728
78230W        W50545  33.468   3.894   0.155
78231W        W50546  37.712  36.537   2.926
78232W        W50547  27.045  40.020   1.283
78233W        W50548  27.622  20.170  11.974
78234W        W50549  36.785   9.741  13.793
78235W        W50550  28.191   1.111  13.898
78236W        W50551  29.443  41.071   4.143
78237W        W50552  40.552  34.096   1.913
78238W        W50553   0.843  15.014   4.764
78239W        W50554  17.266   2.400  12.795
78240W        W50555  44.862  27.118   0.349
78241W        W50556  29.211  24.584  11.025
78242W        W50557  23.707  23.192   3.103
78243W        W50558   0.300  30.837  13.479
78244W        W50559  18.079  14.330   3.194
78245W        W50560  15.669   0.521  11.426
78246W        W50561  33.500   9.465  13.537
78247W        W50562  37.835  12.073  13.403
78248W        W50563  28.866  19.146  13.958
78249W        W50564  36.500  11.181   1.085
78250W        W50565  39.159   0.563   1.351
78251W        W50566  10.387   8.741   1.466
78252W        W50567  32.995  40.934   3.099
78253W        W50568  36.884  29.612  14.784
78254W        W50569   6.463  33.384  11.602
78255W        W50570  29.921  42.331   0.010
78256W        W50571  33.623  12.198  10.121
78257W        W50572  33.331  10.315  11.583
78258W        W50573   3.918  30.905  12.484
78259W        W50574   2.056  15.218   1.298
78260W        W50575  32.618  30.389  10.680
78261W        W50576  32.142  42.093  13.596
78262W        W50577  36.395  37.755  13.037
78263W        W50578  36.040  27.111   3.770
78264W        W50579  20.412  35.953   3.648
78265W        W50580  28.081   7.818  12.377
78266W        W50581  43.383  22.610   3.404
78267W        W50582   2.687  21.826   1.308
78268W        W50583   3.908  12.189   2.682
78269W        W50584  42.453  34.147  14.522
78270W        W50585  25.058  19.047   0.199
78271W        W50586  30.170  16.259   2.250
78272W        W50587  15.652   7.629  10.426
78273W        W50588   9.342  34.890   3.626
78274W        W50589  11.483   5.813  12.391
78275W        W50590  34.650  19.768   2.235
78276W        W50591  30.596  39.837   2.676
78277W        W50592  13.303  33.401  13.012
78278W        W50593  15.055   5.821  12.665
78279W        W50594  43.743   7.423   1.042
78280W        W50595  20.474  41.270   4.274
78281W        W50596  12.448  16.697  10.533
78282W        W50597  39.778   3.485  11.604
78283W        W50598  31.139  10.806  10.570
78284W        W50599  16.210  23.330   4.108
78285W        W50600   2.124   7.161  14.820
78286W        W50601  17.525  25.128   2.655
78287W        W50602  11.230  43.196   3.280
78288W        W50603  35.876   6.711   2.368
78289W        W50604  32.808  24.676   1.787
78290W        W50605  32.880  12.847   1.848
78291W        W50606  16.896  15.720   3.824
78292W        W50607   0.290  17.951  13.485
78293W        W50608  42.094  21.791   3.891
78294W        W50609  23.108  34.586   0.736
78295W        W50610  14.995  19.503   5.113
78296W        W50611  18.352   3.873  13.921
78297W        W50612  25.975   9.531  10.724
78298W        W50613  12.289  19.300   0.733
78299W        W50614  10.388  43.362   3.662
78300W        W50615  21.246   8.084   0.926
78301W        W50616   0.922  12.828   0.387
78302W        W50617  18.600   9.598   2.334
78303W        W50618  32.161  30.185   2.293
78304W        W50619  27.574  13.048  13.880
78305W        W50620  43.054  16.650  11.886
78306W        W50621   1.092  13.832  13.708
78307W        W50622   0.314  20.289   4.294
78308W        W50623  21.217  21.500   5.019
78309W        W50624  42.358  44.551  11.099
78310W        W50625  39.868   7.722  14.249
78311W        W50626   3.937  40.918  10.708
78312W        W50627  34.631   9.810  11.875
78313W        W50628   9.381  24.994  13.451
78314W        W50629  26.031  19.320   3.593
78315W        W50630  24.712  38.404   3.753
78316W        W50631  30.322  11.416   0.684
78317W        W50632  44.507  11.938  12.882
78318W        W50633  22.065   5.336   0.930
78319W        W50634  37.865  24.530  13.332
78320W        W50635  33.493  35.801   1.223
78321W        W50636  11.853  33.092  13.840
78322W        W50637  40.566  12.144   1.305
78323W        W50638   6.379  42.074  12.116
78324W        W50639  30.844  10.357   4.533
78325W        W50640  34.515   6.576  14.490
78326W        W50641  15.820  18.086   3.723
78327W        W50642   2.977  24.074   0.940
78328W        W50643  16.542   3.044   0.877
78329W        W50644  17.590  42.477   3.738
78330W        W50645   2.412  37.026   3.098
78331W        W50646  11.527  19.819   4.066
78332W        W50647  43.893  39.712   1.942
78333W        W50648  42.487  20.791  11.214
78334W        W50649  29.417  41.055   1.502
78335W        W50650  29.598  13.570   2.589
78336W        W50651   2.417  28.294   4.076
78337W        W50652   3.508  34.499   2.654
78338W        W50653  14.112  23.451   0.387
78339W        W50654  16.816   8.696   1.040
78340W        W50655  43.192  35.578  12.956
78341W        W50656   1.445  38.929  12.089
78342W        W50657  15.336   2.359  14.335
78343W        W50658  37.554  37.399  13.922
78344W        W50659  26.341  16.914  13.322
78345W        W50660   4.891   5.430   4.605
78346W        W50661  41.917  16.893   2.782
78347W        W50662   2.712  35.695   4.077
78348W        W50663  26.577  38.845  14.415
78349W        W50664   0.965  18.236   1.779
78350W        W50665  16.947  22.106  12.295
78351W        W50666   0.237  39.790   1.339
78352W        W50667   9.254  17.605   1.255
78353W        W50668  15.571  33.605  13.921
78354W        W50669  42.809  27.374  11.164
78355W        W50670  15.103  34.904   1.395
78356W        W50671  13.838  29.792  11.512
78357W        W50672  44.562  13.255  12.367
78358W        W50673  28.869  43.979  14.818
78359W        W50674   3.693  17.897   0.291
78360W        W50675  35.365  35.852  11.309
78361W        W50676  41.813  36.341   0.938
78362W        W50677  11.282   5.799  14.727
78363W        W50678  43.150  12.593   3.569
78364W        W50679   2.246  11.830   1.315
78365W        W50680  23.455   4.317   0.976
78366W        W50681  16.026   9.172  14.987
78367W        W50682  11.618  18.981   0.351
78368W        W50683  44.342  43.215  11.202
78369W        W50684  38.980   0.894  11.214
78370W        W50685  27.559  12.120  14.097
78371W        W50686   7.765  23.676   2.944
78372W        W50687   0.537  36.039   9.569
78373W        W50688  32.145  13.197   3.246
78374W        W50689  29.043   5.012  13.874
78375W        W50690  23.043  29.965  11.460
78376W        W50691  17.992  31.866   0.427
78377W        W50692   1.221   8.719   2.325
78378W        W50693  16.488  30.966  11.200
78379W        W50694  30.589  19.793  13.956
78380W        W50695  12.283   3.748   2.552
78381W        W50696  10.328   6.977   3.234
78382W        W50697  32.998  11.380  10.927
78383W        W50698  44.890   4.366  13.394
78384W        W50699  28.470  31.495  13.657
78385W        W50700  16.699  24.623  10.636
78386W        W50701  44.510  31.608  13.035
78387W        W50702   2.451  12.139  13.031
78388W        W50703   8.713   3.283  13.510
78389W        W50704  34.062  25.239   4.703
78390W        W50705  41.564  31.115  14.107
78391W        W50706  28.392  26.027  10.734
78392W        W50707  28.944   1.679   0.422
78393W        W50708  10.977  15.336   0.352
78394W        W50709  43.850  14.448   0.987
78395W        W50710  21.703  12.891  11.109
78396W        W50711  20.426  32.569  12.417
78397W        W50712  34.334  24.532  12.547
78398W        W50713  24.653   9.804   3.484
78399W        W50714  15.337  12.671   4.790
78400W        W50715  39.343  33.095   1.335
78401W        W50716  41.425  32.087   4.492
78402W        W50717   4.686  11.752  11.772
78403W        W50718  31.155   0.376   3.313
78404W        W50719  10.751  13.960   4.387
78405W        W50720  36.458  16.154  14.397
78406W        W50721  30.616  15.041   2.620
78407W        W50722  43.799  10.445  10.619
78408W        W50723  25.073  10.313  13.146
78409W        W50724  24.969  23.474  12.439
78410W        W50725  31.497   8.220  11.188
78411W        W50726   6.098  35.323   0.662
78412W        W50727   0.710  36.481   3.047
78413W        W50728  44.783  44.665  14.359
78414W        W50729  34.389  20.536   2.800
78415W        W50730  34.426  15.585   1.417
78416W        W50731   6.932  29.354  11.515
78417W        W50732   3.712   1.874   3.081
78418W        W50733  10.545  26.284  11.083
78419W        W50734  38.990  21.643  11.002
78420W        W50735  29.199  30.464  12.047
78421W        W50736  21.683   6.845  13.520
78422W        W50737  28.023  35.289  10.883
78423W        W50738  18.476  22.435   0.251
78424W        W50739  24.002  24.337  12.965
78425W        W50740  37.898  12.164   4.630
78426W        W50741  28.459  26.407  10.368
78427W        W50742  24.980  16.169  14.539
78428W        W50743  34.930   1.758   1.236
78429W        W50744  23.970   4.974   1.435
78430W        W50745  28.493  30.230  13.538
78431W        W50746  26.000  17.386   0.895
78432W        W50747  13.557   4.468  11.190
78433W        W50748  12.816  36.345   1.949
78434W        W50749   4.894  30.888   4.355
78435W        W50750  38.837  32.180  11.583
78436W        W50751  28.254  37.563   4.540
78437W        W50752  40.255  32.620  14.833
78438W        W50753  44.968   3.845  11.237
78439W        W50754  26.216  27.102  10.738
78440W        W50755  26.982  17.628   4.138
78441W        W50756  34.169   3.975  11.998
78442W        W50757  31.052  39.006   9.937
78443W        W50758  17.069  16.629   2.481
78444W        W50759  39.614  15.777  14.389
78445W        W50760  38.837  10.064  10.747
78446W        W50761  43.211  37.547   3.657
78447W        W50762  15.591  29.578   1.561
78448W        W50763  32.459  30.010  12.831
78449W        W50764  17.133  19.915   1.220
78450W        W50765  26.196  44.196  12.773
78451W        W50766   0.515  20.113   1.131
78452W        W50767  26.893   1.228   3.366
78453W        W50768  36.909  17.429   0.514
78454W        W50769  38.534  39.697  14.729
78455W        W50770  27.698  21.004  12.501
78456W        W50771  41.046  35.485   2.202
78457W        W50772  34.915  31.179  12.855
78458W        W50773  27.734  28.436  11.610
78459W        W50774  16.736  24.943   3.848
78460W        W50775   8.942   0.949  11.821
78461W        W50776   8.651  32.508   2.261
78462W        W50777  13.982  14.182  14.204
78463W        W50778   1.229  10.754  12.946
78464W        W50779  40.362  25.159   4.682
78465W        W50780  24.778   8.811  11.177
78466W        W50781  30.831  33.866   3.106
78467W        W50782  26.118  43.994   2.831
78468W        W50783  28.305  42.406   3.216
78469W        W50784  34.084   8.158  10.376
78470W        W50785  12.974  11.095   0.842
78471W        W50786  31.971  28.380   4.462
78472W        W50787  23.824  42.982  13.772
78473W        W50788  20.088  21.785  13.019
78474W        W50789  34.595  42.675  10.593
78475W        W50790  42.433  16.117  13.483
78476W        W50791  26.839  38.224   3.634
78477W        W50792  35.047   0.651   4.746
78478W        W50793  35.843   5.843  14.981
78479W        W50794   7.132  26.134   0.303
78480W        W50795  16.132  26.708   0.933
78481W        W50796  36.910  11.072  10.472
78482W        W50797  41.399   5.230  10.798
78483W        W50798  30.000  12.800  13.855
78484W        W50799  24.628   4.847  14.781
78485W        W50800  21.633  31.354   2.237
78486W        W50801  34.812  23.714   1.786
78487W        W50802   5.288  25.652  12.967
78488W        W50803  37.063  42.870  12.901
78489W        W50804  12.802  18.764  11.593
78490W        W50805  13.694  19.289  11.055
78491W        W50806  23.387  34.446   2.279
78492W        W50807  32.580  15.715  12.645
78493W        W50808  17.588  39.343  13.858
78494W        W50809  42.438  27.480   1.930
78495W        W50810  27.209  43.564  11.444
78496W        W50811  44.191  36.713   1.350
78497W        W50812  38.912  10.329   4.145
78498W        W50813   4.170   7.686  12.168
78499W        W50814  21.757  29.018   2.620
78500W        W50815  18.035  11.860   0.809
78501W        W50816  17.728  20.127   0.390
78502W        W50817  37.453   8.904   5.099
78503W        W50818  27.041  12.371  14.942
78504W        W50819  21.426  21.526   4.539
78505W        W50820   0.527   5.506  10.801
78506W        W50821   3.658   5.185  12.395
78507W        W50822  24.722  38.061  13.536
78508W        W50823  10.139   3.881  12.393
78509W        W50824  11.235  32.111  13.098
78510W        W50825   4.455  30.430  14.539
78511W        W50826  15.176   8.686   1.238
78512W        W50827  25.538  25.766  12.008
78513W        W50828  37.048   3.733   2.352
78514W        W50829  29.002  15.717   4.129
78515W        W50830   2.380  23.077   1.664
78516W        W50831  10.389  36.566  13.035
78517W        W50832  15.476   5.154   0.284
78518W        W50833  43.515  15.141   3.722
78519W        W50834  27.795  31.057   3.151
78520W        W50835  15.013  21.527   1.729
78521W        W50836  10.202  41.792  13.569
78522W        W50837   7.223  33.656   0.362
78523W        W50838  30.100  14.254   1.924
78524W        W50839  16.153   7.310  11.442
78525W        W50840  40.798  28.116   4.324
78526W        W50841  10.172  20.171  14.994
78527W        W50842  14.604  22.326   1.251
78528W        W50843   8.744  20.771  12.931
78529W        W50844  19.499  41.260   1.829
78530W        W50845  18.774   3.006  11.000
78531W        W50846  25.999  15.408   3.665
78532W        W50847  27.080  38.978  12.972
78533W        W50848  36.221   9.600  11.922
78534W        W50849   0.915  19.101   0.517
78535W        W50850  16.494   3.869  14.611
78536W        W50851  10.883   5.187   1.296
78537W        W50852  36.929  31.980  12.528
78538W        W50853  34.578   7.170  12.160
78539W        W50854  15.130  43.292   3.531
78540W        W50855  41.429  41.753   0.555
78541W        W50856   1.426   0.767   1.835
78542W        W50857  32.200   3.786   4.183
78543W        W50858  42.826  18.612   0.596
78544W        W50859  44.051   0.119  11.561
78545W        W50860  13.216  23.013   0.169
78546W        W50861  35.074  42.053  11.976
78547W        W50862  18.836   3.325  11.678
78548W        W50863  16.362  19.279  12.496
78549W        W50864  42.844   6.326   0.552
78550W        W50865  12.055  21.347  12.953
78551W        W50866   6.206  30.652   4.132
78552W        W50867  36.937   4.807   2.260
78553W        W50868  44.365  34.950   4.046
78554W        W50869   1.988  19.552  13.855
78555W        W50870  29.334   9.284   3.149
78556W        W50871   3.474  14.084   2.697
78557W        W50872  21.137  10.223   2.048
78558W        W50873   1.683  11.230  14.280
78559W        W50874  20.795  28.238   1.852
78560W        W50875   2.963   4.912  11.662
78561W        W50876  18.561  27.186  12.691
78562W        W50877  27.455   5.329  13.083
78563W        W50878  43.180  39.578  12.538
78564W        W50879  42.887  27.707  14.909
78565W        W50880  36.916  27.432  14.382
78566W        W50881  27.934  14.083  10.016
78567W        W50882  12.382  32.743  12.033
78568W        W50883  11.328   6.474  12.366
78569W        W50884  15.225   1.916   4.207
78570W        W50885  43.545  14.290   1.772
78571W        W50886  28.210   2.666  10.796
78572W        W50887   1.516  11.871   2.693
78573W        W50888  14.682  34.758   0.906
78574W        W50889  36.775   0.725   2.474
78575W        W50890  10.424  44.672   2.461
78576W        W50891  39.260  32.882   0.224
78577W        W50892  11.236   6.971   4.393
78578W        W50893  26.795  28.540   4.130
78579W        W50894  20.578  39.027   2.632
78580W        W50895  30.520  21.148   0.979
78581W        W50896   4.480  14.273  13.848
78582W        W50897  29.731  41.137   3.152
78583W        W50898  10.630  36.322   0.106
78584W        W50899   3.472   2.546   1.657
78585W        W50900  33.035   8.431  13.776
78586W        W50901  22.051  17.103   1.893
78587W        W50902  23.171  10.161   0.907
78588W        W50903   1.980  24.233   0.900
78589W        W50904  43.178  24.712  13.423
78590W        W50905  35.449  43.593  13.319
78591W        W50906  12.663  13.544  11.929
78592W        W50907  22.040  39.591   1.900
78593W        W50908  12.534  38.007  10.690
78594W        W50909   4.716  20.636  12.535
78595W        W50910  39.408  24.171   3.196
78596W        W50911  13.902  35.476   4.458
78597W        W50912  22.023  17.792  14.544
78598W        W50913   4.734   6.382  11.459
78599W        W50914  23.416   8.572   0.268
78600W        W50915  26.814  30.816   2.216
78601W        W50916   7.723   5.739  11.134
78602W        W50917  35.942  40.804   3.048
78603W        W50918  14.087  41.830   2.826
78604W        W50919  24.475  32.137   3.985
78605W        W50920  34.024  27.675   0.792
78606W        W50921   9.009  42.870  13.456
78607W        W50922  25.857   6.105  11.957
78608W        W50923  21.699  15.027  14.785
78609W        W50924   3.468  11.910  14.714
78610W        W50925   9.562  22.640  13.332
78611W        W50926   2.405  10.587   2.940
78612W        W50927  34.905   2.738  13.167
78613W        W50928  16.083  11.744   1.311
78614W        W50929  37.878  25.539  14.924
78615W        W50930   7.469   7.372  14.961
78616W        W50931  12.010   9.718   0.368
78617W        W50932   2.508  10.141  10.243
78618W        W50933  24.379   1.312   2.266
78619W        W50934  25.722   3.728   2.295
78620W        W50935  20.344   5.670  11.851
78621W        W50936  25.817   2.543  14.988
78622W        W50937  17.949   7.195  11.174
78623W        W50938   5.717   8.572   4.650
78624W        W50939  11.814  21.875  11.460
78625W        W50940   7.775  26.511   3.537
78626W        W50941   5.143   6.137  13.414
78627W        W50942  27.973  25.094   0.232
78628W        W50943  30.613  24.616   0.539
78629W        W50944  25.664  10.220   3.234
78630W        W50945  19.552   4.180  12.972
78631W        W50946  40.678  19.773  10.840
78632W        W50947  43.228  29.736  12.379
78633W        W50948  34.254  23.370   0.340
78634W        W50949  44.886   4.948  12.067
78635W        W50950  34.619   8.180  14.532
78636W        W50951  11.796   3.950   2.291
78637W        W50952  16.054  40.544  14.928
78638W        W50953  28.667  24.598   0.200
78639W        W50954  28.149  40.138  12.296
78640W        W50955  26.611  39.703  12.607
78641W        W50956   4.725  40.089   3.736
78642W        W50957  35.045  35.136  14.312
78643W        W50958  15.267  37.238  13.006
78644W        W50959  31.324   4.793  12.387
78645W        W50960  21.490  20.227   1.872
78646W        W50961  43.489  41.455  12.546
78647W        W50962  25.037  15.947   3.992
78648W        W50963  35.257   5.070   4.898
78649W        W50964  27.073  42.196  14.018
78650W        W50965   0.976  28.612   2.807
78651W        W50966  38.450  31.227  11.705
78652W        W50967  12.783   1.283  11.892
78653W        W50968  41.310   6.143  14.925
78654W        W50969   7.622   9.832  10.969
78655W        W50970  39.108  31.912  13.828
78656W        W50971   0.952   9.745   0.011
78657W        W50972  31.389   7.686   4.617
78658W        W50973  22.452  35.578  14.417
78659W        W50974  29.554  35.741   2.809
78660W        W50975   1.263  33.582   5.480
78661W        W50976  21.968  10.415  12.883
78662W        W50977  19.745  24.900  11.089
78663W        W50978  28.051   1.684   4.514
78664W        W50979  42.068  32.865  14.278
78665W        W50980   0.493  18.096  11.706
78666W        W50981  20.332   6.020  10.601
78667W        W50982   0.848   0.731   4.264
78668W        W50983  23.941  17.636  13.418
78669W        W50984  44.651  31.819  10.871
78670W        W50985  14.899  34.855  10.016
78671W        W50986  30.452  34.102  11.664
78672W        W50987  16.700   8.440  14.298
78673W        W50988   6.356  36.571   1.334
78674W        W50989  38.050  36.573  13.041
78675W        W50990  39.120  22.991   3.619
78676W        W50991  18.579   8.264   4.196
78677W        W50992  35.570   5.080  12.463
78678W        W50993   6.669  22.638  14.389
78679W        W50994  18.751  16.142  13.470
78680W        W50995  18.101   5.388  11.932
78681W        W50996  17.104  16.072  14.322
78682W        W50997  35.858  39.033   0.903
78683W        W50998  29.446   4.715   4.149
78684W        W50999  21.022  28.895  12.412
78685W        W51000   2.436  26.647  13.520
78686W        W51001  34.485   9.048   4.354
78687W        W51002   9.209   1.197  14.606
78688W        W51003  25.685  41.000   4.921
78689W        W51004  37.895   4.718  12.215
78690W        W51005   0.008  11.905  13.002
78691W        W51006  22.246  26.052   1.227
78692W        W51007  37.067  39.408   1.868
78693W        W51008  26.555   6.739   4.602
78694W        W51009  10.661  37.576   3.118
78695W        W51010  39.165  29.530  12.282
78696W        W51011  18.295  22.103   2.573
78697W        W51012  19.635  23.592   2.599
78698W        W51013  43.449  43.611   4.842
78699W        W51014  38.873  25.692  14.977
78700W        W51015  28.583  43.297   4.426
78701W        W51016   4.907  29.642  14.451
78702W        W51017  41.303  16.834   0.881
78703W        W51018  41.213   6.556  11.620
78704W        W51019  29.530  43.117   0.184
78705W        W51020  43.343  40.230   2.704
78706W        W51021  38.988  13.146  14.458
78707W        W51022  22.601  14.530   1.321
78708W        W51023  43.923  12.859  14.417
78709W        W51024  37.347   1.698   3.090
78710W        W51025  20.979   4.154   4.141
78711W        W51026  42.483  27.689  13.048
78712W        W51027  26.751  39.342   4.143
78713W        W51028  19.614  22.519   0.200
78714W        W51029   9.335   8.873  10.295
78715W        W51030  26.169  26.197  10.694
78716W        W51031  29.915  27.155   0.501
78717W        W51032   8.916  38.851   2.710
78718W        W51033  11.143   1.265   3.183
78719W        W51034   5.751  28.782  11.620
78720W        W51035  18.410   9.460  10.526
78721W        W51036  35.018   1.634  14.412
78722W        W51037  29.206   1.822  10.800
78723W        W51038  10.168  37.869   2.696
78724W        W51039  26.360   9.768   3.516
78725W        W51040  24.908   0.772   4.282
78726W        W51041  16.017   5.494  12.627
78727W        W51042   1.390  15.191   2.311
78728W        W51043  25.155  26.202  12.477
78729W        W51044  13.260  27.056  11.082
78730W        W51045   1.735  17.532   0.379
78731W        W51046   9.089   0.081  11.453
78732W        W51047  25.597  42.980  11.349
78733W        W51048  30.924  33.146  14.352
78734W        W51049   8.409  41.548   1.060
78735W        W51050  31.391  14.083  11.453
78736W        W51051   6.189   2.829   1.369
78737W        W51052  35.462  12.720   2.245
78738W        W51053  16.258  20.467   0.944
78739W        W51054   0.715  23.112  13.396
78740W        W51055   0.912  17.751  12.400
78741W        W51056  18.009   6.376  11.020
78742W        W51057  39.899  38.383   4.813
78743W        W51058  36.413  27.560  11.076
78744W        W51059   8.918  42.991  13.954
78745W        W51060   6.300  21.320   2.727
78746W        W51061   8.772  36.729   2.585
78747W        W51062  37.379   8.784   4.614
78748W        W51063  14.294   3.272  12.586
78749W        W51064   6.380  34.992   3.724
78750W        W51065  19.884  21.772   0.927
78751W        W51066  28.523  35.242  13.000
78752W        W51067  18.069  38.623  10.325
78753W        W51068  10.243  22.750   1.250
78754W        W51069  43.840  15.112  13.729
78755W        W51070  44.788  43.916  10.785
78756W        W51071  30.617  14.894  12.072
78757W        W51072  34.357  29.660   4.015
78758W        W51073   9.344  25.752  12.099
78759W        W51074   3.845  25.234  13.986
78760W        W51075  10.148  34.647  11.803
78761W        W51076  16.287  28.548   1.883
78762W        W51077  32.700  18.159   9.725
78763W        W51078  43.861  21.149   3.184
78764W        W51079  39.524  12.066  14.985
78765W        W51080  32.492  24.732  14.495
78766W        W51081   2.225  17.771   4.030
78767W        W51082  44.565  16.235  13.049
78768W        W51083  38.355  44.714   3.305
78769W        W51084  42.841  29.411  12.537
78770W        W51085  26.515   0.764   4.068
78771W        W51086   7.990  39.898  12.221
78772W        W51087  39.001  10.618  12.419
78773W        W51088  20.948   3.257  14.807
78774W        W51089  13.826  13.427   3.594
78775W        W51090  17.855  41.364  11.579
78776W        W51091   7.544  22.440  14.685
78777W        W51092  13.795  20.549  12.985
78778W        W51093  13.320  22.788  13.458
78779W        W51094   4.681  42.377   2.811
78780W        W51095  34.998   4.989  13.999
78781W        W51096  17.938  40.083  13.376
78782W        W51097   2.908  21.741   1.782
78783W        W51098   8.601  38.437   2.674
78784W        W51099  12.382  34.715   4.683
78785W        W51100   0.845  21.076   4.555
78786W        W51101   9.227  14.071   0.232
78787W        W51102   2.399   1.511   3.795
78788W        W51103  13.233  13.167   3.627
78789W        W51104  15.239  20.061   4.463
78790W        W51105   2.387   2.471  10.932
78791W        W51106  18.255  10.061  11.172
78792W        W51107  10.698  11.193   1.758
78793W        W51108  29.468  10.771   4.448
78794W        W51109  40.569  11.929   0.805
78795W        W51110   3.409  13.268  13.448
78796W        W51111  30.631   0.749   0.502
78797W        W51112  24.026  16.464   1.315
78798W        W51113   6.823  26.776   3.684
78799W        W51114  15.350  44.368   5.118
78800W        W51115  36.284  28.521  13.986
78801W        W51116  16.340  38.076   1.655
78802W        W51117  25.287  33.874  14.975
78803W        W51118   4.879   2.661  12.089
78804W        W51119  41.399  36.951   2.404
78805W        W51120  17.585  20.281  12.198
78806W        W51121  14.539  29.460  10.794
78807W        W51122  16.583  30.427   4.159
78808W        W51123  16.081  25.054  14.274
78809W        W51124  24.222  22.840  14.357
78810W        W51125  22.308  32.040  14.608
78811W        W51126   2.444  27.951  12.167
78812W        W51127  15.716  11.372   0.734
78813W        W51128   1.801  15.552  14.910
78814W        W51129  33.244   3.711  12.433
78815W        W51130  12.075  27.213  11.575
78816W        W51131   3.579  33.859  10.195
78817W        W51132  10.974  17.771   1.559
78818W        W51133  19.643  42.259   2.901
78819W        W51134  18.293  19.278  13.507
78820W        W51135   7.402  17.707  13.974
78821W        W51136  32.635  32.599   2.687
78822W        W51137  20.020  31.176  12.281
78823W        W51138  22.350  21.254  10.984
78824W        W51139  10.672  24.294   2.808
78825W        W51140   5.576   5.249  12.988
78826W        W51141  38.610  19.420   5.231
78827W        W51142   1.411  11.625   9.956
78828W        W51143   6.297  36.957  14.010
78829W        W51144  21.592  31.813   3.390
78830W        W51145   3.370   4.767   2.532
78831W        W51146  36.562  14.763   4.034
78832W        W51147   9.111  34.026  11.963
78833W        W51148  19.759  27.527   1.253
78834W        W51149  42.234  33.345   0.801
78835W        W51150  37.423  23.920   0.198
78836W        W51151  42.243  29.092  11.040
78837W        W51152  19.972  33.645  10.644
78838W        W51153  26.033  16.723  12.105
78839W        W51154  38.353  30.070   4.211
78840W        W51155   2.697  35.954  14.067
78841W        W51156  27.341  22.937  12.488
78842W        W51157  27.428   2.014   0.759
78843W        W51158  42.965   6.464  12.740
78844W        W51159  17.805  27.237   9.537
78845W        W51160  28.061  38.395   4.012
78846W        W51161  20.306  18.985   3.561
78847W        W51162  42.527  14.597   2.289
78848W        W51163  33.917   8.889  13.872
78849W        W51164  32.383  19.168   2.465
78850W        W51165  28.082  35.123  12.528
78851W        W51166  20.518   9.386  14.358
78852W        W51167   3.406   5.416  13.729
78853W        W51168   9.832  16.077   4.048
78854W        W51169   9.029  23.013   2.628
78855W        W51170   1.722  15.609   1.449
78856W        W51171  15.507  31.867  13.007
78857W        W51172   5.589  16.046   0.768
78858W        W51173  31.382  43.527   1.120
78859W        W51174  22.104  41.681  13.330
78860W        W51175  28.268  11.877   2.372
78861W        W51176  36.027   8.030  12.065
78862W        W51177   2.938  41.283  12.793
78863W        W51178   4.304  43.503   3.549
78864W        W51179  28.059  29.471  12.870
78865W        W51180  37.325  29.769  12.152
78866W        W51181   7.479   9.822   3.260
78867W        W51182   0.511  35.204  10.629
78868W        W51183   0.735  34.884   1.162
78869W        W51184  40.937  18.052  11.415
78870W        W51185  22.637   3.942   4.468
78871W        W51186   9.248  23.012  11.482
78872W        W51187   6.175  13.285  11.500
78873W        W51188  41.686  27.845   5.127
78874W        W51189  13.653  17.032  13.392
78875W        W51190  15.670  39.208   2.246
78876W        W51191  16.722  43.486  13.863
78877W        W51192  40.524   0.761  12.392
78878W        W51193  38.553  38.589  11.164
78879W        W51194   4.781  44.986   2.834
78880W        W51195  34.542  21.474  12.304
78881W        W51196  25.704   5.216  11.123
78882W        W51197   2.347  16.200   1.398
78883W        W51198  23.019  42.238  14.493
78884W        W51199  34.865   7.452   0.289
78885W        W51200  24.281  27.306   4.093
78886W        W51201  15.227  32.864  11.156
78887W        W51202  37.884  33.156   0.137
78888W        W51203  36.836  24.951   0.808
78889W        W51204   2.165  29.214   0.290
78890W        W51205  20.633   0.883   4.867
78891W        W51206  33.133  23.717  12.053
78892W        W51207  38.143  33.875  12.982
78893W        W51208  37.512   5.906   3.519
78894W        W51209   1.319  14.981  11.159
78895W        W51210  25.538  41.552  14.567
78896W        W51211  41.521   1.920  11.200
78897W        W51212  17.340  12.565   4.572
78898W        W51213   9.740   7.186   3.162
78899W        W51214  37.474  26.134   3.643
78900W        W51215  17.809  13.616  14.102
78901W        W51216  34.966  24.033   1.325
78902W        W51217  35.605  32.968   1.172
78903W        W51218  17.346  41.362  11.604
78904W        W51219   8.647  35.528   3.252
78905W        W51220  24.011  41.380  14.857
78906W        W51221  15.707   3.249   0.763
78907W        W51222  22.448   4.696   1.276
78908W        W51223  32.953   9.668   0.131
78909W        W51224  19.517  39.311   2.763
78910W        W51225   8.263  27.082  10.832
78911W        W51226  34.100  34.617   4.623
78912W        W51227  23.468  33.441   3.641
78913W        W51228   2.353  40.369  14.546
78914W        W51229  40.414  30.947   4.517
78915W        W51230  23.562  36.577   0.235
78916W        W51231  17.286  19.951  12.964
78917W        W51232  26.861  21.805   0.859
78918W        W51233   6.669  23.161  12.686
78919W        W51234  37.038  14.798   0.356
78920W        W51235  19.282  30.247   0.617
78921W        W51236   7.228  30.989   0.433
78922W        W51237  19.112  41.814  10.637
78923W        W51238  37.777  37.796   2.189
78924W        W51239  12.141  34.253  11.850
78925W        W51240  14.698  37.065   0.712
78926W        W51241  18.600  25.560  14.014
78927W        W51242   0.935  34.464   3.155
78928W        W51243   1.336  39.515  12.784
78929W        W51244  42.359  31.197  12.498
78930W        W51245  30.071  39.442  13.794
78931W        W51246  23.311  43.462   4.882
78932W        W51247  12.429   7.291   2.371
78933W        W51248  20.942  40.010  13.526
78934W        W51249   1.417  23.132  12.854
78935W        W51250  19.860   5.728  11.984
78936W        W51251   8.358  16.251  14.623
78937W        W51252  22.189  11.659   0.451
78938W        W51253  35.048  10.307   0.177
78939W        W51254  38.010   8.228  10.674
78940W        W51255   9.440  23.106  14.698
78941W        W51256  31.661  16.637   4.595
78942W        W51257  16.556  17.292   2.278
78943W        W51258  43.563  11.220   0.691
78944W        W51259  23.990  28.214  12.078
78945W        W51260   8.924  41.318  11.955
78946W        W51261   2.621   4.084  14.457
78947W        W51262   4.196  27.605  12.507
78948W        W51263  24.941   0.363   1.594
78949W        W51264  12.537  12.407  13.766
78950W        W51265  21.971   0.848   1.421
78951W        W51266   6.255   2.206   2.032
78952W        W51267  43.218  31.943   3.513
78953W        W51268  12.068  44.440  14.047
78954W        W51269  20.873   9.463  10.048
78955W        W51270  22.651  27.645  14.248
78956W        W51271  39.403  13.051  12.501
78957W        W51272   9.630  21.954   3.141
78958W        W51273  10.696  30.550  13.888
78959W        W51274  16.784   5.350   1.297
78960W        W51275  10.637  15.127  12.373
78961W        W51276  39.128  44.265   0.518
78962W        W51277  32.402  32.613   4.969
78963W        W51278  19.549  17.029   0.369
78964W        W51279  17.820  25.815  14.268
78965W        W51280  13.839  32.148  14.416
78966W        W51281  44.394  11.785  11.153
78967W        W51282  40.550  18.604  10.104
78968W        W51283  32.651  17.293   4.092
78969W        W51284  28.196  33.666   4.596
78970W        W51285  15.725  23.351   3.676
78971W        W51286   5.717  25.083   2.171
78972W        W51287  14.901   6.527   0.209
78973W        W51288  27.607  44.010   4.790
78974W        W51289  40.875  12.567   0.370
78975W        W51290  37.429  17.399   2.210
78976W        W51291  33.945   8.724  10.708
78977W        W51292  27.822  32.652  12.353
78978W        W51293  36.080  10.305  11.471
78979W        W51294  28.437  17.092   0.927
78980W        W51295  34.057  25.275  10.901
78981W        W51296   2.795  18.808  13.810
78982W        W51297  30.152  13.063  13.442
78983W        W51298  34.838   7.349  10.479
78984W        W51299  12.728  20.174   3.256
78985W        W51300  28.721  28.511   2.347
78986W        W51301  32.951   3.350  12.066
78987W        W51302  31.968  10.314   0.778
78988W        W51303   5.760  23.808   4.079
78989W        W51304  21.057  40.093   1.382
78990W        W51305  11.971  36.550   1.805
78991W        W51306  22.149  20.848  13.130
78992W        W51307  37.613  42.870  11.822
78993W        W51308  18.137  26.410   3.223
78994W        W51309  34.908  19.989   2.635
78995W        W51310  29.221  32.576   4.645
78996W        W51311  19.796  30.417  13.921
78997W        W51312  27.351  19.449   0.354
78998W        W51313  31.629  12.004  10.733
78999W        W51314  29.173  33.115   4.334
79000W        W51315  12.277  15.989  11.263
79001W        W51316  32.896  36.434   2.077
79002W        W51317   1.799  30.445  11.111
79003W        W51318  32.707  33.404   3.323
79004W        W51319  24.302  34.485  12.130
79005W        W51320   0.744  37.636   1.687
79006W        W51321  32.884  31.625  12.397
79007W        W51322  28.468   4.269   1.263
79008W        W51323  44.223  26.028   4.890
79009W        W51324  20.229  19.297   1.732
79010W        W51325  42.736  12.947   0.282
79011W        W51326  27.213  36.917  12.520
79012W        W51327  34.933  37.405   2.710
79013W        W51328   5.691  36.666  12.032
79014W        W51329  32.566  37.497   3.239
79015W        W51330  39.424  35.437  14.864
79016W        W51331  17.465  31.497  11.976
79017W        W51332   0.643   4.211  14.999
79018W        W51333  31.600  20.312  10.745
79019W        W51334  31.142  28.880   9.816
79020W        W51335  38.999  38.420   2.162
79021W        W51336   2.301  43.202  12.369
79022W        W51337   9.237   8.746   4.520
79023W        W51338   1.606  23.002  13.337
79024W        W51339   2.947  32.558   4.023
79025W        W51340  12.892  19.668   1.895
79026W        W51341  21.800   5.497  13.349
79027W        W51342  12.639  26.542  11.527
79028W        W51343  42.921  15.278   0.867
79029W        W51344  17.428  33.033  14.335
79030W        W51345   4.673  12.141  10.870
79031W        W51346  31.228  13.750   1.193
79032W        W51347  42.306   3.246  12.659
79033W        W51348  16.831  44.009   1.979
79034W        W51349  21.304   9.296   3.170
79035W        W51350   5.632  24.285   2.185
79036W        W51351  32.669   2.934  12.311
79037W        W51352  40.581  28.344  11.139
79038W        W51353  36.632  13.611  12.629
79039W        W51354  23.445  15.336  14.320
79040W        W51355   7.950  38.947   4.457
79041W        W51356  39.910  40.267  10.876
79042W        W51357  35.872  38.660   2.252
79043W        W51358  17.548  41.337   1.766
79044W        W51359  26.465  30.835   0.029
79045W        W51360  35.570  43.540   0.220
79046W        W51361   3.824  30.545   4.112
79047W        W51362  13.944  34.176  13.526
79048W        W51363  14.277  35.065   2.710
79049W        W51364  25.033  27.919   4.940
79050W        W51365  10.717  39.396   0.432
79051W        W51366  17.314  29.434   4.179
79052W        W51367   4.292  25.933   3.216
79053W        W51368  32.931   5.299  13.867
79054W        W51369  29.106  13.318   3.994
79055W        W51370  32.994  26.675   2.769
79056W        W51371  25.596  25.917  13.499
79057W        W51372  16.258  31.347  14.876
79058W        W51373  38.198  11.446   2.278
79059W        W51374  34.640  29.582  13.431
79060W        W51375  14.148  10.271  13.185
79061W        W51376  13.650  16.081  11.297
79062W        W51377  29.551  20.796  11.447
79063W        W51378   5.191   8.969   3.648
79064W        W51379  34.014   1.814   0.729
79065W        W51380   8.548  12.312   3.780
79066W        W51381  27.734  42.773   0.771
79067W        W51382   2.512  22.396   2.197
79068W        W51383  32.453  43.395   4.641
79069W        W51384  10.774  18.186   5.143
79070W        W51385  20.754  31.529   3.678
79071W        W51386  36.318   9.937  11.125
79072W        W51387   8.052   7.842   1.476
79073W        W51388  38.483  12.123  13.166
79074W        W51389   3.756   8.173   2.317
79075W        W51390  21.118  43.838  12.959
79076W        W51391  10.889  42.469  11.212
79077W        W51392  16.145  14.988   3.627
79078W        W51393  43.943  36.656  12.629
79079W        W51394  16.883   4.163  13.932
79080W        W51395  41.052  28.132  11.129
79081W        W51396  42.271   3.440   4.579
79082W        W51397  34.491   4.442   0.350
79083W        W51398  22.176   5.767   4.212
79084W        W51399   5.844  27.236  14.379
79085W        W51400  11.200  13.301   2.645
79086W        W51401  10.481  19.366   3.727
79087W        W51402   7.267  37.559   0.855
79088W        W51403  42.780  29.103   0.716
79089W        W51404  15.337  24.116   1.171
79090W        W51405  17.823  36.513  12.063
79091W        W51406  12.972  16.660   5.283
79092W        W51407  17.710  42.141   2.794
79093W        W51408  16.629  22.074  11.420
79094W        W51409  22.309  27.078   1.203
79095W        W51410  13.163  42.820   2.731
79096W        W51411  29.112   5.353   3.080
79097W        W51412  41.813  27.394  11.728
79098W        W51413  30.140  44.598  12.093
79099W        W51414  17.144  19.186   1.711
79100W        W51415  26.147  33.944  11.472
79101W        W51416  26.325   1.920  10.247
79102W        W51417  22.921  16.219  12.463
79103W        W51418   3.980  28.990   4.489
79104W        W51419   0.605  14.160  13.970
79105W        W51420   5.527  29.002   1.255
79106W        W51421  19.343   6.106   0.305
79107W        W51422   4.977  27.180   3.721
79108W        W51423  15.340  17.049   0.258
79109W        W51424  34.376  22.680  11.463
79110W        W51425  21.098  27.514  11.177
79111W        W51426   5.496  24.715   2.470
79112W        W51427   0.343  13.580   2.386
79113W        W51428  11.218  12.475  13.360
79114W        W51429  32.355  42.471   4.891
79115W        W51430  40.319  44.549   3.247
79116W        W51431  39.300  18.583  12.053
79117W        W51432  13.697  37.005   4.926
79118W        W51433  41.210  19.255   4.451
79119W        W51434  28.659  24.153  10.732
79120W        W51435   7.763  21.690   1.296
79121W        W51436  39.585   1.387   1.208
79122W        W51437  15.383   3.326  13.965
79123W        W51438  37.851  19.665   4.552
79124W        W51439  39.154  22.985   2.755
79125W        W51440  29.971  23.577  13.331
79126W        W51441   0.850  20.278   3.102
79127W        W51442  33.177   5.172   4.708
79128W        W51443  20.421  15.348   0.823
79129W        W51444   1.876  30.211  12.851
79130W        W51445  12.217  34.795   1.912
79131W        W51446   4.345  18.200  11.510
79132W        W51447  19.322  39.530  12.887
79133W        W51448  29.579  24.810   4.691
79134W        W51449  13.083  14.622  14.953
79135W        W51450  22.424  30.449  11.606
79136W        W51451  26.451  31.673  12.976
79137W        W51452   0.394  11.450   3.179
79138W        W51453  10.611  16.174   2.136
79139W        W51454  39.600  15.617   0.257
79140W        W51455  42.977  13.367   5.155
79141W        W51456  44.996  26.050   2.368
79142W        W51457  29.595  24.144  12.716
79143W        W51458  29.366  34.467   4.120
79144W        W51459  20.729  38.674  12.140
79145W        W51460   4.430  33.971   4.158
79146W        W51461  39.770  12.788  12.941
79147W        W51462  35.932   1.469  13.032
79148W        W51463  34.466  21.646   1.834
79149W        W51464  22.551  21.033  14.899
79150W        W51465  37.475   3.911  11.348
79151W        W51466  17.870  18.222   3.650
79152W        W51467  42.575   4.017  14.536
79153W        W51468  31.029  33.902  10.387
79154W        W51469  12.428  37.922   4.008
79155W        W51470   6.131  14.556  13.301
79156W        W51471  37.834  35.064  10.663
79157W        W51472  21.592  17.336  12.067
79158W        W51473   4.651   3.671  11.905
79159W        W51474  35.035  17.314  10.476
79160W        W51475  18.331  43.286   2.302
79161W        W51476  34.997  12.333   0.653
79162W        W51477   7.207   0.407  14.613
79163W        W51478  34.442   7.661  13.003
79164W        W51479  44.641  33.600   4.660
79165W        W51480  11.580  25.930   4.595
79166W        W51481  36.030  12.332  14.654
79167W        W51482  13.678  38.773  13.058
79168W        W51483  34.651  31.657   4.707
79169W        W51484  12.300  16.192   0.428
79170W        W51485  13.602  12.589  13.073
79171W        W51486  16.783  28.483  10.096
79172W        W51487  28.206   4.238  10.600
79173W        W51488  41.400  19.829   1.719
79174W        W51489  14.619  39.972  12.864
79175W        W51490  12.389  23.915   4.530
79176W        W51491  18.658  14.455  10.659
79177W        W51492  14.470  18.068  10.406
79178W        W51493  17.085  35.556  13.999
79179W        W51494  18.578  13.820  14.743
79180W        W51495  33.506  11.165   2.887
79181W        W51496  21.719  13.164   3.534
79182W        W51497  20.528   4.228   2.158
79183W        W51498  42.368  38.939   2.868
79184W        W51499   7.323  25.986  14.450
79185W        W51500  44.208  33.447  13.213
79186W        W51501  14.333  13.115  10.635
79187W        W51502  20.146  33.409  11.067
79188W        W51503  42.984  38.983  12.136
79189W        W51504  33.404  41.255  12.078
79190W        W51505   5.264  34.359   1.754
79191W        W51506  41.494   7.819   3.703
79192W        W51507  37.955  17.062   0.304
79193W        W51508  38.125  16.383  12.511
79194W        W51509  41.131  12.056  11.345
79195W        W51510  18.437  14.057   0.199
79196W        W51511  44.447  25.594   2.666
79197W        W51512  20.011  29.015  14.327
79198W        W51513  13.174  34.886  14.040
79199W        W51514   8.378  38.242   1.489
79200W        W51515  19.223  24.063  10.973
79201W        W51516   3.307  28.245   4.675
79202W        W51517   2.326  39.825   1.845
79203W        W51518  44.558   5.241  13.829
79204W        W51519  42.093   4.808  12.876
79205W        W51520   0.367  13.968   2.014
79206W        W51521  41.773   2.036  12.017
79207W        W51522  42.058  34.443  12.603
79208W        W51523  31.356  25.293   3.770
79209W        W51524  43.030   5.396   1.817
79210W        W51525  20.967   0.266   0.356
79211W        W51526  20.676  34.257   3.324
79212W        W51527  15.096  32.063  12.058
79213W        W51528   6.224  14.534   1.329
79214W        W51529  13.762  38.961   2.562
79215W        W51530  32.583  36.863   2.800
79216W        W51531   5.843  16.515  10.684
79217W        W51532  21.485  39.059   0.748
79218W        W51533  10.620  33.446   2.051
79219W        W51534   8.819  37.982   1.672
79220W        W51535  38.589  35.088   3.696
79221W        W51536  41.286  43.368   3.378
79222W        W51537  14.267  31.566   4.647
79223W        W51538  23.985  26.173   4.823
79224W        W51539  18.019  40.113  11.142
79225W        W51540  33.530  42.024   0.013
79226W        W51541   0.016  40.460  11.191
79227W        W51542  23.999  26.269  12.959
79228W        W51543  31.855  21.327   0.737
79229W        W51544   3.764   0.696   2.513
79230W        W51545  12.824  36.432   0.252
79231W        W51546  10.166  38.359   1.765
79232W        W51547  21.503  43.330  12.388
79233W        W51548  14.269  29.441   3.724
79234W        W51549   7.046  35.557  14.738
79235W        W51550  23.988  31.326   0.303
79236W        W51551  15.626  13.039  13.856
79237W        W51552   1.936   1.566  14.727
79238W        W51553  39.328  39.771   0.915
79239W        W51554  35.413  43.932   0.735
79240W        W51555  26.211  40.068  12.131
79241W        W51556   2.016   9.928  13.906
79242W        W51557  43.824   6.715   4.624
79243W        W51558  40.918  31.858  10.770
79244W        W51559  15.651  20.281  13.587
79245W        W51560  31.065   4.173   0.244
79246W        W51561  26.776  14.809  10.986
79247W        W51562  19.708  43.636   0.250
79248W        W51563  15.373  22.387   2.219
79249W        W51564  36.343  33.883  13.672
79250W        W51565  33.342   6.835  11.582
79251W        W51566  20.703  35.046   0.501
79252W        W51567  16.748  29.361  11.571
79253W        W51568  15.752   6.352   4.253
79254W        W51569  16.181  42.112   2.943
79255W        W51570  22.637  16.180  14.610
79256W        W51571   1.843  43.479  12.421
79257W        W51572   2.368   5.287  10.589
79258W        W51573  37.580  25.939   2.729
79259W        W51574   0.920   7.615   1.144
79260W        W51575  11.249  36.606   1.758
79261W        W51576  13.368  15.240   1.801
79262W        W51577  22.040   3.240  12.570
79263W        W51578  38.339  13.720  11.903
79264W        W51579  11.318  16.324   0.723
79265W        W51580  14.397  40.591   1.464
79266W        W51581  38.863  28.420  13.853
79267W        W51582  23.695  33.097  12.110
79268W        W51583   2.281   8.241   0.781
79269W        W51584  37.089  14.858   2.767
79270W        W51585   6.366  28.466   2.122
79271W        W51586  27.545  20.129   1.469
79272W        W51587  26.290  13.332   2.323
79273W        W51588  11.136   3.392   0.972
79274W        W51589  36.385  14.136  12.665
79275W        W51590  12.778  39.028   4.923
79276W        W51591  35.986  38.573  12.991
79277W        W51592  16.586  23.221   4.463
79278W        W51593  29.494   7.262   0.149
79279W        W51594  30.450  32.698   4.358
79280W        W51595   6.732  19.885   0.300
79281W        W51596   7.133  29.061  12.568
79282W        W51597   3.810  21.808  14.923
79283W        W51598   7.617   0.536   2.171
79284W        W51599  32.872   5.705   0.343
79285W        W51600  19.712  44.482   0.984
79286W        W51601   6.374  22.230  13.859
79287W        W51602  29.978  38.873  11.165
79288W        W51603   1.715  18.164  10.574
79289W        W51604   8.356  23.229   4.709
79290W        W51605  16.684   8.238  13.822
79291W        W51606  15.762  24.156   0.854
79292W        W51607  24.193   2.857  10.707
79293W        W51608  14.668  21.300   3.547
79294W        W51609  27.521   6.911   1.169
79295W        W51610  33.086  25.177   5.177
79296W        W51611  13.590  13.125   3.214
79297W        W51612   8.734  17.337   4.717
79298W        W51613  29.588   1.643  11.142
79299W        W51614  44.879  42.710   2.663
79300W        W51615   0.770  25.613   2.298
79301W        W51616   6.173  38.316   0.397
79302W        W51617  32.148  39.910  10.722
79303W        W51618   4.757  27.468   4.095
79304W        W51619  29.249   2.322   2.710
79305W        W51620  16.769  18.777   2.399
79306W        W51621   4.171  25.980   0.535
79307W        W51622   1.230   9.840  14.356
79308W        W51623  27.475  30.066  13.225
79309W        W51624  15.639  38.954   2.808
79310W        W51625  41.052  24.003   1.363
79311W        W51626  16.535  15.208  11.448
79312W        W51627  25.682  43.238  13.647
79313W        W51628  22.141  26.405  13.055
79314W        W51629  33.326  18.761   2.204
79315W        W51630  39.017  34.898   2.756
79316W        W51631  19.911   4.838  14.040
79317W        W51632  27.577  43.564   2.920
79318W        W51633   6.256   4.473   0.816
79319W        W51634  23.765  10.825   0.242
79320W        W51635  28.287  33.010   0.491
79321W        W51636  40.240  19.305  10.092
79322W        W51637  25.139  19.462   4.938
79323W        W51638  37.641   6.794  14.349
79324W        W51639  28.025  36.193  12.989
79325W        W51640  23.631   3.730   3.283
79326W        W51641  31.691  13.093  11.966
79327W        W51642  30.375   6.373  13.076
79328W        W51643  20.191  27.081   4.662
79329W        W51644  10.656  27.210   0.231
79330W        W51645  19.636  22.230  14.335
79331W        W51646  35.953  42.927   0.696
79332W        W51647   6.546  42.518  12.611
79333W        W51648   6.169  19.038   1.659
79334W        W51649  37.029  11.906   0.707
79335W        W51650   1.358  40.347   0.229
79336W        W51651  15.381   7.940   4.040
79337W        W51652  10.322  16.488  13.288
79338W        W51653  43.894  31.714  11.623
79339W        W51654  38.110   0.493   3.210
79340W        W51655  38.685   6.678   0.301
79341W        W51656   6.754  11.156  11.153
79342W        W51657   9.235  26.407   0.011
79343W        W51658   4.710  27.694   2.731
79344W        W51659  25.740  26.221  14.857
79345W        W51660  23.958   7.395   0.904
79346W        W51661  34.396  18.734  11.506
79347W        W51662  22.070  43.574   2.872
79348W        W51663  22.703   1.011   4.482
79349W        W51664  32.838  33.315   2.219
79350W        W51665  37.651  21.685  10.691
79351W        W51666  33.096  34.189  13.349
79352W        W51667  29.899  32.458   0.589
79353W        W51668  26.967  41.928   1.327
79354W        W51669   3.520   3.882   1.526
79355W        W51670   5.226   8.162  14.356
79356W        W51671  37.393  21.295  13.076
79357W        W51672  27.442   4.670  14.909
79358W        W51673  44.949  38.801  14.711
79359W        W51674  27.736  34.950  14.326
79360W        W51675   4.975  38.214   1.810
79361W        W51676   1.707  40.038  11.539
79362W        W51677  37.089  17.798  11.237
79363W        W51678  23.228  21.588   5.028
79364W        W51679  42.600   2.511   3.274
79365W        W51680  29.422   1.610   3.272
79366W        W51681  36.830  36.465   4.137
79367W        W51682  16.344   1.932  14.286
79368W        W51683  13.108  40.607   4.097
79369W        W51684  35.555  17.270  13.877
79370W        W51685  11.958  20.617  13.959
79371W        W51686   5.143  10.089   1.175
79372W        W51687  14.501  44.494  14.145
79373W        W51688  42.516  30.451   2.251
79374W        W51689  43.353  15.987  14.369
79375W        W51690  11.647  12.089   1.605
79376W        W51691  44.478  26.742   3.809
79377W        W51692  10.285  39.827  10.587
79378W        W51693  10.089  43.774   2.592
79379W        W51694   0.780  21.644   0.453
79380W        W51695  43.727  32.639  12.075
79381W        W51696  30.163   8.315   1.912
79382W        W51697  16.332  16.406  13.900
79383W        W51698  32.408  29.208  12.020
79384W        W51699  44.843   8.833   0.048
79385W        W51700   2.460  29.395  14.409
79386W        W51701  10.279  13.601  13.027
79387W        W51702  37.866  26.038   3.974
79388W        W51703  22.902  38.906   2.611
79389W        W51704  16.720  15.010   4.091
79390W        W51705  26.917  28.442  11.008
79391W        W51706  16.177  10.911  13.365
79392W        W51707  24.047   3.941   3.039
79393W        W51708   3.363  14.631   2.200
79394W        W51709  30.588   2.340   4.638
79395W        W51710  33.299  34.527   3.131
79396W        W51711  36.999  42.031   1.706
79397W        W51712  15.666  20.734  12.012
79398W        W51713  32.132  18.841   0.006
79399W        W51714  35.864  18.831  13.565
79400W        W51715  10.350  42.633  10.234
79401W        W51716  29.993  14.302   4.165
79402W        W51717  12.777   8.455   1.339
79403W        W51718  42.438  37.425   3.107
79404W        W51719  26.494  28.384  11.953
79405W        W51720   4.947  13.872  13.111
79406W        W51721  22.562  39.411  12.763
79407W        W51722  41.292  24.248   1.881
79408W        W51723  29.617  32.416   2.726
79409W        W51724  40.334  33.072   4.379
79410W        W51725   3.682   1.395   3.300
79411W        W51726  20.559  32.579   4.058
79412W        W51727  17.964  43.619   3.157
79413W        W51728  14.409   0.230  13.463
79414W        W51729   9.823   8.451  14.312
79415W        W51730  25.367   5.394   3.818
79416W        W51731   0.801  41.466   1.857
79417W        W51732   2.871  31.522   4.139
79418W        W51733  19.509  18.638  14.241
79419W        W51734  27.095  22.175   1.143
79420W        W51735  38.015  35.287   1.342
79421W        W51736  13.168  32.922  10.395
79422W        W51737  14.855  35.095   0.433
79423W        W51738  44.783  30.621  11.409
79424W        W51739   2.313  23.601  10.462
79425W        W51740  37.129  10.246  13.628
79426W        W51741  38.366  27.471  12.203
79427W        W51742  32.663  32.419  12.540
79428W        W51743  18.151  44.415  10.474
79429W        W51744  28.050  22.305   2.763
79430W        W51745   7.825  12.267  13.931
79431W        W51746  27.415   1.187   1.600
79432W        W51747  41.142  34.058  13.515
79433W        W51748  39.341  15.655  13.958
79434W        W51749   1.464   9.897  13.868
79435W        W51750   0.107   4.018   1.806
79436W        W51751  29.674  28.506   2.258
79437W        W51752  28.999   9.586   2.850
79438W        W51753  29.538  40.592   1.272
79439W        W51754  19.261  27.082   1.845
79440W        W51755  19.517  38.446  11.242
79441W        W51756  17.226  20.625  14.803
79442W        W51757  17.281  39.036  12.063
79443W        W51758  36.459  31.136   2.459
79444W        W51759  34.920  24.846  11.361
79445W        W51760  44.729   2.735  12.803
79446W        W51761   1.233   6.115  13.408
79447W        W51762  16.245  34.876  11.123
79448W        W51763  16.123  41.784  10.687
79449W        W51764  37.443  32.494   3.775
79450W        W51765  42.915  30.378   1.331
79451W        W51766  21.830  27.184  11.223
79452W        W51767  16.481  14.916   1.854
79453W        W51768  30.347   9.425  11.212
79454W        W51769  44.872  11.419   0.014
79455W        W51770  40.747  43.490  11.129
79456W        W51771  23.431  43.791  13.817
79457W        W51772   1.657  28.669   2.197
79458W        W51773  28.121  33.868   4.119
79459W        W51774  23.103   6.652   4.216
79460W        W51775  30.889  42.538   0.291
79461W        W51776  16.513  35.839   0.286
79462W        W51777  13.580  12.813   2.370
79463W        W51778  30.664   8.318   3.706
79464W        W51779  43.982  17.777  12.040
79465W        W51780  37.415  32.905   4.074
79466W        W51781   9.191  18.622   1.000
79467W        W51782  35.441  11.001  11.748
79468W        W51783  26.540  10.517  11.677
79469W        W51784  39.948  38.617   0.553
79470W        W51785  36.392  12.290  12.108
79471W        W51786  38.662   4.246   2.806
79472W        W51787   2.728   0.930   1.246
79473W        W51788  13.282  14.460  10.970
79474W        W51789  11.943   8.776   0.372
79475W        W51790   9.690  44.484  13.546
79476W        W51791   8.754  29.433  14.701
79477W        W51792  36.502  36.514   3.629
79478W        W51793  27.142  40.051  13.769
79479W        W51794  17.777  43.303   2.227
79480W        W51795  20.247  24.867   4.939
79481W        W51796  36.005   3.082  11.923
79482W        W51797  22.048  19.614   2.192
79483W        W51798   2.242  16.268   1.881
79484W        W51799  18.810  34.211   2.885
79485W        W51800   3.132  43.842  11.039
79486W        W51801  43.055  11.856   2.267
79487W        W51802  41.350  38.526   3.185
79488W        W51803   3.914   7.923   4.689
79489W        W51804  18.599  39.753   3.251
79490W        W51805  21.829  11.317  13.620
79491W        W51806  39.316  39.833   1.649
79492W        W51807  14.144  15.180  10.580
79493W        W51808  37.573   4.185   3.995
79494W        W51809  43.839   5.412  11.443
79495W        W51810   6.712  39.106  11.250
79496W        W51811  10.701  30.178  14.534
79497W        W51812  17.170   6.193  14.421
79498W        W51813   7.652   1.792   1.607
79499W        W51814  37.917  17.163  12.981
79500W        W51815   6.957  37.961  12.556
79501W        W51816  19.829  38.545  11.620
79502W        W51817  37.008   4.203  13.909
79503W        W51818  36.331  23.546  14.626
79504W        W51819   7.175   5.974   1.926
79505W        W51820  11.808  31.016  14.546
79506W        W51821  30.922  31.344  13.167
79507W        W51822  12.428  19.500   1.737
79508W        W51823  20.197   8.643  12.955
79509W        W51824  25.958  24.789  13.538
79510W        W51825   6.940  36.520   2.170
79511W        W51826  36.821  33.465  14.499
79512W        W51827  18.605  37.378  12.576
79513W        W51828  24.730   6.894  13.840
79514W        W51829  34.033  15.536  14.407
79515W        W51830  40.847  34.058   0.525
79516W        W51831  29.016   1.945  13.280
79517W        W51832  29.364  44.630   3.127
79518W        W51833  32.091  14.260   0.015
79519W        W51834  32.101  33.391   4.636
79520W        W51835  30.080  33.317   3.937
79521W        W51836  25.803   5.877   3.313
79522W        W51837  44.991   0.632   0.448
79523W        W51838  22.276   7.228   2.002
79524W        W51839  25.961  24.647  14.460
79525W        W51840   8.275  20.358  13.673
79526W        W51841  18.356  10.715   0.458
79527W        W51842   9.813  42.208   2.408
79528W        W51843  26.256   9.322  13.310
79529W        W51844  20.507  42.564   0.708
79530W        W51845  44.404  10.266   1.029
79531W        W51846  44.977   7.373  11.165
79532W        W51847  16.565  39.376  12.143
79533W        W51848  14.155   6.282  13.805
79534W        W51849  25.602   4.474  13.961
79535W        W51850  24.508   1.970   3.547
79536W        W51851  38.410  39.391  13.463
79537W        W51852  38.843  36.212  10.719
79538W        W51853   3.710   8.738   3.735
79539W        W51854   7.240  41.744  11.255
79540W        W51855   8.140   7.871  12.538
79541W        W51856  18.316  28.726   1.868
79542W        W51857  32.897  42.040   1.548
79543W        W51858  11.921  43.769  13.952
79544W        W51859  17.300  31.971   3.744
79545W        W51860   0.842  44.373   1.930
79546W        W51861  16.624   4.755   3.787
79547W        W51862  39.035  20.846  10.367
79548W        W51863  31.612   6.693  14.009
79549W        W51864  12.160   5.233  14.325
79550W        W51865  14.730  13.701   1.829
79551W        W51866   1.253   7.818   2.566
79552W        W51867  44.359  33.761  11.000
79553W        W51868   0.938  20.256  11.351
79554W        W51869  33.839   6.630  12.481
79555W        W51870  22.601  26.649   0.404
79556W        W51871  20.056  41.634  11.627
79557W        W51872  38.562  30.502   4.417
79558W        W51873   4.194  15.084   4.513
79559W        W51874  33.086  36.929  13.863
79560W        W51875  34.121  11.530   0.936
79561W        W51876  33.319  11.416   1.335
79562W        W51877  24.545  24.212   0.812
79563W        W51878  28.567  40.006  14.391
79564W        W51879  35.057   4.232  10.592
79565W        W51880  17.619   5.306  13.688
79566W        W51881  39.315  17.842  10.631
79567W        W51882   8.680  18.469  11.479
79568W        W51883   3.272   6.238  11.711
79569W        W51884  42.950  23.905  10.643
79570W        W51885  18.601  28.288  10.746
79571W        W51886  34.293   2.167  14.513
79572W        W51887  29.525  29.585  11.695
79573W        W51888  19.706   4.917   3.332
79574W        W51889   8.172  25.990  11.592
79575W        W51890  32.447  29.855   2.741
79576W        W51891  43.343  18.796   2.237
79577W        W51892  32.053  29.195   1.628
79578W        W51893  29.146  18.688  13.926
79579W        W51894  18.939   8.698   4.213
79580W        W51895  32.428  33.690   1.302
79581W        W51896  13.701  44.871  14.536
79582W        W51897  42.475  20.619   0.743
79583W        W51898  14.144  20.515   0.309
79584W        W51899  10.257  35.110   0.331
79585W        W51900   5.440  25.985  10.528
79586W        W51901   9.766   9.138   1.706
79587W        W51902   2.189  25.035  10.205
79588W        W51903  30.633  30.810  13.425
79589W        W51904  44.980  23.801  12.106
79590W        W51905  22.687   1.530   4.311
79591W        W51906  40.313  40.522   2.717
79592W        W51907  27.159   9.869   4.073
79593W        W51908  28.378  15.826  10.654
79594W        W51909   4.187  10.468  14.449
79595W        W51910  12.762  30.046   4.331
79596W        W51911  43.997  26.510  14.492
79597W        W51912  44.347  10.170  13.724
79598W        W51913  20.162  28.163  12.085
79599W        W51914  16.308  26.533   0.457
79600W        W51915  19.115  27.341   0.880
79601W        W51916  32.852  14.669   3.894
79602W        W51917  10.894  44.396  11.566
79603W        W51918  26.218  30.855   0.500
79604W        W51919  15.420  19.884  14.102
79605W        W51920  38.880  25.716   3.247
79606W        W51921  44.578  41.411   0.208
79607W        W51922  33.425   4.384   3.465
79608W        W51923   3.195  27.689  11.510
79609W        W51924  23.093  43.362  13.709
79610W        W51925  24.058  22.804  14.994
79611W        W51926  24.975  19.582  12.796
79612W        W51927  32.110  23.704   4.144
79613W        W51928  38.151  37.587   2.816
79614W        W51929  23.455  42.790   1.408
79615W        W51930   8.412  28.965   2.395
79616W        W51931  40.571  29.991   0.750
79617W        W51932  15.890   1.493   3.234
79618W        W51933   8.288  32.922  11.956
79619W        W51934  15.495  28.459  13.410
79620W        W51935  42.294  25.708   4.715
79621W        W51936  44.156  18.706   0.329
79622W        W51937  12.035  24.145  12.335
79623W        W51938  42.928   2.848  14.136
79624W        W51939  16.306   3.356  11.657
79625W        W51940  41.818  43.490   2.374
79626W        W51941   7.705  31.924   1.971
79627W        W51942  19.178   7.399   4.923
79628W        W51943  28.171  18.275  11.337
79629W        W51944  30.069  21.515  11.517
79630W        W51945  19.286  28.707  13.444
79631W        W51946  37.442   3.866  13.885
79632W        W51947  39.247  41.518   0.416
79633W        W51948   9.295  42.883   3.171
79634W        W51949  36.909  30.714   1.836
79635W        W51950  11.625  25.529   0.321
79636W        W51951   3.954  39.807   4.075
79637W        W51952  38.953  37.691  14.165
79638W        W51953  43.179  21.652   0.714
79639W        W51954   5.331  16.052   0.287
79640W        W51955  39.805  31.530  14.971
79641W        W51956  39.479  32.872   3.187
79642W        W51957   3.729  16.504   3.345
79643W        W51958  43.620  29.214   0.286
79644W        W51959   9.825   3.587   4.062
79645W        W51960  29.503  15.353   2.216
79646W        W51961   3.738   0.090   4.051
79647W        W51962  38.930  28.605   1.212
79648W        W51963  30.434  32.102  12.892
79649W        W51964  35.232  40.777   0.580
79650W        W51965  12.894  26.996   5.184
79651W        W51966  38.277   4.472   1.331
79652W        W51967  29.442  22.901   2.780
79653W        W51968  37.390   2.082   2.462
79654W        W51969   9.319  24.978   4.714
79655W        W51970  40.244  17.698  10.731
79656W        W51971  23.805   0.042  12.509
79657W        W51972  36.474  23.273  12.047
79658W        W51973  30.646  31.572  14.954
79659W        W51974  42.386  10.760   3.021
79660W        W51975   1.810   2.519   1.018
79661W        W51976  38.370  34.353  14.880
79662W        W51977  40.706   8.182  11.336
79663W        W51978  18.277  11.671   0.358
79664W        W51979  16.085  41.909   3.845
79665W        W51980  41.318  27.890  14.999
79666W        W51981  22.928   2.675   2.673
79667W        W51982  15.517  27.073   0.320
79668W        W51983  24.169  15.828  14.423
79669W        W51984  33.524  34.618  14.881
79670W        W51985   3.047  43.399   3.278
79671W        W51986  27.725   7.418  14.519
79672W        W51987   8.351  22.577   0.379
79673W        W51988  25.759   0.031   3.171
79674W        W51989   1.489  29.429   1.366
79675W        W51990  27.121  14.024  12.056
79676W        W51991   2.740  17.791  13.500
79677W        W51992  21.245  21.678   0.575
79678W        W51993  26.771   1.701   3.172
79679W        W51994  11.137  39.912  12.926
79680W        W51995  17.698   1.654   3.571
79681W        W51996  14.903  29.102   1.705
79682W        W51997  29.889  40.526  13.092
79683W        W51998  11.255   7.749   3.840
79684W        W51999   2.001   1.585  11.874
79685W        W52000  14.654  38.132   4.088
79686W        W52001  38.271  35.205   0.841
79687W        W52002   3.124  41.256  11.716
79688W        W52003  18.442  30.693  11.515
79689W        W52004   5.409  11.086   1.331
79690W        W52005  18.557  15.696  14.842
79691W        W52006   3.269  42.284  12.940
79692W        W52007  27.356   8.056   1.914
79693W        W52008  20.562   7.648   2.791
79694W        W52009  20.250  14.260  14.830
79695W        W52010  27.883  16.099   9.563
79696W        W52011  31.601  21.895  12.516
79697W        W52012   3.478  13.214   5.032
79698W        W52013   1.125  23.008  11.506
79699W        W52014   5.866  31.578  12.968
79700W        W52015  32.985  32.930   0.912
79701W        W52016  44.467  37.334   1.249
79702W        W52017  31.346  14.849   0.101
79703W        W52018  42.286  16.674   4.648
79704W        W52019   0.977  44.903   3.749
79705W        W52020  42.448  35.594  10.982
79706W        W52021  31.005  37.864   3.178
79707W        W52022  31.002  19.890   4.111
79708W        W52023  18.830  11.348   3.200
79709W        W52024  33.419  42.500   2.828
79710W        W52025  13.146  18.785  10.019
79711W        W52026  41.603  11.292   3.164
79712W        W52027  36.637  25.334  11.824
79713W        W52028  33.100   0.533  13.158
79714W        W52029  18.623  22.457  13.020
79715W        W52030  38.092  16.909  12.522
79716W        W52031   7.227  16.768  11.180
79717W        W52032  23.329  33.826  10.779
79718W        W52033  40.998  44.396  11.363
79719W        W52034  30.205  35.846   4.316
79720W        W52035  40.212  11.719   4.050
79721W        W52036  38.352  34.382   4.373
79722W        W52037  29.076  17.098   0.417
79723W        W52038  35.324  10.788   0.921
79724W        W52039  33.930  14.093   3.491
79725W        W52040  39.738  27.671  10.823
79726W        W52041  36.399  27.185   0.914
79727W        W52042  11.783  19.581   1.857
79728W        W52043  44.928   4.965  14.545
79729W        W52044  38.751   0.037  11.727
79730W        W52045   9.059  23.570   2.663
79731W        W52046  30.992  11.006   1.781
79732W        W52047  14.122  16.813  11.297
79733W        W52048  14.143  44.829  10.472
79734W        W52049   8.268  20.303   3.064
79735W        W52050   8.400  31.349   0.250
79736W        W52051  26.588  43.385  12.096
79737W        W52052  40.843  39.935  11.865
79738W        W52053  29.046  13.808   4.164
79739W        W52054  21.535  22.284  11.851
79740W        W52055  39.037   5.968   1.348
79741W        W52056   2.877  36.874   3.436
79742W        W52057  26.956  28.732  13.304
79743W        W52058  34.316  40.865   4.757
79744W        W52059   7.702  29.596   1.184
79745W        W52060  15.440  31.428   0.357
79746W        W52061   0.809  30.207  10.610
79747W        W52062  14.754   4.871  13.295
79748W        W52063  29.699  44.516   4.080
79749W        W52064   4.048  39.912   2.819
79750W        W52065   1.383  34.403  13.931
79751W        W52066  30.855  13.312  13.064
79752W        W52067  30.598  16.372   1.283
79753W        W52068  25.504  35.301   3.594
79754W        W52069  37.082  42.615  14.416
79755W        W52070  12.878  16.959   4.030
79756W        W52071   9.888  42.735   1.727
79757W        W52072  24.966  35.273  11.205
79758W        W52073  40.615  26.546  11.588
79759W        W52074  14.316   3.177  11.159
79760W        W52075   5.142  43.412   2.233
79761W        W52076  20.050  14.104  11.267
79762W        W52077  21.486   2.429  14.762
79763W        W52078  30.469   1.894   4.278
79764W        W52079  20.028   7.521   0.779
79765W        W52080  25.794  29.441   4.327
79766W        W52081  42.844  16.103   1.413
79767W        W52082  26.684  36.549  13.864
79768W        W52083  18.739  36.425   4.225
79769W        W52084  44.857   8.272  10.670
79770W        W52085  29.028   6.344   3.758
79771W        W52086   6.871   9.265   3.394
79772W        W52087   7.016  14.455   1.691
79773W        W52088   5.788  39.559  10.513
79774W        W52089  38.384  21.129   1.655
79775W        W52090   4.730  40.391  14.857
79776W        W52091  18.162  19.987  10.933
79777W        W52092  19.665  27.136  14.504
79778W        W52093  31.711   8.270   2.684
79779W        W52094   7.816   9.349  11.134
79780W        W52095  36.349  32.511  12.585
79781W        W52096   0.254  29.978  14.415
79782W        W52097  24.065  24.569   2.139
79783W        W52098   3.412   0.447  14.384
79784W        W52099   4.801  20.447   2.086
79785W        W52100  44.770  13.310  13.361
79786W        W52101   1.152  19.154  11.560
79787W        W52102  36.851   0.402   0.802
79788W        W52103  36.554  32.074   2.708
79789W        W52104  33.160  17.755  12.879
79790W        W52105   0.154  32.105  14.672
79791W        W52106  38.477  43.986   2.735
79792W        W52107  15.745  16.037  12.003
79793W        W52108  43.808  43.034  14.012
79794W        W52109  12.320  35.148  11.934
79795W        W52110  43.420  39.825   4.399
79796W        W52111   9.231  33.112  11.502
79797W        W52112   4.807  38.270   3.398
79798W        W52113  16.717   2.724   2.546
79799W        W52114   2.100  13.795   4.343
79800W        W52115   4.580  44.698   3.247
79801W        W52116  26.202  29.758   4.277
79802W        W52117  20.139   7.911   1.772
79803W        W52118  31.063  29.610   4.463
79804W        W52119  16.621  26.177  11.425
79805W        W52120  42.962  37.391   1.337
79806W        W52121  11.854  15.543  11.915
79807W        W52122   5.295   5.725   2.333
79808W        W52123  19.087  44.277  10.082
79809W        W52124   9.210   5.231   3.637
79810W        W52125  24.246   6.806  13.649
79811W        W52126   1.487  10.856  13.929
79812W        W52127  20.079  40.581   4.623
79813W        W52128  34.699   7.943  10.980
79814W        W52129  38.912  18.315   0.024
79815W        W52130  11.783  30.581   0.714
79816W        W52131  20.702  21.971  13.869
79817W        W52132  37.995   7.056  12.385
79818W        W52133  29.110  29.092  12.223
79819W        W52134  12.363  42.310  13.399
79820W        W52135   3.311  40.584   1.188
79821W        W52136   7.461  33.185  11.560
79822W        W52137  43.862  16.801   1.691
79823W        W52138  28.813  41.722   2.743
79824W        W52139  20.672  38.366  11.754
79825W        W52140  40.792   1.858   0.456
79826W        W52141  17.220  41.824   0.828
79827W        W52142   1.263   6.659  11.113
79828W        W52143  25.038  26.993  14.229
79829W        W52144  16.567  13.699   2.793
79830W        W52145   9.201  13.550   2.670
79831W        W52146  37.623  18.213  10.613
79832W        W52147  43.632  33.258  10.025
79833W        W52148  35.131   4.917   0.026
79834W        W52149   5.053  18.284   1.686
79835W        W52150  35.462  10.641   1.703
79836W        W52151  40.515  25.069   0.226
79837W        W52152   8.814  40.862   0.021
79838W        W52153   4.165  13.643   2.905
79839W        W52154   1.724  34.089   4.207
79840W        W52155   0.941  43.502   0.383
79841W        W52156  34.423  38.608  14.323
79842W        W52157  42.496  32.855   0.908
79843W        W52158  31.625  11.264   1.504
79844W        W52159   8.529  21.899   1.993
79845W        W52160  28.406   0.046  12.391
79846W        W52161  16.116  13.126   0.484
79847W        W52162  25.396  31.617  14.865
79848W        W52163  41.529  16.223  14.367
79849W        W52164  15.411  36.701  11.205
79850W        W52165  18.985  38.166   5.409
79851W        W52166  30.163   1.516  13.131
79852W        W52167  10.806   7.626  11.646
79853W        W52168  23.358  40.321  11.706
79854W        W52169  14.675  21.597  12.186
79855W        W52170   1.757   1.168   3.215
79856W        W52171   6.151  42.894  10.294
79857W        W52172   2.065  27.634  12.031
79858W        W52173  15.390  40.797   3.646
79859W        W52174  23.293  35.902   2.682
79860W        W52175  31.680  18.605  11.936
79861W        W52176  41.787  29.170  14.866
79862W        W52177  44.695  38.021   3.389
79863W        W52178  14.658  37.579  14.335
79864W        W52179  30.239   0.981  12.013
79865W        W52180  31.365  14.664   2.092
79866W        W52181  34.100  42.898   1.291
79867W        W52182   2.859  35.951  13.591
79868W        W52183  27.287  35.069  14.513
79869W        W52184  37.878  30.081   2.926
79870W        W52185   0.716  24.482  11.975
79871W        W52186  29.053  40.725  13.408
79872W        W52187  36.565  42.385   4.631
79873W        W52188  43.211  43.846  10.794
79874W        W52189  16.188  22.765  10.920
79875W        W52190  10.630  35.597  12.975
79876W        W52191  40.808   8.278   0.238
79877W        W52192  17.273  38.396   3.263
79878W        W52193  28.290  40.009  11.258
79879W        W52194   7.219   4.337  14.725
79880W        W52195  36.369   9.724   3.722
79881W        W52196  34.535   2.470  12.858
79882W        W52197  42.589  30.238   0.012
79883W        W52198   4.160  21.790  11.428
79884W        W52199   5.909  28.269  14.462
79885W        W52200  11.269  11.217  13.942
79886W        W52201   2.429  41.874  10.770
79887W        W52202   1.000  40.421  13.082
79888W        W52203  12.038  21.785  13.934
79889W        W52204  10.341   8.301   4.526
79890W        W52205  23.276  27.013  10.654
79891W        W52206  34.887   7.940   2.789
79892W        W52207  44.855  16.335   1.336
79893W        W52208   8.961  35.384  14.139
79894W        W52209  25.760  44.864   4.913
79895W        W52210  29.476  36.441  11.498
79896W        W52211  22.690  39.155   1.673
79897W        W52212  42.522  10.914  10.685
79898W        W52213  10.072  33.037  14.259
79899W        W52214  33.610  18.627   3.691
79900W        W52215  22.694  18.771   5.021
79901W        W52216  40.302  31.977   1.208
79902W        W52217  17.806  21.262  13.781
79903W        W52218  44.193  31.795   3.582
79904W        W52219  17.446  22.288   2.301
79905W        W52220  26.920  35.408   2.115
79906W        W52221  40.563  34.557   2.273
79907W        W52222  14.654  43.091   3.589
79908W        W52223  13.154  21.625  11.596
79909W        W52224  38.489  35.806   2.129
79910W        W52225  33.571  26.118   2.121
79911W        W52226  27.603   9.632  11.497
79912W        W52227   0.278  10.936  12.786
79913W        W52228  12.723  31.488   4.654
79914W        W52229  38.956  30.666   3.645
79915W        W52230   9.545  25.719   3.463
79916W        W52231  10.335  14.879   1.679
79917W        W52232  11.219  11.098   3.298
79918W        W52233   0.153  44.553   2.664
79919W        W52234  20.783  31.494  12.815
79920W        W52235  21.088  43.563   4.709
79921W        W52236  32.942  15.753  10.740
79922W        W52237  13.246  37.353   1.371
79923W        W52238  18.235  44.080   3.201
79924W        W52239   4.493  12.148   0.913
79925W        W52240   0.888  17.791   3.585
79926W        W52241  11.970  24.050  10.308
79927W        W52242  22.814  36.874   1.854
79928W        W52243  37.888  39.056   4.798
79929W        W52244  28.469  40.442   0.299
79930W        W52245  36.070  33.575  12.548
79931W        W52246  22.475  11.342   3.574
79932W        W52247   0.498  17.992  12.208
79933W        W52248  17.398  32.504   2.439
79934W        W52249  15.271  10.396  13.474
79935W        W52250  38.071  40.580  11.566
79936W        W52251  15.558  43.030   4.614
79937W        W52252  25.911   3.049   4.988
79938W        W52253  28.936  28.371   3.708
79939W        W52254   1.479  15.209  11.589
79940W        W52255  12.206  44.020   0.021
79941W        W52256  17.156  22.517   0.584
79942W        W52257  11.400  44.792  12.820
79943W        W52258  32.579  14.985   3.617
79944W        W52259   9.621   3.851  10.346
79945W        W52260  44.446  35.283  13.476
79946W        W52261  34.938  27.004  13.347
79947W        W52262   2.863  20.990   3.747
79948W        W52263   1.305  21.883   3.702
79949W        W52264  34.818  36.022   0.119
79950W        W52265  10.214  30.150   3.169
79951W        W52266  12.411  22.381   1.057
79952W        W52267  40.980   8.175  13.389
79953W        W52268  24.906  16.107  13.995
79954W        W52269  32.189  17.231  11.630
79955W        W52270  23.107   5.689   0.047
79956W        W52271   8.669  32.035  13.970
79957W        W52272  22.098   1.881  14.962
79958W        W52273  21.575   4.980  12.047
79959W        W52274  25.128   9.758  13.331
79960W        W52275  23.150   6.414  13.757
79961W        W52276  25.672   6.276   0.274
79962W        W52277   6.424  20.023   1.448
79963W        W52278  29.233  38.793   0.241
79964W        W52279   3.714   5.435   1.776
79965W        W52280   9.450  20.714  11.515
79966W        W52281  23.497  28.056  13.246
79967W        W52282  10.661  30.647   0.320
79968W        W52283  14.786  11.364   2.222
79969W        W52284   9.367   6.878   1.510
79970W        W52285  12.037  37.413   0.463
79971W        W52286  25.212  11.773   1.365
79972W        W52287  14.654  32.425   1.453
79973W        W52288  10.812  37.504   4.118
79974W        W52289   2.961   4.056   4.195
79975W        W52290   1.418   9.752   3.694
79976W        W52291  37.912   5.612   3.698
79977W        W52292   9.889   2.049   0.836
79978W        W52293  29.440  30.421  12.522
79979W        W52294  26.685  11.301  11.050
79980W        W52295   3.977  27.726   0.385
79981W        W52296  28.456  36.825  13.647
79982W        W52297   9.590  11.261   4.770
79983W        W52298   4.823   0.331   0.330
79984W        W52299  30.468  37.537  12.758
79985W        W52300  12.884  14.040   4.237
79986W        W52301   2.388  23.723   2.843
79987W        W52302  10.017  23.423  13.711
79988W        W52303   0.465  16.866   4.259
79989W        W52304   1.980  10.155   0.338
79990W        W52305   8.751  14.205   1.620
79991W        W52306  37.538   3.746  13.356
79992W        W52307  24.621   4.486   4.209
79993W        W52308  36.003  12.340  12.454
79994W        W52309  39.519  39.013   4.849
79995W        W52310  25.195  11.320   4.262
79996W        W52311  25.090  29.899  14.534
79997W        W52312  37.026  37.788   3.354
79998W        W52313  41.332  23.530   4.620
79999W        W52314  35.085  36.878  11.142
80000W        W52315  19.209  10.457   0.415
80001W        W52316   9.696  32.680   1.289
80002W        W52317  35.100   4.960  11.023
80003W        W52318  29.889  22.787  11.147
80004W        W52319   1.217  35.591  13.309
80005W        W52320  33.197  42.969  10.562
80006W        W52321  22.101  22.327  12.864
80007W        W52322  20.324   8.205   4.369
80008W        W52323  15.648  25.166   1.849
80009W        W52324  41.561   4.808  14.881
80010W        W52325  41.606  13.766  14.053
80011W        W52326   8.033  23.183   1.133
80012W        W52327  27.375   3.463  14.594
80013W        W52328   8.317  33.042   1.021
80014W        W52329   8.411  23.322  10.522
80015W        W52330   6.533  43.733   0.115
80016W        W52331  16.749  33.104  14.676
80017W        W52332   8.821  41.342  13.890
80018W        W52333  27.652   3.610   3.362
80019W        W52334   8.530  22.744  14.940
80020W        W52335  29.066  36.908   3.562
80021W        W52336  29.668  18.746  13.963
80022W        W52337  28.135  30.875   3.835
80023W        W52338  42.538   0.779  10.922
80024W        W52339  12.177  24.736  14.704
80025W        W52340  39.587  11.585  13.063
80026W        W52341  17.412   6.944  14.842
80027W        W52342  40.854  39.037   3.597
80028W        W52343  28.618  16.041  12.365
80029W        W52344  26.592  28.992  10.974
80030W        W52345  20.220  44.542   3.694
80031W        W52346  26.284  32.104  10.232
80032W        W52347   8.732  34.707   1.196
80033W        W52348   8.765  16.729  10.597
80034W        W52349  25.638   1.785  13.005
80035W        W52350  19.549  12.041  13.106
80036W        W52351   1.984  38.985  11.224
80037W        W52352  35.434  36.734   3.233
80038W        W52353  24.146  31.397  11.187
80039W        W52354  16.969  37.516  11.237
80040W        W52355   8.791   9.662  12.357
80041W        W52356  16.245  40.332   4.705
80042W        W52357  34.248  39.283   4.040
80043W        W52358  37.675  41.545   1.787
80044W        W52359  21.428  24.581  14.430
80045W        W52360  21.230  13.533  13.823
80046W        W52361  21.538  28.742  12.526
80047W        W52362  10.815  12.238  11.430
80048W        W52363   5.336  36.026  12.599
80049W        W52364   5.443  29.168  13.880
80050W        W52365  38.448  12.965   3.726
80051W        W52366  41.739   5.911   4.027
80052W        W52367   1.371  32.714   3.867
80053W        W52368  26.157  23.088  11.063
80054W        W52369  32.512  12.695   4.492
80055W        W52370   4.802  30.910  13.049
80056W        W52371  26.661  16.383  14.831
80057W        W52372  12.237  31.426   4.340
80058W        W52373  43.493   2.099  11.677
80059W        W52374  22.781  43.667  13.361
80060W        W52375   8.188  15.038  12.786
80061W        W52376  25.954   6.348  14.831
80062W        W52377  22.436  12.035  12.517
80063W        W52378  21.956  18.199   2.195
80064W        W52379   1.687  12.647  12.026
80065W        W52380  31.761  31.151   0.332
80066W        W52381  44.342  44.865  14.528
80067W        W52382  12.180  19.637   3.745
80068W        W52383  37.971   8.938  13.679
80069W        W52384   2.210  44.932  14.543
80070W        W52385  30.056  18.523  13.057
80071W        W52386   8.283  11.667   3.152
80072W        W52387   3.392  28.755   3.787
80073W        W52388  22.009  15.662   1.792
80074W        W52389  42.824   3.691   0.806
80075W        W52390  14.290  22.835  14.596
80076W        W52391   6.318  14.276  10.928
80077W        W52392  10.102  24.531  11.539
80078W        W52393   0.248  25.600   2.243
80079W        W52394  42.764  28.671   2.873
80080W        W52395  18.736  24.638  12.121
80081W        W52396  39.121  32.665   2.321
80082W        W52397   1.381  41.457   0.257
80083W        W52398  25.641  18.134   0.333
80084W        W52399  34.888  28.487  13.960
80085W        W52400   0.028  31.636  12.068
80086W        W52401   1.333  12.610   4.561
80087W        W52402  31.952  40.448   5.209
80088W        W52403   6.336  11.204   0.378
80089W        W52404  19.136  41.548   4.076
80090W        W52405  43.486  11.101  12.569
80091W        W52406  38.482  39.291  12.006
80092W        W52407  33.597  10.226   0.687
80093W        W52408  38.788   4.814   3.079
80094W        W52409  33.425  16.668   2.196
80095W        W52410  15.863  31.486  13.058
80096W        W52411  23.881   7.958   4.538
80097W        W52412  16.845  21.943   3.106
80098W        W52413  13.652  25.223   2.676
80099W        W52414  20.603   0.702  10.703
80100W        W52415   9.370  25.687   2.395
80101W        W52416  33.672  10.323  12.588
80102W        W52417  27.148  34.983   3.333
80103W        W52418  36.301  33.558   5.022
80104W        W52419  19.308  10.587  14.910
80105W        W52420  36.853   3.466   1.947
80106W        W52421  33.045   3.895   1.008
80107W        W52422  27.462   6.732   0.700
80108W        W52423  37.814  32.094   2.281
80109W        W52424  11.232  27.948   3.679
80110W        W52425   3.279   5.510  10.548
80111W        W52426  12.800  22.122  14.844
80112W        W52427  32.171   9.844  13.437
80113W        W52428  12.633  38.415   3.771
80114W        W52429  10.814  16.040  13.951
80115W        W52430  22.626   7.732   4.162
80116W        W52431  33.327  44.821  14.848
80117W        W52432  38.746  41.018  13.807
80118W        W52433   3.666  13.600   2.789
80119W        W52434   4.464  15.850  14.067
80120W        W52435   7.224  14.069  12.047
80121W        W52436   2.508  40.365  12.923
80122W        W52437  32.365  33.836  14.708
80123W        W52438  27.662  30.010   3.381
80124W        W52439  19.864  20.301  14.082
80125W        W52440  19.094  25.813  12.313
80126W        W52441  28.034  42.746  13.401
80127W        W52442  35.735  18.194   3.899
80128W        W52443  26.002  27.564   0.005
80129W        W52444  44.958  10.202   4.680
80130W        W52445   4.664  20.583  14.224
80131W        W52446  10.036  22.273   3.261
80132W        W52447  31.877  40.966  10.675
80133W        W52448   0.246  43.492  11.604
80134W        W52449  14.042  18.041   1.004
80135W        W52450  33.560  42.734  13.033
80136W        W52451  23.508   1.785  14.963
80137W        W52452  37.317   7.619  11.080
80138W        W52453  12.617  26.529   4.744
80139W        W52454  42.383  11.713   3.088
80140W        W52455  29.543  43.492  11.953
80141W        W52456   3.412   1.439   3.772
80142W        W52457  10.177   2.477  14.049
80143W        W52458  25.083  24.205   1.312
80144W        W52459  18.800  29.037  10.242
80145W        W52460   9.192  35.947  10.642
80146W        W52461  19.183  40.339  13.696
80147W        W52462   1.619  34.915  12.003
80148W        W52463  13.759  30.549   1.245
80149W        W52464  30.926   2.640  12.405
80150W        W52465   2.220  20.341   0.379
80151W        W52466  38.586  17.185  14.219
80152W        W52467  23.768   9.836  13.556
80153W        W52468  14.485  32.834  11.635
80154W        W52469   9.339  14.813   0.618
80155W        W52470  30.062  36.978  11.511
80156W        W52471  11.758  35.561  11.183
80157W        W52472  40.632   8.885   1.354
80158W        W52473  26.933  33.557   2.283
80159W        W52474   9.367  34.366  13.077
80160W        W52475  31.868  13.290   2.818
80161W        W52476  34.416   7.948  12.571
80162W        W52477  34.982  34.137   4.633
80163W        W52478  33.915  13.208  14.060
80164W        W52479  36.610   0.976   1.651
80165W        W52480  18.595  34.579   2.609
80166W        W52481  20.315  27.989   1.739
80167W        W52482  10.941  37.486  14.388
80168W        W52483  39.739  27.116  12.823
80169W        W52484  33.115  13.786  11.371
80170W        W52485   5.546  24.560  13.205
80171W        W52486   8.892  17.749   3.169
80172W        W52487  33.474  11.952   4.416
80173W        W52488   1.457  33.143  13.296
80174W        W52489   3.465  16.769  11.042
80175W        W52490   3.139   9.345   2.196
80176W        W52491   5.202  36.366   2.354
80177W        W52492  26.175  39.945  10.360
80178W        W52493  29.743  34.392   2.759
80179W        W52494  27.253  32.440  10.056
80180W        W52495  35.824   6.275   3.216
80181W        W52496  33.094  10.376  12.923
80182W        W52497   8.840  44.048   2.621
80183W        W52498  32.145   6.350   1.199
80184W        W52499  32.556  28.545  14.278
80185W        W52500   7.290   3.407   4.343
80186W        W52501  41.004   3.912   0.214
80187W        W52502  11.718  29.073  14.244
80188W        W52503  26.004   4.631   5.132
80189W        W52504  29.007  31.439  10.741
80190W        W52505   7.129   7.008  13.283
80191W        W52506  20.158  14.374   2.839
80192W        W52507  27.800   7.453   0.080
80193W        W52508  36.156  26.053  12.415
80194W        W52509   3.393  15.207  14.350
80195W        W52510  35.443   0.675  11.448
80196W        W52511  23.787  37.070   4.746
80197W        W52512  29.119  31.239   1.353
80198W        W52513  33.982  29.483  13.840
80199W        W52514  15.251  17.141   3.626
80200W        W52515  20.718  23.486  13.109
80201W        W52516  44.256  30.001   0.441
80202W        W52517  19.725  21.009  11.681
80203W        W52518  37.333  23.376  11.811
80204W        W52519  27.232  31.954  14.774
80205W        W52520   1.944   0.088   1.316
80206W        W52521  12.652  21.959   4.583
80207W        W52522   1.496  16.195   0.539
80208W        W52523  24.222  11.566   2.356
80209W        W52524   3.485  39.068   0.452
80210W        W52525   6.335  32.067   3.646
80211W        W52526  12.483  37.573  11.004
80212W        W52527   4.186  31.533  13.365
80213W        W52528  31.529  32.445  12.596
80214W        W52529  44.298  33.983   1.986
80215W        W52530  31.890  35.545   0.882
80216W        W52531  19.234   7.108  13.636
80217W        W52532  18.008  12.131   0.365
80218W        W52533  41.477  22.283   4.426
80219W        W52534  36.566  22.229  13.846
80220W        W52535   5.686  30.493   3.221
80221W        W52536  31.370  21.479   0.262
80222W        W52537  31.827   9.785   1.969
80223W        W52538  38.868   6.806  14.831
80224W        W52539  32.445  10.609  10.308
80225W        W52540   1.069  32.986  13.632
80226W        W52541  27.595  11.023  12.111
80227W        W52542  13.320  41.327   0.737
80228W        W52543   7.720  23.531   3.906
80229W        W52544  10.201  29.969   4.101
80230W        W52545  33.512  39.083   0.902
80231W        W52546   4.681   8.125   3.200
80232W        W52547  27.039  33.389   1.770
80233W        W52548  37.712   9.376  11.210
80234W        W52549  18.621   0.398  11.914
80235W        W52550  27.896  18.689  11.587
80236W        W52551  43.986  38.930  10.101
80237W        W52552  41.858  38.071   1.221
80238W        W52553  25.496  15.129   0.249
80239W        W52554   0.443   2.922   3.641
80240W        W52555  38.970  23.597   9.804
80241W        W52556  36.045   2.389  13.389
80242W        W52557   4.364  38.017  13.972
80243W        W52558   0.060  13.374  12.370
80244W        W52559   1.503   4.664  13.796
80245W        W52560   5.920  19.319  14.296
80246W        W52561  42.409  32.916  11.182
80247W        W52562  28.147  23.756   4.352
80248W        W52563  12.455   9.741   0.093
80249W        W52564  41.354  32.426   1.877
80250W        W52565   8.650  28.576   3.183
80251W        W52566  24.780   1.446  11.086
80252W        W52567  43.923  32.530  11.112
80253W        W52568  16.795  26.748   0.438
80254W        W52569   1.407  28.687  14.871
80255W        W52570  38.434  11.897  14.481
80256W        W52571   0.343  44.058   2.738
80257W        W52572  23.311  16.530   4.142
80258W        W52573  28.594  19.227   0.695
80259W        W52574  38.951  15.214   3.480
80260W        W52575  14.897   4.631  12.357
80261W        W52576  20.062   4.240  13.832
80262W        W52577  33.128   3.853  11.958
80263W        W52578  25.967  22.783   0.835
80264W        W52579  19.739   3.904  11.241
80265W        W52580  39.494  36.762   2.321
80266W        W52581  44.468  15.752   5.135
80267W        W52582  35.460  26.789   3.258
80268W        W52583   7.441  26.099   0.711
80269W        W52584  10.918  21.111  11.607
80270W        W52585  28.428   5.910  14.081
80271W        W52586  18.307  38.665  12.364
80272W        W52587  32.099  43.747   3.358
80273W        W52588  16.369   7.212   4.430
80274W        W52589  35.839  35.076   0.709
80275W        W52590  44.782  43.027  13.177
80276W        W52591  43.267  11.952  12.159
80277W        W52592  25.126  10.366   0.477
80278W        W52593   6.230  35.186  12.561
80279W        W52594   7.391  18.363   2.629
80280W        W52595  23.185  12.158  10.732
80281W        W52596   0.711  44.815  14.789
80282W        W52597  20.182  13.312   1.318
80283W        W52598  12.379   2.911   2.168
80284W        W52599  27.151   8.760   1.378
80285W        W52600  41.502  16.051   2.705
80286W        W52601  34.975  24.121   5.068
80287W        W52602  20.426  43.840  11.104
80288W        W52603  29.911  13.649  11.762
80289W        W52604  41.722  30.035   4.267
80290W        W52605  34.579  10.624   3.784
80291W        W52606  21.234  44.419  12.968
80292W        W52607   0.196  19.175   4.613
80293W        W52608  19.688  33.368  14.366
80294W        W52609  17.113  11.889   2.705
80295W        W52610  32.445   9.206  12.077
80296W        W52611  35.801  30.144  13.468
80297W        W52612   8.295   4.003   4.561
80298W        W52613  33.315   2.134   1.459
80299W        W52614  40.482  33.342  12.483
80300W        W52615   3.887  33.808   2.177
80301W        W52616  33.598  41.287  11.113
80302W        W52617  13.150   8.765   4.425
80303W        W52618  36.517   5.300  14.734
80304W        W52619  37.921  34.002   4.184
80305W        W52620   2.944  10.444  13.831
80306W        W52621  38.057  33.413  12.701
80307W        W52622  17.867  39.064   4.154
80308W        W52623   0.786  31.918   4.238
80309W        W52624  39.410  38.101   4.802
80310W        W52625  25.867  23.715   2.740
80311W        W52626  34.934   8.822   2.890
80312W        W52627  30.050   4.422   3.390
80313W        W52628  38.360  41.875  12.962
80314W        W52629  21.718  41.311   2.315
80315W        W52630  14.743  41.832  13.575
80316W        W52631   7.878  42.377   0.198
80317W        W52632  14.016  20.959  12.629
80318W        W52633  25.074   5.914  11.622
80319W        W52634  21.649  23.588   0.947
80320W        W52635  42.976  35.607   1.819
80321W        W52636   2.338  19.512  14.236
80322W        W52637  44.938  34.929   1.337
80323W        W52638  36.872  39.602  13.871
80324W        W52639  37.808   5.335  10.452
80325W        W52640  43.909  44.772   1.755
80326W        W52641  41.855  41.877  11.192
80327W        W52642  12.833  42.804  12.368
80328W        W52643  25.126  32.131  13.032
80329W        W52644   2.336   3.894   0.191
80330W        W52645  10.309  43.360   4.647
80331W        W52646   2.298  32.541   4.533
80332W        W52647   2.811  38.433  13.795
80333W        W52648  25.989   3.525  10.696
80334W        W52649  44.903  18.301   2.749
80335W        W52650  43.531  28.863   1.337
80336W        W52651  31.462   8.245   4.091
80337W        W52652  43.105  40.130   4.652
80338W        W52653  35.089  29.201  14.052
80339W        W52654  14.284   4.254   0.830
80340W        W52655  20.683  37.935   3.013
80341W        W52656  15.915  25.546   4.090
80342W        W52657   1.432  10.394   2.901
80343W        W52658   3.790  42.980   0.914
80344W        W52659   8.704  37.468   4.540
80345W        W52660   3.317  18.639   3.899
80346W        W52661  21.034  37.808  12.543
80347W        W52662  26.982  31.227   0.810
80348W        W52663  40.512  28.974   2.466
80349W        W52664   2.852  35.840   3.586
80350W        W52665  42.966  24.558  14.499
80351W        W52666  13.452  39.230   2.913
80352W        W52667  16.777  36.268   2.720
80353W        W52668  34.598   6.915   1.325
80354W        W52669  32.146  27.166   1.723
80355W        W52670  34.973  33.999  11.365
80356W        W52671  25.648  13.506   2.751
80357W        W52672  34.247  37.526  10.123
80358W        W52673  20.498  42.281   1.768
80359W        W52674   6.776   4.170   2.785
80360W        W52675  25.414  19.174  13.452
80361W        W52676  11.789  17.742   3.736
80362W        W52677  30.008  26.955  11.927
80363W        W52678  38.794  11.152  14.208
80364W        W52679  33.084   2.005   0.602
80365W        W52680  31.551  18.691   1.619
80366W        W52681  23.142   9.122   3.770
80367W        W52682   9.159   8.488   2.266
80368W        W52683  22.668  29.671  13.430
80369W        W52684  43.465  35.006   2.217
80370W        W52685   1.266  12.153   0.328
80371W        W52686  13.131  19.610  11.177
80372W        W52687  37.932  21.551  14.869
80373W        W52688   9.395  39.949  14.340
80374W        W52689  14.763  30.723  12.573
80375W        W52690  29.567  27.716  14.503
80376W        W52691   2.421   1.359  14.783
80377W        W52692  37.667  40.107  11.204
80378W        W52693   2.805  16.196   4.758
80379W        W52694  35.664  37.067  14.038
80380W        W52695  23.765  37.784  12.080
80381W        W52696  31.966  24.664   0.846
80382W        W52697  11.802  26.507   3.672
80383W        W52698  42.082  15.690  14.360
80384W        W52699  10.061   5.636   1.529
80385W        W52700  39.750  24.560  11.399
80386W        W52701  42.229  18.810   2.259
80387W        W52702  35.332  10.124  13.553
80388W        W52703   8.383  21.278  13.789
80389W        W52704   0.909  30.978   3.415
80390W        W52705  19.739   8.249   1.791
80391W        W52706  32.216  34.467   4.641
80392W        W52707  17.259  18.727   2.635
80393W        W52708  35.832  21.268  13.446
80394W        W52709  14.493  44.421  10.286
80395W        W52710   0.976  44.336  12.626
80396W        W52711  21.676  20.816   5.296
80397W        W52712  34.535   7.423   4.268
80398W        W52713   7.430  32.459  10.777
80399W        W52714  34.585  15.786   3.553
80400W        W52715   8.594  43.839  11.412
80401W        W52716  33.697  36.158   0.803
80402W        W52717   7.509  31.042   0.017
80403W        W52718  27.141  16.790  12.860
80404W        W52719  35.398  29.508   4.094
80405W        W52720  35.630  10.894   4.658
80406W        W52721  16.058   7.332   2.882
80407W        W52722  17.167   1.469   0.451
80408W        W52723  43.349   7.147  11.053
80409W        W52724  22.084  15.050   2.380
80410W        W52725  35.919  18.719   1.830
80411W        W52726  17.278  10.139   3.317
80412W        W52727  25.873  10.694  13.428
80413W        W52728  23.886  38.786  10.459
80414W        W52729  40.716  25.753  14.904
80415W        W52730  22.612  25.092  10.688
80416W        W52731   6.515  10.534   1.516
80417W        W52732  32.009   2.551   2.042
80418W        W52733  11.661  23.450   1.714
80419W        W52734  14.008   3.994   4.364
80420W        W52735  30.369  26.022  11.965
80421W        W52736  21.736  42.835   4.163
80422W        W52737  10.714  40.632  14.748
80423W        W52738  41.405   4.526  14.335
80424W        W52739  23.292   7.387   2.279
80425W        W52740  23.728  44.190   1.658
80426W        W52741  28.438  35.515  10.667
80427W        W52742  28.882  15.838   0.924
80428W        W52743   3.930  20.275  10.575
80429W        W52744  40.964   1.012  12.292
80430W        W52745  34.026  27.569   1.794
80431W        W52746  35.342  31.371   2.310
80432W        W52747  10.703  36.630   2.870
80433W        W52748   0.097  16.178  13.154
80434W        W52749  12.338  13.213   4.568
80435W        W52750   0.494  24.226   0.499
80436W        W52751   4.891  13.913  11.676
80437W        W52752  33.137   9.693   4.616
80438W        W52753   5.447   2.528   4.641
80439W        W52754  21.748   8.221   0.378
80440W        W52755  37.199  21.552  11.593
80441W        W52756  41.899   4.827  12.060
80442W        W52757  38.272  18.701  13.153
80443W        W52758  25.748  25.810  13.000
80444W        W52759  11.785  43.024   1.633
80445W        W52760  29.529  22.191   1.029
80446W        W52761  11.679   1.564   2.756
80447W        W52762  28.965  37.054   2.649
80448W        W52763  23.258  12.284  13.471
80449W        W52764  22.995  41.612  14.708
80450W        W52765  35.249  42.570   0.320
80451W        W52766  29.558  42.345   4.708
80452W        W52767  38.537  21.140   0.657
80453W        W52768  13.588  12.983  12.419
80454W        W52769   5.371  22.994  11.565
80455W        W52770  41.101   0.625   3.638
80456W        W52771  16.567   0.497  13.795
80457W        W52772  29.122  35.402   2.728
80458W        W52773  19.124  36.461   3.358
80459W        W52774  36.960   3.030   4.353
80460W        W52775  34.028   9.246   0.817
80461W        W52776  18.523  44.961   4.098
80462W        W52777  36.090   2.735  12.287
80463W        W52778  31.386  27.654   4.325
80464W        W52779  22.493   0.843   0.279
80465W        W52780  30.400   4.464  11.613
80466W        W52781  14.387  31.382   3.084
80467W        W52782  38.311  42.358  10.638
80468W        W52783   0.489  33.959  10.377
80469W        W52784  29.302  32.390   9.812
80470W        W52785   2.459   2.816   0.758
80471W        W52786  20.736   2.207   2.684
80472W        W52787  34.600  20.054  14.975
80473W        W52788  38.391  39.098   4.002
80474W        W52789  10.734  43.968   3.202
80475W        W52790  40.784   8.175  12.023
80476W        W52791   5.919  13.787   0.308
80477W        W52792  29.299   3.657   4.156
80478W        W52793  20.037   8.895   0.926
80479W        W52794  21.541  18.040  14.576
80480W        W52795  16.115  38.519   4.549
80481W        W52796  14.108  19.131   0.166
80482W        W52797  41.407  32.600   4.579
80483W        W52798  17.556  41.397   5.148
80484W        W52799  42.227  11.370  13.007
80485W        W52800  30.061  38.213   4.875
80486W        W52801   0.256  17.140  10.915
80487W        W52802  28.909  44.796  11.528
80488W        W52803  44.225  36.857   4.031
80489W        W52804  16.747  22.747   0.352
80490W        W52805  28.382  11.586   2.839
80491W        W52806   7.754  30.177   3.146
80492W        W52807   5.846  19.108  11.542
80493W        W52808  19.237  34.835  12.004
80494W        W52809   1.713  37.542   0.740
80495W        W52810  26.569  19.797   1.508
80496W        W52811  24.443  24.700  14.122
80497W        W52812  18.696   2.465  14.336
80498W        W52813  12.947  19.638  14.979
80499W        W52814   8.214  20.248   3.579
80500W        W52815  22.705   5.544   3.698
80501W        W52816  23.492  42.535   0.010
80502W        W52817  31.220  20.622   4.648
80503W        W52818  38.810  27.204  13.267
80504W        W52819   8.050  11.156   3.108
80505W        W52820  34.984  10.812  12.012
80506W        W52821   7.578  42.966  10.755
80507W        W52822   8.250   4.918  11.434
80508W        W52823  20.843   0.489   0.822
80509W        W52824   2.803  26.186   0.912
80510W        W52825  39.614  31.125   0.768
80511W        W52826   0.672   4.072   4.083
80512W        W52827   5.902   2.231  11.988
80513W        W52828  12.855  37.799  11.942
80514W        W52829  20.917  16.022  11.533
80515W        W52830  14.684  16.668   3.648
80516W        W52831  26.087  25.672   2.459
80517W        W52832  17.620  40.576   5.383
80518W        W52833  10.378  11.852  14.394
80519W        W52834  13.291  28.917   0.846
80520W        W52835   4.927  22.476   3.637
80521W        W52836  41.743  17.571  13.154
80522W        W52837  12.531  37.127   2.376
80523W        W52838   0.454  42.032  14.868
80524W        W52839   3.120  22.739  14.691
80525W        W52840  28.332  25.414  12.025
80526W        W52841  21.534  27.681  11.458
80527W        W52842   4.761  21.769   1.461
80528W        W52843  27.380  37.527   4.965
80529W        W52844  38.313  33.048   2.164
80530W        W52845  38.080  26.209   9.839
80531W        W52846  41.861  37.962  13.610
80532W        W52847  25.653  16.131   1.482
80533W        W52848   3.857  34.160   1.674
80534W        W52849  15.313  37.844  11.031
80535W        W52850   0.444   7.771   4.736
80536W        W52851   6.538  12.100   2.062
80537W        W52852  39.570  42.758  12.903
80538W        W52853  14.114  44.495   4.531
80539W        W52854   6.553  27.463  12.412
80540W        W52855  11.270  35.160  12.242
80541W        W52856  39.968  16.261  12.459
80542W        W52857  38.011  14.187   1.938
80543W        W52858   1.809  17.080  14.959
80544W        W52859  39.730  39.495  11.607
80545W        W52860  41.933  32.412  12.869
80546W        W52861  11.764  41.322  12.583
80547W        W52862  16.342  20.985   0.817
80548W        W52863  40.782  17.128   0.903
80549W        W52864  29.148  32.860   2.252
80550W        W52865   9.912   3.037  14.432
80551W        W52866  28.429  19.453   3.344
80552W        W52867  16.570  31.907   5.087
80553W        W52868  38.399  38.606   4.118
80554W        W52869  21.130  38.575   1.267
80555W        W52870   8.373  42.800   1.510
80556W        W52871  29.818  18.173   4.321
80557W        W52872  42.542  13.196   4.881
80558W        W52873  34.372  29.157  12.505
80559W        W52874  25.035  38.328   4.525
80560W        W52875   3.518  31.948   2.275
80561W        W52876  44.199  32.690   4.139
80562W        W52877  37.916  17.954   1.610
80563W        W52878  16.788  30.642  13.873
80564W        W52879  27.608  29.963   3.876
80565W        W52880  38.502  27.222   9.868
80566W        W52881  33.955  26.638  10.698
80567W        W52882  42.542  18.613  11.208
80568W        W52883  21.029  19.534   4.666
80569W        W52884  39.066   9.774   3.572
80570W        W52885  14.951  40.005   0.828
80571W        W52886  18.747   6.238  11.597
80572W        W52887   6.397  22.608   3.257
80573W        W52888  16.197  29.003   2.707
80574W        W52889  17.441  22.571   1.007
80575W        W52890  22.057  40.942  12.566
80576W        W52891  41.363  37.073  13.282
80577W        W52892  40.405   9.173   3.017
80578W        W52893   0.161  37.774  14.885
80579W        W52894  35.621  17.578   2.213
80580W        W52895  37.998   8.937  13.155
80581W        W52896  13.848  27.112   1.924
80582W        W52897   7.367  36.035  13.845
80583W        W52898  14.734  23.401  10.631
80584W        W52899  28.139  12.642  12.370
80585W        W52900  21.760  41.955  14.930
80586W        W52901   8.608   0.935   1.262
80587W        W52902   9.596  32.584  11.399
80588W        W52903  24.627  43.945  11.144
80589W        W52904  16.862   8.797  11.553
80590W        W52905  27.445  39.090   2.384
80591W        W52906  21.843  15.228  11.575
80592W        W52907  16.793  15.014   0.977
80593W        W52908  24.782  29.464   3.993
80594W        W52909  18.780  17.702  10.391
80595W        W52910  26.929  42.514  10.714
80596W        W52911  15.757   8.830  12.943
80597W        W52912  44.190  26.607   1.934
80598W        W52913  13.721  16.302  13.906
80599W        W52914  19.623  39.476  13.327
80600W        W52915  21.628  29.371  11.980
80601W        W52916  43.654  43.904  11.568
80602W        W52917  40.850  18.536  14.370
80603W        W52918  18.520  17.292  13.856
80604W        W52919  24.668  13.628   4.269
80605W        W52920  33.053   5.546   2.765
80606W        W52921   9.512  37.589  14.421
80607W        W52922  34.783  29.373   1.347
80608W        W52923  14.134   0.081  14.782
80609W        W52924  19.468  13.913   3.286
80610W        W52925   9.499   7.637   3.167
80611W        W52926  23.421   6.771   1.189
80612W        W52927  21.091   8.181  10.394
80613W        W52928  31.868  43.541  13.128
80614W        W52929  29.341  12.023  12.122
80615W        W52930  27.992   7.343   2.803
80616W        W52931   0.962  19.237   1.568
80617W        W52932  13.204  21.578  13.638
80618W        W52933  43.345  28.538   4.175
80619W        W52934  25.510  39.377   4.639
80620W        W52935   7.164   0.875   0.348
80621W        W52936  11.762  12.390   3.578
80622W        W52937  23.460  20.052  10.684
80623W        W52938  18.863   8.865  11.655
80624W        W52939   8.938  41.840  10.728
80625W        W52940  24.218  44.274  13.845
80626W        W52941  28.975  13.770  10.751
80627W        W52942  27.043  36.375  14.434
80628W        W52943  37.565  41.025   2.254
80629W        W52944   3.221  44.185  14.893
80630W        W52945   8.779   7.310  13.036
80631W        W52946   3.491  13.250  14.550
80632W        W52947   6.501   6.349   4.627
80633W        W52948   8.677  23.052   3.705
80634W        W52949  36.527   2.793   4.132
80635W        W52950  37.775  11.195   1.939
80636W        W52951  31.722   3.453   0.962
80637W        W52952   5.141   3.298   1.083
80638W        W52953  19.123  25.916  14.806
80639W        W52954  17.784  28.662  13.459
80640W        W52955  11.067  22.092  14.299
80641W        W52956   0.701  21.696   3.394
80642W        W52957  12.964  24.704   2.339
80643W        W52958  17.345  22.934   2.664
80644W        W52959  42.950  15.381  14.946
80645W        W52960   2.819  27.094   0.369
80646W        W52961   4.903  38.103  10.703
80647W        W52962   8.743  12.822  10.703
80648W        W52963  35.585  27.424  14.795
80649W        W52964  35.390  14.013   1.811
80650W        W52965  15.659  34.393   1.769
80651W        W52966  37.924   0.960   3.255
80652W        W52967  15.929  26.211   0.255
80653W        W52968  15.055   1.268  10.552
80654W        W52969  14.942  18.706  13.959
80655W        W52970  30.093  36.970   4.795
80656W        W52971  19.587  33.900  14.330
80657W        W52972   1.226   1.385   0.443
80658W        W52973   0.528  25.540   1.793
80659W        W52974  16.267   8.683  12.926
80660W        W52975   8.573  37.971   0.291
80661W        W52976  40.998  42.841   1.850
80662W        W52977   0.833  11.930  12.979
80663W        W52978  23.561   0.842   4.386
80664W        W52979  44.049   3.904  10.739
80665W        W52980  10.875   4.997  13.824
80666W        W52981  27.732   1.324   4.320
80667W        W52982  20.799  24.944  10.329
80668W        W52983  42.043  24.060  10.662
80669W        W52984  31.071  42.302   3.703
80670W        W52985   0.114  14.340  13.901
80671W        W52986   4.275   4.684  12.841
80672W        W52987  44.673  11.121   4.380
80673W        W52988   3.208   2.854  14.261
80674W        W52989  13.592  26.763   0.422
80675W        W52990  17.807  16.314  14.853
80676W        W52991  21.109  34.493   2.126
80677W        W52992  30.653  34.171   1.817
80678W        W52993  19.214  19.545  13.467
80679W        W52994   8.736  19.969   5.162
80680W        W52995  26.151  33.884   4.178
80681W        W52996  30.099  42.410   1.927
80682W        W52997  25.050  18.742  13.811
80683W        W52998   6.406  11.132  11.973
80684W        W52999   0.938  11.934  10.699
80685W        W53000   4.818  37.193  11.722
80686W        W53001  24.176  24.460   4.101
80687W        W53002  19.672  10.899   5.528
80688W        W53003  26.980  22.019   4.184
80689W        W53004  35.521  22.716   3.780
80690W        W53005  12.858  38.313  11.931
80691W        W53006   8.843  22.984   4.675
80692W        W53007  15.856  34.844   1.848
80693W        W53008  37.741   2.468  14.955
80694W        W53009  22.961   4.899   4.675
80695W        W53010  29.995  35.900   4.784
80696W        W53011  40.449  25.953  14.167
80697W        W53012  34.455  18.028   4.231
80698W        W53013  21.656   2.336  12.067
80699W        W53014   0.647  27.196  11.719
80700W        W53015  29.066   8.807   2.225
80701W        W53016  24.455  43.801  13.854
80702W        W53017  29.220  29.409   2.606
80703W        W53018   5.522   7.653   0.917
80704W        W53019  41.515  39.387  11.216
80705W        W53020  20.587  17.724   0.830
80706W        W53021   8.168  44.641   2.262
80707W        W53022  40.979   2.433   1.207
80708W        W53023  44.210  25.157   0.855
80709W        W53024  28.120  15.032   0.472
80710W        W53025  11.092  20.458   0.913
80711W        W53026  35.398  24.199   0.322
80712W        W53027  37.518  13.890   4.076
80713W        W53028  39.384  17.738   1.338
80714W        W53029  40.285  17.570   4.573
80715W        W53030   9.173  25.679   3.849
80716W        W53031  39.399  15.271  11.626
80717W        W53032  24.297  30.406  12.036
80718W        W53033  31.107   9.796   0.751
80719W        W53034  29.734  37.594  13.615
80720W        W53035  21.183   3.499   0.307
80721W        W53036   8.799   8.345   4.566
80722W        W53037   5.746  28.468   2.697
80723W        W53038   7.652   1.924   3.787
80724W        W53039   4.747  17.097  10.896
80725W        W53040  20.107  16.641  14.255
80726W        W53041  14.328  39.863  12.079
80727W        W53042   6.846  15.559  12.074
80728W        W53043  34.875   1.363  12.996
80729W        W53044  25.633  29.288  12.578
80730W        W53045  33.530  16.668   3.301
80731W        W53046  25.902  31.978   2.919
80732W        W53047   7.914   0.862   1.826
80733W        W53048  31.615   8.853  11.598
80734W        W53049  33.457  28.484  11.631
80735W        W53050  33.907   4.378   4.267
80736W        W53051  16.336  29.899   4.750
80737W        W53052   1.381  36.142   0.914
80738W        W53053  21.198   3.828   2.910
80739W        W53054   2.561  15.657  14.288
80740W        W53055  29.389  14.049  10.610
80741W        W53056  17.348  26.856   2.215
80742W        W53057   1.961   2.321  11.170
80743W        W53058   3.728  42.405  11.971
80744W        W53059  34.136  27.888  10.713
80745W        W53060  20.418  35.045  13.550
80746W        W53061  11.808  44.836  13.173
80747W        W53062  22.641  21.807   3.301
80748W        W53063  25.443   6.611   4.206
80749W        W53064  20.281  43.812  14.896
80750W        W53065  31.044  26.048   4.307
80751W        W53066  38.860   1.443   1.774
80752W        W53067  14.512  29.499  13.821
80753W        W53068   7.630  24.969   0.606
80754W        W53069  11.632  30.471   2.401
80755W        W53070  28.026   7.268   1.880
80756W        W53071  28.042  29.595  13.390
80757W        W53072  12.241   5.277   2.223
80758W        W53073  22.820   2.775  13.430
80759W        W53074   7.393  23.152  12.071
80760W        W53075  11.184   4.978  12.550
80761W        W53076  28.895  44.197   2.521
80762W        W53077  24.180  34.379   1.389
80763W        W53078  43.260   9.427   1.247
80764W        W53079   3.490  23.218   2.653
80765W        W53080   9.615  28.112  14.995
80766W        W53081  18.465  12.571   1.888
80767W        W53082  24.654  13.821   1.046
80768W        W53083  44.919  41.266  11.630
80769W        W53084  44.102  29.526   1.497
80770W        W53085  44.752  35.522  11.126
80771W        W53086  12.086  29.246   2.386
80772W        W53087   4.031   0.716  10.647
80773W        W53088  40.213   2.314  11.795
80774W        W53089  27.892   6.305  11.978
80775W        W53090  40.260  12.651  13.064
80776W        W53091  15.747   4.014   3.002
80777W        W53092  15.722  39.522  11.059
80778W        W53093  16.696  15.499   4.253
80779W        W53094  40.052  35.133   0.285
80780W        W53095  40.899  31.043  12.375
80781W        W53096  19.564   9.140   1.381
80782W        W53097  39.043  21.875   0.711
80783W        W53098  42.753  37.291   0.703
80784W        W53099   5.886  24.796  12.355
80785W        W53100  17.228  17.343   0.710
80786W        W53101  42.915   3.262   2.760
80787W        W53102  15.943  13.673   3.418
80788W        W53103  13.294  22.202   1.505
80789W        W53104  31.385  30.173   1.625
80790W        W53105  16.342  15.988   0.393
80791W        W53106  34.951   8.240   4.238
80792W        W53107  43.407   1.814   0.247
80793W        W53108   6.432   5.324  11.618
80794W        W53109  25.142  43.755   2.479
80795W        W53110   9.709  24.598  13.445
80796W        W53111  22.985  10.954   0.007
80797W        W53112  23.095  33.021   0.877
80798W        W53113  38.000  27.969   0.403
80799W        W53114  29.182  22.136  12.047
80800W        W53115  22.230   7.750  13.384
80801W        W53116  34.435  39.859   4.562
80802W        W53117  43.350   5.225   0.407
80803W        W53118  12.315  10.934   4.182
80804W        W53119  28.034  37.584   1.620
80805W        W53120  25.155  12.747  12.791
80806W        W53121  18.709  23.005  13.178
80807W        W53122  37.423   6.811  11.579
80808W        W53123  33.453  19.837   3.120
80809W        W53124  31.928  35.161   3.226
80810W        W53125  26.691  44.829   1.916
80811W        W53126   7.393   5.067   3.165
80812W        W53127  26.211  43.446  13.510
80813W        W53128   8.796  44.955  14.652
80814W        W53129  43.925  13.135   4.688
80815W        W53130  39.960  24.644  10.593
80816W        W53131  40.680  34.713  12.834
80817W        W53132  15.992  14.015  13.907
80818W        W53133  35.784  43.997  14.758
80819W        W53134  40.969  17.999   2.139
80820W        W53135   2.886  23.531   4.569
80821W        W53136  29.162   7.377   3.943
80822W        W53137  38.305  36.610   4.097
80823W        W53138  29.152  35.991   1.908
80824W        W53139   0.916  35.820  11.629
80825W        W53140  34.911  42.221   2.864
80826W        W53141  28.742  42.381   4.079
80827W        W53142  12.285  40.566  11.648
80828W        W53143  27.157   9.501  13.118
80829W        W53144   4.796  34.602   4.082
80830W        W53145   5.436  20.747   4.164
80831W        W53146  11.706  27.424  11.907
80832W        W53147  32.615  38.067  11.865
80833W        W53148   5.435   6.188  10.910
80834W        W53149  41.751  19.690   4.019
80835W        W53150   7.426  16.214  12.550
80836W        W53151  10.999  30.889  10.896
80837W        W53152  23.985  34.599   3.084
80838W        W53153   4.256   7.848  12.638
80839W        W53154  12.297  32.400   2.835
80840W        W53155  16.680   5.619   0.872
80841W        W53156  32.488   5.427   3.726
80842W        W53157  25.498  33.891   1.017
80843W        W53158  19.361  16.020   2.279
80844W        W53159   1.248  43.333  11.605
80845W        W53160  41.877   4.693  14.214
80846W        W53161  16.713  28.885  11.724
80847W        W53162  37.540  27.453   1.908
80848W        W53163  21.687  27.425   4.934
80849W        W53164  12.254  12.760   1.962
80850W        W53165   8.826  11.681   3.237
80851W        W53166   1.190   9.360  12.060
80852W        W53167  11.636   9.810  11.888
80853W        W53168  29.154  25.029  10.722
80854W        W53169  26.494  38.764   2.425
80855W        W53170  16.706   9.286   4.663
80856W        W53171  23.665  43.432   2.248
80857W        W53172  24.179  33.673  10.364
80858W        W53173  42.673  34.667   3.307
80859W        W53174  35.986  14.295   1.200
80860W        W53175  39.226  34.573  14.176
80861W        W53176  41.810  24.145   1.905
80862W        W53177   9.210  18.601  11.592
80863W        W53178  11.590  41.847   0.629
80864W        W53179  10.850  10.899  12.545
80865W        W53180  31.079   1.952  10.729
80866W        W53181  29.952  28.666   4.652
80867W        W53182  25.851  30.409   1.246
80868W        W53183  43.450  20.690   1.729
80869W        W53184  13.213  19.097  13.835
80870W        W53185  31.676   3.120  12.821
80871W        W53186  24.303  43.935  12.490
80872W        W53187  40.433   6.054  14.817
80873W        W53188   2.882  21.825  11.530
80874W        W53189  36.375   9.231   1.388
80875W        W53190  41.325  28.699  14.444
80876W        W53191   1.327  34.904   4.188
80877W        W53192  12.412   3.295   3.194
80878W        W53193  29.927  19.031  13.064
80879W        W53194   1.703  40.910   0.778
80880W        W53195  20.116  10.931  12.887
80881W        W53196  33.440  41.293  13.024
80882W        W53197  25.729  22.386   2.414
80883W        W53198   9.296  41.531  11.656
80884W        W53199  14.126  10.759  13.816
80885W        W53200  15.172   1.854   1.179
80886W        W53201   7.208  23.445   3.725
80887W        W53202  18.538  33.572   3.238
80888W        W53203  29.053   4.025   3.337
80889W        W53204   7.858  29.566  11.889
80890W        W53205   7.079  28.604  12.315
80891W        W53206  12.230  32.937  13.504
80892W        W53207  40.296  24.447  13.917
80893W        W53208  32.404  26.162  14.308
80894W        W53209  18.846  11.174   2.672
80895W        W53210  41.637   2.791  11.871
80896W        W53211  18.712  25.543  13.157
80897W        W53212   7.481  19.889  14.940
80898W        W53213   7.315  22.666  13.845
80899W        W53214  17.485  23.465   3.631
80900W        W53215  40.516  29.588  10.731
80901W        W53216  39.076  39.526   1.320
80902W        W53217  11.183  11.425  10.600
80903W        W53218  31.740  25.651   1.516
80904W        W53219   7.166  30.401   3.606
80905W        W53220  14.791   2.205   4.248
80906W        W53221  28.516  20.153  11.507
80907W        W53222  10.768  26.766  10.704
80908W        W53223  13.254  19.174   4.990
80909W        W53224  42.465  30.666  14.757
80910W        W53225  19.239  40.072  14.947
80911W        W53226  40.228   3.214   2.310
80912W        W53227  10.233   4.662   4.723
80913W        W53228   1.362  28.160   3.729
80914W        W53229  40.047  25.625   4.174
80915W        W53230  42.512  37.083  10.925
80916W        W53231  27.161  31.998   4.119
80917W        W53232  43.508   5.463  12.233
80918W        W53233   2.196   5.237   1.794
80919W        W53234  37.357  39.368  13.822
80920W        W53235   2.794   8.323  13.777
80921W        W53236  32.197   9.699   2.434
80922W        W53237   0.396  20.510  10.925
80923W        W53238  31.045  30.849   4.167
80924W        W53239  30.047  14.261  11.197
80925W        W53240  16.135  39.614  12.873
80926W        W53241  28.211  44.261   0.246
80927W        W53242  18.571  20.288   1.029
80928W        W53243  17.404  15.731   3.748
80929W        W53244  10.327  13.388   1.645
80930W        W53245  11.798   2.919  10.562
80931W        W53246  17.839  32.973   3.212
80932W        W53247  16.571   8.661   2.856
80933W        W53248  18.017  10.771   4.578
80934W        W53249  14.675  13.067   0.444
80935W        W53250  29.605   3.918   0.267
80936W        W53251  13.114  27.513   1.778
80937W        W53252  27.957  42.533  13.911
80938W        W53253   2.684  40.526   3.947
80939W        W53254  28.522   3.473   0.965
80940W        W53255  30.352   4.995  12.510
80941W        W53256  32.244  30.756  10.638
80942W        W53257   4.341  28.117   4.657
80943W        W53258  35.630  43.233   3.878
80944W        W53259  39.551   1.634   4.644
80945W        W53260  39.485  29.561  13.932
80946W        W53261  24.216  12.332   2.701
80947W        W53262  39.395  28.078  10.703
80948W        W53263  10.070  13.343  14.019
80949W        W53264  10.818  39.369   4.586
80950W        W53265   8.172  20.260   2.160
80951W        W53266  26.002  42.830   2.062
80952W        W53267  39.310  25.555  11.509
80953W        W53268  18.687  25.381  12.658
80954W        W53269  37.082  22.731   4.226
80955W        W53270  23.779  29.509   4.226
80956W        W53271  17.129   4.375  14.361
80957W        W53272   2.949  22.253  14.817
80958W        W53273  39.913  11.280   4.138
80959W        W53274  23.752  35.014  11.670
80960W        W53275  20.189  26.324  13.789
80961W        W53276  11.676  15.712  14.814
80962W        W53277  38.936  11.255  12.871
80963W        W53278   1.281  13.667   2.377
80964W        W53279  26.362  16.789   3.659
80965W        W53280  19.680   0.953  10.461
80966W        W53281  10.156   4.809  13.448
80967W        W53282  38.286   6.707   2.100
80968W        W53283   5.491   6.788  11.638
80969W        W53284   9.609  16.608  13.823
80970W        W53285   5.730   9.194   2.344
80971W        W53286  14.224  30.987   3.579
80972W        W53287  30.109  25.179   2.310
80973W        W53288  29.812  22.097  11.525
80974W        W53289  36.851  24.618   1.749
80975W        W53290  17.914  31.966   1.766
80976W        W53291   0.674  31.424   3.569
80977W        W53292  34.385   9.350  14.414
80978W        W53293  35.904  27.632  14.331
80979W        W53294  43.075  38.511   2.833
80980W        W53295   9.195   9.629  12.701
80981W        W53296  22.705  32.095  14.256
80982W        W53297   1.504   2.510  11.065
80983W        W53298  27.939  30.989  13.187
80984W        W53299   9.919  21.554  11.445
80985W        W53300   3.756  30.427   2.311
80986W        W53301   9.363  38.971  14.245
80987W        W53302  27.669  24.261  12.070
80988W        W53303   8.577  33.904  10.695
80989W        W53304  35.425   2.175   1.908
80990W        W53305  11.157  22.471  10.454
80991W        W53306  28.062   4.120  14.537
80992W        W53307  43.454  36.744   1.688
80993W        W53308  10.698  43.610  11.061
80994W        W53309  44.081  22.996   4.238
80995W        W53310  13.337  35.843   4.526
80996W        W53311  35.424  36.207  13.886
80997W        W53312  29.907  29.476  14.946
80998W        W53313  10.926  40.552  11.596
80999W        W53314  38.982   0.021  11.263
81000W        W53315  35.500  17.721   3.197
81001W        W53316  14.799  40.455  10.697
81002W        W53317   8.653  42.271   1.273
81003W        W53318  29.504  44.847  11.875
81004W        W53319  28.628  28.781  13.390
81005W        W53320  19.705  37.945   0.995
81006W        W53321   7.795  32.398   3.597
81007W        W53322  42.249   6.191  13.070
81008W        W53323   5.907  18.699  10.643
81009W        W53324   6.920  39.643   0.407
81010W        W53325  37.577  33.390   3.265
81011W        W53326  30.039  19.622  10.720
81012W        W53327  43.115  12.074   4.231
81013W        W53328  40.349   3.715   3.155
81014W        W53329  17.062  30.652   2.345
81015W        W53330  39.579  15.150  12.109
81016W        W53331  35.374  37.855   0.181
81017W        W53332   5.057   1.502  11.557
81018W        W53333  36.207   3.492  12.149
81019W        W53334  19.796  24.014  13.104
81020W        W53335   3.161   7.446   3.981
81021W        W53336  14.583  44.990   0.879
81022W        W53337  18.805  18.016  13.379
81023W        W53338   1.426  34.882   1.421
81024W        W53339   4.262  23.340   2.458
81025W        W53340  33.416   3.443  11.838
81026W        W53341  12.715  44.978   0.858
81027W        W53342  42.143   2.111   2.799
81028W        W53343  36.545  13.043  10.328
81029W        W53344  21.227  38.100  13.688
81030W        W53345  26.619  27.609  14.158
81031W        W53346  14.866  38.114   1.851
81032W        W53347   5.927  40.111  12.846
81033W        W53348  29.693  10.161  11.081
81034W        W53349   5.608  20.154   3.614
81035W        W53350   2.336  28.088   4.958
81036W        W53351  37.863   2.809  13.555
81037W        W53352   7.693   5.676  13.884
81038W        W53353  25.108  43.295   2.207
81039W        W53354  20.457  28.998   0.349
81040W        W53355  39.927  30.128   4.792
81041W        W53356   4.997  42.798  12.982
81042W        W53357  27.615   0.581   3.298
81043W        W53358   8.114  29.112  13.572
81044W        W53359   1.768  44.281   1.821
81045W        W53360  44.349  21.621  11.030
81046W        W53361  28.957  29.704  12.888
81047W        W53362  31.576  27.525   0.944
81048W        W53363  15.377  25.631  14.005
81049W        W53364   2.832  29.994   4.162
81050W        W53365  16.750  40.019   2.849
81051W        W53366  22.766  28.951   0.660
81052W        W53367  25.760  22.246  14.836
81053W        W53368  32.613  24.837  11.814
81054W        W53369  13.656  16.034  11.798
81055W        W53370  29.821  43.384   0.511
81056W        W53371  15.716  21.556  11.127
81057W        W53372  40.358  43.214   2.816
81058W        W53373  15.574  44.531  14.004
81059W        W53374   8.300  32.909   2.794
81060W        W53375  40.825  39.401  14.894
81061W        W53376  37.299  30.584   1.429
81062W        W53377  39.523  17.748  11.112
81063W        W53378   2.126   4.878   5.089
81064W        W53379  17.583  10.688  13.368
81065W        W53380  19.103  22.104  13.582
81066W        W53381   8.437  18.522  13.540
81067W        W53382  11.280  13.365  10.742
81068W        W53383  24.686  43.337   4.084
81069W        W53384  26.987  40.453  12.210
81070W        W53385  11.391  34.047   4.070
81071W        W53386  40.258  23.579   0.954
81072W        W53387  25.321   5.010  13.470
81073W        W53388  14.896   9.152  14.638
81074W        W53389   6.075  39.929   4.017
81075W        W53390  25.227  30.582   3.700
81076W        W53391  38.768  32.957  11.147
81077W        W53392   2.132  35.335  10.868
81078W        W53393  27.419  27.766   1.294
81079W        W53394  25.964  11.029   3.680
81080W        W53395   2.021  20.175  14.904
81081W        W53396  23.511  18.968  10.207
81082W        W53397  13.906  15.635  10.665
81083W        W53398  10.093   7.708   4.905
81084W        W53399  14.841  29.437  14.463
81085W        W53400  25.676  25.881  14.015
81086W        W53401  26.609  44.469   1.515
81087W        W53402  44.375  30.110   2.838
81088W        W53403  31.627   0.229  10.397
81089W        W53404   8.156  32.747   4.101
81090W        W53405  35.436  34.583  14.863
81091W        W53406  14.036  33.513  14.805
81092W        W53407  24.617  36.570   1.565
81093W        W53408  26.657   0.550   0.853
81094W        W53409   9.348  36.448  11.203
81095W        W53410   6.460  13.802  10.848
81096W        W53411  12.409  21.120   0.922
81097W        W53412   4.458  14.063   2.761
81098W        W53413   6.809  29.462  13.292
81099W        W53414  25.002   7.386   4.015
81100W        W53415  40.816   2.120   4.591
81101W        W53416  39.457  40.521   0.309
81102W        W53417  37.595  29.820   4.238
81103W        W53418   2.380   3.144   3.435
81104W        W53419  13.559   9.999   4.061
81105W        W53420   2.724  12.132  14.437
81106W        W53421  23.005   5.454  12.987
81107W        W53422  22.838  18.967  12.546
81108W        W53423  15.745   7.992   0.376
81109W        W53424   2.056  20.575   2.410
81110W        W53425   7.886   0.546  14.013
81111W        W53426  23.252  28.932   2.758
81112W        W53427  20.183   7.648   3.805
81113W        W53428  44.769  31.541  13.483
81114W        W53429  42.870  14.525   4.538
81115W        W53430  33.739  29.344   2.208
81116W        W53431  28.022  24.984  14.742
81117W        W53432   8.739  18.468  12.715
81118W        W53433  34.118   5.389   3.634
81119W        W53434  44.518   0.950   2.693
81120W        W53435  43.102  27.084   4.009
81121W        W53436  33.982   3.825  12.465
81122W        W53437  42.575  22.077   4.670
81123W        W53438  39.591  23.623   3.204
81124W        W53439  28.867  18.448  13.512
81125W        W53440   7.453  22.046  11.500
81126W        W53441  21.492  16.316  12.951
81127W        W53442  42.514  31.363  12.048
81128W        W53443   1.771  29.306   3.271
81129W        W53444  28.164  39.097  11.638
81130W        W53445  26.463  42.419  13.872
81131W        W53446  12.417  42.112   2.318
81132W        W53447  31.537  13.339   1.213
81133W        W53448  33.544  16.751   3.809
81134W        W53449  26.448  38.898   1.485
81135W        W53450  18.258  25.962   4.167
81136W        W53451  17.241  21.243   0.941
81137W        W53452  20.176  20.924   0.175
81138W        W53453  36.116  22.677   0.901
81139W        W53454   5.827  43.527  14.282
81140W        W53455  10.222  26.528  11.457
81141W        W53456   4.766  36.551   2.133
81142W        W53457   4.271   1.294   2.748
81143W        W53458  18.675  28.093   3.702
81144W        W53459  30.204  30.598   2.056
81145W        W53460  40.371  23.617   1.483
81146W        W53461  18.023  36.170  12.491
81147W        W53462   2.128  28.188  14.988
81148W        W53463  22.649  37.747  10.807
81149W        W53464   8.747  32.087  14.900
81150W        W53465  28.035  24.076   4.752
81151W        W53466  19.227  16.196  10.345
81152W        W53467  40.007  22.642   4.211
81153W        W53468   8.468  35.927  12.899
81154W        W53469  13.195  34.642   3.275
81155W        W53470  18.685   3.988   4.074
81156W        W53471   0.746  41.535  10.771
81157W        W53472  32.349  27.536  11.746
81158W        W53473  17.985   9.686  14.449
81159W        W53474  11.260  41.535  10.655
81160W        W53475  42.205  40.744  12.665
81161W        W53476  38.411  31.637  12.965
81162W        W53477   4.304  16.685  14.069
81163W        W53478  23.298  11.170  14.560
81164W        W53479  22.083  43.912   4.571
81165W        W53480  27.617  27.264   1.824
81166W        W53481  18.145  11.613  14.456
81167W        W53482  17.717  11.813  12.876
81168W        W53483  37.310   2.454   2.094
81169W        W53484  44.720  20.011  11.161
81170W        W53485  12.262  16.210  14.370
81171W        W53486  24.080  38.018  10.625
81172W        W53487  14.252  26.411   3.520
81173W        W53488  11.382  33.272   0.912
81174W        W53489   8.782  22.104   1.559
81175W        W53490  18.196   1.594  12.080
81176W        W53491  36.217  37.213  12.778
81177W        W53492  18.201  16.168   1.880
81178W        W53493  10.888  22.185   4.166
81179W        W53494  10.207  16.832  12.135
81180W        W53495  14.146  39.290   0.830
81181W        W53496  13.181  10.127  12.956
81182W        W53497  21.053  15.387  13.024
81183W        W53498  35.836  17.025  13.055
81184W        W53499   9.285  32.167  11.507
81185W        W53500  33.931   5.168  10.891
81186W        W53501  16.047  41.837   4.547
81187W        W53502  34.505  32.134  12.865
81188W        W53503  26.616  33.093   5.051
81189W        W53504  34.117  21.203   4.686
81190W        W53505  42.514  28.603  13.122
81191W        W53506  27.458  42.766  13.865
81192W        W53507  30.097   7.654  11.067
81193W        W53508   1.079   4.204   2.315
81194W        W53509  37.581   0.108   3.645
81195W        W53510  23.344  24.024  13.549
81196W        W53511  27.021   0.647  11.113
81197W        W53512   0.789  33.624   5.286
81198W        W53513  41.566  28.104  12.396
81199W        W53514  34.940  26.020   2.796
81200W        W53515  43.391   3.276  11.145
81201W        W53516  32.921  41.826  14.004
81202W        W53517  21.972  17.920  11.094
81203W        W53518  35.001  38.932  11.673
81204W        W53519  44.731  11.897   0.151
81205W        W53520  26.285   6.343   4.773
81206W        W53521  14.808  44.843   0.437
81207W        W53522  37.567  17.065  14.399
81208W        W53523  31.669  17.570  10.639
81209W        W53524   7.774   2.336   2.387
81210W        W53525   5.807  28.129   2.281
81211W        W53526  12.639  32.872  11.057
81212W        W53527  34.812   2.121  14.481
81213W        W53528  17.549  35.543  12.269
81214W        W53529  42.059   2.400   1.975
81215W        W53530  10.291   2.179  11.188
81216W        W53531   3.403  44.925   0.425
81217W        W53532  17.640  12.375   2.766
81218W        W53533  33.376   6.871  10.078
81219W        W53534  28.595  12.761   4.500
81220W        W53535  19.834  23.015  12.187
81221W        W53536   2.456   9.753  14.704
81222W        W53537   3.387  31.106  11.555
81223W        W53538  33.614   6.013   0.862
81224W        W53539  27.732  43.281   4.081
81225W        W53540  10.222  31.956  11.122
81226W        W53541   5.365   5.702   3.845
81227W        W53542  12.961  36.535   1.505
81228W        W53543  35.223  26.314   3.158
81229W        W53544  18.508  10.626  13.405
81230W        W53545   2.515  11.698  10.522
81231W        W53546  11.643  25.042   5.173
81232W        W53547   4.930  11.807  12.781
81233W        W53548   4.704   3.272   3.908
81234W        W53549  35.620  36.434   1.796
81235W        W53550   2.489  37.341  13.243
81236W        W53551  25.643  27.662   2.567
81237W        W53552  19.275   3.015  10.751
81238W        W53553  27.241  23.726  13.365
81239W        W53554  26.928  31.086  11.430
81240W        W53555   6.145   5.028   4.168
81241W        W53556  39.246  20.498   1.690
81242W        W53557  15.683  33.552   4.527
81243W        W53558  41.921  17.894  10.772
81244W        W53559  35.946  32.227   4.487
81245W        W53560  22.501  24.546   2.800
81246W        W53561  19.342  11.893  11.455
81247W        W53562  20.042   7.518  10.728
81248W        W53563  33.384   8.244   0.522
81249W        W53564  18.143  31.681  11.488
81250W        W53565  19.620  21.591   2.726
81251W        W53566  22.216  27.179   1.705
81252W        W53567  16.413   4.902  12.225
81253W        W53568  31.541  13.046  10.628
81254W        W53569  32.277  19.680  11.148
81255W        W53570   7.450   8.707  11.446
81256W        W53571  15.254  19.582   4.683
81257W        W53572  10.094   9.726   3.358
81258W        W53573  14.862   0.834   3.671
81259W        W53574   3.375  25.379   4.590
81260W        W53575  21.625  21.019   4.415
81261W        W53576  34.403  26.146   1.932
81262W        W53577  31.526  22.191   0.893
81263W        W53578  19.297   7.386   1.186
81264W        W53579  14.037  23.939  13.111
81265W        W53580  29.681  16.670   4.520
81266W        W53581  22.828  36.673   3.821
81267W        W53582  39.534   5.888  12.404
81268W        W53583   9.149   2.536   2.660
81269W        W53584   5.664  12.572  11.948
81270W        W53585  18.584  42.916   3.250
81271W        W53586  39.424  34.081  10.853
81272W        W53587  28.056  23.679  10.572
81273W        W53588  20.237  26.710   2.310
81274W        W53589  42.354  22.235   0.872
81275W        W53590  11.830  44.671   2.620
81276W        W53591  31.876   4.351  10.240
81277W        W53592  24.411  15.390   0.702
81278W        W53593  24.982  20.337  12.540
81279W        W53594  35.998  40.001  12.617
81280W        W53595  15.211  12.552   1.772
81281W        W53596  19.375  24.534  14.699
81282W        W53597  29.905  27.932  12.985
81283W        W53598  30.061  36.074  10.316
81284W        W53599  40.763  36.385  11.203
81285W        W53600   0.218   9.868   4.332
81286W        W53601  35.170   0.747   2.123
81287W        W53602  40.989  15.786  13.438
81288W        W53603  10.804  37.353   0.258
81289W        W53604  10.820  34.151   2.569
81290W        W53605  11.341  12.362  10.677
81291W        W53606   7.890  36.005   4.152
81292W        W53607  14.100  30.905   3.053
81293W        W53608  12.937  15.257   3.745
81294W        W53609  20.215  13.771   3.716
81295W        W53610  18.112  16.682   3.540
81296W        W53611  24.057  11.271   3.642
81297W        W53612  31.546  21.246  10.974
81298W        W53613  21.427  25.135  14.079
81299W        W53614  22.738   8.126  11.710
81300W        W53615  41.360  43.531  11.941
81301W        W53616  41.669  22.844   2.354
81302W        W53617  20.954  23.933  13.381
81303W        W53618  19.770   8.829  10.049
81304W        W53619   4.629  13.370   1.350
81305W        W53620  37.497   8.597   1.962
81306W        W53621  40.069  40.465   2.191
81307W        W53622  17.562   6.726   1.284
81308W        W53623  12.168   6.725   0.240
81309W        W53624  15.252  26.156  13.815
81310W        W53625   6.720  36.356  10.517
81311W        W53626  11.296  18.291   4.139
81312W        W53627  30.369  20.175   2.275
81313W        W53628  10.296  42.214  12.545
81314W        W53629  19.577  28.209  11.591
81315W        W53630  39.509   7.891   0.134
81316W        W53631  33.134  42.342  12.886
81317W        W53632  21.334  43.090  13.841
81318W        W53633  34.813   9.252   0.356
81319W        W53634  13.823   8.333   0.438
81320W        W53635  22.184  42.580   1.255
81321W        W53636  25.670  43.426  12.145
81322W        W53637   4.976   7.263  10.596
81323W        W53638  41.417  42.836  12.558
81324W        W53639  43.277   3.453   2.358
81325W        W53640  32.805  27.267  11.996
81326W        W53641  24.118  33.359   2.304
81327W        W53642  31.482  16.067   1.004
81328W        W53643  18.347   7.552  12.548
81329W        W53644   6.387  19.799   4.625
81330W        W53645  33.688   0.842   3.879
81331W        W53646   2.672  28.921  14.300
81332W        W53647   5.181  23.643  13.955
81333W        W53648  38.595   2.738  14.832
81334W        W53649  11.386   3.194   4.425
81335W        W53650  40.289  30.575  11.717
81336W        W53651  19.621  21.971  10.728
81337W        W53652  40.536  14.696  11.944
81338W        W53653  16.721  40.903   1.749
81339W        W53654  31.053  35.102   3.761
81340W        W53655  22.721   8.377  12.843
81341W        W53656  33.655  36.882   3.664
81342W        W53657  18.423  19.625   3.313
81343W        W53658  13.674  23.852   0.369
81344W        W53659  14.198   1.408   0.244
81345W        W53660  13.026  32.402   3.281
81346W        W53661  12.112  37.231   3.611
81347W        W53662  37.504   2.367   0.713
81348W        W53663  16.838  10.407   2.270
81349W        W53664  21.576  40.554  12.975
81350W        W53665  12.626   7.710   3.155
81351W        W53666   3.467  40.496  12.992
81352W        W53667  17.367  23.493   4.135
81353W        W53668   8.596  26.463  11.912
81354W        W53669   0.170   2.679  11.934
81355W        W53670  24.708  15.196   3.299
81356W        W53671  20.557  11.937   0.976
81357W        W53672  40.375  40.341  11.597
81358W        W53673  27.424  31.923   3.291
81359W        W53674  11.711   0.238  12.835
81360W        W53675  23.634   9.450   0.336
81361W        W53676  25.778  34.396   4.710
81362W        W53677  40.927  21.659   1.821
81363W        W53678   6.222  37.782  14.243
81364W        W53679  19.087  44.335   4.134
81365W        W53680  41.433  29.502   0.962
81366W        W53681   3.987   3.932   3.781
81367W        W53682   6.096  37.475   0.817
81368W        W53683  29.641  12.492  12.938
81369W        W53684  40.873  40.762  13.069
81370W        W53685  43.328  13.720  12.380
81371W        W53686  43.358  23.960   1.912
81372W        W53687   3.432  21.451  12.364
81373W        W53688   6.865  24.234  11.432
81374W        W53689  33.591  11.561   4.094
81375W        W53690   8.896  10.333  11.209
81376W        W53691   2.907  18.610   3.024
81377W        W53692  43.957  35.166  13.079
81378W        W53693   7.201  22.595   1.014
81379W        W53694  40.347  25.935  10.894
81380W        W53695  42.596  42.249   4.723
81381W        W53696  26.494   0.642  11.091
81382W        W53697   9.239  28.685   2.460
81383W        W53698   1.418  28.863   2.630
81384W        W53699  24.551  20.602   0.902
81385W        W53700   7.226   9.748   0.869
81386W        W53701   1.694  21.743   2.008
81387W        W53702  20.656  12.912  11.116
81388W        W53703  27.136  44.846  14.803
81389W        W53704  15.515  25.262   4.292
81390W        W53705  24.988   5.854   1.160
81391W        W53706  41.916  25.098   4.218
81392W        W53707  16.768  28.083  14.785
81393W        W53708   8.644   7.990   4.994
81394W        W53709  26.415  23.724   0.917
81395W        W53710  27.980  23.692   1.276
81396W        W53711  25.252  29.974   2.347
81397W        W53712  34.011   7.644  11.522
81398W        W53713   9.397  26.916  10.999
81399W        W53714  16.270  23.433  13.557
81400W        W53715   5.235  15.205   3.841
81401W        W53716  24.836  25.300   4.067
81402W        W53717  34.054   5.945   4.492
81403W        W53718  44.988  11.862  10.373
81404W        W53719  25.252  12.255  11.663
81405W        W53720  22.451  25.445  12.826
81406W        W53721  27.941   2.034   1.402
81407W        W53722  17.053  26.429  11.955
81408W        W53723  33.704  38.819  10.428
81409W        W53724  23.031  20.545   4.799
81410W        W53725  21.544  19.102  13.447
81411W        W53726  23.520  38.852   1.187
81412W        W53727  29.658   6.844   1.510
81413W        W53728   9.880  38.965  13.447
81414W        W53729  24.954  31.472   0.138
81415W        W53730  43.469  12.283  12.500
81416W        W53731  21.116   0.399   2.709
81417W        W53732   7.619  34.457   0.290
81418W        W53733  34.910  29.545   0.867
81419W        W53734   4.548  27.854  12.196
81420W        W53735  19.325   1.029  14.754
81421W        W53736  15.661  31.214  13.462
81422W        W53737  37.817  27.791  14.505
81423W        W53738  19.298   3.857  10.486
81424W        W53739  34.395  33.293  10.545
81425W        W53740  40.909   3.004   0.411
81426W        W53741  43.423  16.869   0.901
81427W        W53742   0.434  44.422   3.076
81428W        W53743  15.226  22.290  12.607
81429W        W53744  44.813  26.758  11.573
81430W        W53745  27.539  24.892  11.550
81431W        W53746  13.216  26.976   0.136
81432W        W53747  35.462   1.337   2.903
81433W        W53748   4.156   7.390   0.013
81434W        W53749  11.911  32.754   2.929
81435W        W53750  14.287   4.923   4.137
81436W        W53751  39.409  35.151   3.616
81437W        W53752   1.306  27.982   4.788
81438W        W53753  43.479  22.182   3.676
81439W        W53754  38.111   2.390   4.335
81440W        W53755   7.545   7.275  11.124
81441W        W53756  21.968  42.796   3.673
81442W        W53757  35.009   7.738  10.152
81443W        W53758  12.611  23.463   3.681
81444W        W53759   0.118  30.447  12.662
81445W        W53760   6.667  32.951  10.664
81446W        W53761  17.565  28.274   2.332
81447W        W53762  12.300   0.533  12.330
81448W        W53763  21.257  44.929  11.634
81449W        W53764  42.310   2.499   4.712
81450W        W53765  31.216   6.966   0.419
81451W        W53766  42.876  33.684   3.259
81452W        W53767  19.714  21.003   3.652
81453W        W53768  30.225  23.078  14.564
81454W        W53769   3.670  44.385  14.767
81455W        W53770  42.413   4.252  13.562
81456W        W53771  25.026  25.225   1.343
81457W        W53772  25.482  29.946   0.420
81458W        W53773  26.482  23.496   0.455
81459W        W53774  41.310  35.496   1.751
81460W        W53775  16.153  23.153   4.753
81461W        W53776   7.209  40.978  12.060
81462W        W53777   1.870  36.563   5.590
81463W        W53778  39.030  43.120  11.409
81464W        W53779  25.003   4.845   9.682
81465W        W53780  15.934   1.333   0.823
81466W        W53781  21.752  20.431   0.772
81467W        W53782  23.617  22.526   0.862
81468W        W53783  20.952   3.433   3.729
81469W        W53784   7.597  35.476  14.517
81470W        W53785  28.139  12.213   0.895
81471W        W53786  36.031  14.643  13.844
81472W        W53787  38.797  35.941   4.518
81473W        W53788   3.886  25.667   3.437
81474W        W53789  19.768  44.472   4.655
81475W        W53790  16.058  12.135   4.129
81476W        W53791  42.510  21.480   3.381
81477W        W53792  38.673  40.254   4.963
81478W        W53793  11.690  30.192   1.922
81479W        W53794   3.411  11.903  14.191
81480W        W53795  41.007  23.433  13.314
81481W        W53796  39.688  32.634  14.764
81482W        W53797  10.419  28.729  10.446
81483W        W53798  23.268  13.858  13.122
81484W        W53799  42.921  10.239  10.616
81485W        W53800   6.147  41.001   4.842
81486W        W53801  26.511   7.195  12.306
81487W        W53802  24.169  29.713   2.732
81488W        W53803   3.277  36.339  11.204
81489W        W53804  18.007  43.099   3.104
81490W        W53805  25.514  27.581  14.804
81491W        W53806  36.689  17.712   1.372
81492W        W53807   6.233   5.304   1.791
81493W        W53808  43.383  10.454  13.029
81494W        W53809  15.735  15.729  12.401
81495W        W53810  40.926  13.651  10.809
81496W        W53811  21.144  17.550  11.711
81497W        W53812  44.252  35.622  11.234
81498W        W53813  11.702  39.425  11.635
81499W        W53814   7.688  30.655   1.516
81500W        W53815  43.338  10.290  14.733
81501W        W53816   7.384  43.055  12.885
81502W        W53817  33.839  28.392  14.738
81503W        W53818  32.562   2.203  10.789
81504W        W53819  43.231  44.590  11.136
81505W        W53820   8.726  39.380   0.973
81506W        W53821   6.863   3.795  11.119
81507W        W53822  38.029  33.230   3.611
81508W        W53823  25.047   0.757   2.431
81509W        W53824  21.985  16.681   0.243
81510W        W53825  39.254  33.060   4.545
81511W        W53826  42.320  38.825  10.082
81512W        W53827  32.911  21.204   0.343
81513W        W53828  42.789  44.629  11.345
81514W        W53829  30.913  43.057   4.179
81515W        W53830  22.698  23.230  11.600
81516W        W53831   2.879  24.173  12.787
81517W        W53832  12.736  21.318  11.571
81518W        W53833  13.715  19.506  13.483
81519W        W53834  20.612  27.065  14.759
81520W        W53835  22.089  12.130   1.946
81521W        W53836   1.808  16.596   0.109
81522W        W53837  22.997  30.033  10.928
81523W        W53838  23.639   6.813  11.508
81524W        W53839   3.958  19.377  10.633
81525W        W53840  36.872  22.524  13.010
81526W        W53841  36.599  42.141  14.616
81527W        W53842  33.106  24.097   0.889
81528W        W53843   0.629  19.904   3.935
81529W        W53844   7.645  25.594   4.514
81530W        W53845  22.271  19.051   4.820
81531W        W53846  19.168  19.856  12.159
81532W        W53847  16.562  24.542  14.853
81533W        W53848  29.990  40.368   1.467
81534W        W53849  15.849  14.849  11.104
81535W        W53850  16.276  11.132   4.117
81536W        W53851  27.972  23.537  11.597
81537W        W53852  24.734   6.941   3.862
81538W        W53853  38.501  44.481   0.340
81539W        W53854  39.624   7.259   2.363
81540W        W53855  38.662  23.238   4.802
81541W        W53856  19.537  44.536  11.490
81542W        W53857  15.350   0.543   3.720
81543W        W53858  34.567  24.352   0.473
81544W        W53859  24.139  23.872  12.084
81545W        W53860  43.488   4.145  13.811
81546W        W53861  21.087  38.815  10.075
81547W        W53862  10.229  33.818   4.683
81548W        W53863   1.864  16.077  14.896
81549W        W53864  37.985  16.044   3.736
81550W        W53865  37.207  40.236   0.506
81551W        W53866  13.707  27.535  14.838
81552W        W53867  23.859   4.842  12.012
81553W        W53868  25.023  24.934  11.481
81554W        W53869   1.771  41.070  13.707
81555W        W53870   8.816   0.556   3.809
81556W        W53871  22.079   3.953   2.288
81557W        W53872  19.141  39.301  10.555
81558W        W53873  26.688  15.054  14.344
81559W        W53874   7.410  40.817   1.831
81560W        W53875  41.882  27.484  10.775
81561W        W53876  23.538  27.140  13.560
81562W        W53877  29.239   6.268   1.490
81563W        W53878  32.183  19.770  12.811
81564W        W53879  26.943  24.236   3.952
81565W        W53880   9.163   5.737  13.511
81566W        W53881  16.646   1.371   1.235
81567W        W53882  37.490  35.584  14.678
81568W        W53883   6.099  38.407   2.550
81569W        W53884   9.764  33.489   0.710
81570W        W53885  34.970  38.597  12.877
81571W        W53886  40.793  10.928  14.400
81572W        W53887   1.930  38.353  11.656
81573W        W53888  39.454   3.642   4.098
81574W        W53889  11.828  18.720  10.594
81575W        W53890   3.094   0.980   3.793
81576W        W53891  34.889  39.625  14.031
81577W        W53892  44.115   8.710   3.787
81578W        W53893  26.445   3.639   3.240
81579W        W53894  37.038   7.478  12.939
81580W        W53895   5.754  22.957   2.724
81581W        W53896  34.379  37.422   4.473
81582W        W53897   7.155  33.599  11.213
81583W        W53898  43.376  42.374  12.847
81584W        W53899  19.781  37.381  11.607
81585W        W53900   3.878  43.583   1.759
81586W        W53901  19.811  36.415  10.721
81587W        W53902  37.383  10.241   3.844
81588W        W53903  16.746  27.079   0.844
81589W        W53904  31.438   0.433   0.197
81590W        W53905  14.731  39.049  13.840
81591W        W53906  23.952  30.438   0.755
81592W        W53907  24.899   3.897  14.415
81593W        W53908   9.269  17.061   0.470
81594W        W53909  43.950  23.041  10.843
81595W        W53910  30.078   6.130  13.436
81596W        W53911  22.017  13.209  12.897
81597W        W53912  16.265  33.847  14.252
81598W        W53913   8.317  17.110   1.213
81599W        W53914  41.917   4.094  11.540
81600W        W53915  14.779  17.636  12.802
81601W        W53916   3.247   5.794  14.434
81602W        W53917   7.033   3.837   0.785
81603W        W53918  20.854  17.225  13.562
81604W        W53919  30.475  27.522  13.179
81605W        W53920  28.906  21.620  14.970
81606W        W53921  25.408  34.352  10.062
81607W        W53922   2.403  33.549  12.418
81608W        W53923   0.429  21.610   2.792
81609W        W53924  40.523  44.388  11.575
81610W        W53925  31.625  37.911  13.261
81611W        W53926  25.207  39.481   4.231
81612W        W53927  31.179  28.751   0.299
81613W        W53928  33.568   0.761   4.637
81614W        W53929  23.209  10.662   3.709
81615W        W53930  30.439  40.583  11.649
81616W        W53931  12.792  24.801  11.188
81617W        W53932  36.494   8.977  14.910
81618W        W53933  29.652  40.637   3.153
81619W        W53934  21.511   0.641  11.433
81620W        W53935  32.028  32.664   4.287
81621W        W53936  31.673   6.762  10.976
81622W        W53937  44.437  31.746   4.425
81623W        W53938  28.363  13.655   0.341
81624W        W53939  26.744  13.628   0.252
81625W        W53940  35.817  34.843   2.203
81626W        W53941  26.522   9.275   5.098
81627W        W53942  41.343  27.164   1.151
81628W        W53943  44.262   2.330   0.343
81629W        W53944  28.939  39.013   4.577
81630W        W53945  19.645   7.754  12.293
81631W        W53946  13.339   9.098  11.698
81632W        W53947  40.481  33.161   4.879
81633W        W53948  22.408   9.749  11.686
81634W        W53949  19.706   8.647   0.214
81635W        W53950   0.578   4.717   1.659
81636W        W53951  42.975  10.216   4.283
81637W        W53952   2.117  39.424  11.008
81638W        W53953  19.391  24.277  12.023
81639W        W53954  28.034  20.037   0.073
81640W        W53955  10.107  19.635  14.263
81641W        W53956  28.796  36.033  12.427
81642W        W53957   3.050  33.699   0.893
81643W        W53958  22.200   8.915   4.054
81644W        W53959  15.064  35.616  11.542
81645W        W53960  40.360  11.799   4.542
81646W        W53961  35.747  17.943   0.689
81647W        W53962  26.669  23.061  11.208
81648W        W53963  34.159   6.459   4.474
81649W        W53964  43.824   5.377   4.441
81650W        W53965  25.980  43.797  11.122
81651W        W53966   5.004  13.570  12.050
81652W        W53967  39.589  20.713   2.400
81653W        W53968  35.084  22.426   3.742
81654W        W53969  38.842  44.101   3.624
81655W        W53970  18.742   7.915   0.890
81656W        W53971  17.620  15.159  14.390
81657W        W53972   5.733   7.361  11.047
81658W        W53973   7.424  11.856  14.814
81659W        W53974   8.788  32.133   2.744
81660W        W53975  10.425  33.265  13.918
81661W        W53976   6.692   3.696  14.805
81662W        W53977  22.641  34.192   4.346
81663W        W53978  16.759   8.888  14.539
81664W        W53979  32.109  15.725   3.695
81665W        W53980  11.890  13.953   1.197
81666W        W53981  44.281  15.125  14.858
81667W        W53982   9.766  42.468  12.805
81668W        W53983  41.282  11.174   3.562
81669W        W53984  30.415  24.302  11.430
81670W        W53985  38.192  39.488   4.647
81671W        W53986   1.711  30.334   4.382
81672W        W53987  39.330  40.824  14.665
81673W        W53988  37.594   6.279   2.216
81674W        W53989  41.473  35.843   3.875
81675W        W53990  20.519  18.226   0.806
81676W        W53991  33.803  18.755   2.424
81677W        W53992  11.762  20.674  14.429
81678W        W53993  31.423  26.143   3.813
81679W        W53994  44.487  35.717  14.425
81680W        W53995  40.090  22.692   1.338
81681W        W53996  36.519  18.476  12.951
81682W        W53997   5.600  31.933  10.961
81683W        W53998  38.772   9.664   4.110
81684W        W53999  20.181   1.495   1.656
81685W        W54000  29.631  17.290   2.382
81686W        W54001  38.149  33.631   0.007
81687W        W54002   2.300   9.129   1.916
81688W        W54003  23.218  20.390  10.303
81689W        W54004  27.573   8.172  11.980
81690W        W54005   6.298  30.478   3.635
81691W        W54006   7.221  23.606  14.784
81692W        W54007  29.212  23.192  14.440
81693W        W54008  26.683   7.865   3.272
81694W        W54009   5.272  44.118   1.797
81695W        W54010  13.885   1.041  11.308
81696W        W54011  36.899  38.945  11.969
81697W        W54012  10.318  42.951   2.833
81698W        W54013   9.352   0.544   1.278
81699W        W54014   3.879  18.318  13.351
81700W        W54015   7.296   8.650  13.432
81701W        W54016  16.531  14.565   0.921
81702W        W54017  16.556  41.974  12.484
81703W        W54018  37.770  22.203   2.840
81704W        W54019   3.701   6.218  12.424
81705W        W54020  15.244  35.501   4.581
81706W        W54021  17.031  44.231  13.377
81707W        W54022  23.986  10.375   2.613
81708W        W54023  21.219   3.115   1.878
81709W        W54024  28.069  21.431   1.871
81710W        W54025  18.186  35.340   3.621
81711W        W54026   7.382  26.780  14.845
81712W        W54027  31.429   6.755  11.446
81713W        W54028  29.071   8.301   4.415
81714W        W54029   9.724  16.080   1.991
81715W        W54030  24.722   4.697  13.809
81716W        W54031  15.946  30.235   4.928
81717W        W54032  32.639  32.615  13.903
81718W        W54033  37.397  13.614   4.491
81719W        W54034   3.877  28.064  11.059
81720W        W54035  24.782  12.524  12.482
81721W        W54036   6.705   0.388  11.934
81722W        W54037   5.754   1.450   4.904
81723W        W54038  18.067   7.932   2.178
81724W        W54039  13.241  17.992   2.343
81725W        W54040  42.267  30.428  12.877
81726W        W54041   8.354  40.333   2.760
81727W        W54042   6.169  33.107  11.940
81728W        W54043  12.097  24.667  12.358
81729W        W54044  40.320  31.545  14.878
81730W        W54045   9.441   2.430   3.681
81731W        W54046   1.634  33.985  12.294
81732W        W54047  38.587  30.714  10.596
81733W        W54048   0.182  43.868   3.182
81734W        W54049  36.315  42.354   2.280
81735W        W54050  29.666  21.956   3.793
81736W        W54051  37.571   5.665   0.318
81737W        W54052  13.550  22.968   4.167
81738W        W54053   4.753  29.059   0.775
81739W        W54054  31.835  43.380   1.343
81740W        W54055  24.558  38.981   4.780
81741W        W54056  11.604  14.841   2.863
81742W        W54057  36.015  20.459  13.883
81743W        W54058  25.571  32.445   5.071
81744W        W54059  20.577   9.759   9.660
81745W        W54060  35.809  22.239  13.308
81746W        W54061  32.643  35.914  11.565
81747W        W54062  36.308  14.324   3.925
81748W        W54063  12.917  44.902   2.209
81749W        W54064  29.531  44.035   0.453
81750W        W54065  39.933  10.403  14.636
81751W        W54066  43.089  24.189   5.011
81752W        W54067  10.732  37.190  14.771
81753W        W54068  23.666  35.578   1.639
81754W        W54069   0.356  13.894  11.938
81755W        W54070  35.479  31.889  12.402
81756W        W54071   5.308   5.288   0.126
81757W        W54072  23.924  37.802   0.379
81758W        W54073  44.011  27.148  12.451
81759W        W54074  10.251   8.345   3.128
81760W        W54075  14.785  14.588  10.758
81761W        W54076  19.115  14.373   1.860
81762W        W54077   1.739  31.473  10.703
81763W        W54078  37.487  28.099  13.743
81764W        W54079  37.532  39.331   1.600
81765W        W54080   9.696   5.849  13.433
81766W        W54081  42.294   9.090  13.892
81767W        W54082  27.364  25.064  13.412
81768W        W54083  26.512  22.459  14.364
81769W        W54084  27.559  37.979   4.690
81770W        W54085   0.045  13.418  12.899
81771W        W54086   5.158   5.304   4.159
81772W        W54087  43.255  26.959  13.594
81773W        W54088   3.398  34.089   0.818
81774W        W54089  38.393  22.767   2.819
81775W        W54090  28.103  10.426   3.293
81776W        W54091   4.077   7.360   2.854
81777W        W54092  23.504  33.659  12.930
81778W        W54093  10.688   9.842   4.089
81779W        W54094  21.246  14.162  11.577
81780W        W54095  34.910  43.786  11.483
81781W        W54096   0.839  34.622   4.220
81782W        W54097  10.390  22.864   3.747
81783W        W54098  28.089  28.647  13.444
81784W        W54099   7.894   2.761  14.487
81785W        W54100  27.731  15.397  12.031
81786W        W54101  34.158   8.949  14.762
81787W        W54102  12.872  20.181   2.727
81788W        W54103  20.745  28.683   3.205
81789W        W54104   5.696  33.718   1.869
81790W        W54105  32.045  31.473  13.114
81791W        W54106  13.127  28.225  10.685
81792W        W54107   5.666  30.071   0.263
81793W        W54108  18.262  28.825  12.628
81794W        W54109  13.441  28.999   4.464
81795W        W54110   8.390  24.724  14.302
81796W        W54111  28.679  34.583  12.038
81797W        W54112  38.583  23.142  12.447
81798W        W54113  18.977   0.417  11.556
81799W        W54114  26.730  39.589   0.784
81800W        W54115  33.307  21.125   4.201
81801W        W54116   7.334  29.527  13.259
81802W        W54117  23.025  43.402   3.028
81803W        W54118  42.320  43.134  12.190
81804W        W54119   8.367  32.477  12.873
81805W        W54120  31.613  34.716  13.964
81806W        W54121  18.221  28.323  10.077
81807W        W54122  11.238  37.554   2.329
81808W        W54123   0.054  19.306   4.138
81809W        W54124  23.955   0.672   0.355
81810W        W54125  32.985  40.851   2.582
81811W        W54126  30.910  36.420   2.773
81812W        W54127  14.681  16.282  11.618
81813W        W54128  39.467   4.588  13.153
81814W        W54129   6.705   5.878  10.528
81815W        W54130   7.227  33.864  12.902
81816W        W54131  32.479  37.852  14.942
81817W        W54132  14.756  33.430   4.901
81818W        W54133  17.536  18.596  11.474
81819W        W54134   7.697  26.025   0.278
81820W        W54135  23.605  32.007  13.771
81821W        W54136   4.348  33.967   0.496
81822W        W54137   9.751  42.267  11.254
81823W        W54138  10.927  16.059   2.930
81824W        W54139   7.399  29.828  12.843
81825W        W54140  40.275  28.881  11.937
81826W        W54141  21.036  19.592   1.378
81827W        W54142   7.356  29.343   0.898
81828W        W54143  38.614   5.069   4.106
81829W        W54144  41.759  17.557   2.352
81830W        W54145  21.798  34.773   3.357
81831W        W54146   6.689  25.462  13.844
81832W        W54147  20.838  42.462   2.723
81833W        W54148  31.603   7.726   0.288
81834W        W54149  28.726  41.470   0.354
81835W        W54150  22.971  25.971   1.876
81836W        W54151  32.002   2.762   0.018
81837W        W54152  25.075  20.198  12.005
81838W        W54153  37.556  12.102   4.176
81839W        W54154  43.151  33.037  10.093
81840W        W54155   0.920   4.650   0.854
81841W        W54156  27.061  26.183  10.448
81842W        W54157  13.234  24.583   4.447
81843W        W54158  36.740  40.210  12.099
81844W        W54159  28.169  17.700   3.651
81845W        W54160  25.618  28.445   3.148
81846W        W54161  32.965  26.032  12.538
81847W        W54162  16.520  40.051  10.210
81848W        W54163  37.356  35.023  11.180
81849W        W54164  29.613  16.322   0.898
81850W        W54165  19.533  12.098   3.672
81851W        W54166  10.560   0.846  12.922
81852W        W54167  19.058   6.249   0.793
81853W        W54168  25.033  44.657  11.372
81854W        W54169  33.002  15.453  12.517
81855W        W54170  39.531  23.736   2.333
81856W        W54171  31.099   5.461  14.453
81857W        W54172  23.814  31.638   3.566
81858W        W54173  30.812   9.330  14.289
81859W        W54174  22.224  37.417   2.257
81860W        W54175  19.499   9.424   3.554
81861W        W54176  37.470  22.252  12.001
81862W        W54177  21.491  18.044  10.855
81863W        W54178  22.139  25.598   0.219
81864W        W54179   7.774  30.664   2.968
81865W        W54180   0.538  36.092  10.082
81866W        W54181  33.189  42.447   0.757
81867W        W54182  32.937  20.353   3.786
81868W        W54183   9.431  36.086  11.585
81869W        W54184  28.713  18.324   1.489
81870W        W54185  41.489  35.048  12.174
81871W        W54186  14.783  15.796   4.055
81872W        W54187  14.033  26.707  10.441
81873W        W54188  42.931  22.798   1.077
81874W        W54189  16.768  25.966  14.912
81875W        W54190  14.540  33.556  14.772
81876W        W54191  22.018  43.093  14.506
81877W        W54192  31.502  24.026   0.992
81878W        W54193   3.210  43.334  14.439
81879W        W54194   1.336   7.213  12.786
81880W        W54195   3.914  16.179   4.117
81881W        W54196  31.511  10.118   3.708
81882W        W54197   5.283  38.901  10.388
81883W        W54198  15.576  10.553  12.465
81884W        W54199  33.628  21.983  14.475
81885W        W54200  35.948  41.181  12.018
81886W        W54201  11.583   4.311  14.422
81887W        W54202  16.609  34.726  11.895
81888W        W54203   3.048  33.050  14.111
81889W        W54204  22.502  24.041  13.930
81890W        W54205  27.508   2.322   4.771
81891W        W54206   6.639  33.577  11.163
81892W        W54207   8.312  35.191   0.840
81893W        W54208  38.423  16.398  12.934
81894W        W54209   1.852  35.828  12.604
81895W        W54210  27.526  10.138  11.586
81896W        W54211  21.790  28.105   3.756
81897W        W54212  40.046  32.582   3.293
81898W        W54213  22.572  33.328  13.912
81899W        W54214   4.633  39.834   0.048
81900W        W54215  44.550  15.431  11.542
81901W        W54216  17.796   1.699  13.828
81902W        W54217  30.542  43.754   4.612
81903W        W54218  33.536  36.090  14.828
81904W        W54219  23.577   3.599  13.979
81905W        W54220  18.815  12.701   3.695
81906W        W54221  11.781  39.485   2.631
81907W        W54222   9.251   8.758  12.205
81908W        W54223  35.438  38.597   3.338
81909W        W54224  21.621   4.255   0.226
81910W        W54225  21.872   8.280  14.058
81911W        W54226  30.427  36.385  14.857
81912W        W54227   0.552   2.985   2.383
81913W        W54228   4.821  38.280   4.819
81914W        W54229   7.326   4.538   3.100
81915W        W54230  11.760  42.037  13.386
81916W        W54231  42.864  25.106   0.902
81917W        W54232  29.816  11.103  14.569
81918W        W54233   5.931  23.186  14.714
81919W        W54234  27.568  29.646   0.376
81920W        W54235  21.572   8.870  10.673
81921W        W54236  19.589  13.652  12.479
81922W        W54237  44.521  29.952   3.311
81923W        W54238  43.693   0.007   0.140
81924W        W54239  42.834  34.079   1.562
81925W        W54240  13.725   1.895  14.014
81926W        W54241  19.991  36.361  12.903
81927W        W54242  13.739  39.660   0.781
81928W        W54243  23.505  20.477  11.568
81929W        W54244  14.761   1.682   4.200
81930W        W54245  35.623   6.433  11.146
81931W        W54246  20.614  39.376  13.624
81932W        W54247   4.610  21.123   4.179
81933W        W54248  42.925  10.852   3.087
81934W        W54249   3.215   9.137  13.849
81935W        W54250   4.009   3.895  10.729
81936W        W54251  35.390  10.383  14.009
81937W        W54252   8.453   2.302  11.588
81938W        W54253  14.430   0.846   2.124
81939W        W54254  43.784   5.240  13.389
81940W        W54255   2.172  15.115   0.803
81941W        W54256  29.375  28.634   0.307
81942W        W54257  14.157  21.044   0.347
81943W        W54258  18.749  39.802   2.737
81944W        W54259   1.772  36.791   1.235
81945W        W54260  20.097  22.806   3.698
81946W        W54261  44.171   6.229  13.140
81947W        W54262  21.879  38.738   4.271
81948W        W54263  37.854  11.067   2.435
81949W        W54264  19.166  40.756   3.683
81950W        W54265  42.901  26.232  13.014
81951W        W54266   1.947   3.674   0.486
81952W        W54267  44.906  20.677   2.953
81953W        W54268  20.313  22.708   0.002
81954W        W54269  14.337  29.472  12.128
81955W        W54270  18.221  32.706   4.275
81956W        W54271  21.273  14.168  10.239
81957W        W54272  27.198  13.512  12.117
81958W        W54273  37.746  19.781   4.055
81959W        W54274  25.477   2.455   1.908
81960W        W54275  28.294   0.657   4.505
81961W        W54276  42.838  41.985   5.123
81962W        W54277  22.678  10.821  10.637
81963W        W54278  24.376  10.603   3.324
81964W        W54279   3.682  25.719  14.002
81965W        W54280  19.174  14.688  13.715
81966W        W54281  22.333   6.784  10.589
81967W        W54282   0.194  13.646  14.769
81968W        W54283   7.840   1.483   2.808
81969W        W54284  19.744  24.527   3.146
81970W        W54285  38.504  20.871  14.819
81971W        W54286  16.875  22.262  10.995
81972W        W54287  19.770  29.732  11.574
81973W        W54288  41.923  28.924  10.653
81974W        W54289  34.910  26.728   3.024
81975W        W54290  40.002  36.382   3.116
81976W        W54291   6.911  28.393  11.590
81977W        W54292   6.220  20.184   0.996
81978W        W54293  13.753  25.308   0.203
81979W        W54294   8.198   1.283   4.161
81980W        W54295  34.251   8.416  14.852
81981W        W54296  17.739  43.815  13.070
81982W        W54297  37.499  10.098  11.609
81983W        W54298   3.727  26.507   4.745
81984W        W54299  31.718  16.611  10.695
81985W        W54300  41.848  35.961  14.962
81986W        W54301  32.676   1.455  12.061
81987W        W54302  35.126  28.312   3.548
81988W        W54303   9.239  31.366   4.402
81989W        W54304   9.914   6.417  13.988
81990W        W54305  31.567  32.957   0.938
81991W        W54306  13.747  41.082   1.260
81992W        W54307  19.014  20.020   0.546
81993W        W54308   3.857  33.518  13.527
81994W        W54309   4.587   1.821   5.340
81995W        W54310   1.656  15.618   4.491
81996W        W54311  29.138  41.852   3.178
81997W        W54312   2.153  19.172   3.899
81998W        W54313  15.561  35.111   1.498
81999W        W54314  27.404   8.301  12.925
82000W        W54315  32.514  19.766  11.594
82001W        W54316  34.280   4.797  10.662
82002W        W54317  22.000   1.322   4.551
82003W        W54318  40.568  41.316  11.734
82004W        W54319  26.018  12.750   0.698
82005W        W54320  18.571  17.348   4.863
82006W        W54321  22.510  42.374  14.470
82007W        W54322  43.421  21.311  11.254
82008W        W54323  29.601  14.520  11.279
82009W        W54324  25.703  10.349  12.037
82010W        W54325  34.854  11.177  14.901
82011W        W54326   3.135  19.694  10.700
82012W        W54327  16.274  38.951  12.053
82013W        W54328   6.855  14.153  13.815
82014W        W54329   3.377  17.725   3.575
82015W        W54330  13.380  43.184  11.549
82016W        W54331  22.786  31.798  14.690
82017W        W54332  14.326  34.524  13.748
82018W        W54333  40.793  30.491  11.624
82019W        W54334   9.376  31.321   0.638
82020W        W54335  37.072   1.608   0.005
82021W        W54336  38.072   4.976  13.305
82022W        W54337  19.040  20.616   1.311
82023W        W54338  33.451  12.822  13.919
82024W        W54339  27.212  22.719   2.364
82025W        W54340  27.970  38.057  12.058
82026W        W54341  43.821  40.614   1.576
82027W        W54342  40.703  20.236   0.396
82028W        W54343  27.043   1.864  13.312
82029W        W54344  16.129  33.324   2.668
82030W        W54345  42.840  10.662   0.951
82031W        W54346  13.434  15.174   3.595
82032W        W54347  37.116  26.732  13.827
82033W        W54348  40.110   0.041  13.852
82034W        W54349  25.952  12.279   1.311
82035W        W54350  40.409   6.705  14.872
82036W        W54351  25.209  15.391  11.956
82037W        W54352  17.905   0.229   0.711
82038W        W54353  33.539  33.508  12.422
82039W        W54354  40.971  25.069  12.451
82040W        W54355  16.400  20.077  14.104
82041W        W54356  15.282  18.276   2.787
82042W        W54357  36.076  28.626   2.742
82043W        W54358  38.223  32.141  12.890
82044W        W54359  38.942  29.470  14.083
82045W        W54360  33.364  20.136   2.714
82046W        W54361  19.253  38.979   1.900
82047W        W54362  28.277  17.721   0.095
82048W        W54363  22.521  24.460  13.616
82049W        W54364  23.147   0.876  14.010
82050W        W54365  17.703  26.111  14.940
82051W        W54366   1.518  35.081   2.327
82052W        W54367  44.965   1.766   0.199
82053W        W54368  34.670  17.225   2.863
82054W        W54369  33.638  29.559   4.554
82055W        W54370   6.987  17.544   4.072
82056W        W54371  36.904   3.070   4.858
82057W        W54372  32.495   3.265  11.828
82058W        W54373  33.536  30.572  12.960
82059W        W54374  24.670  12.342  13.468
82060W        W54375  25.683  42.826   3.278
82061W        W54376  35.138   8.169  14.678
82062W        W54377   1.756  41.763  14.414
82063W        W54378  31.940  38.312  13.866
82064W        W54379  10.491   2.114  12.343
82065W        W54380   7.773  42.342  14.681
82066W        W54381   3.943  34.735  12.422
82067W        W54382  36.083  23.499   4.870
82068W        W54383  38.524  31.376   2.005
82069W        W54384   1.217  23.585   4.291
82070W        W54385  38.975   1.776   0.072
82071W        W54386  35.341   5.829  11.970
82072W        W54387   4.220   7.930   1.386
82073W        W54388   6.199  27.224   3.312
82074W        W54389  40.031  38.662   3.402
82075W        W54390  43.027  41.271   3.907
82076W        W54391  25.125  29.110  12.464
82077W        W54392  13.896  42.291  14.280
82078W        W54393  15.758  26.244  14.731
82079W        W54394  14.024  11.114  13.361
82080W        W54395   5.502  29.504   2.042
82081W        W54396  22.080   7.848   4.046
82082W        W54397  27.554  12.525   0.483
82083W        W54398   2.907  30.615   3.764
82084W        W54399   1.141  15.884  14.334
82085W        W54400  14.477  33.860  11.672
82086W        W54401   3.128  36.025   0.463
82087W        W54402  32.945  16.674   1.305
82088W        W54403  24.664   7.583   0.266
82089W        W54404  16.012  19.754  12.865
82090W        W54405  14.173  41.719   0.687
82091W        W54406   2.908   2.075  11.973
82092W        W54407  23.043  16.089   4.036
82093W        W54408  16.325  20.112  13.145
82094W        W54409  25.651  40.711   1.727
82095W        W54410  22.698   8.325  14.128
82096W        W54411  39.859   3.613   4.531
82097W        W54412  34.153   0.902  11.262
82098W        W54413   5.726  41.755   3.238
82099W        W54414  40.074  21.065  12.697
82100W        W54415  14.568  22.847   1.199
82101W        W54416  27.488  43.683   0.448
82102W        W54417  35.954   9.825  11.552
82103W        W54418  27.379  24.548   1.000
82104W        W54419  33.972  40.740  11.544
82105W        W54420  18.586  38.609   4.514
82106W        W54421   9.188  14.061   2.803
82107W        W54422  12.449  14.403   0.760
82108W        W54423  26.045  25.606  14.908
82109W        W54424  22.413  38.604   4.226
82110W        W54425  18.061  35.121  13.432
82111W        W54426  17.106  35.335  12.488
82112W        W54427  32.946   6.832  14.580
82113W        W54428  33.529  40.292   2.188
82114W        W54429  38.110   0.894  10.747
82115W        W54430  19.105  26.250  14.394
82116W        W54431  25.078   5.733   1.651
82117W        W54432  35.072  14.664   3.933
82118W        W54433   1.947   3.826  11.886
82119W        W54434  35.168  28.429  11.985
82120W        W54435   7.344  39.551   0.692
82121W        W54436  16.287  11.906   2.772
82122W        W54437  43.590   2.104   1.871
82123W        W54438  26.523  10.727   3.111
82124W        W54439  39.898   6.786  14.729
82125W        W54440  38.919  15.720   4.238
82126W        W54441  28.312   1.453  10.106
82127W        W54442  44.378  26.770  13.027
82128W        W54443  19.037   5.725  10.516
82129W        W54444  38.124  30.727   4.212
82130W        W54445  32.662  40.992   4.950
82131W        W54446  43.471  21.806   2.359
82132W        W54447  44.853  44.218   2.936
82133W        W54448  11.123   8.388   0.331
82134W        W54449  24.560  39.423  12.959
82135W        W54450  13.730  34.591   4.383
82136W        W54451  27.136  28.110   1.030
82137W        W54452  36.746  33.408   2.797
82138W        W54453  26.727  43.144   4.515
82139W        W54454  26.625   7.801   0.984
82140W        W54455  37.180   9.353  13.063
82141W        W54456  21.928  41.993   4.721
82142W        W54457  18.997  23.688  14.280
82143W        W54458  16.607  23.127  14.992
82144W        W54459  41.630  17.308  10.701
82145W        W54460  13.062  25.114   4.593
82146W        W54461  28.944  17.015  13.128
82147W        W54462  27.582  38.112   3.304
82148W        W54463  41.934   0.737  10.756
82149W        W54464  41.500   3.813   4.045
82150W        W54465  18.838  25.089  11.770
82151W        W54466   8.975  11.763  10.307
82152W        W54467   8.649  12.869   0.257
82153W        W54468  14.098  18.756  13.639
82154W        W54469   0.804  30.525   3.649
82155W        W54470  19.262  15.155  13.899
82156W        W54471  36.844  31.216   0.694
82157W        W54472  15.623  41.598   2.624
82158W        W54473  23.011  26.444  13.062
82159W        W54474   6.676  33.375   1.911
82160W        W54475  20.852  33.613  12.894
82161W        W54476  36.911  16.525  10.731
82162W        W54477  21.770   5.328   3.326
82163W        W54478  14.160  32.425   2.174
82164W        W54479   2.350  40.719  10.658
82165W        W54480  28.562  14.941  10.481
82166W        W54481  15.750  24.478  12.172
82167W        W54482  12.304  12.767   0.039
82168W        W54483  39.228  38.106  14.357
82169W        W54484  22.030  13.727  14.426
82170W        W54485  33.017  18.661   1.411
82171W        W54486  43.846  17.859  12.511
82172W        W54487  11.498  32.375   1.255
82173W        W54488  44.368  23.077   1.163
82174W        W54489  38.087  12.025  10.267
82175W        W54490  18.570   6.925  13.485
82176W        W54491  26.721  29.063   4.165
82177W        W54492  11.751   8.303  12.069
82178W        W54493  12.767  12.828   1.776
82179W        W54494   3.682  21.830  11.158
82180W        W54495  13.797  12.882  13.484
82181W        W54496  21.806  17.709   2.359
82182W        W54497  10.858  10.798   0.866
82183W        W54498  44.719  32.842  14.753
82184W        W54499  20.290   1.384  11.762
82185W        W54500  38.487  22.350   4.652
82186W        W54501   7.405  15.651   0.384
82187W        W54502   3.931   4.800   2.384
82188W        W54503  33.966  15.717   0.744
82189W        W54504   0.932  12.126  12.100
82190W        W54505   5.126  33.626   0.934
82191W        W54506  24.012   0.744   4.644
82192W        W54507  41.917  13.266  14.565
82193W        W54508   8.115   5.354   3.591
82194W        W54509  17.194  13.869   2.297
82195W        W54510  25.554  10.350  14.750
82196W        W54511  17.531   5.353  14.216
82197W        W54512   4.668  34.261   3.182
82198W        W54513  20.689  15.313   3.075
82199W        W54514  42.764   2.667   3.830
82200W        W54515   1.418  38.464  13.614
82201W        W54516  18.471  26.670  14.817
82202W        W54517  11.198  23.910  10.731
82203W        W54518   9.787  35.610  13.501
82204W        W54519   5.740  33.503  14.164
82205W        W54520  26.915  10.407  14.876
82206W        W54521  14.606  23.292   0.360
82207W        W54522  30.956  19.830   1.326
82208W        W54523  14.731  23.075   2.959
82209W        W54524  38.943  26.896   4.525
82210W        W54525  20.141  23.218   4.620
82211W        W54526  44.567  44.347  13.167
82212W        W54527  21.694  10.404  10.560
82213W        W54528  24.476  14.226  11.614
82214W        W54529   3.034  41.823  11.940
82215W        W54530  32.515  17.143   2.113
82216W        W54531  19.292  34.497   1.251
82217W        W54532  32.761  12.100   0.315
82218W        W54533  26.493  19.158  13.547
82219W        W54534  26.996  21.651   0.371
82220W        W54535   5.602   4.473  12.507
82221W        W54536   9.717   5.962  14.771
82222W        W54537  26.118  33.560   1.773
82223W        W54538  19.596  15.219  13.397
82224W        W54539  41.802  26.602   4.663
82225W        W54540  38.770  40.778  12.331
82226W        W54541  15.115  12.179  11.256
82227W        W54542   8.971  10.664  11.621
82228W        W54543  30.691  12.408   4.582
82229W        W54544  36.278  10.391   2.332
82230W        W54545   9.240   7.414  11.127
82231W        W54546  17.782  29.886  14.032
82232W        W54547  14.864  16.786   4.132
82233W        W54548  20.823  19.774   4.264
82234W        W54549  39.882  11.640  13.655
82235W        W54550  37.158   4.340  12.528
82236W        W54551  37.791   8.801  11.543
82237W        W54552  30.738  34.466  11.929
82238W        W54553  25.975   2.870  12.195
82239W        W54554  11.938  23.967  11.067
82240W        W54555  41.146  12.793  14.009
82241W        W54556   6.968  41.336   3.942
82242W        W54557  17.329  18.978  12.218
82243W        W54558   4.750  43.013   0.086
82244W        W54559  21.266  20.725  11.261
82245W        W54560  29.040  34.542   4.670
82246W        W54561  17.163  18.405  11.136
82247W        W54562  33.390  23.617  10.364
82248W        W54563  10.395  32.498  13.418
82249W        W54564   3.931  41.204   4.757
82250W        W54565  30.712  14.719  13.013
82251W        W54566  20.558  43.398   3.078
82252W        W54567   6.751  14.591  10.684
82253W        W54568  11.174  12.820   4.859
82254W        W54569  31.970  28.363  13.418
82255W        W54570   7.710   4.191   0.507
82256W        W54571   8.425   0.996  11.846
82257W        W54572  38.854  30.875  11.089
82258W        W54573  10.580   7.449   3.557
82259W        W54574  40.882  21.669   4.824
82260W        W54575  21.964  11.699   4.558
82261W        W54576  35.845  18.982   4.056
82262W        W54577  11.836  31.052   0.487
82263W        W54578  39.822  30.571   0.165
82264W        W54579  17.310   3.907   3.817
82265W        W54580  10.698  20.000   0.223
82266W        W54581  38.481  40.738   1.907
82267W        W54582  42.877  39.932   1.859
82268W        W54583  32.404  21.903   2.470
82269W        W54584  41.530  38.725   0.139
82270W        W54585  33.026   5.317  12.407
82271W        W54586  39.988  11.842   0.131
82272W        W54587   6.251   8.417   2.413
82273W        W54588  19.315  42.818  14.822
82274W        W54589   3.524  23.898   5.011
82275W        W54590   9.394  17.665   3.076
82276W        W54591  32.474  24.972   4.458
82277W        W54592  37.780  18.283  13.819
82278W        W54593  21.511  23.139   4.184
82279W        W54594   2.004   2.727  13.831
82280W        W54595   8.360  36.314  11.985
82281W        W54596  14.171  18.401   1.364
82282W        W54597  17.238  31.216   1.314
82283W        W54598  43.946  31.385   1.862
82284W        W54599  16.832  21.521   1.626
82285W        W54600  15.539   0.316  14.464
82286W        W54601  23.647  33.473   1.215
82287W        W54602   4.895   9.811  13.302
82288W        W54603  11.649  41.036   4.843
82289W        W54604  38.827  41.209   0.406
82290W        W54605   6.941  13.420   0.858
82291W        W54606   8.800  27.036  12.641
82292W        W54607  35.251   4.515   4.245
82293W        W54608   1.579  21.953  14.245
82294W        W54609  11.657  34.194   3.662
82295W        W54610  28.048   4.343   4.460
82296W        W54611  37.982  44.992  10.846
82297W        W54612  31.495  31.409  11.942
82298W        W54613   4.730  14.275   2.347
82299W        W54614  29.084  43.501  11.553
82300W        W54615  29.478  14.035   1.269
82301W        W54616  24.707  19.064  10.433
82302W        W54617  28.334  41.414  13.032
82303W        W54618  13.248  10.874  12.538
82304W        W54619  15.818  22.097   2.323
82305W        W54620   9.461  29.225   1.487
82306W        W54621   8.454  28.495  10.564
82307W        W54622  30.852  32.006  11.483
82308W        W54623  39.442   4.895   3.651
82309W        W54624  25.537  43.987  11.945
82310W        W54625   6.965   1.076   2.876
82311W        W54626   4.483   4.063   3.750
82312W        W54627  34.802  38.406  13.828
82313W        W54628  29.924   8.946   1.218
82314W        W54629  29.542  39.008  12.534
82315W        W54630  37.237  24.692   5.702
82316W        W54631  29.815  38.825   4.184
82317W        W54632  31.948  44.905   0.348
82318W        W54633   3.436  19.674   3.838
82319W        W54634  30.264  22.245   1.962
82320W        W54635   5.811  23.566  13.069
82321W        W54636  38.060  19.044  14.765
82322W        W54637  11.438  24.684   4.863
82323W        W54638  43.222  20.181   1.316
82324W        W54639   6.602  37.351   0.782
82325W        W54640  31.498   6.603   1.355
82326W        W54641  43.943  32.848   2.822
82327W        W54642  19.390  43.280   3.275
82328W        W54643  15.841  20.185  11.182
82329W        W54644  33.694  16.169  10.051
82330W        W54645   0.553   5.734  14.335
82331W        W54646  30.351   8.164   1.414
82332W        W54647   5.872  44.346   0.772
82333W        W54648   6.802   8.254   3.839
82334W        W54649   4.779   0.017  14.914
82335W        W54650  17.782  16.750  12.914
82336W        W54651  39.566  43.873  12.004
82337W        W54652  10.899  28.615   2.912
82338W        W54653  40.918   5.591  10.615
82339W        W54654   7.206  12.829  12.238
82340W        W54655  30.672  43.045  13.569
82341W        W54656  38.559  19.015  11.147
82342W        W54657  40.520  42.353  10.454
82343W        W54658  39.411  34.057   3.775
82344W        W54659  38.244  33.901   2.188
82345W        W54660  24.245  16.923  10.369
82346W        W54661   2.179   3.198  14.560
82347W        W54662   1.524  16.282   3.253
82348W        W54663  35.348  13.660   4.518
82349W        W54664  18.995  10.172   4.009
82350W        W54665  36.328  28.873  12.533
82351W        W54666   5.240  21.255  12.088
82352W        W54667   7.610  30.110   2.262
82353W        W54668  44.048   6.879   0.309
82354W        W54669  31.595   9.695   4.849
82355W        W54670   3.826  24.974  13.547
82356W        W54671  26.473  11.567  13.508
82357W        W54672   1.857  15.174   4.080
82358W        W54673   1.339  19.406   0.302
82359W        W54674   7.393   9.830  11.505
82360W        W54675  31.261   0.161   2.472
82361W        W54676   4.205  38.965  14.717
82362W        W54677  33.572  13.207  10.554
82363W        W54678  10.197  35.110   5.098
82364W        W54679  27.675  42.553  12.078
82365W        W54680  41.993  27.085   0.395
82366W        W54681  26.111  23.479   4.522
82367W        W54682  38.038  15.148  10.964
82368W        W54683  37.640  16.681   1.355
82369W        W54684   2.766  11.296   1.719
82370W        W54685  13.914  11.224  12.864
82371W        W54686  27.102  34.298  10.647
82372W        W54687  36.915  34.920  11.462
82373W        W54688  21.557  31.343  13.941
82374W        W54689  14.180  36.322   0.367
82375W        W54690  30.292   1.553  11.306
82376W        W54691  35.590  28.721   1.455
82377W        W54692  14.825  11.068  12.088
82378W        W54693  18.022   7.149  12.565
82379W        W54694  10.592  19.036   5.055
82380W        W54695   1.457   1.492  14.999
82381W        W54696  33.677   3.428   4.153
82382W        W54697   4.183  19.389   1.641
82383W        W54698  31.441  35.503  14.948
82384W        W54699   3.041   5.764  11.736
82385W        W54700  35.126  10.333  14.677
82386W        W54701  15.395  11.726  11.225
82387W        W54702  30.360  34.780  11.067
82388W        W54703  39.244  12.779  12.905
82389W        W54704  19.267  21.968   1.789
82390W        W54705  44.197  32.842   3.322
82391W        W54706   3.705  42.275  13.807
82392W        W54707  27.623  13.135   3.126
82393W        W54708   6.556  34.898   1.751
82394W        W54709  22.670  29.154  13.388
82395W        W54710  20.661  38.795   0.337
82396W        W54711   3.113  41.069  12.244
82397W        W54712   5.969   3.480   0.410
82398W        W54713   9.860  41.916   1.393
82399W        W54714   5.457  19.004  10.770
82400W        W54715   7.043  42.504   0.793
82401W        W54716  10.463  40.125   1.149
82402W        W54717  22.196  34.759   4.282
82403W        W54718  37.628   6.364   4.548
82404W        W54719   4.724  37.511   2.648
82405W        W54720   6.006  27.219   2.457
82406W        W54721  17.822  37.977  10.742
82407W        W54722  27.534  15.287   1.227
82408W        W54723  41.859   7.904   2.529
82409W        W54724   1.360  28.384   1.382
82410W        W54725  16.196  30.714   2.842
82411W        W54726  32.665  35.536  13.720
82412W        W54727  36.552   4.389   4.739
82413W        W54728  39.298  15.542  12.337
82414W        W54729   2.555  41.906  11.746
82415W        W54730   2.148  28.965  14.309
82416W        W54731   5.310  11.093   4.066
82417W        W54732  27.398   1.214   1.082
82418W        W54733  27.233   2.703  14.879
82419W        W54734  18.191  17.676   0.002
82420W        W54735  43.062  18.168  12.850
82421W        W54736  10.852  13.240   1.793
82422W        W54737  21.521  33.255   0.889
82423W        W54738  22.054   2.773  12.854
82424W        W54739  12.378   8.148   3.396
82425W        W54740  31.575  25.953   1.930
82426W        W54741  33.931  17.621   0.931
82427W        W54742  24.777  21.455  13.168
82428W        W54743  33.814  30.233   2.108
82429W        W54744   1.196  15.720   3.611
82430W        W54745  23.194   8.334  11.938
82431W        W54746  32.363  16.522  14.995
82432W        W54747  39.297  31.468  14.832
82433W        W54748  20.654  26.955  12.825
82434W        W54749  40.008  24.465   1.988
82435W        W54750   6.782  27.184   0.843
82436W        W54751  18.656  13.357  13.881
82437W        W54752  31.561  30.311  11.122
82438W        W54753  31.419  36.215  14.022
82439W        W54754  36.596  18.604  14.487
82440W        W54755  34.797  35.009   0.152
82441W        W54756   2.260  36.509  10.408
82442W        W54757   0.779  42.824   1.124
82443W        W54758  24.715   8.746   3.369
82444W        W54759  41.128  39.771  13.307
82445W        W54760  24.729   9.703   1.263
82446W        W54761  20.511  12.799   2.561
82447W        W54762  21.702   2.723  12.487
82448W        W54763   3.276  30.521   1.313
82449W        W54764   0.452   6.054   2.435
82450W        W54765  37.842  29.508  13.836
82451W        W54766  40.485   8.321  10.778
82452W        W54767  21.795  40.525   1.072
82453W        W54768  13.251  15.121  13.745
82454W        W54769  34.131  37.744  14.454
82455W        W54770  42.010   9.625   4.146
82456W        W54771  19.669  18.313  10.327
82457W        W54772  36.129  15.798   0.137
82458W        W54773  10.398   6.200   4.862
82459W        W54774  24.533  30.638  13.580
82460W        W54775  14.019  35.003   4.303
82461W        W54776  31.103  41.824   4.348
82462W        W54777  19.002  11.339   5.015
82463W        W54778  34.884  31.377   3.706
82464W        W54779   2.228   8.569  11.179
82465W        W54780  10.022  42.842   0.028
82466W        W54781  37.078   0.951  12.473
82467W        W54782  24.071   8.130  11.489
82468W        W54783   6.728  17.739   2.201
82469W        W54784  15.506  29.512  13.855
82470W        W54785   4.063   0.471   3.890
82471W        W54786  15.980  17.754  14.856
82472W        W54787  20.942  31.545   1.806
82473W        W54788  26.907   3.758   2.866
82474W        W54789  31.603  36.439  12.475
82475W        W54790  25.036   9.254   5.081
82476W        W54791   7.419  15.753   2.282
82477W        W54792   9.154   8.887  14.939
82478W        W54793  32.708  20.770   3.036
82479W        W54794  42.850  38.784  13.098
82480W        W54795  26.332  38.078   3.597
82481W        W54796  22.580  16.109   4.280
82482W        W54797   2.407   3.807   5.112
82483W        W54798  22.569  34.934   3.798
82484W        W54799   2.550   5.305  14.959
82485W        W54800  32.352  18.535  13.276
82486W        W54801  20.689   2.029  13.396
82487W        W54802  10.133  10.099  10.825
82488W        W54803  20.516  28.655  11.397
82489W        W54804  20.829   3.021  14.331
82490W        W54805  14.567  34.238  14.385
82491W        W54806  36.643  43.443   0.846
82492W        W54807   7.633   5.923  12.542
82493W        W54808  18.449  36.847   2.794
82494W        W54809  35.823  15.824   1.428
82495W        W54810  11.750  38.640   3.745
82496W        W54811  34.482  24.156   2.407
82497W        W54812   0.071   9.270   4.592
82498W        W54813  14.575  21.796  11.192
82499W        W54814  19.046  31.976  11.632
82500W        W54815   6.205  12.274   4.060
82501W        W54816  22.393  18.570   4.645
82502W        W54817  39.383  35.625   3.102
82503W        W54818  32.943  29.587  14.451
82504W        W54819  34.080  27.065   1.171
82505W        W54820   1.447  21.246  14.984
82506W        W54821   8.142  30.041  10.818
82507W        W54822  24.893  38.026  13.010
82508W        W54823  33.496  13.151  14.384
82509W        W54824  42.515  18.768  12.049
82510W        W54825  14.620   8.565   4.751
82511W        W54826  40.491   0.650   0.967
82512W        W54827  31.714  11.489  10.639
82513W        W54828  10.247  32.051  10.383
82514W        W54829   1.949  22.707  11.124
82515W        W54830  23.486  17.768   4.567
82516W        W54831  28.434  13.070   9.708
82517W        W54832  35.348  17.268   1.334
82518W        W54833  11.688  22.594   4.561
82519W        W54834  23.350  26.947   3.266
82520W        W54835  25.620  33.891  11.637
82521W        W54836  35.460  26.111   0.970
82522W        W54837   8.630  43.724   3.314
82523W        W54838  28.545   9.730   4.602
82524W        W54839   4.476  23.623  10.700
82525W        W54840  16.379   3.507  13.303
82526W        W54841  24.567   6.533   5.068
82527W        W54842  26.070  33.437   2.702
82528W        W54843  34.021   4.244   2.800
82529W        W54844   2.503  23.728  12.573
82530W        W54845  23.107  28.743   4.129
82531W        W54846  30.583  16.884   0.569
82532W        W54847  35.199  18.105   2.930
82533W        W54848   9.163   1.061  11.153
82534W        W54849  13.626  29.993   3.345
82535W        W54850  35.140   9.176   2.447
82536W        W54851  44.438   0.455  11.762
82537W        W54852   3.500  23.950   0.958
82538W        W54853  27.141  31.466   9.838
82539W        W54854  26.917  12.207  11.140
82540W        W54855  14.162  11.851  13.006
82541W        W54856  17.215  28.226   5.031
82542W        W54857  14.396  35.404   4.608
82543W        W54858   2.305  10.355  14.030
82544W        W54859  26.132  38.399   3.234
82545W        W54860   4.477  22.229   3.654
82546W        W54861  44.908  22.915   1.829
82547W        W54862  12.298  22.019  14.802
82548W        W54863  16.656  44.997   0.876
82549W        W54864  29.853  17.185   1.835
82550W        W54865  31.199  16.721  12.105
82551W        W54866  40.826  23.683  13.720
82552W        W54867  34.427   3.312   4.620
82553W        W54868   0.925  15.313  11.237
82554W        W54869   6.669  44.119  13.894
82555W        W54870   2.841  34.793  14.477
82556W        W54871  31.884  32.888   2.127
82557W        W54872  22.569  11.383   1.682
82558W        W54873  44.529  10.112  13.238
82559W        W54874  16.891  19.904   4.115
82560W        W54875  40.029  24.905   0.034
82561W        W54876  20.601  32.386  11.087
82562W        W54877  33.341  40.767   3.780
82563W        W54878  20.220  38.204  11.625
82564W        W54879  20.723   7.202   1.796
82565W        W54880   5.186  44.125   0.871
82566W        W54881  14.422   6.785   0.536
82567W        W54882   2.739  30.012  11.158
82568W        W54883  10.492  43.716   0.950
82569W        W54884  17.308  16.659  11.710
82570W        W54885  14.297  36.304  11.618
82571W        W54886  15.589  22.728  10.828
82572W        W54887  32.383   5.269  14.796
82573W        W54888  15.332  29.104   5.060
82574W        W54889  37.112   0.791   2.878
82575W        W54890   1.930  37.514   4.423
82576W        W54891  22.762  44.210  11.150
82577W        W54892  41.452  10.689   0.690
82578W        W54893  28.410  12.455   2.430
82579W        W54894  27.121   3.283   2.739
82580W        W54895   3.915   7.058   1.293
82581W        W54896  33.423   6.945  12.386
82582W        W54897   0.409  30.364   2.949
82583W        W54898  33.586  26.962  11.654
82584W        W54899   6.173  10.735   1.165
82585W        W54900  16.799  12.328   1.273
82586W        W54901  24.455  40.160  11.085
82587W        W54902   7.128  29.844  11.419
82588W        W54903  15.884  30.488   3.626
82589W        W54904  25.601  29.154  13.591
82590W        W54905  25.073   7.313   3.171
82591W        W54906   9.312  13.512  13.807
82592W        W54907   6.397  25.639   2.396
82593W        W54908   1.568  15.767   3.231
82594W        W54909  28.881  41.665   3.584
82595W        W54910  43.801  26.514   3.695
82596W        W54911   7.288   0.955   3.265
82597W        W54912  25.962   4.255  13.701
82598W        W54913  36.073  23.152  13.967
82599W        W54914  11.301   6.779  13.943
82600W        W54915  25.201  16.127   1.745
82601W        W54916   0.607   5.954   4.135
82602W        W54917  40.567  43.035  12.979
82603W        W54918   8.883  11.960  13.287
82604W        W54919  40.248  19.565  10.611
82605W        W54920  39.185  29.089   4.108
82606W        W54921  26.457  38.577  10.049
82607W        W54922  23.121  16.137  14.809
82608W        W54923  18.380   3.446   5.115
82609W        W54924   1.239  28.604  13.228
82610W        W54925  11.899  42.052   3.041
82611W        W54926  32.364  30.801   0.803
82612W        W54927  23.814  42.055  12.880
82613W        W54928  29.121  44.055  13.829
82614W        W54929  39.554  27.898  14.930
82615W        W54930   4.560  36.801   0.760
82616W        W54931  30.989  42.689   2.897
82617W        W54932   7.939  23.009  11.291
82618W        W54933  13.627  27.573   1.807
82619W        W54934  31.108   8.757   0.765
82620W        W54935  13.101  37.130  11.412
82621W        W54936  20.517  14.121  12.629
82622W        W54937  22.563  19.774   2.147
82623W        W54938  16.120  32.808   1.325
82624W        W54939  24.666  41.922  14.037
82625W        W54940  40.540  16.830   3.429
82626W        W54941   5.709  30.817  13.567
82627W        W54942   3.183   8.657   1.822
82628W        W54943  13.518   6.819   4.658
82629W        W54944   9.991  11.666  14.996
82630W        W54945  31.210  41.358   2.183
82631W        W54946  18.166  24.689   3.102
82632W        W54947  34.276  28.683  11.115
82633W        W54948  32.931  30.949  14.865
82634W        W54949  32.084   1.422  10.744
82635W        W54950  20.157  19.113  14.648
82636W        W54951  23.656  16.852  12.807
82637W        W54952  18.036   3.790   2.807
82638W        W54953  25.157  28.472  14.492
82639W        W54954  36.796  38.774  12.436
82640W        W54955  27.777  28.112   1.217
82641W        W54956  42.305   9.075  11.844
82642W        W54957  23.372   2.480   0.554
82643W        W54958  43.769  36.857   3.184
82644W        W54959  24.211  39.995  12.427
82645W        W54960  13.834  23.182   4.530
82646W        W54961  29.097   6.477  12.440
82647W        W54962  38.068  38.574  14.965
82648W        W54963  10.597  28.127  11.987
82649W        W54964  30.204  24.256   2.232
82650W        W54965  34.110  10.735   4.610
82651W        W54966  42.126   5.617   3.793
82652W        W54967  24.277  22.138   1.219
82653W        W54968  18.796   2.051  14.010
82654W        W54969  35.991  10.819   2.390
82655W        W54970   9.349   1.023  13.642
82656W        W54971   2.400  27.213  13.566
82657W        W54972  26.402  10.880   1.261
82658W        W54973   3.980  30.816   0.882
82659W        W54974  42.464  18.346   2.321
82660W        W54975  33.450  27.532   1.633
82661W        W54976  29.495  34.802  14.813
82662W        W54977  34.502   8.242   1.884
82663W        W54978  14.892   2.453  13.984
82664W        W54979  14.602  34.736  13.325
82665W        W54980   2.912   8.230  12.819
82666W        W54981  27.471   0.922   4.099
82667W        W54982  18.595  14.181   2.431
82668W        W54983  33.920  10.375   3.635
82669W        W54984  12.380  33.818  10.953
82670W        W54985  19.180  21.442   1.834
82671W        W54986  14.054  26.140   1.863
82672W        W54987  25.156  35.861  13.524
82673W        W54988  34.935  38.526  11.991
82674W        W54989  35.861  24.587   1.623
82675W        W54990  39.609  38.327  11.957
82676W        W54991   5.576   5.674   4.312
82677W        W54992  24.382   2.857   3.081
82678W        W54993  29.520  10.315  11.526
82679W        W54994  19.342  41.999  11.044
82680W        W54995   1.805  16.620   0.633
82681W        W54996   5.938  34.164   3.766
82682W        W54997   7.328   4.428   1.761
82683W        W54998  32.587  39.089  14.466
82684W        W54999  41.272  32.683   1.435
82685W        W55000   3.821  15.125  14.075
82686W        W55001  17.639   9.880  12.859
82687W        W55002  13.177  41.554   1.744
82688W        W55003   5.812  16.328  11.593
82689W        W55004  40.120  37.313   1.880
82690W        W55005  35.172  27.214   3.245
82691W        W55006   3.776   7.691   2.174
82692W        W55007  34.341  44.247  11.004
82693W        W55008  25.282  33.469  10.075
82694W        W55009   4.775  38.904  13.810
82695W        W55010   8.304  16.995   0.179
82696W        W55011  44.827  14.763  10.738
82697W        W55012  21.669  11.867  10.708
82698W        W55013  34.043  32.623   0.473
82699W        W55014  21.206  21.223   0.918
82700W        W55015  31.650   6.170   0.382
82701W        W55016  31.379  10.054  13.241
82702W        W55017  25.552  20.787   5.432
82703W        W55018  21.422  34.028   4.308
82704W        W55019   6.878  17.202   1.819
82705W        W55020  35.953  19.757   1.516
82706W        W55021  25.243  14.577   0.245
82707W        W55022   9.953  13.733  12.484
82708W        W55023  42.631  39.922   4.478
82709W        W55024  30.690  21.905   2.758
82710W        W55025  22.987  35.942   2.249
82711W        W55026  34.894  44.940   4.201
82712W        W55027  34.511  43.091  12.518
82713W        W55028   0.507  44.880  11.255
82714W        W55029  40.385  38.906   3.759
82715W        W55030  29.976  29.758  11.885
82716W        W55031  18.206  25.200   3.243
82717W        W55032  28.029  17.612  11.494
82718W        W55033  17.207   5.667  14.523
82719W        W55034   4.313   9.156  12.029
82720W        W55035  36.051  35.811  14.473
82721W        W55036  37.976  25.135   5.038
82722W        W55037   6.786  32.909   1.697
82723W        W55038  19.231  35.158   4.515
82724W        W55039   0.337   1.633   4.108
82725W        W55040  41.871  35.034   2.259
82726W        W55041  36.379  36.520   2.204
82727W        W55042  32.136  29.896  11.553
82728W        W55043  37.473  29.979  13.478
82729W        W55044   2.258   4.748   0.219
82730W        W55045   8.722   5.604  11.611
82731W        W55046   6.207   0.787  13.470
82732W        W55047  44.747  43.089  14.080
82733W        W55048  38.742  31.749   2.262
82734W        W55049  32.600  25.936   1.685
82735W        W55050  24.013  18.575   4.645
82736W        W55051  33.937   9.127  14.330
82737W        W55052   1.720  12.229  14.380
82738W        W55053  31.203   9.848   2.801
82739W        W55054  18.966  38.364  14.440
82740W        W55055  43.717   1.340  11.463
82741W        W55056  43.951   6.088   1.515
82742W        W55057  12.095  25.209  14.950
82743W        W55058  30.000  30.094   4.314
82744W        W55059  32.194  44.830   1.209
82745W        W55060  43.572  22.293  11.617
82746W        W55061  14.321  32.435   4.597
82747W        W55062   6.632   4.856   1.226
82748W        W55063   2.773  24.402  13.593
82749W        W55064  19.905   7.420   1.666
82750W        W55065  19.682  14.896  12.971
82751W        W55066   5.446   5.236   3.185
82752W        W55067  42.306  35.573   3.856
82753W        W55068   7.904   8.823   2.908
82754W        W55069  24.637   5.168   2.250
82755W        W55070  43.410  26.172   3.615
82756W        W55071   1.849  25.795   2.387
82757W        W55072   4.848  34.032  14.468
82758W        W55073  43.701  41.868   3.652
82759W        W55074  37.756  38.042   3.701
82760W        W55075  40.303  37.528   3.600
82761W        W55076  17.627  19.332  11.256
82762W        W55077  15.412  29.028   2.560
82763W        W55078   0.194  27.675   0.788
82764W        W55079  24.225  12.616  13.840
82765W        W55080  43.636  42.760   0.738
82766W        W55081  25.723   9.847   0.424
82767W        W55082   9.706  15.461  10.418
82768W        W55083  19.752  32.905   2.133
82769W        W55084  17.508  30.974   4.787
82770W        W55085  44.260  33.495   1.078
82771W        W55086  27.384  43.974  11.674
82772W        W55087   4.312  23.897   3.279
82773W        W55088  39.243   8.962   1.754
82774W        W55089  20.495  28.919   1.386
82775W        W55090   8.075  28.597  13.357
82776W        W55091  42.062  18.670   4.668
82777W        W55092  42.229  28.478  14.477
82778W        W55093  11.642  34.603  14.315
82779W        W55094   0.725  41.530   4.942
82780W        W55095  10.540  26.481   4.968
82781W        W55096  29.045  43.197  11.128
82782W        W55097  11.967  15.754  10.417
82783W        W55098  17.324  38.974  14.874
82784W        W55099   6.847  18.194   2.870
82785W        W55100  36.404  27.622  10.561
82786W        W55101   2.279   4.754  10.643
82787W        W55102  31.460  16.272  14.239
82788W        W55103   4.925  44.716  12.610
82789W        W55104  20.161  28.195   2.656
82790W        W55105  29.936  43.251  11.139
82791W        W55106  23.628  23.146   4.086
82792W        W55107  31.450  22.626  11.670
82793W        W55108  39.022   2.272  10.420
82794W        W55109  10.660   5.122  11.587
82795W        W55110  33.391  15.155  12.395
82796W        W55111  19.118  12.243   3.929
82797W        W55112  28.688  35.989   0.989
82798W        W55113  33.484  44.674   1.175
82799W        W55114  12.204  13.397   2.607
82800W        W55115  19.151  41.108   0.916
82801W        W55116  14.295  13.376   1.287
82802W        W55117   2.353  36.798   3.522
82803W        W55118  23.559   9.945   4.741
82804W        W55119  44.738  16.664   0.640
82805W        W55120  36.537   6.141   3.746
82806W        W55121  22.528   5.941  10.386
82807W        W55122  29.752  33.900   4.716
82808W        W55123  16.315   1.937  12.383
82809W        W55124  27.248  20.323   3.644
82810W        W55125   3.386  22.013   0.159
82811W        W55126   5.861   5.173   1.412
82812W        W55127  34.825  18.664  11.214
82813W        W55128  34.823  22.240  10.834
82814W        W55129   3.690  22.702   2.704
82815W        W55130  19.612  11.151  12.843
82816W        W55131  14.758  24.003   2.320
82817W        W55132  41.018  29.575  12.883
82818W        W55133   3.787  31.176  12.059
82819W        W55134  22.867   1.898   5.093
82820W        W55135   2.910  19.686  13.819
82821W        W55136  44.872  21.583   1.066
82822W        W55137  36.763  16.180   3.689
82823W        W55138   2.440  37.983  12.045
82824W        W55139  39.017  40.603   1.149
82825W        W55140  37.755  12.364   1.723
82826W        W55141  21.100   3.944   4.587
82827W        W55142   9.607   5.484   2.734
82828W        W55143  11.377  25.145   3.802
82829W        W55144  14.745   9.090   1.766
82830W        W55145  41.569  38.200  12.387
82831W        W55146  44.729  31.903   3.718
82832W        W55147  17.409  14.910   2.316
82833W        W55148   8.461  36.823  11.043
82834W        W55149   3.261  30.802  11.168
82835W        W55150  38.079  35.459   4.742
82836W        W55151  11.621  12.247   4.523
82837W        W55152   7.317  13.491   1.279
82838W        W55153  32.603  33.009  12.086
82839W        W55154   0.239  17.613  14.797
82840W        W55155  14.146  16.650  14.990
82841W        W55156  44.605  20.565  14.074
82842W        W55157  41.444  34.915   0.925
82843W        W55158   2.940   5.809   1.543
82844W        W55159  19.041  12.148  13.046
82845W        W55160  23.689  18.412   5.053
82846W        W55161  37.373  26.459  10.548
82847W        W55162  20.659  37.387   3.598
82848W        W55163   8.793  28.466   3.726
82849W        W55164  23.641  23.204   3.594
82850W        W55165  17.288  26.370  14.008
82851W        W55166   8.043   7.695  13.010
82852W        W55167   5.804  34.886  12.480
82853W        W55168  33.416  12.611   1.235
82854W        W55169  43.030  15.656  14.065
82855W        W55170   2.830  35.074  14.046
82856W        W55171  24.546  20.037   1.840
82857W        W55172  14.790  44.932  14.159
82858W        W55173  41.346  18.140   0.320
82859W        W55174  16.584  31.614   1.821
82860W        W55175  42.917  10.072   1.790
82861W        W55176  41.074   4.828   1.505
82862W        W55177  14.340  18.357  11.524
82863W        W55178  29.947  43.301   4.659
82864W        W55179  18.326  25.861  11.531
82865W        W55180  23.647  37.373  13.137
82866W        W55181  29.165  40.074  11.487
82867W        W55182  22.234  19.058  11.571
82868W        W55183   3.259   9.653  14.945
82869W        W55184  33.343  14.286   0.624
82870W        W55185  15.493   5.869  14.002
82871W        W55186  12.137  12.589  12.590
82872W        W55187  29.363  26.619  13.324
82873W        W55188  27.216  21.488  11.488
82874W        W55189   0.477   1.783  13.314
82875W        W55190   2.966  17.305  13.423
82876W        W55191  43.285  31.073   2.935
82877W        W55192   0.353  31.000  11.414
82878W        W55193  31.394  40.140   1.811
82879W        W55194  43.651  43.136   4.991
82880W        W55195  19.683  25.435  14.880
82881W        W55196  41.957  32.018  14.311
82882W        W55197   5.216  42.540   4.201
82883W        W55198  31.133  40.779   1.942
82884W        W55199  13.476  43.947  10.624
82885W        W55200  33.120   0.599  13.647
82886W        W55201  26.979  16.164  13.815
82887W        W55202  33.064  29.078  13.131
82888W        W55203   2.859  16.378   2.194
82889W        W55204  42.516   5.287  12.155
82890W        W55205  31.352  16.383  13.740
82891W        W55206  14.303  39.342  12.499
82892W        W55207  11.100  25.079   0.059
82893W        W55208  40.733  22.934  12.439
82894W        W55209  18.305  30.579   9.793
82895W        W55210  24.834  15.556   1.267
82896W        W55211  25.132  18.016   0.336
82897W        W55212  38.886  44.834   0.324
82898W        W55213  27.469   1.327  10.615
82899W        W55214  13.240  28.086  11.968
82900W        W55215  13.264   5.158   3.204
82901W        W55216  27.297  29.234  14.584
82902W        W55217  22.594  13.109   3.348
82903W        W55218   4.964  29.992  13.780
82904W        W55219   4.064  25.910  14.318
82905W        W55220   5.754  32.854   3.677
82906W        W55221  18.761  40.640   0.883
82907W        W55222  33.293  34.432   1.352
82908W        W55223  36.831  19.272   1.866
82909W        W55224  29.087  30.157  14.803
82910W        W55225  30.517  34.612   3.016
82911W        W55226  33.942  28.557   4.219
82912W        W55227  14.203   2.200   2.512
82913W        W55228  13.286  41.384  11.766
82914W        W55229  18.917   1.865   4.822
82915W        W55230  15.704  33.114  11.104
82916W        W55231  17.629  42.182  10.331
82917W        W55232  34.123  27.603   4.259
82918W        W55233   1.057  22.699  10.696
82919W        W55234  29.180   5.841  13.447
82920W        W55235  41.460   4.914  13.894
82921W        W55236  17.156   6.120  13.304
82922W        W55237   0.686  13.031  11.887
82923W        W55238  23.671   7.826  11.598
82924W        W55239  18.165   2.256   0.798
82925W        W55240   3.217   4.111   0.235
82926W        W55241   2.039  20.082   1.340
82927W        W55242   0.916  36.396  12.488
82928W        W55243  28.648  18.197   2.418
82929W        W55244  32.454  33.391  14.410
82930W        W55245   7.596  36.954   4.185
82931W        W55246  31.402  17.162   0.711
82932W        W55247  13.068  40.283   3.666
82933W        W55248   7.519  32.963   1.422
82934W        W55249  38.750   0.422  11.038
82935W        W55250  19.547  27.696  11.602
82936W        W55251  17.190  37.984  11.163
82937W        W55252  38.476   1.512   3.675
82938W        W55253  28.083  32.722   0.879
82939W        W55254  27.699   3.968   3.764
82940W        W55255  12.208   9.675   1.331
82941W        W55256  21.203  32.476   1.910
82942W        W55257  30.634   1.634   4.898
82943W        W55258  10.813  42.541   3.850
82944W        W55259  22.110  15.092  10.708
82945W        W55260  16.245  25.836   3.661
82946W        W55261  30.929  30.253   1.416
82947W        W55262   0.901   1.035   3.737
82948W        W55263  25.474  43.521   1.280
82949W        W55264   4.395  12.450   3.829
82950W        W55265  27.112  35.552   2.690
82951W        W55266  10.793   0.907   3.308
82952W        W55267  40.003  20.223   3.512
82953W        W55268  22.475  38.118  13.120
82954W        W55269  40.770  15.140   1.565
82955W        W55270  19.834  26.709  14.806
82956W        W55271  25.752  18.823   3.638
82957W        W55272  16.224   2.963   2.403
82958W        W55273   5.246  37.901  12.894
82959W        W55274  29.650  22.049   0.541
82960W        W55275  28.981   9.729  14.246
82961W        W55276  11.324   2.426  14.395
82962W        W55277  38.190  23.035  12.131
82963W        W55278  29.612  42.249   0.841
82964W        W55279  44.948  32.782   3.737
82965W        W55280  35.923  39.787  12.150
82966W        W55281  13.233  37.189  14.977
82967W        W55282  13.300  36.363  13.956
82968W        W55283  30.667  42.734   4.507
82969W        W55284  18.659   8.829  12.114
82970W        W55285  37.904  42.122  13.079
82971W        W55286   0.866  17.445   3.156
82972W        W55287   0.335   0.026   0.641
82973W        W55288   0.960  27.054   3.027
82974W        W55289   5.667  16.110   3.415
82975W        W55290  28.136  42.883  12.050
82976W        W55291  37.407  40.631  14.729
82977W        W55292  32.688   0.805   1.920
82978W        W55293   2.050   5.511  12.071
82979W        W55294  10.803  37.613   2.600
82980W        W55295  14.075  42.691   0.829
82981W        W55296  32.242  23.299   5.089
82982W        W55297  28.656  34.337   3.373
82983W        W55298  28.438   3.940  12.889
82984W        W55299  36.507  26.825   0.466
82985W        W55300  27.113  30.022   1.733
82986W        W55301  20.665  10.741   2.815
82987W        W55302  38.984  28.996  10.611
82988W        W55303  27.983  23.961  13.880
82989W        W55304  29.508  18.285  10.800
82990W        W55305  24.303   7.726  13.555
82991W        W55306  28.917   2.756  13.352
82992W        W55307   5.882  22.152   0.365
82993W        W55308  34.009  12.551   1.842
82994W        W55309  40.170   4.727  11.068
82995W        W55310  16.659   4.011   1.870
82996W        W55311  23.160  43.201   1.319
82997W        W55312  33.224  35.042   2.658
82998W        W55313  20.124  40.086   3.725
82999W        W55314  42.392  19.006   1.789
83000W        W55315   8.476  16.669  13.894
83001W        W55316  43.398  22.647   0.464
83002W        W55317  30.919  13.383  11.614
83003W        W55318   5.836  11.402   0.158
83004W        W55319  14.090  37.118  10.689
83005W        W55320  18.298  20.584   2.167
83006W        W55321  44.772  13.797  13.095
83007W        W55322  36.480  30.890  11.305
83008W        W55323  38.389  21.729   3.712
83009W        W55324  41.812  26.126  11.479
83010W        W55325   0.924   8.808  12.362
83011W        W55326  26.684  35.459   1.593
83012W        W55327  32.201  11.393   2.769
83013W        W55328  21.661  26.440   1.624
83014W        W55329  43.978  17.617  10.705
83015W        W55330  35.470  30.447   3.230
83016W        W55331  16.130  32.412  12.851
83017W        W55332  43.894  26.202   3.260
83018W        W55333  29.931  10.132  10.627
83019W        W55334  39.089  29.669   4.644
83020W        W55335   5.599  37.603   0.884
83021W        W55336   1.196  18.111  13.997
83022W        W55337   9.896   9.836  12.948
83023W        W55338   5.829  38.801  12.445
83024W        W55339  29.022  17.840   0.793
83025W        W55340  29.446   2.392  10.756
83026W        W55341  29.098  38.042  11.105
83027W        W55342   0.763  18.659  12.821
83028W        W55343   2.353   9.579  11.450
83029W        W55344   0.215  26.527  13.987
83030W        W55345  33.867   8.237   0.746
83031W        W55346  23.555  25.967  11.205
83032W        W55347  35.317  41.917  12.504
83033W        W55348  28.877   8.760  14.566
83034W        W55349  29.042  40.153  13.413
83035W        W55350  17.556  31.254   0.901
83036W        W55351  31.967  39.389   2.025
83037W        W55352  34.425   0.656   4.018
83038W        W55353   1.985   8.775   3.198
83039W        W55354  12.294  10.470  10.972
83040W        W55355  30.996  19.519   1.760
83041W        W55356  40.782  31.506   1.811
83042W        W55357   5.474  29.062  14.784
83043W        W55358  11.229  13.283  11.689
83044W        W55359  19.428  28.100   1.120
83045W        W55360  43.097  15.573  11.156
83046W        W55361   8.830   9.903   4.372
83047W        W55362  42.008  28.850   3.625
83048W        W55363  13.709  36.948  12.740
83049W        W55364  28.478  13.519  13.817
83050W        W55365  24.943   9.380  12.103
83051W        W55366   5.276  32.110   2.613
83052W        W55367  12.357  15.608  12.622
83053W        W55368  38.992  36.863   3.539
83054W        W55369  37.812  36.952  14.454
83055W        W55370  15.640   4.919  14.833
83056W        W55371  12.459   0.323  11.514
83057W        W55372   3.771   4.905  10.750
83058W        W55373  19.989  24.624   3.620
83059W        W55374  24.067  13.471   4.670
83060W        W55375  12.721  35.761   2.800
83061W        W55376   1.473  23.055   1.775
83062W        W55377  30.463  37.166   4.172
83063W        W55378   4.486   2.522   1.881
83064W        W55379  16.111  39.418  11.856
83065W        W55380  16.801  19.060   4.583
83066W        W55381  19.935   7.481  11.590
83067W        W55382  26.163  18.645   0.254
83068W        W55383   6.435   9.276  13.980
83069W        W55384  18.200  31.560   1.937
83070W        W55385  18.647  34.128  10.849
83071W        W55386  43.391  21.268  10.236
83072W        W55387   4.427  29.920  11.929
83073W        W55388  38.475   0.833   0.803
83074W        W55389  44.567   4.705   2.423
83075W        W55390  22.589   3.458  14.383
83076W        W55391  20.089  15.614   0.332
83077W        W55392   1.046  12.432  10.682
83078W        W55393  44.083   0.471   3.208
83079W        W55394   5.797  28.996   2.659
83080W        W55395  13.744  10.639   1.246
83081W        W55396  27.904  35.899  13.409
83082W        W55397  18.578  39.446   4.210
83083W        W55398   6.163  41.974  11.211
83084W        W55399  27.363  26.727  11.445
83085W        W55400  20.877  39.851   2.734
83086W        W55401  33.939   1.215  11.606
83087W        W55402  25.026  36.751  13.257
83088W        W55403  29.617  41.406  10.805
83089W        W55404   9.251  16.253  14.595
83090W        W55405  29.982   8.117   4.965
83091W        W55406  36.753  31.886   4.594
83092W        W55407  39.594   5.287  13.862
83093W        W55408  21.875  36.930   3.657
83094W        W55409  28.422  11.274  10.537
83095W        W55410  22.652  24.146  12.887
83096W        W55411  18.971  32.014   1.883
83097W        W55412  39.025  35.450   4.535
83098W        W55413  11.545  12.344   1.151
83099W        W55414  39.877  17.388   1.949
83100W        W55415  16.528  43.368   1.780
83101W        W55416  24.250   7.083  10.508
83102W        W55417   0.462  36.870  11.069
83103W        W55418  37.563  44.946   0.349
83104W        W55419  40.343   7.976  12.633
83105W        W55420  11.765  38.907  13.589
83106W        W55421  31.536  29.987  14.282
83107W        W55422  44.496  35.819  13.450
83108W        W55423   6.826  22.780   1.384
83109W        W55424   0.743  28.666   2.296
83110W        W55425   1.605  41.882   1.945
83111W        W55426  34.093  37.032   4.699
83112W        W55427   3.300  41.595  13.508
83113W        W55428  27.149  28.178   3.275
83114W        W55429  43.061   3.758   0.359
83115W        W55430  37.862  10.124  10.727
83116W        W55431  22.798  41.543  11.279
83117W        W55432  29.440  15.824   3.882
83118W        W55433   9.462   2.348   0.732
83119W        W55434   8.743  29.772   2.977
83120W        W55435  37.549  32.114   1.798
83121W        W55436  44.755  14.056   3.654
83122W        W55437   3.647  29.439  13.497
83123W        W55438  25.496  38.072   4.017
83124W        W55439  30.496  22.275  13.001
83125W        W55440  27.426   9.639  12.378
83126W        W55441  42.310   8.916  10.947
83127W        W55442  28.831  34.605   0.553
83128W        W55443   5.272  13.587  12.466
83129W        W55444  39.753  41.408  13.330
83130W        W55445   7.724  37.599   5.143
83131W        W55446  42.741  16.229  10.668
83132W        W55447   9.508  25.492  10.733
83133W        W55448  24.188  15.098   4.198
83134W        W55449  23.226  26.918  12.971
83135W        W55450  28.065  13.659   0.757
83136W        W55451  35.306  37.142  13.662
83137W        W55452  19.510  14.787   2.936
83138W        W55453  31.688  23.099   0.967
83139W        W55454  13.738   3.524  10.378
83140W        W55455  44.050  24.257   2.489
83141W        W55456  33.759  25.469  13.464
83142W        W55457  39.438   9.228   2.630
83143W        W55458  42.998   7.363   1.394
83144W        W55459  41.086  34.583   2.284
83145W        W55460   1.256   4.300  10.511
83146W        W55461  17.551  26.523  13.572
83147W        W55462  27.047  39.988  10.438
83148W        W55463  40.329   4.157   2.323
83149W        W55464   8.694   5.566  13.770
83150W        W55465   7.444  31.654  11.605
83151W        W55466  36.989  41.358  14.408
83152W        W55467   1.615  15.389   3.655
83153W        W55468   1.013  30.358  11.498
83154W        W55469  19.075  16.226   1.379
83155W        W55470  16.159  37.138   0.735
83156W        W55471  42.004  16.228   1.725
83157W        W55472  40.398  18.824   2.337
83158W        W55473  37.668   7.772  11.500
83159W        W55474  18.869  31.130   1.691
83160W        W55475   8.219  30.917   1.418
83161W        W55476  13.115  36.239  11.166
83162W        W55477   0.783  36.542   5.612
83163W        W55478  12.279  31.638   3.766
83164W        W55479  36.442  42.551   4.152
83165W        W55480  30.504  36.405   2.460
83166W        W55481  32.436  20.424  13.506
83167W        W55482   3.665  20.972  13.364
83168W        W55483  19.278  39.508   2.303
83169W        W55484  36.617  30.423   3.600
83170W        W55485  21.602   3.171   2.210
83171W        W55486  19.525  24.188   1.454
83172W        W55487  43.923  22.009  10.971
83173W        W55488   0.715  23.079  10.622
83174W        W55489  28.447   2.303   3.724
83175W        W55490  41.072  11.167   4.102
83176W        W55491  14.148  38.617   0.234
83177W        W55492  41.461  20.751  14.439
83178W        W55493  18.946  36.207   3.779
83179W        W55494   7.851  15.332  13.077
83180W        W55495  34.374   1.164   4.104
83181W        W55496  30.619  18.778   2.236
83182W        W55497  13.788  32.868   4.104
83183W        W55498   5.875  37.889   1.338
83184W        W55499  30.645  36.840  14.430
83185W        W55500  36.497  35.590  11.065
83186W        W55501   9.267  21.065   4.991
83187W        W55502  37.373  17.797   3.733
83188W        W55503  16.268  30.936   4.383
83189W        W55504   1.566  32.940  14.287
83190W        W55505   0.491  18.645   2.225
83191W        W55506  13.182  24.314   1.512
83192W        W55507   6.537  17.110  12.283
83193W        W55508  19.216   8.303  12.959
83194W        W55509  21.283   9.845  10.848
83195W        W55510  28.899   7.746  11.984
83196W        W55511  14.255  27.616  14.887
83197W        W55512   6.397  23.102  14.872
83198W        W55513  18.055  12.796   4.148
83199W        W55514  15.077  21.257   4.138
83200W        W55515  37.487  41.654   3.501
83201W        W55516  35.372   6.887  11.227
83202W        W55517  24.016  13.947   4.885
83203W        W55518  13.261  29.891  11.513
83204W        W55519  35.931  28.997   4.260
83205W        W55520  28.513  14.311   1.212
83206W        W55521  44.353  37.795  13.627
83207W        W55522  18.973  40.126   3.309
83208W        W55523  13.114  15.784  13.563
83209W        W55524   6.842  26.832   1.200
83210W        W55525  13.054   7.321   2.599
83211W        W55526   6.821  11.330   0.263
83212W        W55527  28.016  44.180  12.926
83213W        W55528  30.686  25.687  13.744
83214W        W55529  30.858  26.996   1.432
83215W        W55530  19.528  39.822   5.077
83216W        W55531  34.534   5.178   4.564
83217W        W55532  18.862   9.566   4.994
83218W        W55533  44.959  33.393   1.771
83219W        W55534   2.561   0.008   0.457
83220W        W55535  40.473   8.641   4.582
83221W        W55536  38.568  32.823  10.673
83222W        W55537   6.711  16.084   1.792
83223W        W55538  44.494  34.433   0.714
83224W        W55539  18.026  17.199   3.277
83225W        W55540  13.631   1.833   2.220
83226W        W55541  34.893  37.149  11.593
83227W        W55542  26.382  41.048   0.915
83228W        W55543  16.607   9.667  12.128
83229W        W55544  26.116  36.596   1.227
83230W        W55545  22.502  44.441   4.335
83231W        W55546  38.340  12.507  12.851
83232W        W55547   4.478  38.505  14.775
83233W        W55548   7.649  39.055   2.280
83234W        W55549  40.150   3.928   3.596
83235W        W55550   3.261  26.483   0.873
83236W        W55551  36.731  17.963   0.508
83237W        W55552  40.594  35.621  10.608
83238W        W55553   8.318  16.996  10.595
83239W        W55554  35.008  27.688   2.723
83240W        W55555  32.942   8.426   0.715
83241W        W55556  42.759  39.809  13.304
83242W        W55557  33.337  42.026  10.719
83243W        W55558  19.539  42.405   0.826
83244W        W55559   2.228   4.073   1.406
83245W        W55560  19.199   4.404  11.981
83246W        W55561  32.972  27.083  10.689
83247W        W55562  12.153   3.854  13.875
83248W        W55563  34.807  37.632  14.426
83249W        W55564   9.926  43.867  11.443
83250W        W55565  41.091  26.737  11.588
83251W        W55566   9.302  19.990  10.714
83252W        W55567   1.986  31.889   4.528
83253W        W55568  10.726  38.632  10.377
83254W        W55569  32.008   1.546  12.569
83255W        W55570  29.439   0.683  11.487
83256W        W55571  23.968   1.339  10.760
83257W        W55572  37.943  33.974  13.989
83258W        W55573  37.078  40.811   3.889
83259W        W55574  10.060  36.530   4.503
83260W        W55575   9.717  32.101  13.950
83261W        W55576  26.129  36.942   4.612
83262W        W55577  12.288  27.241  13.542
83263W        W55578  39.149  42.284   0.906
83264W        W55579  35.820  22.911   2.234
83265W        W55580  23.539  16.780   4.563
83266W        W55581  22.942  32.665   4.371
83267W        W55582  11.416  26.182   3.610
83268W        W55583  11.230  38.518   3.837
83269W        W55584   5.789  36.846  11.499
83270W        W55585   4.662  43.802  11.445
83271W        W55586   2.743  16.756  13.356
83272W        W55587  16.122   0.217   0.400
83273W        W55588  32.557   2.249   0.869
83274W        W55589  43.751  26.079  13.431
83275W        W55590  25.371  29.688  11.705
83276W        W55591  34.412  28.048  11.796
83277W        W55592  27.369  10.362  10.728
83278W        W55593  36.424  23.305  12.898
83279W        W55594  42.794  24.334  12.537
83280W        W55595  33.795  42.740  11.044
83281W        W55596  13.344  43.900   0.424
83282W        W55597  41.486  23.033  12.042
83283W        W55598  18.308  24.987  13.998
83284W        W55599  40.899  32.953  12.804
83285W        W55600   3.917   4.853   3.738
83286W        W55601  39.523  34.897   2.648
83287W        W55602  31.628  12.597   3.383
83288W        W55603  42.968  10.742  10.494
83289W        W55604  33.123  40.445  13.197
83290W        W55605  25.605   0.914   1.698
83291W        W55606  41.922   5.306  12.989
83292W        W55607  21.171  35.324  12.415
83293W        W55608  21.388  37.634  14.890
83294W        W55609  43.306  40.971   2.314
83295W        W55610  17.242  14.758  14.278
83296W        W55611  43.061  24.114   2.292
83297W        W55612   8.978  42.380  10.797
83298W        W55613  20.086  30.887   2.962
83299W        W55614  36.979  39.141   0.421
83300W        W55615  40.278  29.622  11.580
83301W        W55616  11.148  12.310   4.782
83302W        W55617   9.839  19.196   5.494
83303W        W55618  13.538  25.148  12.222
83304W        W55619  14.250  14.905   2.869
83305W        W55620  33.415  31.140   2.929
83306W        W55621  13.395  37.363  13.492
83307W        W55622  29.150  36.851  10.623
83308W        W55623  44.550  41.069  10.732
83309W        W55624  38.992  25.513   5.492
83310W        W55625  11.201   0.269  12.918
83311W        W55626  14.414  12.355   3.602
83312W        W55627   7.937   1.025  13.860
83313W        W55628   5.738   1.821   0.308
83314W        W55629  43.917  28.152  12.923
83315W        W55630  42.317  31.116   2.313
83316W        W55631  42.890  21.712  13.492
83317W        W55632  26.188   5.434  12.485
83318W        W55633  19.825  13.989  12.156
83319W        W55634  13.530  14.668  13.852
83320W        W55635  20.597  27.404  13.763
83321W        W55636  17.371   5.892   1.447
83322W        W55637   1.302  30.089   4.628
83323W        W55638   8.866   9.046  10.529
83324W        W55639  30.388  10.023   3.860
83325W        W55640  11.347  31.111  12.050
83326W        W55641   1.449   9.375  13.667
83327W        W55642  16.647  21.461  13.384
83328W        W55643   1.513  25.261   0.509
83329W        W55644   2.678  38.408  12.828
83330W        W55645   5.947  20.254  10.775
83331W        W55646  20.768  36.022   4.639
83332W        W55647   5.495  41.781  13.922
83333W        W55648  40.996   3.557  11.634
83334W        W55649   9.852  12.780  14.833
83335W        W55650  28.414  30.648   1.298
83336W        W55651  40.070  11.718  10.407
83337W        W55652  16.183   3.782  12.915
83338W        W55653   4.194  31.407  14.414
83339W        W55654  32.826  32.492   0.595
83340W        W55655  15.126   0.249   1.294
83341W        W55656  43.810  29.581   4.730
83342W        W55657  25.465  41.516   1.363
83343W        W55658  38.144  24.497  10.479
83344W        W55659  10.255   0.717  13.332
83345W        W55660  41.472  20.088  11.412
83346W        W55661  16.764   1.274   2.814
83347W        W55662   7.457  26.624  13.528
83348W        W55663   7.675  22.055  13.452
83349W        W55664   6.935  33.625   1.410
83350W        W55665  33.021  28.188   2.762
83351W        W55666   4.175  41.324  13.196
83352W        W55667  17.455  40.770   1.304
83353W        W55668  38.863   2.916   1.509
83354W        W55669  44.624   6.074   0.361
83355W        W55670  14.563  33.506   2.810
83356W        W55671  40.267  27.613  10.793
83357W        W55672  29.902  17.080  13.882
83358W        W55673  17.317  27.711  13.440
83359W        W55674  40.585  14.215  11.436
83360W        W55675   7.916   8.906   4.234
83361W        W55676  20.509  21.657   0.050
83362W        W55677  38.818   0.533  13.119
83363W        W55678  43.258   4.416  10.787
83364W        W55679   9.936  11.237   4.359
83365W        W55680  20.793   2.241  11.638
83366W        W55681  11.723  39.377   0.448
83367W        W55682  34.828  25.584  14.846
83368W        W55683  41.981  27.743   4.686
83369W        W55684  26.185  33.640  14.322
83370W        W55685  12.979  43.810  11.342
83371W        W55686  32.168  35.852   2.824
83372W        W55687   2.856   8.237  12.324
83373W        W55688  27.682  43.221   0.537
83374W        W55689   6.924  12.375   1.846
83375W        W55690  18.279  31.526   2.451
83376W        W55691  28.187  21.503  11.493
83377W        W55692  29.107  35.892  10.646
83378W        W55693  34.902   7.691   2.347
83379W        W55694  11.822   4.776  14.274
83380W        W55695  34.467   7.412   3.758
83381W        W55696  13.196  19.862  14.262
83382W        W55697  43.906  25.439  12.406
83383W        W55698  18.205  17.605  13.496
83384W        W55699  38.399   1.951  11.996
83385W        W55700  27.090  32.396  10.537
83386W        W55701  23.204  42.461   2.266
83387W        W55702  33.557  36.418   0.344
83388W        W55703  44.899  20.234   0.878
83389W        W55704  30.515  43.180   0.865
83390W        W55705   9.296  15.768   1.512
83391W        W55706  29.219  16.441  11.165
83392W        W55707  22.200  22.309  13.996
83393W        W55708  36.354  31.987   3.708
83394W        W55709   0.398   8.864  12.402
83395W        W55710  40.828  43.489   2.575
83396W        W55711  37.114  40.446   4.815
83397W        W55712  25.390  41.914   2.880
83398W        W55713  31.080  24.255  13.636
83399W        W55714  31.610  27.515  12.476
83400W        W55715  14.759  38.308  10.806
83401W        W55716  15.102  44.068  10.854
83402W        W55717  23.944   5.238  11.533
83403W        W55718  36.007   9.250   2.200
83404W        W55719  14.354  14.163   3.732
83405W        W55720  18.950   1.828   1.353
83406W        W55721  28.712   4.960  12.026
83407W        W55722  37.523  20.963   0.673
83408W        W55723   0.903  31.883   0.753
83409W        W55724  16.032  32.964  14.366
83410W        W55725  41.872  35.382   0.829
83411W        W55726  17.726  39.973  12.063
83412W        W55727  10.271  28.492  14.334
83413W        W55728  38.357  30.016   2.668
83414W        W55729  18.914   7.551   2.602
83415W        W55730  44.950  21.484   2.615
83416W        W55731  13.086  19.112   1.294
83417W        W55732  16.763  33.018  12.085
83418W        W55733   7.350  31.373  12.053
83419W        W55734  19.554  26.106   1.758
83420W        W55735  17.184   4.536  11.983
83421W        W55736  23.011  21.651   0.187
83422W        W55737  41.597   6.060  12.463
83423W        W55738  13.325  23.974   2.782
83424W        W55739  12.962  33.388  10.206
83425W        W55740  26.500  38.106   0.807
83426W        W55741  28.324  30.143  12.520
83427W        W55742  43.576  28.686  14.870
83428W        W55743  27.326  16.858   2.680
83429W        W55744   8.188  44.943   1.282
83430W        W55745  37.965  29.180  12.034
83431W        W55746  33.579  26.682   0.812
83432W        W55747   6.453   3.407   3.221
83433W        W55748  17.781  44.712   0.719
83434W        W55749  31.055  41.404   4.063
83435W        W55750  26.156  34.836   0.338
83436W        W55751   3.307  23.412   0.813
83437W        W55752  41.061  22.053  12.845
83438W        W55753  42.740  16.546   3.706
83439W        W55754   6.629  10.116  11.164
83440W        W55755  39.960  40.097  14.497
83441W        W55756  35.910  42.708  14.430
83442W        W55757   4.401  28.908   3.729
83443W        W55758  37.001  24.992  11.951
83444W        W55759  34.285  26.459  12.680
83445W        W55760  24.070  39.058  14.557
83446W        W55761  34.455  20.807  14.309
83447W        W55762  28.531   7.860  10.605
83448W        W55763   7.493  42.138   1.420
83449W        W55764  10.772  29.762  12.977
83450W        W55765  12.265  41.959   3.963
83451W        W55766  41.328  13.678   4.932
83452W        W55767  28.070  31.131  10.939
83453W        W55768   5.743  37.099   0.858
83454W        W55769  35.731  42.066  12.749
83455W        W55770  11.074  31.393  11.131
83456W        W55771  16.223  24.552  14.309
83457W        W55772  43.599  25.015  11.113
83458W        W55773  16.790  22.561   3.782
83459W        W55774   6.165  10.374   1.892
83460W        W55775  15.712  38.011   1.809
83461W        W55776  13.659  18.335  14.697
83462W        W55777  18.178  22.988   1.326
83463W        W55778   0.067  40.844  13.831
83464W        W55779  12.967  37.526   0.494
83465W        W55780  39.588  15.696  13.310
83466W        W55781  13.471  24.633  13.928
83467W        W55782  12.191   6.760   3.440
83468W        W55783  31.021  24.593  11.983
83469W        W55784  38.890  26.623  14.958
83470W        W55785   9.263   7.997   2.277
83471W        W55786  32.923  21.722   2.139
83472W        W55787   1.908   0.645  13.605
83473W        W55788  25.189  13.231   2.088
83474W        W55789   2.371  24.706  13.400
83475W        W55790   1.508   7.918  14.958
83476W        W55791  31.468  15.721  10.619
83477W        W55792  43.942  17.842   0.451
83478W        W55793   6.363  27.122   2.095
83479W        W55794  20.014  34.864   3.566
83480W        W55795  29.468   3.582  14.881
83481W        W55796  42.668  24.466   4.201
83482W        W55797   3.249   6.472   3.247
83483W        W55798  21.268   2.187   4.316
83484W        W55799  26.118   1.210   0.375
83485W        W55800  22.209  16.030   3.436
83486W        W55801  27.892   5.783  10.731
83487W        W55802  26.627  38.203   2.376
83488W        W55803  37.607  12.217  11.609
83489W        W55804   1.454  34.993   0.146
83490W        W55805   1.298  15.320  14.909
83491W        W55806  24.073  37.661  12.844
83492W        W55807  31.420  32.360   2.194
83493W        W55808  29.263   1.255  11.603
83494W        W55809   6.221  42.902  13.474
83495W        W55810  36.811  20.302   0.429
83496W        W55811  19.569   0.938   1.169
83497W        W55812  31.946  42.874  14.019
83498W        W55813   9.214  30.593   3.690
83499W        W55814   2.840  41.211   3.975
83500W        W55815  29.610  28.394  10.318
83501W        W55816  21.781  20.218   1.446
83502W        W55817  30.923  31.723   1.155
83503W        W55818  11.596  15.106   0.941
83504W        W55819  25.213  37.459   0.224
83505W        W55820  23.817  36.910  10.768
83506W        W55821  13.426  17.630   0.852
83507W        W55822  35.490  39.062  13.414
83508W        W55823  29.977  21.092  12.444
83509W        W55824  31.629   1.286   2.410
83510W        W55825  23.510  31.027  12.088
83511W        W55826  39.968  38.385  13.505
83512W        W55827  35.331  20.265  11.591
83513W        W55828  33.288  10.972   2.099
83514W        W55829  29.472  13.649  11.442
83515W        W55830   3.920  40.318   4.122
83516W        W55831  37.134  13.884  11.412
83517W        W55832  43.663  30.832  13.927
83518W        W55833   2.555  10.201  13.594
83519W        W55834  11.536   8.166   3.722
83520W        W55835   6.872  13.284   1.385
83521W        W55836  10.553  21.643   4.499
83522W        W55837  37.091  29.853   4.077
83523W        W55838  37.085  27.517   2.196
83524W        W55839   8.728  42.576  11.944
83525W        W55840  12.150  10.417   4.155
83526W        W55841  32.434  26.194   4.669
83527W        W55842  25.490  40.980   1.316
83528W        W55843  13.420  25.582  11.068
83529W        W55844  32.458  41.456   0.286
83530W        W55845   5.759  28.105   4.270
83531W        W55846  44.284  42.385  14.399
83532W        W55847  38.885   2.241   2.772
83533W        W55848   2.760   3.942   1.965
83534W        W55849   4.974   4.230  13.232
83535W        W55850  15.614   1.724   1.426
83536W        W55851   1.475   3.834   0.693
83537W        W55852  15.119  38.356   4.421
83538W        W55853  28.589  13.630   4.349
83539W        W55854  12.847  12.316   0.575
83540W        W55855  20.567  41.361   4.768
83541W        W55856  29.908  40.870  14.332
83542W        W55857  30.999  12.632  11.184
83543W        W55858  40.339  34.992   3.915
83544W        W55859  23.326  39.409   4.188
83545W        W55860  33.584  35.126  14.833
83546W        W55861  39.259  31.237  11.055
83547W        W55862  34.173  27.692   3.744
83548W        W55863  35.040  18.001  11.758
83549W        W55864  19.063  19.405  11.143
83550W        W55865   8.407   9.356   0.382
83551W        W55866  21.436  15.618   0.460
83552W        W55867  29.510   6.344   2.484
83553W        W55868  13.381  12.443   4.116
83554W        W55869  13.172   3.463   2.533
83555W        W55870  25.620   3.108   4.564
83556W        W55871  30.633  22.872  11.398
83557W        W55872  19.131  41.000   3.190
83558W        W55873  40.260   5.096   0.954
83559W        W55874  19.260   8.426   0.899
83560W        W55875   2.466  13.047  13.511
83561W        W55876  29.872  31.858   3.574
83562W        W55877  17.472  15.392  12.962
83563W        W55878  34.113  26.276   3.840
83564W        W55879   8.462  37.438  13.447
83565W        W55880   6.431  33.031   0.204
83566W        W55881  23.206  14.379   3.447
83567W        W55882  10.757  28.635  13.013
83568W        W55883   2.084  42.424  10.745
83569W        W55884  11.708  43.717   2.934
83570W        W55885  36.048   5.572  14.535
83571W        W55886   5.730  32.132   4.260
83572W        W55887   7.200   7.222  14.537
83573W        W55888   2.418   0.130  14.109
83574W        W55889  39.328  34.192   3.245
83575W        W55890  22.715  22.210  13.995
83576W        W55891  42.367  26.039   1.843
83577W        W55892  16.595   6.851   3.271
83578W        W55893  30.502  36.094  13.923
83579W        W55894   8.966   2.929   2.972
83580W        W55895  21.098  37.040  10.702
83581W        W55896   2.957  17.668  10.988
83582W        W55897  14.781  10.719  13.061
83583W        W55898  10.968  16.092   5.461
83584W        W55899  32.027  31.812   4.378
83585W        W55900  14.686  13.724  12.593
83586W        W55901  18.978  30.550  11.061
83587W        W55902  38.217  12.766   5.103
83588W        W55903   4.547   5.467  11.083
83589W        W55904  10.822  11.721   4.553
83590W        W55905   3.874  21.302  13.045
83591W        W55906  21.488  40.766   1.462
83592W        W55907  44.885  12.127   4.623
83593W        W55908  27.210   5.800   1.261
83594W        W55909  40.533  12.719   1.923
83595W        W55910  18.099  31.430  11.997
83596W        W55911  21.591  23.618   2.766
83597W        W55912  10.557  38.059  12.534
83598W        W55913  16.443  43.273   4.871
83599W        W55914  16.538  44.477   9.831
83600W        W55915  41.280  11.770   4.258
83601W        W55916  15.966  13.613  12.581
83602W        W55917   1.206  37.142  14.789
83603W        W55918   2.943   6.769   4.277
83604W        W55919  30.579  42.269  14.314
83605W        W55920  32.010  14.259   2.745
83606W        W55921   0.313  15.154   1.235
83607W        W55922  22.317  10.183   3.217
83608W        W55923   4.141  11.628   3.712
83609W        W55924  24.039   9.251  14.007
83610W        W55925  17.103   4.830   2.885
83611W        W55926  36.863  21.734  14.700
83612W        W55927  44.593   2.003   4.552
83613W        W55928  11.686  37.041  12.847
83614W        W55929   2.886  25.959   2.311
83615W        W55930  20.662  32.132  10.347
83616W        W55931  18.402   5.799   1.372
83617W        W55932  33.152  37.549   0.185
83618W        W55933   5.200  15.988  13.699
83619W        W55934  16.134  35.048   3.723
83620W        W55935   2.819   4.181  12.839
83621W        W55936   4.065   0.408   0.796
83622W        W55937   0.257  12.520  12.484
83623W        W55938   6.771   4.875   4.932
83624W        W55939  38.290  42.796   4.390
83625W        W55940  31.113  18.538   3.862
83626W        W55941  14.088  40.157  11.312
83627W        W55942  34.131  42.008   0.740
83628W        W55943  24.138   3.748   3.529
83629W        W55944  29.485  12.913   3.167
83630W        W55945   3.983   5.946  12.098
83631W        W55946  15.656  11.255   4.823
83632W        W55947  23.277  25.645  13.394
83633W        W55948  42.835  12.164  10.764
83634W        W55949  33.354  41.479   3.438
83635W        W55950  13.804   6.267  10.691
83636W        W55951  26.770  40.934  12.516
83637W        W55952   3.364  33.088   3.673
83638W        W55953  18.771  28.531  12.112
83639W        W55954  38.130  27.943   3.732
83640W        W55955  26.799  27.124  14.964
83641W        W55956  14.920  15.795  10.767
83642W        W55957  27.159  26.668   1.899
83643W        W55958  25.228  32.121  10.317
83644W        W55959  12.746   8.130  15.000
83645W        W55960  35.912  40.590  13.768
83646W        W55961  19.386  28.431  13.912
83647W        W55962   8.126  18.600  14.015
83648W        W55963  11.093  17.914  10.714
83649W        W55964  24.276  20.965  13.792
83650W        W55965  18.969  36.546  12.772
83651W        W55966  16.297  32.029  14.479
83652W        W55967  29.986  27.177   4.427
83653W        W55968   7.908   0.728   0.838
83654W        W55969  40.465  40.224  14.432
83655W        W55970  44.793  10.326   1.351
83656W        W55971  24.559   7.713  12.532
83657W        W55972   3.909  38.691   1.889
83658W        W55973  10.240  26.151  13.781
83659W        W55974  10.905  13.940   2.262
83660W        W55975  11.213  27.606  10.701
83661W        W55976  12.897  27.041   3.581
83662W        W55977  36.533  23.096   1.848
83663W        W55978   1.694   5.172  11.352
83664W        W55979   7.543   6.356   4.845
83665W        W55980  32.352  31.362  13.520
83666W        W55981   8.368  31.068   4.434
83667W        W55982  19.689   2.931   0.335
83668W        W55983   8.888  26.042   0.859
83669W        W55984   1.120   0.693  13.875
83670W        W55985  26.595  28.325   2.558
83671W        W55986  14.236  24.918   1.443
83672W        W55987  22.046  10.950  11.190
83673W        W55988  20.099  23.297  11.410
83674W        W55989  30.596  20.305  11.192
83675W        W55990  12.736  13.052  14.904
83676W        W55991   8.130  23.691  11.999
83677W        W55992  20.523   5.375   2.934
83678W        W55993  32.432  23.185   3.578
83679W        W55994   0.946  43.910   0.064
83680W        W55995   0.234  36.541  14.376
83681W        W55996   1.907  44.452   0.495
83682W        W55997  12.688  42.482   0.881
83683W        W55998  18.983  35.549  12.692
83684W        W55999  12.850  10.374  14.773
83685W        W56000  32.982   4.407   0.949
83686W        W56001   6.690  29.518  11.997
83687W        W56002  30.421   0.249   1.874
83688W        W56003  42.767  18.130   0.359
83689W        W56004  41.425   8.483  10.717
83690W        W56005  28.117   8.604   3.172
83691W        W56006   0.806  44.237   4.518
83692W        W56007  10.116  16.691  11.098
83693W        W56008  10.802  20.340  10.919
83694W        W56009   5.651  11.174   1.771
83695W        W56010   0.466  10.476  12.567
83696W        W56011  15.776   0.958   3.206
83697W        W56012  35.961   6.377  13.316
83698W        W56013   3.929   1.873  14.512
83699W        W56014  32.887  37.267   4.404
83700W        W56015   2.377   3.844  12.706
83701W        W56016  22.109  23.649   1.172
83702W        W56017   5.230  19.282   3.084
83703W        W56018  41.848  28.132   4.372
83704W        W56019  44.351  37.297  10.681
83705W        W56020   7.252  13.270  12.495
83706W        W56021  11.288  29.744   3.640
83707W        W56022   2.418   9.120   2.720
83708W        W56023  30.369  42.432   1.475
83709W        W56024  32.536  26.270  14.967
83710W        W56025  29.907   9.167  11.223
83711W        W56026  13.460  40.371  11.624
83712W        W56027  42.294   7.138   2.620
83713W        W56028  32.608   2.275  12.524
83714W        W56029  28.806  16.108  11.290
83715W        W56030   1.267  12.770  13.354
83716W        W56031  38.015  15.741   4.162
83717W        W56032  17.554  30.640  12.511
83718W        W56033  31.308  34.091  14.403
83719W        W56034  26.142  27.583  10.959
83720W        W56035  21.436  37.044  11.074
83721W        W56036  16.365  18.631   0.454
83722W        W56037  34.616   2.533  10.787
83723W        W56038  39.392  37.771   1.994
83724W        W56039  10.626   9.712   4.579
83725W        W56040  11.712  20.574  10.934
83726W        W56041  38.601  15.563  13.580
83727W        W56042  27.140   8.171  11.574
83728W        W56043  22.156  25.891  12.907
83729W        W56044  25.452  39.486  13.713
83730W        W56045  39.081  16.864  13.253
83731W        W56046  31.099  27.408  10.713
83732W        W56047  25.661  12.707   4.057
83733W        W56048  33.496  26.548  11.950
83734W        W56049  29.410  39.704   9.490
83735W        W56050  34.466  31.934  10.831
83736W        W56051  11.856  37.389  14.261
83737W        W56052  39.810  20.617  12.913
83738W        W56053  30.005   7.694  14.720
83739W        W56054  42.469  20.605   0.196
83740W        W56055  14.179  39.945  14.587
83741W        W56056  14.720  17.714   3.200
83742W        W56057  28.000  20.909  10.066
83743W        W56058  37.501  14.118   3.598
83744W        W56059  19.234  10.232  11.159
83745W        W56060   8.723  32.137  12.069
83746W        W56061   9.896   1.973  10.956
83747W        W56062   7.844   3.488  13.861
83748W        W56063  37.591   0.828  10.701
83749W        W56064  26.148  36.508  13.902
83750W        W56065  44.034   4.949   4.683
83751W        W56066  39.070  37.870   4.037
83752W        W56067  32.221  25.566   3.794
83753W        W56068  23.971  24.985  14.265
83754W        W56069  43.233  22.470  14.077
83755W        W56070   3.859  30.393  12.533
83756W        W56071  12.178  29.207   3.656
83757W        W56072   2.389   3.289   2.013
83758W        W56073  37.846  27.352  12.823
83759W        W56074  42.377  38.006   3.414
83760W        W56075  22.560   0.497  12.488
83761W        W56076  39.520   8.434  11.708
83762W        W56077  29.480   0.302   3.875
83763W        W56078  44.814   1.480  10.641
83764W        W56079  35.918  26.982  11.591
83765W        W56080  41.919   6.825  11.197
83766W        W56081   1.686  38.333   2.788
83767W        W56082  14.480   9.679   0.930
83768W        W56083  28.601  32.122   1.416
83769W        W56084   3.322  37.458   2.889
83770W        W56085  42.481  33.534   2.608
83771W        W56086  40.285  14.527  12.354
83772W        W56087  30.873   5.594   3.553
83773W        W56088  29.048  38.494   2.773
83774W        W56089  36.251  28.236  11.044
83775W        W56090  41.383  11.826  13.357
83776W        W56091   2.390  22.435  12.593
83777W        W56092  40.221  29.835  14.296
83778W        W56093  44.748  17.968   3.129
83779W        W56094   2.508  20.072  12.443
83780W        W56095  23.811  15.591   1.340
83781W        W56096  41.199  18.858   2.345
83782W        W56097  31.837  38.066  12.420
83783W        W56098  41.738  25.230  13.539
83784W        W56099  35.945  38.800  13.461
83785W        W56100  26.140  37.581  10.376
83786W        W56101   2.617   1.542  13.936
83787W        W56102  12.794   6.197   4.322
83788W        W56103  13.448  12.569  12.167
83789W        W56104  37.429  28.680   2.418
83790W        W56105  11.288  27.946  14.158
83791W        W56106  32.620  28.866  12.955
83792W        W56107  20.513  18.335  10.617
83793W        W56108  12.660  18.299  11.964
83794W        W56109  13.696   3.284  11.978
83795W        W56110  33.956  26.576   5.048
83796W        W56111  21.799  29.017   4.551
83797W        W56112   7.227  27.879   1.916
83798W        W56113  19.137   0.639   2.223
83799W        W56114   2.687  35.561  13.263
83800W        W56115  16.619  44.032   2.487
83801W        W56116  19.957  19.513   0.140
83802W        W56117   8.937   8.610   4.123
83803W        W56118  40.838   5.674   3.543
83804W        W56119  44.293  24.605  14.319
83805W        W56120  42.906  44.266  13.627
83806W        W56121  32.047  13.765   2.641
83807W        W56122   1.391  17.611   1.365
83808W        W56123  28.903  33.662  14.701
83809W        W56124   7.681  39.533  10.756
83810W        W56125  25.839   6.303   5.506
83811W        W56126   0.487   7.874   1.379
83812W        W56127  13.391  43.698  11.626
83813W        W56128  41.739  20.232   0.357
83814W        W56129  11.626  35.591   4.655
83815W        W56130  17.098  40.265  12.347
83816W        W56131  34.976  16.731   3.734
83817W        W56132  34.612   7.907   0.308
83818W        W56133  40.485  33.598  13.881
83819W        W56134  39.585  31.416   4.044
83820W        W56135  36.271  28.654  10.675
83821W        W56136  13.974  34.664  13.357
83822W        W56137   9.905   2.506  14.495
83823W        W56138  37.790  40.450   2.312
83824W        W56139   3.684   3.886   0.216
83825W        W56140  37.955  31.381   1.315
83826W        W56141  42.406  41.765   4.917
83827W        W56142  37.535  10.881  11.160
83828W        W56143  16.609  38.627   4.734
83829W        W56144  16.443  12.204  13.743
83830W        W56145  26.489  14.222  13.017
83831W        W56146   5.410  36.830  13.484
83832W        W56147   4.716  28.397   5.001
83833W        W56148   5.199  14.087  13.526
83834W        W56149   7.427  38.030  11.743
83835W        W56150   0.393  38.661  13.459
83836W        W56151  21.688   0.190   4.559
83837W        W56152  27.447  30.935   5.521
83838W        W56153  33.648   4.825   4.326
83839W        W56154  26.437  12.718   4.870
83840W        W56155   9.933   0.725  14.832
83841W        W56156  25.456  15.547   3.024
83842W        W56157  20.278  44.410  13.051
83843W        W56158  31.028   1.778  14.870
83844W        W56159  11.867  44.448  14.920
83845W        W56160  23.486  19.163   3.534
83846W        W56161  15.797  37.187   3.808
83847W        W56162  24.503  16.368   4.463
83848W        W56163  37.923  12.834   1.587
83849W        W56164  12.996  24.725   0.168
83850W        W56165  30.570  19.592  10.721
83851W        W56166  42.679  13.524   3.582
83852W        W56167  26.117  43.372  13.004
83853W        W56168  26.792  14.755   4.362
83854W        W56169  18.383   4.737  14.741
83855W        W56170   6.340  37.819  11.027
83856W        W56171  27.517  33.686  13.062
83857W        W56172  17.818   8.464   3.671
83858W        W56173   5.788  20.512  13.092
83859W        W56174   0.419   4.837  14.717
83860W        W56175   9.484   1.787  12.208
83861W        W56176   2.464  34.149  14.002
83862W        W56177   4.649  42.489   2.270
83863W        W56178  28.218  37.860  12.487
83864W        W56179  40.020   1.509  14.263
83865W        W56180  39.278  10.255   0.927
83866W        W56181  12.675  19.780   0.474
83867W        W56182   5.974  44.050  12.870
83868W        W56183  21.705   9.415  11.507
83869W        W56184  30.548  38.010  10.804
83870W        W56185  18.396  38.846   3.313
83871W        W56186  43.257  11.776   4.675
83872W        W56187  39.782   5.956   0.207
83873W        W56188  44.370  27.713   4.046
83874W        W56189  25.421   1.280   1.365
83875W        W56190  15.247  37.014  12.532
83876W        W56191  43.831  13.601   2.800
83877W        W56192   4.812  16.065   3.034
83878W        W56193  38.413  17.319  12.879
83879W        W56194   1.925  17.653   1.311
83880W        W56195  31.137  19.639   0.426
83881W        W56196  14.292   5.197  12.635
83882W        W56197  31.652  15.157  11.853
83883W        W56198   3.302  10.393  10.338
83884W        W56199   5.742  26.495  10.434
83885W        W56200  19.083  21.972   4.534
83886W        W56201  35.032  12.032   1.948
83887W        W56202   7.634  23.369  13.007
83888W        W56203  41.977  25.444   1.424
83889W        W56204  20.237  25.129  13.210
83890W        W56205  15.344  42.261  13.513
83891W        W56206  21.607  43.421   0.718
83892W        W56207   2.342  41.783  13.088
83893W        W56208  42.465  38.671  12.002
83894W        W56209   7.485  16.558   2.664
83895W        W56210  13.678  28.964  11.786
83896W        W56211  42.835   0.946  12.524
83897W        W56212  31.236  22.135   2.812
83898W        W56213  40.740  19.715  11.895
83899W        W56214  31.479  12.064   2.678
83900W        W56215  17.102  13.152  12.837
83901W        W56216   7.912  30.272   2.675
83902W        W56217  30.109  44.800   1.758
83903W        W56218  23.082  39.078  10.717
83904W        W56219   6.244  20.703  10.638
83905W        W56220  24.883  40.648  12.650
83906W        W56221  10.442  36.067  10.147
83907W        W56222  43.027  26.224   2.325
83908W        W56223  12.739   3.448   4.543
83909W        W56224  18.105  20.956   0.372
83910W        W56225   7.164  15.579  13.392
83911W        W56226  21.056   2.112  14.884
83912W        W56227   4.435  25.741   1.297
83913W        W56228   6.391  15.687   3.971
83914W        W56229  32.084  22.476  11.121
83915W        W56230   4.898  18.991   4.785
83916W        W56231   2.160  36.832   2.068
83917W        W56232  27.112  20.597  11.532
83918W        W56233  31.075   9.341   3.441
83919W        W56234  30.111  32.299  10.181
83920W        W56235  36.882  25.563  10.664
83921W        W56236  32.830  27.532   4.683
83922W        W56237   2.804  11.809   1.798
83923W        W56238  38.001   0.622   0.768
83924W        W56239  28.078  24.970  11.771
83925W        W56240   4.517   3.589   0.378
83926W        W56241   4.182  16.333  13.278
83927W        W56242  31.924   6.607   3.217
83928W        W56243   3.915   8.882   1.342
83929W        W56244  14.324  11.792  13.779
83930W        W56245  31.689   1.744   1.668
83931W        W56246  43.760   2.486  14.164
83932W        W56247   9.285  23.210   3.546
83933W        W56248   7.928   4.760  14.419
83934W        W56249  37.411  37.674  14.329
83935W        W56250  13.920  15.036   4.703
83936W        W56251  10.807  13.607   3.491
83937W        W56252  18.193   0.788   1.189
83938W        W56253  21.710  20.178  12.281
83939W        W56254  25.925  19.206  14.342
83940W        W56255  33.588   4.310  13.162
83941W        W56256  22.453   7.133   2.518
83942W        W56257  23.230  31.203  14.213
83943W        W56258  38.882   6.997   2.738
83944W        W56259   7.789  10.652   3.847
83945W        W56260  17.341  17.517   4.143
83946W        W56261  40.077  16.892   3.257
83947W        W56262  33.541   3.537  11.351
83948W        W56263  16.861  36.833  14.354
83949W        W56264  33.638   2.432  12.783
83950W        W56265   7.235   3.753  12.895
83951W        W56266  36.963  28.117   1.791
83952W        W56267  43.517  42.656   4.789
83953W        W56268  24.181  44.490  11.887
83954W        W56269  34.002  27.343  12.600
83955W        W56270  35.455   4.968   3.622
83956W        W56271  23.075  42.204   1.232
83957W        W56272   1.290  22.605   1.581
83958W        W56273   6.988  23.047  10.781
83959W        W56274  13.870  14.075   2.678
83960W        W56275  14.663   1.601   4.899
83961W        W56276   6.886  44.300   1.386
83962W        W56277   5.759  41.275   4.612
83963W        W56278  15.183  28.698  14.904
83964W        W56279  41.768   2.431   4.781
83965W        W56280  34.388  26.659   4.194
83966W        W56281  20.684  28.673  13.620
83967W        W56282   4.072  22.408  10.321
83968W        W56283  13.463   2.770   4.023
83969W        W56284  15.251  22.584   1.770
83970W        W56285   1.020  44.948   0.195
83971W        W56286  19.863   0.385   3.977
83972W        W56287   6.274   2.097  11.640
83973W        W56288  30.085  23.277  11.957
83974W        W56289   3.355  37.452  14.263
83975W        W56290  42.660  25.520  14.392
83976W        W56291  42.515  40.110  12.046
83977W        W56292  20.693   5.742   3.643
83978W        W56293  13.272  22.193   0.965
83979W        W56294  20.530  41.561   2.933
83980W        W56295  35.182  44.046   2.252
83981W        W56296  36.339  40.908   0.555
83982W        W56297  15.140  17.502  12.471
83983W        W56298  30.461  13.618  11.518
83984W        W56299   4.385  13.103  13.526
83985W        W56300  38.132  31.515  11.420
83986W        W56301   5.604   6.630   3.200
83987W        W56302   5.606  42.040  12.583
83988W        W56303   4.788  18.849  12.939
83989W        W56304  42.695  17.120   1.707
83990W        W56305  18.854  25.701  13.609
83991W        W56306  14.257   7.911   3.280
83992W        W56307  24.946  38.606   0.657
83993W        W56308  42.566   4.233  13.065
83994W        W56309  28.762  23.549   3.553
83995W        W56310   2.248  18.570  13.659
83996W        W56311  19.062  25.601   4.199
83997W        W56312   5.811  29.142  11.985
83998W        W56313  10.272  14.312  13.963
83999W        W56314  39.816  34.553   4.584
84000W        W56315   9.519  24.379   1.681
84001W        W56316   8.172  32.519   1.117
84002W        W56317  42.847  23.929   1.782
84003W        W56318  35.855  13.605   3.619
84004W        W56319  22.296  20.183   1.456
84005W        W56320  41.153   0.432  13.418
84006W        W56321  44.525  15.147  13.442
84007W        W56322   6.289   2.885  11.193
84008W        W56323  12.844  31.604  10.416
84009W        W56324  37.491  23.035   0.665
84010W        W56325  25.222   4.360  14.313
84011W        W56326   0.477  38.526  13.953
84012W        W56327  33.864   4.918   1.725
84013W        W56328  23.514  28.389  14.766
84014W        W56329  17.756  10.663   5.033
84015W        W56330  11.889  11.086  13.284
84016W        W56331  30.062  17.167   0.434
84017W        W56332  12.463  16.641   9.694
84018W        W56333   2.979   4.468   3.298
84019W        W56334  44.053   3.090   4.991
84020W        W56335  12.069  16.637   0.266
84021W        W56336  23.268  36.376   3.868
84022W        W56337  32.065  20.910   0.485
84023W        W56338   0.021  37.812  11.633
84024W        W56339  34.203  11.662  12.580
84025W        W56340   0.921  19.017  13.184
84026W        W56341  28.997  15.917   2.723
84027W        W56342  41.562  28.998   1.713
84028W        W56343   5.783  35.565  10.809
84029W        W56344  35.939   1.393   3.335
84030W        W56345  13.281  10.282   3.625
84031W        W56346  41.466  15.354   0.822
84032W        W56347  14.500  37.851  10.002
84033W        W56348  10.896  24.163   0.430
84034W        W56349  39.135  25.969  14.563
84035W        W56350  28.618  22.251  12.130
84036W        W56351  19.742  42.359  12.608
84037W        W56352  42.260  22.278  11.214
84038W        W56353  33.457  17.673  14.333
84039W        W56354  24.592   1.774   2.549
84040W        W56355  30.994   2.752   1.143
84041W        W56356  36.454  31.117   2.995
84042W        W56357  33.311  14.110   5.291
84043W        W56358  35.601  25.438  14.500
84044W        W56359   7.166  26.479   0.965
84045W        W56360  26.398  21.656  12.899
84046W        W56361  30.668  28.010   2.880
84047W        W56362   6.481  24.523   3.653
84048W        W56363  39.383  38.775  12.013
84049W        W56364  11.729  31.050   0.979
84050W        W56365  27.741  43.237   3.325
84051W        W56366   2.515  39.440  13.397
84052W        W56367  26.264  25.009  12.011
84053W        W56368  29.496  26.481   3.820
84054W        W56369  33.598  33.413   0.306
84055W        W56370   1.447   6.760   3.149
84056W        W56371   2.877  32.368   4.499
84057W        W56372  23.220  12.649   2.769
84058W        W56373  19.797  11.642   2.269
84059W        W56374   1.905   8.438   3.605
84060W        W56375  36.039   3.897  10.794
84061W        W56376  41.999  32.055  13.784
84062W        W56377   1.997   3.574  10.194
84063W        W56378  15.503   9.847   0.888
84064W        W56379   2.796  18.701  12.332
84065W        W56380  34.532  43.378   3.858
84066W        W56381   4.341  28.638  12.490
84067W        W56382  39.331  22.065  11.006
84068W        W56383  11.640  20.331   4.117
84069W        W56384  27.678  18.547   0.296
84070W        W56385  36.875  24.405   0.785
84071W        W56386  28.228   5.623  13.150
84072W        W56387  37.751  17.558  14.373
84073W        W56388  12.610   1.486   4.690
84074W        W56389  13.787   5.342  13.891
84075W        W56390   6.223  28.838  13.647
84076W        W56391   4.009  26.488  11.075
84077W        W56392  38.824  34.364   4.557
84078W        W56393  23.256  20.990  12.905
84079W        W56394  29.758  17.653   0.346
84080W        W56395  36.206  40.424   1.415
84081W        W56396  19.019  30.970  14.901
84082W        W56397   0.715  30.490   4.151
84083W        W56398  12.224   3.757   3.053
84084W        W56399  41.583  30.430  13.489
84085W        W56400   9.355  36.991   4.869
84086W        W56401   8.760  12.902   4.636
84087W        W56402   4.379  11.351  11.581
84088W        W56403  33.923  43.344  10.838
84089W        W56404  12.832   5.189   2.444
84090W        W56405  44.156  43.573  14.884
84091W        W56406  30.150  31.991   2.258
84092W        W56407  37.136  12.925   4.006
84093W        W56408   3.894   0.681   0.117
84094W        W56409  25.055   3.907  13.918
84095W        W56410  26.507  28.772   3.739
84096W        W56411  19.181  14.270  11.394
84097W        W56412  38.897   8.535   2.712
84098W        W56413  13.612  44.389  11.266
84099W        W56414  29.672  12.690  10.439
84100W        W56415  37.604  34.619   3.658
84101W        W56416   5.802  21.555  14.409
84102W        W56417  24.032  32.361  14.819
84103W        W56418   1.829   3.240   4.603
84104W        W56419  39.619   6.407  12.561
84105W        W56420   6.888  10.553  10.446
84106W        W56421  44.973   3.898  10.715
84107W        W56422  22.979  42.496  14.962
84108W        W56423  38.570  44.403   2.420
84109W        W56424  23.047  36.496  12.531
84110W        W56425  29.003   0.343   0.398
84111W        W56426  28.163  24.496  12.007
84112W        W56427  28.764   1.268  13.319
84113W        W56428  14.231   5.860   0.492
84114W        W56429  10.230  29.534   2.646
84115W        W56430  41.478  40.014  12.036
84116W        W56431  24.722  39.195  10.816
84117W        W56432  27.117   9.300   2.188
84118W        W56433   0.257  32.523   2.421
84119W        W56434   0.280  38.093  11.996
84120W        W56435  14.353   3.770  13.344
84121W        W56436  18.412  41.099  11.123
84122W        W56437  36.092  24.110   1.772
84123W        W56438  17.685  21.318   1.183
84124W        W56439  22.531  41.348   2.823
84125W        W56440  36.451  33.609  12.882
84126W        W56441  13.801   3.455  12.510
84127W        W56442  15.810   2.182  14.480
84128W        W56443   3.125  20.225  13.274
84129W        W56444  36.921  32.566  13.473
84130W        W56445  30.796   9.968   0.335
84131W        W56446  43.035  32.345   2.786
84132W        W56447  27.410  28.742  14.515
84133W        W56448  33.162  18.060  11.176
84134W        W56449  31.511  37.152   2.190
84135W        W56450  25.866   8.188   4.827
84136W        W56451  18.262  39.289   3.829
84137W        W56452  29.057  41.701  13.538
84138W        W56453  38.504   5.897  10.712
84139W        W56454   2.547  41.908   3.146
84140W        W56455  23.849  30.143  13.958
84141W        W56456   6.455   8.623   3.171
84142W        W56457  12.236   4.820  13.886
84143W        W56458  17.730  38.117   1.945
84144W        W56459  13.110  34.091   4.610
84145W        W56460  36.119  10.102   1.883
84146W        W56461  16.481   6.233  12.060
84147W        W56462  44.322  30.559  11.082
84148W        W56463   8.352   4.775   9.870
84149W        W56464  42.066  29.770   1.797
84150W        W56465  12.781  29.590  13.463
84151W        W56466   7.471  21.859   1.707
84152W        W56467   6.897  16.599   4.097
84153W        W56468  42.306  44.251  10.682
84154W        W56469  38.533  28.288   3.830
84155W        W56470  20.417  25.029   3.653
84156W        W56471  30.059  19.114  10.709
84157W        W56472  26.647  33.780  11.597
84158W        W56473  13.236   5.887   0.219
84159W        W56474  24.747  33.707   2.202
84160W        W56475  32.892  40.876   2.086
84161W        W56476  20.508  13.173  14.844
84162W        W56477  12.632  13.846  11.033
84163W        W56478  40.509  29.861   3.619
84164W        W56479  28.742   6.821   3.767
84165W        W56480  37.260   4.651   4.097
84166W        W56481   1.694  26.062   1.499
84167W        W56482  33.793  31.430   3.672
84168W        W56483  21.672  35.878  13.904
84169W        W56484  14.350  17.194  11.064
84170W        W56485  43.028  37.542   9.980
84171W        W56486   2.426   8.241  11.965
84172W        W56487  27.738  11.955   1.127
84173W        W56488  35.848  20.660  14.323
84174W        W56489   0.890  10.207   5.013
84175W        W56490  26.585  36.321  10.764
84176W        W56491  42.571  14.234  11.883
84177W        W56492  37.594   7.644  13.723
84178W        W56493   9.664   6.650  12.410
84179W        W56494  34.796  39.461  10.727
84180W        W56495  22.248   5.254  12.348
84181W        W56496  16.194  25.662   0.780
84182W        W56497  11.243   8.670  14.906
84183W        W56498   3.899  41.495   1.751
84184W        W56499  28.450  24.658  11.529
84185W        W56500   0.932  36.631   1.637
84186W        W56501  14.280  33.171  13.812
84187W        W56502  25.063  23.032  13.907
84188W        W56503   0.465   1.688   1.906
84189W        W56504  32.264  18.771  11.133
84190W        W56505   4.199  31.587  14.957
84191W        W56506  16.788  31.876   3.771
84192W        W56507  31.570   4.764  10.293
84193W        W56508  36.019  27.646   4.274
84194W        W56509   0.608  42.382   1.307
84195W        W56510  20.044  35.773   3.998
84196W        W56511  23.547   1.034   2.783
84197W        W56512  26.678  35.308  12.550
84198W        W56513  23.737  25.657   4.944
84199W        W56514  14.204  34.977  14.109
84200W        W56515  36.376  10.102  12.023
84201W        W56516   3.532   5.046  11.190
84202W        W56517  26.605  24.123   0.644
84203W        W56518  35.468  31.998  10.711
84204W        W56519  34.862  19.488  10.030
84205W        W56520  30.684   7.194   2.272
84206W        W56521   0.393   9.134   0.802
84207W        W56522  20.572   0.763   2.360
84208W        W56523  38.761   7.415  14.687
84209W        W56524   5.380  41.570   4.809
84210W        W56525   0.498   6.699   2.803
84211W        W56526   2.289  35.596   2.294
84212W        W56527  31.323  42.747   0.703
84213W        W56528   1.051  41.891  12.498
84214W        W56529  40.301  24.745  14.336
84215W        W56530   6.656  17.050  14.977
84216W        W56531  19.754   3.209  13.873
84217W        W56532  30.208  26.723   2.627
84218W        W56533   1.803  24.129   4.626
84219W        W56534  38.092  29.432  10.521
84220W        W56535  30.235  34.543  12.034
84221W        W56536   9.619  12.710  11.956
84222W        W56537  33.884   7.170  12.438
84223W        W56538  11.592   8.621   1.647
84224W        W56539  26.231  16.572   2.092
84225W        W56540   6.773  41.470   4.410
84226W        W56541  33.134  44.996   0.930
84227W        W56542  16.123  26.185   0.770
84228W        W56543  13.148  16.469   2.367
84229W        W56544   4.803  32.730  10.038
84230W        W56545  38.420  33.056  12.463
84231W        W56546  38.163   9.569   3.094
84232W        W56547  42.953   5.997   2.465
84233W        W56548  33.463   5.127  12.622
84234W        W56549  38.643  44.496  13.441
84235W        W56550  10.415  21.369  11.507
84236W        W56551   5.364   1.372   4.564
84237W        W56552  14.799  43.983   1.573
84238W        W56553  21.794   9.748   2.401
84239W        W56554   6.857  17.088   0.815
84240W        W56555   7.396   9.447  12.999
84241W        W56556  40.825  39.527   2.657
84242W        W56557  12.744  20.267  14.436
84243W        W56558   3.777   0.840  14.621
84244W        W56559  37.405   3.660   5.086
84245W        W56560  21.723  37.110  13.344
84246W        W56561  18.954  19.096  11.529
84247W        W56562  24.678  43.442  11.027
84248W        W56563  28.604  19.127  11.757
84249W        W56564  44.824  43.777   0.499
84250W        W56565  30.182  36.934  10.745
84251W        W56566  10.328   6.504  11.086
84252W        W56567   4.075   6.830   3.179
84253W        W56568  39.486  23.123   0.945
84254W        W56569  34.160  10.203  12.462
84255W        W56570   4.830   0.195   1.302
84256W        W56571  32.371  42.047   0.896
84257W        W56572  18.713  26.154  13.805
84258W        W56573  19.255  35.498  11.570
84259W        W56574  32.939  28.561  11.612
84260W        W56575  24.601   3.368   1.868
84261W        W56576   4.349  18.484   0.577
84262W        W56577  31.920  42.259   4.470
84263W        W56578  19.295  39.676   4.647
84264W        W56579  13.616   1.848   3.392
84265W        W56580   3.433  10.640   2.699
84266W        W56581  33.112   2.353   1.044
84267W        W56582  31.381   4.550   5.030
84268W        W56583   5.658  30.539  14.006
84269W        W56584  34.821  21.932   4.692
84270W        W56585  27.016  28.902   0.422
84271W        W56586   2.025  10.806  13.881
84272W        W56587  39.411  19.539   1.832
84273W        W56588  37.289  40.600  14.232
84274W        W56589  29.465  29.529  12.209
84275W        W56590  34.746   4.931  13.544
84276W        W56591   1.556  32.048  13.102
84277W        W56592  28.796  25.106   2.706
84278W        W56593   3.819  29.865  12.599
84279W        W56594   3.133  18.867   4.333
84280W        W56595   5.734   8.322  11.294
84281W        W56596  38.618  19.883   2.231
84282W        W56597  41.852  37.353   9.856
84283W        W56598  43.414  31.292  13.923
84284W        W56599   3.775  33.529  13.017
84285W        W56600  24.546   4.746  14.286
84286W        W56601   2.457  16.136   0.489
84287W        W56602  44.435  29.133   3.698
84288W        W56603  36.064  30.110  14.788
84289W        W56604  32.109  35.574   1.396
84290W        W56605  17.582   6.062   2.386
84291W        W56606  30.921  28.240   0.533
84292W        W56607  27.881  37.430   4.145
84293W        W56608  33.421  19.699  12.569
84294W        W56609  13.206  32.382   2.258
84295W        W56610  27.627  30.436  14.954
84296W        W56611  34.122  20.678  14.696
84297W        W56612  31.452  27.486  10.350
84298W        W56613  25.112  19.766   1.743
84299W        W56614  38.369   3.206  11.525
84300W        W56615  27.943   6.595   3.156
84301W        W56616  25.910  32.052   5.166
84302W        W56617  38.174  36.954   2.085
84303W        W56618  27.136   7.714   1.293
84304W        W56619  33.647  37.493   0.054
84305W        W56620  21.960  34.598   4.750
84306W        W56621  41.971  23.228  12.916
84307W        W56622  19.256  16.683   4.068
84308W        W56623  33.581  30.421   4.611
84309W        W56624  26.423   2.911   2.186
84310W        W56625   0.564   2.594  11.636
84311W        W56626  12.778  33.686   3.278
84312W        W56627  12.027   3.465   0.802
84313W        W56628  15.498  12.756   0.697
84314W        W56629  28.931  11.313  14.883
84315W        W56630  27.470  24.559   4.730
84316W        W56631  43.925  20.195  10.776
84317W        W56632  39.500  11.684   1.856
84318W        W56633  34.719   7.441   2.791
84319W        W56634  42.530  26.444   3.123
84320W        W56635  36.904  17.538   4.676
84321W        W56636  26.215  28.866   0.719
84322W        W56637   5.340  31.876   0.446
84323W        W56638  30.410  34.603  13.952
84324W        W56639  28.061  11.806  13.387
84325W        W56640  35.072  22.176  12.102
84326W        W56641  27.654  41.925  12.843
84327W        W56642   0.975  36.650   2.638
84328W        W56643  44.381  36.480   4.350
84329W        W56644  17.508  10.903   4.639
84330W        W56645  22.780  25.549   4.409
84331W        W56646  18.836   0.409   3.222
84332W        W56647  18.107   1.343   2.951
84333W        W56648  30.161  20.086   1.796
84334W        W56649  37.450  15.612   1.837
84335W        W56650  12.347  17.683   1.070
84336W        W56651  35.598  28.841  11.042
84337W        W56652  10.675   6.182  10.363
84338W        W56653   9.323   2.771  12.547
84339W        W56654  22.258  12.595  13.995
84340W        W56655   4.445  15.755  14.547
84341W        W56656   1.315   5.700  14.695
84342W        W56657  42.271  35.521  12.028
84343W        W56658  17.246  39.053   1.886
84344W        W56659  22.226   4.249   4.562
84345W        W56660  32.164   8.428   3.754
84346W        W56661  10.914  17.509  13.851
84347W        W56662  11.631  14.149   0.788
84348W        W56663  20.796   1.453  12.534
84349W        W56664  39.511  35.082   1.769
84350W        W56665  24.200   4.271   2.639
84351W        W56666   8.366   8.941   3.061
84352W        W56667  22.067  19.453  14.341
84353W        W56668  42.512  33.664   1.569
84354W        W56669  43.876  35.153   3.530
84355W        W56670  43.210   0.916  12.006
84356W        W56671  23.444  16.727   3.666
84357W        W56672   5.313  25.906  11.017
84358W        W56673   8.416  31.612  11.539
84359W        W56674  32.074  25.227   3.260
84360W        W56675   8.642   1.850   3.587
84361W        W56676  39.351  10.251  10.863
84362W        W56677  10.867  12.200   2.740
84363W        W56678   2.466  34.001  13.083
84364W        W56679  12.311   2.413   2.059
84365W        W56680  20.404  14.871   1.310
84366W        W56681  30.639  28.626   0.819
84367W        W56682  41.054  28.923   1.765
84368W        W56683  19.316  39.829   1.883
84369W        W56684  40.963  28.957  10.669
84370W        W56685  34.845  20.528   1.748
84371W        W56686   4.753  28.092  13.295
84372W        W56687   7.373  41.793   3.265
84373W        W56688  15.603  17.553  13.860
84374W        W56689  18.251  24.189   0.192
84375W        W56690  42.907  25.795   0.007
84376W        W56691  14.030  22.774   2.398
84377W        W56692  26.717  37.524  13.028
84378W        W56693   4.453  29.049   2.355
84379W        W56694  40.319  36.485  14.526
84380W        W56695   4.245  44.643  12.955
84381W        W56696  31.557   5.169   1.291
84382W        W56697   1.413  33.674  10.427
84383W        W56698  39.013   3.204   3.680
84384W        W56699  21.507  32.865   3.181
84385W        W56700  18.220  28.940   4.817
84386W        W56701  10.216  40.561   1.341
84387W        W56702  39.956  21.619   4.113
84388W        W56703  31.568   2.920  14.737
84389W        W56704  39.726  14.022   2.955
84390W        W56705  21.130  39.483  13.517
84391W        W56706  22.372   8.826  10.715
84392W        W56707  26.115  14.625  12.064
84393W        W56708   7.681  20.623  10.980
84394W        W56709   4.934   3.988  11.636
84395W        W56710  21.727  30.034   0.725
84396W        W56711  41.866  16.040  14.013
84397W        W56712   0.408  24.651   4.659
84398W        W56713  16.805  39.097   4.571
84399W        W56714  21.207  41.837   0.318
84400W        W56715   2.257   4.309   0.469
84401W        W56716  13.611  31.868   4.156
84402W        W56717   4.848  17.191   0.780
84403W        W56718  41.546  22.231  13.265
84404W        W56719  23.922  18.765  13.119
84405W        W56720   2.002   0.927   2.814
84406W        W56721   8.255   8.811   1.136
84407W        W56722  15.804  42.159   4.193
84408W        W56723  27.878  29.506   2.760
84409W        W56724  33.941  20.500  10.810
84410W        W56725  13.743  12.390  11.765
84411W        W56726   3.477  22.076   0.679
84412W        W56727  36.827  30.297   4.057
84413W        W56728  35.049  20.329  14.938
84414W        W56729  18.568   5.687   2.246
84415W        W56730  21.041  41.533  11.789
84416W        W56731   0.055  21.566  14.918
84417W        W56732  42.968  16.357  11.478
84418W        W56733  12.697  11.279   2.129
84419W        W56734  32.347  33.138   2.116
84420W        W56735   4.739  44.227   3.824
84421W        W56736   8.742   2.386  12.041
84422W        W56737  28.144  21.578   2.374
84423W        W56738  39.803  37.403   3.229
84424W        W56739  43.304  28.398  13.518
84425W        W56740   9.454   2.856   3.166
84426W        W56741   4.725  33.755   1.322
84427W        W56742  40.551  13.968   4.264
84428W        W56743  34.880   2.709   4.250
84429W        W56744   9.420   9.603  14.422
84430W        W56745  22.863  18.371   2.724
84431W        W56746   7.061  19.347  14.401
84432W        W56747  38.683  28.964   2.733
84433W        W56748  35.573  24.516  14.294
84434W        W56749   2.441  40.961   3.781
84435W        W56750  34.964   2.243  12.998
84436W        W56751   6.701   4.041  11.542
84437W        W56752  10.930  25.007  13.494
84438W        W56753  18.788  12.975   2.782
84439W        W56754  14.106  39.993  13.164
84440W        W56755  25.885  33.441   4.097
84441W        W56756   4.909  19.108  10.680
84442W        W56757  26.953  43.028   1.840
84443W        W56758  37.505  42.811  10.605
84444W        W56759  37.082  23.558   0.431
84445W        W56760   3.478  16.271  14.291
84446W        W56761  37.876  15.367  13.791
84447W        W56762   9.286  37.349  13.996
84448W        W56763  28.960  26.092   4.536
84449W        W56764  31.334  23.754   3.736
84450W        W56765  16.363  32.494   2.187
84451W        W56766  44.213   2.487   1.226
84452W        W56767   3.127  33.930   0.392
84453W        W56768  32.840  30.860  11.484
84454W        W56769  41.519  14.685  12.873
84455W        W56770  44.431  38.876   2.134
84456W        W56771  13.698  27.704   4.585
84457W        W56772   3.497  31.847   0.457
84458W        W56773   3.639  20.007   2.304
84459W        W56774  19.846  10.880  14.486
84460W        W56775   9.095   5.789  11.304
84461W        W56776  43.585  26.650   4.598
84462W        W56777   0.257  12.762  10.638
84463W        W56778  27.138  34.312  12.942
84464W        W56779  18.275  14.414  12.573
84465W        W56780  38.450   2.994  13.443
84466W        W56781  29.682  26.256   0.274
84467W        W56782  23.143  11.260   3.734
84468W        W56783  13.588   4.789  12.895
84469W        W56784  27.129  29.558  13.386
84470W        W56785  37.060  28.495  11.187
84471W        W56786  36.126   6.310   2.144
84472W        W56787   9.559  31.502   2.335
84473W        W56788  23.835  23.387   1.625
84474W        W56789  11.366  36.084   1.810
84475W        W56790  33.670  27.530  13.101
84476W        W56791  41.076  25.134   3.582
84477W        W56792  44.085  13.407   1.740
84478W        W56793  18.014  17.965  12.040
84479W        W56794  11.071  31.695   4.149
84480W        W56795  37.393  35.507  11.028
84481W        W56796  32.510  42.108  11.141
84482W        W56797  20.171  14.930   4.750
84483W        W56798  39.877  13.859   3.453
84484W        W56799  24.131  22.109   5.441
84485W        W56800  29.176   4.909   1.354
84486W        W56801  22.904   5.242   4.282
84487W        W56802  11.062  27.735   0.953
84488W        W56803  22.940   6.731   1.415
84489W        W56804  30.446  43.415   1.953
84490W        W56805  18.501  34.335   3.625
84491W        W56806  38.149  37.600  14.733
84492W        W56807   6.871  27.092  10.535
84493W        W56808  17.574  16.652   4.573
84494W        W56809  17.638  11.228  10.093
84495W        W56810  13.296  20.386   1.937
84496W        W56811  10.220  38.835   0.807
84497W        W56812   9.789  15.656   1.705
84498W        W56813  42.013  22.068  13.101
84499W        W56814  40.494  12.713  10.765
84500W        W56815  16.252  39.777  14.856
84501W        W56816  32.226  16.723   0.831
84502W        W56817  39.705  13.240   4.562
84503W        W56818  26.429  18.287   0.723
84504W        W56819  22.569  25.146   3.639
84505W        W56820  10.125  15.312   0.355
84506W        W56821  35.457  41.013  14.589
84507W        W56822  14.826  21.642  12.667
84508W        W56823  17.882  25.181   0.714
84509W        W56824  16.570  31.976   1.432
84510W        W56825  26.655  18.656   0.417
84511W        W56826   4.497  31.352  11.625
84512W        W56827  16.183   3.951   0.637
84513W        W56828  11.814   1.171   0.655
84514W        W56829  19.045  15.280   3.598
84515W        W56830   9.311   4.408  10.890
84516W        W56831  41.998   0.267   0.860
84517W        W56832  25.934  13.900  13.855
84518W        W56833  21.629  11.143  14.848
84519W        W56834  16.617  29.087   0.464
84520W        W56835  33.441  18.313   0.089
84521W        W56836  44.468  19.153  12.751
84522W        W56837  29.934  40.364  13.585
84523W        W56838  20.579   7.131   2.885
84524W        W56839  17.398  43.903  10.838
84525W        W56840  28.165  35.974   1.009
84526W        W56841  41.486  15.957   3.663
84527W        W56842  43.871  13.683  14.039
84528W        W56843  38.230   4.490  14.466
84529W        W56844  41.459  20.283   1.924
84530W        W56845   4.997   2.336   3.084
84531W        W56846   9.129  37.634   0.725
84532W        W56847  22.844   1.966   3.171
84533W        W56848   9.203  43.543  14.520
84534W        W56849  27.749  35.142  10.282
84535W        W56850  24.451  21.299   2.727
84536W        W56851  12.655  27.604  10.673
84537W        W56852  22.195   8.370  12.828
84538W        W56853  24.550  31.116   3.113
84539W        W56854  16.826  35.026   1.409
84540W        W56855  15.327  20.206  11.160
84541W        W56856   3.379  29.612  12.493
84542W        W56857   2.409  41.422  13.535
84543W        W56858   8.296  31.413  12.843
84544W        W56859  36.459   1.043  14.720
84545W        W56860  15.745   6.833  14.573
84546W        W56861  10.978  29.907   2.745
84547W        W56862  12.026   7.134  14.961
84548W        W56863  28.295  20.480  10.206
84549W        W56864  40.645  15.615   4.603
84550W        W56865  23.576  32.472   1.934
84551W        W56866   2.685  34.471  12.881
84552W        W56867   4.904  43.274  14.141
84553W        W56868  37.532  23.500  12.570
84554W        W56869  19.561  25.558   3.335
84555W        W56870  16.110  26.178  14.355
84556W        W56871  14.408  12.315  13.887
84557W        W56872  22.166   5.851  14.119
84558W        W56873  30.967  24.733  14.431
84559W        W56874  15.507  13.603   0.734
84560W        W56875  37.877  12.713  11.489
84561W        W56876  28.917  43.839  14.288
84562W        W56877   7.379  34.906   3.801
84563W        W56878   0.925  41.247   2.791
84564W        W56879  18.418   8.741   4.129
84565W        W56880  16.338   7.870   2.791
84566W        W56881   5.801  43.537   3.240
84567W        W56882  28.455  23.718  11.502
84568W        W56883  28.001  26.657  10.236
84569W        W56884  24.150   1.896   0.256
84570W        W56885  11.758  24.430   1.962
84571W        W56886   4.426  12.141   4.278
84572W        W56887  40.879  29.957  10.630
84573W        W56888   2.355  21.065   1.973
84574W        W56889  23.025  13.793   1.633
84575W        W56890  41.731  37.941   1.708
84576W        W56891  17.659  27.770   2.322
84577W        W56892  42.165  38.340  12.788
84578W        W56893  40.014  34.362  14.507
84579W        W56894  38.661  24.188   4.487
84580W        W56895  25.944  36.416   0.758
84581W        W56896  23.693  39.254  12.356
84582W        W56897  34.597  28.054  13.821
84583W        W56898   3.960   7.282   5.203
84584W        W56899  11.401  10.646  11.059
84585W        W56900  28.242   2.440   4.225
84586W        W56901  27.586  26.716  14.802
84587W        W56902   4.292  39.601  12.852
84588W        W56903  11.709  14.050   4.255
84589W        W56904  38.075  44.949  13.067
84590W        W56905   6.964  23.573   0.247
84591W        W56906  12.376  20.280   2.827
84592W        W56907  23.160  26.113  12.425
84593W        W56908  41.238  11.209  14.333
84594W        W56909   6.343  33.425   4.117
84595W        W56910  23.154  36.015   0.838
84596W        W56911  39.787  11.606  12.456
84597W        W56912  30.413   8.879  14.376
84598W        W56913   6.716  35.559   4.554
84599W        W56914  40.593   1.931  14.982
84600W        W56915  43.252  33.590   4.087
84601W        W56916  19.508  33.822   0.239
84602W        W56917  17.803  12.306  13.506
84603W        W56918  18.289  33.582  14.307
84604W        W56919  40.907   9.434   2.127
84605W        W56920  21.702  15.264   3.032
84606W        W56921  12.823  44.710  13.629
84607W        W56922  20.642  33.955   0.779
84608W        W56923   6.620  39.468  13.589
84609W        W56924  31.662  30.654   0.318
84610W        W56925  29.517  38.524   4.527
84611W        W56926  41.108  43.608  14.291
84612W        W56927  25.003  31.355   3.275
84613W        W56928   0.263  39.299   0.384
84614W        W56929  10.399   5.369  11.208
84615W        W56930  35.737  12.304   1.513
84616W        W56931  25.599  43.886  11.450
84617W        W56932  26.670  37.556  12.153
84618W        W56933  34.190  21.636   3.344
84619W        W56934  21.013  44.164   0.844
84620W        W56935  14.825  35.410   4.281
84621W        W56936   0.149  20.641  13.842
84622W        W56937  11.872  44.798  12.626
84623W        W56938  15.165   9.650   3.522
84624W        W56939  31.365  29.011  13.515
84625W        W56940  19.030  23.697   3.317
84626W        W56941  25.178  44.439  14.808
84627W        W56942  22.872  38.489  11.065
84628W        W56943  29.936  27.422   1.331
84629W        W56944  10.862  23.616  11.642
84630W        W56945  28.733  12.328  13.659
84631W        W56946  14.149   8.102   4.714
84632W        W56947  38.226   1.990  14.357
84633W        W56948  25.966  39.626   3.788
84634W        W56949  28.887  21.916   4.344
84635W        W56950  26.135   0.378   0.744
84636W        W56951  38.566  41.416  11.131
84637W        W56952  25.492  31.113  14.909
84638W        W56953  22.096  36.658   4.862
84639W        W56954  10.714   6.298  11.341
84640W        W56955  33.357   2.786   3.061
84641W        W56956  13.289  10.114   1.877
84642W        W56957  27.249  21.520  10.592
84643W        W56958  25.062  28.086  12.331
84644W        W56959  17.992  35.198   4.086
84645W        W56960   8.926  25.272  14.766
84646W        W56961   8.919  41.309  10.683
84647W        W56962  14.131  16.369   3.799
84648W        W56963  41.477  18.086   2.984
84649W        W56964  13.910   9.966   1.138
84650W        W56965  26.986  30.633   3.354
84651W        W56966  41.452  37.653  10.002
84652W        W56967   2.178   7.808   2.752
84653W        W56968  25.520  11.806   3.684
84654W        W56969   9.195  17.710   1.774
84655W        W56970  44.004  24.413  11.681
84656W        W56971   0.065  39.403   2.734
84657W        W56972  31.327  24.554   0.852
84658W        W56973  18.948  24.769   2.717
84659W        W56974  13.274  20.600  13.530
84660W        W56975  23.235  31.397   2.614
84661W        W56976  41.580  33.895   1.911
84662W        W56977  19.257  26.020   1.345
84663W        W56978  34.310  27.661   3.240
84664W        W56979   6.814  15.018  10.992
84665W        W56980  24.530  39.319   1.223
84666W        W56981  38.544  25.077   1.199
84667W        W56982  39.789  25.674   2.381
84668W        W56983   7.706  10.713  13.970
84669W        W56984  33.052   0.906   0.479
84670W        W56985  37.361  43.952   2.714
84671W        W56986   5.469   4.375   4.071
84672W        W56987  16.108  30.722  11.460
84673W        W56988  12.173  40.665   1.827
84674W        W56989  35.808  10.227  13.406
84675W        W56990  29.965  21.790  13.916
84676W        W56991  30.353  44.236   3.610
84677W        W56992   1.015  33.186  11.511
84678W        W56993  13.636  18.800  11.957
84679W        W56994   0.303   1.311   2.256
84680W        W56995  30.009   9.876  12.447
84681W        W56996  18.097  15.918  14.738
84682W        W56997  23.011  15.965   2.587
84683W        W56998  16.316  22.977  13.795
84684W        W56999  26.529   9.177   0.850
84685W        W57000  44.461  38.087  11.026
84686W        W57001  44.298  10.466   2.388
84687W        W57002  35.055  15.927   3.131
84688W        W57003  31.149  10.360  10.934
84689W        W57004  16.283  17.388   1.512
84690W        W57005  39.462  32.141  14.760
84691W        W57006  37.841  15.985   1.735
84692W        W57007  42.529  32.404  14.751
84693W        W57008  28.088  17.160  13.682
84694W        W57009   4.506   5.167  12.856
84695W        W57010  43.898  10.143   9.813
84696W        W57011  20.950  27.428  14.932
84697W        W57012  20.958  10.198  12.086
84698W        W57013  14.033  23.176   3.544
84699W        W57014   2.152  19.679  10.788
84700W        W57015  34.476  16.714   3.024
84701W        W57016  24.977  15.027   0.259
84702W        W57017  42.075   4.288  13.956
84703W        W57018  33.450  33.159   4.160
84704W        W57019  25.580  24.734  14.806
84705W        W57020  21.529  18.686  11.363
84706W        W57021   4.387   1.795   2.597
84707W        W57022  24.960   6.410  11.715
84708W        W57023  15.351  39.366   2.638
84709W        W57024  38.814  19.573  10.963
84710W        W57025  31.340   8.854   4.983
84711W        W57026   2.623  41.141  12.405
84712W        W57027   3.604  28.207   4.218
84713W        W57028  25.892   2.876   4.173
84714W        W57029   1.511  10.099   1.976
84715W        W57030  29.868   8.657  11.195
84716W        W57031  33.092  17.314  11.316
84717W        W57032   0.804  22.834   1.800
84718W        W57033   0.275  14.864   1.698
84719W        W57034  33.642   1.772  11.985
84720W        W57035  27.362  34.974   4.845
84721W        W57036  32.321   9.713   1.912
84722W        W57037  20.254  36.539   0.526
84723W        W57038  20.264   9.198   0.032
84724W        W57039  26.664   4.416   2.920
84725W        W57040   0.087  40.697  14.875
84726W        W57041  13.649  10.367  13.002
84727W        W57042  21.493   5.802  12.454
84728W        W57043  18.842  30.337  12.493
84729W        W57044  19.821  11.256  13.300
84730W        W57045  13.265   5.169  13.859
84731W        W57046  25.557   1.684   4.598
84732W        W57047  17.546  40.308  13.012
84733W        W57048  13.594  25.821  12.727
84734W        W57049  40.741  22.973   2.205
84735W        W57050  24.599  19.372   2.708
84736W        W57051  15.542  21.214   4.338
84737W        W57052  43.478  31.099   0.502
84738W        W57053  30.058  41.557  13.250
84739W        W57054  29.031  41.829  14.315
84740W        W57055  30.213  44.968  13.343
84741W        W57056   2.289  13.776   3.142
84742W        W57057   0.754  24.788  11.556
84743W        W57058   3.299  12.258  10.414
84744W        W57059  25.759   0.417   1.128
84745W        W57060  40.022  27.595  13.994
84746W        W57061  37.142  36.864   1.076
84747W        W57062  40.534  31.015  10.482
84748W        W57063   4.855  25.282   2.690
84749W        W57064  26.553  10.145   2.242
84750W        W57065  33.060   9.410  12.475
84751W        W57066  16.583  29.529   0.200
84752W        W57067  44.976  31.929   4.572
84753W        W57068  35.216  19.608   3.672
84754W        W57069  27.023  33.776  12.852
84755W        W57070  20.688  44.673  10.637
84756W        W57071  24.490  20.358  12.756
84757W        W57072   4.749  38.751   2.487
84758W        W57073  15.046   0.971  14.902
84759W        W57074   2.679  35.395   3.295
84760W        W57075  20.453   1.872  12.507
84761W        W57076  16.813  11.690   1.948
84762W        W57077  22.337  32.492  13.383
84763W        W57078  44.810  25.494  14.743
84764W        W57079  37.505  38.997  14.177
84765W        W57080   4.445   7.960  14.389
84766W        W57081  29.684   5.806  14.936
84767W        W57082  40.604  14.824   2.209
84768W        W57083  31.544  12.715   1.830
84769W        W57084  38.527  11.899   2.357
84770W        W57085  42.984  44.348  13.123
84771W        W57086  11.116  26.606  11.943
84772W        W57087  18.243  36.375   0.067
84773W        W57088  26.003  24.648   2.188
84774W        W57089  29.672   2.466   0.381
84775W        W57090  40.247  44.168   1.774
84776W        W57091  14.640  41.516   0.829
84777W        W57092   5.661  42.071   2.835
84778W        W57093   4.005   2.147   2.709
84779W        W57094   5.341  15.582   2.009
84780W        W57095  39.364  11.095   4.288
84781W        W57096   8.699  27.602  12.792
84782W        W57097  21.879   0.994   4.151
84783W        W57098   7.823  30.636  12.875
84784W        W57099   6.770  44.304   4.492
84785W        W57100  31.022   3.882   1.237
84786W        W57101  37.502  17.465  11.211
84787W        W57102  29.599  36.480  12.487
84788W        W57103  30.253  18.615   1.929
84789W        W57104  35.389  34.631  13.977
84790W        W57105   2.463   4.931  13.253
84791W        W57106  34.156   4.816  12.159
84792W        W57107  36.381  29.767  14.550
84793W        W57108  31.360   8.647  13.423
84794W        W57109  35.430  21.705  10.965
84795W        W57110  22.669   0.670  13.950
84796W        W57111  27.150  44.792   2.176
84797W        W57112  14.925  25.061   3.666
84798W        W57113  13.975  33.208  12.494
84799W        W57114  14.944  25.853   3.137
84800W        W57115   1.722  18.039   0.460
84801W        W57116  41.306   3.853  11.066
84802W        W57117  14.207  21.282   2.164
84803W        W57118  14.769  24.499   4.331
84804W        W57119  34.422  22.531  12.442
84805W        W57120  14.857  36.597  13.517
84806W        W57121  38.803   8.672   0.907
84807W        W57122  41.056  34.876  13.472
84808W        W57123   9.770  18.336   1.445
84809W        W57124   3.976  35.713   4.050
84810W        W57125  11.511  42.321   3.402
84811W        W57126  31.829  24.672  12.618
84812W        W57127  39.523  34.531   2.257
84813W        W57128  35.495  32.387   2.289
84814W        W57129   9.202  36.445   4.623
84815W        W57130  27.052  29.146  12.465
84816W        W57131  30.950  27.486  14.288
84817W        W57132   7.787  10.241  10.659
84818W        W57133  22.167  42.304   1.696
84819W        W57134   4.982  11.940   4.138
84820W        W57135  39.148  11.699   3.861
84821W        W57136  16.736  17.737  13.967
84822W        W57137  24.037  20.539  14.521
84823W        W57138  10.570  30.371   3.502
84824W        W57139   9.705   9.944  11.573
84825W        W57140  25.099  38.756   3.632
84826W        W57141   7.361   2.084   4.165
84827W        W57142  44.273   6.858   1.167
84828W        W57143  12.105  43.509   3.275
84829W        W57144  32.630  40.874  11.731
84830W        W57145   5.689  19.523   3.151
84831W        W57146  42.860  23.053   3.885
84832W        W57147  35.334   9.223   0.374
84833W        W57148  22.619  26.327   1.777
84834W        W57149  17.873   3.339  11.712
84835W        W57150  38.442  29.010  12.049
84836W        W57151  40.040   1.768   3.207
84837W        W57152  12.859  20.280  13.529
84838W        W57153  12.531  16.871  13.914
84839W        W57154  29.436   5.014  10.812
84840W        W57155  15.046  44.385   0.354
84841W        W57156   4.801  23.001   3.189
84842W        W57157  41.029  13.584   2.266
84843W        W57158  20.502  10.370  12.304
84844W        W57159   6.803  42.593  14.367
84845W        W57160  40.925  39.360   0.442
84846W        W57161  15.904  33.375  12.941
84847W        W57162  42.882   8.490   3.495
84848W        W57163  37.036   4.426   4.527
84849W        W57164  24.275  37.193  12.742
84850W        W57165  15.566  20.720   4.530
84851W        W57166   1.838  43.432  14.468
84852W        W57167  19.236  34.004   3.050
84853W        W57168  28.967  13.133   3.118
84854W        W57169  16.873   1.910  14.298
84855W        W57170  18.543  22.904   2.154
84856W        W57171  44.260  44.493  13.552
84857W        W57172  39.881  23.149   4.160
84858W        W57173  38.517  41.729   3.441
84859W        W57174  43.374  20.800   0.583
84860W        W57175   0.800   4.840   2.819
84861W        W57176  33.199  23.294  12.421
84862W        W57177  37.893   4.485   3.130
84863W        W57178   6.098  39.104  14.454
84864W        W57179  19.245  21.252   3.696
84865W        W57180  40.414  22.606   2.378
84866W        W57181   1.946   3.001   3.192
84867W        W57182  10.103  30.108  13.580
84868W        W57183   7.681  31.598   1.083
84869W        W57184  40.145  19.281  14.013
84870W        W57185  20.845   8.688   4.186
84871W        W57186   4.980  34.441   1.331
84872W        W57187  11.494  35.925   2.471
84873W        W57188  22.577   0.180   3.621
84874W        W57189   0.270  13.352  11.899
84875W        W57190  14.562  19.974  14.869
84876W        W57191  40.896  29.202   2.183
84877W        W57192  14.839  16.057  12.082
84878W        W57193  14.114  34.208  11.651
84879W        W57194  29.692  21.280  10.722
84880W        W57195  39.833  21.282  12.282
84881W        W57196  18.292   9.780  13.469
84882W        W57197  37.655  20.318  11.241
84883W        W57198  23.388  40.057  14.368
84884W        W57199  18.114  31.381  14.349
84885W        W57200  38.831  36.354  14.317
84886W        W57201  40.058  22.456   0.821
84887W        W57202  27.448  18.110   1.959
84888W        W57203  27.751  39.943  12.034
84889W        W57204   3.784   5.401   4.819
84890W        W57205  26.213  22.704  11.928
84891W        W57206   9.249  25.480  13.546
84892W        W57207   4.199  10.601  13.478
84893W        W57208  17.949  41.365   5.522
84894W        W57209  13.682  20.769   0.336
84895W        W57210  27.772  37.816   5.129
84896W        W57211  36.540  25.793   0.384
84897W        W57212  17.734   2.204  10.877
84898W        W57213   6.067   3.138  12.527
84899W        W57214   7.227  36.479   4.565
84900W        W57215  14.742  20.730  11.610
84901W        W57216  17.204  44.687   2.500
84902W        W57217   3.833  33.450  10.637
84903W        W57218   8.589  16.123   0.307
84904W        W57219  39.019  44.025   2.781
84905W        W57220  38.987  31.706  13.380
84906W        W57221  36.950  40.846  14.528
84907W        W57222  16.756   2.944   3.003
84908W        W57223  27.992   6.432  14.925
84909W        W57224  18.735  17.529   1.794
84910W        W57225  15.959  14.332   3.225
84911W        W57226  41.034  19.442  14.067
84912W        W57227  16.332   1.482  14.009
84913W        W57228   5.769  40.823   4.056
84914W        W57229   9.631  28.584  14.278
84915W        W57230  30.222  21.084  13.857
84916W        W57231  14.036  37.853   3.228
84917W        W57232   1.193  28.871   2.141
84918W        W57233  34.577   9.437  12.460
84919W        W57234   6.011  20.538   0.405
84920W        W57235  41.588  31.426   4.187
84921W        W57236   7.806   0.846  13.320
84922W        W57237  11.391  22.414   4.184
84923W        W57238  21.262  12.312  14.508
84924W        W57239  38.954  39.778   2.429
84925W        W57240   3.998  41.955  11.945
84926W        W57241  10.656   1.727   3.850
84927W        W57242  27.354  20.652  11.973
84928W        W57243  16.386   3.328   4.973
84929W        W57244  12.093  34.465   0.533
84930W        W57245  31.881  33.327  11.812
84931W        W57246   4.354  17.416   4.280
84932W        W57247  37.861   6.693  10.600
84933W        W57248  42.696  36.412   1.468
84934W        W57249   3.929  24.633  12.254
84935W        W57250  14.881   0.336   1.834
84936W        W57251  19.705   0.432  12.530
84937W        W57252  18.678  31.373   2.130
84938W        W57253  41.076  20.145   2.875
84939W        W57254   9.581   9.689   2.459
84940W        W57255  13.290  23.294  13.481
84941W        W57256  23.423  19.377   2.227
84942W        W57257  35.704  15.672  13.505
84943W        W57258  34.928   0.782  12.125
84944W        W57259  30.331  19.867  11.090
84945W        W57260   8.404  39.628   4.105
84946W        W57261  41.776   8.668  11.269
84947W        W57262  35.585  31.631   1.876
84948W        W57263  26.651  20.880  11.499
84949W        W57264  27.218   0.208   3.218
84950W        W57265  17.491  33.070  11.516
84951W        W57266  44.300  15.669  10.194
84952W        W57267   3.349  18.100  11.472
84953W        W57268  21.240   6.635  12.850
84954W        W57269   7.243  31.406  11.196
84955W        W57270  28.142  31.150   2.152
84956W        W57271  29.949   0.674  11.358
84957W        W57272  33.542  36.314  10.447
84958W        W57273   5.050  16.471  13.531
84959W        W57274  44.201  20.134   0.449
84960W        W57275   2.467  38.546   2.413
84961W        W57276  37.543  14.092   4.663
84962W        W57277   4.837  40.841  12.481
84963W        W57278   3.006   0.213   0.705
84964W        W57279   8.410   2.800  13.590
84965W        W57280  40.509  41.776   1.450
84966W        W57281  14.181  30.843  11.574
84967W        W57282  35.336  10.426   2.147
84968W        W57283   9.165  18.301  13.419
84969W        W57284  14.523  32.311  11.649
84970W        W57285  41.589   3.256  13.086
84971W        W57286  29.410  16.631  14.877
84972W        W57287  13.153  42.453  14.796
84973W        W57288   6.699  16.116   3.170
84974W        W57289  31.576  21.668   1.809
84975W        W57290  26.074  39.472   1.979
84976W        W57291  23.166  41.754  11.684
84977W        W57292   5.202   1.872  11.096
84978W        W57293  32.810  27.583  10.788
84979W        W57294  23.246   3.684   3.627
84980W        W57295  36.586   9.259  11.800
84981W        W57296   1.252  29.994   0.527
84982W        W57297  34.883  10.710   4.203
84983W        W57298  36.028  13.823  13.424
84984W        W57299  28.486  35.993   4.256
84985W        W57300  16.064  31.914  14.043
84986W        W57301  12.086  19.137  14.360
84987W        W57302  17.666   6.598   4.967
84988W        W57303   4.328  33.391  12.387
84989W        W57304   5.763  27.578  11.429
84990W        W57305   5.746   4.709   1.193
84991W        W57306   3.704  39.228  13.220
84992W        W57307  34.059  32.677   2.311
84993W        W57308   7.826   2.471  13.499
84994W        W57309   1.180  39.086  13.946
84995W        W57310  21.397  38.582  11.090
84996W        W57311   3.740  16.856  13.452
84997W        W57312  16.955  44.746  10.228
84998W        W57313  28.684   6.676  12.032
84999W        W57314  10.393  12.680  12.360
85000W        W57315  23.818   5.387  10.819
85001W        W57316  21.667  39.835  11.635
85002W        W57317  30.870  14.601  11.061
85003W        W57318  34.394   4.967  13.108
85004W        W57319  21.785   4.433   4.326
85005W        W57320  12.814  36.317  11.572
85006W        W57321  27.067  36.592  12.120
85007W        W57322  11.087   8.545  11.031
85008W        W57323  37.338  41.096  14.946
85009W        W57324  31.498  21.770  11.758
85010W        W57325  21.048  19.106  12.103
85011W        W57326  40.330   2.926   4.625
85012W        W57327  35.255   8.357   0.155
85013W        W57328  42.448  34.144   4.917
85014W        W57329  18.580  44.005   0.455
85015W        W57330  19.966  30.880   4.871
85016W        W57331  23.604   3.719  11.125
85017W        W57332   5.142  22.224   4.916
85018W        W57333  18.681  25.653  11.843
85019W        W57334  14.084  35.928   0.072
85020W        W57335  43.289   9.105   0.303
85021W        W57336  22.403   2.177  14.114
85022W        W57337  21.553  17.019   1.256
85023W        W57338   9.190  20.551   4.126
85024W        W57339  18.217  18.152   1.228
85025W        W57340  34.501   3.944  12.575
85026W        W57341  27.416  16.776   1.342
85027W        W57342   8.279  44.949  14.467
85028W        W57343   8.594  20.797  13.803
85029W        W57344  17.833  27.717  10.003
85030W        W57345  35.029  21.900  13.763
85031W        W57346  29.439   1.116   3.113
85032W        W57347  19.737  20.473   1.389
85033W        W57348   4.411   5.367  13.776
85034W        W57349   6.902   7.377   2.559
85035W        W57350  20.202   9.823  14.338
85036W        W57351   4.192  33.433   2.396
85037W        W57352  36.411   4.683  14.413
85038W        W57353  10.665   7.374   4.558
85039W        W57354   4.762  40.828   3.988
85040W        W57355  35.982  32.394  14.590
85041W        W57356  18.849  42.350  11.689
85042W        W57357  12.683  12.582   3.211
85043W        W57358   5.383  29.631   4.672
85044W        W57359  39.789   5.244  11.702
85045W        W57360  11.702  18.766   3.778
85046W        W57361  22.707  16.332  10.761
85047W        W57362  16.006  15.979   2.486
85048W        W57363  20.496  15.097   2.237
85049W        W57364   7.314  20.247   3.699
85050W        W57365   0.439  40.904   3.674
85051W        W57366  39.308  19.608  11.107
85052W        W57367   7.295  35.177  14.996
85053W        W57368   4.317   4.412  13.454
85054W        W57369   0.311  28.736  12.271
85055W        W57370  34.841   5.282   1.144
85056W        W57371  42.374  41.057   3.417
85057W        W57372  13.878   0.026  13.375
85058W        W57373  25.636  12.187   2.353
85059W        W57374  17.356   3.458   4.089
85060W        W57375  20.287  31.650  14.805
85061W        W57376  37.925  10.089  14.782
85062W        W57377  28.187  27.605   2.367
85063W        W57378  36.863  37.019  14.938
85064W        W57379   3.084  33.238   3.224
85065W        W57380  41.881  35.053  11.387
85066W        W57381  40.786  15.147  11.978
85067W        W57382  44.573  35.789   1.337
85068W        W57383  24.294  17.804   4.379
85069W        W57384  39.847  20.009  11.682
85070W        W57385  33.034  42.166  11.208
85071W        W57386  38.849  40.395   3.984
85072W        W57387   4.328  27.950   2.380
85073W        W57388  25.444   3.747  12.022
85074W        W57389  33.549  27.451  14.720
85075W        W57390  24.059  32.835   2.427
85076W        W57391  44.803  40.875  13.393
85077W        W57392  44.267  41.335  14.281
85078W        W57393  23.831  32.971   0.321
85079W        W57394  16.813  32.611   2.430
85080W        W57395  31.632  13.104   3.243
85081W        W57396  23.150  27.229   4.590
85082W        W57397  37.763   0.377   1.271
85083W        W57398  22.943  43.380  14.621
85084W        W57399  40.996  23.700   2.660
85085W        W57400  19.794  34.710  11.283
85086W        W57401  19.532  21.195  13.562
85087W        W57402  27.057   9.435   0.352
85088W        W57403  14.801  37.827  12.941
85089W        W57404  31.342  42.882  12.577
85090W        W57405   6.790   2.420  13.836
85091W        W57406  36.203  23.685   2.535
85092W        W57407  33.516  14.348   2.857
85093W        W57408   8.142  36.970   0.682
85094W        W57409  11.330   0.267   4.300
85095W        W57410  16.255   6.686  12.057
85096W        W57411   8.994  26.091   4.137
85097W        W57412   4.971  10.707  14.338
85098W        W57413  40.884  21.970  12.322
85099W        W57414   9.714  27.720   3.215
85100W        W57415  13.287  13.856   2.264
85101W        W57416   9.387  16.760   0.894
85102W        W57417  10.478   4.119  12.702
85103W        W57418   1.792  12.369   3.309
85104W        W57419   6.846  22.581   0.410
85105W        W57420   4.435   7.203   3.190
85106W        W57421  10.812  37.318   2.146
85107W        W57422   3.323   4.923  13.884
85108W        W57423   8.780  27.942   3.752
85109W        W57424  22.298  23.110  13.486
85110W        W57425   3.958  39.358  14.234
85111W        W57426  32.042  26.621   4.086
85112W        W57427   2.728  11.442   2.673
85113W        W57428  38.481  35.910  12.505
85114W        W57429  17.695  42.274   4.632
85115W        W57430   9.390  34.099   2.749
85116W        W57431  18.491  42.650  13.403
85117W        W57432  35.715  15.244  11.599
85118W        W57433  44.812  30.503   3.660
85119W        W57434  15.483   6.227  10.933
85120W        W57435  31.187  26.310  12.144
85121W        W57436  22.757  17.731  10.697
85122W        W57437   4.918  41.516   3.212
85123W        W57438  29.541  29.382  13.469
85124W        W57439  10.420   3.944  10.228
85125W        W57440   1.367  22.500   1.067
85126W        W57441  36.169   8.403   2.381
85127W        W57442  40.329  10.752  14.597
85128W        W57443  36.560   1.946   2.583
85129W        W57444  35.076   9.533  10.755
85130W        W57445   1.709  15.700  10.673
85131W        W57446   6.350  39.549   4.283
85132W        W57447  10.164  34.862  10.798
85133W        W57448  44.017  40.557  12.632
85134W        W57449   0.203  26.622   0.770
85135W        W57450   6.397  38.573   0.810
85136W        W57451   5.716  12.114   1.754
85137W        W57452  30.416  27.662  11.496
85138W        W57453  14.219  37.992  10.795
85139W        W57454  12.169  15.160  13.439
85140W        W57455  22.760  13.357   1.876
85141W        W57456  20.466  25.944  12.950
85142W        W57457  18.547  21.315   4.189
85143W        W57458  31.421   0.779   2.706
85144W        W57459  32.859   7.285  11.117
85145W        W57460  27.005  38.320   0.842
85146W        W57461  30.453   8.836   2.864
85147W        W57462   6.964  26.694   0.185
85148W        W57463  42.466  10.616  11.629
85149W        W57464  15.587  30.028  11.175
85150W        W57465  32.185   3.219  11.160
85151W        W57466  29.307  38.938   2.763
85152W        W57467   0.480  16.728  13.854
85153W        W57468   7.759   3.884  12.940
85154W        W57469  26.694  15.942   1.214
85155W        W57470  37.966  10.575   2.613
85156W        W57471   3.518   6.761  10.592
85157W        W57472   8.459  44.809   0.856
85158W        W57473  29.250  24.848   2.756
85159W        W57474  29.796  11.946  13.044
85160W        W57475  27.714  41.503  11.129
85161W        W57476   2.042  17.104   0.433
85162W        W57477  39.464  38.281   0.988
85163W        W57478  40.523  35.837   2.937
85164W        W57479  27.005   7.922   0.346
85165W        W57480  20.119  35.619   1.287
85166W        W57481   3.299  38.673   2.209
85167W        W57482  11.486  20.071  10.211
85168W        W57483  12.818   7.386   4.879
85169W        W57484  26.625   3.205   1.807
85170W        W57485  25.596   9.124   1.302
85171W        W57486  24.710  18.866   2.718
85172W        W57487  29.704  24.523   2.683
85173W        W57488   5.293  30.209  11.580
85174W        W57489  21.595   4.774  10.711
85175W        W57490  33.211   8.843   2.253
85176W        W57491  37.815  20.997  13.039
85177W        W57492  25.373   0.336  11.664
85178W        W57493  21.668  16.492   0.870
85179W        W57494   2.800  14.762   4.534
85180W        W57495  21.091   5.059  11.561
85181W        W57496  34.371  30.287   4.064
85182W        W57497  43.393  22.299  13.346
85183W        W57498  44.527  21.719   4.657
85184W        W57499  41.389   9.768   0.519
85185W        W57500  31.364   3.730  14.280
85186W        W57501  40.649   5.206   3.413
85187W        W57502  16.030  38.409  11.031
85188W        W57503  13.886  38.463  10.879
85189W        W57504  14.566  15.111   1.407
85190W        W57505  13.328  17.028  11.077
85191W        W57506   1.139  10.690   3.199
85192W        W57507  15.729   7.200  14.978
85193W        W57508  34.076  43.031  12.238
85194W        W57509  35.506  28.115  14.118
85195W        W57510  39.634   9.448  10.715
85196W        W57511  19.770  27.926   2.865
85197W        W57512  11.225  28.473  13.577
85198W        W57513  27.155   0.388   0.813
85199W        W57514  21.617  28.693  13.498
85200W        W57515  39.884  33.973  10.646
85201W        W57516  31.618   2.342  11.512
85202W        W57517   4.780  15.257  12.418
85203W        W57518  29.285  15.096   2.859
85204W        W57519  15.733  30.701   5.005
85205W        W57520   2.000  19.715  13.017
85206W        W57521  34.938  32.925   1.796
85207W        W57522   0.462   0.023   2.959
85208W        W57523  11.840  40.423  12.559
85209W        W57524  26.426  14.761   1.986
85210W        W57525   2.537  14.064  10.725
85211W        W57526  25.590  44.852  12.488
85212W        W57527  11.290   3.865  13.418
85213W        W57528   6.319   8.526  10.275
85214W        W57529  43.992   6.687  13.326
85215W        W57530   5.879   7.268   0.905
85216W        W57531  13.393  11.607   0.201
85217W        W57532  28.019  22.591   1.828
85218W        W57533  12.294   3.280   4.350
85219W        W57534  29.114  30.941   2.685
85220W        W57535   7.172  27.284   4.388
85221W        W57536  25.137   1.458   0.316
85222W        W57537  40.383   2.988   1.841
85223W        W57538  24.897  20.115  14.014
85224W        W57539  42.464  43.702  10.712
85225W        W57540  22.172  22.982  12.089
85226W        W57541   9.826  32.137   0.815
85227W        W57542  16.609   7.528   1.019
85228W        W57543  35.876  33.182   0.775
85229W        W57544  12.686  16.062  11.579
85230W        W57545  24.990  35.553   1.967
85231W        W57546   1.654  22.198   2.254
85232W        W57547  19.140  29.995  13.939
85233W        W57548  11.807  44.735  14.421
85234W        W57549  44.767   1.752   3.249
85235W        W57550  39.310  15.062   2.353
85236W        W57551   7.497  37.840   4.233
85237W        W57552  38.648  15.816  11.619
85238W        W57553  41.052  27.631   0.775
85239W        W57554  11.819  41.810  13.872
85240W        W57555  20.409  10.728   9.696
85241W        W57556   2.329  26.904  13.980
85242W        W57557  13.779  43.755   3.907
85243W        W57558  15.715   8.123  13.454
85244W        W57559  13.206   0.889  14.523
85245W        W57560  30.420  22.369   2.448
85246W        W57561   5.627  22.868  14.963
85247W        W57562   5.713  37.822   4.573
85248W        W57563  22.972  14.722   4.226
85249W        W57564   3.172  13.108  13.918
85250W        W57565  30.328   2.514  11.057
85251W        W57566   3.905  38.780  13.043
85252W        W57567   8.961  39.770   4.940
85253W        W57568  30.121  27.566   0.846
85254W        W57569  17.022  11.209   3.747
85255W        W57570  12.526  25.603   3.225
85256W        W57571   1.413  19.540   2.848
85257W        W57572   4.179   7.356  12.813
85258W        W57573  13.137   3.872  11.718
85259W        W57574  18.018  29.607  14.537
85260W        W57575  10.761  16.223  13.450
85261W        W57576  31.135   2.960  10.597
85262W        W57577   6.899  14.807  14.564
85263W        W57578  34.057  19.569  14.779
85264W        W57579  26.496  37.067  14.806
85265W        W57580  43.262  35.989   4.270
85266W        W57581   0.733  10.740  14.356
85267W        W57582  26.958  18.342  11.191
85268W        W57583  21.578   6.503  12.028
85269W        W57584  37.747   5.144   3.832
85270W        W57585  15.655  24.808  11.036
85271W        W57586  13.804  33.397  12.012
85272W        W57587  20.685   8.345  10.666
85273W        W57588  35.770  38.759   4.151
85274W        W57589  42.623  15.262  12.676
85275W        W57590  34.061  24.052   2.100
85276W        W57591   9.085  23.602   0.431
85277W        W57592  44.202  43.243   1.781
85278W        W57593  27.008  39.565   3.780
85279W        W57594   2.429  38.283  11.598
85280W        W57595  19.293  11.341   2.967
85281W        W57596  13.691  44.238   4.129
85282W        W57597   2.711  38.051  13.439
85283W        W57598  22.177  31.320   0.910
85284W        W57599  23.216   6.419   3.775
85285W        W57600  44.633   4.265   1.750
85286W        W57601  13.685  23.804  11.181
85287W        W57602  17.113  31.476  13.417
85288W        W57603  38.530  24.015  12.846
85289W        W57604   1.666   5.381   3.801
85290W        W57605  23.680  17.179   4.888
85291W        W57606  34.480  29.592   2.667
85292W        W57607  39.531  40.249  13.329
85293W        W57608  25.343  29.095   2.885
85294W        W57609   7.246  36.073   2.195
85295W        W57610  16.230   8.767  14.711
85296W        W57611   1.356   0.533   4.373
85297W        W57612  21.742  21.552  11.446
85298W        W57613  27.387  12.685  13.530
85299W        W57614  20.927  39.505   0.125
85300W        W57615  10.372   3.777  13.184
85301W        W57616   1.379  36.501   1.930
85302W        W57617   4.963  11.751   0.939
85303W        W57618   6.655   5.881   3.229
85304W        W57619  36.425  41.451   4.082
85305W        W57620  12.857   9.281   2.276
85306W        W57621   6.967  35.907  10.386
85307W        W57622  39.579  14.066  11.549
85308W        W57623   0.305  22.220  13.181
85309W        W57624   1.809  26.761  11.162
85310W        W57625  26.501   2.866  13.287
85311W        W57626  38.829   6.190   0.396
85312W        W57627  38.772  17.557   0.509
85313W        W57628  29.725  13.118   0.477
85314W        W57629  42.790  11.600  12.002
85315W        W57630  38.341  21.341  14.644
85316W        W57631   0.338   5.771  13.854
85317W        W57632  35.411  24.656  12.358
85318W        W57633   4.155   4.985   0.590
85319W        W57634  29.941  23.489  14.907
85320W        W57635  29.334   1.809   0.774
85321W        W57636  44.972  28.456  12.558
85322W        W57637  22.224  43.936   1.266
85323W        W57638  15.573   1.236   1.212
85324W        W57639  43.212  40.652   4.553
85325W        W57640  11.874  44.321   4.628
85326W        W57641  43.373  14.892  11.616
85327W        W57642  32.630  23.889   0.762
85328W        W57643  26.508  33.173   1.757
85329W        W57644   4.838  39.073   1.525
85330W        W57645  31.324  17.757   1.752
85331W        W57646  16.378   1.334   1.680
85332W        W57647  11.698  11.764   9.950
85333W        W57648   9.070   4.595   9.995
85334W        W57649  10.104  19.636   2.877
85335W        W57650   7.116  29.106  14.473
85336W        W57651  42.240  12.172   3.290
85337W        W57652  24.215  12.129   4.023
85338W        W57653  31.131  35.104  13.425
85339W        W57654  35.099  10.276  12.485
85340W        W57655  39.298  39.326  10.705
85341W        W57656  23.224  24.833   4.074
85342W        W57657  18.769  11.761   1.909
85343W        W57658  37.000  44.267  10.403
85344W        W57659  18.155  21.439  10.572
85345W        W57660   7.540  38.552  14.931
85346W        W57661  41.807  20.294   3.398
85347W        W57662  20.759   7.565  11.153
85348W        W57663  23.915  19.793  13.021
85349W        W57664  10.823  21.303  11.137
85350W        W57665  24.016  25.122  11.705
85351W        W57666   0.109   8.120  14.342
85352W        W57667  33.838   0.922   2.788
85353W        W57668   4.768  35.940  10.892
85354W        W57669  19.817  21.470  13.932
85355W        W57670   3.834  16.598  11.984
85356W        W57671  16.712  15.081   2.788
85357W        W57672   3.170  36.079  12.591
85358W        W57673  38.057   1.752  10.713
85359W        W57674  29.694  33.679  12.015
85360W        W57675   0.162  30.987   3.624
85361W        W57676  12.934  33.875   1.378
85362W        W57677   3.607  18.833   5.020
85363W        W57678  10.420  32.956  12.061
85364W        W57679  14.575  19.821  11.593
85365W        W57680  12.327  25.603  12.593
85366W        W57681   3.363   2.890   1.230
85367W        W57682  17.847  16.641  11.579
85368W        W57683  26.957  14.913   2.671
85369W        W57684  44.360  27.479   2.022
85370W        W57685  44.950  43.408   1.309
85371W        W57686  32.587  15.151  11.876
85372W        W57687  38.376  23.138  11.615
85373W        W57688  34.623   0.058   0.336
85374W        W57689  12.715  23.989  12.650
85375W        W57690   2.512  20.254   1.430
85376W        W57691  43.339  34.069  12.496
85377W        W57692  19.209  36.179   4.289
85378W        W57693   2.859  44.229   2.275
85379W        W57694   3.975  27.755   1.386
85380W        W57695  17.783  36.968   4.066
85381W        W57696  18.851  18.042  11.602
85382W        W57697  32.512  24.659   1.327
85383W        W57698  30.707  35.151  11.006
85384W        W57699  40.253  27.213  13.511
85385W        W57700  34.942  15.820   0.260
85386W        W57701  23.482   0.427   1.885
85387W        W57702   7.231  44.717  11.408
85388W        W57703   4.618  16.685  12.622
85389W        W57704  11.674  10.296   1.944
85390W        W57705  36.488  37.385  10.706
85391W        W57706  23.270  20.040   4.013
85392W        W57707  26.735  37.534  14.798
85393W        W57708  12.424  36.256  13.444
85394W        W57709   3.860  14.665   3.190
85395W        W57710  26.750   5.493   4.935
85396W        W57711  35.877  13.112  12.958
85397W        W57712  34.047  32.630   1.398
85398W        W57713   7.358   5.415   2.772
85399W        W57714   5.818   8.765   1.742
85400W        W57715  36.251  10.750  11.656
85401W        W57716  31.819   0.025   0.832
85402W        W57717   1.849  19.161   4.886
85403W        W57718  12.285  33.890  12.774
85404W        W57719   9.634  36.922   1.280
85405W        W57720   6.843  10.310   0.515
85406W        W57721  27.150  37.087  11.581
85407W        W57722  19.730   3.183  12.913
85408W        W57723  34.920  38.405   2.616
85409W        W57724  17.503  33.491  13.576
85410W        W57725   8.245  18.501   0.489
85411W        W57726   2.749  10.298   3.663
85412W        W57727   3.631   8.530   5.348
85413W        W57728   3.948   8.153  10.371
85414W        W57729  43.307  11.092   5.296
85415W        W57730  43.683  13.587  11.417
85416W        W57731  24.269  17.212   2.719
85417W        W57732  16.830  25.439   2.224
85418W        W57733  10.939  36.476   4.278
85419W        W57734  38.425  35.545   2.857
85420W        W57735  38.561  43.792   4.501
85421W        W57736  25.912  43.973  10.641
85422W        W57737  14.711  24.933   0.256
85423W        W57738  15.101  17.648  11.992
85424W        W57739  34.435   8.783  10.894
85425W        W57740  12.262  42.907  14.489
85426W        W57741  27.612  29.189  13.596
85427W        W57742  36.536  16.021   0.784
85428W        W57743   0.867  39.483  14.061
85429W        W57744  42.113  30.108   2.371
85430W        W57745  27.034  42.514   2.520
85431W        W57746  20.468   3.909   1.717
85432W        W57747  30.919  32.268  12.018
85433W        W57748  17.251  26.105   1.863
85434W        W57749   4.882  34.948   0.831
85435W        W57750  32.248  41.660  11.272
85436W        W57751  15.997  41.118   4.173
85437W        W57752  12.799  21.257  13.582
85438W        W57753  42.462   7.708   0.912
85439W        W57754  23.435   8.917   1.307
85440W        W57755  12.082  16.683  14.464
85441W        W57756  17.616  30.895  13.865
85442W        W57757  11.814   9.328   4.503
85443W        W57758   3.436  15.730  14.276
85444W        W57759   5.883   2.481   4.910
85445W        W57760  30.059  18.004  13.040
85446W        W57761   6.452  38.930  12.498
85447W        W57762  19.331  33.078   3.479
85448W        W57763  35.150  19.163  12.391
85449W        W57764  27.863  37.651  13.785
85450W        W57765  28.692  18.672   2.753
85451W        W57766  14.642  44.553   2.442
85452W        W57767  43.827  38.527  10.395
85453W        W57768  28.745   2.309  13.571
85454W        W57769  14.616  32.496  14.867
85455W        W57770  40.734  28.335   3.147
85456W        W57771  16.000   5.858  14.894
85457W        W57772   1.321  37.795   3.404
85458W        W57773  40.606  19.522   2.740
85459W        W57774  36.333  33.902  10.645
85460W        W57775  38.326  41.025  13.503
85461W        W57776  26.455  10.600  14.366
85462W        W57777  18.995  44.682  14.452
85463W        W57778   6.884  28.142   4.298
85464W        W57779  43.568  13.395   1.910
85465W        W57780  28.673  33.113   2.212
85466W        W57781  41.244  21.216  13.952
85467W        W57782  40.770  41.748  11.987
85468W        W57783  14.165  28.601  10.787
85469W        W57784  29.461  44.299   4.495
85470W        W57785  32.934  41.281   1.672
85471W        W57786  20.480  14.760  10.645
85472W        W57787   5.680  38.368   4.624
85473W        W57788  29.731  11.412  11.491
85474W        W57789  38.571  18.847   2.188
85475W        W57790  35.374  33.866   3.808
85476W        W57791  32.288  40.058   1.909
85477W        W57792   7.628  34.359  10.448
85478W        W57793  32.884   9.881   0.588
85479W        W57794  34.716  37.015   0.822
85480W        W57795   4.668  40.579   2.210
85481W        W57796  15.504  34.063  12.582
85482W        W57797  24.870   0.263  11.669
85483W        W57798  41.596  38.008   2.214
85484W        W57799  17.485   2.546  13.774
85485W        W57800   9.708  43.506   4.785
85486W        W57801  28.761  25.498   0.224
85487W        W57802  42.709  25.931  11.724
85488W        W57803  43.986  22.948   0.771
85489W        W57804  39.057  19.749  14.994
85490W        W57805   8.927   2.501  12.744
85491W        W57806  24.951  31.920   2.547
85492W        W57807   7.442  17.263   2.197
85493W        W57808  38.998   4.434  13.296
85494W        W57809  35.600  31.405  13.047
85495W        W57810  12.794  23.597   3.229
85496W        W57811   8.206  44.693  11.571
85497W        W57812  21.612  21.039  11.470
85498W        W57813  32.648  12.991   4.092
85499W        W57814   6.429  25.931   1.142
85500W        W57815   7.903  38.131  11.998
85501W        W57816  29.183  17.539   2.221
85502W        W57817   4.677  38.408   0.684
85503W        W57818   5.347  22.426   2.121
85504W        W57819   9.582  35.535  10.655
85505W        W57820  37.241   9.261   3.897
85506W        W57821  23.135  23.463  11.010
85507W        W57822  10.794  14.223   0.339
85508W        W57823  23.328   8.944   3.320
85509W        W57824  16.486  25.036  12.076
85510W        W57825  25.421  17.351  14.458
85511W        W57826  26.710  22.315   0.786
85512W        W57827  41.485  14.867   0.373
85513W        W57828   7.859  30.081  12.055
85514W        W57829  42.736   8.750  11.183
85515W        W57830  33.415   6.644  12.808
85516W        W57831  32.669  42.829   4.604
85517W        W57832   8.167  37.123   2.323
85518W        W57833  20.256  22.162  11.378
85519W        W57834   8.186   6.312   3.909
85520W        W57835  13.091  15.357   1.362
85521W        W57836  41.915  33.648  13.269
85522W        W57837  38.086  39.728   2.411
85523W        W57838  42.431   3.957  11.563
85524W        W57839  21.633  39.551  12.905
85525W        W57840   9.891  25.540   4.309
85526W        W57841   2.381  10.245  10.741
85527W        W57842  27.425  41.048  14.415
85528W        W57843   8.202  26.940   4.163
85529W        W57844  35.105  18.807   5.093
85530W        W57845  39.892  20.005   2.629
85531W        W57846  11.141   2.731   4.537
85532W        W57847   7.671   0.460  12.964
85533W        W57848  19.720  31.460   3.769
85534W        W57849  19.462  27.648   0.273
85535W        W57850  12.838  36.995   1.305
85536W        W57851  37.511  38.042   0.809
85537W        W57852   9.391  30.839   0.884
85538W        W57853  22.204  33.972   4.155
85539W        W57854   0.494  23.710   1.871
85540W        W57855  21.263  18.309   2.791
85541W        W57856  24.946  44.738  13.912
85542W        W57857  37.829  29.697  12.041
85543W        W57858  42.451  27.546   4.666
85544W        W57859  28.624  11.827   3.230
85545W        W57860  18.979   5.392   4.629
85546W        W57861  29.416  31.140  13.931
85547W        W57862  27.430  42.842   4.106
85548W        W57863  17.678  20.173  11.110
85549W        W57864  11.786  12.104   2.537
85550W        W57865  40.435  43.672   1.798
85551W        W57866  26.476  12.722  14.058
85552W        W57867  12.929  23.074  12.876
85553W        W57868  44.487  12.626  11.087
85554W        W57869  30.662  19.522   0.249
85555W        W57870  42.791  30.889   1.381
85556W        W57871   0.930  29.770  13.813
85557W        W57872  41.964  37.399  10.406
85558W        W57873  22.182  44.479   2.716
85559W        W57874  33.735  37.927   2.753
85560W        W57875   3.785  10.117  12.593
85561W        W57876  27.113  34.892  11.248
85562W        W57877  10.830  27.659  11.068
85563W        W57878   1.407  41.464   0.794
85564W        W57879  39.186  10.255  10.372
85565W        W57880  20.692  35.105   4.266
85566W        W57881  15.570  16.280  11.593
85567W        W57882   5.278  30.865  13.865
85568W        W57883  29.111  20.186  13.508
85569W        W57884  42.277  10.163   3.726
85570W        W57885  31.031  42.851  13.903
85571W        W57886  21.241  10.798  14.415
85572W        W57887  34.118   7.187  14.294
85573W        W57888  43.540  23.142   2.188
85574W        W57889  44.785  35.398  11.624
85575W        W57890  11.601  21.146  14.576
85576W        W57891   1.022  42.728  11.150
85577W        W57892  39.128  35.858  11.011
85578W        W57893   5.828  38.019   2.369
85579W        W57894  32.170  11.148  11.477
85580W        W57895  10.460  41.760  13.117
85581W        W57896  27.084  33.404  13.828
85582W        W57897   8.337  13.699   3.235
85583W        W57898  15.898  14.694   4.592
85584W        W57899  10.397  16.453   1.757
85585W        W57900   3.456  14.805   4.104
85586W        W57901   7.037  39.943  11.195
85587W        W57902  25.794  34.523  14.486
85588W        W57903  31.921   3.978  10.614
85589W        W57904   1.353  43.853  14.736
85590W        W57905  21.012   8.210   1.378
85591W        W57906   4.148   5.088   2.011
85592W        W57907  34.814  24.954  14.401
85593W        W57908   3.738  29.158   4.050
85594W        W57909   8.937   1.838  14.943
85595W        W57910  42.492  37.401  10.515
85596W        W57911   6.912  25.092   2.911
85597W        W57912  26.121   2.492  12.554
85598W        W57913  44.792   0.688  13.499
85599W        W57914  18.540  31.499  11.104
85600W        W57915  32.179  42.963   2.152
85601W        W57916   9.408   3.996  11.640
85602W        W57917  35.653   8.337  12.999
85603W        W57918  19.495  35.849   0.349
85604W        W57919  27.188  41.014   0.485
85605W        W57920  29.095  30.577   0.737
85606W        W57921  41.948  30.531   5.052
85607W        W57922  44.638   3.672   0.470
85608W        W57923  43.438  34.484   0.185
85609W        W57924  36.305  36.964  14.844
85610W        W57925   4.777  41.731  12.254
85611W        W57926  38.440   2.279  13.917
85612W        W57927  11.096  10.745  14.689
85613W        W57928  38.346  35.382  11.092
85614W        W57929  27.156  36.608   0.347
85615W        W57930   9.172  26.551  10.687
85616W        W57931   3.677  23.308   4.893
85617W        W57932  38.488  12.571   1.812
85618W        W57933  26.403  38.441  11.470
85619W        W57934  22.598  28.105  13.006
85620W        W57935  38.839   8.739   2.223
85621W        W57936  34.003  13.667   4.216
85622W        W57937   7.156  15.878   0.824
85623W        W57938  41.984  44.334   1.097
85624W        W57939  29.760   3.465  14.463
85625W        W57940  16.564  42.461  12.005
85626W        W57941  20.697  11.328  12.797
85627W        W57942  30.915  17.704   3.351
85628W        W57943  30.638  10.308   2.285
85629W        W57944  37.032   8.724   0.071
85630W        W57945  10.709  30.956   2.438
85631W        W57946  13.152  29.266   3.720
85632W        W57947  35.750  38.450  10.827
85633W        W57948  38.799   1.356   1.269
85634W        W57949  40.989  23.171  11.441
85635W        W57950   1.944  21.629  14.553
85636W        W57951  12.983  37.444  11.023
85637W        W57952  37.859  31.103  13.505
85638W        W57953  25.978  19.527  12.077
85639W        W57954  38.753  22.656  12.766
85640W        W57955  24.025   3.017   4.409
85641W        W57956  39.518   0.905  11.090
85642W        W57957  35.273   0.387   0.339
85643W        W57958  43.073  15.566   2.331
85644W        W57959   0.947  29.399  10.476
85645W        W57960  37.907   0.474  13.053
85646W        W57961   3.076  19.367   4.253
85647W        W57962  38.575  29.253  11.596
85648W        W57963  40.203  24.469   3.239
85649W        W57964   8.875  24.323   5.069
85650W        W57965  42.850  41.013   2.609
85651W        W57966  19.476   8.683   1.733
85652W        W57967  17.946  26.135   4.540
85653W        W57968  39.714  43.600  12.474
85654W        W57969  35.358   2.897  12.941
85655W        W57970  12.222  11.367  13.592
85656W        W57971   3.312   0.939   2.487
85657W        W57972  19.112  29.980   4.579
85658W        W57973  37.566   1.231  11.012
85659W        W57974  17.083  40.430  13.866
85660W        W57975  20.704   9.743  14.037
85661W        W57976  24.000   6.714  12.288
85662W        W57977  20.976  35.514  14.309
85663W        W57978  27.557  19.734  11.065
85664W        W57979  32.205  24.998  12.087
85665W        W57980   0.050  34.057   5.359
85666W        W57981  16.490  43.772  11.953
85667W        W57982   0.751  10.891   4.446
85668W        W57983  25.746   4.971  13.167
85669W        W57984  35.555  31.112   1.929
85670W        W57985  16.083  36.418   4.427
85671W        W57986  36.076   6.947  11.632
85672W        W57987   4.679   5.356  13.318
85673W        W57988  13.819   2.521  11.160
85674W        W57989  38.321  29.543  11.953
85675W        W57990   0.963  14.495   4.765
85676W        W57991  44.623  19.661  11.548
85677W        W57992  27.162  27.193  10.675
85678W        W57993  41.985   4.969   0.252
85679W        W57994  35.950   3.211  14.941
85680W        W57995  31.542  13.130   0.740
85681W        W57996  35.882  16.120   2.573
85682W        W57997  16.983  18.159  12.827
85683W        W57998  40.148  19.525  13.126
85684W        W57999  33.443   5.870  14.427
85685W        W58000  31.048  30.583   2.859
85686W        W58001  29.815  28.836   3.134
85687W        W58002  32.589   5.302  10.649
85688W        W58003  24.925  25.805   2.891
85689W        W58004  18.549  32.273   0.988
85690W        W58005  11.273  24.009  13.357
85691W        W58006  41.546  14.665   0.861
85692W        W58007  10.161  41.482   4.009
85693W        W58008  42.433  29.220  13.921
85694W        W58009   7.777  13.061  10.660
85695W        W58010  28.675  34.826   3.525
85696W        W58011  23.141  15.176  12.182
85697W        W58012  13.396   9.804  12.036
85698W        W58013   1.516  38.443  11.941
85699W        W58014  30.879  38.588   0.399
85700W        W58015  41.700  18.049  12.958
85701W        W58016  25.607  42.379   4.275
85702W        W58017  34.861  44.838   2.422
85703W        W58018  24.551  36.490   4.497
85704W        W58019  39.262  38.991  13.110
85705W        W58020   8.446   1.738   0.896
85706W        W58021  36.604  19.608  10.672
85707W        W58022  17.995  23.456   3.575
85708W        W58023  24.602   3.639   3.740
85709W        W58024  11.709  19.311   5.694
85710W        W58025  34.181  33.555   0.324
85711W        W58026  15.825  36.513  13.776
85712W        W58027   4.125   4.891   3.268
85713W        W58028  42.053   4.883   1.196
85714W        W58029   8.975  10.603   1.791
85715W        W58030   0.941  36.292  14.777
85716W        W58031  17.283   3.862   1.331
85717W        W58032  16.211  44.308  14.279
85718W        W58033   5.105  38.302   2.618
85719W        W58034  39.070  43.942   4.551
85720W        W58035  40.282  13.704   1.156
85721W        W58036  11.632  26.450  11.986
85722W        W58037  23.699  23.264   2.607
85723W        W58038  32.463  32.093   2.786
85724W        W58039  18.338  11.988   2.102
85725W        W58040   3.927  14.610   0.941
85726W        W58041   6.377   7.612  14.048
85727W        W58042  37.095  37.529  12.863
85728W        W58043  42.255  44.982  12.850
85729W        W58044  18.966  10.510   2.996
85730W        W58045  44.540   0.787  14.349
85731W        W58046  17.331   5.431  12.469
85732W        W58047  26.704  41.981  10.769
85733W        W58048   4.284  40.468   1.382
85734W        W58049  23.736   8.998  14.388
85735W        W58050  12.057   6.783   4.916
85736W        W58051  10.312   6.840   1.385
85737W        W58052  37.068  39.949   1.891
85738W        W58053  35.509  40.089  13.412
85739W        W58054  26.625  26.983   4.152
85740W        W58055   5.007  22.514   3.127
85741W        W58056  21.180  30.621   0.054
85742W        W58057  21.297  39.207  13.096
85743W        W58058   9.139  18.693  14.958
85744W        W58059  11.455  29.979   1.337
85745W        W58060  35.737  44.337   1.607
85746W        W58061  43.382  41.351  14.622
85747W        W58062  23.131  40.763  11.626
85748W        W58063  26.501  39.897  11.690
85749W        W58064  41.914  35.939  12.727
85750W        W58065  32.387  21.656  11.978
85751W        W58066   7.085  15.036   1.691
85752W        W58067  25.711  34.115   4.269
85753W        W58068  44.587  30.045   3.856
85754W        W58069  21.291  24.636  13.946
85755W        W58070  20.554  17.104  13.960
85756W        W58071  36.026  30.205  10.929
85757W        W58072   8.216  15.987   1.921
85758W        W58073  40.936  21.344   0.505
85759W        W58074   1.284  14.025  12.380
85760W        W58075   4.362  34.976   4.536
85761W        W58076  22.149  23.726   2.669
85762W        W58077  19.642   7.669   2.881
85763W        W58078  21.767  30.465   2.309
85764W        W58079  35.513  29.082   3.836
85765W        W58080   0.839   9.271   5.030
85766W        W58081  11.869  39.440   3.811
85767W        W58082  36.943  11.861  14.799
85768W        W58083  10.123   6.610   3.591
85769W        W58084  18.152   1.030  14.167
85770W        W58085  18.304  23.559   3.967
85771W        W58086  20.050  29.947  14.715
85772W        W58087  39.602  17.481   0.935
85773W        W58088  32.406  36.419   0.784
85774W        W58089  34.181  22.146  11.349
85775W        W58090  14.311  21.951  12.001
85776W        W58091  32.012  24.440  13.050
85777W        W58092  18.172   8.299   3.246
85778W        W58093  40.868  15.128   3.760
85779W        W58094  35.513  22.642  13.395
85780W        W58095  30.042  20.925  14.360
85781W        W58096  43.358  44.656   2.510
85782W        W58097   8.711  13.351  10.686
85783W        W58098  28.895  43.985  11.532
85784W        W58099  15.044  19.190   2.441
85785W        W58100  42.771   4.337  11.636
85786W        W58101  15.471  20.194  14.508
85787W        W58102   0.949  36.976  13.330
85788W        W58103  30.157  35.611  14.961
85789W        W58104   8.548  43.522   0.333
85790W        W58105   7.187  24.922   0.267
85791W        W58106  19.733   6.873   1.693
85792W        W58107  24.506   9.359   3.222
85793W        W58108  14.303  41.982   4.143
85794W        W58109  35.274  41.137  11.233
85795W        W58110  11.153  40.546   0.028
85796W        W58111  24.229  14.723   1.174
85797W        W58112   3.422  43.492  10.711
85798W        W58113   6.415   7.935   0.028
85799W        W58114   3.784  13.540   0.761
85800W        W58115  19.987  29.942  14.202
85801W        W58116   8.182  23.806  13.186
85802W        W58117  40.324  44.038   3.116
85803W        W58118  15.175  18.627   1.794
85804W        W58119  10.356  24.063  14.390
85805W        W58120  40.573  22.650  10.328
85806W        W58121  19.931  10.894   5.094
85807W        W58122  22.493   5.971   4.565
85808W        W58123   2.410  44.047  14.416
85809W        W58124  44.974  13.189  10.568
85810W        W58125  17.970  39.028  14.026
85811W        W58126  23.471  37.080  11.110
85812W        W58127  28.183   5.853   0.729
85813W        W58128  36.979  34.005   1.650
85814W        W58129  27.590  28.128   0.348
85815W        W58130  42.513  38.823   3.833
85816W        W58131  20.477  42.789   2.479
85817W        W58132  15.718  15.391  12.800
85818W        W58133  27.002  10.952  13.798
85819W        W58134  19.690  41.409   1.349
85820W        W58135  40.135  25.558  11.944
85821W        W58136  36.646  16.948   2.004
85822W        W58137  41.682   1.879  13.822
85823W        W58138  27.604  44.208  14.452
85824W        W58139  18.578  16.993   3.224
85825W        W58140  32.403  20.079   2.247
85826W        W58141   0.194  44.420   3.895
85827W        W58142  36.407  40.577  11.423
85828W        W58143  43.300   7.957  13.610
85829W        W58144   8.773   8.769   3.303
85830W        W58145  29.554  26.546  14.837
85831W        W58146  39.317  42.148  10.694
85832W        W58147  16.039  41.979  12.455
85833W        W58148  29.073  41.972  12.559
85834W        W58149  41.995  29.654  14.871
85835W        W58150   6.151  20.226  14.493
85836W        W58151   2.343  42.519   3.710
85837W        W58152  15.088  23.459   0.697
85838W        W58153  43.092  18.510  14.835
85839W        W58154   4.405  35.906  13.626
85840W        W58155  13.904  30.341  14.853
85841W        W58156   6.016  34.506   2.265
85842W        W58157   2.260  12.614  10.468
85843W        W58158  21.634  43.540   1.949
85844W        W58159   2.780  26.703   0.779
85845W        W58160  43.293  41.203  11.748
85846W        W58161  17.047  15.088  12.875
85847W        W58162  37.082  31.962  10.743
85848W        W58163  17.305   7.254  12.324
85849W        W58164  12.456  17.138   4.518
85850W        W58165   1.640  29.217   0.928
85851W        W58166  24.646  10.197   2.197
85852W        W58167  17.833  18.670  11.056
85853W        W58168  15.840   8.729  10.405
85854W        W58169  39.445  39.773  10.937
85855W        W58170  40.760  20.506   3.072
85856W        W58171  31.177  37.733   0.919
85857W        W58172  34.544   3.037   1.329
85858W        W58173  20.508   5.494   2.447
85859W        W58174  36.153  36.305  11.123
85860W        W58175   9.759  17.216   0.347
85861W        W58176   7.692   2.836   2.679
85862W        W58177  33.253  10.259   9.787
85863W        W58178  10.091  30.387   3.777
85864W        W58179   8.011  31.365  13.341
85865W        W58180  27.170  40.934  12.123
85866W        W58181  16.401  44.721   0.438
85867W        W58182  43.291  39.812   0.215
85868W        W58183  29.465  18.681   2.280
85869W        W58184  35.045  34.864  11.885
85870W        W58185  16.235  42.613  13.833
85871W        W58186  24.440  34.175   0.305
85872W        W58187  11.703  25.469  11.112
85873W        W58188   0.042   2.003  12.394
85874W        W58189  24.332  12.981  12.921
85875W        W58190  27.894   7.915   0.336
85876W        W58191   5.956  14.586   0.304
85877W        W58192   1.294  40.819   4.569
85878W        W58193  15.324  44.992  11.928
85879W        W58194  19.508   3.080   4.785
85880W        W58195  13.817   3.036  11.064
85881W        W58196  29.947  21.060  13.365
85882W        W58197   7.673  37.175  11.263
85883W        W58198  35.912  40.762  12.423
85884W        W58199  31.993  11.267  14.524
85885W        W58200   0.033  15.093   3.760
85886W        W58201  31.152  13.425   1.929
85887W        W58202  28.070  14.564   2.312
85888W        W58203  32.662   2.762   3.650
85889W        W58204   0.296  29.677  11.493
85890W        W58205   5.197  43.040  12.572
85891W        W58206  31.942  44.298  12.608
85892W        W58207   6.361  42.848   0.304
85893W        W58208  29.873  34.499   4.034
85894W        W58209  34.299  35.110   0.965
85895W        W58210  33.926  30.535  11.068
85896W        W58211  23.978   7.885  13.912
85897W        W58212   3.217   7.901  11.635
85898W        W58213  23.784  40.360   4.093
85899W        W58214  10.795  19.012   0.889
85900W        W58215  21.537  31.012   3.753
85901W        W58216  30.974   2.271  13.375
85902W        W58217  31.849  14.317  11.445
85903W        W58218  23.871  36.553   3.274
85904W        W58219   8.353  37.063  11.506
85905W        W58220  29.065  16.124   3.210
85906W        W58221  29.024  36.885   1.032
85907W        W58222  12.737  32.923  12.386
85908W        W58223  36.685  29.500   4.104
85909W        W58224  27.111  28.219  12.340
85910W        W58225  34.001  44.510  14.023
85911W        W58226   4.499  15.661  10.654
85912W        W58227  23.648  14.846  14.257
85913W        W58228  19.140  42.890  11.105
85914W        W58229  18.709  14.133  12.560
85915W        W58230  21.765  35.944  11.375
85916W        W58231  14.960   6.013  14.976
85917W        W58232   7.968  37.595  13.377
85918W        W58233  26.488  12.236   1.258
85919W        W58234   2.907  41.132   1.839
85920W        W58235  16.583  15.648  14.897
85921W        W58236   5.394   7.649  13.418
85922W        W58237  28.840  31.031   0.001
85923W        W58238   2.664  35.499  13.791
85924W        W58239   5.657  33.477   1.406
85925W        W58240  40.931  19.274   2.190
85926W        W58241  21.229  20.646  10.763
85927W        W58242  37.898  21.863   1.863
85928W        W58243  44.325  23.707  14.906
85929W        W58244  19.884  42.367  14.478
85930W        W58245   9.881  39.489   4.392
85931W        W58246  34.863   6.799  11.205
85932W        W58247   4.752  29.467   2.506
85933W        W58248   9.402  10.875  14.074
85934W        W58249  38.200  32.551  12.451
85935W        W58250  17.144   1.236   2.262
85936W        W58251  34.425   7.450  10.803
85937W        W58252   2.501  41.836   1.447
85938W        W58253  43.290  21.641   0.195
85939W        W58254  40.623  30.967  11.663
85940W        W58255  15.677  42.848  11.570
85941W        W58256   8.184   9.930   3.881
85942W        W58257  32.006  13.257  10.550
85943W        W58258  14.534  43.041   1.770
85944W        W58259  14.987  25.798  11.626
85945W        W58260   2.737  14.741  11.701
85946W        W58261  16.842  27.205   3.762
85947W        W58262   8.824  36.066  14.861
85948W        W58263  29.847  44.992   0.256
85949W        W58264   5.729  28.857  13.474
85950W        W58265  29.541   8.978   2.370
85951W        W58266  23.159  44.461   0.691
85952W        W58267  28.535  13.238   3.621
85953W        W58268   5.485   4.817   4.720
85954W        W58269  17.730   7.804   0.319
85955W        W58270  20.634  30.518   3.717
85956W        W58271  40.112  13.521  12.011
85957W        W58272  44.175  12.286  10.284
85958W        W58273  19.283  28.795   5.060
85959W        W58274  27.998  41.978   3.875
85960W        W58275  42.042  37.520  12.873
85961W        W58276  39.541  40.001   0.479
85962W        W58277  35.905  13.827   3.133
85963W        W58278  23.586  33.200  14.890
85964W        W58279  27.227  26.484  14.472
85965W        W58280   5.438  18.576   0.737
85966W        W58281  28.576  32.155   3.774
85967W        W58282  11.376  44.258  11.678
85968W        W58283   2.234  23.724  13.066
85969W        W58284  18.652   5.299   4.110
85970W        W58285   1.867  38.456   0.315
85971W        W58286   1.600  11.166   9.779
85972W        W58287  43.200   9.955  13.071
85973W        W58288  11.974  22.771  11.716
85974W        W58289   4.948  12.194   0.667
85975W        W58290  13.581  26.252  11.693
85976W        W58291   4.947   2.805   2.798
85977W        W58292  26.610  28.053   3.344
85978W        W58293  43.197  30.081  13.954
85979W        W58294   7.773  39.478  12.921
85980W        W58295   8.440   6.480   2.919
85981W        W58296  29.599  34.929   4.050
85982W        W58297  43.740   9.569  13.825
85983W        W58298  40.241  11.275   0.180
85984W        W58299  12.148   1.976  13.870
85985W        W58300  24.527  20.086   3.277
85986W        W58301  15.313  19.545   2.782
85987W        W58302  14.393   8.596  12.007
85988W        W58303  13.093   4.638   3.583
85989W        W58304  44.785  38.128  12.604
85990W        W58305  31.106  14.333   5.065
85991W        W58306  41.001  41.297  12.049
85992W        W58307  10.153   2.106   1.298
85993W        W58308  20.207  39.102   4.508
85994W        W58309  43.125  16.474   2.394
85995W        W58310   2.445  26.610   2.467
85996W        W58311   6.383  25.705   1.722
85997W        W58312  25.902  40.976  10.744
85998W        W58313  10.352  29.012  12.166
85999W        W58314  26.321  41.173   4.149
86000W        W58315   7.632   1.151   4.067
86001W        W58316  18.629  41.894  11.548
86002W        W58317   7.085  38.369  11.547
86003W        W58318  23.142   0.537   0.951
86004W        W58319  10.093  29.522   1.228
86005W        W58320   8.030  34.755   0.196
86006W        W58321  27.484  16.141   2.666
86007W        W58322  20.830  22.023  14.866
86008W        W58323  39.974  10.482   1.225
86009W        W58324   5.134   8.519  11.891
86010W        W58325  22.497   2.345   3.173
86011W        W58326   9.414   3.787   2.627
86012W        W58327   6.918  41.708  12.898
86013W        W58328  18.432   8.215  11.164
86014W        W58329  15.699  40.218   1.347
86015W        W58330  40.815  36.548  11.707
86016W        W58331  13.685   1.244   0.387
86017W        W58332  14.873  22.943  14.440
86018W        W58333   9.386  29.072  11.725
86019W        W58334  42.771  44.033   2.665
86020W        W58335  21.232  39.593  14.398
86021W        W58336   7.819  26.763  14.543
86022W        W58337  19.814  30.361  14.919
86023W        W58338  27.187  32.955   1.236
86024W        W58339  39.031  19.186  11.218
86025W        W58340  44.424  27.964  10.390
86026W        W58341  23.883   2.352  13.023
86027W        W58342  42.759  30.472  12.453
86028W        W58343   6.311   7.749   1.462
86029W        W58344  16.547  28.072   5.400
86030W        W58345  26.905  42.563  11.604
86031W        W58346  38.581  40.507  11.186
86032W        W58347  41.711   6.653  14.570
86033W        W58348  11.512  43.853   4.818
86034W        W58349  18.476  16.593   1.786
86035W        W58350   2.879   4.651   2.662
86036W        W58351  42.164  10.205   0.700
86037W        W58352  37.737  22.053  12.732
86038W        W58353  15.725  28.850   0.039
86039W        W58354  37.337  37.011  11.447
86040W        W58355  21.470  29.448  12.916
86041W        W58356  37.116  20.623   0.727
86042W        W58357  26.383  25.087   0.490
86043W        W58358  33.462  30.308  13.429
86044W        W58359  22.543  19.663  14.282
86045W        W58360  35.424  10.274  10.775
86046W        W58361  36.566  36.048   2.065
86047W        W58362  22.051  34.161  10.741
86048W        W58363  20.261   1.198   2.332
86049W        W58364  39.011  38.054  11.486
86050W        W58365  33.460  17.034   2.940
86051W        W58366  38.492  18.276   3.617
86052W        W58367  42.675  10.168   0.812
86053W        W58368  30.609  22.748  14.770
86054W        W58369   6.234   0.853  14.352
86055W        W58370  40.258  23.056  10.451
86056W        W58371  32.010   2.398   2.548
86057W        W58372  33.332  30.675  13.928
86058W        W58373  29.603  33.957   5.227
86059W        W58374   5.990  20.467   2.240
86060W        W58375  20.630   2.057  14.413
86061W        W58376  44.828  41.556  10.727
86062W        W58377  29.829   7.611  10.624
86063W        W58378  41.877   0.914  14.793
86064W        W58379  33.478  39.570  12.129
86065W        W58380  16.816  12.805  13.129
86066W        W58381   0.258  26.066  13.741
86067W        W58382  32.501   1.912  14.881
86068W        W58383  17.264  36.291  13.413
86069W        W58384  15.705   8.419   3.327
86070W        W58385  13.168  18.687   1.014
86071W        W58386  31.896  28.592  12.520
86072W        W58387  34.354  42.911   3.742
86073W        W58388  18.162  16.468  12.179
86074W        W58389  26.663  43.941  12.881
86075W        W58390   5.514  19.646   3.621
86076W        W58391  13.594  11.094   1.482
86077W        W58392  15.730  10.245  12.038
86078W        W58393  39.520  17.247  11.562
86079W        W58394  19.489   4.061  11.695
86080W        W58395  30.404  14.438   4.446
86081W        W58396   1.488  20.974  12.944
86082W        W58397  27.972  28.932  13.889
86083W        W58398  27.688  30.416  12.884
86084W        W58399  36.449  30.145   4.414
86085W        W58400  42.238   5.241  13.422
86086W        W58401  39.141  43.058  12.871
86087W        W58402  43.820   2.131   1.401
86088W        W58403  26.695  35.814  12.464
86089W        W58404  40.494  26.347   3.238
86090W        W58405   3.886  10.924  13.721
86091W        W58406  10.669   2.659   1.894
86092W        W58407  37.943  24.237  11.655
86093W        W58408  35.782   0.399  11.702
86094W        W58409  41.061   1.936  11.400
86095W        W58410  35.516   1.779  12.671
86096W        W58411   2.945  38.570   1.734
86097W        W58412  18.202   6.786  13.159
86098W        W58413  27.877  33.232   3.275
86099W        W58414  23.108  16.717  10.668
86100W        W58415  21.028   8.766   0.460
86101W        W58416   9.297  16.506   3.317
86102W        W58417   0.936  18.139   3.180
86103W        W58418  32.002  33.458   2.811
86104W        W58419   0.884  25.718  14.966
86105W        W58420  14.661   3.945   1.549
86106W        W58421  18.593  21.691   2.417
86107W        W58422   6.855  39.639  11.987
86108W        W58423  28.997  35.929  13.597
86109W        W58424  12.078  22.252   3.140
86110W        W58425  35.110   7.706  10.760
86111W        W58426  38.953  26.173  12.185
86112W        W58427  32.337  31.640   4.016
86113W        W58428  28.539  36.330  14.546
86114W        W58429  34.108  16.625  11.805
86115W        W58430  30.761  22.999   4.505
86116W        W58431  28.225  33.543   0.438
86117W        W58432  38.582  42.567   1.846
86118W        W58433   0.241  22.945  10.523
86119W        W58434  24.020  37.020  11.394
86120W        W58435  22.985   0.227  11.123
86121W        W58436   8.899   3.900   4.027
86122W        W58437  35.365  34.585   2.126
86123W        W58438   0.914  22.081   4.840
86124W        W58439   9.252  29.504  14.520
86125W        W58440  36.887   1.153   0.653
86126W        W58441  13.013  33.375  12.477
86127W        W58442   2.596  12.820   1.269
86128W        W58443  25.997  15.283   0.330
86129W        W58444  28.592  37.237  14.443
86130W        W58445  19.147   4.364  14.459
86131W        W58446  11.735   4.831   1.207
86132W        W58447  12.631  21.883   3.850
86133W        W58448  21.673  28.190   4.254
86134W        W58449  29.470  16.817   3.647
86135W        W58450  30.962  32.895   2.804
86136W        W58451  30.984   9.863  11.549
86137W        W58452   5.431  24.166  12.035
86138W        W58453  22.256  28.948  11.170
86139W        W58454  17.449  40.030   0.488
86140W        W58455   5.532  14.487  14.008
86141W        W58456  22.215  44.444  14.221
86142W        W58457  43.253  19.639   2.621
86143W        W58458  27.712  19.178   0.092
86144W        W58459  35.837   2.275  12.393
86145W        W58460  19.985  35.071   1.832
86146W        W58461   1.857  24.181   3.005
86147W        W58462   4.433  11.280  10.063
86148W        W58463  18.164  36.904  13.838
86149W        W58464   4.548  20.017   2.109
86150W        W58465   6.398  14.086   4.569
86151W        W58466  36.573  36.085  12.015
86152W        W58467  28.733   7.846  14.711
86153W        W58468  20.512  33.525   1.051
86154W        W58469   4.632   0.305   0.826
86155W        W58470   7.168  23.671   2.435
86156W        W58471  30.455  15.079  14.778
86157W        W58472  20.981   5.397   2.704
86158W        W58473  13.807  44.377  14.772
86159W        W58474  30.160  24.011   4.331
86160W        W58475  18.172  14.781   1.891
86161W        W58476  30.399  23.577   0.276
86162W        W58477  22.271   6.522  14.252
86163W        W58478  21.999  13.724   0.305
86164W        W58479  18.144   5.257  13.834
86165W        W58480  28.131  32.192  11.126
86166W        W58481   9.604   2.767   4.494
86167W        W58482  26.247  22.142  13.002
86168W        W58483  38.019  37.796   3.278
86169W        W58484  31.118  28.867   0.857
86170W        W58485  20.755  39.905  11.590
86171W        W58486  11.343  14.655  12.517
86172W        W58487   9.831  25.297   3.460
86173W        W58488  20.738  27.899   1.430
86174W        W58489  15.153  15.650  14.007
86175W        W58490   0.501  32.945  14.442
86176W        W58491  30.934  40.472   0.945
86177W        W58492   1.074  31.555   4.600
86178W        W58493  42.413  31.957  14.530
86179W        W58494   5.571  26.342  10.884
86180W        W58495  17.779  40.921   2.298
86181W        W58496  16.552  28.056  12.537
86182W        W58497  14.419  35.607   2.733
86183W        W58498  19.384  11.315   2.436
86184W        W58499   0.475  28.965  13.505
86185W        W58500   1.299  35.514  11.008
86186W        W58501  19.471  21.061  10.744
86187W        W58502   9.048  25.522   3.348
86188W        W58503  33.663  32.567  11.643
86189W        W58504  15.514  31.830   0.038
86190W        W58505  43.975  13.129   1.288
86191W        W58506  18.667   5.780   0.930
86192W        W58507  24.304  38.398  12.244
86193W        W58508   8.110  21.752  13.593
86194W        W58509  35.367  19.755   3.211
86195W        W58510   4.746  39.884  13.962
86196W        W58511  16.721  34.970  12.367
86197W        W58512   7.899  39.054  14.146
86198W        W58513  23.149  33.453  14.764
86199W        W58514  34.516  43.667  11.865
86200W        W58515  40.447  10.181   5.118
86201W        W58516  41.110  33.157  13.234
86202W        W58517   5.180  13.182  11.748
86203W        W58518  43.803  44.266  13.469
86204W        W58519  32.128  15.323  11.718
86205W        W58520  20.503  23.474  14.510
86206W        W58521   5.769   6.131   2.750
86207W        W58522  42.018  34.221   3.188
86208W        W58523  14.157  34.102  14.035
86209W        W58524  34.623  15.631  13.396
86210W        W58525  19.718  19.294   1.902
86211W        W58526  22.113  39.409  13.082
86212W        W58527  38.598  35.742  11.998
86213W        W58528  12.183  43.619   1.051
86214W        W58529   5.923  44.922  12.304
86215W        W58530  37.403  43.338  13.828
86216W        W58531   0.055  17.560  11.160
86217W        W58532  26.914  25.054   0.427
86218W        W58533  25.528  43.464  11.169
86219W        W58534  26.057   6.411   2.439
86220W        W58535  20.149  37.698   4.783
86221W        W58536  10.845  24.453   3.264
86222W        W58537  24.034   1.412   0.888
86223W        W58538   1.954  30.516   1.700
86224W        W58539   7.906   2.354   4.607
86225W        W58540  23.006  30.793  13.970
86226W        W58541   4.894  30.075  14.778
86227W        W58542   1.609  42.069  11.360
86228W        W58543   7.415   0.957   1.958
86229W        W58544  10.438  27.926   3.269
86230W        W58545  32.027  11.838   4.161
86231W        W58546  37.787   8.421  13.871
86232W        W58547  43.451  27.480  13.046
86233W        W58548   7.034  19.529  14.903
86234W        W58549  27.017   2.062  14.382
86235W        W58550  17.262  44.161   3.206
86236W        W58551  23.861  10.492  12.106
86237W        W58552  41.034  24.674   3.363
86238W        W58553  34.610  18.213   3.765
86239W        W58554  24.458  12.723   2.226
86240W        W58555   9.759  12.343   1.854
86241W        W58556   2.307   5.326   4.538
86242W        W58557  11.599  25.164   2.433
86243W        W58558  37.538  22.733   3.143
86244W        W58559  17.670  30.933   1.305
86245W        W58560  36.231   6.091  12.030
86246W        W58561  25.501  29.102   5.030
86247W        W58562  12.318  33.154   1.767
86248W        W58563  12.059  35.359   3.065
86249W        W58564  28.188  15.658  12.121
86250W        W58565  44.881  37.143   5.052
86251W        W58566   0.251  31.919  11.454
86252W        W58567  18.324  15.204   3.083
86253W        W58568  33.078  26.668   0.557
86254W        W58569  22.669  12.343  12.894
86255W        W58570  22.647  37.062   0.516
86256W        W58571  34.021   5.724  11.555
86257W        W58572  21.611   2.980  13.005
86258W        W58573  36.892   1.199   2.622
86259W        W58574  24.053  14.600   0.206
86260W        W58575  27.661  13.582   3.402
86261W        W58576  22.147  27.777  12.622
86262W        W58577  41.018  28.113   3.844
86263W        W58578  42.526   9.195  12.743
86264W        W58579  40.552  20.657  14.443
86265W        W58580  29.111   7.277  14.476
86266W        W58581  14.651  10.846  11.489
86267W        W58582   1.960   6.820   4.945
86268W        W58583  42.026  20.276   0.985
86269W        W58584  35.694  42.010   3.842
86270W        W58585  11.861  41.037   9.608
86271W        W58586   0.917  41.167   4.580
86272W        W58587  25.012  38.964  12.597
86273W        W58588  15.139  27.872   2.693
86274W        W58589  30.594  13.596   2.718
86275W        W58590  15.813  21.858  11.526
86276W        W58591  20.057  44.282  13.512
86277W        W58592  21.174  38.597  13.831
86278W        W58593  20.992  33.339  11.528
86279W        W58594  31.676  39.984   0.863
86280W        W58595  43.940  10.423   3.620
86281W        W58596  26.344  10.193  14.041
86282W        W58597  44.967  38.278  14.802
86283W        W58598  21.194  40.458  11.148
86284W        W58599   3.673   2.654  11.995
86285W        W58600  28.728  18.570   0.292
86286W        W58601  31.473  30.563   1.272
86287W        W58602  21.098   9.848  14.867
86288W        W58603   8.692  14.637   2.293
86289W        W58604  32.882  10.337  13.929
86290W        W58605  33.029   6.950   2.712
86291W        W58606  42.539   4.201   1.765
86292W        W58607  42.834  19.850   4.863
86293W        W58608   1.435  26.060  12.461
86294W        W58609  41.377  22.149  12.417
86295W        W58610  34.476   6.013   0.507
86296W        W58611  11.696  16.955   4.103
86297W        W58612  41.069  14.154  10.785
86298W        W58613  20.708  11.695   0.542
86299W        W58614   6.269  44.633   3.609
86300W        W58615  27.438  42.409   3.746
86301W        W58616  41.753  42.053  10.704
86302W        W58617  38.918  13.826   3.092
86303W        W58618   7.402  34.360  14.827
86304W        W58619   0.306  33.415   2.475
86305W        W58620   4.987  30.827   3.824
86306W        W58621  43.390  37.809  10.757
86307W        W58622   1.342  11.202  10.244
86308W        W58623  29.657  15.345   5.258
86309W        W58624  11.263  30.860   3.720
86310W        W58625  29.660  12.561   2.825
86311W        W58626  10.970  11.861   9.745
86312W        W58627  15.579  15.818  14.929
86313W        W58628  17.590  39.932   2.290
86314W        W58629   7.740  37.783   0.911
86315W        W58630  20.013   9.791   3.254
86316W        W58631  11.936   3.710  12.390
86317W        W58632   5.503  35.554  11.944
86318W        W58633  18.506  27.913  14.043
86319W        W58634  41.412   1.377   4.532
86320W        W58635   1.962  34.882  10.721
86321W        W58636  30.104  23.813   1.671
86322W        W58637  15.340   4.777   1.346
86323W        W58638  37.789  23.811  11.024
86324W        W58639  29.451   0.354  12.047
86325W        W58640   7.799  33.793   1.504
86326W        W58641  42.641   3.495   3.233
86327W        W58642  22.101  20.777   3.105
86328W        W58643  15.662   3.505  14.897
86329W        W58644   5.227  16.755  11.002
86330W        W58645  35.359  17.998  14.520
86331W        W58646  12.012  13.508  12.536
86332W        W58647  44.666  42.906  14.556
86333W        W58648   4.196  41.388  10.726
86334W        W58649  43.938  27.184  12.976
86335W        W58650  43.811  36.188  12.825
86336W        W58651  44.718  43.760  13.299
86337W        W58652  19.703  34.671   3.200
86338W        W58653  15.303  33.531   2.097
86339W        W58654   3.488  26.559  11.072
86340W        W58655   3.279  11.015  11.590
86341W        W58656  33.034  35.961   4.019
86342W        W58657   9.635  14.115   2.548
86343W        W58658   0.448   0.795   3.718
86344W        W58659   5.600  39.932   2.923
86345W        W58660  35.635  27.342   2.476
86346W        W58661   7.962   3.349  10.803
86347W        W58662  20.605  19.028  13.720
86348W        W58663   4.885  30.496   0.253
86349W        W58664  33.965  40.582   3.571
86350W        W58665  13.656   4.383  10.701
86351W        W58666  37.073   1.428   1.809
86352W        W58667  33.450  28.155  11.212
86353W        W58668   4.421   1.428   1.752
86354W        W58669  17.753  16.680   1.210
86355W        W58670  25.930  20.282   0.907
86356W        W58671  13.860  28.584   2.493
86357W        W58672  26.465  18.812   1.471
86358W        W58673  27.650  23.217   4.161
86359W        W58674  34.186  33.204   2.246
86360W        W58675   3.470  41.494   4.559
86361W        W58676  29.107  37.954  11.616
86362W        W58677  11.056  10.287  14.418
86363W        W58678  23.714  17.872   2.171
86364W        W58679   1.604  16.881   1.024
86365W        W58680  44.091  19.301  11.686
86366W        W58681  39.897  38.496   1.961
86367W        W58682  32.480  41.025   1.803
86368W        W58683  11.111  22.597   0.847
86369W        W58684  33.392  11.160  12.651
86370W        W58685  17.638  43.874   3.441
86371W        W58686  35.923  29.899   0.233
86372W        W58687  44.887  17.281   0.912
86373W        W58688  30.116   5.303  10.775
86374W        W58689  41.037  13.867  14.899
86375W        W58690  19.568   8.397  11.032
86376W        W58691  30.127   0.959   0.441
86377W        W58692   4.170  12.532   2.979
86378W        W58693  37.557  13.103  14.324
86379W        W58694  20.322  27.543  13.357
86380W        W58695   4.917  43.424   3.179
86381W        W58696  15.599  21.240  10.721
86382W        W58697  16.035   3.802  11.602
86383W        W58698   7.177  33.318   1.763
86384W        W58699  28.624   7.104  14.747
86385W        W58700  40.412  38.359   4.629
86386W        W58701  10.368   3.788  14.384
86387W        W58702  24.244  28.174  11.626
86388W        W58703   1.185   9.892  12.000
86389W        W58704  42.811  39.313   1.006
86390W        W58705  36.954  14.774  11.090
86391W        W58706  24.572  13.402  14.842
86392W        W58707  12.853  35.264  11.433
86393W        W58708  22.723  19.094  14.884
86394W        W58709  16.677  15.611   1.655
86395W        W58710  40.112   6.184   2.886
86396W        W58711  25.263  27.609  12.003
86397W        W58712   5.213  18.473  12.071
86398W        W58713  37.359  33.543  14.499
86399W        W58714  26.856  31.576   4.203
86400W        W58715  35.294  14.637  11.624
86401W        W58716  36.727  11.084  13.586
86402W        W58717  43.269  27.528  11.383
86403W        W58718  40.135  22.684  14.199
86404W        W58719  12.366  33.017  13.994
86405W        W58720  14.136  31.969  10.941
86406W        W58721  28.591  11.804  13.520
86407W        W58722  26.864  42.877   0.375
86408W        W58723  22.535  32.784   0.002
86409W        W58724  10.961   7.107   2.635
86410W        W58725  19.535  28.923   0.311
86411W        W58726   4.584  29.657   4.862
86412W        W58727  42.422  25.969  14.927
86413W        W58728  10.829   8.662   2.757
86414W        W58729  17.117  44.820   1.998
86415W        W58730   9.826  10.685   1.038
86416W        W58731  18.625  28.317  11.518
86417W        W58732  21.292   4.913  11.117
86418W        W58733  30.173  26.031  11.478
86419W        W58734  29.756   2.421  13.348
86420W        W58735  19.724  40.999  12.595
86421W        W58736  25.839  39.323   0.690
86422W        W58737  22.074  30.154  10.693
86423W        W58738  16.198  23.532  11.998
86424W        W58739  36.573  30.674   0.226
86425W        W58740   6.033  28.548   3.121
86426W        W58741  28.077   2.276   3.365
86427W        W58742  12.295   6.440   3.038
86428W        W58743  11.720   2.875   3.740
86429W        W58744  26.980   3.742  14.334
86430W        W58745  44.894   8.736  12.406
86431W        W58746  12.895  15.259  14.088
86432W        W58747   9.162  44.000  12.091
86433W        W58748  14.653   4.152   4.565
86434W        W58749  32.392  43.460   2.124
86435W        W58750  26.407  41.287   1.368
86436W        W58751  10.688  13.753  11.183
86437W        W58752   4.690  33.290   9.939
86438W        W58753  13.183  44.282   2.900
86439W        W58754  39.710  42.897  14.287
86440W        W58755  29.167  33.598   0.426
86441W        W58756   6.824  33.904   0.965
86442W        W58757  11.604  27.446   4.642
86443W        W58758  29.358  19.254  12.920
86444W        W58759  19.002  19.619  14.721
86445W        W58760  16.787  38.741   0.520
86446W        W58761   7.255   3.659  12.097
86447W        W58762  21.308  32.157  12.053
86448W        W58763   8.838  37.010  11.674
86449W        W58764  21.729  28.307  12.328
86450W        W58765   5.629   9.088  13.372
86451W        W58766  19.427  30.944  13.867
86452W        W58767   4.327  22.910  13.347
86453W        W58768  20.661   9.373  10.555
86454W        W58769  24.969   8.264  12.803
86455W        W58770  40.879  31.100   2.905
86456W        W58771  43.960  14.826  11.046
86457W        W58772  21.219  26.730   5.296
86458W        W58773  31.338   2.577  13.577
86459W        W58774  19.423   8.212  12.168
86460W        W58775  16.626   1.947  13.301
86461W        W58776   4.349   3.531  13.533
86462W        W58777  11.559  43.480  12.966
86463W        W58778  37.173  27.753  14.027
86464W        W58779  19.233  28.244  12.049
86465W        W58780  20.533  23.495   0.016
86466W        W58781  32.869  26.905  12.516
86467W        W58782  12.722   3.953  11.447
86468W        W58783  35.990  11.977   0.448
86469W        W58784  32.956  34.115   0.335
86470W        W58785  43.850   2.515  12.312
86471W        W58786  13.249  14.815  11.955
86472W        W58787  16.895   9.140   4.218
86473W        W58788  33.133  12.089  13.837
86474W        W58789  10.145  37.148   2.294
86475W        W58790  22.098   1.890  10.687
86476W        W58791  20.157  26.372   1.903
86477W        W58792  19.450   1.458   0.018
86478W        W58793  16.702  14.552   2.721
86479W        W58794  25.944   1.775   0.834
86480W        W58795  27.085  11.351   3.188
86481W        W58796  15.803  41.600   4.157
86482W        W58797  27.482  43.373   0.029
86483W        W58798  20.274  37.946   3.793
86484W        W58799  11.165  23.774  12.029
86485W        W58800  24.066  33.791   0.483
86486W        W58801  26.543  19.342   3.703
86487W        W58802   5.472  34.526  12.062
86488W        W58803  21.148  29.435   4.159
86489W        W58804  39.315  23.770   4.011
86490W        W58805  10.471  23.947   1.876
86491W        W58806  37.707  44.175  14.351
86492W        W58807  25.993  35.002  10.709
86493W        W58808  22.606  30.075   2.655
86494W        W58809  34.026  39.093   4.470
86495W        W58810   2.283  43.915  13.505
86496W        W58811   0.766  11.482   5.622
86497W        W58812  11.366  10.361  11.566
86498W        W58813   6.368   2.709  12.517
86499W        W58814  33.530  10.292   1.930
86500W        W58815  40.259   6.673   2.733
86501W        W58816  30.102  29.262  11.878
86502W        W58817   8.273  44.961   4.585
86503W        W58818  23.514  19.324   0.467
86504W        W58819  44.669  39.893  14.757
86505W        W58820   0.513   9.197   3.715
86506W        W58821   4.661   8.896   3.675
86507W        W58822   3.325  18.504   1.489
86508W        W58823  36.368  41.001   0.050
86509W        W58824  32.880  28.243  12.016
86510W        W58825  39.700  29.844   3.286
86511W        W58826  29.189  38.281   0.911
86512W        W58827  42.921  35.132   3.354
86513W        W58828  25.932  33.081  13.435
86514W        W58829  34.540  29.501   0.026
86515W        W58830  31.471  44.971   4.551
86516W        W58831   0.875  19.384   2.780
86517W        W58832  25.627   4.175   4.592
86518W        W58833  33.007  44.366  11.553
86519W        W58834  19.118  37.836  14.505
86520W        W58835   1.906  16.289   4.016
86521W        W58836  26.324  14.581  11.092
86522W        W58837  28.216  27.724  12.003
86523W        W58838  41.958   2.231   3.956
86524W        W58839  27.600  22.610  13.927
86525W        W58840  17.256   6.384  11.530
86526W        W58841  28.360  44.740   0.323
86527W        W58842  18.103  13.736   1.368
86528W        W58843   3.054   9.806   3.542
86529W        W58844  24.798  43.779  12.563
86530W        W58845  30.560  32.230  12.397
86531W        W58846  40.395  12.315  13.468
86532W        W58847  44.778  28.081  14.395
86533W        W58848   0.183  10.269   4.012
86534W        W58849  42.029  33.947  10.526
86535W        W58850  22.638   0.463   1.160
86536W        W58851   1.895  38.936   0.521
86537W        W58852   6.737   9.713  13.330
86538W        W58853  36.865  19.161  13.526
86539W        W58854  36.938  13.067   3.102
86540W        W58855   7.183  12.458   0.830
86541W        W58856  30.413  24.417   0.038
86542W        W58857  22.423  22.041   1.958
86543W        W58858  28.750   9.906  11.833
86544W        W58859  42.444  14.326   1.804
86545W        W58860  43.563   6.244  11.106
86546W        W58861  27.596  30.149  14.519
86547W        W58862  19.783  33.516  12.111
86548W        W58863  27.477  38.586   0.920
86549W        W58864  40.877  18.689   3.889
86550W        W58865   7.397  24.649   2.385
86551W        W58866  35.139  40.829  11.815
86552W        W58867  44.339  16.306   5.144
86553W        W58868  12.604  43.719  14.829
86554W        W58869  16.966  43.879  11.150
86555W        W58870  42.773  38.026  11.268
86556W        W58871  17.555  19.563  14.492
86557W        W58872  17.784  15.544   5.224
86558W        W58873  21.587  44.897  11.227
86559W        W58874  16.693   0.484   2.461
86560W        W58875  34.170  29.011  13.993
86561W        W58876   3.344  16.673  13.992
86562W        W58877  21.305  22.535  10.559
86563W        W58878   9.922   5.893   2.742
86564W        W58879   8.408  11.016  12.014
86565W        W58880  27.472  42.366   2.199
86566W        W58881  14.681  34.019  14.886
86567W        W58882  41.304  38.774   3.662
86568W        W58883  25.965   7.453  10.941
86569W        W58884  11.237  42.879  14.404
86570W        W58885  44.971  37.348   1.354
86571W        W58886  29.375  36.430   1.732
86572W        W58887  40.359  15.630   5.067
86573W        W58888  13.659  27.102   0.801
86574W        W58889  13.410   0.168  11.518
86575W        W58890  20.235  17.615  13.986
86576W        W58891  30.127   6.155  10.912
86577W        W58892  25.208  44.183   3.738
86578W        W58893  22.417  31.044   2.074
86579W        W58894  31.588  18.083   3.854
86580W        W58895   8.704   8.879  10.985
86581W        W58896   7.973   3.295  12.214
86582W        W58897  37.161  13.337  11.709
86583W        W58898  36.276  35.830  11.490
86584W        W58899  24.550   9.163   0.661
86585W        W58900  23.748  27.048  11.987
86586W        W58901  39.312  31.458  11.968
86587W        W58902   2.167  18.787   2.334
86588W        W58903  27.133  31.558   1.198
86589W        W58904  16.774  31.836  11.417
86590W        W58905  38.327   6.216  11.088
86591W        W58906  36.847  30.983  12.556
86592W        W58907  44.932   4.322   3.675
86593W        W58908  27.579  14.654  13.317
86594W        W58909   0.597  34.434  10.160
86595W        W58910  16.400  31.949  10.464
86596W        W58911  39.971   7.720   1.748
86597W        W58912  27.838  19.553  12.577
86598W        W58913  40.387  43.381   2.280
86599W        W58914  25.945  34.425  13.784
86600W        W58915  10.221   2.858   2.080
86601W        W58916  17.181  18.421   2.194
86602W        W58917  30.131  29.866  12.738
86603W        W58918  38.611  37.070   4.372
86604W        W58919  42.965   6.789   3.492
86605W        W58920  42.533   7.457   3.537
86606W        W58921  43.208  16.196   4.074
86607W        W58922  41.888  39.041  13.490
86608W        W58923  14.106   6.689  10.556
86609W        W58924  29.341  29.646  11.211
86610W        W58925  20.777  17.254   4.196
86611W        W58926   3.215  32.347   3.098
86612W        W58927  36.575  44.489  10.190
86613W        W58928  37.563  22.925   1.430
86614W        W58929  35.776  21.593   4.602
86615W        W58930  43.334  19.172  11.157
86616W        W58931   3.392  15.646   2.222
86617W        W58932   0.248  20.680   2.496
86618W        W58933  15.872  11.591   2.781
86619W        W58934  17.272  42.866  14.049
86620W        W58935  15.038  26.485   4.649
86621W        W58936   6.660   5.425  14.435
86622W        W58937  41.899  16.152   0.321
86623W        W58938  31.304  13.409  14.007
86624W        W58939  12.670  18.192   2.750
86625W        W58940  16.051  20.639   4.685
86626W        W58941   6.307   4.318  11.387
86627W        W58942  42.257  26.570  10.234
86628W        W58943  26.674  12.626  10.728
86629W        W58944  38.560  14.236   1.271
86630W        W58945  43.574  31.035   1.902
86631W        W58946  13.079  25.194   3.327
86632W        W58947  22.179  17.617  12.481
86633W        W58948  25.465  18.646  11.109
86634W        W58949  37.588   4.427   2.645
86635W        W58950  40.641   9.939  11.189
86636W        W58951  21.727  10.088  11.000
86637W        W58952  26.532  28.492  14.219
86638W        W58953  33.598   3.472  14.036
86639W        W58954  26.659  13.345   0.678
86640W        W58955  42.008   8.290  11.536
86641W        W58956  10.611  18.547  10.724
86642W        W58957  12.624  10.264   0.240
86643W        W58958  29.995  41.382  12.238
86644W        W58959  37.953  23.054   0.416
86645W        W58960  18.319  19.583   1.812
86646W        W58961  41.064   1.061   2.390
86647W        W58962  33.179  36.503  13.073
86648W        W58963  32.187  17.761  12.053
86649W        W58964  17.452   7.504  13.168
86650W        W58965  11.314   1.912  13.481
86651W        W58966   1.411   5.501  12.092
86652W        W58967  13.577  35.067   4.574
86653W        W58968  17.468  37.869   5.103
86654W        W58969   8.365  27.925   4.273
86655W        W58970   8.898  37.189  13.663
86656W        W58971   9.994  20.118   3.125
86657W        W58972  20.656  22.176   4.502
86658W        W58973   9.814  18.190   0.942
86659W        W58974   6.813  26.146   4.902
86660W        W58975  37.870  30.621  11.961
86661W        W58976  20.196  19.800   1.443
86662W        W58977  11.345  16.148  13.154
86663W        W58978   4.650  38.042   2.679
86664W        W58979  38.988  34.967   3.381
86665W        W58980   7.716  19.623   0.315
86666W        W58981  44.319   2.940   0.963
86667W        W58982  20.201  27.441  11.646
86668W        W58983   0.267  11.310  12.431
86669W        W58984   3.288  13.352  12.490
86670W        W58985  18.535  10.364   1.751
86671W        W58986   6.249  41.056   3.310
86672W        W58987  40.527  35.480   2.199
86673W        W58988  35.307  20.752  11.410
86674W        W58989  29.838   4.018  11.909
86675W        W58990  42.068  41.799  14.399
86676W        W58991  33.439  37.933  14.910
86677W        W58992  36.087  28.723  11.160
86678W        W58993  17.055  28.600  10.532
86679W        W58994  41.694  27.248  14.400
86680W        W58995  35.445   8.657  14.426
86681W        W58996  21.164  22.710   3.963
86682W        W58997   0.675  38.970   0.475
86683W        W58998   1.995  43.523   1.467
86684W        W58999  21.711  15.117  12.540
86685W        W59000  24.633  35.568   4.201
86686W        W59001  13.568  31.781  12.960
86687W        W59002   8.188  24.230  11.422
86688W        W59003   9.427  23.964  14.544
86689W        W59004  11.381  44.636  10.738
86690W        W59005  16.122   9.900  12.003
86691W        W59006   9.616   7.876   2.631
86692W        W59007  29.347   2.806  12.115
86693W        W59008  26.473  14.328  14.785
86694W        W59009  30.896  24.194   4.686
86695W        W59010  41.463  19.243  11.742
86696W        W59011  37.499  41.586  13.588
86697W        W59012  42.098  29.918  10.736
86698W        W59013  17.813  44.777  13.110
86699W        W59014  44.762  39.554   1.928
86700W        W59015  29.377  13.526  13.018
86701W        W59016   9.306  38.151  11.036
86702W        W59017  23.683  17.964   0.852
86703W        W59018  22.284  15.600   2.298
86704W        W59019  34.929  43.395  14.040
86705W        W59020  39.488  35.571  12.571
86706W        W59021  33.640   3.843   2.636
86707W        W59022  20.913  41.010  11.954
86708W        W59023  31.132  35.447  10.948
86709W        W59024  15.322  42.493  11.536
86710W        W59025  32.312  28.977   4.012
86711W        W59026  38.714   8.845   5.067
86712W        W59027  40.039   8.618  10.770
86713W        W59028   5.674   9.316  11.685
86714W        W59029  18.301  26.804   1.682
86715W        W59030  36.486   8.697   4.591
86716W        W59031  31.643  30.639   3.631
86717W        W59032   3.054  25.028  11.700
86718W        W59033   7.554   6.469  13.312
86719W        W59034   6.108   7.939   2.834
86720W        W59035  27.070  39.763   2.927
86721W        W59036  17.687  42.721   0.887
86722W        W59037  13.790  28.047   3.787
86723W        W59038  39.289   1.793   9.830
86724W        W59039   8.036  22.510  14.952
86725W        W59040  26.478  44.860  11.536
86726W        W59041   5.886  28.751  12.711
86727W        W59042  16.210  21.724  13.431
86728W        W59043   0.292  37.362   4.832
86729W        W59044  42.418  11.381  10.493
86730W        W59045  36.841  35.573  12.047
86731W        W59046   0.388  34.646   0.849
86732W        W59047  39.633   4.110   4.180
86733W        W59048  25.058   6.114  14.787
86734W        W59049  42.966  27.262   3.152
86735W        W59050   0.459  23.153   2.585
86736W        W59051   7.099  17.235  13.576
86737W        W59052  26.459  20.738   2.733
86738W        W59053  44.954  10.602   3.127
86739W        W59054  32.479  19.645   4.045
86740W        W59055  43.518  32.625  11.390
86741W        W59056  38.766  14.295   3.210
86742W        W59057  17.290   2.221   3.260
86743W        W59058   1.088  31.975  10.860
86744W        W59059  40.293   7.848  10.606
86745W        W59060  10.644  40.203  10.681
86746W        W59061  22.583   3.016   3.807
86747W        W59062  39.869  42.356  13.032
86748W        W59063  42.940  25.114   4.168
86749W        W59064  10.446  12.153  10.693
86750W        W59065  33.975  28.821  12.623
86751W        W59066  29.257   1.889  14.286
86752W        W59067  35.076   8.210   3.229
86753W        W59068  39.858   3.307  13.051
86754W        W59069   7.247  42.151   4.136
86755W        W59070  33.982   2.384  14.856
86756W        W59071  21.088  27.556  13.779
86757W        W59072  16.164   5.898  12.893
86758W        W59073  35.405  11.342   1.003
86759W        W59074  27.930  19.635  11.715
86760W        W59075  17.832  10.723   3.829
86761W        W59076  38.276  44.440   0.825
86762W        W59077  10.387  34.322   2.335
86763W        W59078  39.843   5.002  12.528
86764W        W59079  44.727   1.319  11.517
86765W        W59080  20.167  14.303  14.329
86766W        W59081  33.202  35.985  11.230
86767W        W59082  39.062  30.991  11.884
86768W        W59083   8.134   6.427  11.919
86769W        W59084  44.309  32.890  12.579
86770W        W59085   7.745   7.836   0.093
86771W        W59086  26.239  44.914   4.074
86772W        W59087  15.735  38.831   9.954
86773W        W59088  33.517  44.156   1.866
86774W        W59089   5.944  11.792  14.818
86775W        W59090  32.602   3.382  13.783
86776W        W59091  21.686  27.332   4.239
86777W        W59092  25.566  12.942   4.499
86778W        W59093  31.673  38.311   2.889
86779W        W59094  18.072  27.050  14.576
86780W        W59095  11.567  27.077  11.557
86781W        W59096  12.076  31.858  14.801
86782W        W59097  41.074  32.911  14.967
86783W        W59098  33.986  25.032   0.893
86784W        W59099  19.520  18.215   2.330
86785W        W59100  18.654  15.136   2.676
86786W        W59101  18.628  32.713   3.077
86787W        W59102  40.530  23.810   2.412
86788W        W59103  29.378  26.068  14.911
86789W        W59104   1.777  23.735  14.714
86790W        W59105  29.150  42.990   4.579
86791W        W59106  17.293  34.663  10.819
86792W        W59107  36.520  14.399  13.888
86793W        W59108  37.069  33.980   4.466
86794W        W59109  16.778  41.047   3.147
86795W        W59110   9.309  43.167  11.426
86796W        W59111  43.104  37.724   1.720
86797W        W59112   9.596   1.238   0.531
86798W        W59113  39.906  15.353   3.222
86799W        W59114  10.185  29.201   0.829
86800W        W59115  30.146  22.996  11.532
86801W        W59116  15.795  14.319  14.867
86802W        W59117  43.873  17.640  12.962
86803W        W59118  42.802  21.662  12.588
86804W        W59119   4.825   3.405   2.400
86805W        W59120   1.947  37.376  13.449
86806W        W59121  19.039  20.419  11.382
86807W        W59122  19.957  44.002  11.134
86808W        W59123  29.357  16.695  11.586
86809W        W59124  28.667  21.162  14.840
86810W        W59125  21.356  19.664  14.827
86811W        W59126  13.685  37.759   4.053
86812W        W59127  30.668  38.020  12.854
86813W        W59128   8.227  11.593   2.281
86814W        W59129  17.114   2.869   2.193
86815W        W59130  13.626  42.263  14.755
86816W        W59131  27.857  19.007  13.981
86817W        W59132  25.471  35.398  12.900
86818W        W59133   1.920  16.636   2.577
86819W        W59134  28.149   4.243   3.536
86820W        W59135  24.435  14.816  11.042
86821W        W59136  15.188  16.640   3.777
86822W        W59137  26.063   8.930   0.510
86823W        W59138   3.183   9.858   4.925
86824W        W59139  19.442  41.417  14.472
86825W        W59140  10.050  40.075  14.767
86826W        W59141  24.074  15.798  11.150
86827W        W59142  29.375  32.873   2.875
86828W        W59143   6.167  27.229  12.151
86829W        W59144  21.586  32.916  10.920
86830W        W59145  37.178  41.462   2.671
86831W        W59146  34.936  34.151   3.699
86832W        W59147   3.237  21.468   2.282
86833W        W59148  15.207  18.652  13.059
86834W        W59149  36.172  43.859  13.877
86835W        W59150  11.786  16.728   1.672
86836W        W59151  12.715  42.685   3.784
86837W        W59152  15.713   4.675  12.113
86838W        W59153  13.057  11.111   1.763
86839W        W59154  34.011  25.486   3.366
86840W        W59155  31.659  18.156  11.583
86841W        W59156   4.685  19.223   2.885
86842W        W59157  13.109  25.446  12.831
86843W        W59158  43.027  33.380   3.667
86844W        W59159  10.220  16.327  12.007
86845W        W59160  17.860  30.512  14.938
86846W        W59161   4.267  20.556  13.855
86847W        W59162  12.355  26.283  13.147
86848W        W59163  23.001  40.086  14.716
86849W        W59164   7.801   3.939  14.137
86850W        W59165   6.389  40.337   2.651
86851W        W59166  11.260  29.087  11.406
86852W        W59167   9.910   9.610   2.860
86853W        W59168  20.559  11.275  12.304
86854W        W59169  21.345  26.913   4.175
86855W        W59170  10.410  30.231  14.962
86856W        W59171  27.522  14.125   1.778
86857W        W59172  21.297  44.492  11.107
86858W        W59173  37.932   9.672  10.457
86859W        W59174   8.633  32.194   1.831
86860W        W59175  12.120  36.336   1.307
86861W        W59176  33.419   4.862   3.238
86862W        W59177  10.286  40.502  10.950
86863W        W59178  32.947  12.052  12.531
86864W        W59179  20.652  39.861   4.583
86865W        W59180  17.146  16.525  10.591
86866W        W59181   5.690  27.539  12.917
86867W        W59182  11.199   6.006   3.069
86868W        W59183  11.598  13.375   3.830
86869W        W59184  31.896  35.035   0.829
86870W        W59185  27.721  31.674   3.905
86871W        W59186  33.509   6.420  10.661
86872W        W59187  32.045  17.840  14.947
86873W        W59188   4.944  41.916  10.764
86874W        W59189   2.529   6.924  10.673
86875W        W59190  28.398  17.687  12.856
86876W        W59191  19.318   6.411   3.597
86877W        W59192  22.237  22.932  11.583
86878W        W59193  29.413  12.321  11.234
86879W        W59194   9.970  28.191   3.270
86880W        W59195  25.469  18.993   4.119
86881W        W59196  21.645  33.200   4.830
86882W        W59197  18.168  39.874  10.644
86883W        W59198  11.953  10.734   1.779
86884W        W59199  24.441   2.442   4.223
86885W        W59200  41.520  33.883   4.955
86886W        W59201  18.652  12.525  11.689
86887W        W59202  32.169  10.842   2.804
86888W        W59203  14.068  20.023   0.054
86889W        W59204   0.900  38.702  13.752
86890W        W59205  34.831  38.902  14.498
86891W        W59206   5.571  16.364  11.119
86892W        W59207   7.758  13.425   0.361
86893W        W59208   9.364  12.040   1.723
86894W        W59209  27.957  22.918  11.660
86895W        W59210  21.747   1.457   0.068
86896W        W59211  19.343  36.962  14.496
86897W        W59212  33.042  43.016  11.866
86898W        W59213  30.188  25.605   0.686
86899W        W59214  23.542  18.771  11.156
86900W        W59215  16.570  18.433  14.494
86901W        W59216  27.579  37.292   2.867
86902W        W59217  10.682   2.932   2.351
86903W        W59218   8.620   7.405   3.211
86904W        W59219  39.358  34.555  11.078
86905W        W59220  32.730  31.949   0.803
86906W        W59221  37.465  26.094  13.176
86907W        W59222  38.303   2.876   2.731
86908W        W59223  44.932  12.332  14.972
86909W        W59224  43.730  26.839  13.759
86910W        W59225  24.661  21.618  11.448
86911W        W59226  25.985  14.194   2.292
86912W        W59227  33.106  35.127  13.445
86913W        W59228  40.871  26.264   0.933
86914W        W59229  35.868   9.194   0.311
86915W        W59230   0.272   4.295  11.446
86916W        W59231   7.463  22.750  11.175
86917W        W59232  29.460  12.078   2.847
86918W        W59233  38.048  41.104  12.960
86919W        W59234  31.232  29.497  13.830
86920W        W59235  38.141  20.098  13.051
86921W        W59236   9.787  38.508  12.690
86922W        W59237   6.778  37.623   0.356
86923W        W59238  18.209  16.043   3.089
86924W        W59239  33.556  33.667  14.849
86925W        W59240  19.779  34.001  14.812
86926W        W59241  29.104  38.835  11.665
86927W        W59242  28.188  35.972  14.390
86928W        W59243  36.554  28.159   4.670
86929W        W59244  31.994  32.511  14.448
86930W        W59245  10.079  23.728   0.254
86931W        W59246  19.832  10.189   1.434
86932W        W59247   9.819  12.263  14.957
86933W        W59248  15.366  11.714   2.888
86934W        W59249   9.848  20.552   2.762
86935W        W59250  31.452  22.861  12.575
86936W        W59251  32.532  19.229  10.920
86937W        W59252   3.732  10.652  12.656
86938W        W59253  44.199   6.665  11.138
86939W        W59254  41.544  19.393  13.080
86940W        W59255  14.780  10.543   3.733
86941W        W59256   4.771  23.607  12.369
86942W        W59257  43.450  16.107   2.200
86943W        W59258   8.195  25.146  11.454
86944W        W59259  19.028  23.458  11.229
86945W        W59260  35.457  41.808   4.301
86946W        W59261  38.320  27.159  11.571
86947W        W59262   9.651  18.630   0.695
86948W        W59263  26.952  10.884   3.440
86949W        W59264  24.713  40.794   1.356
86950W        W59265  14.680  31.028   1.378
86951W        W59266   1.278  23.772  13.044
86952W        W59267  34.477   2.772   0.880
86953W        W59268  27.157  22.568   1.860
86954W        W59269  32.091   5.861  10.102
86955W        W59270   6.816  41.097   0.298
86956W        W59271  13.823  15.463  12.641
86957W        W59272  23.898  15.669  11.955
86958W        W59273  31.913  20.812   2.691
86959W        W59274  22.136  20.463   3.515
86960W        W59275  27.388  36.018  13.507
86961W        W59276  11.128   3.834  10.453
86962W        W59277   6.109  17.325  11.596
86963W        W59278  36.534  42.370   0.658
86964W        W59279  11.851  16.345  14.037
86965W        W59280  31.147  23.282  13.336
86966W        W59281   7.925  17.721   4.239
86967W        W59282  20.901  35.030   4.880
86968W        W59283  22.982   8.831   0.417
86969W        W59284  15.732   4.308   2.378
86970W        W59285  42.838  28.830   1.588
86971W        W59286  29.601  24.513   0.588
86972W        W59287   5.621   9.658  12.655
86973W        W59288   6.483  32.421  14.481
86974W        W59289  12.992  12.486   4.488
86975W        W59290  32.395  10.320  12.167
86976W        W59291  19.014  33.899  12.992
86977W        W59292  16.049  24.557  11.230
86978W        W59293  24.601  14.254   0.750
86979W        W59294  15.119  11.209  12.483
86980W        W59295  39.001  27.547   1.173
86981W        W59296  18.059  20.020   4.594
86982W        W59297   9.613  40.447  13.511
86983W        W59298   0.230  23.842  12.601
86984W        W59299  31.882  23.943  13.958
86985W        W59300  29.095  37.058   4.584
86986W        W59301  36.542  35.150   2.639
86987W        W59302  16.069  32.502  13.347
86988W        W59303  11.643  14.461   1.227
86989W        W59304  24.665  42.419  11.290
86990W        W59305  40.900  19.671   0.914
86991W        W59306  38.640  35.391  12.359
86992W        W59307   1.542  29.939   3.607
86993W        W59308  11.383  42.363  11.056
86994W        W59309  27.042  24.057   3.477
86995W        W59310  36.311   2.444   4.564
86996W        W59311   5.276  40.373   1.527
86997W        W59312  35.459   9.860  13.996
86998W        W59313  13.102  15.257  10.619
86999W        W59314  44.002   9.670  10.477
87000W        W59315  12.680  44.833   3.681
87001W        W59316  29.899   6.279  14.923
87002W        W59317  15.540  43.884   5.096
87003W        W59318  38.896  19.782  12.421
87004W        W59319  13.517   0.262   0.278
87005W        W59320  44.903  33.939  12.980
87006W        W59321   0.264  22.237   0.391
87007W        W59322  38.688  14.358   4.164
87008W        W59323  25.978  12.119   4.492
87009W        W59324   8.947  23.244  13.051
87010W        W59325  33.854   9.524   3.260
87011W        W59326  19.547  22.529  13.005
87012W        W59327  13.180  26.432  12.907
87013W        W59328  21.048   6.671   3.422
87014W        W59329  16.753  18.179  14.897
87015W        W59330  29.733  29.531  12.652
87016W        W59331  17.679  10.305  14.270
87017W        W59332  37.728  26.132  14.121
87018W        W59333   3.333  17.757   4.089
87019W        W59334  16.674   7.785   4.520
87020W        W59335   8.225  19.544   0.257
87021W        W59336  18.554  24.213   1.858
87022W        W59337  43.591  20.035   2.587
87023W        W59338   1.565  14.517   0.878
87024W        W59339  12.739  21.451   1.183
87025W        W59340  21.774   5.475   1.693
87026W        W59341  19.602  13.856  12.943
87027W        W59342  26.933   6.952   4.136
87028W        W59343   2.207   6.578   1.236
87029W        W59344  33.946   6.875  11.164
87030W        W59345   0.479  13.809  11.379
87031W        W59346  27.385  30.966  13.956
87032W        W59347  35.074  12.415   3.643
87033W        W59348   4.731  27.387  10.579
87034W        W59349   6.124  42.028   3.046
87035W        W59350  26.437  28.383   2.070
87036W        W59351  42.521  15.275  14.664
87037W        W59352  42.573   3.300   1.713
87038W        W59353  25.481  13.850  13.057
87039W        W59354  38.708  12.552  11.151
87040W        W59355   2.776  36.227   1.660
87041W        W59356  35.861  21.283   2.819
87042W        W59357  31.313  42.914  11.157
87043W        W59358  13.167  12.351   3.251
87044W        W59359  21.262  24.612  14.917
87045W        W59360  38.818  12.925   4.190
87046W        W59361  37.784  23.612   2.710
87047W        W59362   0.325  37.795   4.567
87048W        W59363  26.098  40.482  14.784
87049W        W59364  16.716  13.335  11.010
87050W        W59365  39.933  16.001   2.064
87051W        W59366  24.563  41.037   4.627
87052W        W59367  29.029  41.409   4.401
87053W        W59368  27.933   4.835  12.463
87054W        W59369  11.391   2.626   0.412
87055W        W59370  43.073  21.564   2.130
87056W        W59371  34.717  39.422   1.442
87057W        W59372  15.748   4.178   1.744
87058W        W59373  36.082  31.525  14.505
87059W        W59374  33.343  30.137  13.917
87060W        W59375  38.110  34.351  11.051
87061W        W59376  43.777   4.324  14.905
87062W        W59377   4.207  12.138  13.624
87063W        W59378  10.175   3.839   4.342
87064W        W59379  36.581  40.359  13.071
87065W        W59380  41.743   2.849   2.733
87066W        W59381  37.573  34.626  10.418
87067W        W59382  21.417  32.379  11.586
87068W        W59383  38.415  17.710   3.410
87069W        W59384  12.284  29.059   1.073
87070W        W59385  12.577  18.170  10.618
87071W        W59386  21.475  31.126  11.173
87072W        W59387   3.809  17.623  12.982
87073W        W59388  20.736  32.295   2.223
87074W        W59389  21.273  20.852   2.257
87075W        W59390  31.080  41.134  10.880
87076W        W59391  22.074  15.696  11.613
87077W        W59392  18.263   7.798   0.543
87078W        W59393  20.003  39.002  11.796
87079W        W59394  17.287  24.459  11.421
87080W        W59395   8.583   8.867   2.128
87081W        W59396   9.436  31.077   3.615
87082W        W59397   8.681   6.850   2.641
87083W        W59398   7.465  15.023   4.579
87084W        W59399  32.676  32.940   3.084
87085W        W59400  35.479  31.854   4.898
87086W        W59401   8.486  35.124  13.379
87087W        W59402  43.210  23.033  11.912
87088W        W59403  36.558  20.669  14.895
87089W        W59404   4.116  15.896  12.514
87090W        W59405   7.091  26.686  12.078
87091W        W59406  19.608  25.712  10.645
87092W        W59407  41.196   5.288   3.596
87093W        W59408  11.243  36.385  12.622
87094W        W59409  42.563  40.044   1.430
87095W        W59410   0.437  11.913   4.087
87096W        W59411  21.220  32.441  14.412
87097W        W59412  10.718  35.946  14.247
87098W        W59413  10.131   3.738  10.620
87099W        W59414  31.241  34.384  11.817
87100W        W59415  10.951   0.474   3.547
87101W        W59416  10.904  34.975   2.560
87102W        W59417   5.903  35.052   3.471
87103W        W59418  39.124  22.255  10.556
87104W        W59419  28.502  36.903  12.003
87105W        W59420   6.211  28.929  13.139
87106W        W59421  43.229   1.289  12.365
87107W        W59422  10.253  31.228   4.498
87108W        W59423  44.308   2.304   3.884
87109W        W59424  21.207   1.306  13.313
87110W        W59425  24.846  24.396  14.035
87111W        W59426  24.195   7.452   2.159
87112W        W59427  24.156  28.230   3.346
87113W        W59428  16.353  20.112  11.227
87114W        W59429  41.304  17.683  12.808
87115W        W59430  36.006   8.816  14.410
87116W        W59431  15.219   6.753  10.660
87117W        W59432  18.659  31.633  11.586
87118W        W59433   8.813  28.970   3.612
87119W        W59434  15.076  37.823  13.811
87120W        W59435  22.488  20.649  11.823
87121W        W59436  31.091  32.629   0.775
87122W        W59437  26.773  29.649  11.722
87123W        W59438  37.536  36.449  14.885
87124W        W59439  30.134  24.025   1.205
87125W        W59440   8.744  32.463  13.419
87126W        W59441   9.630   6.871  10.611
87127W        W59442  25.591  13.881   4.853
87128W        W59443  37.414   1.100   4.748
87129W        W59444  10.650  32.496  12.108
87130W        W59445  24.586  36.445  10.802
87131W        W59446  39.065  19.934   4.445
87132W        W59447  40.031  38.555  14.561
87133W        W59448   1.248  37.849  11.969
87134W        W59449  44.874  19.223  13.535
87135W        W59450   6.309  28.006   2.848
87136W        W59451   7.739  21.750  12.174
87137W        W59452  27.081  16.068  10.773
87138W        W59453  19.160  44.509   1.789
87139W        W59454  17.303  21.529  10.952
87140W        W59455   9.340  42.256  12.626
87141W        W59456  15.894  28.457  12.976
87142W        W59457  40.182   8.599   1.745
87143W        W59458  38.512   7.614   3.753
87144W        W59459  37.837   7.895  11.028
87145W        W59460   7.485   1.879   2.695
87146W        W59461   1.723  26.440   3.210
87147W        W59462  26.964  22.733  13.494
87148W        W59463  32.024   0.481   2.866
87149W        W59464  10.930  43.342  14.847
87150W        W59465   9.230  15.208   4.278
87151W        W59466  29.941  25.473  10.743
87152W        W59467  25.012  11.673   2.796
87153W        W59468  18.729  10.668  13.873
87154W        W59469  21.184  34.985  11.866
87155W        W59470  28.650   6.910   1.434
87156W        W59471  21.591  27.118  13.249
87157W        W59472   9.993  20.240  13.092
87158W        W59473  17.581   7.338   1.897
87159W        W59474  27.678  27.701   2.240
87160W        W59475  42.223  30.980  12.949
87161W        W59476  36.516  28.229   1.404
87162W        W59477  17.801  32.634  10.700
87163W        W59478   1.651   4.557  14.294
87164W        W59479  43.469  11.406  14.959
87165W        W59480  17.773  15.008  13.827
87166W        W59481  19.905  42.997  11.462
87167W        W59482  34.054   1.421   2.778
87168W        W59483  31.578  16.780  12.540
87169W        W59484  15.895  43.803   2.041
87170W        W59485   4.290  33.419  14.753
87171W        W59486  20.771  27.983  10.682
87172W        W59487  35.612  25.994   4.100
87173W        W59488  43.740  35.622  11.292
87174W        W59489  41.893  19.303  12.446
87175W        W59490  21.586  18.712   2.838
87176W        W59491   6.774  11.112  12.773
87177W        W59492  18.615  29.942   2.409
87178W        W59493  32.301  33.029  11.100
87179W        W59494  16.429  37.971   4.704
87180W        W59495  15.571  34.498   0.777
87181W        W59496   4.808   1.260   3.306
87182W        W59497   6.836  14.201  11.662
87183W        W59498  31.488  40.500   3.378
87184W        W59499  23.007   9.364   3.348
87185W        W59500  17.708  19.606   2.696
87186W        W59501  23.755  43.808  14.721
87187W        W59502   1.769   5.463  10.521
87188W        W59503  24.540  35.059   4.216
87189W        W59504  28.668  32.478   5.181
87190W        W59505  14.316  37.334  14.006
87191W        W59506  25.763  20.175  12.742
87192W        W59507  11.354  17.396  10.823
87193W        W59508  34.279  32.912  13.390
87194W        W59509  35.085  42.837   2.231
87195W        W59510   9.130   6.720   2.863
87196W        W59511  19.451  20.059   1.408
87197W        W59512  20.015  21.209  14.737
87198W        W59513  33.263  28.628  11.163
87199W        W59514  14.342  22.698  12.428
87200W        W59515  38.544   3.461  14.401
87201W        W59516  34.408  26.675   3.202
87202W        W59517   8.657  15.841  14.860
87203W        W59518  23.077   2.174   2.726
87204W        W59519   3.501   6.787  13.042
87205W        W59520  30.253  25.996  10.646
87206W        W59521   3.400  25.925   1.738
87207W        W59522  43.880  22.152  14.563
87208W        W59523  26.261  39.269   2.842
87209W        W59524  25.584  31.991  14.023
87210W        W59525  11.831  22.128   4.359
87211W        W59526  31.495   6.201  13.107
87212W        W59527  28.861  10.583  11.092
87213W        W59528   6.328  16.418   1.755
87214W        W59529  24.527  29.596  11.211
87215W        W59530  25.157  28.200   4.004
87216W        W59531  26.043  17.027  14.902
87217W        W59532   4.868  22.158  14.090
87218W        W59533  22.722  19.492  11.904
87219W        W59534  24.436   5.115  13.176
87220W        W59535  40.814  23.933  14.185
87221W        W59536  25.497  31.509  12.865
87222W        W59537  43.792  19.664  11.983
87223W        W59538  34.086  28.148  13.774
87224W        W59539  40.182  16.092   4.003
87225W        W59540  22.780   1.970  14.418
87226W        W59541  16.649  10.135  10.222
87227W        W59542   3.309  36.917  14.288
87228W        W59543  30.558   3.211  14.013
87229W        W59544   9.266  27.208   0.355
87230W        W59545   8.251  13.538   1.205
87231W        W59546  26.094  11.241  11.697
87232W        W59547   7.978   9.759   3.165
87233W        W59548   4.700  32.240  11.297
87234W        W59549  41.079   7.315  13.327
87235W        W59550   7.798   4.986  12.212
87236W        W59551   2.950  28.828  12.560
87237W        W59552   5.154   1.299  14.168
87238W        W59553   5.953  38.930   2.639
87239W        W59554  11.833  18.010   0.275
87240W        W59555  11.626  12.764   5.218
87241W        W59556   5.957  27.901  11.078
87242W        W59557  18.951  31.121  13.808
87243W        W59558  13.578  39.806  10.654
87244W        W59559  12.340   6.242   4.125
87245W        W59560   0.158  12.170  14.481
87246W        W59561  44.564   8.747  11.945
87247W        W59562  35.969  16.531  13.052
87248W        W59563  24.249  11.050   2.312
87249W        W59564   3.920  42.694  11.129
87250W        W59565  27.214  16.617  11.984
87251W        W59566  42.523  17.302  14.990
87252W        W59567  28.439  11.665  13.045
87253W        W59568  23.513  31.502   4.531
87254W        W59569  13.672  43.908  14.123
87255W        W59570  21.623  40.185  10.326
87256W        W59571  40.555   4.715  14.287
87257W        W59572  13.733   8.850  11.489
87258W        W59573  42.141  30.443  11.615
87259W        W59574  17.881  40.368  10.709
87260W        W59575  25.664  11.043  11.527
87261W        W59576  21.169   2.836  10.354
87262W        W59577  14.667   6.233  11.970
87263W        W59578  14.235  43.384  14.430
87264W        W59579  10.904   3.881   2.705
87265W        W59580  33.520  42.968  13.496
87266W        W59581  32.533  18.749  10.680
87267W        W59582  29.746  13.119   1.888
87268W        W59583  20.165  15.104   0.451
87269W        W59584  40.313  13.798   2.626
87270W        W59585   7.783  15.252  14.981
87271W        W59586  37.012  21.049  12.817
87272W        W59587  12.098  44.332  13.238
87273W        W59588  31.579  19.774  10.762
87274W        W59589  16.276  28.681  14.352
87275W        W59590  16.214   0.346   4.030
87276W        W59591  22.230  43.003  11.591
87277W        W59592  30.367  44.907   3.210
87278W        W59593  18.076  20.136  12.324
87279W        W59594   8.137   6.225  10.470
87280W        W59595  20.592  16.814   0.634
87281W        W59596  29.947  37.316   4.395
87282W        W59597  44.711  30.428   4.181
87283W        W59598   6.768  18.009  11.766
87284W        W59599  42.508  41.464   0.293
87285W        W59600  38.057   6.504  14.545
87286W        W59601  27.568  12.409   4.974
87287W        W59602   7.275  32.824   1.872
87288W        W59603  31.698  31.398   0.797
87289W        W59604  18.632  28.596   9.824
87290W        W59605  14.253   5.574  12.989
87291W        W59606  24.306  13.738   1.426
87292W        W59607  40.849  25.352   1.491
87293W        W59608  36.918  39.495  11.479
87294W        W59609   0.445  11.382  11.111
87295W        W59610  31.125  27.999   2.663
87296W        W59611   1.573  13.153  14.737
87297W        W59612   4.430  39.822  11.118
87298W        W59613  18.695  41.907   2.175
87299W        W59614  30.895  37.309   2.760
87300W        W59615   6.875  11.534  10.696
87301W        W59616  18.191  35.396  12.993
87302W        W59617  34.617  27.637   1.740
87303W        W59618  44.848  44.471   1.729
87304W        W59619  44.822  43.550  11.897
87305W        W59620   6.767   3.055  12.469
87306W        W59621  30.670  20.283  14.189
87307W        W59622  29.438  31.855  10.610
87308W        W59623   0.230  41.913   2.781
87309W        W59624  19.299  43.054   4.593
87310W        W59625  38.075  28.225  12.455
87311W        W59626  17.258  30.316  14.235
87312W        W59627  35.999  33.382  13.023
87313W        W59628   1.528   1.468  12.016
87314W        W59629  17.753  13.251   1.014
87315W        W59630  24.148  37.513  11.342
87316W        W59631  27.172  20.289  12.960
87317W        W59632  32.312  29.788   0.968
87318W        W59633  35.844  34.208   0.723
87319W        W59634  39.557  27.493   4.155
87320W        W59635  21.261  29.017  11.971
87321W        W59636  36.759  41.543   1.372
87322W        W59637  30.556  44.717   2.740
87323W        W59638  25.064   8.225   3.379
87324W        W59639  15.035  11.259   1.786
87325W        W59640  31.833   3.579  13.558
87326W        W59641  35.335  26.064  13.305
87327W        W59642   0.544   6.189  12.061
87328W        W59643  29.678   6.403   0.700
87329W        W59644   9.357  32.711  14.840
87330W        W59645  28.057  20.675  13.489
87331W        W59646  34.865   5.891   1.834
87332W        W59647   8.977  37.679  11.589
87333W        W59648  37.492  23.031  11.471
87334W        W59649   0.258  21.302  12.941
87335W        W59650  12.194   2.821  10.914
87336W        W59651  22.605  10.911   2.736
87337W        W59652   2.122   4.774  11.128
87338W        W59653   5.720  10.797   4.421
87339W        W59654  39.316  13.316   0.817
87340W        W59655  17.491   0.021  14.412
87341W        W59656  24.157  29.683   4.573
87342W        W59657  39.880  34.915   3.622
87343W        W59658  32.994  17.696  11.634
87344W        W59659  36.802  33.386   4.521
87345W        W59660  14.142  13.708  13.385
87346W        W59661  38.953  37.482   2.250
87347W        W59662  35.374  40.523   1.306
87348W        W59663  30.902  28.737   1.319
87349W        W59664  10.332   9.739  12.075
87350W        W59665  13.681  23.526   3.332
87351W        W59666  10.180  40.456  14.431
87352W        W59667  13.588  16.211   1.653
87353W        W59668  22.619  39.297  10.628
87354W        W59669  44.327  42.942  12.892
87355W        W59670   2.527  35.051  14.805
87356W        W59671   4.688   9.790   0.174
87357W        W59672  31.215  29.879   4.052
87358W        W59673  10.434  37.341  14.363
87359W        W59674   0.332  31.411   3.951
87360W        W59675   4.764   2.399   1.131
87361W        W59676  39.085  26.484   3.363
87362W        W59677  27.614  11.630  14.841
87363W        W59678  38.521  21.502   2.583
87364W        W59679  23.994  20.686  11.552
87365W        W59680  43.028   9.672   3.609
87366W        W59681   6.255   4.269  10.382
87367W        W59682  35.386  44.542   0.389
87368W        W59683   8.112  26.414   4.321
87369W        W59684  16.107  16.152  12.385
87370W        W59685  33.058   0.514  14.511
87371W        W59686   9.734  18.341  12.567
87372W        W59687   7.800  38.956  11.522
87373W        W59688   0.955   8.432  14.361
87374W        W59689   7.629  33.951   4.374
87375W        W59690  17.675  44.175   1.666
87376W        W59691   0.955  38.820  11.232
87377W        W59692   7.692  39.148   0.553
87378W        W59693  39.447  39.919  12.519
87379W        W59694   7.303  12.660   4.317
87380W        W59695   7.195  11.189  11.494
87381W        W59696  19.597  39.001  10.630
87382W        W59697   5.979  21.281  13.805
87383W        W59698  40.908  17.039  12.851
87384W        W59699  34.415  30.020   3.622
87385W        W59700  38.495  43.101   4.031
87386W        W59701  18.397  18.566   3.227
87387W        W59702  43.356  15.289  13.895
87388W        W59703  17.739  36.797   3.205
87389W        W59704  25.465  40.170   0.776
87390W        W59705  44.868  43.246   2.636
87391W        W59706  20.811  36.205  13.859
87392W        W59707   8.240  35.804  11.097
87393W        W59708   8.969  13.096  11.077
87394W        W59709  12.833  10.329   4.569
87395W        W59710  11.776  27.780  10.920
87396W        W59711  32.648  44.044   3.446
87397W        W59712  35.527   1.494  14.527
87398W        W59713  36.923  23.932  11.822
87399W        W59714   8.487   8.361   1.688
87400W        W59715   5.801  30.414   1.269
87401W        W59716   1.061   5.157  13.957
87402W        W59717   2.164  28.633   2.265
87403W        W59718  28.164  43.390  10.715
87404W        W59719  20.679   4.416   3.331
87405W        W59720  21.096  43.462  14.091
87406W        W59721  41.205   6.434  14.507
87407W        W59722  20.042  18.406  11.163
87408W        W59723  11.628  16.589  12.133
87409W        W59724   2.266  35.395  14.526
87410W        W59725   8.804  42.100   0.505
87411W        W59726  11.578  25.704  10.668
87412W        W59727  10.166  13.321   1.165
87413W        W59728  11.183   1.688   2.890
87414W        W59729  18.485  16.044  11.609
87415W        W59730  16.073   8.700  13.380
87416W        W59731  37.063  22.090   0.435
87417W        W59732   8.083   8.617   3.846
87418W        W59733  33.101  33.135  12.140
87419W        W59734   0.617  44.429   3.550
87420W        W59735  42.664  16.568  12.225
87421W        W59736  36.043  11.331   1.352
87422W        W59737   9.397   2.008  13.572
87423W        W59738   3.832   4.708   1.357
87424W        W59739  13.502  44.792  13.025
87425W        W59740  25.141  12.128   0.013
87426W        W59741  12.567   3.981   3.392
87427W        W59742  12.170  10.180   1.242
87428W        W59743   3.953  37.064   3.645
87429W        W59744  12.712  35.957   3.309
87430W        W59745  13.046  22.990   1.562
87431W        W59746  14.860  13.243  13.743
87432W        W59747  24.627  41.878   1.070
87433W        W59748  27.160   6.471  14.347
87434W        W59749  29.227  17.675  14.719
87435W        W59750  12.101   6.261  14.993
87436W        W59751  29.906  36.483   3.914
87437W        W59752   0.354  14.090   1.131
87438W        W59753  41.431  40.865  13.877
87439W        W59754  28.462  33.558  14.967
87440W        W59755  43.921   4.707  12.003
87441W        W59756  24.969  29.301   0.660
87442W        W59757  32.037   8.641  13.979
87443W        W59758   5.351  29.694  10.728
87444W        W59759  38.603   5.368  12.526
87445W        W59760  41.285  42.910  10.742
87446W        W59761  27.241   2.460   0.520
87447W        W59762  24.436  28.472   4.661
87448W        W59763  18.111  18.132   3.198
87449W        W59764  37.527  34.603   5.063
87450W        W59765  35.057  14.403  14.943
87451W        W59766  40.330  34.456  13.131
87452W        W59767  31.808  35.414   1.788
87453W        W59768   1.443  13.518  11.533
87454W        W59769   0.267  33.415   3.921
87455W        W59770   6.323  24.413  12.577
87456W        W59771  21.086  30.469  11.590
87457W        W59772  44.812  36.804  14.581
87458W        W59773   5.714  10.829   3.903
87459W        W59774  35.334  23.589  13.067
87460W        W59775  26.960   1.062   4.092
87461W        W59776  28.132   3.738   3.576
87462W        W59777  15.342  16.315  12.924
87463W        W59778  15.852  20.520  12.445
87464W        W59779  34.231   3.417   4.146
87465W        W59780  18.112  19.127   1.638
87466W        W59781   7.855  18.670  14.453
87467W        W59782   0.115  22.942  13.886
87468W        W59783   2.435  18.627   1.280
87469W        W59784  17.290  32.558  10.653
87470W        W59785  40.380  40.186   3.242
87471W        W59786  13.764  24.041   0.875
87472W        W59787  24.281  37.439  14.751
87473W        W59788  39.602   0.695  13.559
87474W        W59789  19.209  15.081  12.918
87475W        W59790   7.186   8.716   1.962
87476W        W59791  24.555  23.518  12.911
87477W        W59792   4.347  14.896   0.873
87478W        W59793   9.139  21.584  10.945
87479W        W59794   6.351   9.055  14.481
87480W        W59795   3.476  14.368   0.900
87481W        W59796  28.492  36.791  14.185
87482W        W59797   8.008  20.325  10.702
87483W        W59798  14.345  33.457  12.896
87484W        W59799  22.111  11.898   0.004
87485W        W59800   4.168  43.850  10.662
87486W        W59801  40.820  44.317  13.098
87487W        W59802  35.074  22.885   4.010
87488W        W59803   6.133   5.877  13.883
87489W        W59804  20.775   4.778  13.031
87490W        W59805  43.702  12.714  13.973
87491W        W59806  38.415   8.833  12.813
87492W        W59807  26.888  18.179  14.437
87493W        W59808  18.800  27.137   3.605
87494W        W59809  38.121  25.669   5.107
87495W        W59810  19.809  42.456   2.460
87496W        W59811  35.063  36.878  12.844
87497W        W59812  28.110  38.461   4.522
87498W        W59813   4.296  15.273  14.204
87499W        W59814   0.551  39.530  11.966
87500W        W59815  39.954  13.455  13.595
87501W        W59816  17.661  18.388  10.669
87502W        W59817  15.012  10.423  10.738
87503W        W59818  29.203   8.116   2.722
87504W        W59819  40.838   0.041  13.376
87505W        W59820   2.552  33.220   4.128
87506W        W59821   4.035  33.828  13.921
87507W        W59822  26.267  16.940   0.752
87508W        W59823  16.678  31.645   2.327
87509W        W59824  39.361  35.533  10.643
87510W        W59825  33.663   5.796  13.409
87511W        W59826  15.012  21.380   2.741
87512W        W59827  10.148   1.468   0.383
87513W        W59828  34.497  12.664  13.336
87514W        W59829  34.984  30.605  14.334
87515W        W59830  37.376  24.002  12.535
87516W        W59831  20.684  24.725  11.162
87517W        W59832  43.283  35.977  12.617
87518W        W59833  23.094  29.108  13.757
87519W        W59834  39.506  40.358   3.321
87520W        W59835  15.430  23.263   3.175
87521W        W59836  34.336  32.549  11.949
87522W        W59837  13.789  18.005   1.821
87523W        W59838   3.497  27.459   3.698
87524W        W59839   9.854  39.102  14.534
87525W        W59840  18.553   0.753  12.707
87526W        W59841   0.345  31.222   0.410
87527W        W59842   5.253  40.945  11.179
87528W        W59843  40.160  25.685   2.942
87529W        W59844  27.621  29.633  14.481
87530W        W59845  18.343  29.607   3.362
87531W        W59846  30.968  33.992   4.468
87532W        W59847  35.968  34.590  10.698
87533W        W59848   6.185  12.613  11.988
87534W        W59849  44.356   5.577  12.586
87535W        W59850  11.470  16.014   2.064
87536W        W59851   2.766   2.201   1.405
87537W        W59852   9.197   5.927   5.115
87538W        W59853   5.510  14.154   2.803
87539W        W59854   3.868   4.888   4.646
87540W        W59855  21.505  19.767  13.103
87541W        W59856  25.135  16.332   2.231
87542W        W59857   3.845  17.098  12.101
87543W        W59858   7.818   8.981   0.892
87544W        W59859  21.698   6.852  12.999
87545W        W59860  18.509  29.719   2.863
87546W        W59861  43.854  37.602  10.645
87547W        W59862  40.894   6.653   4.025
87548W        W59863   9.699   7.946  12.334
87549W        W59864  28.460  28.807   2.033
87550W        W59865  22.930  35.742  13.573
87551W        W59866  38.020  28.796  14.372
87552W        W59867  11.449  15.929   3.628
87553W        W59868  42.812  39.869   0.047
87554W        W59869  10.705  41.602   4.080
87555W        W59870  24.504  26.101   4.632
87556W        W59871  35.831   3.351  13.429
87557W        W59872   5.875   8.823  13.013
87558W        W59873  13.164  35.465   0.864
87559W        W59874  44.900  20.765  12.190
87560W        W59875  19.552  26.228  10.722
87561W        W59876  23.582  15.081  14.739
87562W        W59877  29.023  32.424  12.794
87563W        W59878  11.268  43.491   3.720
87564W        W59879  14.150  36.073  13.628
87565W        W59880  25.853  32.557  10.660
87566W        W59881  22.012  37.793  11.476
87567W        W59882  35.590  44.886   3.626
87568W        W59883  40.362  33.577   2.685
87569W        W59884  42.860  25.730   2.472
87570W        W59885  22.558  35.641   2.252
87571W        W59886   3.337  34.222   1.748
87572W        W59887  19.670  23.950  11.196
87573W        W59888  31.357  34.607  14.388
87574W        W59889   7.884  29.433  13.180
87575W        W59890  40.283  36.976  13.375
87576W        W59891   5.030   5.984   1.984
87577W        W59892  32.955  11.094   3.265
87578W        W59893  43.295  23.574  12.679
87579W        W59894  32.028  40.497  12.005
87580W        W59895  40.495  24.630   2.772
87581W        W59896   7.932  17.763   3.145
87582W        W59897  10.861  36.150  11.088
87583W        W59898   9.650  15.090   0.963
87584W        W59899  39.464   8.113  12.104
87585W        W59900  33.879  23.403  11.200
87586W        W59901  33.920   5.440   0.774
87587W        W59902   5.222  25.016  11.137
87588W        W59903   4.260  37.325  13.322
87589W        W59904  23.021  18.675  10.562
87590W        W59905  27.031   9.961   2.338
87591W        W59906  30.649  14.540   4.957
87592W        W59907   7.918  28.647  11.423
87593W        W59908  42.606   1.481   0.323
87594W        W59909   6.681   6.780   3.321
87595W        W59910  19.203  23.269   1.333
87596W        W59911   9.744   2.211  13.924
87597W        W59912  33.534  19.320   3.214
87598W        W59913  28.506   9.852  14.960
87599W        W59914   1.747  16.147   2.780
87600W        W59915  14.051  26.994   0.384
87601W        W59916  23.582  35.018  14.088
87602W        W59917  11.891  43.642  14.851
87603W        W59918  33.793  22.642   3.258
87604W        W59919   6.894  42.817   0.256
87605W        W59920  31.297  35.442   1.795
87606W        W59921  21.687  31.985   4.780
87607W        W59922  23.415  16.077   0.783
87608W        W59923  33.478  34.434  11.946
87609W        W59924  17.904  12.047   5.280
87610W        W59925   2.223  17.386   4.824
87611W        W59926  10.296  36.380   2.659
87612W        W59927  44.923  21.444   1.562
87613W        W59928  20.765  13.377   0.643
87614W        W59929   1.949   5.763  14.921
87615W        W59930  23.751  23.732   2.414
87616W        W59931  22.005   2.848   2.239
87617W        W59932  15.770  10.914   0.474
87618W        W59933  30.985  16.755   1.384
87619W        W59934  18.132  17.220   4.572
87620W        W59935   1.424  29.031   3.553
87621W        W59936  39.636   8.360  14.444
87622W        W59937   6.906  11.196   3.888
87623W        W59938  12.860   8.185   3.237
87624W        W59939  19.204  23.499  13.848
87625W        W59940  40.235  27.557  11.699
87626W        W59941  39.609  13.141  10.741
87627W        W59942  33.542  17.542  13.426
87628W        W59943  18.339  34.572  10.725
87629W        W59944  39.273   1.856   0.494
87630W        W59945  29.210  30.228   1.221
87631W        W59946  37.932  32.442  14.626
87632W        W59947  33.293  29.621  14.835
87633W        W59948  34.063  31.356  14.934
87634W        W59949  37.637   9.567   3.240
87635W        W59950  21.786  33.875  13.283
87636W        W59951   1.182  21.811   1.719
87637W        W59952   7.685  25.007  13.882
87638W        W59953  15.581  15.069   3.562
87639W        W59954  20.734   1.248   2.490
87640W        W59955  17.965  35.627   2.822
87641W        W59956  44.360  42.137   4.489
87642W        W59957  13.624  37.680   1.385
87643W        W59958  39.310  43.383   4.426
87644W        W59959  32.974  26.030  14.911
87645W        W59960   2.647   5.379  13.500
87646W        W59961   2.785  40.141   3.613
87647W        W59962  42.743  38.377   3.664
87648W        W59963  34.802  14.521  12.506
87649W        W59964   6.605  23.609   1.796
87650W        W59965   6.311  42.191   4.937
87651W        W59966  40.305  12.908  14.388
87652W        W59967  21.219  15.344  14.786
87653W        W59968   1.474  28.384   2.846
87654W        W59969  38.061  44.201   0.269
87655W        W59970  44.234   9.712  13.946
87656W        W59971  13.670  35.909   3.632
87657W        W59972  36.070  39.056  11.490
87658W        W59973  13.672  37.983  14.931
87659W        W59974  11.876  28.568  11.434
87660W        W59975   2.835  10.846  11.382
87661W        W59976  16.305   2.747  12.879
87662W        W59977  31.679  32.535   1.774
87663W        W59978  29.061  29.502  13.349
87664W        W59979  11.340  21.257   0.347
87665W        W59980  34.940  40.908  12.805
87666W        W59981  18.578  25.539   3.188
87667W        W59982  16.592  26.243   3.787
87668W        W59983  43.378   2.781  14.411
87669W        W59984  13.501  21.801   4.824
87670W        W59985  28.526  41.366  12.214
87671W        W59986  42.838  41.824   3.331
87672W        W59987  27.757  36.059   0.687
87673W        W59988  33.764  25.905   0.362
87674W        W59989  31.129   5.218   0.268
87675W        W59990  23.671  38.569  11.616
87676W        W59991  32.056  18.193   2.186
87677W        W59992  28.373  11.114   3.679
87678W        W59993  15.532  43.725  11.075
87679W        W59994   7.302   5.897   4.741
87680W        W59995  44.254  38.131  13.150
87681W        W59996  42.028  23.149  14.828
87682W        W59997  39.068  26.445   4.274
87683W        W59998  44.270  14.683  11.950
87684W        W59999   1.175  40.434  12.588
87685W        W60000   9.898  39.276   1.405
87686W        W60001   2.266  18.311   4.617
87687W        W60002  36.025   1.677  11.825
87688W        W60003   3.698  21.296  14.997
87689W        W60004   6.264  36.085   0.048
87690W        W60005  30.566  13.026   2.672
87691W        W60006  18.809  23.361   0.005
87692W        W60007  42.196  20.577  12.202
87693W        W60008  10.651  21.362  14.666
87694W        W60009  10.471  21.401   2.414
87695W        W60010  23.632  34.012   1.225
87696W        W60011  19.422  23.220   0.743
87697W        W60012   3.923  37.018  10.680
87698W        W60013  30.113  21.777   0.526
87699W        W60014   0.397  39.709   0.721
87700W        W60015  21.247  27.620  14.263
87701W        W60016   3.325  38.088   2.237
87702W        W60017  39.347   3.737  13.762
87703W        W60018   6.685  32.910  14.387
87704W        W60019   5.868  15.542  11.007
87705W        W60020  16.281  41.850  13.404
87706W        W60021  26.463  34.949  12.000
87707W        W60022  40.656  30.198  13.816
87708W        W60023  37.558  35.479  10.545
87709W        W60024   6.691  42.875   0.738
87710W        W60025  41.964  20.740   3.875
87711W        W60026  21.509  39.124   9.889
87712W        W60027  15.371   9.591   1.337
87713W        W60028  10.317  32.192  11.616
87714W        W60029  11.306  30.343   4.746
87715W        W60030  44.767  41.494   1.814
87716W        W60031  39.116  28.120  11.142
87717W        W60032  15.074  13.116   2.339
87718W        W60033   5.278  40.799   3.867
87719W        W60034   3.639   2.488   4.214
87720W        W60035  40.404  30.665  10.843
87721W        W60036  11.852  31.518   0.242
87722W        W60037  12.187   1.294  13.550
87723W        W60038  25.708  19.670  14.498
87724W        W60039  20.555  25.501   0.747
87725W        W60040   3.555  14.596  13.884
87726W        W60041  21.376  26.395  13.370
87727W        W60042   5.370  42.935  12.104
87728W        W60043  35.568  23.570   4.802
87729W        W60044   7.525  20.259   4.168
87730W        W60045  22.688  30.448  10.776
87731W        W60046  36.775  44.768  13.284
87732W        W60047  24.949  13.729   3.225
87733W        W60048   4.221  35.638  14.595
87734W        W60049   6.962  26.210  12.283
87735W        W60050  10.295  17.163  12.710
87736W        W60051  25.427  20.034   5.043
87737W        W60052  40.788  35.398   2.661
87738W        W60053   4.199  15.422  12.800
87739W        W60054  23.009  22.626  14.120
87740W        W60055  14.005   6.812   4.793
87741W        W60056   6.392  26.014   0.619
87742W        W60057   9.404  11.740  12.887
87743W        W60058  13.180  19.429  13.440
87744W        W60059  16.175  25.325   3.676
87745W        W60060   9.195  20.030   4.056
87746W        W60061   5.651  13.244  11.600
87747W        W60062   1.932   9.881  11.476
87748W        W60063  21.959  13.332   1.244
87749W        W60064  40.020  24.529  13.108
87750W        W60065  43.225  23.483  14.043
87751W        W60066  33.515  42.519   1.161
87752W        W60067   6.781  29.778   2.917
87753W        W60068  40.436  21.525  10.704
87754W        W60069  31.660  12.797  14.470
87755W        W60070  35.506  36.864   0.471
87756W        W60071  40.726   1.725  12.832
87757W        W60072  11.745   8.608  14.897
87758W        W60073  26.079  16.604   3.192
87759W        W60074   8.137  30.201   2.214
87760W        W60075  25.968  19.745   2.656
87761W        W60076  29.664  19.357  11.606
87762W        W60077  29.232  29.154   1.580
87763W        W60078  37.799  28.628  14.838
87764W        W60079  15.367  14.165  11.567
87765W        W60080  32.639  36.012  12.479
87766W        W60081  28.372  31.621   5.116
87767W        W60082  43.597  42.035   4.921
87768W        W60083   9.732  39.930   4.125
87769W        W60084  18.972   6.839   4.181
87770W        W60085   4.052  43.743   0.316
87771W        W60086  42.708  26.001  11.197
87772W        W60087  29.224  44.822  13.459
87773W        W60088  17.756  36.633   0.750
87774W        W60089  29.720   3.272   2.286
87775W        W60090  23.621  12.333   1.133
87776W        W60091  40.245  11.065  11.160
87777W        W60092   2.549  32.136   0.430
87778W        W60093  39.965  33.044   3.060
87779W        W60094  11.918  39.017   2.807
87780W        W60095  37.524  40.293  12.797
87781W        W60096   7.344  29.658   5.031
87782W        W60097  23.792  24.260  12.116
87783W        W60098  37.454  22.076   4.317
87784W        W60099  24.616  29.221  12.966
87785W        W60100  38.627   8.747   3.566
87786W        W60101   4.126   9.345   1.342
87787W        W60102  38.410  32.548  14.491
87788W        W60103  19.489  35.582  12.801
87789W        W60104  42.411   9.399  12.268
87790W        W60105   4.836  35.993   1.160
87791W        W60106  22.418   0.914  10.649
87792W        W60107  16.366   3.281  13.768
87793W        W60108  37.846  39.621  11.501
87794W        W60109  22.963  20.755  10.648
87795W        W60110  21.037  25.883  14.523
87796W        W60111  19.621   2.913  12.466
87797W        W60112  39.056  42.329   2.732
87798W        W60113  24.613   8.995   4.931
87799W        W60114   6.329  23.231  13.946
87800W        W60115  42.228  10.233  13.966
87801W        W60116  43.455  39.792   1.228
87802W        W60117  33.443  41.027   2.805
87803W        W60118   2.808  27.477   1.949
87804W        W60119  38.015  42.974  12.168
87805W        W60120  21.624  14.635   4.715
87806W        W60121  22.204  28.357   0.410
87807W        W60122  17.570  21.008  14.673
87808W        W60123  32.596  43.592   1.638
87809W        W60124  31.948  20.773   4.064
87810W        W60125  15.850  27.801   1.329
87811W        W60126   8.799  17.391   1.931
87812W        W60127  30.659  24.036   4.245
87813W        W60128  40.915  43.809  12.000
87814W        W60129  14.784  40.265   0.182
87815W        W60130  20.739  42.892   4.272
87816W        W60131  40.473  20.338   3.736
87817W        W60132  17.362  27.501   4.265
87818W        W60133  25.704  28.967  12.169
87819W        W60134  26.509  26.785  12.987
87820W        W60135  43.328  13.146   1.320
87821W        W60136  35.167  21.168   5.071
87822W        W60137  35.497  14.894   3.744
87823W        W60138   2.829  37.451   9.988
87824W        W60139   2.604   7.102  13.986
87825W        W60140  16.458  25.506   3.214
87826W        W60141   0.789  14.743   1.812
87827W        W60142   3.484  17.740  12.560
87828W        W60143  39.455  16.358  12.592
87829W        W60144  37.911  23.812  12.429
87830W        W60145  20.731  38.344   4.337
87831W        W60146   9.192  32.631  11.703
87832W        W60147  33.792  40.807   4.022
87833W        W60148  44.972  35.903  14.381
87834W        W60149  11.280  26.911   4.305
87835W        W60150   7.526  19.658  10.359
87836W        W60151  30.500  35.029  13.628
87837W        W60152  37.544  14.111  11.672
87838W        W60153  28.135  10.744  11.976
87839W        W60154  31.017  27.809   0.245
87840W        W60155  10.724  29.918   0.892
87841W        W60156   5.732  23.326  10.338
87842W        W60157  41.500  22.721  13.414
87843W        W60158   8.511  15.123   3.696
87844W        W60159  25.175  29.568   1.711
87845W        W60160  39.921  15.511  14.055
87846W        W60161  28.441  22.647   3.799
87847W        W60162   7.298  24.461  14.333
87848W        W60163  38.004  39.474  11.963
87849W        W60164  27.695  12.171   4.533
87850W        W60165   5.690   7.702   2.658
87851W        W60166  17.196  42.458   2.369
87852W        W60167  27.253   0.145  13.456
87853W        W60168  36.947  14.997   4.670
87854W        W60169   4.717  42.040  13.629
87855W        W60170  34.966   9.156   4.213
87856W        W60171  37.366  27.067   3.766
87857W        W60172  21.539  42.230  11.533
87858W        W60173  25.131  21.980  11.484
87859W        W60174  19.530  36.628  11.091
87860W        W60175  13.844  35.352   3.932
87861W        W60176   7.292  15.247   3.183
87862W        W60177   5.128  17.329  14.399
87863W        W60178  40.492  33.976  13.028
87864W        W60179  39.481  18.191   0.417
87865W        W60180  27.082  26.095   0.736
87866W        W60181  33.384  42.007   2.688
87867W        W60182  12.861   1.454  12.911
87868W        W60183   0.997  12.601  14.474
87869W        W60184  42.594   1.351  14.457
87870W        W60185  36.882  44.404   2.749
87871W        W60186   6.731  24.413   1.326
87872W        W60187  39.426   2.914  13.590
87873W        W60188  38.710  24.807   3.349
87874W        W60189   1.716  27.735  11.275
87875W        W60190  23.718  25.128   0.460
87876W        W60191  36.920  38.594  14.067
87877W        W60192   6.551  37.000  12.476
87878W        W60193  21.595   7.673   3.821
87879W        W60194  26.551   3.143   3.422
87880W        W60195  22.236   3.442   3.639
87881W        W60196  21.983   0.330   3.099
87882W        W60197  39.858   2.562  11.541
87883W        W60198  14.766  31.359  10.671
87884W        W60199   2.356  43.948  12.987
87885W        W60200  41.295  19.685   2.226
87886W        W60201  38.471  23.138  13.415
87887W        W60202  38.840   4.192  11.935
87888W        W60203   5.850  16.705   1.878
87889W        W60204  40.970  17.840   4.111
87890W        W60205  14.259  31.654   1.593
87891W        W60206  38.412   2.104   4.635
87892W        W60207  19.796  40.600   2.374
87893W        W60208   1.905  21.000   5.169
87894W        W60209  18.688  31.236   0.266
87895W        W60210  20.751  37.893   4.584
87896W        W60211  20.607   4.293  13.878
87897W        W60212  41.661  44.933  14.031
87898W        W60213  39.824  41.396   3.657
87899W        W60214  14.575   4.446   1.344
87900W        W60215   3.669  22.165   3.278
87901W        W60216  21.162  14.919   4.747
87902W        W60217   9.691  37.560   3.403
87903W        W60218  26.464  33.908  13.494
87904W        W60219  25.959   0.531   1.598
87905W        W60220  35.357  29.946   3.272
87906W        W60221  21.634   1.701  10.904
87907W        W60222  14.665  28.234   2.852
87908W        W60223  22.689  33.469   2.242
87909W        W60224  27.064  29.907  10.985
87910W        W60225  40.339  36.102  12.513
87911W        W60226  44.782  18.382  12.393
87912W        W60227  23.013   4.571  14.974
87913W        W60228  33.907  15.018  14.396
87914W        W60229  13.359  44.031   3.769
87915W        W60230  34.245  12.703   3.508
87916W        W60231  12.423   7.704  11.980
87917W        W60232  18.468  26.029   3.306
87918W        W60233   2.221   8.475  10.680
87919W        W60234  34.861  14.777   2.312
87920W        W60235   4.475  35.606   2.822
87921W        W60236  25.342  22.740   3.216
87922W        W60237   6.960  22.737  11.201
87923W        W60238  44.272  10.424   1.501
87924W        W60239  34.675  40.294  11.171
87925W        W60240  32.971   7.762   2.908
87926W        W60241  33.191  24.577   0.450
87927W        W60242  23.229  32.544   2.741
87928W        W60243  19.120  10.941   3.279
87929W        W60244   5.994   3.516   9.803
87930W        W60245  19.593   7.384  11.956
87931W        W60246  13.314  31.449  11.657
87932W        W60247   9.486  40.738   3.219
87933W        W60248  26.526  11.074   4.286
87934W        W60249  17.741  31.730  10.672
87935W        W60250   1.255  17.184   2.358
87936W        W60251  25.075  11.612  14.961
87937W        W60252   4.228  29.357  10.036
87938W        W60253  12.847  25.189  10.830
87939W        W60254  28.149  11.370   3.269
87940W        W60255  26.270  42.899   4.529
87941W        W60256  41.446   4.924  12.963
87942W        W60257   7.516   1.913   2.157
87943W        W60258  11.708  13.389  14.403
87944W        W60259  16.775  41.062  12.095
87945W        W60260  15.078   6.868   3.340
87946W        W60261   7.863   1.649  10.618
87947W        W60262  34.512  41.264  10.684
87948W        W60263  36.067  36.965   0.489
87949W        W60264  18.814  28.949   4.154
87950W        W60265  43.508  37.960   2.115
87951W        W60266  34.236  23.280  12.541
87952W        W60267  25.047   8.079   4.559
87953W        W60268  32.268   8.444  13.567
87954W        W60269  37.593  13.888  10.700
87955W        W60270  28.123  34.048  13.177
87956W        W60271  18.380  31.716   5.047
87957W        W60272   9.306  42.347   3.110
87958W        W60273  12.856  37.316   5.157
87959W        W60274  32.208   0.812   1.689
87960W        W60275  22.185  14.286  12.000
87961W        W60276  16.190   3.735   3.081
87962W        W60277  23.128  23.213  12.434
87963W        W60278  40.517  44.749   4.657
87964W        W60279  30.775  33.138   4.195
87965W        W60280  10.466   8.193  13.899
87966W        W60281  22.205   9.897  12.741
87967W        W60282  20.117  43.477  13.968
87968W        W60283  17.180  23.983   1.241
87969W        W60284  15.672  10.134   3.994
87970W        W60285   5.934  18.620   2.767
87971W        W60286  32.278   4.925   2.478
87972W        W60287  43.056  31.446  12.081
87973W        W60288  13.902   0.901  13.597
87974W        W60289  11.773  33.170   4.599
87975W        W60290  39.824  33.565  13.413
87976W        W60291  13.809   3.009   1.788
87977W        W60292  33.252  36.653   1.176
87978W        W60293   6.673  17.311  10.690
87979W        W60294  29.441  11.126  12.000
87980W        W60295  36.477  33.026   3.421
87981W        W60296  38.925  28.112   2.523
87982W        W60297  11.718  20.278  12.285
87983W        W60298   3.487  27.777   0.556
87984W        W60299   3.223  10.770   0.440
87985W        W60300  15.152  21.954  14.560
87986W        W60301  22.942   4.012  10.891
87987W        W60302  38.421  23.731  12.427
87988W        W60303  30.036  38.834  12.523
87989W        W60304  40.158  18.251  13.301
87990W        W60305   4.217  26.428  14.328
87991W        W60306  26.435   0.768   5.158
87992W        W60307  42.076  39.969   1.246
87993W        W60308  33.805  44.405  12.826
87994W        W60309  35.239  31.635   4.018
87995W        W60310  41.940  33.462  10.713
87996W        W60311  31.356   4.272   1.152
87997W        W60312  34.831  43.808   1.961
87998W        W60313   6.381  38.266  11.271
87999W        W60314  38.285  38.225  11.435
88000W        W60315  14.638  15.846  12.577
88001W        W60316  11.090  33.650   4.270
88002W        W60317   7.670   5.848   0.866
88003W        W60318   6.378  39.474  12.571
88004W        W60319  19.573  10.574   4.669
88005W        W60320  31.148   2.906   2.153
88006W        W60321  33.481   5.158  13.123
88007W        W60322   8.843  10.752  14.923
88008W        W60323   8.429   0.728   0.817
88009W        W60324  15.234   8.135   0.375
88010W        W60325  43.930  41.848   3.176
88011W        W60326  25.015  25.885  10.736
88012W        W60327  12.567   1.896  12.870
88013W        W60328  20.118  13.387   2.848
88014W        W60329  42.065  21.005  11.935
88015W        W60330   1.186  44.899  12.599
88016W        W60331  30.562   1.761  10.890
88017W        W60332  11.128   2.662   2.294
88018W        W60333  37.183  37.328   4.037
88019W        W60334  12.725  14.242  12.884
88020W        W60335   3.452  11.096   4.945
88021W        W60336   7.638  19.781   4.336
88022W        W60337  42.255  25.975  11.924
88023W        W60338   1.537  31.878  12.610
88024W        W60339  44.019   5.670   2.735
88025W        W60340   5.135   4.946  10.708
88026W        W60341  41.799  13.394   3.211
88027W        W60342  11.796  32.449   2.540
88028W        W60343  41.060  10.743   3.699
88029W        W60344  16.600  43.382   3.859
88030W        W60345   5.255  33.346  13.881
88031W        W60346   5.852  31.841   0.311
88032W        W60347  24.845  12.043  13.879
88033W        W60348  43.853  32.642   2.304
88034W        W60349   5.598  39.144   1.065
88035W        W60350  32.601  11.716  10.385
88036W        W60351  42.624  24.835  12.659
88037W        W60352  38.528  15.811   3.806
88038W        W60353  22.074   5.824   3.675
88039W        W60354  30.531  30.379   0.214
88040W        W60355  35.161  31.597  11.995
88041W        W60356   8.232  42.704  11.192
88042W        W60357   4.688  33.267   1.683
88043W        W60358   2.104  32.502   0.738
88044W        W60359  34.602  32.173   3.155
88045W        W60360  14.132  39.555   3.176
88046W        W60361   1.046  15.747  12.105
88047W        W60362  27.568  27.572  11.643
88048W        W60363  33.153  11.852   0.684
88049W        W60364  14.618  35.879  12.387
88050W        W60365  30.974  20.559   0.019
88051W        W60366  29.514  28.784   4.975
88052W        W60367   1.792  39.946   2.499
88053W        W60368  18.357  32.219  13.303
88054W        W60369  38.451  29.510  11.117
88055W        W60370   5.681  31.995   9.846
88056W        W60371  13.269  28.463  13.817
88057W        W60372   4.331  21.683   3.176
88058W        W60373   5.406  37.761   2.458
88059W        W60374  32.075  23.186  13.366
88060W        W60375   6.394  43.000   4.758
88061W        W60376  40.061  21.773   1.240
88062W        W60377  20.574   9.240   9.683
88063W        W60378  24.929   1.223  12.889
88064W        W60379  12.106  11.199   1.990
88065W        W60380  29.655  41.957   1.711
88066W        W60381  11.837  26.374   4.598
88067W        W60382  44.022  37.869   2.409
88068W        W60383  39.911   1.081   4.100
88069W        W60384   5.633  34.989  14.924
88070W        W60385  34.395  44.853  14.055
88071W        W60386  27.320  31.053   4.550
88072W        W60387  23.142  36.092  13.979
88073W        W60388  27.771  21.026   1.295
88074W        W60389   4.805  15.783   4.315
88075W        W60390  22.155  32.582  12.525
88076W        W60391  42.938  11.778  14.019
88077W        W60392  25.284  24.610   1.802
88078W        W60393  40.930  10.756   2.783
88079W        W60394  13.665  17.733   2.235
88080W        W60395   3.905   3.433  11.587
88081W        W60396  18.960   3.688   3.214
88082W        W60397   5.403  30.176   3.996
88083W        W60398   0.573  35.113  14.532
88084W        W60399  14.791  35.773  10.498
88085W        W60400   7.940  33.357   1.263
88086W        W60401  43.096   3.244   3.238
88087W        W60402  27.019  37.544  10.683
88088W        W60403  21.065  14.675   1.765
88089W        W60404   8.306   4.468   0.669
88090W        W60405   1.008  14.409   3.220
88091W        W60406   9.113  34.577  10.067
88092W        W60407  23.113  39.860   3.610
88093W        W60408  22.037  29.071   3.789
88094W        W60409  25.920  24.498  11.621
88095W        W60410  13.640   1.323   2.327
88096W        W60411  17.327  29.399   3.273
88097W        W60412  29.626  43.993  12.064
88098W        W60413  13.817  36.141   1.193
88099W        W60414  36.539  13.531  13.497
88100W        W60415  35.459  32.399  12.404
88101W        W60416  22.730  19.557  13.749
88102W        W60417  20.469   6.938  12.585
88103W        W60418  30.974  39.584  11.097
88104W        W60419  40.559  11.649   3.686
88105W        W60420  34.955  34.875  13.878
88106W        W60421  40.325   8.232   2.806
88107W        W60422   1.002   3.384  12.934
88108W        W60423   8.557  43.708   1.446
88109W        W60424   0.384  19.996  11.983
88110W        W60425  34.445  36.885  11.567
88111W        W60426  28.680  28.122  12.649
88112W        W60427  14.702   1.270  11.910
88113W        W60428  11.088  16.753  14.155
88114W        W60429  44.017  20.054  14.133
88115W        W60430  14.278  27.457  12.168
88116W        W60431  27.000  24.584  14.007
88117W        W60432  44.130  12.108  13.216
88118W        W60433  18.241  41.771  12.495
88119W        W60434  32.496  29.576   3.758
88120W        W60435  37.089  25.896   4.473
88121W        W60436  25.594   2.125   4.255
88122W        W60437  24.685   7.553  14.729
88123W        W60438  19.485  38.881   4.937
88124W        W60439   5.847  14.518  11.991
88125W        W60440  34.770   0.188  11.061
88126W        W60441   3.351  22.684  11.905
88127W        W60442  32.149   8.209   1.896
88128W        W60443  38.880  42.056  13.075
88129W        W60444  26.602   1.946   0.219
88130W        W60445  16.740   7.918   2.379
88131W        W60446  36.446  11.849   1.840
88132W        W60447   9.152   0.226  14.323
88133W        W60448  25.693  16.920   1.593
88134W        W60449  29.616  31.408   4.713
88135W        W60450  24.396  17.203   3.832
88136W        W60451  23.931  19.965   2.639
88137W        W60452  28.586  20.386   2.429
88138W        W60453  31.253  33.683  11.052
88139W        W60454  40.616  16.771  11.095
88140W        W60455  31.653  38.258   1.491
88141W        W60456  18.999  20.262  10.276
88142W        W60457  12.609  15.217   4.252
88143W        W60458   9.781  30.402   2.975
88144W        W60459   6.308   5.491  12.466
88145W        W60460  31.059   1.230  13.529
88146W        W60461  38.302  12.440   0.130
88147W        W60462   7.194  29.666   1.876
88148W        W60463   3.506  31.276   1.834
88149W        W60464  40.449  14.284  12.787
88150W        W60465  44.552  14.271   4.087
88151W        W60466  20.997  26.971   1.280
88152W        W60467  12.684   3.393  12.684
88153W        W60468  13.755   9.834  14.843
88154W        W60469   0.699  31.392  14.277
88155W        W60470  44.196  19.637  13.871
88156W        W60471   3.590  22.252  12.926
88157W        W60472   7.819  35.630  13.175
88158W        W60473  29.032  21.598  13.219
88159W        W60474  36.407  11.180  13.998
88160W        W60475  35.891   9.167  11.223
88161W        W60476  10.057  26.014  11.976
88162W        W60477  38.095  14.697  13.928
88163W        W60478  43.481  28.001  11.223
88164W        W60479  25.385  34.494   4.113
88165W        W60480   8.058   5.664  13.454
88166W        W60481   6.719  32.104   3.288
88167W        W60482  24.662  32.872   2.769
88168W        W60483  12.130  28.028  11.412
88169W        W60484  37.080  11.119   2.798
88170W        W60485  29.344   5.967   5.109
88171W        W60486  31.854  30.083  11.977
88172W        W60487   3.965   0.741  11.166
88173W        W60488  15.203   5.680   4.673
88174W        W60489  30.187  26.142   0.168
88175W        W60490  12.826  35.959  11.942
88176W        W60491  32.856  21.024  11.586
88177W        W60492  17.319  12.105   4.015
88178W        W60493  41.388   0.708  11.150
88179W        W60494   7.859  16.305   4.209
88180W        W60495   9.822  24.560   1.296
88181W        W60496  31.958  31.467  12.153
88182W        W60497   1.248   4.836  10.677
88183W        W60498  39.524  29.639  14.856
88184W        W60499  12.656  14.181   1.585
88185W        W60500  30.281  23.077   4.747
88186W        W60501  17.498  29.505   1.900
88187W        W60502  26.763  25.554   4.211
88188W        W60503   4.681  10.873   4.479
88189W        W60504   7.356  27.041  11.319
88190W        W60505  19.785  43.446   1.470
88191W        W60506  31.977  27.071  13.179
88192W        W60507  10.334  17.594   3.714
88193W        W60508  36.320  31.943   1.287
88194W        W60509   8.287  42.169  13.804
88195W        W60510  38.501  25.004   4.902
88196W        W60511  13.830  22.124   4.384
88197W        W60512  37.388  37.315  10.658
88198W        W60513  42.787  13.792  13.534
88199W        W60514  23.605  18.607   9.792
88200W        W60515  17.248  14.403   2.326
88201W        W60516  10.754  37.531  11.665
88202W        W60517  27.200   1.855  10.601
88203W        W60518  24.458  38.742  14.790
88204W        W60519  11.253  15.122   3.153
88205W        W60520  41.775  30.106   3.193
88206W        W60521  12.374  25.000   3.715
88207W        W60522  34.509  25.240   4.399
88208W        W60523   1.406  19.808   2.394
88209W        W60524  38.452  34.326   0.839
88210W        W60525   1.143  33.192   1.960
88211W        W60526  36.096  22.806   1.817
88212W        W60527  10.806  32.403  14.934
88213W        W60528   0.383   7.706   1.866
88214W        W60529   2.031   3.502   3.261
88215W        W60530  24.533  11.492   3.636
88216W        W60531  35.590  16.981  11.095
88217W        W60532  37.866  30.499  13.804
88218W        W60533  24.141  35.983  12.111
88219W        W60534  16.152  10.157   2.308
88220W        W60535   7.234  16.267   3.067
88221W        W60536  29.614  29.919   1.309
88222W        W60537   9.678   0.619   1.691
88223W        W60538  21.629  38.286   4.293
88224W        W60539  14.086   4.317   2.238
88225W        W60540  39.167   4.891  13.527
88226W        W60541  18.154  21.467   0.307
88227W        W60542  40.871  33.932  11.160
88228W        W60543  35.676  39.426   1.173
88229W        W60544  29.502  40.077  10.530
88230W        W60545  38.377  22.682   0.359
88231W        W60546  12.792  10.231   2.736
88232W        W60547  40.899   0.834   0.722
88233W        W60548  22.122  31.182  10.836
88234W        W60549  30.147  15.261   4.161
88235W        W60550   4.866  42.009   1.511
88236W        W60551  27.638  18.726   3.273
88237W        W60552   9.247  33.520   0.888
88238W        W60553  14.195   0.746  14.015
88239W        W60554  30.052  38.335   1.337
88240W        W60555  32.560  37.010  10.697
88241W        W60556  12.652  36.661   0.661
88242W        W60557  35.149  15.778   2.276
88243W        W60558  44.372  35.144  11.182
88244W        W60559   8.328  41.084  14.804
88245W        W60560  14.899   9.654  14.445
88246W        W60561  19.843  33.705   1.757
88247W        W60562  43.257   2.706   3.850
88248W        W60563  33.492   9.629  14.947
88249W        W60564  22.822  38.100   2.428
88250W        W60565  25.571  39.242   1.136
88251W        W60566  41.394  34.559  12.046
88252W        W60567  22.146  29.722   3.005
88253W        W60568   8.324  12.597  11.073
88254W        W60569  33.518  23.034   0.918
88255W        W60570  32.187  28.012   4.153
88256W        W60571   0.520  31.346   2.675
88257W        W60572   8.258  41.360   4.604
88258W        W60573  28.450  25.605  14.243
88259W        W60574  17.098  31.853   2.585
88260W        W60575   6.895  42.887  12.427
88261W        W60576  26.162  38.724  14.106
88262W        W60577  14.268  38.778   0.718
88263W        W60578   1.929   7.259   1.690
88264W        W60579  28.008  17.161   4.467
88265W        W60580  35.616  43.437   1.847
88266W        W60581  44.624  39.553   2.449
88267W        W60582  20.156   4.420  10.700
88268W        W60583  18.037  35.470   1.519
88269W        W60584  25.254   6.038  13.468
88270W        W60585   6.890  41.429  12.371
88271W        W60586  10.799  21.848  12.888
88272W        W60587  24.655  39.793  14.740
88273W        W60588  27.099  26.191   4.258
88274W        W60589  26.100  29.030  10.754
88275W        W60590   8.223  35.537  10.643
88276W        W60591  41.931  23.474   0.724
88277W        W60592  13.010   3.766   4.202
88278W        W60593  23.615  25.582   0.245
88279W        W60594  42.619  28.194   2.754
88280W        W60595  16.167   1.144   4.835
88281W        W60596  36.786  17.095   1.481
88282W        W60597  42.338  35.916   2.372
88283W        W60598  19.432  40.467  12.650
88284W        W60599  31.634  37.340  12.456
88285W        W60600  33.101  24.431   1.332
88286W        W60601  34.922  21.601   0.403
88287W        W60602  16.801  26.240  10.510
88288W        W60603  22.603  18.216   4.331
88289W        W60604  37.808  33.727   0.997
88290W        W60605  12.188  29.048  11.450
88291W        W60606  18.333  22.249  11.066
88292W        W60607   9.902   1.922  13.541
88293W        W60608   5.386  31.355  12.908
88294W        W60609  11.796  13.639   1.898
88295W        W60610  20.097  28.250   2.137
88296W        W60611  29.956   4.819  14.695
88297W        W60612  13.596  22.454  10.717
88298W        W60613  23.175  18.098   0.726
88299W        W60614  27.021  37.224   3.583
88300W        W60615   5.970  39.787  12.409
88301W        W60616  43.778  35.356   3.036
88302W        W60617  38.054   7.570   4.926
88303W        W60618   2.560  15.199  14.563
88304W        W60619   1.498   1.564   0.846
88305W        W60620  16.792  12.224  13.347
88306W        W60621  10.367  28.105   1.824
88307W        W60622   6.273  10.099  14.360
88308W        W60623  10.218   6.319  11.548
88309W        W60624   9.300   2.271   4.565
88310W        W60625  42.804  18.714   1.650
88311W        W60626  11.442  42.778  13.919
88312W        W60627  17.786   7.663  11.094
88313W        W60628  24.844   0.463   2.825
88314W        W60629   0.718  12.113  13.458
88315W        W60630  37.903   2.187  12.054
88316W        W60631  26.512  20.044   0.237
88317W        W60632  32.324  35.773  11.177
88318W        W60633  32.531  14.459   0.429
88319W        W60634   7.040  14.178  14.467
88320W        W60635  24.423  41.976   3.421
88321W        W60636  42.790  40.328   0.933
88322W        W60637  24.583  35.712  14.721
88323W        W60638  25.570  16.600  11.586
88324W        W60639   1.134   4.949   4.194
88325W        W60640  30.328   0.213   3.693
88326W        W60641  18.963  36.626  11.028
88327W        W60642  32.810  42.648  12.599
88328W        W60643  21.477  35.623   0.315
88329W        W60644  28.479  23.674  13.041
88330W        W60645   5.717  29.674  11.707
88331W        W60646  44.718  26.379   0.800
88332W        W60647  25.987  24.673  10.750
88333W        W60648  16.339   2.078  11.509
88334W        W60649   2.235  30.967   1.748
88335W        W60650   7.308   0.084   4.270
88336W        W60651  15.078   0.885   0.771
88337W        W60652  31.703  39.468  14.840
88338W        W60653  10.418  30.726  10.719
88339W        W60654   4.533  11.009  12.842
88340W        W60655  22.700  36.811  12.837
88341W        W60656  26.790  35.178  14.565
88342W        W60657  41.850  19.958  11.091
88343W        W60658  23.141  22.816  10.123
88344W        W60659  31.871  41.903   0.872
88345W        W60660  11.913  33.910   0.402
88346W        W60661   8.446   6.793  12.530
88347W        W60662  38.084  38.745   2.328
88348W        W60663  44.144  23.316   2.899
88349W        W60664  37.034  39.104   1.426
88350W        W60665  14.497  21.256  11.471
88351W        W60666  18.521  38.507   2.448
88352W        W60667  28.099  39.146  12.146
88353W        W60668   7.452   0.671  12.037
88354W        W60669  14.417  42.750  12.297
88355W        W60670  15.760  23.661   3.261
88356W        W60671  41.109  14.613   1.154
88357W        W60672  13.519   1.783  11.676
88358W        W60673  33.330  18.334   3.337
88359W        W60674  27.120  26.883  13.461
88360W        W60675  28.670   4.349   0.776
88361W        W60676   9.921  19.150  14.412
88362W        W60677  29.016  38.806   2.364
88363W        W60678   5.919  24.322  13.995
88364W        W60679   2.303  31.240  14.490
88365W        W60680   3.422  39.312  11.551
88366W        W60681  19.291   8.177  10.667
88367W        W60682  37.724  13.796   1.267
88368W        W60683  15.586  10.648   2.738
88369W        W60684  35.226   8.690   4.193
88370W        W60685   7.730  16.603   1.689
88371W        W60686   9.098  16.135   0.239
88372W        W60687  27.055  43.697   3.578
88373W        W60688  37.015   1.849  11.529
88374W        W60689   9.973   0.689  11.316
88375W        W60690  19.609  39.176   0.146
88376W        W60691  34.733  22.057   3.855
88377W        W60692  36.520  20.546  10.715
88378W        W60693  42.466  34.365   0.706
88379W        W60694  21.038  22.031  13.483
88380W        W60695  37.022  29.674  13.464
88381W        W60696  12.227  38.157  12.509
88382W        W60697  10.678  13.307  12.888
88383W        W60698  21.477   0.708   1.512
88384W        W60699   2.277  36.353   1.838
88385W        W60700  26.466  11.229   3.818
88386W        W60701   8.967  31.096   5.144
88387W        W60702  19.473  30.247  13.550
88388W        W60703  18.862   8.639   5.039
88389W        W60704  26.092  14.157   1.257
88390W        W60705  27.188   8.991   0.077
88391W        W60706  37.411  24.135   4.070
88392W        W60707  20.090  20.997   4.162
88393W        W60708  26.273  38.917   3.269
88394W        W60709  28.531   2.206  11.498
88395W        W60710  26.747   4.296   9.733
88396W        W60711  35.493  12.194   3.820
88397W        W60712  30.909  40.932   3.845
88398W        W60713   9.895   2.966  13.081
88399W        W60714  33.473  31.445  13.460
88400W        W60715  36.475   7.276   5.259
88401W        W60716  43.016   8.293  11.528
88402W        W60717  44.207  41.083   2.854
88403W        W60718  21.555  19.453   2.084
88404W        W60719  26.237  29.260   4.126
88405W        W60720  43.537  20.924  12.219
88406W        W60721  27.850  20.975   0.319
88407W        W60722  32.895  39.091   1.338
88408W        W60723  18.300  43.437  10.782
88409W        W60724  22.165  39.936   3.713
88410W        W60725  20.895   6.783   2.636
88411W        W60726  23.513   3.833   1.570
88412W        W60727  21.981  41.506  14.799
88413W        W60728   6.604  20.523   1.541
88414W        W60729   4.378  42.906   2.391
88415W        W60730  38.941  40.972  13.304
88416W        W60731   5.321  24.720   1.966
88417W        W60732  29.995  12.184   0.464
88418W        W60733  32.188   1.903   2.666
88419W        W60734  29.553  40.740  12.391
88420W        W60735  10.590  40.765  12.943
88421W        W60736   7.240   6.121   4.240
88422W        W60737  10.270  21.005  10.576
88423W        W60738  16.126  25.738   4.536
88424W        W60739  35.846  36.918   2.965
88425W        W60740  12.766  42.420   0.174
88426W        W60741  11.598  30.914   3.342
88427W        W60742  36.532   0.375  13.911
88428W        W60743  13.857   7.692  13.840
88429W        W60744  17.621  21.814   5.006
88430W        W60745  32.395   7.374   4.554
88431W        W60746   4.977  22.579  11.145
88432W        W60747  35.368  43.458  10.795
88433W        W60748   4.815  19.499  11.452
88434W        W60749  31.968  22.726  12.481
88435W        W60750  15.760  21.563   0.432
88436W        W60751  38.979  21.158   9.913
88437W        W60752  32.164  26.278   0.941
88438W        W60753  27.034  38.785   1.096
88439W        W60754  39.177   0.837  11.714
88440W        W60755  19.262   5.815  13.700
88441W        W60756   3.669  20.003   1.151
88442W        W60757  18.758  26.502   1.633
88443W        W60758  16.156  25.679   2.782
88444W        W60759   5.735  13.774  14.303
88445W        W60760  23.925  21.501  14.722
88446W        W60761  39.010  18.508   4.099
88447W        W60762  19.071  37.417   0.289
88448W        W60763  43.836  33.365  10.526
88449W        W60764   2.930  15.863   2.211
88450W        W60765  14.276  36.083  11.139
88451W        W60766  40.859  11.500   2.068
88452W        W60767  41.791  29.503  11.540
88453W        W60768   8.010  41.566   0.761
88454W        W60769  39.474  28.459   1.868
88455W        W60770   1.874  35.320  12.239
88456W        W60771  27.973  16.754   1.285
88457W        W60772  11.137   4.473  12.590
88458W        W60773   6.294  19.044   2.167
88459W        W60774  26.258  14.132  12.069
88460W        W60775   6.835  21.598  12.598
88461W        W60776   9.134  14.760  12.058
88462W        W60777   0.656  26.513   1.814
88463W        W60778   2.467  39.381   0.043
88464W        W60779  19.139  39.875   3.755
88465W        W60780  33.612  40.837   1.302
88466W        W60781   5.928  14.613  14.776
88467W        W60782  12.260  26.038  10.568
88468W        W60783  13.151  38.906   0.722
88469W        W60784  26.518  18.810  13.918
88470W        W60785  17.966  21.508   4.740
88471W        W60786   5.278  17.357  12.566
88472W        W60787  24.501  18.903  13.773
88473W        W60788   1.465  41.303   4.441
88474W        W60789  31.551  10.406  11.593
88475W        W60790  22.763   8.833   2.431
88476W        W60791  39.317  33.362  12.092
88477W        W60792  35.906   3.997   3.332
88478W        W60793  27.791  10.269   2.877
88479W        W60794   8.476  15.822  12.101
88480W        W60795  32.141  39.802  14.654
88481W        W60796  18.086  33.382  11.123
88482W        W60797  16.575  11.789  14.944
88483W        W60798  30.476  40.401   4.534
88484W        W60799   7.351   7.425  13.554
88485W        W60800  24.719   0.276   0.174
88486W        W60801  22.549  22.292   2.393
88487W        W60802   6.403  11.378  10.782
88488W        W60803  35.608   7.788   0.500
88489W        W60804  13.892  31.363  10.712
88490W        W60805  24.731   7.359   3.566
88491W        W60806  29.227  41.694  10.621
88492W        W60807   8.275   9.207   4.437
88493W        W60808  10.113  44.411   3.237
88494W        W60809  23.704  15.887   4.154
88495W        W60810  27.167  13.158   3.372
88496W        W60811  41.333  34.376   1.869
88497W        W60812  43.423   5.213   4.120
88498W        W60813  14.073  26.173  13.430
88499W        W60814  16.060  42.195   1.707
88500W        W60815  39.258   2.482  13.352
88501W        W60816  29.045  41.477  12.371
88502W        W60817  39.352  39.007   4.183
88503W        W60818   9.413   5.324   3.176
88504W        W60819   8.712   2.696  14.972
88505W        W60820  31.593  43.964  13.025
88506W        W60821  22.713  44.296  13.957
88507W        W60822  42.748  35.806  13.995
88508W        W60823  16.087   9.258   3.765
88509W        W60824  32.308  35.421   1.864
88510W        W60825  26.919  28.597   1.236
88511W        W60826  27.761  42.843  14.291
88512W        W60827  15.285  43.806  12.809
88513W        W60828  23.745  31.507  12.120
88514W        W60829  41.073  34.908   0.481
88515W        W60830  22.950  13.809  12.121
88516W        W60831  26.238  34.286   4.489
88517W        W60832  20.553  22.534  11.693
88518W        W60833  43.595  18.261  12.082
88519W        W60834  15.058  16.262   1.303
88520W        W60835  32.013   9.308   2.735
88521W        W60836  39.399   3.301  12.377
88522W        W60837  28.175   5.770   3.332
88523W        W60838   5.263  29.703   2.882
88524W        W60839   8.808  24.082  13.483
88525W        W60840   8.998  15.800  10.637
88526W        W60841  16.330   9.587  12.997
88527W        W60842  22.530   3.382  13.542
88528W        W60843  26.070  37.009  13.936
88529W        W60844  37.902  14.696  11.850
88530W        W60845  30.122  43.849   1.880
88531W        W60846   8.784   0.009  12.399
88532W        W60847  38.289   4.947  10.037
88533W        W60848  33.045  21.556  13.042
88534W        W60849  33.997  14.690  12.840
88535W        W60850  31.334  34.620   0.291
88536W        W60851  41.392  26.320  11.742
88537W        W60852  29.514  37.083   0.179
88538W        W60853   5.284  39.069   3.669
88539W        W60854  26.645  22.123  13.764
88540W        W60855   4.938   4.012  10.791
88541W        W60856  11.747   9.898  12.906
88542W        W60857  20.213  36.416   4.722
88543W        W60858  20.294  20.628   1.634
88544W        W60859  39.618   2.742   4.153
88545W        W60860  41.468   6.904  10.697
88546W        W60861   2.200  19.978   1.808
88547W        W60862  16.065   8.333  14.953
88548W        W60863  26.736   8.462   1.400
88549W        W60864  16.653  32.094  12.146
88550W        W60865  24.627  18.567   1.726
88551W        W60866  13.616  25.722   4.683
88552W        W60867  10.341  29.935   3.609
88553W        W60868  27.277  42.887   2.260
88554W        W60869  18.221  32.622   3.383
88555W        W60870   9.627   3.815   4.493
88556W        W60871  38.413   8.164   1.408
88557W        W60872   7.322  18.539   4.102
88558W        W60873   9.525  20.845  14.877
88559W        W60874  22.128  26.933  10.535
88560W        W60875  14.754  28.625   1.655
88561W        W60876  18.748   2.368   1.215
88562W        W60877  43.984  11.224   2.882
88563W        W60878  26.706  44.004   4.451
88564W        W60879   7.396  24.973  10.781
88565W        W60880  40.430  14.183   1.220
88566W        W60881   2.836  33.511  12.667
88567W        W60882  19.770  29.021  14.830
88568W        W60883  37.812  27.174  13.463
88569W        W60884   1.258   1.935  11.980
88570W        W60885  14.859  41.887   2.317
88571W        W60886   0.322  10.392  11.082
88572W        W60887  11.875  31.205   1.887
88573W        W60888  28.151   1.564   1.437
88574W        W60889  40.496   8.477  11.704
88575W        W60890  26.520  22.228   4.323
88576W        W60891  22.275  43.260  11.160
88577W        W60892  16.530  29.641   3.563
88578W        W60893   6.781   1.363  14.487
88579W        W60894   2.836   2.421   3.135
88580W        W60895  24.836  11.661   5.084
88581W        W60896  12.120  17.605   2.847
88582W        W60897  40.739  42.865   2.819
88583W        W60898  30.990  26.290   0.464
88584W        W60899  19.684  42.175   3.429
88585W        W60900  19.589  41.755  11.875
88586W        W60901  23.253  31.156  13.669
88587W        W60902  10.709  18.499   0.968
88588W        W60903  16.488  27.005   1.311
88589W        W60904  29.900   0.367  10.795
88590W        W60905  25.222  15.943   1.252
88591W        W60906  21.700  11.452   0.308
88592W        W60907  22.965  10.450  11.027
88593W        W60908  24.295  19.274  10.639
88594W        W60909  37.103  33.161  12.060
88595W        W60910  25.051  35.860  14.552
88596W        W60911  39.637   3.905   3.676
88597W        W60912  11.252   8.245   2.229
88598W        W60913  42.814  35.730  14.773
88599W        W60914  11.735   5.239  13.528
88600W        W60915  36.594  36.173   4.528
88601W        W60916  34.016  12.279   0.459
88602W        W60917  20.775  39.526   3.626
88603W        W60918  13.523  28.970  10.778
88604W        W60919  28.098  19.167  13.492
88605W        W60920  29.718  17.719  14.829
88606W        W60921  18.759  33.308  14.302
88607W        W60922  11.113  35.642   1.684
88608W        W60923  16.328  23.843  14.216
88609W        W60924  32.834  38.888   4.169
88610W        W60925  23.664  41.290   3.872
88611W        W60926   7.612   7.339   3.164
88612W        W60927  44.853  15.736   2.836
88613W        W60928  23.548  41.777  12.524
88614W        W60929  39.387  28.051   0.420
88615W        W60930  43.746  41.263   0.867
88616W        W60931  32.500  30.850  12.630
88617W        W60932  19.024  15.621  11.074
88618W        W60933   0.535  43.944  14.776
88619W        W60934  20.033  21.858   2.870
88620W        W60935   9.653  12.207  12.716
88621W        W60936   6.637  44.289   0.866
88622W        W60937  24.734  31.044  11.541
88623W        W60938  14.776  22.098   4.178
88624W        W60939  15.657  34.388   4.890
88625W        W60940  43.456  37.939   4.552
88626W        W60941  19.714  14.050  14.328
88627W        W60942   1.810   4.715   2.793
88628W        W60943   9.745  16.509   3.754
88629W        W60944  11.405  25.627   2.341
88630W        W60945  24.977  21.005   2.347
88631W        W60946  26.863  23.024   1.867
88632W        W60947   7.192  42.877   1.658
88633W        W60948  41.419  43.518  11.440
88634W        W60949  34.572  25.975   2.418
88635W        W60950   4.213   8.780   1.855
88636W        W60951  14.669  39.536  14.005
88637W        W60952   0.962  30.490   5.096
88638W        W60953  24.633  42.535   0.005
88639W        W60954  36.649  17.978  12.855
88640W        W60955  38.393  18.011  11.248
88641W        W60956  13.036  16.120   4.512
88642W        W60957   9.505  42.813  13.477
88643W        W60958  36.495  36.805  12.943
88644W        W60959  35.044   0.471   3.202
88645W        W60960   4.375   7.164   0.425
88646W        W60961  33.027  11.428  12.891
88647W        W60962  39.899  22.324  12.463
88648W        W60963  40.782  42.545  13.351
88649W        W60964  19.976  26.095   2.912
88650W        W60965   8.789  37.958  11.182
88651W        W60966   9.588  37.473  12.253
88652W        W60967  37.875  39.967  14.969
88653W        W60968  39.855  15.529  12.902
88654W        W60969  28.319  30.663  13.332
88655W        W60970  11.914   8.243   4.366
88656W        W60971  42.990  44.936  13.919
88657W        W60972  39.083  36.658  13.921
88658W        W60973  37.504  15.358   0.882
88659W        W60974  13.726   6.243  13.462
88660W        W60975  35.141  34.987  14.783
88661W        W60976  39.112  19.188  11.724
88662W        W60977  41.870  11.176  12.308
88663W        W60978   5.353  40.899   2.741
88664W        W60979  12.489  11.786   4.825
88665W        W60980  36.803   3.701   3.205
88666W        W60981  43.767  44.588   2.875
88667W        W60982  37.081  21.314   3.320
88668W        W60983  27.996   3.367  14.932
88669W        W60984  30.839  29.504  11.558
88670W        W60985  21.591   3.778   0.520
88671W        W60986  40.378  34.036  11.015
88672W        W60987  23.532  21.389   1.363
88673W        W60988   7.130  44.286  12.145
88674W        W60989  43.799   5.184  11.911
88675W        W60990  18.022  32.623   1.156
88676W        W60991  18.387  24.538  13.061
88677W        W60992  19.673  10.923   0.914
88678W        W60993  40.492   2.680  11.564
88679W        W60994  31.600   4.208   1.614
88680W        W60995  36.066  13.202  12.486
88681W        W60996  17.264  43.931   4.845
88682W        W60997  27.191  18.351  12.955
88683W        W60998  40.522  10.674   1.475
88684W        W60999  38.751   5.872   2.383
88685W        W61000  42.775  18.250   3.203
88686W        W61001  14.049  10.931   0.863
88687W        W61002  12.650  37.305   2.891
88688W        W61003  19.903  34.372   3.696
88689W        W61004  33.572  41.523  12.536
88690W        W61005  44.408  15.911  11.660
88691W        W61006  20.961  34.675   4.420
88692W        W61007  42.555   5.168   1.821
88693W        W61008  39.546  20.179  12.948
88694W        W61009  27.458  27.849  12.980
88695W        W61010  18.027  36.768  11.363
88696W        W61011  12.282  24.150   2.804
88697W        W61012  44.544  28.001   5.140
88698W        W61013   6.668  31.230   4.918
88699W        W61014   0.908   4.846  14.925
88700W        W61015  22.476  24.661  11.198
88701W        W61016   1.767   9.770   1.668
88702W        W61017  13.815  24.777  12.038
88703W        W61018   1.335  10.770   1.761
88704W        W61019  22.754  17.781   0.810
88705W        W61020  19.370  40.366   0.360
88706W        W61021  41.990  11.705   1.243
88707W        W61022  13.753   2.715  11.987
88708W        W61023  40.710   5.689  14.550
88709W        W61024   2.276   1.400  13.557
88710W        W61025  10.338  30.198   4.580
88711W        W61026  38.555  10.136   0.357
88712W        W61027  37.915  28.263   1.977
88713W        W61028  36.342   4.164  11.140
88714W        W61029  41.991  10.721   0.787
88715W        W61030  32.127  30.897  13.441
88716W        W61031  22.845  22.480  14.785
88717W        W61032  10.373  22.593  12.231
88718W        W61033   4.183  21.162  11.715
88719W        W61034  37.391  20.080  10.872
88720W        W61035   1.476   4.630   4.442
88721W        W61036  29.174  13.421   1.286
88722W        W61037   1.545   8.631   0.464
88723W        W61038  29.812  26.828   2.280
88724W        W61039  36.585  34.954  12.898
88725W        W61040   8.365   1.783  11.486
88726W        W61041  16.941  44.444  12.915
88727W        W61042  33.370  31.348   3.950
88728W        W61043   4.203  14.332   2.414
88729W        W61044  13.684  38.302  12.349
88730W        W61045  19.388  43.714   0.705
88731W        W61046  23.305  34.554  12.053
88732W        W61047  19.646  34.093  13.854
88733W        W61048  18.120  22.399   4.951
88734W        W61049  23.485  25.136  10.682
88735W        W61050  27.689  19.548   3.160
88736W        W61051  13.184  37.510  14.063
88737W        W61052  42.401   0.927   4.478
88738W        W61053   2.871  19.288   0.826
88739W        W61054  43.102  11.372  12.768
88740W        W61055   6.727   9.221   0.107
88741W        W61056  20.511   2.587  14.331
88742W        W61057  20.763  38.504   2.785
88743W        W61058   2.360  39.572   0.903
88744W        W61059  41.399   3.253  11.720
88745W        W61060  29.611  14.406   3.160
88746W        W61061  15.266   0.319   2.192
88747W        W61062  22.641   3.404   1.801
88748W        W61063  42.244   1.789   4.116
88749W        W61064  16.431   0.471   0.731
88750W        W61065  42.444   6.436   4.182
88751W        W61066  19.580  33.628   3.209
88752W        W61067   9.457  11.790  12.011
88753W        W61068  12.398  31.657  14.426
88754W        W61069  28.069  26.593  13.179
88755W        W61070  41.791  37.052  13.776
88756W        W61071  44.369  27.189   0.159
88757W        W61072  12.257  33.904  14.857
88758W        W61073  25.295  16.597  14.493
88759W        W61074  37.461  10.932  12.557
88760W        W61075  22.707   1.449  14.424
88761W        W61076  18.033  22.796  14.224
88762W        W61077  21.706   9.580  11.027
88763W        W61078  33.583  25.555   3.681
88764W        W61079   3.085  11.476  14.019
88765W        W61080  22.157   5.918  11.226
88766W        W61081  13.846   2.805   3.655
88767W        W61082  38.731  36.463   4.376
88768W        W61083   5.462   2.395   3.290
88769W        W61084  19.047  29.090  12.897
88770W        W61085  42.406  41.086   2.903
88771W        W61086  34.147   7.385   3.320
88772W        W61087  21.673  14.823   3.835
88773W        W61088  15.725  29.613   4.181
88774W        W61089  34.542  24.141   1.889
88775W        W61090  27.031  16.144   2.137
88776W        W61091   3.422  37.598  11.136
88777W        W61092  20.777  44.208  13.124
88778W        W61093  27.029  29.015   2.896
88779W        W61094   7.674  38.725  10.342
88780W        W61095  39.010  42.554  12.682
88781W        W61096   5.485  19.048  14.455
88782W        W61097  16.217  36.612  14.081
88783W        W61098  39.253  40.859  13.723
88784W        W61099  44.430   6.674   1.926
88785W        W61100   4.434  22.784   0.481
88786W        W61101   5.970  42.467  11.233
88787W        W61102  13.990  32.914   2.256
88788W        W61103  12.156   1.742   4.838
88789W        W61104  13.195  26.426   0.471
88790W        W61105  14.763  38.463  12.568
88791W        W61106   1.426  28.665  11.623
88792W        W61107  37.051  24.825  10.208
88793W        W61108  36.781  38.933  14.456
88794W        W61109  28.187  31.924  12.951
88795W        W61110  21.627  10.338   1.913
88796W        W61111  27.482  29.879   0.828
88797W        W61112   6.736  18.276  10.804
88798W        W61113  32.607  21.629   4.281
88799W        W61114  34.159  38.380   4.159
88800W        W61115   9.570  34.099  10.628
88801W        W61116  30.545  30.675   4.216
88802W        W61117  10.720  16.877   4.484
88803W        W61118   8.972   5.799  14.513
88804W        W61119  12.390  25.682   2.642
88805W        W61120   0.953  12.849   1.425
88806W        W61121   9.371  10.147   0.301
88807W        W61122  21.702  21.729  10.923
88808W        W61123  18.072   9.653  12.997
88809W        W61124  12.628  39.658  11.623
88810W        W61125  40.464  38.171  10.721
88811W        W61126  35.190  24.789   4.285
88812W        W61127  32.805  33.874  11.110
88813W        W61128  36.155  16.614   1.323
88814W        W61129  38.697  26.150   2.129
88815W        W61130  19.891  17.025   4.156
88816W        W61131   4.092  30.400  13.020
88817W        W61132  16.645  38.794   9.707
88818W        W61133  18.081   3.416   1.280
88819W        W61134  16.633  43.280  14.842
88820W        W61135  44.888   4.553   3.198
88821W        W61136  31.349  30.141  13.399
88822W        W61137  41.273  14.720  12.432
88823W        W61138  34.142  20.364  12.521
88824W        W61139  34.057  23.181  12.067
88825W        W61140  22.443   9.789  14.388
88826W        W61141  17.927  13.552   2.814
88827W        W61142  26.615  32.247  10.697
88828W        W61143   9.193  40.869   1.917
88829W        W61144  40.615   5.190  14.039
88830W        W61145  39.251   1.078  12.156
88831W        W61146  11.872   1.796  10.614
88832W        W61147  30.046  15.070   0.716
88833W        W61148  39.812  15.791   4.199
88834W        W61149  43.411  24.096  10.804
88835W        W61150   6.924  23.601  12.569
88836W        W61151  34.465  12.256   0.718
88837W        W61152   5.777   2.185   2.906
88838W        W61153  26.200  23.270   2.743
88839W        W61154  24.243  42.982  12.011
88840W        W61155  29.538  22.287  12.636
88841W        W61156  37.338  37.826  13.324
88842W        W61157  14.001  39.172  13.016
88843W        W61158  32.070  44.392   0.276
88844W        W61159  43.483  24.466   3.152
88845W        W61160  26.161  35.139  12.379
88846W        W61161   8.920  20.083  11.105
88847W        W61162   5.966  19.645   4.980
88848W        W61163   3.896  39.904  10.666
88849W        W61164  29.389  41.330   4.754
88850W        W61165  16.725  35.838   3.125
88851W        W61166  16.202  43.018   3.382
88852W        W61167   0.816  28.439  12.945
88853W        W61168  36.683  35.084  14.961
88854W        W61169  22.651  24.735  11.672
88855W        W61170   0.172  35.029   2.031
88856W        W61171  26.611  11.209   2.821
88857W        W61172  28.960   6.668   4.718
88858W        W61173  20.807  22.690  10.686
88859W        W61174  15.875  36.528  11.949
88860W        W61175  43.103  20.206   4.576
88861W        W61176  15.781   2.705  14.405
88862W        W61177  26.902  42.792  11.134
88863W        W61178  32.575  22.591  11.094
88864W        W61179  26.947  34.401   9.906
88865W        W61180  14.797  10.178  14.498
88866W        W61181  24.542  40.431  13.503
88867W        W61182  32.462  15.795   3.310
88868W        W61183  13.187  16.346  14.449
88869W        W61184  20.758  43.058  12.970
88870W        W61185  33.749  24.808   4.643
88871W        W61186  26.218   5.396   0.043
88872W        W61187   5.619  11.709   2.979
88873W        W61188   8.258  31.368  11.982
88874W        W61189  10.353  33.435  10.799
88875W        W61190   2.279   6.244  10.660
88876W        W61191  44.271  33.634  10.513
88877W        W61192  25.866   1.933   9.975
88878W        W61193  32.461   9.293   2.169
88879W        W61194  15.637   6.868   4.117
88880W        W61195  36.856  19.496   3.575
88881W        W61196  43.042  17.615  11.073
88882W        W61197  37.799  41.441   0.450
88883W        W61198  14.182  36.139  13.110
88884W        W61199   3.031  24.535  12.153
88885W        W61200  30.199  27.812  14.297
88886W        W61201  33.887  36.535   4.947
88887W        W61202  23.485  11.733   1.913
88888W        W61203  23.121   5.078  10.855
88889W        W61204  44.743  40.019  13.292
88890W        W61205   2.805   0.152  13.333
88891W        W61206   4.813  20.575  14.780
88892W        W61207  41.625  33.668   2.391
88893W        W61208   5.206  35.102   4.657
88894W        W61209  27.097  29.654  14.366
88895W        W61210  38.405   5.176  11.170
88896W        W61211  39.336  21.916  11.709
88897W        W61212  15.576  26.681   3.973
88898W        W61213  33.769  41.369   3.154
88899W        W61214  32.214  12.511  13.608
88900W        W61215  44.751  10.412   3.776
88901W        W61216  39.025  23.745  14.912
88902W        W61217  38.465  35.660  14.363
88903W        W61218  29.052  43.126   0.359
88904W        W61219  28.113  18.787   2.876
88905W        W61220  14.071  37.247   4.659
88906W        W61221   6.962  38.837  12.702
88907W        W61222  16.531   0.305  11.893
88908W        W61223  22.774  14.564  14.313
88909W        W61224  31.412  16.529  14.883
88910W        W61225  21.569  13.871  11.879
88911W        W61226   1.040  39.964  14.007
88912W        W61227  39.466  19.183   3.194
88913W        W61228   0.718  19.172  14.096
88914W        W61229   2.011  29.089  13.469
88915W        W61230  21.022  36.838   0.883
88916W        W61231  42.022  13.658  12.244
88917W        W61232  29.544  27.630  11.389
88918W        W61233  31.188  15.300  10.547
88919W        W61234  11.044  12.275   0.997
88920W        W61235  27.650  14.757   0.321
88921W        W61236  28.097  35.388  11.376
88922W        W61237  22.710  39.669   2.823
88923W        W61238  24.507  19.921   4.923
88924W        W61239  17.238  24.507   4.455
88925W        W61240   3.773  42.525  12.866
88926W        W61241   3.979  34.056   4.395
88927W        W61242  25.262  20.444  13.849
88928W        W61243  44.425  22.759   1.998
88929W        W61244  12.108  41.971   1.353
88930W        W61245  41.073  39.418  12.046
88931W        W61246  42.780   7.856  13.324
88932W        W61247  13.935  23.037  12.914
88933W        W61248  16.397  20.602  10.603
88934W        W61249  31.523   1.717   2.688
88935W        W61250  38.886  24.916  12.440
88936W        W61251  37.698  26.414  12.801
88937W        W61252  20.933  38.878   1.656
88938W        W61253   9.434   6.792  13.412
88939W        W61254  37.819   3.781   4.261
88940W        W61255  44.606  28.487   0.834
88941W        W61256  41.602  32.916  14.513
88942W        W61257   7.206  34.265   2.689
88943W        W61258  40.403  31.971   4.576
88944W        W61259  37.695  29.195   2.409
88945W        W61260  11.364  38.369  14.758
88946W        W61261  40.495   4.253  12.528
88947W        W61262   5.966  15.243  12.501
88948W        W61263  31.147  39.997   0.798
88949W        W61264   0.234  19.600  13.580
88950W        W61265  11.154  39.508   1.651
88951W        W61266  36.112  15.129   0.942
88952W        W61267  38.855  14.354  11.619
88953W        W61268  28.561   5.966   2.181
88954W        W61269  14.194  21.708  11.554
88955W        W61270  28.167   6.186   4.992
88956W        W61271  36.339  39.608  12.598
88957W        W61272  13.199  22.052  13.094
88958W        W61273  34.952  17.435  13.435
88959W        W61274  32.558  31.916   1.842
88960W        W61275  31.093  35.055   0.012
88961W        W61276  10.263   7.658  14.417
88962W        W61277  27.259  12.066   1.896
88963W        W61278  38.499  39.540   4.206
88964W        W61279  34.014  27.958   1.244
88965W        W61280   3.276  27.415  12.685
88966W        W61281  34.583  31.496   0.033
88967W        W61282  13.126   0.404  13.306
88968W        W61283  13.809  22.700  13.291
88969W        W61284  23.186  44.049   3.729
88970W        W61285  10.127  14.089  11.648
88971W        W61286  17.763   8.612  13.881
88972W        W61287  39.419  30.878   4.688
88973W        W61288  12.758  37.606   4.277
88974W        W61289  21.102  32.466  14.917
88975W        W61290   1.717   3.518   4.155
88976W        W61291  33.583  39.725  10.738
88977W        W61292  18.818  42.474  14.367
88978W        W61293   0.244  43.162   3.929
88979W        W61294   7.247  44.529   1.928
88980W        W61295  10.189  21.270   3.264
88981W        W61296  18.982  31.959   2.773
88982W        W61297  14.213   3.176   3.684
88983W        W61298  26.012  28.541  14.758
88984W        W61299   8.820  23.158  11.237
88985W        W61300  14.238  37.032   2.221
88986W        W61301  27.743  12.270   1.920
88987W        W61302  33.519  35.404   0.303
88988W        W61303  17.608  30.422   1.211
88989W        W61304  27.522  11.617   2.770
88990W        W61305   6.693   9.179  11.661
88991W        W61306   7.366  38.827  13.547
88992W        W61307  34.917  24.003   0.319
88993W        W61308  17.497  38.599  10.216
88994W        W61309  30.769  43.005  11.042
88995W        W61310  23.754  44.876   4.860
88996W        W61311  15.781   6.581   5.143
88997W        W61312  20.795  32.331   3.107
88998W        W61313  32.209  27.907   3.191
88999W        W61314  19.534  36.933   3.984
89000W        W61315  32.420  26.708  10.252
89001W        W61316  33.560  16.037   4.444
89002W        W61317  28.684  27.556   2.332
89003W        W61318  29.350  16.279   3.661
89004W        W61319  21.732  32.173   3.741
89005W        W61320  28.616  17.683   4.333
89006W        W61321  26.620  23.409  14.434
89007W        W61322  19.505  31.872   0.942
89008W        W61323  36.825  44.268  13.171
89009W        W61324   3.412  11.309   1.315
89010W        W61325  39.773  18.178   3.321
89011W        W61326  31.427  40.297   1.218
89012W        W61327  31.944  42.314  13.200
89013W        W61328  12.242  36.500  14.444
89014W        W61329   4.892  42.303  14.457
89015W        W61330  17.708  20.406   0.899
89016W        W61331   9.706  10.514  10.085
89017W        W61332  13.490  42.716   0.223
89018W        W61333  25.906  29.880  11.695
89019W        W61334  18.256  21.157   5.335
89020W        W61335   1.344  43.573  14.302
89021W        W61336  44.784  34.123  14.021
89022W        W61337  23.009   2.731  12.940
89023W        W61338  25.290  42.118  10.509
89024W        W61339  24.795   8.361  13.924
89025W        W61340  21.775  32.036  11.808
89026W        W61341   0.512  24.663  12.408
89027W        W61342  20.558  21.469   3.564
89028W        W61343  34.035  35.045  12.805
89029W        W61344  37.891   2.546  11.092
89030W        W61345  23.305  20.322   2.859
89031W        W61346  22.703  30.674   2.389
89032W        W61347  44.005  33.717   0.582
89033W        W61348   4.235  37.011   3.202
89034W        W61349   1.274  36.601  10.531
89035W        W61350  43.194  35.458   0.421
89036W        W61351  33.076  32.114  14.289
89037W        W61352  42.199  20.182   4.954
89038W        W61353  15.409   9.104  14.016
89039W        W61354  26.636  14.831  14.819
89040W        W61355   0.302  44.491   0.689
89041W        W61356  17.638  12.081   4.411
89042W        W61357  29.605  41.532   1.421
89043W        W61358   4.633   4.828   3.356
89044W        W61359  32.136  16.214  10.791
89045W        W61360   6.096  39.737   0.199
89046W        W61361  20.180   8.930   3.640
89047W        W61362   7.818  14.133   5.092
89048W        W61363  17.648  24.450  14.441
89049W        W61364   4.234  25.574  10.524
89050W        W61365   0.699  11.425   3.615
89051W        W61366  30.962  28.224  13.292
89052W        W61367  17.329  20.133  11.533
89053W        W61368  26.019  20.066   0.417
89054W        W61369  13.566  17.199   1.416
89055W        W61370  39.398  41.310   3.344
89056W        W61371   7.168   4.134  10.743
89057W        W61372  22.225   6.821   4.166
89058W        W61373  39.955   9.076   0.887
89059W        W61374  14.695  38.986  10.695
89060W        W61375  33.308  13.959  10.182
89061W        W61376  11.468  23.097   4.595
89062W        W61377  40.288  42.395  13.335
89063W        W61378  32.324   5.886   3.277
89064W        W61379  26.847  34.024   3.649
89065W        W61380  18.232  34.961   3.281
89066W        W61381  21.132   3.959  10.929
89067W        W61382   2.881  30.900   4.621
89068W        W61383  27.719  14.597   4.270
89069W        W61384   6.742  28.698   1.797
89070W        W61385  33.309   4.947  10.853
89071W        W61386  44.351  24.715   4.088
89072W        W61387  15.642  30.590  12.582
89073W        W61388  16.247  33.702  13.199
89074W        W61389  28.167  22.586   3.185
89075W        W61390  24.134  39.788  14.015
89076W        W61391  43.039   6.988  13.398
89077W        W61392  30.112   9.604  12.883
89078W        W61393  13.223  28.510   1.817
89079W        W61394  11.339  15.637  12.954
89080W        W61395  40.255  17.550  12.425
89081W        W61396  29.561  37.052  12.298
89082W        W61397   7.204   9.709  10.658
89083W        W61398  44.762  39.609   0.237
89084W        W61399  19.521  18.466  11.199
89085W        W61400   2.374  35.085  10.464
89086W        W61401  35.026  35.662   4.316
89087W        W61402  22.475  37.535  13.867
89088W        W61403  23.578  20.734  14.504
89089W        W61404  38.487  28.646  12.405
89090W        W61405   3.723   3.977   2.499
89091W        W61406   4.494  41.257   3.152
89092W        W61407  35.519  21.702   2.762
89093W        W61408  11.811  36.988  13.926
89094W        W61409  22.753  33.954   2.636
89095W        W61410  20.783  32.914  12.233
89096W        W61411  41.303  11.723  14.875
89097W        W61412  36.339  22.146  11.575
89098W        W61413  10.104  24.188   4.234
89099W        W61414  11.188  39.478   0.218
89100W        W61415  26.858  26.091   4.896
89101W        W61416  22.598  10.083  10.914
89102W        W61417  21.358   6.472  14.304
89103W        W61418  18.327  23.224   1.775
89104W        W61419  39.075   4.871  14.494
89105W        W61420  26.851  24.547   0.948
89106W        W61421  31.510  36.059  14.863
89107W        W61422  35.475  39.561   4.526
89108W        W61423  11.855  25.675  14.067
89109W        W61424   8.326  32.649  11.495
89110W        W61425   5.740  20.558  11.656
89111W        W61426  44.901  35.133  13.718
89112W        W61427  16.401   7.573   1.696
89113W        W61428  29.126  25.775  13.414
89114W        W61429  30.178  32.965  13.768
89115W        W61430  26.595  44.236   2.857
89116W        W61431  40.916  20.080   3.888
89117W        W61432  28.246   1.858   1.839
89118W        W61433  17.359  40.491  11.504
89119W        W61434  25.538  20.490   0.633
89120W        W61435   4.345  26.872  10.951
89121W        W61436  20.279  24.223   0.138
89122W        W61437   5.597   4.720  12.011
89123W        W61438   6.331  33.098  12.415
89124W        W61439  12.151  41.630   1.775
89125W        W61440  11.006   9.364  10.714
89126W        W61441  23.771  41.927  10.710
89127W        W61442  11.141  25.446   5.138
89128W        W61443  22.193   7.989  14.334
89129W        W61444  34.041  25.106  12.345
89130W        W61445  42.689  36.964  11.775
89131W        W61446  17.764   7.240  12.038
89132W        W61447  22.996  11.192  11.556
89133W        W61448  20.310   3.960  14.899
89134W        W61449  31.579  11.632  11.104
89135W        W61450  25.595   9.649  13.590
89136W        W61451   6.933   1.430   4.764
89137W        W61452  11.471  26.365  12.603
89138W        W61453  15.602  44.070   2.441
89139W        W61454  29.988  23.120  13.062
89140W        W61455   4.741  28.062  12.785
89141W        W61456  35.038  27.431  13.615
89142W        W61457  13.809   5.305   1.674
89143W        W61458  39.228  38.998  14.130
89144W        W61459  23.178   5.776  14.480
89145W        W61460  17.546   7.770  13.849
89146W        W61461  36.150  42.262  14.416
89147W        W61462  31.514  25.504   2.214
89148W        W61463   2.547  44.537  10.864
89149W        W61464  42.941   9.744   0.925
89150W        W61465  23.476  37.554   0.352
89151W        W61466  31.641  33.376  14.754
89152W        W61467  31.057  23.675   3.187
89153W        W61468   8.193  14.385   0.879
89154W        W61469  11.008  27.143  14.242
89155W        W61470  24.305  27.498   4.596
89156W        W61471  40.094  25.056   1.369
89157W        W61472  10.964  44.740  14.274
89158W        W61473  35.954   3.795   1.329
89159W        W61474  26.452  23.500  10.976
89160W        W61475  17.430   9.858  14.422
89161W        W61476  28.176  44.599  13.970
89162W        W61477  28.172  13.696   3.616
89163W        W61478  33.365  21.503  12.004
89164W        W61479  40.230  39.570   4.247
89165W        W61480   8.462  28.083   0.852
89166W        W61481   7.751  19.549   1.193
89167W        W61482  44.319  39.550  14.925
89168W        W61483  32.889  17.064  10.932
89169W        W61484  16.483  10.770   4.731
89170W        W61485  18.077  42.195   3.715
89171W        W61486  42.417   1.726  11.460
89172W        W61487  11.253  12.367   3.838
89173W        W61488  30.148   4.957   3.583
89174W        W61489  33.915  37.300   1.739
89175W        W61490  28.001  19.487  11.205
89176W        W61491   8.889   9.274   0.191
89177W        W61492  20.128  19.299   3.199
89178W        W61493   9.269  32.902   2.816
89179W        W61494   6.644  34.897   2.742
89180W        W61495  33.099   1.691   1.582
89181W        W61496   9.420   2.827  10.964
89182W        W61497   9.421  12.251  10.683
89183W        W61498  40.014   9.183  12.575
89184W        W61499  21.500  29.014  14.349
89185W        W61500  15.388  19.035  12.747
89186W        W61501  24.691   7.169   1.322
89187W        W61502  26.229  15.190   2.351
89188W        W61503  38.845  11.421   5.192
89189W        W61504  43.895  42.517   0.375
89190W        W61505  32.520  21.127   0.745
89191W        W61506   5.675  44.985   4.507
89192W        W61507  26.777  12.981  11.594
89193W        W61508  19.966  19.206  11.580
89194W        W61509   2.742  29.604  13.559
89195W        W61510   5.392  37.125  14.474
89196W        W61511  30.054  27.092   3.397
89197W        W61512  35.890  33.700   0.750
89198W        W61513  39.874  35.083  11.706
89199W        W61514   9.049  33.718   4.115
89200W        W61515   5.140   0.684  13.385
89201W        W61516  44.938  21.475  13.871
89202W        W61517   6.701  18.588   2.329
89203W        W61518   5.380   6.329  11.898
89204W        W61519  10.871  12.095  11.920
89205W        W61520  27.824  40.342  12.629
89206W        W61521  41.306  29.491  11.697
89207W        W61522  22.584  18.737   1.793
89208W        W61523   4.669  39.209   1.983
89209W        W61524  23.277   3.233  12.122
89210W        W61525  12.154  43.881  11.919
89211W        W61526  22.170   8.031   1.075
89212W        W61527  14.607  21.714   0.969
89213W        W61528   3.985  13.193  14.449
89214W        W61529   9.080  25.965   2.716
89215W        W61530   7.559   3.577  12.522
89216W        W61531   3.492  22.096   4.620
89217W        W61532   0.441  33.578   3.421
89218W        W61533  43.736   2.673   2.727
89219W        W61534  19.783  32.459   2.406
89220W        W61535  14.329  42.535   4.238
89221W        W61536  36.999  18.254  14.535
89222W        W61537  10.633  25.234   0.206
89223W        W61538   7.249  12.437  11.908
89224W        W61539   3.800   2.806  13.402
89225W        W61540  42.902  41.480   4.984
89226W        W61541   3.494  44.184  10.846
89227W        W61542  21.111   6.228  11.937
89228W        W61543  15.834   1.612  12.457
89229W        W61544  43.315   1.721   5.048
89230W        W61545  11.098  22.095   1.301
89231W        W61546  42.430  42.135   3.416
89232W        W61547  16.623  44.271  11.962
89233W        W61548  22.405  34.387  13.278
89234W        W61549  27.698  21.432  11.555
89235W        W61550  33.515  37.149  13.674
89236W        W61551  14.201  13.604   4.347
89237W        W61552  34.145  44.081  13.130
89238W        W61553  15.356   4.823   3.600
89239W        W61554  21.276  10.348  14.910
89240W        W61555  11.710   9.394  12.374
89241W        W61556  37.979  25.141  12.130
89242W        W61557  31.655  16.710  14.479
89243W        W61558  32.095  18.289  13.883
89244W        W61559  21.607  15.682  11.839
89245W        W61560   1.723   9.704   0.286
89246W        W61561  39.883  24.922   4.743
89247W        W61562  35.959  42.475  10.536
89248W        W61563  13.783  41.778   2.400
89249W        W61564  28.439  13.965  10.631
89250W        W61565  25.037  42.977  10.539
89251W        W61566  18.336  42.159  13.468
89252W        W61567  19.582  36.484  12.433
89253W        W61568  19.005  18.346   1.735
89254W        W61569  41.604  23.824   4.949
89255W        W61570  44.031  35.098   1.235
89256W        W61571  13.282  38.561  12.119
89257W        W61572   6.634  20.068  13.639
89258W        W61573   5.233   2.777  14.106
89259W        W61574  11.085  11.364  12.527
89260W        W61575  15.296  20.915   2.860
89261W        W61576  23.952  17.600  12.097
89262W        W61577  25.696   3.423  11.173
89263W        W61578  38.176  43.108  13.619
89264W        W61579  27.703  41.704  13.738
89265W        W61580   9.572  30.365  13.508
89266W        W61581  43.378  41.289  13.039
89267W        W61582  14.751  27.099   1.940
89268W        W61583  26.254  40.932  12.427
89269W        W61584   2.852  38.497   4.765
89270W        W61585  35.564   3.199   1.856
89271W        W61586  15.918  27.264  10.253
89272W        W61587  22.459  44.030  11.574
89273W        W61588   3.692  14.694  14.381
89274W        W61589  13.965  19.552  13.947
89275W        W61590  33.070   9.861  14.212
89276W        W61591  22.834  35.912  11.381
89277W        W61592  31.762  16.705   3.616
89278W        W61593   8.256  16.649   4.093
89279W        W61594  30.983  32.462  11.232
89280W        W61595  33.537  36.796  14.056
89281W        W61596  12.764  40.342  14.330
89282W        W61597  12.125  12.350   4.679
89283W        W61598  24.762   0.257  14.654
89284W        W61599  20.822   5.369  13.492
89285W        W61600   2.354   4.898  14.237
89286W        W61601  44.033  37.144   3.635
89287W        W61602   9.189  40.025   3.678
89288W        W61603   1.270  17.359   0.839
89289W        W61604  13.057   1.346  14.289
89290W        W61605   1.477   3.392  14.317
89291W        W61606   3.376  28.545  14.022
89292W        W61607  30.429  24.777  11.660
89293W        W61608  27.085   5.194  12.302
89294W        W61609  15.261   2.983  12.940
89295W        W61610   4.789  34.985  13.970
89296W        W61611  41.324  13.155   2.376
89297W        W61612  40.969   7.648   1.448
89298W        W61613   7.665  31.505   2.406
89299W        W61614  17.554  34.304  11.064
89300W        W61615  27.904  18.565   2.140
89301W        W61616  43.903   1.329  14.869
89302W        W61617   3.466  37.483  12.018
89303W        W61618  16.277  13.377   3.730
89304W        W61619  40.911  32.627  11.486
89305W        W61620  44.216  16.567   0.824
89306W        W61621   0.802  41.918   1.441
89307W        W61622  18.486  18.149  13.819
89308W        W61623  38.377  35.521   3.873
89309W        W61624  10.303  43.019  11.446
89310W        W61625  16.097  28.189   4.178
89311W        W61626   9.451  28.991  13.875
89312W        W61627   3.708  43.661   2.793
89313W        W61628   8.639  40.338  14.453
89314W        W61629  33.043  35.977  14.919
89315W        W61630  33.528   2.012  12.516
89316W        W61631   8.750  33.158  11.970
89317W        W61632  20.993  29.642   0.567
89318W        W61633   7.173  19.026   4.054
89319W        W61634  24.243  24.465  13.519
89320W        W61635  10.645  44.542  10.294
89321W        W61636  41.048  36.032   0.711
89322W        W61637  15.013  25.045  12.574
89323W        W61638  16.124  26.178  11.278
89324W        W61639  20.129  19.362   2.682
89325W        W61640   3.456  28.649   0.494
89326W        W61641   9.341  42.981  11.917
89327W        W61642   6.029  23.288   4.114
89328W        W61643  12.575   2.678   1.714
89329W        W61644  30.030   5.384   4.061
89330W        W61645  21.760   8.308   0.883
89331W        W61646   5.287  16.995  14.790
89332W        W61647  43.963  42.793   3.122
89333W        W61648  13.754  37.174   1.313
89334W        W61649  31.698  27.983   4.037
89335W        W61650   4.258  12.703   1.672
89336W        W61651  43.140   1.833   1.880
89337W        W61652   3.342  30.910  12.031
89338W        W61653  32.532   0.229  12.467
89339W        W61654  32.522  30.734   3.694
89340W        W61655   0.776  15.647   3.966
89341W        W61656  25.006  18.532   2.473
89342W        W61657  44.187  44.961   0.015
89343W        W61658  26.266  16.576  11.013
89344W        W61659  30.195  19.958  11.936
89345W        W61660  38.356  11.917   1.000
89346W        W61661  13.032  39.024  14.818
89347W        W61662  17.505  30.623   4.019
89348W        W61663  31.545  26.346   0.303
89349W        W61664  39.029  40.347   3.519
89350W        W61665  36.833  19.374   0.389
89351W        W61666  33.560  12.170  11.884
89352W        W61667  36.157  15.297  14.926
89353W        W61668  22.574  24.956  13.497
89354W        W61669   9.324  24.095  13.325
89355W        W61670   8.290   5.100  14.782
89356W        W61671  32.119  25.998   1.390
89357W        W61672   1.030  29.036  13.517
89358W        W61673  39.306  42.698  10.719
89359W        W61674  18.292  31.043   2.032
89360W        W61675  33.061  44.143   2.124
89361W        W61676  18.583  17.538  12.473
89362W        W61677  12.750  26.836  11.105
89363W        W61678  43.917  24.629  10.771
89364W        W61679  35.975  39.484   1.655
89365W        W61680  44.888  19.319   1.038
89366W        W61681  20.605   6.924   4.699
89367W        W61682  25.460  19.332   0.449
89368W        W61683  26.660  17.670  11.516
89369W        W61684  18.697   1.714  11.940
89370W        W61685  25.698  18.650   0.506
89371W        W61686   6.196   5.919   2.487
89372W        W61687  44.517   5.764   2.867
89373W        W61688  37.941   2.362   1.421
89374W        W61689  43.604  38.983   1.113
89375W        W61690  10.418  15.769  12.868
89376W        W61691  14.849  40.932   2.333
89377W        W61692  35.203  26.563  11.079
89378W        W61693  19.282  27.830   2.098
89379W        W61694  43.904   4.002  14.472
89380W        W61695  30.115  12.654  11.116
89381W        W61696   2.517   3.795   4.060
89382W        W61697  41.034  17.754   3.435
89383W        W61698  42.525  36.787   1.858
89384W        W61699   6.810  21.620  14.385
89385W        W61700  43.660  35.353  10.440
89386W        W61701  36.115   6.314   4.638
89387W        W61702  11.651  13.532   1.390
89388W        W61703   6.088  33.496   2.589
89389W        W61704  12.290  41.497   3.178
89390W        W61705  38.968  34.533   3.113
89391W        W61706  26.101  28.710   1.858
89392W        W61707   1.003  33.716  14.885
89393W        W61708  37.356   4.618  12.923
89394W        W61709  41.348  21.514  11.143
89395W        W61710   3.985  32.613   0.335
89396W        W61711  43.708   6.500  11.525
89397W        W61712  20.561   5.606   1.718
89398W        W61713   5.653   6.181   4.227
89399W        W61714   5.492   8.384   2.902
89400W        W61715  29.019  29.542   0.464
89401W        W61716  30.209  18.985  14.929
89402W        W61717  36.836  23.503  14.484
89403W        W61718  43.528   8.711   1.987
89404W        W61719   6.138  28.864  14.436
89405W        W61720  34.055  26.041   2.310
89406W        W61721  12.039  36.692  14.951
89407W        W61722  38.470  20.095   3.201
89408W        W61723  12.146   8.609  12.889
89409W        W61724  26.110  25.504   4.690
89410W        W61725  22.076  29.883  11.129
89411W        W61726   5.139   2.314  13.488
89412W        W61727  16.861  26.668  14.068
89413W        W61728   6.052  14.236   2.774
89414W        W61729   7.446  29.806  12.096
89415W        W61730  16.341  34.834   4.228
89416W        W61731  16.234   4.034  13.356
89417W        W61732  17.414  23.608  11.165
89418W        W61733  43.457  11.644  10.267
89419W        W61734  19.593  44.976   1.048
89420W        W61735  32.614  39.940   4.107
89421W        W61736  33.887  32.516  13.053
89422W        W61737   7.347  36.557   0.816
89423W        W61738  27.642  23.727  12.092
89424W        W61739  39.813  22.253   1.278
89425W        W61740   4.840  41.073   1.318
89426W        W61741  20.961   5.790  11.217
89427W        W61742  38.868  20.564   0.255
89428W        W61743  27.164  22.143   0.613
89429W        W61744  29.465  14.374  14.252
89430W        W61745  33.146  24.559  11.043
89431W        W61746  35.037  22.345   4.911
89432W        W61747  36.506  38.623  11.202
89433W        W61748   0.872  31.413   3.088
89434W        W61749  30.132   2.362   4.338
89435W        W61750  36.819  23.716   1.833
89436W        W61751  30.059   3.862  13.783
89437W        W61752  38.902  14.225   2.658
89438W        W61753  27.165  22.184   3.697
89439W        W61754  32.698  41.153  12.143
89440W        W61755  22.453  41.485   4.487
89441W        W61756  28.595  21.744  11.333
89442W        W61757  28.559  26.806   3.215
89443W        W61758  16.138  24.585   2.404
89444W        W61759  37.973  21.362   1.973
89445W        W61760  19.376   4.694  11.135
89446W        W61761  22.206  30.651  14.303
89447W        W61762  41.819  10.291  14.944
89448W        W61763  19.766  35.941  13.124
89449W        W61764  22.592  21.538  11.358
89450W        W61765  28.978  39.220  11.964
89451W        W61766  41.080  42.896   3.241
89452W        W61767   9.346  18.614   2.735
89453W        W61768   2.879  10.358   1.285
89454W        W61769  28.071  37.841  11.621
89455W        W61770   8.374  29.801   3.608
89456W        W61771  29.129   2.000   4.645
89457W        W61772  21.739   9.324   0.971
89458W        W61773   7.267  39.062  13.060
89459W        W61774  10.732   7.443  14.459
89460W        W61775  17.857   4.020  14.883
89461W        W61776  42.977  31.564  13.023
89462W        W61777   3.741  27.738  10.642
89463W        W61778  26.512  14.527  12.400
89464W        W61779  38.017   3.163   0.355
89465W        W61780  34.609   7.427  13.424
89466W        W61781  40.679  14.698   2.790
89467W        W61782  30.374  37.519   0.008
89468W        W61783  11.878  39.403   1.264
89469W        W61784  10.596  22.071   1.160
89470W        W61785   0.372   7.267   2.813
89471W        W61786  22.880  19.606  14.687
89472W        W61787  44.540   9.266   4.528
89473W        W61788  17.708   5.837  11.451
89474W        W61789  21.528  18.615   4.229
89475W        W61790   7.190  26.893   4.726
89476W        W61791  34.316  22.585   3.275
89477W        W61792  34.472  25.140   0.734
89478W        W61793  23.597  29.402   1.479
89479W        W61794  19.614  10.806   4.196
89480W        W61795  35.648  28.156   4.831
89481W        W61796  14.071  34.303   2.339
89482W        W61797  40.425  28.708   2.909
89483W        W61798  37.430   0.224  13.850
89484W        W61799   8.397  24.146   4.944
89485W        W61800  15.598   4.768   0.891
89486W        W61801  37.984  10.907  11.417
89487W        W61802  44.326   3.289   1.875
89488W        W61803   2.175  40.657   9.912
89489W        W61804   4.732  15.232   0.972
89490W        W61805   7.204  44.150  13.928
89491W        W61806  27.859  10.784  13.952
89492W        W61807  28.618  14.812   1.195
89493W        W61808  33.182   6.382  14.379
89494W        W61809  16.708  39.988   5.281
89495W        W61810  10.394  31.452  13.434
89496W        W61811  23.509  44.747  10.630
89497W        W61812  19.112  38.796  10.597
89498W        W61813  28.508  30.254   0.488
89499W        W61814  23.090  36.392   4.371
89500W        W61815  11.707  42.905  11.240
89501W        W61816   6.341  32.870   0.893
89502W        W61817  31.959  14.888   1.453
89503W        W61818   5.964  28.259   4.754
89504W        W61819   6.346  18.599   0.225
89505W        W61820  28.760  29.621   2.818
89506W        W61821   0.610  14.041   4.878
89507W        W61822  44.687  26.705  10.658
89508W        W61823   2.156  31.584   3.206
89509W        W61824  18.771   4.253   4.762
89510W        W61825   5.363  36.298   1.309
89511W        W61826  14.538  15.306   2.703
89512W        W61827  35.900  36.553  11.498
89513W        W61828   7.968  37.308  10.324
89514W        W61829  12.554  21.966  13.884
89515W        W61830  25.567  21.516  12.025
89516W        W61831   5.097  43.812  11.157
89517W        W61832  12.422   1.979   2.303
89518W        W61833   5.619  43.856  10.889
89519W        W61834  15.564   8.942   5.070
89520W        W61835  15.698   2.892   2.336
89521W        W61836   1.311  39.680  11.535
89522W        W61837  41.407  24.830  12.609
89523W        W61838   5.281  22.651   1.204
89524W        W61839  13.209  13.752   1.050
89525W        W61840   6.814  29.013   2.195
89526W        W61841  21.270  10.841   1.373
89527W        W61842  43.837  14.218   2.207
89528W        W61843  42.297   1.608   2.863
89529W        W61844  11.667  37.482   0.826
89530W        W61845  12.150  44.315   2.265
89531W        W61846  36.899  38.607   0.407
89532W        W61847   3.291  33.602   2.295
89533W        W61848  42.644  12.409  11.596
89534W        W61849  44.433  44.763   1.827
89535W        W61850  23.716   8.366  10.708
89536W        W61851  37.258  20.278  12.172
89537W        W61852   2.444  21.656  14.797
89538W        W61853  25.551  23.806   2.349
89539W        W61854  40.320  22.566   3.772
89540W        W61855  31.129   1.964  12.952
89541W        W61856  27.212  24.017  12.042
89542W        W61857  24.109  19.598   4.640
89543W        W61858  17.358  11.476   2.895
89544W        W61859  18.218  42.442   1.336
89545W        W61860  26.067   7.731   4.653
89546W        W61861  37.094   5.180  14.041
89547W        W61862  39.008  18.330   2.733
89548W        W61863  39.432  39.997  14.520
89549W        W61864  17.293  32.910  11.057
89550W        W61865  44.410   2.465   2.740
89551W        W61866  18.614  37.530  13.600
89552W        W61867  26.433   7.678   3.700
89553W        W61868  34.033  35.608  11.644
89554W        W61869   6.873   3.259   3.557
89555W        W61870  14.031   0.048   3.265
89556W        W61871  40.062  24.761  13.590
89557W        W61872  42.341  32.341   3.143
89558W        W61873  38.227  22.954   4.085
89559W        W61874  22.580  34.309  14.843
89560W        W61875   4.002  35.972  11.509
89561W        W61876  25.791   7.116   3.721
89562W        W61877  14.388  18.090  11.014
89563W        W61878  24.348  12.144  13.941
89564W        W61879  28.267   3.267  14.496
89565W        W61880  24.199  39.015   3.250
89566W        W61881  32.543   6.890   4.392
89567W        W61882   7.254   9.555  11.927
89568W        W61883  41.043  38.571  14.969
89569W        W61884  20.518  11.795   4.288
89570W        W61885  19.209  29.733  12.164
89571W        W61886  13.118  16.222   1.861
89572W        W61887  19.807  35.182  11.080
89573W        W61888  18.500  19.018   5.008
89574W        W61889   7.205  20.575  10.700
89575W        W61890  21.636  20.957  13.957
89576W        W61891  13.387  32.477  10.181
89577W        W61892  22.506  31.963  13.334
89578W        W61893  26.726   2.990  10.536
89579W        W61894  14.846  14.120   2.756
89580W        W61895   1.802   6.719  11.049
89581W        W61896  11.062  36.505  14.942
89582W        W61897  43.105  17.133   3.632
89583W        W61898  39.821  24.073  11.167
89584W        W61899  44.281  35.400   4.284
89585W        W61900   7.081  32.304   4.121
89586W        W61901   1.948   9.534   2.836
89587W        W61902  22.768  25.786  12.610
89588W        W61903  15.360   5.292   1.189
89589W        W61904  33.335  15.797  14.036
89590W        W61905   7.392  44.781   0.851
89591W        W61906  43.848   5.940  11.432
89592W        W61907  16.245  40.414   2.201
89593W        W61908  24.961  34.384  11.006
89594W        W61909  10.418   0.613   4.150
89595W        W61910   5.126   9.786  13.766
89596W        W61911  10.036  22.648  10.722
89597W        W61912   9.379   2.798   1.677
89598W        W61913  12.769   1.401   0.939
89599W        W61914  12.048   8.802   2.096
89600W        W61915  18.741  12.202   1.136
89601W        W61916  14.377  21.321   4.982
89602W        W61917   3.735  24.057   2.440
89603W        W61918  12.576  21.600   0.707
89604W        W61919   6.999  42.443  13.512
89605W        W61920  21.993  37.810   4.146
89606W        W61921  21.618  40.292   2.392
89607W        W61922  41.552   8.505  11.690
89608W        W61923  39.793  36.427  11.192
89609W        W61924  24.269  25.174  13.882
89610W        W61925  42.561  20.761  12.995
89611W        W61926  16.253  15.258   4.137
89612W        W61927  38.623  28.642  13.445
89613W        W61928   2.970   0.401  12.886
89614W        W61929  40.438   5.796   3.825
89615W        W61930   2.564  15.583   4.016
89616W        W61931   7.288  28.183   0.197
89617W        W61932  43.685  37.877   3.248
89618W        W61933   8.191  41.002   3.678
89619W        W61934  35.380   1.304   4.208
89620W        W61935  38.392   2.648  11.155
89621W        W61936   3.520  16.757   2.837
89622W        W61937  21.089  38.098   2.727
89623W        W61938  25.646  25.898  11.229
89624W        W61939  17.124  21.651   0.670
89625W        W61940  28.188  38.048  14.559
89626W        W61941  22.192  14.106  10.559
89627W        W61942  22.993  31.340   0.812
89628W        W61943  30.557  26.667  10.776
89629W        W61944  34.830  35.406  14.772
89630W        W61945  41.376  13.260  13.854
89631W        W61946   9.435   9.165   4.754
89632W        W61947  34.467  43.971  13.552
89633W        W61948  14.401  42.163   2.380
89634W        W61949   5.279   2.228   5.062
89635W        W61950   3.607  14.270  10.259
89636W        W61951   6.796   5.363   4.026
89637W        W61952  40.910  24.728  10.711
89638W        W61953  40.579  31.709   4.182
89639W        W61954  44.545  30.973   1.533
89640W        W61955   4.636  18.184  11.076
89641W        W61956  11.174  42.779   2.919
89642W        W61957   5.178  36.383  10.405
89643W        W61958  23.490  18.168  10.546
89644W        W61959  12.707  21.155   1.646
89645W        W61960  27.025  22.434  10.663
89646W        W61961  30.530  35.252   3.676
89647W        W61962  31.966  15.533   3.242
89648W        W61963  32.075  36.915   3.801
89649W        W61964  32.464  34.581   2.432
89650W        W61965   7.911  11.169   3.920
89651W        W61966   4.766  14.313  13.365
89652W        W61967  13.090  12.708   0.801
89653W        W61968  10.309   5.369   1.919
89654W        W61969  10.175  27.399   0.345
89655W        W61970  24.970   8.626  12.438
89656W        W61971  28.800   8.778  12.883
89657W        W61972  37.341  28.183   1.464
89658W        W61973  18.530   8.838  13.292
89659W        W61974  35.756   0.379   3.769
89660W        W61975   8.203   3.891  14.931
89661W        W61976   3.256  32.404   2.082
89662W        W61977  44.942  22.152   2.667
89663W        W61978  17.185  17.110  11.954
89664W        W61979  14.381   4.383  11.596
89665W        W61980  28.665  19.424  12.182
89666W        W61981  16.046  31.386  12.080
89667W        W61982  34.905   1.343   2.189
89668W        W61983  16.418   2.404   3.266
89669W        W61984  35.128  23.149  10.953
89670W        W61985  34.773   5.786  14.981
89671W        W61986  43.455   2.772   0.290
89672W        W61987  41.471  44.502  14.399
89673W        W61988  11.890  29.543  13.034
89674W        W61989  21.995  44.220  12.558
89675W        W61990  22.019  40.335  11.692
89676W        W61991  15.625   5.276   3.557
89677W        W61992  16.686  31.144   0.725
89678W        W61993   7.619  32.083   3.243
89679W        W61994  36.804  34.137   4.054
89680W        W61995  15.257  11.878   0.683
89681W        W61996  13.248  11.804  11.469
89682W        W61997  22.574  17.569  13.269
89683W        W61998   5.194   3.325  13.473
89684W        W61999  15.776  42.831   1.304
89685W        W62000  27.421  18.941  10.510
89686W        W62001  40.049  32.895  13.966
89687W        W62002  26.958   3.382  10.910
89688W        W62003  27.723  21.062  10.661
89689W        W62004  40.345  18.709   0.067
89690W        W62005   8.812  16.048  14.406
89691W        W62006  37.038  43.720  10.600
89692W        W62007   7.583  18.718   1.297
89693W        W62008  19.344  24.271  12.879
89694W        W62009  28.684  11.175   2.714
89695W        W62010  24.180  15.259  12.080
89696W        W62011  12.644   9.773  13.303
89697W        W62012   8.726  29.459   3.415
89698W        W62013  13.112   4.784   1.477
89699W        W62014  37.292   9.791  13.857
89700W        W62015  11.839  13.821  13.089
89701W        W62016  38.363   3.655  13.964
89702W        W62017  31.683  41.325  13.416
89703W        W62018  43.870  31.581  13.933
89704W        W62019   5.393  19.327  13.313
89705W        W62020   0.970  39.594  13.567
89706W        W62021   8.559   7.864   1.552
89707W        W62022  17.336  10.690   0.370
89708W        W62023  11.630  32.117   1.677
89709W        W62024  18.226  16.776  11.247
89710W        W62025   8.275  37.573  12.577
89711W        W62026  33.896  23.752   0.263
89712W        W62027  15.703  30.804   2.157
89713W        W62028  28.890  35.963   0.512
89714W        W62029  44.997  38.246   1.438
89715W        W62030  12.249  39.435  12.374
89716W        W62031  39.072  34.087  13.358
89717W        W62032  12.683   2.182  10.656
89718W        W62033  27.689   0.809   1.252
89719W        W62034  17.283   3.203  13.797
89720W        W62035  10.927  16.598   3.028
89721W        W62036  38.168  21.159  11.204
89722W        W62037   9.708  41.259   4.230
89723W        W62038  28.009  26.191  12.012
89724W        W62039  41.764  14.646   2.825
89725W        W62040  16.866  14.522   4.159
89726W        W62041   5.332   4.800   2.846
89727W        W62042   8.336   0.585   3.644
89728W        W62043   8.174  28.073  10.747
89729W        W62044  36.122  40.744   1.008
89730W        W62045  27.843   6.883  12.574
89731W        W62046  28.430   1.566   0.283
89732W        W62047  12.586  37.977   1.011
89733W        W62048  31.651  10.086   2.774
89734W        W62049  16.752  42.805   4.581
89735W        W62050   4.201  17.086   3.690
89736W        W62051  35.203  42.114   3.711
89737W        W62052   0.535  12.696  10.217
89738W        W62053  40.991   9.737   0.881
89739W        W62054   8.935  33.873   2.122
89740W        W62055  29.702   1.877   3.679
89741W        W62056  23.152  21.763  11.625
89742W        W62057  28.763   2.510   0.478
89743W        W62058  44.450  20.474  12.966
89744W        W62059  16.177  18.802   1.885
89745W        W62060   3.466   1.720  14.848
89746W        W62061  28.979  21.246  12.371
89747W        W62062  25.530  11.817  11.089
89748W        W62063  22.237  35.482   2.956
89749W        W62064  13.575  15.153  12.288
89750W        W62065  25.439   6.035  10.569
89751W        W62066  29.487  28.397   3.736
89752W        W62067  44.250   8.217   1.002
89753W        W62068   9.911  28.056   4.154
89754W        W62069  38.381  41.477  13.817
89755W        W62070  11.468  25.079  13.353
89756W        W62071  15.743  13.667   0.257
89757W        W62072  32.933  31.410   1.263
89758W        W62073  22.569  26.692  13.143
89759W        W62074  34.549   6.062  14.587
89760W        W62075   4.379  39.749   2.338
89761W        W62076  21.073   8.406  13.646
89762W        W62077  11.225  16.576   4.774
89763W        W62078  32.564   4.887  13.564
89764W        W62079   5.971  39.605  12.912
89765W        W62080   2.423  44.374  11.835
89766W        W62081  30.255  40.903  10.648
89767W        W62082  25.730  15.793   3.419
89768W        W62083  23.535   9.758  12.649
89769W        W62084  17.847  21.179   2.594
89770W        W62085  15.384  42.341   2.626
89771W        W62086  39.506   0.884   1.016
89772W        W62087  43.475  27.960  12.702
89773W        W62088   5.765  30.118  11.447
89774W        W62089   4.843  36.075   4.198
89775W        W62090  23.799  21.439   3.618
89776W        W62091  18.093  36.089   1.693
89777W        W62092  18.623  26.162  14.771
89778W        W62093  43.657   5.979   2.927
89779W        W62094  23.464  36.946  12.461
89780W        W62095   5.809  29.180   1.685
89781W        W62096   9.342  40.868  13.359
89782W        W62097   1.365  42.668   3.339
89783W        W62098  17.187  44.879  13.032
89784W        W62099  18.230  32.577   1.847
89785W        W62100   0.360   4.355   4.654
89786W        W62101  15.092  32.933  10.671
89787W        W62102  21.804  23.070   3.227
89788W        W62103   5.245  25.579   0.046
89789W        W62104  19.597   7.919   4.996
89790W        W62105  14.519  39.072  12.919
89791W        W62106   5.471   0.778  11.976
89792W        W62107  20.314  41.115  13.975
89793W        W62108  18.788  26.026   4.268
89794W        W62109  22.722  23.548  14.178
89795W        W62110   9.575  14.278   4.603
89796W        W62111   3.327  42.798   0.019
89797W        W62112  15.780  43.872   0.537
89798W        W62113  28.484  16.773  10.718
89799W        W62114  38.383  36.909  11.433
89800W        W62115  36.053  35.375  12.715
89801W        W62116  29.054  28.134   0.192
89802W        W62117  17.451  33.629  10.705
89803W        W62118  15.454   1.186  10.883
89804W        W62119  29.402  29.155  11.434
89805W        W62120  42.001  23.494  10.607
89806W        W62121   1.659  27.792   0.814
89807W        W62122  40.399  38.068  13.902
89808W        W62123  44.659  36.905  14.082
89809W        W62124  21.173  17.727   1.692
89810W        W62125  18.047   8.397   4.254
89811W        W62126   6.432   0.981  13.036
89812W        W62127  42.442  17.511   2.452
89813W        W62128   6.941  24.954  11.051
89814W        W62129  26.995   6.922   0.486
89815W        W62130  41.699  35.622  12.017
89816W        W62131  41.843  12.489   0.232
89817W        W62132   0.480   3.562   4.091
89818W        W62133  26.581  25.988   2.463
89819W        W62134  13.314  44.036  12.646
89820W        W62135  25.605  32.428  13.099
89821W        W62136   0.739   5.371   0.469
89822W        W62137   5.322   0.894   2.416
89823W        W62138  23.181  43.748   1.287
89824W        W62139   1.021  29.658   1.263
89825W        W62140  43.629  12.763  11.538
89826W        W62141   3.426   7.015  13.943
89827W        W62142  16.014  30.924  10.982
89828W        W62143  28.128   0.767   0.861
89829W        W62144  37.474  11.853   1.004
89830W        W62145  13.670  11.657   1.475
89831W        W62146  30.997   2.212   1.272
89832W        W62147  38.087  32.085   1.843
89833W        W62148   1.759   5.145  11.858
89834W        W62149  30.364  10.678  11.608
89835W        W62150  17.307  20.505  13.828
89836W        W62151  15.547  32.163  10.813
89837W        W62152  36.501  24.591   2.336
89838W        W62153   3.360  20.861  14.937
89839W        W62154  32.193  32.175   0.286
89840W        W62155  26.120  33.037  12.109
89841W        W62156  38.089  37.503   1.439
89842W        W62157  21.460   7.285   2.331
89843W        W62158   1.765  31.881   1.655
89844W        W62159  29.222  35.974  11.593
89845W        W62160  30.183   9.860  11.429
89846W        W62161  35.212  31.247  11.138
89847W        W62162  32.912  26.968   1.372
89848W        W62163   3.015  18.172   4.002
89849W        W62164   9.166  20.611   3.234
89850W        W62165  22.599  14.050   1.503
89851W        W62166  40.979  15.878   1.365
89852W        W62167  34.334  40.923  13.947
89853W        W62168  11.489   0.233   1.329
89854W        W62169  28.091  32.093   1.284
89855W        W62170  29.130  24.883  11.770
89856W        W62171   0.995  27.190   2.187
89857W        W62172  16.846   7.777   0.630
89858W        W62173   2.416  43.128  11.149
89859W        W62174   1.938  30.452   0.185
89860W        W62175  30.462  13.347   2.294
89861W        W62176  34.900  28.194   0.733
89862W        W62177  26.276  31.238  12.788
89863W        W62178   0.974  10.310   0.231
89864W        W62179  33.622   7.500   4.119
89865W        W62180  29.824  31.532  12.125
89866W        W62181  37.389  41.793   3.020
89867W        W62182  10.621   2.602  12.457
89868W        W62183  36.007   6.864   3.892
89869W        W62184  33.086  17.169  13.998
89870W        W62185  21.701  41.608  10.745
89871W        W62186  40.786  27.543   1.809
89872W        W62187  25.036  39.895  11.201
89873W        W62188  11.390  30.324   3.657
89874W        W62189  11.575  26.382  10.032
89875W        W62190   7.002  19.866   3.824
89876W        W62191  22.283  13.427  11.611
89877W        W62192  18.296  29.049  14.884
89878W        W62193  36.142  37.852  11.319
89879W        W62194  10.647  25.565   1.668
89880W        W62195  44.463  14.122  13.326
89881W        W62196  17.541  31.989   2.293
89882W        W62197  10.183  32.541   2.361
89883W        W62198  40.874   1.103  11.491
89884W        W62199  24.382   8.804  10.850
89885W        W62200  19.146   2.064   4.423
89886W        W62201  42.515   8.323   2.166
89887W        W62202  27.990  43.338  12.853
89888W        W62203  34.898  26.676   4.019
89889W        W62204  34.055  24.434  14.560
89890W        W62205   7.910  10.711   0.434
89891W        W62206  41.828   5.368   1.173
89892W        W62207  42.098  31.950   1.893
89893W        W62208   9.463  42.951   0.873
89894W        W62209  39.503  38.555  14.596
89895W        W62210  39.533   7.893  14.615
89896W        W62211  42.977  32.373   4.508
89897W        W62212  42.780  19.109  11.176
89898W        W62213  23.252  43.417  10.915
89899W        W62214  40.831  12.740   4.162
89900W        W62215  35.099  30.441  11.500
89901W        W62216   1.929  26.931   3.265
89902W        W62217  17.367  33.681  12.401
89903W        W62218  40.058  43.516   1.431
89904W        W62219  18.692  35.600   2.207
89905W        W62220  33.892  32.541  11.161
89906W        W62221   7.099  42.032   3.645
89907W        W62222   2.215  35.532  13.560
89908W        W62223  11.287  39.836  11.968
89909W        W62224  23.250   7.027  13.770
89910W        W62225  35.297  22.958  14.574
89911W        W62226  22.151  25.232  14.757
89912W        W62227  27.719  34.426   0.338
89913W        W62228  24.658  39.000  14.394
89914W        W62229  31.877   6.410   4.640
89915W        W62230   6.353  26.138  14.689
89916W        W62231  36.949  10.980  14.320
89917W        W62232  40.789  31.346   1.010
89918W        W62233  15.197  20.848  12.682
89919W        W62234   8.719  35.034   4.230
89920W        W62235  39.344  19.036  10.791
89921W        W62236  30.240  37.587  12.004
89922W        W62237  44.418  19.751   1.553
89923W        W62238  27.591   9.381  12.800
89924W        W62239  22.300   7.617   0.815
89925W        W62240  11.770  17.001   2.150
89926W        W62241  27.625   8.959   1.317
89927W        W62242  35.062  31.083  13.757
89928W        W62243  32.106   9.147  14.866
89929W        W62244   0.635  24.160  12.397
89930W        W62245  40.536   7.102  13.163
89931W        W62246   7.417  22.174  12.935
89932W        W62247  31.748  35.930   3.644
89933W        W62248  30.047  29.820   3.140
89934W        W62249  14.103  27.379   0.767
89935W        W62250  26.470   7.301  13.740
89936W        W62251   3.290   0.043  11.415
89937W        W62252   0.892  42.497   3.198
89938W        W62253  10.303   5.400  12.229
89939W        W62254  11.762   3.418  12.969
89940W        W62255  36.061  18.708  14.457
89941W        W62256  27.475   0.141   2.373
89942W        W62257  15.984  13.279  12.214
89943W        W62258   3.434   1.794  11.867
89944W        W62259  38.554   5.456   3.261
89945W        W62260  14.794   7.855   2.277
89946W        W62261  19.929  23.536  10.991
89947W        W62262  21.869   8.191   4.432
89948W        W62263  16.281  35.517  11.684
89949W        W62264  35.586  19.204   0.724
89950W        W62265  39.691  29.017   3.101
89951W        W62266  38.930   9.043   2.636
89952W        W62267   7.608   3.736  10.824
89953W        W62268  28.839  18.790  11.155
89954W        W62269  13.621  34.162   4.617
89955W        W62270  17.093  30.758  12.744
89956W        W62271   0.480   3.621  13.729
89957W        W62272   1.858   6.606   2.487
89958W        W62273  16.108  33.436  11.676
89959W        W62274  22.066  20.850  14.877
89960W        W62275  15.734  17.208  11.709
89961W        W62276   1.014  43.973   0.573
89962W        W62277  34.904  10.650   3.335
89963W        W62278  39.046  27.164  14.957
89964W        W62279  22.723  24.120  10.595
89965W        W62280  19.622  18.420  12.483
89966W        W62281  39.106  17.280  13.565
89967W        W62282  29.625  17.789  10.878
89968W        W62283   5.184  18.780   2.302
89969W        W62284  31.401  15.729  13.846
89970W        W62285  28.647  37.737  14.400
89971W        W62286  36.872  11.170  10.973
89972W        W62287  29.096   7.421   4.455
89973W        W62288  20.193  21.090   3.309
89974W        W62289  22.211  36.667  11.989
89975W        W62290   9.095  34.303   0.312
89976W        W62291  14.095  25.965  12.588
89977W        W62292  41.475   3.650  13.463
89978W        W62293  26.928   6.186  11.489
89979W        W62294  33.897  35.876   0.345
89980W        W62295  21.414  23.446   3.277
89981W        W62296  11.197  33.241  11.106
89982W        W62297  16.178  29.676  10.559
89983W        W62298   8.433  16.210   0.921
89984W        W62299  28.106  37.649   2.214
89985W        W62300  36.549  41.397   0.887
89986W        W62301  29.175  18.109   1.276
89987W        W62302  25.108  21.273   3.297
89988W        W62303  32.050  22.532  14.806
89989W        W62304   1.601  16.842  11.544
89990W        W62305  44.866  17.874  13.882
89991W        W62306   8.620   6.391  12.133
89992W        W62307  14.620  19.016  12.043
89993W        W62308  41.663  20.753   2.870
89994W        W62309  15.831  42.340   0.444
89995W        W62310  26.504  25.750  11.956
89996W        W62311  38.862  22.233  13.511
89997W        W62312  15.825   9.330  13.803
89998W        W62313  10.726  19.525   9.764
89999W        W62314  41.576  35.831  14.545
90000W        W62315  39.002  32.985  11.693
90001W        W62316  21.078  30.933   1.312
90002W        W62317  10.566  40.107  12.421
90003W        W62318   4.158  33.841   1.395
90004W        W62319  22.229  42.966   5.061
90005W        W62320  26.256  43.004   2.476
90006W        W62321  27.428  26.947   2.228
90007W        W62322   1.409  39.593   0.856
90008W        W62323  13.720  21.107  10.951
90009W        W62324  41.965  18.619   0.676
90010W        W62325  13.744  30.855   3.395
90011W        W62326  38.489  33.844   3.102
90012W        W62327  29.061  23.832   3.218
90013W        W62328  35.558  18.099   2.544
90014W        W62329  43.352   6.741  12.970
90015W        W62330  41.821  27.637  12.582
90016W        W62331   1.808   2.909  11.445
90017W        W62332  37.885  13.689  14.435
90018W        W62333  27.447   5.292  11.597
90019W        W62334   2.826   3.856  12.421
90020W        W62335  24.083   2.862  12.886
90021W        W62336  40.325  20.634   3.341
90022W        W62337  23.325   5.962   2.183
90023W        W62338  22.633   5.467   0.191
90024W        W62339   5.889  28.061  10.588
90025W        W62340  33.097  21.385   3.799
90026W        W62341  35.976  33.867   1.939
90027W        W62342  25.273  21.462   2.308
90028W        W62343   5.201  39.420   2.779
90029W        W62344  38.545  10.107  11.436
90030W        W62345   1.371  24.084   4.292
90031W        W62346   4.935   1.775   2.416
90032W        W62347  22.942  23.697  11.475
90033W        W62348  21.676  44.909   4.125
90034W        W62349  29.498  41.113  14.914
90035W        W62350  28.202   3.832  13.777
90036W        W62351  30.441  14.121  12.093
90037W        W62352  29.486  12.353   3.292
90038W        W62353  16.652  36.023  12.439
90039W        W62354  26.984  13.180  13.516
90040W        W62355  44.935  12.932  11.988
90041W        W62356  20.281  38.722  11.470
90042W        W62357  13.103  18.062  13.318
90043W        W62358  29.871  40.963  10.986
90044W        W62359  22.169  10.578  13.886
90045W        W62360  40.465  42.883  12.484
90046W        W62361  40.521  26.178  14.693
90047W        W62362  43.950  15.858   2.823
90048W        W62363  23.493  28.023   1.205
90049W        W62364  11.264  13.107  14.000
90050W        W62365  34.050  22.381  12.839
90051W        W62366  41.150  44.497   2.519
90052W        W62367   9.749  35.021  14.969
90053W        W62368  15.672  18.589  12.802
90054W        W62369   1.656  16.840  12.477
90055W        W62370  29.794  42.478   4.258
90056W        W62371  32.105  31.920   1.294
90057W        W62372  35.382  26.649   1.350
90058W        W62373  25.947  24.198  11.146
90059W        W62374  12.326  36.089   2.647
90060W        W62375  27.658  34.096   0.766
90061W        W62376   1.945  26.512   1.251
90062W        W62377  12.273  13.161  13.240
90063W        W62378  33.885  31.091  12.814
90064W        W62379  23.946  14.269  11.569
90065W        W62380   8.324  28.503  13.795
90066W        W62381  30.968  10.844  11.079
90067W        W62382  12.217  28.613  13.374
90068W        W62383  15.590  30.591   0.261
90069W        W62384  43.706   2.712  14.822
90070W        W62385  14.048   7.907   1.991
90071W        W62386  42.340  19.982  12.499
90072W        W62387   0.317  13.540   4.963
90073W        W62388  23.914  43.190  10.241
90074W        W62389  17.643   5.035  12.651
90075W        W62390   1.467  18.660  14.979
90076W        W62391  26.861  31.611  14.856
90077W        W62392  22.947  25.450   0.739
90078W        W62393  11.087  41.524  14.471
90079W        W62394  31.538   6.300  11.741
90080W        W62395   9.191  28.366  11.061
90081W        W62396  26.105  13.585  11.389
90082W        W62397  21.386  41.082  12.117
90083W        W62398  38.090  43.055  12.674
90084W        W62399  12.651  19.299  12.962
90085W        W62400  44.392  38.603   1.621
90086W        W62401  31.356  19.937   2.365
90087W        W62402  35.049   3.931  12.531
90088W        W62403   0.045  44.699  11.085
90089W        W62404  17.629  10.829   5.608
90090W        W62405  40.642   9.896  12.572
90091W        W62406  44.717  12.391   4.171
90092W        W62407  43.780  11.757  11.070
90093W        W62408  25.444  18.574  12.091
90094W        W62409  32.377  40.427  11.638
90095W        W62410  29.180   7.583  11.021
90096W        W62411  22.606  32.570   1.923
90097W        W62412  40.827   7.254  12.333
90098W        W62413  13.049  39.097   3.189
90099W        W62414   9.913  17.797   2.266
90100W        W62415  34.385  44.944  13.007
90101W        W62416  18.494  16.919  10.813
90102W        W62417  30.830  10.194  12.453
90103W        W62418  21.508  22.211  14.473
90104W        W62419  31.379   7.303   3.293
90105W        W62420   3.859  37.962   3.099
90106W        W62421  43.825  29.546  13.734
90107W        W62422  41.064   1.076  11.007
90108W        W62423  23.137  29.866   3.380
90109W        W62424   8.112   5.737  12.535
90110W        W62425  39.524  34.078   4.650
90111W        W62426  38.536  21.328  11.531
90112W        W62427  36.572   7.855  12.888
90113W        W62428  17.204   3.338  14.318
90114W        W62429  12.263   1.023  12.486
90115W        W62430   9.321   7.682   1.864
90116W        W62431  35.193  43.199   2.587
90117W        W62432  36.279  30.587   1.260
90118W        W62433  39.217  23.126   9.367
90119W        W62434  10.800  34.504   3.278
90120W        W62435  17.156   2.042   4.126
90121W        W62436   0.955   2.344   3.098
90122W        W62437  32.579  34.402   0.515
90123W        W62438  20.191   7.227  14.189
90124W        W62439  27.335  27.115   0.004
90125W        W62440  17.368  26.217  11.577
90126W        W62441  38.099  41.686  14.308
90127W        W62442  39.230   1.073   0.040
90128W        W62443  12.241  35.650   0.692
90129W        W62444  41.751  28.996  11.969
90130W        W62445  38.143   1.145   0.544
90131W        W62446  44.778  23.757   4.571
90132W        W62447  11.311  31.029  14.304
90133W        W62448   6.174   1.011   0.278
90134W        W62449  13.617  36.455  12.865
90135W        W62450  42.756   1.215   4.097
90136W        W62451  30.381  30.359  13.524
90137W        W62452   9.533  36.019  13.759
90138W        W62453   2.928  31.656   2.672
90139W        W62454   0.903  36.438  10.205
90140W        W62455  28.095  13.777  14.923
90141W        W62456  12.193  39.481   0.207
90142W        W62457  11.233   0.847  11.923
90143W        W62458   7.226  11.380  11.029
90144W        W62459   8.384  22.482  12.565
90145W        W62460  26.584   5.178   0.327
90146W        W62461   4.192  42.054  13.744
90147W        W62462  37.281  40.752   0.349
90148W        W62463  13.767  22.028  12.950
90149W        W62464   2.191  23.071   1.194
90150W        W62465  11.554  16.670   0.328
90151W        W62466  12.121   2.942   3.411
90152W        W62467  32.459  33.473  10.315
90153W        W62468   1.994   7.163  12.667
90154W        W62469  12.088  34.028   3.461
90155W        W62470  38.555  21.803   2.982
90156W        W62471  36.887  40.314   0.916
90157W        W62472  41.242  42.033  11.978
90158W        W62473   6.229  44.346  10.682
90159W        W62474   0.999  40.646  10.399
90160W        W62475   0.652   7.217   0.904
90161W        W62476  30.098  20.959   1.279
90162W        W62477  41.298  32.083  11.044
90163W        W62478  40.236  24.754   3.703
90164W        W62479   9.430  29.070   2.151
90165W        W62480  37.868  37.948  14.003
90166W        W62481  18.546  19.871  14.604
90167W        W62482  26.053   3.145   0.119
90168W        W62483  41.459   2.434   3.794
90169W        W62484  44.956  29.690   3.363
90170W        W62485  44.765   1.831  12.959
90171W        W62486  30.508  25.637  12.891
90172W        W62487  15.901  21.558   4.199
90173W        W62488   6.897  18.833   1.879
90174W        W62489   1.779   8.379   0.880
90175W        W62490   1.066  19.057   2.049
90176W        W62491  20.250  27.724  11.219
90177W        W62492  41.999  22.217   1.266
90178W        W62493   0.850  18.378   2.722
90179W        W62494  19.128   7.896   4.693
90180W        W62495  33.875  29.301  12.549
90181W        W62496  39.430  31.567   1.325
90182W        W62497  41.379  42.328  13.869
90183W        W62498   9.923  34.927  13.326
90184W        W62499  41.123  13.138   4.316
90185W        W62500  27.467  12.676  11.161
90186W        W62501  11.099  21.179  12.434
90187W        W62502  22.909   9.186  12.995
90188W        W62503  17.652   5.953  14.953
90189W        W62504  35.285  41.863   2.834
90190W        W62505  37.185  34.909   3.192
90191W        W62506  32.854  13.192  13.375
90192W        W62507  13.227   1.448   0.560
90193W        W62508  35.188  17.189   3.646
90194W        W62509  20.146  32.748   0.933
90195W        W62510   4.107  40.838   3.329
90196W        W62511  25.497  35.576   2.636
90197W        W62512   3.864   8.334  13.191
90198W        W62513  41.269  14.051   2.310
90199W        W62514   5.692  20.324   4.085
90200W        W62515  30.031  12.072  14.492
90201W        W62516  19.585  19.221  12.850
90202W        W62517  19.484   0.428  11.668
90203W        W62518  17.670  25.006   2.134
90204W        W62519  38.543  42.685   1.156
90205W        W62520  17.633   5.771   4.644
90206W        W62521  20.362   5.766  10.138
90207W        W62522  31.133  29.094   4.541
90208W        W62523  39.872  18.726   1.870
90209W        W62524   3.826  20.030   4.484
90210W        W62525  23.723  37.598   4.091
90211W        W62526  37.007  44.894  13.989
90212W        W62527   6.881   6.298   0.940
90213W        W62528  25.464   3.857   3.271
90214W        W62529  22.390  33.535   1.813
90215W        W62530  22.994   3.485   3.217
90216W        W62531   2.972  24.793   3.231
90217W        W62532  18.975  11.242  10.212
90218W        W62533  44.307  28.644   4.494
90219W        W62534  17.084  25.919  11.923
90220W        W62535  17.313  37.913   0.853
90221W        W62536   4.969  27.200  11.146
90222W        W62537  17.270  19.079   4.348
90223W        W62538   5.349   8.229  10.987
90224W        W62539   9.154  16.007  13.102
90225W        W62540  11.601  37.022   4.883
90226W        W62541   1.468  32.393  12.621
90227W        W62542  29.196  41.452   3.923
90228W        W62543   0.282  41.271   4.083
90229W        W62544  20.647   2.012   3.176
90230W        W62545  36.871  18.805  12.760
90231W        W62546   7.450   3.228  10.786
90232W        W62547  32.068  11.708  14.263
90233W        W62548  27.687  20.269  12.943
90234W        W62549  15.767  14.600   1.479
90235W        W62550   2.797  31.867   1.822
90236W        W62551   9.487  13.001   1.959
90237W        W62552  27.389  13.321   4.669
90238W        W62553  28.457  25.202  14.937
90239W        W62554  14.510  14.106  14.128
90240W        W62555  34.323  32.624   3.132
90241W        W62556  44.753  11.155   0.455
90242W        W62557   9.060  22.264  13.346
90243W        W62558  35.474  41.248  13.784
90244W        W62559   2.526  34.682  10.125
90245W        W62560   7.309  13.186   3.332
90246W        W62561   3.914  19.251  12.128
90247W        W62562  21.302  41.348   3.665
90248W        W62563  41.771  14.078   2.359
90249W        W62564   9.455   2.820  14.505
90250W        W62565   1.874   2.506  12.224
90251W        W62566  23.985  17.516  11.169
90252W        W62567  35.596  16.250  12.821
90253W        W62568  17.432  30.188  13.370
90254W        W62569   5.888   7.380  12.275
90255W        W62570   4.962  42.792   1.512
90256W        W62571  10.076   5.397  14.018
90257W        W62572  32.449   5.154  14.020
90258W        W62573  36.368  34.692  14.030
90259W        W62574  38.028  23.669   4.162
90260W        W62575  28.610  12.831  12.980
90261W        W62576  16.753  18.626  14.049
90262W        W62577   6.533  44.969   3.303
90263W        W62578   2.834  40.816   4.350
90264W        W62579  29.449  41.243   1.019
90265W        W62580  10.148  24.677   4.384
90266W        W62581  12.082  21.592   0.789
90267W        W62582  31.774   1.386  11.148
90268W        W62583  38.919  11.633   2.606
90269W        W62584  34.388  39.426  11.056
90270W        W62585   7.200  34.162  12.458
90271W        W62586   7.301   1.248  11.259
90272W        W62587  16.954  40.886   0.349
90273W        W62588  17.752  33.375   3.837
90274W        W62589   7.130  18.696  13.128
90275W        W62590  17.741  25.804   3.598
90276W        W62591  14.072  11.027   2.634
90277W        W62592  28.555  17.278   2.935
90278W        W62593  22.482  25.423   4.829
90279W        W62594   4.264   6.188  14.742
90280W        W62595  18.115  42.975  13.232
90281W        W62596   2.834  12.114  10.631
90282W        W62597  15.793  34.947  12.420
90283W        W62598  39.466  14.463   3.493
90284W        W62599  26.859   0.786   3.648
90285W        W62600  30.944  30.862  11.607
90286W        W62601  29.034  35.912   3.798
90287W        W62602   6.698  19.194   4.262
90288W        W62603  33.175  24.138   3.110
90289W        W62604  13.083   3.478  10.781
90290W        W62605  34.951  41.814  14.694
90291W        W62606   2.675  32.920   1.914
90292W        W62607   3.568  11.429  14.871
90293W        W62608  41.867  37.028   1.721
90294W        W62609  31.987  25.195  13.411
90295W        W62610   1.721  28.058  12.890
90296W        W62611  16.216   6.645  14.412
90297W        W62612  14.064  42.408  12.127
90298W        W62613  39.804  43.332   1.010
90299W        W62614  31.656  18.005  13.791
90300W        W62615  26.526  27.379   4.497
90301W        W62616  29.211  43.821   0.852
90302W        W62617   2.547  11.672  14.277
90303W        W62618  39.481  33.597  14.999
90304W        W62619   0.756  38.920   4.454
90305W        W62620   6.456   3.818  10.217
90306W        W62621   3.993  31.150   1.654
90307W        W62622  30.929  22.248   0.309
90308W        W62623  34.912   8.156  12.366
90309W        W62624  38.451   4.359   2.336
90310W        W62625  26.708  24.722  12.035
90311W        W62626   8.807  31.042   0.037
90312W        W62627   3.223  27.349   4.142
90313W        W62628  16.641  38.606   5.257
90314W        W62629  20.156  17.140  10.670
90315W        W62630  42.622   6.389   1.445
90316W        W62631  36.530  29.485   2.742
90317W        W62632  20.068  25.676   0.595
90318W        W62633   4.685  31.206  14.471
90319W        W62634  24.140   4.281  13.108
90320W        W62635   9.896  10.705  13.925
90321W        W62636  36.906  43.871   4.954
90322W        W62637  14.258  41.572   1.187
90323W        W62638  31.110   5.453  11.117
90324W        W62639   2.958  37.202  12.035
90325W        W62640  24.213  10.925  11.485
90326W        W62641   0.847  44.125   5.025
90327W        W62642   8.742  30.582  11.964
90328W        W62643  33.236  35.056   3.182
90329W        W62644  30.884  15.355   2.339
90330W        W62645  41.412   3.206  14.799
90331W        W62646   8.208   3.017  12.726
90332W        W62647   6.857  19.203  11.076
90333W        W62648  28.952  37.227   1.889
90334W        W62649   1.456  40.999  13.128
90335W        W62650  26.369  35.011   2.299
90336W        W62651  32.605  43.872  12.110
90337W        W62652  33.748  38.702   3.459
90338W        W62653  29.559   7.935  14.432
90339W        W62654  25.691  30.960   4.319
90340W        W62655  10.869   0.352   4.566
90341W        W62656  30.505  15.240  11.120
90342W        W62657  12.604   2.970   3.618
90343W        W62658  44.241   5.048  12.435
90344W        W62659  40.491  35.596  12.564
90345W        W62660  10.272  11.109  10.681
90346W        W62661  17.143   9.746  12.640
90347W        W62662  22.621   2.027   4.163
90348W        W62663  20.040  28.437  11.661
90349W        W62664  12.117  39.849  11.508
90350W        W62665  43.982   3.347   9.973
90351W        W62666  12.917   0.282  13.770
90352W        W62667   9.092  24.128   0.780
90353W        W62668  40.729  39.842   3.391
90354W        W62669   4.014  32.043   3.135
90355W        W62670  25.587  18.178  14.825
90356W        W62671  30.885  27.146   1.925
90357W        W62672  24.667  43.505   1.555
90358W        W62673  27.144  38.372   3.118
90359W        W62674  13.661  23.532  13.895
90360W        W62675   0.626  16.619   0.842
90361W        W62676  22.162  43.036  13.373
90362W        W62677   2.383  13.572  12.624
90363W        W62678  12.041  18.677  11.680
90364W        W62679  10.984  44.757  13.763
90365W        W62680  26.062  12.628  13.308
90366W        W62681  16.880  36.784   0.320
90367W        W62682   8.308   2.661   1.800
90368W        W62683  19.921  15.752   2.902
90369W        W62684  20.526   8.354  14.257
90370W        W62685  27.715   1.018  10.967
90371W        W62686   4.910   4.025  13.958
90372W        W62687  44.907   7.338   1.613
90373W        W62688   7.351  21.210   3.827
90374W        W62689  29.389  39.931  13.732
90375W        W62690  33.130  35.015  11.525
90376W        W62691  20.846   9.101   5.432
90377W        W62692  20.649   9.835   5.143
90378W        W62693   0.009  31.498  13.005
90379W        W62694  32.044  44.751  12.326
90380W        W62695  34.819  44.229  11.212
90381W        W62696  24.320  34.465   4.102
90382W        W62697  35.827  43.937   2.706
90383W        W62698  16.171  28.417  12.538
90384W        W62699  40.268  10.076  12.885
90385W        W62700  11.581  23.793  12.562
90386W        W62701   7.591   5.512   3.366
90387W        W62702  18.053  33.727   4.070
90388W        W62703  20.151  27.212   2.239
90389W        W62704  32.533   9.438  13.604
90390W        W62705   4.708  11.650   2.855
90391W        W62706  10.860  22.855  12.659
90392W        W62707  39.446  13.537   0.343
90393W        W62708  33.107  37.436   3.218
90394W        W62709  24.935  34.912  14.971
90395W        W62710  31.102   3.150   0.352
90396W        W62711  10.317  13.304   2.168
90397W        W62712  26.523  16.202   2.899
90398W        W62713  28.293   7.533  14.820
90399W        W62714  14.235  39.061   4.091
90400W        W62715  39.071   6.153  12.447
90401W        W62716  17.741  36.772  12.970
90402W        W62717  38.218  19.449   1.418
90403W        W62718  20.659   3.902   0.684
90404W        W62719   4.223  14.400  12.550
90405W        W62720  29.168  14.744   0.039
90406W        W62721  31.890  40.564   1.279
90407W        W62722  21.413  29.221  12.432
90408W        W62723  26.615  39.307   1.230
90409W        W62724  44.758  23.408  13.416
90410W        W62725  18.126  20.454  13.813
90411W        W62726  15.177  34.439   1.618
90412W        W62727  22.090  14.237   0.246
90413W        W62728  30.994  23.774   1.233
90414W        W62729  35.949  15.402  14.453
90415W        W62730  30.991   0.822  13.870
90416W        W62731  27.134  24.728   4.075
90417W        W62732   4.332  29.904  13.063
90418W        W62733  41.761  31.166   1.399
90419W        W62734  31.395  10.872   3.226
90420W        W62735  30.817  24.551   1.018
90421W        W62736   3.425  29.611   1.809
90422W        W62737  16.202   2.938   0.089
90423W        W62738   7.766  33.794   2.029
90424W        W62739  25.433  18.190   0.845
90425W        W62740  25.417  19.242  11.622
90426W        W62741  24.208   3.885  14.898
90427W        W62742  42.284  36.733   2.487
90428W        W62743  18.593  17.983  10.804
90429W        W62744   1.001   7.319  12.398
90430W        W62745   7.655  20.941  13.416
90431W        W62746  43.775   7.741   0.340
90432W        W62747  34.047  10.740   0.546
90433W        W62748  35.606  10.160   1.789
90434W        W62749  30.016  28.095  14.692
90435W        W62750   8.413  11.242   4.059
90436W        W62751  39.200  35.514  12.125
90437W        W62752  33.687   0.534   2.153
90438W        W62753  35.199  35.403  12.982
90439W        W62754  38.778  25.434  12.748
90440W        W62755  40.302  10.939   3.168
90441W        W62756  33.474  22.353   4.833
90442W        W62757   6.664  14.765   1.500
90443W        W62758  34.970  43.332   2.125
90444W        W62759   0.020  32.077  12.323
90445W        W62760  28.091  34.024   4.959
90446W        W62761  26.099  17.336   3.792
90447W        W62762   1.052  43.703  13.874
90448W        W62763  39.506  22.650   1.402
90449W        W62764  39.391  18.109  11.775
90450W        W62765  34.495  21.726   2.914
90451W        W62766   4.454  29.367   2.934
90452W        W62767  18.319  39.657  11.112
90453W        W62768  26.710  22.574  11.938
90454W        W62769   4.725  21.620  10.743
90455W        W62770  17.185   2.944   4.169
90456W        W62771   4.676   5.383  14.247
90457W        W62772  10.654  22.408  11.814
90458W        W62773   6.976  25.633  13.447
90459W        W62774  24.526  24.193  14.426
90460W        W62775  31.696  28.640   0.266
90461W        W62776  39.697  19.557   4.773
90462W        W62777  39.068  10.431   3.286
90463W        W62778  22.269  30.553   2.123
90464W        W62779  36.331  12.405  11.136
90465W        W62780  35.089  23.922   3.154
90466W        W62781  38.248  44.985   4.087
90467W        W62782   2.163  42.535  11.961
90468W        W62783  40.066  41.603   4.117
90469W        W62784  43.461  42.067  11.992
90470W        W62785   7.867  24.789  10.662
90471W        W62786  39.956  40.489   3.108
90472W        W62787  16.500  44.425  10.369
90473W        W62788   9.164   5.184   2.747
90474W        W62789  24.589  10.348   0.543
90475W        W62790  38.342  41.670   2.418
90476W        W62791  12.642   3.531  13.693
90477W        W62792  18.351  15.555   0.348
90478W        W62793  36.129  37.464  14.834
90479W        W62794   8.620  10.167  12.424
90480W        W62795  34.600  23.571   4.536
90481W        W62796  31.690  37.350   2.961
90482W        W62797  37.431  42.992   1.709
90483W        W62798  21.407  12.934   0.143
90484W        W62799   9.912   7.938   3.150
90485W        W62800   5.484  24.261   0.402
90486W        W62801  43.588   5.806   3.670
90487W        W62802  33.710  44.003  10.103
90488W        W62803  32.829  20.254  13.948
90489W        W62804   6.705  41.097   3.577
90490W        W62805   1.141  38.970  11.682
90491W        W62806   7.306  40.536   0.816
90492W        W62807  15.577   2.101  11.127
90493W        W62808  30.905  21.503  14.795
90494W        W62809  29.800  17.631  11.457
90495W        W62810  23.421   3.785   0.392
90496W        W62811  30.656  12.841  10.420
90497W        W62812  41.808  11.148   3.620
90498W        W62813   3.784   3.146  14.933
90499W        W62814   4.064  33.046   4.283
90500W        W62815  33.651  25.032   3.158
90501W        W62816  19.704  12.471  10.907
90502W        W62817  43.344  19.339  13.360
90503W        W62818  20.804   9.611   2.302
90504W        W62819  23.523  29.537   0.986
90505W        W62820  21.336  12.016   3.213
90506W        W62821  44.821  22.150  10.502
90507W        W62822  26.187   4.929  12.888
90508W        W62823  10.387  33.912   1.200
90509W        W62824  35.095  38.737   4.933
90510W        W62825  32.600  44.482   4.172
90511W        W62826  22.196   2.850  11.523
90512W        W62827  42.707  43.925   0.006
90513W        W62828  19.289  27.920  13.849
90514W        W62829  25.336  42.732   4.029
90515W        W62830  44.338   5.086   5.093
90516W        W62831  25.639   2.171  11.215
90517W        W62832  36.785  14.101  14.787
90518W        W62833  29.918  13.341   4.006
90519W        W62834  33.674  13.869   1.309
90520W        W62835  26.673   7.984  10.718
90521W        W62836   0.477   4.426   3.746
90522W        W62837  38.842  36.570  13.473
90523W        W62838  23.740  33.875   4.278
90524W        W62839  17.896   5.538  12.487
90525W        W62840  34.970  12.638  13.060
90526W        W62841   9.776  12.078   1.394
90527W        W62842  21.157  29.058   4.563
90528W        W62843  32.675   9.837  11.060
90529W        W62844   5.254  20.589  12.493
90530W        W62845  37.560  15.732  14.678
90531W        W62846  11.266  37.826   5.126
90532W        W62847  23.748  14.038   2.004
90533W        W62848  30.566   0.775   4.542
90534W        W62849  26.210  33.417   1.297
90535W        W62850  29.691  26.017   3.268
90536W        W62851   5.064  44.991  11.652
90537W        W62852   5.216   0.579  12.524
90538W        W62853   9.919  29.879  11.168
90539W        W62854  31.012  23.969   1.758
90540W        W62855   6.458  19.976   3.104
90541W        W62856   3.654   2.219  14.855
90542W        W62857  26.640  15.343  11.038
90543W        W62858  28.079   3.429  13.231
90544W        W62859  15.154  17.991   1.554
90545W        W62860  41.062  32.945   1.830
90546W        W62861  31.554  29.530  14.560
90547W        W62862  37.590  20.996  13.497
90548W        W62863  20.085   8.437   2.766
90549W        W62864  14.161   5.269  10.685
90550W        W62865  34.516   7.538  11.303
90551W        W62866   3.598  35.895   4.996
90552W        W62867  39.761  13.346  14.949
90553W        W62868  29.595  33.612   1.227
90554W        W62869  23.247  41.055  12.044
90555W        W62870  24.766  27.706   0.325
90556W        W62871  44.428  17.035   0.841
90557W        W62872   4.002  23.386  11.547
90558W        W62873  18.527  22.389  10.248
90559W        W62874   2.454   4.920  13.749
90560W        W62875   7.494  29.984  13.766
90561W        W62876  19.517  29.997   1.444
90562W        W62877  19.770   6.288   2.847
90563W        W62878  38.531   7.923   3.135
90564W        W62879  39.920   0.606   1.812
90565W        W62880  12.433   0.049   4.141
90566W        W62881  43.037  39.476  11.194
90567W        W62882  41.418  19.118  12.248
90568W        W62883   2.464   4.859  11.511
90569W        W62884  20.582  14.227   4.519
90570W        W62885  41.771  40.116  11.628
90571W        W62886  35.060   1.839   2.121
90572W        W62887  23.692  14.413   2.413
90573W        W62888  34.025  44.731   3.410
90574W        W62889   7.085  19.236   1.609
90575W        W62890  10.738   5.363  14.201
90576W        W62891  40.126  37.134   0.139
90577W        W62892  12.204  33.284   0.065
90578W        W62893  15.190  12.410  13.512
90579W        W62894  15.625  44.000  11.563
90580W        W62895   4.442  32.644  12.059
90581W        W62896  29.447  31.377   4.200
90582W        W62897  14.487  44.274   2.933
90583W        W62898   5.417   6.384  13.841
90584W        W62899  38.887   2.372  11.363
90585W        W62900  43.598  30.898   0.984
90586W        W62901  40.006  10.018  14.992
90587W        W62902  12.385  20.347  13.833
90588W        W62903  29.546  30.050  11.444
90589W        W62904  29.498   0.709   2.214
90590W        W62905  14.461   6.730  11.899
90591W        W62906  23.213  29.027   1.384
90592W        W62907  17.783   5.496   2.672
90593W        W62908  12.209   6.004  13.134
90594W        W62909  39.715  17.217   3.779
90595W        W62910  32.822  12.362  11.162
90596W        W62911  36.413  17.534   0.534
90597W        W62912  35.958  20.507  12.094
90598W        W62913  11.137  19.116  14.274
90599W        W62914  37.608  44.401  12.552
90600W        W62915   6.479  28.078   3.800
90601W        W62916  22.857   1.714   2.694
90602W        W62917   7.308  40.398   3.660
90603W        W62918  17.082  18.248   3.266
90604W        W62919  38.104  30.042   5.098
90605W        W62920   8.664   4.859   0.940
90606W        W62921  35.995  11.370   0.819
90607W        W62922   0.450  36.879   0.192
90608W        W62923  36.534   3.963  13.801
90609W        W62924  23.206  36.658   1.573
90610W        W62925  20.780  38.273   0.360
90611W        W62926  27.292  17.200  12.593
90612W        W62927   7.967   2.178  12.904
90613W        W62928  24.538  37.001   1.294
90614W        W62929  22.417  37.142  10.979
90615W        W62930  11.639  27.919   2.395
90616W        W62931  32.980  39.121  11.059
90617W        W62932  44.397   1.419  14.799
90618W        W62933  22.495  22.182  11.059
90619W        W62934  27.936   2.161  12.990
90620W        W62935  35.913  29.371   0.684
90621W        W62936   7.159  36.557  14.777
90622W        W62937  11.297  25.931   0.211
90623W        W62938   8.886   6.366   3.191
90624W        W62939  25.694  25.522  10.870
90625W        W62940  41.448  39.759   0.278
90626W        W62941   9.360  27.593  11.606
90627W        W62942  13.622   3.447  13.417
90628W        W62943  22.354  33.034  14.251
90629W        W62944  36.353  15.585   0.550
90630W        W62945  42.479   2.183  11.677
90631W        W62946  17.672  32.107  13.582
90632W        W62947  32.534  42.935  11.695
90633W        W62948   2.979   2.919  14.827
90634W        W62949  37.120  19.153   3.880
90635W        W62950  29.883  14.341  12.944
90636W        W62951  25.100  22.907  11.618
90637W        W62952  31.485  24.444  12.958
90638W        W62953  39.033   9.989   1.311
90639W        W62954  44.182  44.370   3.734
90640W        W62955  13.389  28.088  11.104
90641W        W62956  41.604  10.687   2.142
90642W        W62957  32.868  24.573   0.868
90643W        W62958  34.408  29.258  14.397
90644W        W62959  13.587  17.765  11.971
90645W        W62960  42.476  30.131   1.550
90646W        W62961   1.344  11.248  11.711
90647W        W62962  12.179  21.000  14.499
90648W        W62963  28.594   8.588   2.340
90649W        W62964  41.963  40.083  10.950
90650W        W62965  29.469   8.791   2.904
90651W        W62966  21.197  27.890  12.456
90652W        W62967   2.491  31.990   2.383
90653W        W62968  29.302  32.962  11.436
90654W        W62969  19.775  35.525  11.620
90655W        W62970  20.167  41.897   1.136
90656W        W62971  23.046  34.436  14.666
90657W        W62972  22.194  15.028   3.061
90658W        W62973  27.738  31.858  14.802
90659W        W62974  25.754  24.199   2.101
90660W        W62975  33.660  31.900   0.499
90661W        W62976  20.322  19.662   4.246
90662W        W62977  40.615   9.304  11.744
90663W        W62978  29.125  35.984   3.292
90664W        W62979  40.778   7.838   3.829
90665W        W62980  38.076  25.121  11.614
90666W        W62981  34.123  20.731   2.377
90667W        W62982  34.290   9.652   3.762
90668W        W62983  30.162   1.842   1.967
90669W        W62984  12.802  29.024   1.844
90670W        W62985   9.402   5.819   4.451
90671W        W62986  36.757  42.000  13.639
90672W        W62987  14.776  15.364   1.818
90673W        W62988  42.788  12.216   1.302
90674W        W62989  17.206   7.428   2.274
90675W        W62990   0.379  39.758   4.397
90676W        W62991  33.467  15.070  11.574
90677W        W62992  41.348  23.769  13.525
90678W        W62993  31.433  12.320   4.074
90679W        W62994  11.395   4.863   0.816
90680W        W62995  22.542  44.997   1.421
90681W        W62996  35.642   1.238  14.965
90682W        W62997  39.609   3.771   2.776
90683W        W62998  10.412  21.873  11.628
90684W        W62999  44.018  26.949   4.579
90685W        W63000  36.837   1.811  14.561
90686W        W63001  23.309  21.171  14.425
90687W        W63002  15.329  12.813  11.973
90688W        W63003  31.492  37.312   1.681
90689W        W63004  39.151  42.179   4.688
90690W        W63005  10.697  17.082   0.292
90691W        W63006  35.302  40.633   3.317
90692W        W63007  28.266   8.816  12.930
90693W        W63008  32.992  29.443  13.493
90694W        W63009  41.430  24.032  13.069
90695W        W63010  29.709  10.838  12.360
90696W        W63011   6.696  39.719  14.517
90697W        W63012  13.042   9.638  12.959
90698W        W63013   1.871  44.704  13.006
90699W        W63014  31.081  18.978  13.500
90700W        W63015  23.090  13.384   4.537
90701W        W63016  41.279  16.151   2.231
90702W        W63017  17.262  30.176   4.523
90703W        W63018  33.816  39.356   1.810
90704W        W63019  41.795   2.224  14.823
90705W        W63020   2.166  44.438  10.023
90706W        W63021  31.950  41.266  13.878
90707W        W63022  43.374   2.377   0.797
90708W        W63023   9.384   7.105  13.954
90709W        W63024  16.307  41.519  12.489
90710W        W63025  29.463  44.336  10.426
90711W        W63026  10.634  10.371  13.510
90712W        W63027  11.182  24.170   0.007
90713W        W63028   5.839  21.582   2.620
90714W        W63029  43.899  21.539  10.778
90715W        W63030   3.597  18.211  12.403
90716W        W63031  12.690  33.923   2.821
90717W        W63032  44.693  20.290   3.660
90718W        W63033  43.422   1.239  11.069
90719W        W63034  22.870   0.294   1.813
90720W        W63035  23.148  16.670   3.209
90721W        W63036   5.084  40.648   0.213
90722W        W63037  19.266  30.721   4.082
90723W        W63038  13.671  28.758   3.002
90724W        W63039  28.681  15.528  13.510
90725W        W63040   4.118  26.693  13.896
90726W        W63041   4.333   0.383   1.262
90727W        W63042  32.974   3.169  11.589
90728W        W63043   8.509  10.836   1.823
90729W        W63044  24.107   5.887  14.892
90730W        W63045  42.274  37.788  14.881
90731W        W63046  11.341  19.340   4.131
90732W        W63047  35.567  41.277   4.568
90733W        W63048  33.772   4.976  14.956
90734W        W63049  15.048  37.000   4.448
90735W        W63050  10.762   5.315   3.413
90736W        W63051   9.932  20.254  12.580
90737W        W63052  39.245  40.323   0.773
90738W        W63053  18.048  35.632  12.066
90739W        W63054  43.793  43.260   0.853
90740W        W63055  29.022  13.771   0.895
90741W        W63056  36.550   0.517   3.267
90742W        W63057  33.716  23.271  12.495
90743W        W63058   1.284   6.296   1.822
90744W        W63059  25.535  28.676   4.728
90745W        W63060  34.312  19.494   1.928
90746W        W63061  27.060  22.646   3.456
90747W        W63062  41.771  34.469  13.764
90748W        W63063   6.816  32.327  12.460
90749W        W63064  44.321  36.211  10.649
90750W        W63065  23.498  16.177   3.802
90751W        W63066  13.722  35.413   3.433
90752W        W63067  18.029  25.048   2.758
90753W        W63068  29.874   6.671  11.586
90754W        W63069   3.712  37.952  12.364
90755W        W63070  20.646  11.290   0.892
90756W        W63071  14.066  35.895   3.301
90757W        W63072  13.862   6.198  11.572
90758W        W63073  29.958  24.010   3.192
90759W        W63074  23.184   5.232   1.352
90760W        W63075  40.032  30.376   2.139
90761W        W63076  11.926   9.065  11.530
90762W        W63077  14.469  23.250  14.292
90763W        W63078  18.791  18.852  11.959
90764W        W63079  39.856  28.610  11.714
90765W        W63080   3.402  29.291  11.203
90766W        W63081  40.449   2.303  13.535
90767W        W63082  34.985  13.372  11.489
90768W        W63083  22.428  39.778  13.986
90769W        W63084  26.641  16.150   0.486
90770W        W63085  35.976   5.816   3.873
90771W        W63086  19.629  28.445   1.471
90772W        W63087   8.884  18.098  13.032
90773W        W63088  32.482  39.039   1.820
90774W        W63089  32.016  12.703   4.644
90775W        W63090  44.705  28.979  14.313
90776W        W63091  25.376  39.567  11.879
90777W        W63092  25.264  26.660   1.895
90778W        W63093   3.299  34.887   2.978
90779W        W63094  44.529  29.550   2.792
90780W        W63095   6.242  16.589   0.475
90781W        W63096  30.935  18.314   9.855
90782W        W63097  21.086  18.322   1.199
90783W        W63098   2.758  37.887   2.216
90784W        W63099   6.961  29.679   0.198
90785W        W63100   8.904  34.201   4.584
90786W        W63101  42.781  38.085   0.514
90787W        W63102  43.674  19.545   4.305
90788W        W63103  42.036  31.926  10.531
90789W        W63104  25.143  32.479  11.688
90790W        W63105  35.241  26.275  14.059
90791W        W63106  31.156  13.748  12.937
90792W        W63107  29.098  13.348   2.657
90793W        W63108  14.280  38.287   1.040
90794W        W63109  38.577  34.673  13.097
90795W        W63110  10.277  38.617  13.534
90796W        W63111  12.596  14.678  14.876
90797W        W63112  24.753  31.345  11.976
90798W        W63113  10.254  38.635   1.309
90799W        W63114  14.815  17.560  14.315
90800W        W63115  31.776  42.867   4.873
90801W        W63116  21.118  44.043   2.353
90802W        W63117   0.654   2.667  12.148
90803W        W63118  34.975   2.252   3.969
90804W        W63119  17.586  26.776  14.017
90805W        W63120  32.658  13.244   3.241
90806W        W63121  42.887  24.008  12.967
90807W        W63122  10.616  11.299  11.816
90808W        W63123  24.132   8.095  12.765
90809W        W63124  44.367   2.749  10.656
90810W        W63125  42.753  34.780   0.792
90811W        W63126   5.945  26.047  10.683
90812W        W63127  37.039  35.347   0.483
90813W        W63128   2.360  26.502   4.728
90814W        W63129  33.946   5.662   4.070
90815W        W63130  42.580  23.152   2.662
90816W        W63131  36.790  16.542   3.247
90817W        W63132   1.996  17.652  12.945
90818W        W63133   9.267  35.885   1.506
90819W        W63134  25.797  36.348  12.915
90820W        W63135  14.862  24.155  13.749
90821W        W63136  33.448   7.224  11.953
90822W        W63137  34.077   0.642   3.630
90823W        W63138  29.910  41.314  11.741
90824W        W63139  20.202  27.127  13.040
90825W        W63140  34.562  34.620   3.361
90826W        W63141   3.387   2.752   0.703
90827W        W63142  43.369  20.537   0.113
90828W        W63143  20.345  31.366   1.848
90829W        W63144  17.287   3.305  12.769
90830W        W63145  43.684  27.320  11.150
90831W        W63146  15.732  43.531  13.844
90832W        W63147  18.042  24.948   4.583
90833W        W63148  27.546  29.372  11.164
90834W        W63149  37.523  25.720  11.237
90835W        W63150  26.244  23.879   4.840
90836W        W63151  41.778  27.274   0.827
90837W        W63152   5.219   3.217  14.365
90838W        W63153  13.856  29.452  11.924
90839W        W63154  17.009  33.648   0.487
90840W        W63155  13.764  10.190  13.522
90841W        W63156  19.193  41.262   1.417
90842W        W63157  25.070  30.047   4.586
90843W        W63158  17.549  30.358  10.509
90844W        W63159  31.003  16.138  11.068
90845W        W63160  32.090  32.961  12.120
90846W        W63161   0.978   2.311   4.055
90847W        W63162  11.887   0.227  12.345
90848W        W63163   8.549  38.397  14.958
90849W        W63164  36.493  14.014  11.524
90850W        W63165  12.083   0.276  13.319
90851W        W63166  10.763  12.224   1.816
90852W        W63167  23.532  41.971  13.300
90853W        W63168  26.695   8.583   2.300
90854W        W63169  22.302  21.560   2.871
90855W        W63170  32.116  39.769   2.906
90856W        W63171  30.071  21.073   0.757
90857W        W63172  29.365  20.996  11.027
90858W        W63173  21.203  38.507   4.527
90859W        W63174  33.510  17.877   0.432
90860W        W63175  39.575  13.726   4.756
90861W        W63176  34.604  18.273  13.323
90862W        W63177   7.610  40.407   3.210
90863W        W63178  27.203  38.592   3.604
90864W        W63179  30.160   2.679   2.087
90865W        W63180  21.134  37.523   3.359
90866W        W63181  40.406   3.559   4.746
90867W        W63182   0.580  33.470   4.308
90868W        W63183  21.536  20.635   1.239
90869W        W63184  29.620  37.414   1.983
90870W        W63185   2.270  13.617  10.762
90871W        W63186  29.052  19.694   1.147
90872W        W63187   2.193  35.514   4.217
90873W        W63188  26.037  28.882  13.468
90874W        W63189  43.491   3.458  13.152
90875W        W63190   9.266  44.117   0.365
90876W        W63191  15.221  17.887  13.878
90877W        W63192  36.093  11.345   4.633
90878W        W63193   3.258  27.049   3.217
90879W        W63194  17.884   2.788  14.536
90880W        W63195  25.567  23.220  13.015
90881W        W63196  24.081  30.393  13.417
90882W        W63197  25.089  17.711   1.871
90883W        W63198  17.530  10.330   0.749
90884W        W63199  44.687  19.483  10.986
90885W        W63200  24.995  22.431  12.389
90886W        W63201  35.122  44.710  11.138
90887W        W63202  27.380  13.658   4.252
90888W        W63203  13.787  41.256  14.996
90889W        W63204  36.540   3.026  13.041
90890W        W63205  11.767  11.575  13.416
90891W        W63206  11.096  36.404   4.769
90892W        W63207   7.311   5.435  14.918
90893W        W63208  11.428  17.314   4.550
90894W        W63209  24.795  21.782   5.061
90895W        W63210   9.923  12.710   3.639
90896W        W63211   8.856  30.667  11.076
90897W        W63212  12.800  27.715   4.238
90898W        W63213   1.156  32.348  13.022
90899W        W63214  17.251  25.590  13.493
90900W        W63215   2.898   9.998  14.829
90901W        W63216   9.911  34.090  12.465
90902W        W63217  15.825  15.208   4.526
90903W        W63218  24.754   3.857   0.762
90904W        W63219  36.095   0.816   1.705
90905W        W63220  42.848  34.434   3.738
90906W        W63221   4.842  37.021   0.332
90907W        W63222  18.751  27.476  14.196
90908W        W63223  25.523  41.985  11.249
90909W        W63224   5.746   1.062  14.285
90910W        W63225   7.416   7.414   0.801
90911W        W63226  25.675  32.527   3.645
90912W        W63227   5.363   1.380  11.152
90913W        W63228  13.147  41.528   3.159
90914W        W63229  33.398  13.172   3.841
90915W        W63230  35.944  19.721  12.519
90916W        W63231  27.546  17.147   4.718
90917W        W63232   1.229   1.228  14.096
90918W        W63233  40.042  17.235   0.067
90919W        W63234   0.797  34.527  10.629
90920W        W63235  33.935  28.043   4.066
90921W        W63236   3.310   9.976  10.666
90922W        W63237   7.149  18.485  14.821
90923W        W63238  25.560  39.983   3.796
90924W        W63239  22.238  41.357   3.489
90925W        W63240  32.479  19.343  12.618
90926W        W63241  31.155   4.039  11.252
90927W        W63242  21.935  22.466   1.338
90928W        W63243   0.344  34.696   2.857
90929W        W63244   7.381  13.179   4.366
90930W        W63245  37.065  17.667  12.890
90931W        W63246  19.026  36.855  11.481
90932W        W63247  38.059  36.249  12.257
90933W        W63248   9.586  35.313   2.698
90934W        W63249  16.886  44.857   2.881
90935W        W63250  20.724  35.877  12.987
90936W        W63251  27.234   6.438  10.215
90937W        W63252  24.459   9.227  11.197
90938W        W63253  20.987  38.822   0.759
90939W        W63254   1.771  37.524  10.887
90940W        W63255  32.527  40.578  12.126
90941W        W63256  30.433  36.815   1.652
90942W        W63257  40.035  24.230  13.532
90943W        W63258   3.312  20.182   0.779
90944W        W63259   9.140  28.635   3.352
90945W        W63260  43.314  43.247  13.997
90946W        W63261  33.007  39.977  12.980
90947W        W63262   2.834  19.434   5.138
90948W        W63263  21.193   2.371   1.184
90949W        W63264  21.778   9.685   4.210
90950W        W63265  40.857   6.438  13.591
90951W        W63266  39.275  19.281   1.380
90952W        W63267  11.815  17.384   2.501
90953W        W63268  11.199  10.584   3.308
90954W        W63269  24.703  42.012   0.570
90955W        W63270  13.820  20.682  11.232
90956W        W63271  36.463  16.364  10.544
90957W        W63272  15.047  15.849   3.167
90958W        W63273  25.943  33.568   5.095
90959W        W63274  38.829  35.253  11.899
90960W        W63275  41.556  29.898   1.693
90961W        W63276  19.035  39.589   0.023
90962W        W63277  28.942  27.288  14.730
90963W        W63278  13.277  33.928  14.269
90964W        W63279  10.927  26.773   1.160
90965W        W63280  14.601  43.277  11.112
90966W        W63281  14.756  38.106  11.799
90967W        W63282  22.079  32.156   9.954
90968W        W63283  12.334  30.095   1.767
90969W        W63284  21.444   7.291   0.037
90970W        W63285  22.795  13.264  14.447
90971W        W63286   7.907  43.487  13.479
90972W        W63287  11.911  31.677   1.684
90973W        W63288  36.365  38.782  14.822
90974W        W63289  30.644  13.323  14.321
90975W        W63290  32.412  15.300  10.516
90976W        W63291   0.315   4.259   3.302
90977W        W63292  38.604  16.201  10.691
90978W        W63293  29.673   7.685   3.052
90979W        W63294   4.575  35.968   4.643
90980W        W63295   0.814  34.909  10.289
90981W        W63296  43.560  40.305   1.277
90982W        W63297  43.261  17.825   2.403
90983W        W63298  29.425  19.625  12.572
90984W        W63299   4.752  11.240   3.174
90985W        W63300  30.006   5.902   3.885
90986W        W63301  32.029  10.071   3.864
90987W        W63302   5.054  40.465  11.127
90988W        W63303  25.732  28.493  12.385
90989W        W63304  31.985  16.584  11.124
90990W        W63305  35.634   6.248   2.326
90991W        W63306   9.710   1.426  13.560
90992W        W63307   0.609  35.098  11.849
90993W        W63308  17.705   3.473   0.437
90994W        W63309  37.718   3.293  13.493
90995W        W63310  33.215  39.076   2.727
90996W        W63311  20.701  20.613   3.798
90997W        W63312   0.846  28.992  14.913
90998W        W63313  41.416  44.509  13.850
90999W        W63314  25.034  19.691  13.729
91000W        W63315  10.422  16.088  14.821
91001W        W63316  39.516  44.414  13.450
91002W        W63317  31.447  32.463   1.293
91003W        W63318  36.972  12.696  14.332
91004W        W63319   8.610   0.414  11.607
91005W        W63320   5.923  34.179  13.006
91006W        W63321  43.913  35.954  14.756
91007W        W63322  19.773   7.336  11.131
91008W        W63323  25.242  27.810  11.110
91009W        W63324   6.438  43.587   1.870
91010W        W63325   1.014  17.763  10.945
91011W        W63326  19.832   0.998   2.613
91012W        W63327  27.194  34.040   2.376
91013W        W63328  41.543  40.019  14.815
91014W        W63329  29.585  16.047  10.446
91015W        W63330  33.750  37.441   1.263
91016W        W63331  36.985  41.498  10.342
91017W        W63332   8.340  29.601  13.380
91018W        W63333   8.778   5.901  11.998
91019W        W63334  27.998  21.628   3.344
91020W        W63335  37.076  43.775   3.616
91021W        W63336  13.197  27.825  14.462
91022W        W63337  17.251  15.918   4.254
91023W        W63338  28.325  27.065   2.324
91024W        W63339  27.219  10.332  11.213
91025W        W63340  17.493  25.658   3.149
91026W        W63341  10.535  42.439  11.597
91027W        W63342  34.894  44.780  13.839
91028W        W63343  35.111  21.095   0.358
91029W        W63344   5.446   9.964  11.647
91030W        W63345  21.564  17.837   0.894
91031W        W63346  11.460   1.411   3.595
91032W        W63347   1.244  14.851  14.042
91033W        W63348  27.498  44.473   0.929
91034W        W63349  25.750  13.396  13.031
91035W        W63350   6.705  31.045   0.346
91036W        W63351  17.586  21.795   4.489
91037W        W63352  24.116  25.736   4.598
91038W        W63353  32.389  25.441  11.130
91039W        W63354  22.514  41.644  13.956
91040W        W63355   0.776   5.375   2.739
91041W        W63356   1.358  16.295  14.054
91042W        W63357  11.402  30.228  14.973
91043W        W63358  11.290  28.182   0.838
91044W        W63359  35.482  39.137   3.262
91045W        W63360  43.364  41.100   4.780
91046W        W63361  12.799  25.195   0.011
91047W        W63362  20.235  42.978  13.784
91048W        W63363   9.203  17.421   3.481
91049W        W63364   7.841  14.276  12.931
91050W        W63365   4.184  25.688  13.840
91051W        W63366  26.572  25.034  10.342
91052W        W63367   9.436   8.234  14.052
91053W        W63368   4.583  24.529  14.076
91054W        W63369  35.516  11.684   3.612
91055W        W63370  12.601   9.600   4.072
91056W        W63371  26.603  25.804  12.758
91057W        W63372  37.751  23.189   5.191
91058W        W63373  25.696  40.825  14.096
91059W        W63374   3.459  40.286   5.062
91060W        W63375   7.835  14.305  10.409
91061W        W63376  11.669  12.337   2.063
91062W        W63377   7.252  13.613   1.787
91063W        W63378  24.108  38.924  12.385
91064W        W63379  37.884  11.134  10.553
91065W        W63380  21.651  20.724   3.382
91066W        W63381  39.583  43.779  10.630
91067W        W63382  38.415   6.869  10.757
91068W        W63383  13.131  28.447  14.861
91069W        W63384  27.879  26.610  11.227
91070W        W63385  20.516  31.181  14.703
91071W        W63386  24.604  32.026   2.169
91072W        W63387  10.445  35.517  11.782
91073W        W63388  37.069  23.788  10.552
91074W        W63389  21.195  33.103   0.225
91075W        W63390  14.003  32.370  12.233
91076W        W63391  23.166  33.676   2.328
91077W        W63392  25.137  35.576  11.578
91078W        W63393  15.867  34.583  13.863
91079W        W63394  30.015  39.504  14.328
91080W        W63395   7.718   8.298   2.185
91081W        W63396  26.454  39.558  12.116
91082W        W63397  16.417  30.730  10.644
91083W        W63398  41.612  34.583   2.282
91084W        W63399   3.093  39.335   2.156
91085W        W63400   9.504   8.349  11.991
91086W        W63401   9.109  11.757   2.105
91087W        W63402  16.580  30.758   0.344
91088W        W63403  33.165  20.021  12.917
91089W        W63404  39.940  18.948  14.370
91090W        W63405  20.936  35.498   4.625
91091W        W63406  10.652  44.917  13.368
91092W        W63407   4.893   5.151   1.456
91093W        W63408  15.995  27.019   0.119
91094W        W63409  44.307  25.201  11.548
91095W        W63410  18.605  24.325   3.609
91096W        W63411  37.250  24.677   0.998
91097W        W63412   5.240  44.048   3.703
91098W        W63413  44.579  14.347   1.787
91099W        W63414   1.833   6.780   1.514
91100W        W63415  31.109  32.186  13.487
91101W        W63416  41.374  36.522  13.426
91102W        W63417  21.525  14.901   1.844
91103W        W63418  15.988  18.657   0.036
91104W        W63419  43.921  30.895  11.036
91105W        W63420   7.265  42.582  11.617
91106W        W63421   9.840  25.877   2.309
91107W        W63422   2.573  30.211  11.635
91108W        W63423   2.261  31.232   1.296
91109W        W63424   3.524  42.037   3.371
91110W        W63425  11.297   1.855   0.770
91111W        W63426   0.728  32.528   2.158
91112W        W63427   4.287  25.401   3.159
91113W        W63428  20.081  12.062  12.002
91114W        W63429  39.070  13.303  12.830
91115W        W63430  28.744  22.219  14.354
91116W        W63431   1.268  34.704   2.618
91117W        W63432   2.614   0.511   0.917
91118W        W63433   1.955  29.118   2.813
91119W        W63434  31.886  29.444  11.587
91120W        W63435  29.896  36.489  10.649
91121W        W63436  13.254  30.012  13.798
91122W        W63437  27.985  37.396  12.481
91123W        W63438  25.876  26.609   2.381
91124W        W63439   6.590  15.596   3.166
91125W        W63440  12.656  16.732   1.172
91126W        W63441  11.407  26.772   0.877
91127W        W63442  17.273  23.466   1.330
91128W        W63443   5.255  25.703  13.949
91129W        W63444  44.827  10.057  14.576
91130W        W63445   4.418  38.001  12.658
91131W        W63446   0.931  18.549  13.534
91132W        W63447  30.481  20.767   5.092
91133W        W63448   5.279   0.365   4.562
91134W        W63449  18.571  11.238   0.444
91135W        W63450  15.099   3.372   3.760
91136W        W63451  39.503  18.004  12.983
91137W        W63452  12.528  23.084   1.733
91138W        W63453  28.985  31.444   2.858
91139W        W63454   0.653  29.302  11.555
91140W        W63455   8.364  37.297   0.256
91141W        W63456  16.645  18.210  13.241
91142W        W63457  30.986  30.183  10.467
91143W        W63458  36.629   5.713   3.254
91144W        W63459  27.549  35.851   3.291
91145W        W63460  31.925  42.555  14.435
91146W        W63461   1.051  15.371  14.444
91147W        W63462   8.620  35.014   2.460
91148W        W63463  36.868  41.044  13.996
91149W        W63464   1.841  30.422   1.210
91150W        W63465   4.472   8.607   3.273
91151W        W63466   9.501  33.674  13.982
91152W        W63467  11.029   5.209   4.772
91153W        W63468  18.024   1.738   1.173
91154W        W63469  39.779  40.403   2.617
91155W        W63470  40.050  40.771  11.552
91156W        W63471  37.972  25.910  14.536
91157W        W63472  24.261   3.417   4.078
91158W        W63473  36.440  11.926  11.179
91159W        W63474  36.321  43.062   3.287
91160W        W63475  14.698   6.654   4.169
91161W        W63476   4.710  22.347  14.907
91162W        W63477  21.037   6.258  14.679
91163W        W63478  10.391  25.048  11.174
91164W        W63479  23.781  36.967   1.823
91165W        W63480  26.111   4.766  10.652
91166W        W63481  42.539  26.964  12.628
91167W        W63482   8.859   0.406  14.958
91168W        W63483  36.377   9.630  14.063
91169W        W63484  13.970   0.120  10.875
91170W        W63485   0.210  17.171   4.582
91171W        W63486  15.479  29.775   9.954
91172W        W63487  43.427  30.903  14.426
91173W        W63488  12.905  12.204   3.666
91174W        W63489  33.926  23.106   3.547
91175W        W63490  38.777  44.571   0.770
91176W        W63491   7.879   4.939   1.282
91177W        W63492   5.787  26.698   0.199
91178W        W63493  42.334  11.096   0.426
91179W        W63494  12.188   2.132   0.495
91180W        W63495   0.221  38.511  14.388
91181W        W63496   2.444  34.421  14.473
91182W        W63497  33.534  14.772  10.764
91183W        W63498  44.797  11.575  12.483
91184W        W63499  41.535  13.824   3.221
91185W        W63500  24.135  33.317   1.433
91186W        W63501  36.636  37.296  13.109
91187W        W63502  37.252  21.475   2.187
91188W        W63503  29.811  11.095  11.062
91189W        W63504   7.433  20.356  12.614
91190W        W63505   6.718  39.594   3.686
91191W        W63506   5.804   7.650   3.142
91192W        W63507  11.577  42.805   3.224
91193W        W63508  26.133   0.030  14.923
91194W        W63509  11.550  38.466   1.968
91195W        W63510  28.135  30.401   1.805
91196W        W63511  41.006  41.774  11.136
91197W        W63512   2.341  36.742  11.277
91198W        W63513  14.156   1.334  13.452
91199W        W63514  37.004  11.145  12.578
91200W        W63515   0.054   1.379  13.019
91201W        W63516  30.470  12.034  13.403
91202W        W63517  20.414  26.743  11.075
91203W        W63518   5.742   3.821  11.904
91204W        W63519  40.292  27.028  12.846
91205W        W63520  40.320   9.328   0.628
91206W        W63521  26.042  10.319   2.231
91207W        W63522   2.861  13.425   3.700
91208W        W63523   5.252   7.614   1.387
91209W        W63524  36.383  22.778   3.662
91210W        W63525  36.407  10.886   4.636
91211W        W63526   5.676  20.042   3.106
91212W        W63527   1.731  33.284  12.593
91213W        W63528  30.870   4.174  12.406
91214W        W63529  42.604   9.788   3.334
91215W        W63530  42.535  29.022  11.473
91216W        W63531  23.393  36.415   3.373
91217W        W63532   0.722  32.061   2.842
91218W        W63533  34.788  33.657  14.393
91219W        W63534  16.725  35.120  12.844
91220W        W63535  34.595   6.198   4.484
91221W        W63536  37.888   2.116  13.356
91222W        W63537  21.227  38.324   5.063
91223W        W63538   2.360  18.924  12.074
91224W        W63539   6.593  19.639  11.166
91225W        W63540  18.040   1.262   3.469
91226W        W63541  44.079  41.325  10.756
91227W        W63542  13.117  19.604  12.964
91228W        W63543  34.483   0.387   2.241
91229W        W63544  16.135  20.089  13.632
91230W        W63545   9.097  16.741  10.205
91231W        W63546  28.171   6.160  10.481
91232W        W63547  44.866  24.624   1.904
91233W        W63548  15.751  21.183   1.348
91234W        W63549  17.279  35.092   3.167
91235W        W63550  44.907  30.430   2.781
91236W        W63551  41.182  44.537   3.071
91237W        W63552  12.548  36.387  12.019
91238W        W63553  36.152  13.579  11.113
91239W        W63554  39.938  20.716  12.358
91240W        W63555   9.085  29.573   1.351
91241W        W63556  18.238  29.996   5.556
91242W        W63557   4.015  38.920   2.577
91243W        W63558   8.725  14.133   4.230
91244W        W63559  37.285  32.504   0.959
91245W        W63560   1.797  26.975  12.509
91246W        W63561  37.618  30.174  12.043
91247W        W63562  23.954  33.682  11.249
91248W        W63563  25.678  30.835  14.512
91249W        W63564   8.221  16.169   3.829
91250W        W63565  11.546  18.858   5.015
91251W        W63566  41.973  35.400  11.018
91252W        W63567  40.858  26.691  12.495
91253W        W63568  43.339  43.528   1.590
91254W        W63569  29.033  14.438  10.562
91255W        W63570  12.786  43.850  13.775
91256W        W63571  34.874  18.975  11.620
91257W        W63572   2.363  44.776   1.367
91258W        W63573   8.470   2.360   3.575
91259W        W63574   7.838  17.908  11.559
91260W        W63575  16.304   6.716   1.924
91261W        W63576  26.723  25.016   1.731
91262W        W63577  19.444   0.198   4.248
91263W        W63578  26.060  14.706   1.637
91264W        W63579  15.123  42.397  11.086
91265W        W63580   6.450  17.797   3.369
91266W        W63581  43.983   5.196   1.907
91267W        W63582  19.295   3.906  14.859
91268W        W63583  17.163  32.236  14.317
91269W        W63584  27.163  31.887  12.002
91270W        W63585  15.090   4.462  11.082
91271W        W63586  25.469   9.790   4.586
91272W        W63587  24.564  44.405   3.362
91273W        W63588   7.203  44.415  10.605
91274W        W63589  38.459  44.939   0.618
91275W        W63590  11.919  25.122   0.437
91276W        W63591  39.312  20.689  12.970
91277W        W63592   8.218  14.947   4.086
91278W        W63593  43.398   5.421   2.185
91279W        W63594  36.510  41.897   3.337
91280W        W63595  16.185   5.826   4.208
91281W        W63596   6.394  16.684  10.781
91282W        W63597  23.663  20.537   1.785
91283W        W63598  24.666   0.903  13.310
91284W        W63599  44.515  39.149   0.763
91285W        W63600  31.118   4.529  11.100
91286W        W63601  24.599   4.497   3.380
91287W        W63602  25.709   6.750   1.974
91288W        W63603  32.459  42.336   2.309
91289W        W63604  36.899  43.918   4.271
91290W        W63605   2.162  38.976  13.859
91291W        W63606  22.194  19.984   3.378
91292W        W63607  17.083  41.290   4.925
91293W        W63608   0.779  22.535   4.097
91294W        W63609  16.707   3.955  12.179
91295W        W63610  34.131  41.830   3.991
91296W        W63611  39.235  38.519  12.921
91297W        W63612  16.151  19.120   1.258
91298W        W63613   8.070  26.572   1.381
91299W        W63614  25.898  25.764  11.656
91300W        W63615  28.135  32.133   4.490
91301W        W63616  22.779  41.565   1.873
91302W        W63617  24.642  16.709   0.282
91303W        W63618   0.556  41.984   0.981
91304W        W63619  10.109  44.200   2.290
91305W        W63620  10.733  26.458  13.062
91306W        W63621  23.722  28.419   1.465
91307W        W63622  30.981  42.071  10.429
91308W        W63623  24.492  40.485   1.697
91309W        W63624   7.145  32.004   4.616
91310W        W63625   6.301  37.020   3.167
91311W        W63626  34.000  28.915   4.641
91312W        W63627   6.219   1.721   5.057
91313W        W63628  32.768  17.216   0.420
91314W        W63629  44.028  38.954   0.781
91315W        W63630  38.510  40.191  13.894
91316W        W63631  22.258  28.275  12.675
91317W        W63632  16.215  10.279   1.056
91318W        W63633  24.222  20.446  11.932
91319W        W63634  40.013   7.332   4.587
91320W        W63635  27.598  19.673   4.508
91321W        W63636  35.028  24.191   3.597
91322W        W63637  43.718  28.075  11.968
91323W        W63638  14.552  36.776  12.030
91324W        W63639  42.955   9.717   4.123
91325W        W63640  33.454   3.665   3.112
91326W        W63641  14.196  17.434   4.355
91327W        W63642   4.425   9.732   2.776
91328W        W63643  30.681  17.882  14.361
91329W        W63644  26.354  25.435   0.879
91330W        W63645  39.079   6.895   3.205
91331W        W63646  26.390  35.123  14.918
91332W        W63647  10.667  19.616  12.522
91333W        W63648   1.438  18.566  10.426
91334W        W63649  12.164   7.424   0.881
91335W        W63650  44.307  41.464  13.321
91336W        W63651  26.619  12.636   3.861
91337W        W63652  29.475   2.947   0.456
91338W        W63653  37.843  17.137   4.511
91339W        W63654  37.951  40.114   0.448
91340W        W63655  31.210  10.578  14.458
91341W        W63656  30.634   2.956   0.349
91342W        W63657  35.632  34.430   1.157
91343W        W63658  17.747  29.050  12.567
91344W        W63659  13.570  30.908  14.159
91345W        W63660  25.764  31.991   0.108
91346W        W63661  37.974  19.575  10.528
91347W        W63662   1.062   8.867   5.305
91348W        W63663  10.602  15.971   1.196
91349W        W63664  29.422  27.274   1.797
91350W        W63665   6.315  44.168   2.740
91351W        W63666   5.643  15.763  13.413
91352W        W63667  38.410   7.459  14.304
91353W        W63668  17.273  40.911  13.846
91354W        W63669  38.107  34.018   4.664
91355W        W63670  28.543  44.342  11.428
91356W        W63671  19.617   3.582   1.983
91357W        W63672   4.471  28.872  12.003
91358W        W63673  34.988  22.030   2.803
91359W        W63674   9.824  21.793  14.875
91360W        W63675  38.973  34.775  12.775
91361W        W63676  38.498   7.840  12.584
91362W        W63677   5.916  25.933   1.776
91363W        W63678  11.958  21.180   4.626
91364W        W63679  19.504  18.337   0.941
91365W        W63680  32.165  25.516  14.952
91366W        W63681   4.603  11.624   0.067
91367W        W63682  18.305   5.231  12.395
91368W        W63683  35.043   8.918   3.740
91369W        W63684  24.574  29.078  12.453
91370W        W63685  27.089  17.544  10.689
91371W        W63686  42.793  20.290   0.504
91372W        W63687  27.064  18.042   4.878
91373W        W63688  22.333  40.253  13.387
91374W        W63689   2.388  20.196   2.233
91375W        W63690  43.863   5.457  12.585
91376W        W63691  22.015   6.741  11.465
91377W        W63692  19.365  31.097  11.694
91378W        W63693  27.989  35.956   2.457
91379W        W63694   9.353  14.835   3.887
91380W        W63695   2.520  31.584  12.325
91381W        W63696  20.621   0.659   0.355
91382W        W63697  37.108  44.879   3.702
91383W        W63698  39.261   9.911   2.541
91384W        W63699  31.038  35.934   2.438
91385W        W63700  33.063  37.895  13.687
91386W        W63701  36.172  43.391   4.039
91387W        W63702  36.219  35.836   4.693
91388W        W63703  21.026   9.112  14.373
91389W        W63704  39.764  16.049   4.650
91390W        W63705  41.914  22.706  12.031
91391W        W63706  29.362  30.572   4.820
91392W        W63707   3.883  17.850   3.704
91393W        W63708  32.630  36.830  14.066
91394W        W63709  28.084   6.666  14.496
91395W        W63710  37.735  15.991  12.497
91396W        W63711  32.569   6.767   0.378
91397W        W63712  43.748  17.506   0.118
91398W        W63713   8.154  17.554  13.438
91399W        W63714  20.127  25.583  10.602
91400W        W63715   3.250  23.138  14.078
91401W        W63716  32.131  29.056  13.104
91402W        W63717  17.172  35.146   4.616
91403W        W63718  44.295  20.398   2.277
91404W        W63719  11.857  20.183  14.283
91405W        W63720  16.444  24.577   0.929
91406W        W63721   8.606   5.240  10.692
91407W        W63722  28.330  34.485   0.477
91408W        W63723  43.426   3.700   4.683
91409W        W63724  10.581  26.274   4.142
91410W        W63725  25.641  10.598  10.639
91411W        W63726  10.245  29.213  14.898
91412W        W63727   0.317  27.172  14.322
91413W        W63728  13.721  25.791  11.511
91414W        W63729  39.863  24.669  14.594
91415W        W63730  18.460  21.712   0.780
91416W        W63731  38.987  29.577   1.985
91417W        W63732   0.296  15.999   2.724
91418W        W63733  42.435   5.544  14.229
91419W        W63734   2.897  11.303   0.381
91420W        W63735  11.727   4.942  12.817
91421W        W63736   0.774  28.279  13.872
91422W        W63737  28.567  26.613  14.443
91423W        W63738  44.584  40.344   1.305
91424W        W63739  36.354  27.138  11.855
91425W        W63740   8.605  19.795   2.857
91426W        W63741  32.216  33.886   3.791
91427W        W63742  43.563  28.576  12.020
91428W        W63743  36.884  25.056   3.893
91429W        W63744  12.230  42.902   4.421
91430W        W63745  26.995   8.859  11.565
91431W        W63746  22.692  24.194   1.381
91432W        W63747  35.447  22.225   2.663
91433W        W63748  43.677   4.814  14.737
91434W        W63749  38.396  12.673  11.551
91435W        W63750  33.614  16.339  10.573
91436W        W63751  42.074   5.780  14.612
91437W        W63752  39.686  26.150   9.812
91438W        W63753  27.581  41.708  12.384
91439W        W63754  13.255   0.253   2.613
91440W        W63755   3.355  41.885  11.535
91441W        W63756  24.180  19.586  10.173
91442W        W63757   4.311  44.021   3.580
91443W        W63758  34.245   7.179  11.647
91444W        W63759  25.723  26.805   4.930
91445W        W63760  43.785   3.314   3.791
91446W        W63761  18.736  12.845  14.764
91447W        W63762   0.668   4.190   0.843
91448W        W63763  21.771  17.289  13.858
91449W        W63764  39.405  41.497   1.259
91450W        W63765   8.490  30.291  11.167
91451W        W63766  26.893  17.008   1.830
91452W        W63767  22.488  38.610   3.246
91453W        W63768   2.272   1.288   1.440
91454W        W63769   4.423  19.249   3.628
91455W        W63770  28.360  28.984  12.984
91456W        W63771  43.784  34.156   1.221
91457W        W63772   4.267  19.546  13.137
91458W        W63773   7.851  22.576  12.709
91459W        W63774  34.303  15.045   2.904
91460W        W63775  36.472  28.151  11.899
91461W        W63776  19.013  25.218  13.448
91462W        W63777   0.004   9.814  13.409
91463W        W63778  38.362  13.816  14.278
91464W        W63779  32.545  38.586   4.779
91465W        W63780  35.832  15.635   4.818
91466W        W63781  10.065  21.482  10.713
91467W        W63782  28.469  39.510   1.239
91468W        W63783  27.384  28.952   0.006
91469W        W63784  32.117   7.430  11.909
91470W        W63785  28.619  10.845   1.241
91471W        W63786  10.320  36.876   3.619
91472W        W63787   9.690   4.329  14.314
91473W        W63788  40.575  20.792   2.160
91474W        W63789   6.582  13.100   2.316
91475W        W63790  37.653  26.719   0.934
91476W        W63791  29.165  22.731   3.182
91477W        W63792  12.549  40.318   3.450
91478W        W63793  12.905   8.339  11.832
91479W        W63794  20.669   4.312   0.267
91480W        W63795  20.359  34.527  13.144
91481W        W63796   3.313   9.059   0.903
91482W        W63797  16.207   6.316   4.008
91483W        W63798  14.263  35.847   4.326
91484W        W63799   8.337  14.089   2.860
91485W        W63800  33.040  20.268   1.871
91486W        W63801  16.860  15.684   5.069
91487W        W63802  38.090  33.462   1.371
91488W        W63803  40.421  23.461   3.853
91489W        W63804  39.898  31.082   0.249
91490W        W63805   3.802  44.410  12.777
91491W        W63806  14.612  24.902   4.637
91492W        W63807  10.054  41.452  14.869
91493W        W63808  26.140  37.853   3.183
91494W        W63809  29.084  36.331  13.281
91495W        W63810  28.924  11.137  11.826
91496W        W63811  44.734  20.051   0.395
91497W        W63812  38.388  15.487   2.301
91498W        W63813  17.779  22.671   1.448
91499W        W63814  41.204  39.261   2.878
91500W        W63815   8.680  30.392   1.283
91501W        W63816   1.537  36.867  11.200
91502W        W63817   4.022   8.173  14.228
91503W        W63818  41.275  25.847  14.789
91504W        W63819  33.172  43.493  11.100
91505W        W63820  22.217  16.164   1.657
91506W        W63821  24.520  25.655   3.811
91507W        W63822  28.105  17.308  12.628
91508W        W63823  32.870  10.697  11.033
91509W        W63824   6.235  36.013  12.120
91510W        W63825  21.102  24.086  14.786
91511W        W63826  11.756  42.720   3.690
91512W        W63827  22.587  16.144   4.790
91513W        W63828  39.645  21.901  14.958
91514W        W63829   6.349   7.355   4.815
91515W        W63830   3.798  17.242   2.848
91516W        W63831  19.304  18.692   0.170
91517W        W63832   4.680  44.435  12.266
91518W        W63833  20.113  19.343   1.219
91519W        W63834  26.553  36.045   0.424
91520W        W63835  40.130   8.779  13.862
91521W        W63836  13.600  33.670   2.469
91522W        W63837  26.462  22.706   1.054
91523W        W63838  33.860  12.617  10.795
91524W        W63839  10.157   7.795  11.128
91525W        W63840  39.452  41.827  11.823
91526W        W63841  37.559   1.434   3.864
91527W        W63842  17.804  27.277   0.887
91528W        W63843  28.014  15.201  11.095
91529W        W63844  21.436  30.860   5.004
91530W        W63845  31.285   7.795  14.873
91531W        W63846  40.811  15.197   0.576
91532W        W63847  44.447  30.423  12.084
91533W        W63848  30.137  28.040   2.899
91534W        W63849   5.668  17.875   3.799
91535W        W63850  42.262  41.003  14.384
91536W        W63851  30.893  39.051  11.042
91537W        W63852  41.521  33.658  12.369
91538W        W63853  10.380  10.745   3.384
91539W        W63854  41.729   9.841   0.146
91540W        W63855  29.439  10.311   3.646
91541W        W63856  13.761  28.592   0.557
91542W        W63857  22.721  27.472   1.953
91543W        W63858  14.610  27.217   2.948
91544W        W63859  34.041  11.642   2.363
91545W        W63860  18.251   6.271   1.191
91546W        W63861   7.262   7.822   1.871
91547W        W63862  32.935   4.253   3.334
91548W        W63863  36.917  22.217  13.451
91549W        W63864  36.034  35.127   5.038
91550W        W63865  21.033  21.597   0.114
91551W        W63866  14.317   7.859  10.407
91552W        W63867   4.154  25.289   1.261
91553W        W63868  29.205   1.775   3.763
91554W        W63869  33.322  44.267  11.004
91555W        W63870  12.644  30.484   3.662
91556W        W63871  12.338  43.969  12.955
91557W        W63872  18.255  12.854  14.542
91558W        W63873  44.753   7.920   2.266
91559W        W63874  41.488   3.946   1.313
91560W        W63875  42.406  39.041   0.429
91561W        W63876  12.183  20.412  12.943
91562W        W63877   1.859   6.915  11.962
91563W        W63878  37.119  10.612  10.682
91564W        W63879  41.951  42.116   4.523
91565W        W63880  32.126  34.253   0.770
91566W        W63881   4.748  33.184   4.656
91567W        W63882  19.592  23.147  10.708
91568W        W63883   3.009  31.855   3.156
91569W        W63884   5.898  17.233   1.751
91570W        W63885  22.982  38.936   3.476
91571W        W63886  10.140  35.109   4.219
91572W        W63887  30.129  20.591   4.746
91573W        W63888  27.050  16.662  14.669
91574W        W63889  31.624   0.638  11.526
91575W        W63890   8.882   7.757   1.136
91576W        W63891  30.886  13.419   1.452
91577W        W63892  11.646  41.876   2.650
91578W        W63893  12.916  27.366   2.242
91579W        W63894  37.946  24.708   4.178
91580W        W63895  33.320  27.169  12.041
91581W        W63896   1.818  21.151   2.169
91582W        W63897  43.885  32.875  14.364
91583W        W63898  39.645   4.292   2.794
91584W        W63899  23.516  25.284   2.797
91585W        W63900  40.361  36.393  14.015
91586W        W63901  37.439   1.267   1.456
91587W        W63902  35.614  32.501   1.407
91588W        W63903  26.919  12.712  13.279
91589W        W63904   6.174  16.716  12.391
91590W        W63905  15.799  42.455  12.439
91591W        W63906   9.756  16.671   2.260
91592W        W63907  38.543  12.379  10.479
91593W        W63908  15.849  14.299   4.148
91594W        W63909  31.000  21.311   3.775
91595W        W63910  17.205  33.830  12.886
91596W        W63911   5.834  41.258   0.637
91597W        W63912  18.796   8.892   3.361
91598W        W63913  31.724  14.872   0.487
91599W        W63914  26.415   1.458   1.347
91600W        W63915  39.384  41.212  13.019
91601W        W63916  13.241  40.938  14.795
91602W        W63917  24.076  16.698   0.427
91603W        W63918   9.541  22.746   3.520
91604W        W63919   9.202  19.022   1.358
91605W        W63920  31.874  26.138  13.388
91606W        W63921   3.845  44.217   4.298
91607W        W63922  37.964   0.543   2.279
91608W        W63923   3.814  16.414   0.222
91609W        W63924  22.000  22.254   2.866
91610W        W63925  18.303  38.311  11.529
91611W        W63926   0.404  10.617   2.831
91612W        W63927  13.630  43.778   3.403
91613W        W63928  35.521  13.990  11.203
91614W        W63929   6.653  23.543  14.848
91615W        W63930  13.347   5.590   3.544
91616W        W63931  29.118   7.764   2.232
91617W        W63932   5.478  22.651  11.191
91618W        W63933  35.863   6.626  13.777
91619W        W63934  38.278  24.887  11.170
91620W        W63935   9.901  13.541   3.936
91621W        W63936  23.285  19.784   0.400
91622W        W63937  16.173  16.829   4.087
91623W        W63938  41.215  34.917   3.292
91624W        W63939   5.817  18.211   0.719
91625W        W63940  17.333  27.905  12.136
91626W        W63941   0.399  27.579  13.337
91627W        W63942  42.164  11.846   0.769
91628W        W63943  17.530  39.778   4.684
91629W        W63944  18.287  25.674   3.614
91630W        W63945   5.734  39.525   4.049
91631W        W63946  26.435  25.495   1.683
91632W        W63947  39.251  12.918   3.213
91633W        W63948  30.774  25.078  10.806
91634W        W63949  37.027   4.416   0.466
91635W        W63950   6.018  13.724   4.594
91636W        W63951   0.701  22.661   3.301
91637W        W63952  13.822  29.049   4.797
91638W        W63953  23.897  25.106   5.129
91639W        W63954  15.865  36.618  13.261
91640W        W63955  15.191  27.008   4.647
91641W        W63956  39.834  43.943   1.204
91642W        W63957  38.717  41.351   2.639
91643W        W63958  32.493  33.850  11.539
91644W        W63959  29.316  25.897   1.795
91645W        W63960  39.096  15.950  12.621
91646W        W63961  32.025  20.469  11.423
91647W        W63962  37.870  10.442  11.159
91648W        W63963  18.053   7.373   2.154
91649W        W63964  26.500  10.834  12.116
91650W        W63965  14.336  39.107  13.410
91651W        W63966  31.884  16.061   0.671
91652W        W63967  40.814  13.539  12.955
91653W        W63968  39.723  12.376  11.129
91654W        W63969   3.564  34.883   3.443
91655W        W63970  13.827  16.565   0.801
91656W        W63971  16.306  10.544  11.162
91657W        W63972  32.843   5.777   1.286
91658W        W63973   3.924   0.445  14.320
91659W        W63974  19.270   2.941  12.945
91660W        W63975   2.942  35.316   2.799
91661W        W63976   4.879  34.016  11.696
91662W        W63977  29.458  40.949   3.597
91663W        W63978   5.742  24.964  11.313
91664W        W63979  25.471  31.103   3.315
91665W        W63980  34.818  39.307  14.840
91666W        W63981  39.523  30.217   0.938
91667W        W63982  16.704  43.446   3.352
91668W        W63983  20.613   4.754   4.190
91669W        W63984   6.340  43.810   3.254
91670W        W63985   3.494   0.305  13.160
91671W        W63986  20.060  16.128  14.372
91672W        W63987  40.318  22.290   1.719
91673W        W63988  24.722  23.606  14.471
91674W        W63989  15.631   8.409   3.847
91675W        W63990  12.089  14.598   2.758
91676W        W63991  24.900  25.424  11.464
91677W        W63992   3.809  13.462   4.398
91678W        W63993  18.781  31.663  10.651
91679W        W63994   1.866   3.867  13.795
91680W        W63995  17.177   2.967   2.696
91681W        W63996  10.173  22.314  11.504
91682W        W63997  11.669  11.323   0.275
91683W        W63998  31.332  36.540   0.019
91684W        W63999  12.784  11.340  14.958
91685W        W64000  16.793  21.022  11.488
91686W        W64001  12.153  10.611  10.476
91687W        W64002  36.417   1.423   4.324
91688W        W64003   1.729  26.314  13.804
91689W        W64004   0.274   3.356   0.471
91690W        W64005   9.877  38.135   4.812
91691W        W64006  39.487  26.013   2.664
91692W        W64007  28.929   2.734   2.873
91693W        W64008   6.954  27.358  11.220
91694W        W64009   6.152  28.554   0.217
91695W        W64010  17.607  10.174   5.100
91696W        W64011  29.677  19.476   4.149
91697W        W64012  13.662   9.274   1.448
91698W        W64013  15.379   0.414   1.699
91699W        W64014  12.640   2.332   0.691
91700W        W64015  43.716  30.486  11.265
91701W        W64016  11.700  15.509   4.445
91702W        W64017  42.010   1.467  11.285
91703W        W64018   4.637  11.723   4.515
91704W        W64019  14.158  24.931   4.385
91705W        W64020   6.847  13.937   1.711
91706W        W64021  38.526  43.857  12.149
91707W        W64022  36.377  11.883  12.978
91708W        W64023  36.394  13.811   0.646
91709W        W64024  38.038  43.921   2.433
91710W        W64025  25.739  16.544  14.169
91711W        W64026  26.585   3.157  11.212
91712W        W64027   1.555  16.357   1.020
91713W        W64028  29.930   3.240  10.912
91714W        W64029  32.558  39.937   0.337
91715W        W64030  30.526  30.519   1.227
91716W        W64031  20.693  19.303   3.347
91717W        W64032   0.719  20.822  12.486
91718W        W64033   9.598  23.573  12.887
91719W        W64034  27.110  10.386   1.371
91720W        W64035  19.681   4.407   3.169
91721W        W64036  18.961  26.208  12.610
91722W        W64037  14.917  42.857   3.202
91723W        W64038  36.391  23.594  10.782
91724W        W64039  25.062  34.391  12.511
91725W        W64040  44.799  11.229   3.887
91726W        W64041  10.487  38.767   1.767
91727W        W64042  39.958  40.453   1.204
91728W        W64043  35.977   8.660  12.002
91729W        W64044  16.238  23.632  12.537
91730W        W64045   2.898  13.122  14.877
91731W        W64046   7.902  36.149   0.217
91732W        W64047  28.338   1.803  11.724
91733W        W64048  21.341   4.064  12.639
91734W        W64049  10.519  44.383   1.514
91735W        W64050   5.132   5.205   5.130
91736W        W64051  10.681  41.845   0.842
91737W        W64052  39.388   4.257   2.235
91738W        W64053  18.126  25.991  13.065
91739W        W64054  38.363  32.029  12.403
91740W        W64055  23.865  26.826   3.163
91741W        W64056  37.876  20.839   2.723
91742W        W64057  38.402   5.525  14.328
91743W        W64058  28.689  38.322  14.887
91744W        W64059  24.076  18.613  10.719
91745W        W64060   6.355   3.833  11.136
91746W        W64061  24.059  44.198   4.622
91747W        W64062   7.061  15.680   0.026
91748W        W64063   8.572   4.250   0.040
91749W        W64064   2.329  28.426  11.807
91750W        W64065  24.157  24.152  12.503
91751W        W64066  39.596  40.472  14.370
91752W        W64067  32.072  18.152   0.362
91753W        W64068   3.735  10.743  11.599
91754W        W64069  28.531   9.789  11.351
91755W        W64070   5.132  28.257   4.230
91756W        W64071  10.829  35.296  12.020
91757W        W64072   8.970   2.492   0.875
91758W        W64073  35.555  38.065  13.763
91759W        W64074  31.068  25.009  14.926
91760W        W64075   5.166   4.810   3.339
91761W        W64076  42.907  37.828  12.910
91762W        W64077  20.007  22.702   4.677
91763W        W64078  35.804  34.443  13.046
91764W        W64079   0.531  16.239  13.485
91765W        W64080   0.696  32.838   3.297
91766W        W64081  43.512  31.912   0.875
91767W        W64082  25.722  23.337  10.955
91768W        W64083  37.991  20.142  11.643
91769W        W64084  29.029   1.112   1.254
91770W        W64085  20.727   4.195  11.168
91771W        W64086   8.207  20.648  11.909
91772W        W64087  44.653  24.028  12.437
91773W        W64088  35.501   3.619  12.461
91774W        W64089  36.471  11.421  13.237
91775W        W64090  33.185  16.837   1.750
91776W        W64091   9.728  41.992  13.542
91777W        W64092   9.082  37.105   0.484
91778W        W64093  16.696  16.608   0.797
91779W        W64094   8.982  37.904   4.413
91780W        W64095  41.285  40.439   3.721
91781W        W64096  32.889  18.048   3.343
91782W        W64097  44.236  43.088   9.802
91783W        W64098  21.809  32.118  12.913
91784W        W64099  36.991  14.498   3.338
91785W        W64100  29.357  21.778  11.556
91786W        W64101  44.251  16.309  11.030
91787W        W64102  23.580  39.002   2.715
91788W        W64103  23.349  12.137   0.209
91789W        W64104   4.833   9.613   2.225
91790W        W64105  22.523   2.441  13.688
91791W        W64106   9.184  20.926   0.692
91792W        W64107   0.217  26.961   2.766
91793W        W64108  18.377  24.922  12.656
91794W        W64109  38.241  28.919  14.995
91795W        W64110  16.524  31.007  12.674
91796W        W64111  23.909   7.817  10.748
91797W        W64112   8.649  30.136   2.169
91798W        W64113  20.754  35.459  13.389
91799W        W64114  17.444  40.158  13.526
91800W        W64115  44.941  14.340  13.416
91801W        W64116  33.285  34.942  10.489
91802W        W64117  11.270  34.823   2.227
91803W        W64118   8.399   5.542   2.021
91804W        W64119  12.192  15.309  10.716
91805W        W64120  37.632  13.059  11.787
91806W        W64121   5.773  16.312   1.509
91807W        W64122  32.072  25.029  14.781
91808W        W64123  43.293  34.026   1.805
91809W        W64124   9.445  12.559  13.054
91810W        W64125  11.350   4.662  13.044
91811W        W64126  26.222   7.209  10.546
91812W        W64127  35.923  43.856   0.858
91813W        W64128   9.733  31.247  11.403
91814W        W64129  14.569  25.851  14.383
91815W        W64130  42.975  43.484   0.908
91816W        W64131   4.860   9.927  11.651
91817W        W64132  28.641   7.580   3.176
91818W        W64133  26.631   4.859  10.731
91819W        W64134  16.513  28.298   3.254
91820W        W64135  34.016  13.387  11.153
91821W        W64136   5.828  14.530   4.155
91822W        W64137   7.300   0.403  13.313
91823W        W64138  34.559  22.529   3.717
91824W        W64139   3.974   6.549   1.175
91825W        W64140  33.117  40.990  10.521
91826W        W64141  25.892   9.761   4.288
91827W        W64142   4.695  20.001  14.292
91828W        W64143   4.952  24.500  11.077
91829W        W64144   3.226  24.714   0.631
91830W        W64145  10.228  27.063  11.941
91831W        W64146   9.283  11.223  13.450
91832W        W64147  28.992   2.402  12.473
91833W        W64148  14.189  26.656   3.068
91834W        W64149  43.960   2.766   0.396
91835W        W64150  13.796   3.461   0.891
91836W        W64151  43.642  44.443   3.828
91837W        W64152  34.911  38.391  14.381
91838W        W64153  14.466  25.830   0.626
91839W        W64154   4.457   2.734   5.111
91840W        W64155  12.639   4.818   4.386
91841W        W64156  15.376  24.319   1.665
91842W        W64157  10.636  36.862   0.177
91843W        W64158  24.441  28.978  13.500
91844W        W64159  37.645   7.585   2.755
91845W        W64160  38.627  23.147  14.061
91846W        W64161  44.965  41.819  14.888
91847W        W64162  44.772  33.719   0.365
91848W        W64163  15.052  27.725  14.536
91849W        W64164  32.075   1.941  10.795
91850W        W64165  27.402  12.268   4.111
91851W        W64166  30.842  43.424  13.141
91852W        W64167  26.553  24.031   3.639
91853W        W64168  22.552  32.831  13.746
91854W        W64169  12.323  28.525  12.192
91855W        W64170  15.973  13.196   3.256
91856W        W64171   8.452  12.402  11.517
91857W        W64172  17.624  34.899   4.727
91858W        W64173  30.065  16.696   2.516
91859W        W64174  19.124  38.495  12.819
91860W        W64175  21.059  17.042  10.819
91861W        W64176  40.843   6.240   4.342
91862W        W64177  31.495  22.110  10.459
91863W        W64178  24.963  39.592  13.508
91864W        W64179  13.589  36.347  14.526
91865W        W64180  41.962  26.494  13.369
91866W        W64181  29.160  17.588   1.286
91867W        W64182  30.085  31.582  14.260
91868W        W64183  23.238  15.449   2.498
91869W        W64184  40.976   0.989  13.324
91870W        W64185   1.769   4.201   2.837
91871W        W64186  39.072   5.716   0.532
91872W        W64187   8.433  27.181  12.967
91873W        W64188  36.245  19.498  12.879
91874W        W64189   9.901  41.953  14.987
91875W        W64190  31.055  44.406  10.966
91876W        W64191   6.833  32.060  12.960
91877W        W64192  34.935  37.087  13.294
91878W        W64193   0.300   2.944   1.448
91879W        W64194  18.110  13.773   4.571
91880W        W64195  32.177  35.151   5.065
91881W        W64196  31.967  33.604  14.396
91882W        W64197   3.539  24.948  11.551
91883W        W64198  41.242  42.560  12.029
91884W        W64199   8.674  44.688  13.219
91885W        W64200  29.425  13.498  13.820
91886W        W64201  34.144  24.997   3.281
91887W        W64202  33.830  24.531   0.917
91888W        W64203  24.924  23.487  11.172
91889W        W64204  40.195  17.127   1.510
91890W        W64205   5.058  20.604   2.524
91891W        W64206  34.590  14.773   3.735
91892W        W64207  30.581  33.902   1.347
91893W        W64208   2.977  17.962   3.017
91894W        W64209   9.380  14.707  14.380
91895W        W64210  23.205   9.003  14.463
91896W        W64211  36.653   8.215   4.552
91897W        W64212   3.473  13.228  12.008
91898W        W64213  31.081  41.511  14.319
91899W        W64214   3.373  38.400  10.654
91900W        W64215  17.739  17.864   4.055
91901W        W64216  10.623   8.784   3.214
91902W        W64217   4.711  24.123   4.778
91903W        W64218   4.195   9.103   3.811
91904W        W64219  13.823  24.776  13.549
91905W        W64220  37.931  39.840  12.299
91906W        W64221  39.432  26.520   2.485
91907W        W64222  13.777   4.497  12.512
91908W        W64223  16.296  23.811   3.184
91909W        W64224  16.643  15.449  12.803
91910W        W64225  36.606  25.158  12.307
91911W        W64226   1.640  28.030   4.383
91912W        W64227  23.773  26.384  13.483
91913W        W64228  15.808  19.121  14.428
91914W        W64229   8.493  14.699   1.726
91915W        W64230  39.927  21.534  12.882
91916W        W64231  22.480  28.916  13.849
91917W        W64232  13.207   4.012   0.533
91918W        W64233  11.094   1.739   3.405
91919W        W64234  24.213   5.572  12.997
91920W        W64235  23.042  14.557   0.168
91921W        W64236  17.604   8.172  12.036
91922W        W64237  13.192  29.128  11.945
91923W        W64238  19.149  41.762  11.539
91924W        W64239   5.969  11.418   0.669
91925W        W64240  38.912  16.622  10.627
91926W        W64241  41.531   4.773   0.403
91927W        W64242  24.466  34.373  11.648
91928W        W64243  41.373  12.211  12.322
91929W        W64244  27.880  27.550   1.381
91930W        W64245   9.661  30.185  10.827
91931W        W64246  41.053  33.898   1.933
91932W        W64247  33.085  24.388   2.667
91933W        W64248  11.893   2.488   1.734
91934W        W64249   2.112  15.531   3.790
91935W        W64250  21.151  12.185  12.992
91936W        W64251  11.776  42.884   2.157
91937W        W64252  39.099  19.276  14.045
91938W        W64253   8.199  16.468   4.581
91939W        W64254  16.837  29.964   1.948
91940W        W64255  10.106  40.895  12.809
91941W        W64256   2.383  19.234   1.024
91942W        W64257  36.016  32.509  12.184
91943W        W64258  18.616   5.576  14.768
91944W        W64259  27.705   6.255   2.547
91945W        W64260  29.392   4.187  13.127
91946W        W64261  25.345  28.235  14.020
91947W        W64262  33.914  22.770  12.487
91948W        W64263  21.221  32.810   1.202
91949W        W64264   7.879  10.712   3.363
91950W        W64265   6.919   8.718  11.492
91951W        W64266  26.764  27.462  12.175
91952W        W64267   6.160   6.238   0.420
91953W        W64268  40.716   2.402  12.584
91954W        W64269  33.697  15.053   4.237
91955W        W64270  26.902  38.341  11.496
91956W        W64271   9.641   5.106  13.939
91957W        W64272  39.626  36.372  12.057
91958W        W64273  29.447  34.070  12.908
91959W        W64274  12.235  15.378   3.256
91960W        W64275  22.646  42.336   1.492
91961W        W64276   8.648  16.235   4.701
91962W        W64277  41.270  28.194  14.538
91963W        W64278  34.373  12.137   2.663
91964W        W64279   2.826   2.709  13.408
91965W        W64280  33.557  19.767  13.841
91966W        W64281  32.528   1.142  10.701
91967W        W64282  39.322  39.076   2.710
91968W        W64283  12.328  20.006  14.209
91969W        W64284   7.177  15.579   1.291
91970W        W64285  24.048  19.403   2.886
91971W        W64286  42.067   9.820  12.341
91972W        W64287  15.242  29.022  12.829
91973W        W64288  23.057   7.108   1.882
91974W        W64289  14.287  30.599  12.011
91975W        W64290  42.002  14.376  13.323
91976W        W64291  13.231   5.648   1.195
91977W        W64292   0.754   5.926  13.513
91978W        W64293  11.828  28.579   0.365
91979W        W64294  37.888  12.880   1.072
91980W        W64295   4.362   5.373  12.420
91981W        W64296  34.604  28.075   3.937
91982W        W64297  43.361  40.572   1.799
91983W        W64298  33.628  13.017   0.968
91984W        W64299   0.884  21.634   1.065
91985W        W64300  21.171  19.783   2.327
91986W        W64301  16.784  23.544  14.663
91987W        W64302   2.942  25.680  11.003
91988W        W64303  40.522  22.518   4.250
91989W        W64304  42.251  32.017  12.862
91990W        W64305   6.798  10.784   4.630
91991W        W64306  35.856   3.749  13.800
91992W        W64307  13.904  28.487  11.715
91993W        W64308  37.995  44.752   3.667
91994W        W64309  44.147  32.538  13.010
91995W        W64310  38.483  30.415  13.378
91996W        W64311  20.469  26.637  11.933
91997W        W64312  38.853   4.597  12.291
91998W        W64313  34.687  17.500   5.074
91999W        W64314   5.736  34.611   2.684
92000W        W64315   7.411  35.550  12.133
92001W        W64316  14.994  40.499   4.928
92002W        W64317  37.320  29.115   0.642
92003W        W64318  20.544   8.903   3.244
92004W        W64319  33.422  26.075  11.696
92005W        W64320  28.535  19.552   2.836
92006W        W64321  11.802  40.870   0.385
92007W        W64322  44.549  30.892   3.418
92008W        W64323   8.794  28.146  11.296
92009W        W64324  28.131  44.839   2.820
92010W        W64325   2.573   0.724  10.679
92011W        W64326  43.515   8.676  11.986
92012W        W64327  24.474  17.815  12.899
92013W        W64328  31.501  14.701  11.619
92014W        W64329  31.088  42.389  11.731
92015W        W64330  25.038  30.935  13.359
92016W        W64331  17.687  10.910  12.903
92017W        W64332  13.033   2.201  13.787
92018W        W64333   4.461  37.667  11.150
92019W        W64334  24.656   5.566  13.311
92020W        W64335  19.011  37.533  12.287
92021W        W64336  10.867  17.964   2.623
92022W        W64337  29.889  34.522  14.066
92023W        W64338  24.952  36.631   0.673
92024W        W64339  20.582  21.121   3.950
92025W        W64340   5.501  40.859  10.747
92026W        W64341  26.942  19.975  14.509
92027W        W64342   1.942  33.430  11.694
92028W        W64343  33.067   1.796  11.600
92029W        W64344  19.702  16.248  13.443
92030W        W64345  23.244  37.510  14.307
92031W        W64346  42.730  12.608   2.715
92032W        W64347  41.807  14.754  14.811
92033W        W64348  36.610  24.261   4.672
92034W        W64349  39.985  27.077  13.943
92035W        W64350  20.913  21.663   0.957
92036W        W64351  12.728  42.929   1.830
92037W        W64352  18.263  20.522  14.298
92038W        W64353  27.938  32.461   4.099
92039W        W64354  37.861   8.220  14.989
92040W        W64355   6.182  23.298   2.844
92041W        W64356  42.803  41.956  13.027
92042W        W64357  20.639  11.206   4.752
92043W        W64358   0.759  42.088   0.458
92044W        W64359  20.993  12.729   2.446
92045W        W64360  28.640  32.803   1.350
92046W        W64361  17.302  25.164   3.138
92047W        W64362  36.373  30.159  14.246
92048W        W64363  14.412  25.267   2.299
92049W        W64364  34.591  21.010   3.685
92050W        W64365  42.930  23.004  14.747
92051W        W64366  31.646  32.138   3.410
92052W        W64367  25.459  35.299   2.178
92053W        W64368  22.902  10.959  11.106
92054W        W64369  37.378   1.038   5.242
92055W        W64370   9.597  44.923  11.538
92056W        W64371  16.255  29.004  13.397
92057W        W64372  24.261  15.993   0.434
92058W        W64373  43.675  20.035  11.219
92059W        W64374  38.761   4.754  10.053
92060W        W64375  40.521   2.744   2.296
92061W        W64376  22.112  12.936   4.343
92062W        W64377  30.631  40.146  14.303
92063W        W64378  20.686  15.838  14.246
92064W        W64379  21.509   6.687   0.358
92065W        W64380  16.269  27.158  14.283
92066W        W64381  12.742  41.291  14.454
92067W        W64382  38.065  11.752   0.439
92068W        W64383  21.578  26.499   0.721
92069W        W64384  25.776  12.300   3.211
92070W        W64385  22.633  21.067  11.542
92071W        W64386  41.781  10.581   1.671
92072W        W64387  15.928  32.637  11.150
92073W        W64388  39.919  34.911  10.712
92074W        W64389   2.846  19.156  12.074
92075W        W64390   5.802   3.426  11.591
92076W        W64391  26.230  24.227  14.344
92077W        W64392  33.939  39.729   3.157
92078W        W64393  33.617   3.527   5.023
92079W        W64394  27.419  10.176   1.961
92080W        W64395  39.096  34.759  10.158
92081W        W64396  35.445  38.814  12.962
92082W        W64397  23.122  39.866   2.588
92083W        W64398  17.499  31.626   1.752
92084W        W64399   5.131  27.684  10.373
92085W        W64400  40.725  44.966  14.398
92086W        W64401   8.888  25.013   0.240
92087W        W64402   6.299  11.642  11.920
92088W        W64403  29.625  39.171  14.387
92089W        W64404  39.065  23.918   4.682
92090W        W64405  38.102  29.511  12.432
92091W        W64406  27.426  14.221   4.729
92092W        W64407  26.918   9.746   1.425
92093W        W64408  17.606   9.060  14.811
92094W        W64409   9.325   3.946   1.302
92095W        W64410  16.639  14.556  14.985
92096W        W64411  28.529  23.773  10.395
92097W        W64412  27.976  39.330   1.274
92098W        W64413  42.047  33.895   3.617
92099W        W64414  38.689  14.712  13.080
92100W        W64415  28.466   3.965   3.181
92101W        W64416  40.792   1.274   3.877
92102W        W64417  32.429  29.200   1.054
92103W        W64418  39.122  17.716  13.945
92104W        W64419  44.063   3.426  14.326
92105W        W64420  40.984  38.304  10.702
92106W        W64421  24.955  15.265   3.759
92107W        W64422  19.622  22.464   1.235
92108W        W64423  17.598  41.794  14.444
92109W        W64424  35.883  10.797  11.309
92110W        W64425  25.734  17.813  12.589
92111W        W64426  20.169  33.599   4.355
92112W        W64427  44.276  16.686  13.076
92113W        W64428  17.206  16.214   3.821
92114W        W64429  11.022  25.719  12.043
92115W        W64430  17.080  23.354   0.854
92116W        W64431  10.305  41.086   1.212
92117W        W64432  28.649  44.000  13.150
92118W        W64433  11.874  20.175   2.741
92119W        W64434  33.410  12.117   1.052
92120W        W64435  22.990   9.145   1.597
92121W        W64436  40.085  19.260   4.546
92122W        W64437  29.043  22.607   2.103
92123W        W64438  41.589  33.624   3.609
92124W        W64439  27.561  13.921  11.155
92125W        W64440  24.049   6.706   3.384
92126W        W64441  40.484  19.966  12.505
92127W        W64442  25.115  10.806  12.755
92128W        W64443  33.965  39.147  13.505
92129W        W64444  24.253   4.736   0.909
92130W        W64445  34.889  10.209  13.833
92131W        W64446  27.207  18.234   2.893
92132W        W64447  33.533  24.016   2.155
92133W        W64448  29.255  21.736   4.003
92134W        W64449  27.020   4.837  10.113
92135W        W64450  41.303  10.413  10.773
92136W        W64451  39.814  25.166  11.975
92137W        W64452  10.641  17.277   2.340
92138W        W64453  40.402  10.330  14.883
92139W        W64454  22.676   0.901  11.120
92140W        W64455   1.214   7.173  10.599
92141W        W64456  23.099   7.468   0.976
92142W        W64457   9.289  13.741   4.718
92143W        W64458  15.183  20.635   1.102
92144W        W64459  20.498  34.934   1.912
92145W        W64460   0.170  18.249   2.310
92146W        W64461  32.651  42.834   0.378
92147W        W64462  35.554  21.062   0.040
92148W        W64463   0.167  18.093   4.521
92149W        W64464  29.809  44.149   4.878
92150W        W64465  21.553  17.708   3.257
92151W        W64466   3.199  14.720  13.516
92152W        W64467  37.482   2.414  14.002
92153W        W64468  17.584  42.207   0.905
92154W        W64469  25.893  29.044   1.097
92155W        W64470  29.371  22.980   3.595
92156W        W64471  41.696  14.171  12.961
92157W        W64472  14.327   4.817  10.469
92158W        W64473  21.831  12.298   1.471
92159W        W64474  23.074  38.314  11.507
92160W        W64475  34.394  31.882  11.330
92161W        W64476  30.228  44.306  11.578
92162W        W64477  30.163  20.700   3.827
92163W        W64478  10.924  20.672  11.272
92164W        W64479  24.905  16.744   3.657
92165W        W64480  10.223   4.142   4.756
92166W        W64481  14.816  39.140  11.601
92167W        W64482  21.873   2.323   4.947
92168W        W64483  27.687  20.962   4.064
92169W        W64484  29.173  14.143  12.478
92170W        W64485   9.797  31.908  10.167
92171W        W64486  10.100  14.111  10.762
92172W        W64487  21.093  13.707  12.013
92173W        W64488   5.823  33.026   0.879
92174W        W64489  12.891  32.487  10.432
92175W        W64490  13.318   5.681  13.059
92176W        W64491  33.184   1.597  13.309
92177W        W64492  35.095   1.190   4.638
92178W        W64493  25.969   9.346   3.279
92179W        W64494  12.873  30.549  13.233
92180W        W64495  14.703   8.844   2.218
92181W        W64496  20.167  26.568  11.491
92182W        W64497  19.152  36.452  14.622
92183W        W64498  32.921  31.898  10.716
92184W        W64499  21.218   0.317   4.727
92185W        W64500  35.412   0.814   1.634
92186W        W64501  14.178   5.952   4.502
92187W        W64502  25.838   0.365  11.871
92188W        W64503   0.711  23.704   4.173
92189W        W64504  12.933  22.621  14.780
92190W        W64505  15.788   6.718   1.823
92191W        W64506   9.866  14.381  14.931
92192W        W64507  34.652  37.494   4.050
92193W        W64508  44.010  34.900   3.103
92194W        W64509  32.244   7.579   4.078
92195W        W64510  39.828  12.905   2.278
92196W        W64511  13.220   1.369  13.745
92197W        W64512  30.630  38.573   1.245
92198W        W64513  11.610  19.102   2.116
92199W        W64514  20.004  24.044   3.332
92200W        W64515   7.829   5.272  13.189
92201W        W64516   7.733  22.837  10.441
92202W        W64517   7.403  31.615   4.254
92203W        W64518  25.620  26.440  11.170
92204W        W64519   7.135  25.174   0.722
92205W        W64520  39.446   2.739  11.209
92206W        W64521  33.105  33.425  11.146
92207W        W64522  34.692  38.369   4.121
92208W        W64523  30.556   9.634  11.715
92209W        W64524   6.055  44.962   4.153
92210W        W64525   1.162  39.797   4.490
92211W        W64526  40.826  27.376  14.440
92212W        W64527   4.272  16.186   0.303
92213W        W64528  25.760  19.662  11.624
92214W        W64529  43.381   3.789   1.879
92215W        W64530   9.193  25.998   3.208
92216W        W64531  40.341  39.601   2.452
92217W        W64532  40.967   2.279   0.707
92218W        W64533  12.690  43.564   2.890
92219W        W64534  28.997  25.228   1.311
92220W        W64535  17.963  29.567  10.306
92221W        W64536  27.599  11.913  12.518
92222W        W64537  27.171   0.752   1.181
92223W        W64538  32.473  29.663   4.343
92224W        W64539   0.920  38.151   2.814
92225W        W64540   5.394  23.991   3.749
92226W        W64541  26.661   6.783   5.510
92227W        W64542  14.850  38.473  14.586
92228W        W64543  27.208   9.339   4.049
92229W        W64544  35.633  42.274  14.465
92230W        W64545   2.170   8.618   1.855
92231W        W64546  39.266  14.291   3.024
92232W        W64547  10.085  30.329   1.280
92233W        W64548  16.194   7.759   1.261
92234W        W64549  15.685  11.344   0.202
92235W        W64550   3.207  43.947  12.025
92236W        W64551  39.607  21.489   1.756
92237W        W64552  32.691  23.296  12.605
92238W        W64553  10.220  15.731  14.458
92239W        W64554   9.762  17.791   4.859
92240W        W64555  44.503   9.438   2.396
92241W        W64556  24.683   0.481   4.659
92242W        W64557  29.491  23.695   1.389
92243W        W64558   2.783  26.189   4.699
92244W        W64559  11.155   0.246   1.717
92245W        W64560  17.988  11.110  14.473
92246W        W64561  19.665  32.241  10.077
92247W        W64562  35.652  19.174  13.964
92248W        W64563  30.607  28.934   2.523
92249W        W64564  42.474  22.669  14.952
92250W        W64565   7.727  42.276  13.853
92251W        W64566  37.336  29.619   2.438
92252W        W64567  35.498  41.475   2.585
92253W        W64568  14.159  30.731  13.480
92254W        W64569  28.426   5.234  14.881
92255W        W64570  17.250  11.603   0.411
92256W        W64571   0.436  23.160  14.754
92257W        W64572  35.354   7.532  12.682
92258W        W64573  15.806  18.833   4.986
92259W        W64574  27.451  28.380  12.874
92260W        W64575  15.460  25.686   3.159
92261W        W64576  39.079  31.985   0.526
92262W        W64577  16.069  38.060   1.202
92263W        W64578   5.315  21.331  14.249
92264W        W64579   3.407  43.299  12.127
92265W        W64580  43.933   5.032  12.869
92266W        W64581  26.538   8.870  12.860
92267W        W64582   7.862  16.151   1.172
92268W        W64583  25.959  21.126   2.730
92269W        W64584   1.504  37.656  13.304
92270W        W64585  27.092  43.656  14.788
92271W        W64586  27.014  21.587  11.043
92272W        W64587   3.293   7.887   2.259
92273W        W64588  32.407   9.373   1.282
92274W        W64589   2.236  40.379  13.392
92275W        W64590   7.737   0.010   3.977
92276W        W64591  11.517  25.169  10.180
92277W        W64592   4.374   8.464  10.517
92278W        W64593  22.369  37.976   2.190
92279W        W64594  18.387   2.701   0.461
92280W        W64595  24.436  21.067   2.255
92281W        W64596  15.337   8.396  11.094
92282W        W64597   6.325  27.639  14.152
92283W        W64598  23.187  16.992  11.134
92284W        W64599   7.903  27.221  12.007
92285W        W64600  20.560  14.127   2.282
92286W        W64601  13.845  29.516   2.417
92287W        W64602   0.309  16.594  14.730
92288W        W64603  33.614  37.927  10.450
92289W        W64604  32.532  25.804  14.733
92290W        W64605  43.365  29.900  14.417
92291W        W64606  21.736   9.948  12.923
92292W        W64607   1.204  42.485  10.749
92293W        W64608  18.197   6.881   0.561
92294W        W64609  14.551  24.603  12.447
92295W        W64610  29.725  38.525  14.980
92296W        W64611  15.485  24.607   1.172
92297W        W64612  42.778  33.811  11.957
92298W        W64613  12.603  10.669   3.291
92299W        W64614  39.118  37.567  11.629
92300W        W64615   4.318  18.590  11.159
92301W        W64616  13.253  33.827  10.939
92302W        W64617  21.599  20.299   5.168
92303W        W64618  40.056  41.250  12.422
92304W        W64619  22.142   5.637   3.112
92305W        W64620  17.184  34.354  12.872
92306W        W64621  33.027  11.410  11.845
92307W        W64622  37.868   0.252  13.505
92308W        W64623  11.465  42.849   0.843
92309W        W64624  33.897  14.758   0.400
92310W        W64625  39.932   6.108   1.885
92311W        W64626  37.399  36.546  11.235
92312W        W64627   7.207  32.628  12.634
92313W        W64628   9.343   0.939   4.952
92314W        W64629   8.914   5.314   0.817
92315W        W64630  20.314   7.450   1.957
92316W        W64631  35.408   7.734  14.102
92317W        W64632   0.523  32.552   2.876
92318W        W64633  37.848  16.697  12.085
92319W        W64634  41.018  23.199  13.830
92320W        W64635   5.506  30.713  11.581
92321W        W64636  37.866   1.201   0.117
92322W        W64637  31.127  43.914  10.846
92323W        W64638  36.183  19.738   2.985
92324W        W64639  42.229  42.238  10.695
92325W        W64640  28.449  38.066   2.290
92326W        W64641  28.014   2.286   2.370
92327W        W64642   4.676  27.547  12.688
92328W        W64643  23.487   6.720  14.305
92329W        W64644   6.314  15.693  11.309
92330W        W64645  12.758  33.505   5.324
92331W        W64646  32.635   0.541  13.835
92332W        W64647   7.830  10.204   0.341
92333W        W64648  21.257   7.262  14.019
92334W        W64649  43.755  41.014  12.556
92335W        W64650  39.628  14.358  13.583
92336W        W64651   5.401   0.749   4.241
92337W        W64652  19.383  33.035  12.922
92338W        W64653   2.256   6.705   2.176
92339W        W64654  32.044  37.870  11.693
92340W        W64655   3.345  30.973  14.473
92341W        W64656  37.894  11.640   4.661
92342W        W64657  16.559  38.294   4.338
92343W        W64658  13.543   2.450   0.910
92344W        W64659  10.253  25.230  10.202
92345W        W64660  20.327   8.191  13.129
92346W        W64661  31.373  27.261   2.108
92347W        W64662  26.553  12.526  11.540
92348W        W64663  39.198  27.222   4.959
92349W        W64664  12.035  31.874  11.935
92350W        W64665  15.209  25.063   0.271
92351W        W64666  11.771  15.628   1.807
92352W        W64667  34.433  24.103  10.689
92353W        W64668  35.748   3.026   0.677
92354W        W64669  23.236  29.452  11.596
92355W        W64670  15.844   1.701   3.709
92356W        W64671  40.004  21.489   0.810
92357W        W64672  36.899   7.249  14.679
92358W        W64673  38.858  37.667  10.270
92359W        W64674   8.672  17.556  13.459
92360W        W64675  29.987  11.675   4.636
92361W        W64676  32.695  12.349  12.998
92362W        W64677  13.504   8.823  14.290
92363W        W64678  44.642  37.535   1.721
92364W        W64679  20.102  19.073  12.053
92365W        W64680  15.546  27.956   3.378
92366W        W64681   0.705   1.800  11.085
92367W        W64682  29.144  27.734  11.995
92368W        W64683   1.258  35.538   2.426
92369W        W64684  31.220  36.078  12.584
92370W        W64685  40.876   1.879   1.371
92371W        W64686  28.211  20.900  14.881
92372W        W64687  28.925  25.572   1.735
92373W        W64688  13.054   2.653  14.903
92374W        W64689  29.461   8.346   0.238
92375W        W64690   6.005  39.872   2.635
92376W        W64691  37.031  23.387   0.936
92377W        W64692  25.129   0.862   1.924
92378W        W64693  31.109  43.307  14.842
92379W        W64694  33.705  21.003  11.982
92380W        W64695  23.506  16.332   3.325
92381W        W64696   4.926  13.616  11.259
92382W        W64697   6.219  43.998   0.945
92383W        W64698   8.142  39.529   1.891
92384W        W64699  25.907  34.197  10.079
92385W        W64700  36.837   9.076   4.560
92386W        W64701   1.788  10.649   0.271
92387W        W64702  22.441  40.203  11.447
92388W        W64703   8.267  25.023  10.428
92389W        W64704  39.404  30.663  14.219
92390W        W64705  15.100  17.383  13.920
92391W        W64706  14.166  44.379  13.758
92392W        W64707  26.075  11.303   4.119
92393W        W64708  14.937  13.246   4.451
92394W        W64709  10.080  19.049   3.719
92395W        W64710  38.416  44.854   2.266
92396W        W64711  44.250   5.870  11.794
92397W        W64712  10.153   3.906   1.510
92398W        W64713  41.425  10.751   4.562
92399W        W64714  36.967   8.097  14.799
92400W        W64715  28.742  20.739  14.533
92401W        W64716  36.978  42.407  13.909
92402W        W64717  20.951  11.585   4.613
92403W        W64718  39.003  14.196   2.116
92404W        W64719  31.643  15.979   2.358
92405W        W64720  40.915  21.498  14.501
92406W        W64721  14.669  19.779  10.720
92407W        W64722  15.640  20.963  11.554
92408W        W64723  39.292  23.623   1.324
92409W        W64724  14.623   3.272  14.500
92410W        W64725  24.931   1.118   3.283
92411W        W64726  14.768  44.998   2.681
92412W        W64727   1.393  33.483   4.568
92413W        W64728  10.370  41.215   3.601
92414W        W64729  16.012   8.394   0.905
92415W        W64730   5.667  31.319  13.407
92416W        W64731  34.817  16.198  11.170
92417W        W64732  15.060  35.859  13.148
92418W        W64733  41.531  42.570  12.975
92419W        W64734  21.713  36.702  11.874
92420W        W64735  11.195  34.187   3.097
92421W        W64736  22.564   1.321  10.356
92422W        W64737  26.760   5.799   0.963
92423W        W64738  43.891   9.613  11.013
92424W        W64739  10.888   2.871  13.540
92425W        W64740  39.473   1.797   2.305
92426W        W64741  18.714  39.444  10.855
92427W        W64742  29.386  18.462   4.081
92428W        W64743  15.181  12.310  11.762
92429W        W64744   1.296   3.242  10.669
92430W        W64745   1.924   9.177  14.409
92431W        W64746  44.308  36.379   3.826
92432W        W64747  14.797   0.705  14.520
92433W        W64748   2.491  36.530   2.868
92434W        W64749   4.452   8.722  14.984
92435W        W64750  17.046  27.523  13.991
92436W        W64751  11.890   5.688  13.897
92437W        W64752  43.785  16.130  10.870
92438W        W64753  38.106   6.436  12.746
92439W        W64754  12.718  19.203   0.442
92440W        W64755  16.626  37.968  14.991
92441W        W64756  42.734  41.911  11.250
92442W        W64757  21.146  28.500  14.790
92443W        W64758  29.648  21.915  11.973
92444W        W64759  43.983  28.984   3.260
92445W        W64760   5.760  10.738   1.483
92446W        W64761   1.878  17.124  11.204
92447W        W64762   4.294   5.979   1.518
92448W        W64763  34.594  39.905  10.339
92449W        W64764  12.167  12.379   2.334
92450W        W64765  14.532  25.608  12.839
92451W        W64766  24.231  21.715   2.952
92452W        W64767   9.609   9.841   0.742
92453W        W64768  29.992  43.403  13.988
92454W        W64769   7.471  10.418   4.179
92455W        W64770  23.511  29.641  12.093
92456W        W64771   9.838  28.520   0.301
92457W        W64772   0.759  22.098   3.787
92458W        W64773  18.197  32.672  14.719
92459W        W64774  44.273   8.655  12.345
92460W        W64775  13.242  18.235  10.300
92461W        W64776  13.081  34.457   0.887
92462W        W64777  22.145  23.347  12.981
92463W        W64778  44.827   6.736   0.943
92464W        W64779  41.237   3.319   4.607
92465W        W64780  28.295  25.966  11.397
92466W        W64781  30.854   6.927  14.460
92467W        W64782  22.394  14.321   5.042
92468W        W64783  28.909   7.491  10.611
92469W        W64784  37.979   9.300  11.621
92470W        W64785   3.594  38.088   2.672
92471W        W64786  18.207   3.863   4.317
92472W        W64787  27.238  15.553  12.136
92473W        W64788  16.797  43.161   0.745
92474W        W64789  27.257   5.737   1.779
92475W        W64790  27.362  43.790   1.214
92476W        W64791  43.237   6.465   3.762
92477W        W64792  40.787  15.087   1.069
92478W        W64793  24.660  26.579   3.784
92479W        W64794  40.496  26.443   4.151
92480W        W64795  32.851  30.384  13.985
92481W        W64796   0.101   3.844   0.234
92482W        W64797  26.109  38.809  13.051
92483W        W64798  32.043  12.335  10.741
92484W        W64799   3.280   2.568  12.559
92485W        W64800  16.689   6.623  12.383
92486W        W64801  13.699  37.908   1.846
92487W        W64802  28.105  20.695  12.392
92488W        W64803  28.569   0.823  14.097
92489W        W64804  40.022  27.109  12.388
92490W        W64805  22.508  20.270  12.800
92491W        W64806   6.308  42.775  14.362
92492W        W64807  30.193  25.552   1.189
92493W        W64808  13.582  33.606  12.470
92494W        W64809  12.786  43.238  14.727
92495W        W64810  28.986  11.013  11.339
92496W        W64811  31.457  40.765  11.505
92497W        W64812  38.020  35.234  13.492
92498W        W64813  13.782  32.997  13.932
92499W        W64814  37.816  17.471  11.641
92500W        W64815  20.963  39.639   5.353
92501W        W64816  12.615  15.880  14.981
92502W        W64817   4.924  12.183  11.889
92503W        W64818  29.156  30.534   4.102
92504W        W64819  34.487   2.380   4.154
92505W        W64820   4.989  10.774  12.830
92506W        W64821   6.330  23.712  11.892
92507W        W64822   9.211  40.559   3.735
92508W        W64823  18.512   9.127   2.529
92509W        W64824  31.716   0.092  14.921
92510W        W64825  19.324  40.443  13.203
92511W        W64826  31.631   5.268   0.270
92512W        W64827  41.486   1.806  13.350
92513W        W64828  38.126  31.176  13.063
92514W        W64829  13.174  32.594  14.747
92515W        W64830  18.536   4.771  12.495
92516W        W64831   5.338   0.905   0.908
92517W        W64832  30.938  36.890   1.066
92518W        W64833   2.682  21.558   3.695
92519W        W64834   0.508  33.864   2.325
92520W        W64835   5.646  24.497  11.577
92521W        W64836  42.330   6.231  14.851
92522W        W64837  30.514  42.236   0.683
92523W        W64838  19.169  12.034   1.712
92524W        W64839  26.680  44.005  11.001
92525W        W64840  18.834   9.818   2.755
92526W        W64841  15.874   1.800   2.793
92527W        W64842  32.639   7.969  12.477
92528W        W64843   0.698   4.746  13.360
92529W        W64844  30.486  31.983  13.873
92530W        W64845  37.325  32.542   2.789
92531W        W64846  31.205  24.055  13.185
92532W        W64847  13.511   0.187   1.408
92533W        W64848   5.659  18.478   1.457
92534W        W64849  21.447  27.744   5.310
92535W        W64850  41.969  41.184  12.981
92536W        W64851  32.966  32.072   2.118
92537W        W64852  41.365   8.917  11.042
92538W        W64853  24.753  27.037  13.144
92539W        W64854  18.365   6.277  12.338
92540W        W64855  22.685   4.431   1.805
92541W        W64856  28.412  20.581   3.708
92542W        W64857  13.562   8.926   3.230
92543W        W64858  14.621  34.444   3.885
92544W        W64859  44.709  38.193  11.463
92545W        W64860  20.569   5.659  10.879
92546W        W64861   2.353  30.293  10.351
92547W        W64862  10.750  15.004   4.316
92548W        W64863  15.173  32.583  14.881
92549W        W64864  29.277  33.072   4.823
92550W        W64865  19.819  20.200   2.703
92551W        W64866  17.163  39.867   0.893
92552W        W64867   4.309  17.171   1.226
92553W        W64868  39.391   3.750  14.308
92554W        W64869  40.979  43.319  12.939
92555W        W64870  38.488  21.089   4.873
92556W        W64871  38.152  20.049   3.795
92557W        W64872  11.927  16.652  10.560
92558W        W64873  41.050  35.419   0.438
92559W        W64874  10.575  30.464   1.402
92560W        W64875   2.213  28.260   1.400
92561W        W64876  36.777  38.389  10.733
92562W        W64877  42.366  35.022  12.136
92563W        W64878  21.559  19.626   4.649
92564W        W64879  29.394  22.692   1.729
92565W        W64880   6.947   5.894   0.206
92566W        W64881   0.017  40.259  14.554
92567W        W64882  34.563  13.718  13.378
92568W        W64883   5.186   1.555  12.980
92569W        W64884  33.103  21.574   4.312
92570W        W64885  29.518  33.045  11.992
92571W        W64886  39.837  41.502  14.309
92572W        W64887  10.396  37.612   2.258
92573W        W64888   6.471  23.911  12.616
92574W        W64889  16.760  32.541  14.951
92575W        W64890  43.337  34.992  14.622
92576W        W64891   0.003   5.899   3.582
92577W        W64892  42.216  11.743   2.589
92578W        W64893  20.251  28.045  10.778
92579W        W64894  22.794   9.149  14.741
92580W        W64895  13.728  27.996  11.553
92581W        W64896  27.935  16.380  10.043
92582W        W64897  20.900   4.438   4.608
92583W        W64898  25.463  10.084  11.663
92584W        W64899  27.484  30.123  12.310
92585W        W64900  23.776   2.927  14.756
92586W        W64901   4.355  19.599  14.918
92587W        W64902  22.098  22.802  13.936
92588W        W64903  38.338   0.770  13.081
92589W        W64904  17.206  13.867   1.440
92590W        W64905   1.179  21.524   3.343
92591W        W64906  28.640  13.674   3.856
92592W        W64907  12.915   3.013   2.702
92593W        W64908  42.763  34.430  12.884
92594W        W64909  14.918  35.735  14.497
92595W        W64910   8.158  42.860   3.086
92596W        W64911  39.897  19.725  13.961
92597W        W64912  24.205   9.843   4.080
92598W        W64913  31.043   2.430   4.445
92599W        W64914  18.480  22.416  11.791
92600W        W64915  13.289   5.745  11.260
92601W        W64916   9.767  10.268  11.168
92602W        W64917  18.025  22.823  11.923
92603W        W64918  29.707  20.257  12.992
92604W        W64919   2.985  38.285   1.280
92605W        W64920  43.570   3.444   3.330
92606W        W64921   1.402  36.843  13.885
92607W        W64922   3.327   9.926  14.479
92608W        W64923  14.423  40.061   4.162
92609W        W64924  18.980  38.353   2.263
92610W        W64925  20.145  44.203   2.097
92611W        W64926  42.991   7.306  14.714
92612W        W64927   7.835  42.277  12.951
92613W        W64928  31.139   2.070  11.601
92614W        W64929  25.597  24.716   3.728
92615W        W64930  28.552  23.247   3.208
92616W        W64931  40.964  26.048   3.143
92617W        W64932  24.363  42.521  12.185
92618W        W64933  42.353  39.022   3.374
92619W        W64934  25.423  38.746   1.224
92620W        W64935  15.639  26.619   1.629
92621W        W64936  12.212  32.118  10.423
92622W        W64937   5.443  35.406  14.714
92623W        W64938  41.327  34.521   3.608
92624W        W64939  41.370  42.833  14.814
92625W        W64940  33.341  20.196  11.437
92626W        W64941  34.661  28.939  13.836
92627W        W64942  35.089  28.213   2.709
92628W        W64943   7.175   4.037   3.151
92629W        W64944  41.999   1.540   3.691
92630W        W64945  11.976  40.025  12.906
92631W        W64946  25.562  17.036  10.742
92632W        W64947  30.515  13.083  11.681
92633W        W64948  29.934   7.844   4.035
92634W        W64949  40.265   3.220  12.267
92635W        W64950  27.351  22.651   0.617
92636W        W64951  16.287  25.398  11.550
92637W        W64952  29.274  30.112   3.221
92638W        W64953  29.418  15.142  13.844
92639W        W64954  44.328  42.943  10.759
92640W        W64955  18.476  31.239  10.649
92641W        W64956  21.636   1.900  10.425
92642W        W64957  12.810  11.396  12.862
92643W        W64958   1.739  34.918   1.000
92644W        W64959  17.287  26.020   2.805
92645W        W64960  42.300  20.156   3.592
92646W        W64961  13.123   1.200   2.397
92647W        W64962  11.926  35.720   3.819
92648W        W64963   3.933  25.113  10.707
92649W        W64964  19.072  41.953  13.078
92650W        W64965   4.625  32.677   1.749
92651W        W64966  41.253  36.437  11.110
92652W        W64967  27.090  16.844  14.190
92653W        W64968  37.569  20.652  14.764
92654W        W64969  40.221  30.317   0.502
92655W        W64970  35.829  28.418  10.831
92656W        W64971  22.684  38.150   1.392
92657W        W64972  30.451  30.685   3.175
92658W        W64973   5.837  34.079  10.738
92659W        W64974   7.906  32.531  10.579
92660W        W64975  33.031   8.834  11.010
92661W        W64976  23.454   8.286   2.175
92662W        W64977   9.286  24.887   2.735
92663W        W64978  34.737  35.521   2.684
92664W        W64979  30.891   1.434   1.900
92665W        W64980   2.723  26.761  11.697
92666W        W64981  13.318  22.949  11.189
92667W        W64982  39.676  39.793  13.517
92668W        W64983  34.469  37.526  14.036
92669W        W64984  32.890   3.822  13.957
92670W        W64985  35.402  23.878  10.515
92671W        W64986  18.935  42.905  13.396
92672W        W64987   9.411  24.969   1.840
92673W        W64988  26.676  27.869   4.623
92674W        W64989  15.682  23.681   1.401
92675W        W64990   8.122  37.811  14.348
92676W        W64991  33.115  12.338  14.299
92677W        W64992  10.720  35.928  12.079
92678W        W64993  38.823  37.199   4.852
92679W        W64994  40.317  40.058  11.138
92680W        W64995  16.546  39.391  12.638
92681W        W64996   7.652   9.390  11.630
92682W        W64997  21.990   8.224  13.315
92683W        W64998  37.889   1.248  14.598
92684W        W64999  34.252  22.733  13.794
92685W        W65000  16.184  33.866   0.500
92686W        W65001  20.860  11.274   0.282
92687W        W65002  14.078  18.356  12.803
92688W        W65003  39.921   5.331   2.710
92689W        W65004   7.370  14.231   4.127
92690W        W65005  32.630  28.058  14.003
92691W        W65006  27.050  23.916   4.804
92692W        W65007  19.661  10.188   2.448
92693W        W65008  41.053  32.970   0.868
92694W        W65009  43.931  42.352   4.690
92695W        W65010  30.513  35.878   2.481
92696W        W65011  23.424  44.873   3.894
92697W        W65012  25.119   6.456   2.288
92698W        W65013  39.830  26.532  14.686
92699W        W65014  20.156   9.302  10.022
92700W        W65015  27.950  24.473  14.199
92701W        W65016  40.386   1.273  11.532
92702W        W65017  26.430  10.744   3.639
92703W        W65018  26.671  32.889   3.561
92704W        W65019  44.365  14.190   2.238
92705W        W65020  24.940  42.013   3.368
92706W        W65021   7.379  22.109   4.733
92707W        W65022  32.866  41.434   3.177
92708W        W65023   4.419   7.694   3.357
92709W        W65024  43.223  31.051   0.033
92710W        W65025  26.284   4.624   1.820
92711W        W65026  39.903   5.516   1.154
92712W        W65027  38.442  21.323  12.033
92713W        W65028  27.628  31.451   3.454
92714W        W65029   4.452  31.629   2.916
92715W        W65030   8.752   7.593  13.537
92716W        W65031  38.097  31.556   1.771
92717W        W65032  38.133  26.886  11.991
92718W        W65033   5.781  36.442  12.517
92719W        W65034  31.833   1.777   4.315
92720W        W65035  35.430  31.385   0.412
92721W        W65036  41.916  13.415   0.057
92722W        W65037  24.109  43.761   3.626
92723W        W65038  13.837  22.009  14.763
92724W        W65039  33.795  35.989   5.078
92725W        W65040  19.714   5.975  12.409
92726W        W65041  43.815  17.029  11.603
92727W        W65042  30.675  40.780  13.686
92728W        W65043  13.567  20.627  10.793
92729W        W65044  38.457  25.155  10.213
92730W        W65045  27.508  34.326   4.089
92731W        W65046  40.891  12.014   2.209
92732W        W65047  27.668  43.519   2.043
92733W        W65048   4.646  18.289  13.820
92734W        W65049  44.242  38.384   4.564
92735W        W65050  17.528  17.312   3.235
92736W        W65051  31.481  42.579  13.880
92737W        W65052  40.059  22.630   3.339
92738W        W65053  36.041  39.154   2.391
92739W        W65054  10.837  40.510  12.564
92740W        W65055  32.523  29.865  14.354
92741W        W65056  19.585  43.794  12.836
92742W        W65057   0.777   3.903   3.296
92743W        W65058   0.718  23.582  11.903
92744W        W65059  37.286   0.399   0.402
92745W        W65060   9.138   7.501   2.308
92746W        W65061  33.984  33.554   3.653
92747W        W65062  37.298  31.584   3.688
92748W        W65063  44.747  17.157  11.042
92749W        W65064  28.051   3.114  11.799
92750W        W65065  44.836   7.734  11.496
92751W        W65066   7.228  11.563   1.487
92752W        W65067   9.282  31.194  14.782
92753W        W65068  44.783  11.785   2.728
92754W        W65069  22.534  10.361  10.425
92755W        W65070  27.450  36.782   2.920
92756W        W65071  27.091  25.962  13.587
92757W        W65072  18.056  31.944   2.264
92758W        W65073  11.853  44.820  10.672
92759W        W65074  44.136  15.188   4.262
92760W        W65075  17.718   5.339   0.706
92761W        W65076  12.942  35.341  14.444
92762W        W65077  14.933  29.662   9.842
92763W        W65078   8.694  21.781  11.866
92764W        W65079   4.480  27.070  13.956
92765W        W65080   8.857  18.615   4.952
92766W        W65081  37.369   7.920  13.365
92767W        W65082  37.034  28.873  10.794
92768W        W65083  43.460  42.037   1.770
92769W        W65084   7.086  35.681   4.888
92770W        W65085  44.497  31.953  12.256
92771W        W65086  18.497  42.470   0.887
92772W        W65087  37.319  18.160   0.967
92773W        W65088  23.025  23.493   3.733
92774W        W65089   4.613   6.648  11.867
92775W        W65090  44.903  43.857   3.927
92776W        W65091   4.423   7.705   1.852
92777W        W65092  22.814  11.833  12.876
92778W        W65093  39.942  40.900  12.060
92779W        W65094   2.691   9.329   0.356
92780W        W65095   0.408  43.952   4.728
92781W        W65096  25.043  14.157   5.039
92782W        W65097  27.097  18.099  10.740
92783W        W65098  42.242  25.177   4.738
92784W        W65099  15.079   7.819  12.099
92785W        W65100  17.609  34.437   4.363
92786W        W65101  36.548  28.382   1.921
92787W        W65102  16.224  12.156   3.217
92788W        W65103  19.778  39.448   2.307
92789W        W65104  38.419   1.323   2.541
92790W        W65105   5.267  18.592  14.641
92791W        W65106  37.424   7.244   3.118
92792W        W65107  29.425   7.322   2.202
92793W        W65108  20.897  14.632  11.998
92794W        W65109  11.661  38.149  11.026
92795W        W65110  33.475  41.283   0.138
92796W        W65111  41.967  17.284  11.881
92797W        W65112   0.461   6.840   4.067
92798W        W65113  17.433   5.866   2.864
92799W        W65114   5.398  20.481  10.670
92800W        W65115  24.586  19.404  13.729
92801W        W65116   8.823  36.353   0.371
92802W        W65117  15.182  32.112   4.565
92803W        W65118  17.771  14.143  13.400
92804W        W65119  44.683  23.519  14.508
92805W        W65120   0.880  29.126   2.504
92806W        W65121  14.246  27.076  14.893
92807W        W65122  28.043  26.600   3.882
92808W        W65123  16.868  12.701  14.550
92809W        W65124   2.874  39.501   3.658
92810W        W65125  27.284  39.229   4.149
92811W        W65126  12.166   4.313  13.543
92812W        W65127  33.439  20.462   1.414
92813W        W65128  32.266  24.054  11.411
92814W        W65129  24.535  17.172   0.440
92815W        W65130  44.590   8.871   3.758
92816W        W65131   5.867  13.717   2.123
92817W        W65132  40.364  39.924   1.921
92818W        W65133  30.610  37.818   0.799
92819W        W65134   5.402  10.368   2.377
92820W        W65135  38.383  32.533  11.090
92821W        W65136  43.981  24.651   5.038
92822W        W65137  31.056  12.704   2.038
92823W        W65138   3.529  31.009   4.310
92824W        W65139  10.942  17.131  11.007
92825W        W65140   0.449   1.117   1.802
92826W        W65141   7.316  43.828  11.948
92827W        W65142   2.239   8.226   4.489
92828W        W65143  19.133  34.136  14.381
92829W        W65144  40.165  22.341   4.585
92830W        W65145   4.225   3.218   0.653
92831W        W65146  13.586   2.541   1.821
92832W        W65147  20.258  42.361   2.747
92833W        W65148   2.945  43.068  11.161
92834W        W65149  41.564   5.507   3.201
92835W        W65150   0.235  22.455  14.065
92836W        W65151   5.763   0.178  11.125
92837W        W65152  24.281  31.503   1.314
92838W        W65153  16.062  39.311  13.423
92839W        W65154  29.893  34.396   0.671
92840W        W65155  41.390  33.996  11.143
92841W        W65156  20.639  41.757   4.144
92842W        W65157  19.366  30.068   5.441
92843W        W65158  27.648  16.255  13.146
92844W        W65159  27.988  41.534   4.635
92845W        W65160  42.278  27.865  13.481
92846W        W65161  32.144  11.665   3.260
92847W        W65162  31.535  35.617   2.240
92848W        W65163  41.379  33.301  14.748
92849W        W65164   8.400  38.103  10.715
92850W        W65165  16.258  37.041   4.606
92851W        W65166  27.694  18.158   0.656
92852W        W65167  31.858  21.705  12.097
92853W        W65168  43.423  16.497  14.397
92854W        W65169   4.379  26.722   4.190
92855W        W65170  42.808  22.272  11.193
92856W        W65171  27.680  28.533   2.278
92857W        W65172  13.488   0.050   4.546
92858W        W65173  37.076  17.099   3.761
92859W        W65174  35.650  43.830  13.828
92860W        W65175   2.033  18.234   4.154
92861W        W65176  40.441  43.954   2.227
92862W        W65177   4.360  26.458   3.226
92863W        W65178   2.515  25.235   0.301
92864W        W65179  42.747  23.668  13.995
92865W        W65180   0.650  36.762  11.520
92866W        W65181  15.791  31.618   3.304
92867W        W65182   9.065  23.903  10.114
92868W        W65183  15.069  27.223  12.678
92869W        W65184  21.723   3.223  14.458
92870W        W65185  19.589  13.795  13.870
92871W        W65186  26.043  11.694  11.296
92872W        W65187   3.188  28.966  13.002
92873W        W65188  11.159  41.926  14.147
92874W        W65189  25.204  24.047   4.756
92875W        W65190  20.275  28.202   1.261
92876W        W65191   3.888   2.518  13.838
92877W        W65192  26.182  32.909   1.425
92878W        W65193   8.265   0.513  13.540
92879W        W65194  41.555  23.155   2.755
92880W        W65195  42.565   1.584   1.597
92881W        W65196  25.695  43.386   1.735
92882W        W65197  39.909  16.120   1.140
92883W        W65198   1.014  29.135  12.357
92884W        W65199   0.645  14.274   0.739
92885W        W65200   6.449  37.903   5.112
92886W        W65201  25.717  15.166   2.368
92887W        W65202  36.545   9.896  13.346
92888W        W65203  21.512  34.076  11.181
92889W        W65204  10.960   0.710  13.840
92890W        W65205   8.379   0.313  12.444
92891W        W65206   9.847  38.599   3.308
92892W        W65207  42.424   3.414   2.711
92893W        W65208  36.981  13.092  11.308
92894W        W65209   4.284  20.701  10.471
92895W        W65210  37.303   1.260  10.561
92896W        W65211   4.618  21.086  13.470
92897W        W65212  12.698  17.292  12.865
92898W        W65213   0.549  27.910   1.751
92899W        W65214  21.295  15.706   4.109
92900W        W65215  19.091  26.237  10.942
92901W        W65216   7.780  38.218  12.980
92902W        W65217   8.042  12.263  13.468
92903W        W65218  43.822   4.945  14.229
92904W        W65219  14.624  24.586  10.602
92905W        W65220  25.130  43.442   4.315
92906W        W65221  16.676  42.786   1.103
92907W        W65222   0.257  28.497  13.274
92908W        W65223  21.621  14.047   1.484
92909W        W65224  44.081   2.358  13.246
92910W        W65225  43.436  15.777   4.842
92911W        W65226  37.780  20.505  12.851
92912W        W65227  34.581  34.433   1.305
92913W        W65228  19.722   6.611  13.172
92914W        W65229  21.036  14.560  13.826
92915W        W65230  38.429  16.398   4.549
92916W        W65231  11.286  16.252  12.312
92917W        W65232  35.489  39.818  11.878
92918W        W65233  22.334  39.682  11.117
92919W        W65234  23.665  35.035   2.961
92920W        W65235  24.203  24.212   0.388
92921W        W65236  15.555   1.010  14.914
92922W        W65237   0.220   8.779   0.448
92923W        W65238  42.273   0.361   1.320
92924W        W65239  24.720  28.347   2.048
92925W        W65240  38.517  29.202  10.696
92926W        W65241  21.148  41.534  12.780
92927W        W65242  39.494  10.185   1.443
92928W        W65243  28.523  10.486  12.644
92929W        W65244   7.285  35.521   2.958
92930W        W65245  27.924  33.522   4.996
92931W        W65246  26.153   2.632   1.697
92932W        W65247  15.014  36.359  13.096
92933W        W65248  11.670  13.241   2.290
92934W        W65249  14.368  29.277   5.242
92935W        W65250  11.883  27.132  14.763
92936W        W65251  27.042  43.598   4.632
92937W        W65252  43.367  31.357   4.590
92938W        W65253  13.235  31.632  12.145
92939W        W65254  14.816  29.217  12.078
92940W        W65255  31.380  33.855   1.201
92941W        W65256  44.397   9.658  10.788
92942W        W65257  27.401  39.513   1.890
92943W        W65258   0.523   3.397   1.381
92944W        W65259  13.860  22.045   2.381
92945W        W65260  14.302  42.878   9.817
92946W        W65261   7.656   1.190   0.815
92947W        W65262   9.231  44.740  13.475
92948W        W65263  20.149   4.559  10.185
92949W        W65264  28.076  12.648  14.664
92950W        W65265   2.649  27.131  11.167
92951W        W65266  42.385   3.735  14.934
92952W        W65267   2.272   6.825   0.773
92953W        W65268  27.575   8.398  11.024
92954W        W65269  33.566  25.293   4.551
92955W        W65270  19.202  25.324  12.478
92956W        W65271   2.623  25.055   1.139
92957W        W65272  30.886  11.691  12.262
92958W        W65273  39.009  20.161  13.767
92959W        W65274  38.583  40.360  14.380
92960W        W65275   5.184  20.471   3.824
92961W        W65276   4.281  39.613  13.774
92962W        W65277   3.294  22.975  10.994
92963W        W65278  15.764  34.387  11.559
92964W        W65279  41.804  41.711   2.778
92965W        W65280  20.834  11.046   5.600
92966W        W65281  43.398  30.415  11.666
92967W        W65282  25.483  34.418   5.132
92968W        W65283  23.423   3.968  10.687
92969W        W65284  13.271   8.708   3.678
92970W        W65285   2.218   2.002   1.909
92971W        W65286  17.607   1.527   2.240
92972W        W65287  43.906  39.557  14.134
92973W        W65288  42.052  14.381   4.099
92974W        W65289  34.994  15.280   2.230
92975W        W65290  39.248  35.330   5.027
92976W        W65291   6.109  27.943  11.589
92977W        W65292  14.326  29.088   4.757
92978W        W65293  44.753  34.074  12.004
92979W        W65294  25.688  39.180  14.565
92980W        W65295  18.137  16.748   3.037
92981W        W65296  20.249   7.695  11.169
92982W        W65297  24.026  16.762   2.833
92983W        W65298  12.271  24.274   0.768
92984W        W65299   5.217  26.023  12.328
92985W        W65300  37.690  16.070  13.392
92986W        W65301   7.362  41.283  10.953
92987W        W65302  36.201  22.655  11.639
92988W        W65303   1.226  15.875   4.674
92989W        W65304  38.576  34.804   0.797
92990W        W65305  44.900  37.842  11.134
92991W        W65306   5.327   8.649  13.323
92992W        W65307  12.151  35.678  11.980
92993W        W65308  32.412  20.635  10.584
92994W        W65309  26.790  17.352  11.977
92995W        W65310  31.715  15.646  14.926
92996W        W65311  31.154  44.501   3.151
92997W        W65312   3.258  17.605  14.447
92998W        W65313   1.897  37.586   1.654
92999W        W65314  12.171  35.613   1.742
93000W        W65315   0.876  21.389   1.723
93001W        W65316   1.172  28.885   4.314
93002W        W65317  36.138   8.358   4.374
93003W        W65318  36.669  28.953   4.153
93004W        W65319  17.224  24.028   0.286
93005W        W65320  20.404   3.223  14.567
93006W        W65321   1.146  10.173  14.755
93007W        W65322  18.297  39.497   0.329
93008W        W65323  24.767   0.727  12.836
93009W        W65324   3.539  15.912   2.656
93010W        W65325   4.663  42.382  10.738
93011W        W65326  13.005   2.544   4.199
93012W        W65327  32.525   7.301  10.718
93013W        W65328  23.749  41.876  14.259
93014W        W65329  10.951  43.346  11.399
93015W        W65330   3.040  11.604  13.406
93016W        W65331   6.836  23.178  13.527
93017W        W65332  12.128   7.943   0.905
93018W        W65333  11.771  19.227  14.915
93019W        W65334  23.890  43.006   4.046
93020W        W65335   9.674  27.578   4.179
93021W        W65336   1.762   9.957  10.478
93022W        W65337  21.048  22.511   5.247
93023W        W65338   3.761  10.570  11.068
93024W        W65339  42.780  32.856   4.322
93025W        W65340  25.952  12.439  14.636
93026W        W65341  38.803  11.324  10.969
93027W        W65342  24.659  19.544   1.832
93028W        W65343  14.835   4.393  13.038
93029W        W65344  41.282   1.403  11.398
93030W        W65345  17.177  14.219  13.079
93031W        W65346  16.832   3.309  13.536
93032W        W65347   8.399  24.709  12.903
93033W        W65348  27.936  41.024  10.156
93034W        W65349  19.338   4.894  11.969
93035W        W65350   8.713  13.695   0.953
93036W        W65351  28.508  30.581   0.019
93037W        W65352  12.831   6.735  14.767
93038W        W65353   9.789  31.238  11.980
93039W        W65354   7.752  17.497   2.674
93040W        W65355  17.078  14.398  12.249
93041W        W65356  38.413  36.080   4.157
93042W        W65357   0.237  20.210   2.253
93043W        W65358  42.058  38.558   2.723
93044W        W65359  13.783  18.034  12.390
93045W        W65360  14.681   6.978   3.772
93046W        W65361   8.878  40.346   4.172
93047W        W65362  44.494  31.354   2.593
93048W        W65363  12.632   8.846  13.045
93049W        W65364  21.272  14.641   2.723
93050W        W65365  44.411  39.955   1.984
93051W        W65366  11.411  19.868  12.110
93052W        W65367   6.343   1.158  10.691
93053W        W65368  13.600  44.237   1.254
93054W        W65369  19.131  43.460   1.937
93055W        W65370   5.660   9.127  14.627
93056W        W65371  36.482  22.576  14.405
93057W        W65372  43.008   9.674  10.717
93058W        W65373  12.139  34.961   0.801
93059W        W65374  35.351   8.380   1.512
93060W        W65375  38.762  35.555   1.703
93061W        W65376  35.660  33.424   0.352
93062W        W65377  30.377   5.128  14.825
93063W        W65378  42.866  10.569  11.005
93064W        W65379   3.850   9.912   0.754
93065W        W65380  38.870  43.283   1.157
93066W        W65381  42.751  35.602  11.782
93067W        W65382  44.542  11.858   0.644
93068W        W65383  32.448  11.785   1.819
93069W        W65384   2.901  38.564  14.314
93070W        W65385  19.362  38.994  10.177
93071W        W65386  11.669   2.674   0.851
93072W        W65387  11.625   5.810  13.313
93073W        W65388  17.678  41.536  13.503
93074W        W65389  14.718   7.710  10.771
93075W        W65390   1.367  38.252   0.362
93076W        W65391  12.818  43.044  12.842
93077W        W65392  17.981  34.044   4.853
93078W        W65393   1.197  39.883   1.258
93079W        W65394   2.371  34.650  13.300
93080W        W65395   9.331  29.565   0.510
93081W        W65396  34.597   5.060   2.672
93082W        W65397  43.507  44.012   4.103
93083W        W65398  21.715  22.650  13.072
93084W        W65399  38.089  17.153  14.355
93085W        W65400  27.581  44.525   1.860
93086W        W65401  28.462  12.747   3.765
93087W        W65402  29.393  14.720  10.815
93088W        W65403   8.469  11.298  10.780
93089W        W65404   5.231  39.651  14.885
93090W        W65405  43.032  25.519  10.680
93091W        W65406  39.123  25.575   2.833
93092W        W65407   4.313   6.676  14.118
93093W        W65408  23.643   2.187   2.212
93094W        W65409  11.647  42.047   4.275
93095W        W65410  43.817  21.512   3.551
93096W        W65411  25.983   0.037   1.377
93097W        W65412   2.407  34.091  14.894
93098W        W65413   5.743  26.441  13.904
93099W        W65414   1.097  28.241  12.494
93100W        W65415  36.557  18.423   2.893
93101W        W65416   7.785  43.370  11.008
93102W        W65417  28.565  33.447  14.364
93103W        W65418  27.416  23.738  11.211
93104W        W65419  33.475  13.629   4.083
93105W        W65420  39.173  37.430  14.592
93106W        W65421  25.285  39.963   3.344
93107W        W65422  15.688  34.036   0.492
93108W        W65423  35.008   0.244  14.493
93109W        W65424  44.984  26.631  10.224
93110W        W65425  35.526  30.421   2.359
93111W        W65426  19.613  30.909   3.199
93112W        W65427  16.800  31.127   5.264
93113W        W65428  23.208  18.724   5.055
93114W        W65429  26.044  31.145   3.963
93115W        W65430  32.001  14.186  14.521
93116W        W65431  17.172  22.212   3.828
93117W        W65432  30.843  21.317  11.112
93118W        W65433  38.572   6.473  14.488
93119W        W65434  16.671   9.570  12.630
93120W        W65435  15.693   9.557  12.433
93121W        W65436  14.785  28.272   3.794
93122W        W65437  19.157   7.758   3.772
93123W        W65438   0.322  26.723  11.596
93124W        W65439  25.689  32.156   4.210
93125W        W65440  34.467  30.763   0.536
93126W        W65441  37.070  10.598   2.872
93127W        W65442  43.594  27.574  11.780
93128W        W65443  19.478   7.878  13.073
93129W        W65444  27.052  29.608   1.420
93130W        W65445  29.359   0.103   3.342
93131W        W65446  34.931  12.895   2.352
93132W        W65447  12.751   9.737  14.250
93133W        W65448  43.427  17.882   0.327
93134W        W65449  32.848  44.456  11.055
93135W        W65450  40.078  19.051  11.692
93136W        W65451  22.466   2.701   0.485
93137W        W65452   0.778  19.701   1.781
93138W        W65453  43.159   1.765  13.841
93139W        W65454  41.211  27.075  14.324
93140W        W65455  43.064  36.060   1.588
93141W        W65456  33.318  40.481  13.649
93142W        W65457  29.447  35.881   2.336
93143W        W65458  26.074  22.224   2.758
93144W        W65459  33.404  20.160  14.810
93145W        W65460  41.666  33.690   4.117
93146W        W65461  23.226  34.986   3.675
93147W        W65462  31.326  27.117  14.398
93148W        W65463  37.784   4.357   1.216
93149W        W65464  38.292   6.204   0.375
93150W        W65465  43.608   8.172   1.305
93151W        W65466  17.476   3.007   0.438
93152W        W65467   8.328  44.601  11.004
93153W        W65468  16.546   4.714   1.062
93154W        W65469  28.944  29.039   4.143
93155W        W65470   5.232  23.491  12.545
93156W        W65471  39.001  40.782   0.668
93157W        W65472   6.535  30.476   0.964
93158W        W65473  20.518  28.051  11.658
93159W        W65474  17.626  28.787   2.320
93160W        W65475   9.765  44.218   1.203
93161W        W65476  37.016  43.799   2.240
93162W        W65477  30.091  17.228  11.614
93163W        W65478  34.012   9.439  14.818
93164W        W65479  38.445  28.608   3.441
93165W        W65480  21.818   6.219  14.264
93166W        W65481   3.174   4.528   4.271
93167W        W65482   5.814  16.585  13.055
93168W        W65483   0.115  40.076   4.678
93169W        W65484  43.688   8.343   3.244
93170W        W65485  41.563  16.605   2.257
93171W        W65486   6.482  38.280  10.774
93172W        W65487  28.265   7.787   4.638
93173W        W65488  22.877  31.473   3.790
93174W        W65489   4.191  29.044   3.258
93175W        W65490  44.557  23.236   1.618
93176W        W65491  27.174  11.862   2.408
93177W        W65492   9.333  27.762   0.337
93178W        W65493  21.532  26.728   3.737
93179W        W65494  12.056   3.853  14.809
93180W        W65495   7.098  28.029   1.455
93181W        W65496  32.080  26.599  13.324
93182W        W65497  35.314  12.567  11.718
93183W        W65498  13.248   3.335  10.308
93184W        W65499  36.110  34.291  14.366
93185W        W65500  32.931  43.963  10.828
93186W        W65501  16.175  10.239   4.086
93187W        W65502  30.828  13.700   3.162
93188W        W65503  19.724  38.870   1.125
93189W        W65504   9.118  17.428   5.022
93190W        W65505  44.922  14.575   3.829
93191W        W65506  13.606  44.878  11.152
93192W        W65507  43.504  19.313   1.363
93193W        W65508  25.211  42.965  13.052
93194W        W65509   2.806   7.719   1.238
93195W        W65510   5.553  18.799  11.228
93196W        W65511   4.183   4.897  13.621
93197W        W65512   4.684  42.912   0.572
93198W        W65513  43.890  23.616  10.761
93199W        W65514  18.566   3.347  14.828
93200W        W65515  19.604   2.671   3.933
93201W        W65516  44.394   3.855  11.500
93202W        W65517  33.934  11.910  13.061
93203W        W65518  23.016  21.623  14.481
93204W        W65519  39.888  32.416  13.859
93205W        W65520  39.324  40.869   4.252
93206W        W65521   3.058   7.249   2.768
93207W        W65522   7.574  32.595   4.001
93208W        W65523  28.429  12.251  11.144
93209W        W65524  31.036  34.599  13.292
93210W        W65525   3.969  41.854   2.133
93211W        W65526  34.798  40.835   4.589
93212W        W65527  31.479   9.356  11.597
93213W        W65528  23.100  19.224  13.528
93214W        W65529  15.037  36.280  14.488
93215W        W65530  43.916  17.004   0.776
93216W        W65531  11.903  23.994   1.666
93217W        W65532  34.008  42.968  13.139
93218W        W65533  26.113  38.293  11.065
93219W        W65534  16.515  36.553   4.187
93220W        W65535  13.123   1.146  13.255
93221W        W65536  11.264  42.053  10.665
93222W        W65537  26.761   6.452   4.226
93223W        W65538   2.801   0.235  11.522
93224W        W65539  29.106  31.323  11.425
93225W        W65540  37.449  24.012   2.606
93226W        W65541  21.067  29.933  12.401
93227W        W65542  19.799  19.833   0.528
93228W        W65543  34.100  29.851   1.747
93229W        W65544  27.000   8.848   4.095
93230W        W65545   6.298  25.543   0.834
93231W        W65546   4.275  17.399  13.064
93232W        W65547   1.487  25.113   4.101
93233W        W65548  13.226   5.155  13.006
93234W        W65549  17.234  15.012   0.321
93235W        W65550  10.715  27.286   3.295
93236W        W65551  14.221  18.785   1.867
93237W        W65552   6.719  42.312  13.937
93238W        W65553  40.900   4.831   1.041
93239W        W65554   7.372   2.401   4.572
93240W        W65555   9.829  37.048  11.591
93241W        W65556  17.148  16.776  13.701
93242W        W65557  42.741  25.189  13.458
93243W        W65558  37.593  30.142  10.720
93244W        W65559   3.320  13.765  13.521
93245W        W65560   7.334  42.017  12.954
93246W        W65561  42.862  29.487  13.870
93247W        W65562  28.495  18.089  10.456
93248W        W65563  42.504  33.799   0.826
93249W        W65564  26.392  11.843   4.683
93250W        W65565   0.988  26.532   2.782
93251W        W65566  38.356   2.694   3.213
93252W        W65567  27.047  25.658  10.524
93253W        W65568  22.704  44.810   1.899
93254W        W65569  10.712  15.874  14.436
93255W        W65570   0.478  44.442  11.527
93256W        W65571  13.668  34.570   1.414
93257W        W65572  38.414  12.398   2.297
93258W        W65573  25.955  37.022   2.654
93259W        W65574  40.331  38.614   2.237
93260W        W65575  25.227   3.175   3.550
93261W        W65576  43.530   8.234   0.349
93262W        W65577   7.130  36.380   2.618
93263W        W65578  41.597  16.490  11.091
93264W        W65579   0.522  40.361   2.211
93265W        W65580  27.231  37.831   1.752
93266W        W65581  16.558   4.401  11.197
93267W        W65582  31.109  30.551  14.165
93268W        W65583   4.080  19.144  14.984
93269W        W65584  32.876  32.913  12.549
93270W        W65585  34.954  23.495   1.313
93271W        W65586  22.448  16.763   1.807
93272W        W65587  26.281  23.311  10.070
93273W        W65588  23.769  19.050   1.678
93274W        W65589  12.159  12.591  11.198
93275W        W65590  40.955  19.209  12.517
93276W        W65591  42.267  18.732  12.526
93277W        W65592  20.365  27.391  12.463
93278W        W65593  12.732  15.190  13.447
93279W        W65594  38.858  28.027  14.232
93280W        W65595  23.500  27.702   3.098
93281W        W65596  36.443  22.758   2.744
93282W        W65597   0.301   6.351   4.237
93283W        W65598  17.477  40.287   4.022
93284W        W65599   4.123   9.660   1.897
93285W        W65600   1.735   5.224  12.354
93286W        W65601  23.237  20.460   4.313
93287W        W65602   9.927  10.907   3.202
93288W        W65603  17.483  16.705  14.627
93289W        W65604  37.013  36.510  14.958
93290W        W65605  29.136  26.655   4.170
93291W        W65606   9.470   4.827  14.337
93292W        W65607  37.496   2.213   1.686
93293W        W65608  36.993   2.699  11.958
93294W        W65609  26.744  35.373  13.564
93295W        W65610  31.432  20.260   1.094
93296W        W65611  16.448  13.574   3.281
93297W        W65612  25.595   7.204  12.780
93298W        W65613  14.684  17.575   4.636
93299W        W65614  20.812  27.675  13.357
93300W        W65615   2.361  13.497   2.698
93301W        W65616   0.914  37.078  13.881
93302W        W65617   1.467  14.237  10.696
93303W        W65618  33.831   9.812  12.547
93304W        W65619   5.798  20.576   4.527
93305W        W65620  44.552   8.150   0.530
93306W        W65621  17.556   5.382   3.135
93307W        W65622  17.176  11.973   1.191
93308W        W65623  22.166  36.018  13.842
93309W        W65624  40.003   7.682   0.210
93310W        W65625  19.290   1.731  13.791
93311W        W65626  14.090  41.961   1.497
93312W        W65627  40.481  13.131   3.837
93313W        W65628  40.425  27.093   2.460
93314W        W65629  42.703  28.144  13.261
93315W        W65630   2.791  26.639  11.210
93316W        W65631   7.518  38.346  10.650
93317W        W65632  41.328   7.188  11.119
93318W        W65633  21.504  24.110  13.787
93319W        W65634   6.919  35.608   2.165
93320W        W65635  30.888   4.982  11.144
93321W        W65636  11.388   9.104  12.663
93322W        W65637   7.822  31.195   1.620
93323W        W65638  12.629  40.463   1.990
93324W        W65639  12.444   3.779  12.439
93325W        W65640   6.830  40.426   0.948
93326W        W65641  34.941   5.443   4.730
93327W        W65642   0.505  11.696   4.988
93328W        W65643   7.963  10.841  13.513
93329W        W65644  28.979  25.578  14.272
93330W        W65645   0.375  12.965  12.278
93331W        W65646   4.040   2.388  14.361
93332W        W65647  35.088   9.068  14.400
93333W        W65648  24.473  17.626  12.107
93334W        W65649  43.941   6.386  12.369
93335W        W65650   8.927   1.725   1.740
93336W        W65651  41.444  17.317   4.163
93337W        W65652  12.302  23.416  14.944
93338W        W65653  21.499   9.786   3.327
93339W        W65654  18.343  16.054  12.511
93340W        W65655   6.870   5.045  11.717
93341W        W65656  15.546  43.404   1.807
93342W        W65657  19.587  20.670  13.489
93343W        W65658   1.051   8.859  12.864
93344W        W65659  22.258  27.139  13.876
93345W        W65660   1.333   0.462  11.358
93346W        W65661  36.801  26.524  13.483
93347W        W65662  30.061  33.762  11.629
93348W        W65663  14.641  28.679   0.809
93349W        W65664  37.947  15.074   3.849
93350W        W65665  26.422  24.408  11.703
93351W        W65666  23.649   2.309  11.186
93352W        W65667  42.400  13.765   0.311
93353W        W65668  25.580  42.481  11.102
93354W        W65669  35.370   3.762  13.950
93355W        W65670  14.253  23.513  12.841
93356W        W65671  10.633  40.123  14.815
93357W        W65672  40.065  22.022  13.995
93358W        W65673   9.954  27.544  12.258
93359W        W65674   7.867  39.915  13.191
93360W        W65675  10.157  24.066  11.363
93361W        W65676  11.386  43.349   0.799
93362W        W65677  41.294  20.499  12.219
93363W        W65678  32.698  29.637  11.980
93364W        W65679  17.966   9.828   4.990
93365W        W65680  20.450  33.018  14.071
93366W        W65681  31.656  11.755  14.554
93367W        W65682   6.078  28.527  11.132
93368W        W65683  38.942  42.468  14.079
93369W        W65684  15.915  22.722  14.560
93370W        W65685  44.702   6.272   2.745
93371W        W65686  34.579  28.970   0.926
93372W        W65687  25.793   7.303   4.593
93373W        W65688  41.231   3.382   2.235
93374W        W65689  38.379  28.113   3.291
93375W        W65690   4.432  41.082   3.639
93376W        W65691   3.978  10.868   2.801
93377W        W65692  12.743  26.587   2.687
93378W        W65693  32.991  39.133  13.088
93379W        W65694  35.543  42.540   0.748
93380W        W65695  10.811  13.438   2.281
93381W        W65696  20.119   1.042   4.608
93382W        W65697  19.832  20.655  11.036
93383W        W65698   2.919   4.926  13.541
93384W        W65699  13.192   8.318  14.784
93385W        W65700  13.962  21.243  11.556
93386W        W65701  33.265  17.415   0.365
93387W        W65702  43.215  25.447   2.214
93388W        W65703   2.982  20.507  13.748
93389W        W65704  22.238  24.380  14.232
93390W        W65705  23.693  44.708   1.582
93391W        W65706  31.201  23.300  14.303
93392W        W65707  34.288  30.322   0.753
93393W        W65708   4.238  28.434   3.730
93394W        W65709  22.082   2.062  11.986
93395W        W65710  11.064  38.082  12.457
93396W        W65711  34.133  37.394  13.630
93397W        W65712   0.252  11.670   3.668
93398W        W65713  40.917   2.892   3.364
93399W        W65714   5.502  30.044   1.916
93400W        W65715   2.641  13.331   2.232
93401W        W65716  40.389  30.044   2.762
93402W        W65717  24.174  11.683   0.062
93403W        W65718  32.131   8.798  11.553
93404W        W65719  16.120  15.725  13.606
93405W        W65720  44.367  38.410  12.739
93406W        W65721  17.123  37.764   3.696
93407W        W65722  40.946   8.749   4.394
93408W        W65723   2.435  17.729  10.828
93409W        W65724   0.556  29.170   4.841
93410W        W65725   4.871  33.071  14.220
93411W        W65726  11.443  27.206   1.841
93412W        W65727  33.830  13.800  12.915
93413W        W65728  16.593  16.523   4.169
93414W        W65729  30.384   8.780  12.026
93415W        W65730   8.469  38.526  11.004
93416W        W65731   1.875  32.357   2.407
93417W        W65732   3.530   7.682   3.683
93418W        W65733   3.436  10.650  13.933
93419W        W65734  12.529  36.958   3.766
93420W        W65735  23.656  27.943  12.364
93421W        W65736  44.425  27.584  11.839
93422W        W65737  33.518  21.460  11.109
93423W        W65738  44.884   6.190  13.743
93424W        W65739   0.760  21.858   2.029
93425W        W65740  15.040  11.573  14.356
93426W        W65741  13.648  27.607  12.325
93427W        W65742  40.008  14.527  12.795
93428W        W65743  34.428  35.713  14.960
93429W        W65744  33.728  15.372  14.041
93430W        W65745  13.553  29.583  13.908
93431W        W65746   8.905  31.135  13.925
93432W        W65747  16.103  40.621  13.974
93433W        W65748  37.137  40.777   2.363
93434W        W65749  25.546  22.016  10.615
93435W        W65750  34.070  40.660   1.160
93436W        W65751  19.414  15.791  10.730
93437W        W65752  31.583  34.089   1.635
93438W        W65753  16.740  26.035   1.940
93439W        W65754  30.603  29.469   2.443
93440W        W65755  14.378  39.108   3.222
93441W        W65756  12.084  40.417  12.113
93442W        W65757  20.006   4.855  12.562
93443W        W65758  16.764   8.385   3.813
93444W        W65759  14.843  30.018  11.552
93445W        W65760   0.765  29.714  14.793
93446W        W65761  25.614   3.388  10.297
93447W        W65762  27.639  43.879  13.983
93448W        W65763  32.429  17.589   1.341
93449W        W65764  22.021  18.480  11.445
93450W        W65765  31.441  32.605   3.589
93451W        W65766   2.185  15.653  11.572
93452W        W65767   6.148  17.686   3.752
93453W        W65768  15.052   2.768  10.648
93454W        W65769  34.048  27.166   3.970
93455W        W65770  32.016  27.298  12.157
93456W        W65771  38.032   2.234   0.315
93457W        W65772  44.478  16.657  13.987
93458W        W65773   3.476  22.601   1.366
93459W        W65774  17.847  29.986   1.851
93460W        W65775  19.240   9.842   4.783
93461W        W65776  30.881  21.119   5.096
93462W        W65777  28.036  14.647   3.215
93463W        W65778  35.538  18.535  12.809
93464W        W65779  30.412  16.584   3.814
93465W        W65780  28.859   7.252  12.852
93466W        W65781  25.050  26.237   1.634
93467W        W65782   7.556   5.129   0.285
93468W        W65783   1.348  17.484  12.531
93469W        W65784   4.779  17.460  13.343
93470W        W65785  13.172  33.363  10.691
93471W        W65786  36.556  31.487   4.954
93472W        W65787  25.543  43.264  14.171
93473W        W65788  42.226  28.192  14.910
93474W        W65789  36.567  42.654  14.718
93475W        W65790   1.059  23.871   2.842
93476W        W65791  30.378   5.719  11.003
93477W        W65792  13.234   7.827   4.014
93478W        W65793  19.946  35.152  13.406
93479W        W65794   5.198   4.386   4.576
93480W        W65795  14.058  26.760  13.426
93481W        W65796  29.971  26.441  14.406
93482W        W65797   3.915   8.968  11.690
93483W        W65798   9.428   8.361  12.496
93484W        W65799  29.012  14.388   1.762
93485W        W65800   8.727   3.029  13.991
93486W        W65801  16.494  21.086   2.196
93487W        W65802   6.474  25.514  13.397
93488W        W65803   7.619  39.800  12.578
93489W        W65804  44.970  41.295  11.137
93490W        W65805  24.438  37.867  13.124
93491W        W65806  43.943  25.499   2.782
93492W        W65807   7.450  25.438  13.333
93493W        W65808  18.730  41.348   0.414
93494W        W65809   0.269   2.387   0.316
93495W        W65810  23.039  18.512   3.187
93496W        W65811  18.385   6.196   2.160
93497W        W65812   8.940  32.588  12.958
93498W        W65813  29.988  15.094  13.366
93499W        W65814  28.432  43.962  14.502
93500W        W65815  40.287  34.269  12.632
93501W        W65816  13.246  20.180   3.372
93502W        W65817  28.420  29.057   1.214
93503W        W65818   0.872  20.513  12.870
93504W        W65819  24.577   7.956  12.995
93505W        W65820  24.118   6.403  14.714
93506W        W65821  26.965  30.111  11.532
93507W        W65822  19.250  17.704   4.428
93508W        W65823  15.305  18.234   4.440
93509W        W65824  25.133  42.063  12.818
93510W        W65825  41.287  40.411   2.795
93511W        W65826  28.890  44.081  12.381
93512W        W65827   1.954  16.592   1.278
93513W        W65828  24.492  42.962   4.635
93514W        W65829  34.480  37.607   0.348
93515W        W65830  40.547  20.300   4.589
93516W        W65831  44.760  32.031  11.321
93517W        W65832  10.746   2.606   0.700
93518W        W65833   8.755  32.634   2.784
93519W        W65834   4.184  12.556  14.998
93520W        W65835  15.711  23.026  12.974
93521W        W65836  42.866  33.696   2.316
93522W        W65837  28.584   2.065   4.590
93523W        W65838  25.154   3.359   4.596
93524W        W65839  24.754  13.532   2.767
93525W        W65840  35.721  33.815   2.385
93526W        W65841  14.523  32.312   4.129
93527W        W65842  26.651  27.753  13.173
93528W        W65843   9.264  41.758  12.600
93529W        W65844  38.581  39.594  11.022
93530W        W65845  22.706  23.470   1.785
93531W        W65846   4.425   1.239  13.660
93532W        W65847  15.084   2.351  11.898
93533W        W65848  18.643  21.182  14.986
93534W        W65849  29.721   6.856  12.031
93535W        W65850   7.723  41.710   1.608
93536W        W65851  20.968   8.936   4.673
93537W        W65852   3.172  13.199  12.994
93538W        W65853  16.246  35.169  12.581
93539W        W65854  44.959  34.625   0.573
93540W        W65855  15.738  31.309   2.344
93541W        W65856   9.375  40.282   4.133
93542W        W65857  28.169  13.120   1.925
93543W        W65858  33.893  41.895  14.443
93544W        W65859  23.587   4.630  12.414
93545W        W65860  43.731  10.761   2.784
93546W        W65861  44.988  20.814  13.361
93547W        W65862   8.409  43.022   0.497
93548W        W65863  29.932   1.266   3.202
93549W        W65864  39.936  18.756   2.825
93550W        W65865   0.910  26.905  14.358
93551W        W65866  10.593  16.105   0.334
93552W        W65867  15.054  32.780   2.015
93553W        W65868  43.264  36.035   1.112
93554W        W65869  43.435  35.048   4.338
93555W        W65870  11.691  35.059  14.015
93556W        W65871   8.120  17.761  14.917
93557W        W65872  39.333  30.341   0.473
93558W        W65873   4.388  18.333  12.005
93559W        W65874  23.521  13.914  10.858
93560W        W65875  41.499  28.966   3.670
93561W        W65876  37.147  18.579   1.301
93562W        W65877  22.325  19.736  12.099
93563W        W65878  26.525  36.391  14.343
93564W        W65879  12.241  34.410   0.017
93565W        W65880  12.325  40.922   0.561
93566W        W65881   9.727   8.866   0.297
93567W        W65882  13.843  39.048   3.720
93568W        W65883  37.857  11.773  11.691
93569W        W65884  42.367  27.588   2.447
93570W        W65885  18.167   1.999  10.677
93571W        W65886  25.798   5.731   9.836
93572W        W65887  44.831  16.616  10.323
93573W        W65888  31.227  44.778  13.527
93574W        W65889  33.961  26.595  10.129
93575W        W65890   5.277  39.346   1.521
93576W        W65891   9.431  44.866   2.342
93577W        W65892   0.303  11.888   9.935
93578W        W65893  15.596  16.189   0.307
93579W        W65894  23.452  11.679   1.281
93580W        W65895  41.770  24.193   1.110
93581W        W65896  24.479  33.068   3.224
93582W        W65897  20.797  43.295  14.489
93583W        W65898  18.265  37.089  11.022
93584W        W65899   4.214  35.832  14.110
93585W        W65900  28.551  19.626   4.665
93586W        W65901  39.068  37.282   1.229
93587W        W65902   8.212  10.680   2.251
93588W        W65903  10.144  17.502   2.606
93589W        W65904  31.712   5.651   3.219
93590W        W65905   1.821  44.756  13.526
93591W        W65906  41.436  34.326  11.566
93592W        W65907  13.187  24.966   4.107
93593W        W65908   6.658   3.933   3.240
93594W        W65909  19.141  19.002   3.618
93595W        W65910  19.971  28.714   4.759
93596W        W65911  22.574  32.869  12.389
93597W        W65912  28.911  11.832   3.685
93598W        W65913  20.643   1.275   1.516
93599W        W65914   1.217  29.774  14.548
93600W        W65915  16.699  17.025   2.682
93601W        W65916  23.299  39.848  13.771
93602W        W65917  40.365  10.206  10.787
93603W        W65918  34.514  34.466   3.870
93604W        W65919   4.321  41.901  14.294
93605W        W65920   9.831   4.396  13.283
93606W        W65921  34.464  26.149  10.772
93607W        W65922  10.785  41.020  11.082
93608W        W65923   5.438  33.370   4.204
93609W        W65924  31.181  28.092   4.106
93610W        W65925  20.728   0.376  13.842
93611W        W65926  26.140  42.995  10.681
93612W        W65927  12.763  24.446  12.032
93613W        W65928  10.768  32.992  12.430
93614W        W65929  13.037   5.422  13.437
93615W        W65930  16.680  26.645  11.678
93616W        W65931  23.648  36.447   1.402
93617W        W65932   0.947  21.614  13.510
93618W        W65933  27.405   8.472   0.949
93619W        W65934   7.875  33.895   3.910
93620W        W65935  26.263  13.532  12.983
93621W        W65936  23.952  28.081   1.918
93622W        W65937   1.295   3.208   1.155
93623W        W65938  17.175  25.176   3.737
93624W        W65939  43.868  44.550  14.975
93625W        W65940   4.878   7.247   1.174
93626W        W65941  41.364  41.815   2.010
93627W        W65942  26.112  34.814   4.632
93628W        W65943  43.698  35.460   0.452
93629W        W65944   2.911  20.143  14.092
93630W        W65945   3.639  22.593   3.582
93631W        W65946  11.426  40.414  11.537
93632W        W65947  17.372  13.788   2.786
93633W        W65948  36.755  25.038   4.380
93634W        W65949   8.025  23.237  14.308
93635W        W65950   3.981   2.442  10.651
93636W        W65951   3.997  19.011  12.573
93637W        W65952  35.366  32.621   1.850
93638W        W65953  20.297   8.232  12.611
93639W        W65954  39.493  44.864   2.501
93640W        W65955  21.699  25.068  10.722
93641W        W65956  38.799  10.820   2.799
93642W        W65957  19.742   6.163  11.719
93643W        W65958  17.121   7.729  13.514
93644W        W65959  19.808  28.493  11.193
93645W        W65960  38.728   2.119   2.297
93646W        W65961  39.880  30.807   3.137
93647W        W65962  17.746  30.167   0.786
93648W        W65963  30.625   6.332   0.212
93649W        W65964  25.594   1.738  11.471
93650W        W65965   8.790  28.778   2.701
93651W        W65966  35.995  20.296  13.405
93652W        W65967  24.295  38.100   3.613
93653W        W65968  29.041  23.400   1.451
93654W        W65969  22.389   9.753   1.411
93655W        W65970  16.183  33.523   4.638
93656W        W65971  14.114  23.187  12.463
93657W        W65972   9.410  34.541   3.265
93658W        W65973   6.793  15.041  12.056
93659W        W65974  10.844  18.254  14.291
93660W        W65975  29.839  44.425  14.032
93661W        W65976  27.016  14.012   1.355
93662W        W65977  41.998  31.608  13.041
93663W        W65978  31.688  43.868   1.946
93664W        W65979  44.761  38.009  13.934
93665W        W65980  25.508  37.138   0.489
93666W        W65981  31.526  34.927   3.525
93667W        W65982   3.452  19.276  10.566
93668W        W65983  13.092  21.751   1.751
93669W        W65984   3.187  11.516   4.841
93670W        W65985  36.501  11.606  13.714
93671W        W65986  41.523  37.508  13.030
93672W        W65987  18.740  16.149  14.986
93673W        W65988  41.100  18.306  13.589
93674W        W65989  17.910  38.939   3.175
93675W        W65990  16.571   8.914   2.392
93676W        W65991  21.062  25.197   1.425
93677W        W65992  41.605  28.579   2.266
93678W        W65993  29.615   7.924  14.959
93679W        W65994  15.062  28.030   0.318
93680W        W65995  40.875  18.878   0.243
93681W        W65996  39.308  10.200  12.334
93682W        W65997  10.956  30.727  13.427
93683W        W65998  24.332   6.989   4.786
93684W        W65999   3.489  32.382   0.321
93685W        W66000  43.384  40.568   3.313
93686W        W66001  26.753   4.830   3.236
93687W        W66002  35.393  20.129   0.495
93688W        W66003   9.715  19.695  10.584
93689W        W66004   2.119  36.388   5.156
93690W        W66005  28.750  16.887   5.274
93691W        W66006   7.692  12.416  13.082
93692W        W66007  17.248  37.470   4.477
93693W        W66008  23.177  41.055  10.565
93694W        W66009  30.849  24.202  14.084
93695W        W66010  16.867  18.061   1.916
93696W        W66011  31.007  32.512  12.512
93697W        W66012   8.750  10.872   0.430
93698W        W66013  37.446  31.416  12.927
93699W        W66014  26.125   8.092  12.109
93700W        W66015   4.241  16.675   3.358
93701W        W66016  41.344  40.005  12.913
93702W        W66017  25.008  28.259   3.074
93703W        W66018  26.395   9.580  12.078
93704W        W66019  39.864  12.675  14.294
93705W        W66020  42.541  12.119  11.178
93706W        W66021  14.340  10.887   0.433
93707W        W66022  28.906   9.816   2.363
93708W        W66023  20.007  25.524  12.899
93709W        W66024  39.031  28.543   2.815
93710W        W66025   8.118  12.804  12.958
93711W        W66026   3.528  23.479   1.268
93712W        W66027  15.168  17.607  11.077
93713W        W66028  21.536  38.505  11.588
93714W        W66029  20.799   2.818   1.814
93715W        W66030  28.760  36.936  12.436
93716W        W66031  35.938  11.412   3.776
93717W        W66032  26.080  42.459  13.438
93718W        W66033   3.935  21.694   2.844
93719W        W66034  35.700  29.657  12.518
93720W        W66035  10.521   6.161  12.492
93721W        W66036  38.090  27.028  11.125
93722W        W66037   3.891   7.243  13.938
93723W        W66038  31.110  41.906   1.409
93724W        W66039  41.410  10.579  13.835
93725W        W66040   1.507   8.684  12.059
93726W        W66041  29.479  12.727   3.636
93727W        W66042  39.138  38.947  10.401
93728W        W66043   1.188  18.987   3.674
93729W        W66044  13.130  14.445   2.433
93730W        W66045  21.656  32.326   3.216
93731W        W66046  23.498  16.549  11.406
93732W        W66047   1.934   2.537   4.108
93733W        W66048  36.108  28.909   0.911
93734W        W66049   9.428  31.081  13.951
93735W        W66050  41.296  21.627   2.743
93736W        W66051  25.219  16.276  13.521
93737W        W66052  10.781   5.921   3.721
93738W        W66053  28.420  18.969  12.218
93739W        W66054   0.550  31.200  14.774
93740W        W66055  25.007   9.692   4.804
93741W        W66056  35.803   5.416   4.238
93742W        W66057   1.795  10.968   4.946
93743W        W66058  13.889  41.997   1.021
93744W        W66059  31.651  44.078   0.299
93745W        W66060   9.090   3.522  10.385
93746W        W66061  27.243  31.599   3.788
93747W        W66062  10.381  26.275  12.300
93748W        W66063  44.657  37.198  13.329
93749W        W66064   7.780   2.900  13.092
93750W        W66065   2.362  25.802   2.248
93751W        W66066  29.631  34.066   0.969
93752W        W66067  13.292  21.719  12.095
93753W        W66068  13.875  14.339   3.558
93754W        W66069  13.649   4.819  13.787
93755W        W66070  35.968   9.385   3.611
93756W        W66071  44.377  43.595  13.631
93757W        W66072  24.294  33.577   3.139
93758W        W66073  40.209  17.407   1.077
93759W        W66074  35.745  43.336   4.364
93760W        W66075  23.106  18.197   3.575
93761W        W66076  20.496  15.803  13.333
93762W        W66077  13.351  35.345  11.558
93763W        W66078   9.187  35.950  11.161
93764W        W66079  18.544   6.428  10.924
93765W        W66080  29.562  44.918   0.875
93766W        W66081  34.991  41.313  10.448
93767W        W66082  41.771  13.572   4.536
93768W        W66083   3.712  40.190  11.385
93769W        W66084  21.899  34.481  11.609
93770W        W66085  43.953  12.643  13.004
93771W        W66086   5.817  38.112  14.379
93772W        W66087  42.246  42.743  10.679
93773W        W66088  10.679   8.624   4.059
93774W        W66089  14.265  43.093  13.990
93775W        W66090  24.563  30.649   3.360
93776W        W66091  41.466  12.694   2.198
93777W        W66092  43.135  40.590   0.321
93778W        W66093  40.592  38.873   5.036
93779W        W66094   9.728  12.098   3.233
93780W        W66095  12.534   2.319  11.122
93781W        W66096  31.477  20.970   2.427
93782W        W66097   1.352  41.826  12.984
93783W        W66098  44.404  33.403  11.390
93784W        W66099  32.915  22.481   1.188
93785W        W66100  26.365  42.210  11.540
93786W        W66101   2.010  37.076  13.056
93787W        W66102  38.497   6.137  14.093
93788W        W66103  10.379  42.298  14.331
93789W        W66104  27.166  30.430   0.543
93790W        W66105  37.427  39.350   0.213
93791W        W66106  16.367  29.965   4.206
93792W        W66107   6.696  29.938   4.189
93793W        W66108  17.733  32.315   0.387
93794W        W66109   9.211  13.626  11.090
93795W        W66110  34.372  14.801  14.284
93796W        W66111  32.430  39.559   1.833
93797W        W66112  36.462  40.550  14.438
93798W        W66113  17.603  24.174   2.985
93799W        W66114  33.376   0.541   4.180
93800W        W66115  22.208  21.773   0.849
93801W        W66116  17.140  17.832   4.547
93802W        W66117   9.281  35.562   0.384
93803W        W66118  11.783   5.832  14.948
93804W        W66119  27.959  11.505   2.538
93805W        W66120  20.227  31.040  13.498
93806W        W66121  38.424  26.219  10.220
93807W        W66122  20.803  30.125  13.952
93808W        W66123  26.751   1.371  13.984
93809W        W66124  15.353   3.394   4.204
93810W        W66125  25.701  40.538   2.622
93811W        W66126   0.215  15.715   0.501
93812W        W66127  13.489  28.107  13.504
93813W        W66128   2.511  23.299  12.953
93814W        W66129  29.349   3.436  13.409
93815W        W66130   3.225   1.960   3.774
93816W        W66131  31.568  35.713  11.061
93817W        W66132   4.701  17.200   3.934
93818W        W66133  25.693  36.158   4.965
93819W        W66134  28.811   6.470  14.054
93820W        W66135  26.971  34.762   4.526
93821W        W66136   6.553  43.299   0.405
93822W        W66137  28.003  32.713  11.248
93823W        W66138  15.359   6.655   3.723
93824W        W66139  41.940   7.674   3.974
93825W        W66140  16.687  34.490   4.442
93826W        W66141  23.288  22.618  14.570
93827W        W66142   0.938  41.321   0.018
93828W        W66143  10.354  31.527  14.522
93829W        W66144  34.788  14.247   3.117
93830W        W66145   8.721  44.276  11.180
93831W        W66146  25.860  32.233  11.110
93832W        W66147  18.398  35.072  13.907
93833W        W66148  38.276  16.754   4.193
93834W        W66149  41.630  12.789   2.706
93835W        W66150   6.521  39.855   2.710
93836W        W66151  31.321   6.118  14.894
93837W        W66152  18.972   0.934  12.510
93838W        W66153  19.048  11.515  10.633
93839W        W66154  28.064  14.555   1.352
93840W        W66155  27.522   5.634  12.597
93841W        W66156  42.912   9.526  11.999
93842W        W66157  16.067  18.635  13.446
93843W        W66158  20.014  18.853   2.696
93844W        W66159  10.996  17.662   2.220
93845W        W66160  16.624   5.284  14.522
93846W        W66161   3.161   8.655  11.102
93847W        W66162   1.274  17.759   3.219
93848W        W66163  16.640  39.844  10.664
93849W        W66164  23.589  40.784   3.794
93850W        W66165  21.814  16.746  13.778
93851W        W66166  32.636  20.535  13.032
93852W        W66167  39.458  12.949  14.399
93853W        W66168  19.807   5.188   1.325
93854W        W66169   9.187  19.682  12.148
93855W        W66170  37.805  20.414   3.037
93856W        W66171  28.129  14.243  14.016
93857W        W66172  18.155   1.951  11.205
93858W        W66173   0.464  12.292  13.899
93859W        W66174  36.019  29.382   1.712
93860W        W66175  24.458  10.150   1.699
93861W        W66176  14.535  30.139   1.027
93862W        W66177   3.281   4.143   3.569
93863W        W66178  16.514   4.311   0.342
93864W        W66179   0.611  16.735  14.341
93865W        W66180  13.106  20.046  10.898
93866W        W66181  26.205  41.862   0.926
93867W        W66182   0.959  15.089  13.667
93868W        W66183  10.039  25.141   4.035
93869W        W66184  17.849  44.195  14.033
93870W        W66185  14.854  16.506   1.737
93871W        W66186   8.637   8.934  14.833
93872W        W66187   7.730  25.570  12.906
93873W        W66188  16.695  17.214  12.119
93874W        W66189  30.920  15.600   1.868
93875W        W66190  19.931  42.743   3.851
93876W        W66191  44.947   4.615   4.444
93877W        W66192  38.345  22.465   2.339
93878W        W66193  32.481   0.349  11.371
93879W        W66194  23.120  17.979  12.015
93880W        W66195  35.549  15.981   0.284
93881W        W66196   3.772  32.469  14.898
93882W        W66197  19.412  43.053  13.522
93883W        W66198  43.400  10.598   3.171
93884W        W66199   0.010  15.393  11.339
93885W        W66200  17.243   9.985  10.984
93886W        W66201  19.344  32.001  11.201
93887W        W66202  16.116   6.858  10.486
93888W        W66203   0.658  43.985   3.241
93889W        W66204   4.439  29.458   2.004
93890W        W66205  41.799  11.638  13.102
93891W        W66206   6.756  33.621  13.010
93892W        W66207  31.065  18.637  13.892
93893W        W66208   9.416  27.590  13.439
93894W        W66209  41.917  32.917  10.777
93895W        W66210  18.176  16.191  14.314
93896W        W66211  33.724   2.175  14.443
93897W        W66212  41.860  17.659   4.619
93898W        W66213  28.709  20.991   4.734
93899W        W66214  11.054  19.258  10.274
93900W        W66215   4.880  25.591   4.563
93901W        W66216  17.629  13.861  12.087
93902W        W66217  17.602  38.820   0.617
93903W        W66218  18.096   1.661  13.411
93904W        W66219  30.210  20.201   0.976
93905W        W66220  15.272  16.661   1.984
93906W        W66221  19.712  41.124   2.303
93907W        W66222   6.811  36.578  13.410
93908W        W66223  41.309  26.718   2.457
93909W        W66224   6.230  32.953  11.461
93910W        W66225   8.170   0.908   0.401
93911W        W66226  28.470  18.271  14.965
93912W        W66227  11.067  42.574   1.592
93913W        W66228  16.302   9.164  11.126
93914W        W66229  43.729  15.616  11.963
93915W        W66230   3.141  14.719  14.200
93916W        W66231   0.170  13.607  10.323
93917W        W66232  38.290  29.570   2.384
93918W        W66233  34.875   0.453   4.189
93919W        W66234  26.088  13.276   0.791
93920W        W66235  41.581  13.310   1.360
93921W        W66236  40.581  28.035   3.564
93922W        W66237   4.970  14.106   1.920
93923W        W66238  42.257  25.532  14.725
93924W        W66239  20.966  31.043  12.607
93925W        W66240   0.579  41.555   4.438
93926W        W66241  32.569   2.229   0.335
93927W        W66242  26.229  18.301   2.597
93928W        W66243   7.265   4.274   2.659
93929W        W66244  32.678   6.411  14.545
93930W        W66245  19.210  37.839   3.700
93931W        W66246  16.979  12.246  12.470
93932W        W66247   0.847  14.352   1.228
93933W        W66248  38.274  14.611  12.171
93934W        W66249  31.176  11.755  10.780
93935W        W66250   8.647  11.767   0.049
93936W        W66251  38.540  35.283   2.084
93937W        W66252   9.233  23.168   2.161
93938W        W66253  38.975  15.189   1.811
93939W        W66254  40.319  15.047  12.238
93940W        W66255  31.147   8.830  12.935
93941W        W66256  29.379  24.603   2.304
93942W        W66257  13.717  21.494  10.610
93943W        W66258  14.091   1.440   3.743
93944W        W66259  24.531  34.568   3.128
93945W        W66260  34.097   0.193  12.526
93946W        W66261   2.053   0.150  12.844
93947W        W66262  38.506  36.618   2.758
93948W        W66263  33.082  41.148  14.838
93949W        W66264  20.781  16.231   3.229
93950W        W66265  18.932  15.858  10.623
93951W        W66266   6.415  34.900  12.957
93952W        W66267  15.295  26.050   2.798
93953W        W66268  21.684  12.444   1.942
93954W        W66269   4.152  15.185   3.651
93955W        W66270  37.403  38.155   2.792
93956W        W66271   1.742   5.770  12.427
93957W        W66272  15.202  10.799  12.768
93958W        W66273  32.562  18.786   0.311
93959W        W66274  44.900  38.409  11.900
93960W        W66275  17.577  34.671   0.940
93961W        W66276   2.294  20.023  11.154
93962W        W66277  26.682  39.028   0.805
93963W        W66278  40.895  30.178   2.721
93964W        W66279   2.833  22.369  11.477
93965W        W66280  28.666   8.354  14.864
93966W        W66281  33.015  39.330   0.923
93967W        W66282  15.889  14.125  14.408
93968W        W66283  17.973  20.158   2.300
93969W        W66284  23.734   7.496  11.994
93970W        W66285   4.353  22.009   2.761
93971W        W66286  13.366  26.301  12.154
93972W        W66287  27.674  21.164  13.050
93973W        W66288   5.895  35.489   3.146
93974W        W66289   7.273  21.526   1.181
93975W        W66290  22.366   6.701   2.252
93976W        W66291  39.591  16.736   1.411
93977W        W66292  19.217  35.882   0.796
93978W        W66293  20.981  19.530  11.824
93979W        W66294  38.897  38.854  10.849
93980W        W66295   8.190  30.470  13.669
93981W        W66296  19.424  18.131   4.734
93982W        W66297  11.189  30.372   2.788
93983W        W66298  21.252  28.087   3.676
93984W        W66299  19.467   8.163   2.728
93985W        W66300  42.021  39.224  11.076
93986W        W66301  15.293  12.355   0.979
93987W        W66302  15.576  43.452   3.713
93988W        W66303  25.007  13.700  12.897
93989W        W66304  16.741  23.212  13.600
93990W        W66305  16.527  29.375   2.585
93991W        W66306   0.282  30.879  12.431
93992W        W66307   3.700  10.203   2.921
93993W        W66308  16.027  15.084   0.343
93994W        W66309   7.582  14.878  13.922
93995W        W66310  27.060  20.530   3.210
93996W        W66311  12.061   7.905  14.487
93997W        W66312   7.756  14.781   3.931
93998W        W66313  19.144  37.850   2.334
93999W        W66314  43.882  21.168   2.266
94000W        W66315  27.554  28.689  13.315
94001W        W66316   6.405  12.150   1.055
94002W        W66317  11.091  41.752   0.493
94003W        W66318   1.213  32.441   0.252
94004W        W66319  43.816  18.534  11.476
94005W        W66320  39.694  42.011   2.414
94006W        W66321  13.797  29.027  13.734
94007W        W66322  31.997  19.594  14.223
94008W        W66323  18.369  38.148   4.114
94009W        W66324  12.010  23.037   1.781
94010W        W66325   3.806   2.798   0.345
94011W        W66326   8.213  38.107   4.807
94012W        W66327   0.494  27.448   4.088
94013W        W66328  17.281  24.161  14.220
94014W        W66329  26.454   6.236   3.859
94015W        W66330  42.218  17.389  14.065
94016W        W66331   8.650  27.715   3.287
94017W        W66332  10.397  10.536  13.943
94018W        W66333  28.713  31.573  14.119
94019W        W66334   2.381  26.219  12.301
94020W        W66335  42.907  13.829   0.398
94021W        W66336  10.817   5.682  11.075
94022W        W66337  43.465  43.399  11.579
94023W        W66338  29.249  28.088   3.409
94024W        W66339  38.507  10.201  13.410
94025W        W66340  24.266  40.932   4.164
94026W        W66341   4.474  16.719   1.010
94027W        W66342  40.540  26.153   3.730
94028W        W66343  31.655  24.697   1.240
94029W        W66344  33.696  26.037   3.180
94030W        W66345  41.770  43.773   2.832
94031W        W66346  15.290  25.918  12.432
94032W        W66347  20.753  23.510  10.708
94033W        W66348  17.330   1.737  14.047
94034W        W66349  36.026  28.023  14.862
94035W        W66350  42.644  32.924   1.916
94036W        W66351  22.798  33.593   4.135
94037W        W66352   7.491   6.847  12.324
94038W        W66353  34.890  17.004  11.717
94039W        W66354  27.503   2.745  13.458
94040W        W66355   0.314  22.436  12.077
94041W        W66356  36.366  36.516   3.114
94042W        W66357   6.335  40.353   3.802
94043W        W66358  17.038  33.582  13.852
94044W        W66359  36.436  25.530  10.419
94045W        W66360  42.913  27.249   1.820
94046W        W66361  17.382  34.309  14.956
94047W        W66362  20.019  42.858   2.212
94048W        W66363  21.173   1.823  13.403
94049W        W66364  20.079  11.440   2.653
94050W        W66365  44.555  25.625  13.373
94051W        W66366  23.053   6.777  11.125
94052W        W66367  32.177  18.248   1.114
94053W        W66368  39.476  23.628   4.851
94054W        W66369  36.046  20.797  13.409
94055W        W66370  37.942  41.971   3.379
94056W        W66371  12.850   5.507  12.915
94057W        W66372  37.891  35.931  14.534
94058W        W66373  42.507  19.449   0.871
94059W        W66374  27.005  12.297   1.281
94060W        W66375  12.017  17.869   2.418
94061W        W66376  28.869  14.329  14.989
94062W        W66377   8.250  13.509  14.850
94063W        W66378  32.012  39.714   3.744
94064W        W66379  26.053  28.686  14.255
94065W        W66380   3.678  12.775   3.161
94066W        W66381   1.482   3.362   0.183
94067W        W66382  23.240   7.660  13.497
94068W        W66383  33.137  38.911  11.514
94069W        W66384  22.739  40.017  11.086
94070W        W66385  26.629  16.869  12.828
94071W        W66386  44.005  11.812   3.202
94072W        W66387   0.186  39.759  14.692
94073W        W66388  16.365  36.658   1.961
94074W        W66389  34.419  29.927   4.455
94075W        W66390  36.607  36.357  10.703
94076W        W66391  36.804  41.649  11.592
94077W        W66392   0.963  19.204  12.119
94078W        W66393  28.231  28.362  12.543
94079W        W66394  25.640  17.333   3.071
94080W        W66395  21.732  16.009  10.552
94081W        W66396  44.455  29.122  10.642
94082W        W66397  19.133   5.333  14.464
94083W        W66398  24.143  21.499  12.072
94084W        W66399   0.422  37.330   0.425
94085W        W66400  27.879   7.352  13.970
94086W        W66401  15.122  25.552   4.555
94087W        W66402  42.413   1.531   3.343
94088W        W66403  18.353   3.239  11.524
94089W        W66404  27.473  16.149   1.672
94090W        W66405  21.607   0.249   3.726
94091W        W66406  28.717   8.903   0.865
94092W        W66407  38.754  20.041  14.389
94093W        W66408   0.740  30.525  11.086
94094W        W66409  39.380  41.821   0.843
94095W        W66410   4.188   4.487   4.515
94096W        W66411  27.719   8.029   3.307
94097W        W66412  43.734  41.383   3.296
94098W        W66413  33.136  27.759  11.156
94099W        W66414  22.697   2.999  11.511
94100W        W66415   5.364  36.148   0.141
94101W        W66416   9.861  39.468  11.171
94102W        W66417  39.258  42.861   4.595
94103W        W66418  43.758  15.689   3.652
94104W        W66419  28.756  33.510  12.871
94105W        W66420   8.433  12.978  13.974
94106W        W66421  28.331  32.700  12.457
94107W        W66422  37.339  37.393   1.267
94108W        W66423  11.884  34.588   4.638
94109W        W66424  31.482  43.393   2.157
94110W        W66425  36.942   7.251   0.701
94111W        W66426  21.665  35.473   4.600
94112W        W66427  12.241  30.127   0.320
94113W        W66428  12.676  37.118  13.139
94114W        W66429  16.103  29.595   1.583
94115W        W66430  33.814  11.807   3.716
94116W        W66431   3.828   4.926  14.026
94117W        W66432  11.827  32.448   0.015
94118W        W66433  32.205  13.017  12.007
94119W        W66434  15.529  26.612   4.476
94120W        W66435   0.546  32.116  12.442
94121W        W66436  32.986  36.919  14.784
94122W        W66437  14.171  28.215   3.179
94123W        W66438  41.864   9.150   2.225
94124W        W66439  11.563  28.347  14.979
94125W        W66440   9.591  10.409  12.431
94126W        W66441  41.882  31.879   4.659
94127W        W66442   7.970  36.988  14.271
94128W        W66443  16.277   7.002   0.830
94129W        W66444   6.478  18.206   1.133
94130W        W66445  28.108  35.449   1.202
94131W        W66446  36.823   9.936  14.578
94132W        W66447  40.102  41.114  11.047
94133W        W66448  43.697   3.786  13.506
94134W        W66449  24.514   6.731   0.183
94135W        W66450  39.525   6.004   0.951
94136W        W66451   3.039   9.481   0.718
94137W        W66452  15.256  29.266  14.233
94138W        W66453  14.885  38.604   3.515
94139W        W66454   2.748  30.703  12.816
94140W        W66455  14.366  23.139   2.589
94141W        W66456  39.873  42.525  12.098
94142W        W66457  17.565  12.043  14.487
94143W        W66458  40.848  27.158   0.898
94144W        W66459  32.420  27.049  13.969
94145W        W66460  27.764   6.449   1.120
94146W        W66461  30.462   8.258  13.497
94147W        W66462  31.598  26.630   3.863
94148W        W66463  33.785  41.698  12.971
94149W        W66464  15.876  15.724   4.116
94150W        W66465  39.085  18.753  14.778
94151W        W66466   4.127   6.227   3.869
94152W        W66467  10.126  33.399   1.918
94153W        W66468  16.335  14.097  13.358
94154W        W66469   7.187   2.888   4.520
94155W        W66470   4.235  11.855  11.516
94156W        W66471  27.741  20.633   4.960
94157W        W66472  29.640   5.072   3.799
94158W        W66473  34.026  44.219   1.739
94159W        W66474  15.207   0.325   3.249
94160W        W66475  41.160  14.520   2.793
94161W        W66476  16.836  38.870   2.960
94162W        W66477  32.504  16.919  14.605
94163W        W66478  40.661  11.857  11.225
94164W        W66479  16.971  28.463   0.890
94165W        W66480  34.150  37.008  11.965
94166W        W66481  39.799  31.941   1.172
94167W        W66482  33.127  43.871  14.506
94168W        W66483  12.257   0.799   3.631
94169W        W66484  13.170  19.592  10.660
94170W        W66485  42.537  38.529   0.351
94171W        W66486  33.673   5.496   0.329
94172W        W66487  21.458  21.754  10.091
94173W        W66488  26.256  18.046   2.139
94174W        W66489  27.147  13.462  13.097
94175W        W66490  35.970   4.238   1.626
94176W        W66491  42.338  14.334   4.530
94177W        W66492   6.847  24.157  13.353
94178W        W66493  38.421   4.678  13.077
94179W        W66494  25.263  42.680   4.602
94180W        W66495  28.125  33.502   3.739
94181W        W66496  41.101  43.013  14.259
94182W        W66497  35.171  25.749   4.216
94183W        W66498  40.417  13.224   1.874
94184W        W66499  22.538  19.288   2.330
94185W        W66500  22.057  11.846  14.503
94186W        W66501  35.488   7.464   3.442
94187W        W66502  37.623  17.625  13.032
94188W        W66503  19.884  44.335   3.348
94189W        W66504  20.096   7.763   4.858
94190W        W66505  17.116  36.849  11.666
94191W        W66506  19.525   5.378   2.314
94192W        W66507  42.552   3.508  14.482
94193W        W66508   1.106  31.760   5.077
94194W        W66509  43.531   9.503   0.102
94195W        W66510  31.938  40.996   2.258
94196W        W66511  29.560  12.070  14.750
94197W        W66512  42.734  19.494   1.738
94198W        W66513   4.676  38.127  11.170
94199W        W66514  15.158  24.570  11.427
94200W        W66515  42.864  29.605   3.605
94201W        W66516   8.271   9.894   2.757
94202W        W66517  38.452  28.001  10.242
94203W        W66518  37.473  35.812  12.451
94204W        W66519  15.742   6.278  14.729
94205W        W66520  18.904  24.562  12.926
94206W        W66521  38.681  39.363  12.499
94207W        W66522  10.345   3.943  11.918
94208W        W66523  43.946  23.025  11.350
94209W        W66524   0.849   0.770  11.073
94210W        W66525  26.485   1.523  10.699
94211W        W66526  15.632   9.743  11.922
94212W        W66527  35.151  30.410   1.468
94213W        W66528  22.082  33.105   3.596
94214W        W66529  22.635  36.702  14.497
94215W        W66530  18.063  13.144   0.160
94216W        W66531  25.508  11.280   3.666
94217W        W66532   0.018  27.609  14.466
94218W        W66533  18.014  29.150  13.001
94219W        W66534  10.200  31.334  12.944
94220W        W66535   3.662  15.033  11.975
94221W        W66536  43.597  41.581  10.321
94222W        W66537  36.474   4.168  10.645
94223W        W66538   7.790  18.944  11.619
94224W        W66539  11.245  34.389   1.926
94225W        W66540  39.886   7.244  14.464
94226W        W66541  27.788  13.428  10.765
94227W        W66542  22.583  18.645  11.384
94228W        W66543  34.513   1.677  14.483
94229W        W66544   2.461  16.090  11.638
94230W        W66545  40.779   4.331   2.198
94231W        W66546   8.809  16.540  13.444
94232W        W66547  31.629  18.228   1.848
94233W        W66548  15.813   0.457  10.558
94234W        W66549  31.201  27.788  11.032
94235W        W66550  20.618  37.879  11.945
94236W        W66551  31.360   6.885  14.426
94237W        W66552  28.565  29.241   0.408
94238W        W66553   5.695  31.170  14.486
94239W        W66554  44.793  38.998  11.213
94240W        W66555  11.769  13.890   3.273
94241W        W66556  34.820   2.266  11.437
94242W        W66557  31.124  41.796   3.429
94243W        W66558  37.972  15.532   1.985
94244W        W66559  31.091   1.297  12.092
94245W        W66560  20.214   4.845   3.851
94246W        W66561  27.122  35.252  10.877
94247W        W66562   8.976  36.992   3.854
94248W        W66563  31.666  44.223  11.713
94249W        W66564  36.841  43.925  14.862
94250W        W66565   7.097  33.834  10.751
94251W        W66566  23.975  33.279  14.045
94252W        W66567  33.524   8.695   0.286
94253W        W66568  28.358  43.806  11.569
94254W        W66569  19.649  25.655  13.966
94255W        W66570  32.578   1.927  12.907
94256W        W66571   9.669  24.960  13.041
94257W        W66572  37.416  18.976  13.496
94258W        W66573   2.420  22.097  11.582
94259W        W66574  21.100   8.250  10.960
94260W        W66575  25.344  37.504   2.008
94261W        W66576  20.715   0.379   4.678
94262W        W66577  41.355  38.252   3.641
94263W        W66578   5.189  13.166  13.146
94264W        W66579  12.808  37.584  11.472
94265W        W66580   7.769  22.290   1.714
94266W        W66581  17.270  27.055   0.244
94267W        W66582  38.609  20.274   3.688
94268W        W66583  13.546  29.916   0.773
94269W        W66584  40.445  28.555   2.172
94270W        W66585  31.505  39.298   1.251
94271W        W66586  42.755  42.495  14.255
94272W        W66587  31.073  37.802   3.671
94273W        W66588   1.700  19.214  11.552
94274W        W66589  21.856  18.290   2.707
94275W        W66590  15.343  30.422   4.763
94276W        W66591  43.978  18.540  12.284
94277W        W66592  28.054  29.463   0.414
94278W        W66593  24.448  28.554   0.019
94279W        W66594  37.351  36.329   4.134
94280W        W66595   0.427  13.127   2.604
94281W        W66596  42.679  12.288  14.521
94282W        W66597  33.443  37.092  13.165
94283W        W66598  32.560  41.568   0.796
94284W        W66599  26.575   1.454   0.445
94285W        W66600  35.139   0.185   4.576
94286W        W66601   5.179   2.369   0.756
94287W        W66602  31.554  20.207   1.974
94288W        W66603   6.460  30.317  11.616
94289W        W66604   7.812  42.242  12.086
94290W        W66605  19.658   9.406   4.071
94291W        W66606  37.093   3.710  12.077
94292W        W66607   5.975  15.555  12.069
94293W        W66608  38.956  37.596  13.649
94294W        W66609   3.718   2.277  13.335
94295W        W66610  33.336  20.692   2.782
94296W        W66611  12.241  34.442   1.545
94297W        W66612  40.564  32.854  12.423
94298W        W66613  32.153   7.006   2.304
94299W        W66614   3.204   8.825   3.802
94300W        W66615  11.301  10.119   0.990
94301W        W66616  40.426  28.284   2.641
94302W        W66617  41.254  44.775   0.935
94303W        W66618   7.694  30.697  10.738
94304W        W66619   1.313  32.824  12.929
94305W        W66620  30.410   7.048   4.541
94306W        W66621   5.851   8.378  10.774
94307W        W66622   3.224  23.026   1.166
94308W        W66623   5.950  26.894   3.643
94309W        W66624  29.270  10.195   2.237
94310W        W66625  10.366  41.262   1.799
94311W        W66626  22.601  22.684  13.793
94312W        W66627   3.993  41.377   1.153
94313W        W66628   3.427  35.054   0.289
94314W        W66629  11.668  27.064   2.746
94315W        W66630  17.141  35.299  14.963
94316W        W66631  31.791   0.404  13.729
94317W        W66632  22.675  21.481   4.222
94318W        W66633  27.029   4.824   1.230
94319W        W66634  23.369  14.617  14.768
94320W        W66635  40.352  15.140  14.022
94321W        W66636  26.534  21.171  11.917
94322W        W66637  32.948  42.223   2.457
94323W        W66638  23.096   6.432  11.954
94324W        W66639  39.566   6.346   2.179
94325W        W66640  18.589  32.910   2.081
94326W        W66641  15.164  43.845  11.818
94327W        W66642  38.932   4.976   1.388
94328W        W66643  21.434  25.911   4.558
94329W        W66644   4.941  17.804   3.097
94330W        W66645  42.851  23.499  12.969
94331W        W66646  40.464   8.836   2.114
94332W        W66647  42.271  44.814   0.724
94333W        W66648  33.967  37.590   0.463
94334W        W66649  31.090   0.827  14.787
94335W        W66650  13.542   8.876   4.101
94336W        W66651  33.693  15.816   3.204
94337W        W66652  14.670  39.194  10.227
94338W        W66653  24.714  31.977   0.273
94339W        W66654  20.305   4.803  11.029
94340W        W66655  20.954  29.436   2.445
94341W        W66656   2.942  35.365   3.750
94342W        W66657   3.183  30.962   2.117
94343W        W66658  36.425  17.213  11.191
94344W        W66659  28.579  21.273   1.784
94345W        W66660  42.864  22.751  13.392
94346W        W66661  29.450  32.892  14.858
94347W        W66662   8.201  15.190   0.369
94348W        W66663  35.015  41.913   3.282
94349W        W66664   2.395   4.408  13.068
94350W        W66665   4.290   7.867   2.874
94351W        W66666   2.303  26.017  11.110
94352W        W66667  20.641  24.065  10.345
94353W        W66668  21.535  24.820  12.148
94354W        W66669   0.318  22.129  10.729
94355W        W66670  14.175  20.014   2.910
94356W        W66671  10.632  17.181  14.753
94357W        W66672  32.944  37.353  10.780
94358W        W66673   6.701  40.066  10.481
94359W        W66674  35.019   4.877   2.372
94360W        W66675  27.592  35.138  11.162
94361W        W66676   6.930  31.952   2.379
94362W        W66677  41.364  28.800   2.685
94363W        W66678  42.744   0.208  12.030
94364W        W66679  33.525  12.116   0.440
94365W        W66680  41.450  39.343   1.211
94366W        W66681   0.809  43.330   2.863
94367W        W66682   4.501  34.497   4.915
94368W        W66683   3.705  17.355   3.744
94369W        W66684  39.506   0.412   2.727
94370W        W66685  13.844  28.057   1.883
94371W        W66686   0.199   2.462   3.587
94372W        W66687  29.248  10.301   0.369
94373W        W66688  35.036  27.049  11.145
94374W        W66689  11.592  39.952  12.539
94375W        W66690  23.453  11.686   2.830
94376W        W66691  33.354  24.729   0.965
94377W        W66692  26.029  12.041   3.606
94378W        W66693   3.294  12.786  14.525
94379W        W66694   4.467   2.347   2.903
94380W        W66695  11.977  38.357  12.894
94381W        W66696   2.429   3.763   0.691
94382W        W66697  13.159  15.977   4.032
94383W        W66698  33.823  44.191  12.372
94384W        W66699  11.858  44.556   4.121
94385W        W66700   2.485  12.792  14.785
94386W        W66701  22.165  41.633  14.342
94387W        W66702   8.850  13.102  14.332
94388W        W66703  16.847  17.735  13.074
94389W        W66704  33.317  11.812  11.558
94390W        W66705  40.241  21.141   3.536
94391W        W66706  32.606  41.321  11.434
94392W        W66707  33.023  18.494  11.414
94393W        W66708  38.878  15.637  13.127
94394W        W66709   3.404  29.449  12.992
94395W        W66710  10.913  14.547  11.671
94396W        W66711  14.915  17.712  11.531
94397W        W66712  25.023   4.267   0.912
94398W        W66713   7.348   4.360   4.649
94399W        W66714  43.891  20.030  14.636
94400W        W66715  39.657   0.252  13.262
94401W        W66716  20.635  27.445   2.897
94402W        W66717  17.792   6.320   0.306
94403W        W66718   9.814  22.737  11.513
94404W        W66719  39.584  19.071   0.774
94405W        W66720  44.351   2.746   1.991
94406W        W66721  13.077  35.598   3.155
94407W        W66722   9.206   6.478  11.501
94408W        W66723  14.182   4.408  10.754
94409W        W66724  29.739  35.420  14.032
94410W        W66725  22.083  23.953   4.774
94411W        W66726  14.772   8.784   4.289
94412W        W66727  44.763  22.446  10.038
94413W        W66728   3.887  41.323  11.991
94414W        W66729  31.546  16.422  11.366
94415W        W66730   5.802  31.208   1.950
94416W        W66731   2.626  37.861  13.953
94417W        W66732  25.420  22.594  11.344
94418W        W66733  20.787   3.809  10.326
94419W        W66734  12.626   0.290  10.424
94420W        W66735  28.114  21.795   1.459
94421W        W66736  22.721  40.952  11.989
94422W        W66737  37.658  33.999  13.050
94423W        W66738  31.193  15.151   2.004
94424W        W66739   0.433   6.294   0.722
94425W        W66740  24.457  25.110   1.807
94426W        W66741  34.579  16.746  12.060
94427W        W66742   4.391  40.544   3.654
94428W        W66743  30.975  26.443  14.946
94429W        W66744  36.264   7.660   3.671
94430W        W66745  14.650  32.014   4.554
94431W        W66746   6.958  22.153   0.162
94432W        W66747  15.361   8.199  13.061
94433W        W66748   0.324  15.710  13.413
94434W        W66749  18.834  36.610  13.691
94435W        W66750  30.089  44.930   2.724
94436W        W66751   2.396  42.290   4.206
94437W        W66752  17.619  27.742   3.665
94438W        W66753   8.201  31.134   2.409
94439W        W66754  18.906  30.349  11.545
94440W        W66755  28.528   2.507   3.191
94441W        W66756  44.449  43.766  11.185
94442W        W66757   0.923  40.101   0.354
94443W        W66758  26.258  14.140   3.269
94444W        W66759   7.218  34.208  11.601
94445W        W66760  42.465  20.231  10.695
94446W        W66761  36.834   5.321  10.339
94447W        W66762  24.979  10.761  11.867
94448W        W66763   9.207  10.629  14.506
94449W        W66764  19.557  11.640   1.403
94450W        W66765  12.155  11.877   3.259
94451W        W66766   6.335  37.356  10.777
94452W        W66767  37.655  16.094  11.656
94453W        W66768  22.722   9.238   0.728
94454W        W66769   3.274  20.446   1.796
94455W        W66770   0.966  35.317  11.532
94456W        W66771  36.006   6.768   3.385
94457W        W66772  29.118  35.961   4.718
94458W        W66773  34.428  20.158  13.115
94459W        W66774  16.029  27.353  14.697
94460W        W66775  26.388   0.927  12.561
94461W        W66776  43.968  42.791  13.569
94462W        W66777  29.933  10.320   3.426
94463W        W66778  35.782   8.440   4.785
94464W        W66779  15.208  42.151   4.144
94465W        W66780  39.871  22.508   0.231
94466W        W66781  21.125   9.648  14.369
94467W        W66782  26.917  35.432   0.770
94468W        W66783  37.776  36.651   1.689
94469W        W66784  12.864  41.770   2.280
94470W        W66785   5.232  42.914  14.339
94471W        W66786   0.449  28.523  10.502
94472W        W66787   1.621  13.128   4.472
94473W        W66788   5.162  17.004  10.096
94474W        W66789  21.844  32.822  14.965
94475W        W66790   1.500  20.280  13.975
94476W        W66791  37.582  33.974   4.573
94477W        W66792  16.781  36.414   1.781
94478W        W66793  31.580  42.540   3.928
94479W        W66794  22.655  31.268  12.610
94480W        W66795  27.022   7.503  14.393
94481W        W66796  12.766   5.428   3.558
94482W        W66797  43.986   3.116   3.299
94483W        W66798  40.195  24.383   9.787
94484W        W66799   4.736  13.152  13.931
94485W        W66800  35.126   6.378  11.093
94486W        W66801   3.541   7.685   0.779
94487W        W66802  36.914  25.539   1.499
94488W        W66803  25.881  15.731  13.404
94489W        W66804  34.140  29.235   3.621
94490W        W66805  13.073  11.843   3.205
94491W        W66806  44.786  15.836  12.022
94492W        W66807  31.601  18.183   2.834
94493W        W66808   4.681   8.399   0.329
94494W        W66809  16.605  35.426   0.719
94495W        W66810  18.561  19.718   0.538
94496W        W66811   7.729   7.929  12.200
94497W        W66812  25.666  42.467  12.062
94498W        W66813   2.008  35.376   1.871
94499W        W66814  19.310  32.688   2.373
94500W        W66815  24.643  28.629  14.539
94501W        W66816  12.017   2.373  11.184
94502W        W66817  34.477  28.290  10.810
94503W        W66818  17.766   1.716   2.698
94504W        W66819  29.348   3.914   4.616
94505W        W66820  24.188   3.180   1.607
94506W        W66821  43.590  26.907  12.583
94507W        W66822  21.197  10.493  10.707
94508W        W66823  25.022  44.062   0.822
94509W        W66824   4.152  44.023   4.674
94510W        W66825  25.457   4.157  10.748
94511W        W66826  29.079  35.086   2.280
94512W        W66827  44.703  38.457  14.367
94513W        W66828  31.706   3.697  14.675
94514W        W66829  39.193  14.263   4.195
94515W        W66830  35.359   3.960   2.723
94516W        W66831  12.309  18.893  13.373
94517W        W66832  11.227  21.608  12.677
94518W        W66833  29.883  36.493   1.788
94519W        W66834  25.525  13.090  12.527
94520W        W66835  12.848  12.134  11.532
94521W        W66836  39.269  29.014   1.184
94522W        W66837  19.630  21.195   1.863
94523W        W66838   0.160  41.945  14.425
94524W        W66839  14.009  30.346  11.644
94525W        W66840  20.185  39.309  11.124
94526W        W66841  10.264  24.545  14.659
94527W        W66842  15.579  11.234  11.198
94528W        W66843  43.718   9.593   4.593
94529W        W66844  19.627  42.387   4.688
94530W        W66845  32.297  24.739  13.998
94531W        W66846  44.763   8.819  11.468
94532W        W66847  20.739  21.131  10.204
94533W        W66848  20.025  33.143   4.117
94534W        W66849  16.290  43.408   3.051
94535W        W66850   5.048  12.678   4.532
94536W        W66851  42.783  15.101   0.367
94537W        W66852   4.279  10.197   1.867
94538W        W66853  34.660  24.498  11.678
94539W        W66854  18.025  30.652   0.993
94540W        W66855  14.131  17.933   2.238
94541W        W66856  29.433  25.649   4.092
94542W        W66857   5.688  24.400  14.938
94543W        W66858  16.459  43.865  11.013
94544W        W66859  23.518   5.955   3.710
94545W        W66860  38.984  10.946   3.345
94546W        W66861  33.010  23.653   3.197
94547W        W66862   5.654  34.030  14.923
94548W        W66863  44.047   0.655  11.539
94549W        W66864  11.798   6.678  14.848
94550W        W66865  23.150  13.414   4.003
94551W        W66866  29.038   5.324  14.738
94552W        W66867  18.059   3.603  10.620
94553W        W66868   7.718   9.722   2.734
94554W        W66869  33.660  26.486   3.607
94555W        W66870  40.983   9.388  13.414
94556W        W66871  19.758  16.750  12.821
94557W        W66872  31.178  13.678   4.616
94558W        W66873  30.650  41.044   2.851
94559W        W66874  15.619  29.768   2.952
94560W        W66875   6.055  13.210   3.721
94561W        W66876  11.345  24.246  12.908
94562W        W66877   9.401  21.986  13.059
94563W        W66878  19.562   1.949  10.684
94564W        W66879  20.524  40.383   4.330
94565W        W66880   4.439  42.474   4.641
94566W        W66881  23.528  18.471   0.852
94567W        W66882   2.391   8.934  12.902
94568W        W66883  36.408   1.840   3.588
94569W        W66884  21.476  21.119   1.868
94570W        W66885  37.462  43.224   4.225
94571W        W66886  12.073   9.374   3.233
94572W        W66887  24.050  11.983   4.495
94573W        W66888  19.596  21.501  13.094
94574W        W66889  42.409   1.331  12.683
94575W        W66890  42.526  34.524  12.380
94576W        W66891  11.130   1.643   1.243
94577W        W66892   9.174  43.451  14.006
94578W        W66893  10.411  35.365  14.342
94579W        W66894  12.825   8.308  11.333
94580W        W66895  12.047  23.551  10.167
94581W        W66896   1.317  43.496   2.915
94582W        W66897   8.922   1.214  13.393
94583W        W66898  27.591  27.521  14.126
94584W        W66899  30.330   9.685   3.086
94585W        W66900  24.088  21.313   4.834
94586W        W66901  33.736  29.465  12.102
94587W        W66902  37.382  37.920  13.834
94588W        W66903  11.865  29.071  13.746
94589W        W66904   9.596  33.958   0.795
94590W        W66905  30.464  11.625  12.006
94591W        W66906  39.856  30.522   2.643
94592W        W66907  41.843  28.386   3.484
94593W        W66908   2.077  14.796  13.800
94594W        W66909  35.371  37.998  13.297
94595W        W66910  11.875  10.099   2.835
94596W        W66911  33.909  36.856  11.109
94597W        W66912   1.924  15.989   3.577
94598W        W66913  39.104  36.537  12.098
94599W        W66914  42.428  23.155   3.148
94600W        W66915  10.387  27.425   4.220
94601W        W66916  38.937   2.291  13.749
94602W        W66917  24.733  19.905   1.388
94603W        W66918   5.019  28.656  12.831
94604W        W66919   8.622  29.234  13.603
94605W        W66920  43.974  42.285  11.217
94606W        W66921  24.287  42.961   0.726
94607W        W66922  13.646   4.367   3.543
94608W        W66923  34.477  15.743   4.050
94609W        W66924  32.907   9.267   2.961
94610W        W66925  15.274   0.464  12.141
94611W        W66926  29.347  23.792  13.335
94612W        W66927   9.800  13.737  13.813
94613W        W66928   9.109   0.857  12.547
94614W        W66929  24.478  40.433  14.988
94615W        W66930  42.566   2.043   4.556
94616W        W66931  40.752  44.348   2.811
94617W        W66932  25.529   9.621   0.904
94618W        W66933  39.307  20.533   1.003
94619W        W66934   8.440  11.727  14.294
94620W        W66935  44.783   9.171  14.434
94621W        W66936  14.835  28.131  10.200
94622W        W66937  18.148  27.965  13.688
94623W        W66938  40.365  18.051  12.842
94624W        W66939  11.415  17.650   1.846
94625W        W66940  14.605   8.825  14.952
94626W        W66941  29.667  31.077  13.482
94627W        W66942  42.471   2.695   0.817
94628W        W66943  41.054  16.811   1.375
94629W        W66944  28.954  34.033   1.366
94630W        W66945  38.034  26.699  13.498
94631W        W66946   2.339  27.242   4.141
94632W        W66947  19.359   2.246  12.020
94633W        W66948   3.487   1.979   4.638
94634W        W66949  19.595  11.414  12.411
94635W        W66950  21.230   4.912  12.445
94636W        W66951   2.242  18.089   0.449
94637W        W66952  19.906  32.530  10.465
94638W        W66953  13.968   2.091   4.355
94639W        W66954  21.064  40.476   1.812
94640W        W66955  20.261  28.872   3.260
94641W        W66956  14.829  36.168  10.837
94642W        W66957  21.894  42.975  12.017
94643W        W66958  35.470  33.291  11.418
94644W        W66959  20.681  33.054   0.370
94645W        W66960   0.865  37.576   0.424
94646W        W66961   5.738  13.059   3.340
94647W        W66962  12.889   8.837  11.559
94648W        W66963  26.118  39.408   3.328
94649W        W66964  20.969  29.115   0.417
94650W        W66965  30.479  26.937   2.213
94651W        W66966  17.781   8.559   1.403
94652W        W66967  26.794   4.785   1.856
94653W        W66968  35.737  40.267   1.599
94654W        W66969  20.680  25.595   4.317
94655W        W66970   9.336  23.256  11.011
94656W        W66971   3.259  31.346   0.413
94657W        W66972  41.976  37.522  11.375
94658W        W66973  41.545  16.240  11.621
94659W        W66974  39.410  19.967  14.704
94660W        W66975   4.805   2.272   3.573
94661W        W66976  11.748  25.204  10.676
94662W        W66977  22.242  21.635  11.743
94663W        W66978  44.890  42.955  12.697
94664W        W66979   7.528  42.219  12.526
94665W        W66980  26.150  39.347  12.915
94666W        W66981  21.523  29.432   2.377
94667W        W66982  23.903   5.304   1.839
94668W        W66983  29.028  18.396  11.979
94669W        W66984   1.361   2.680  11.526
94670W        W66985  40.284  20.717  11.974
94671W        W66986  15.069  38.867   0.761
94672W        W66987  42.597  30.656  11.572
94673W        W66988  23.710   2.675  14.312
94674W        W66989  42.015   4.595   3.959
94675W        W66990   2.383  37.717   4.623
94676W        W66991  16.758  28.423  13.491
94677W        W66992  30.952   3.145  12.421
94678W        W66993   9.088  20.702  13.874
94679W        W66994   1.512   3.351  13.110
94680W        W66995  29.358  42.810   1.661
94681W        W66996  24.986   1.256  10.662
94682W        W66997  17.282  27.202   4.691
94683W        W66998   1.208  42.880  12.458
94684W        W66999  41.426  29.217  14.491
94685W        W67000  23.430  12.603   3.657
94686W        W67001  44.898   0.137   0.410
94687W        W67002  41.310   2.669  13.346
94688W        W67003  39.900  12.750   4.593
94689W        W67004  43.088  35.677  13.489
94690W        W67005   2.918  26.140   1.812
94691W        W67006   9.316  36.970  10.470
94692W        W67007   2.053  28.427  12.779
94693W        W67008  40.009  15.651   3.729
94694W        W67009   3.457   3.841   2.898
94695W        W67010  21.987  25.371   4.959
94696W        W67011   8.157   3.442   2.854
94697W        W67012  22.051   4.788  12.006
94698W        W67013  22.995  32.432   4.834
94699W        W67014   1.043  32.080  12.588
94700W        W67015  19.683  29.710   0.759
94701W        W67016  29.495  28.708  11.185
94702W        W67017   5.076  13.358   2.583
94703W        W67018  24.608   8.302   3.587
94704W        W67019   2.353  33.420   1.778
94705W        W67020  14.828  10.124  13.544
94706W        W67021  28.286  22.073   2.320
94707W        W67022  16.053  37.011  13.777
94708W        W67023  19.586  33.349  10.844
94709W        W67024  34.848   6.377  10.664
94710W        W67025   1.454  33.712  10.941
94711W        W67026  29.355  31.739   1.687
94712W        W67027   1.391  21.196   0.512
94713W        W67028  22.515  20.710  12.324
94714W        W67029  30.072  43.008  14.427
94715W        W67030  20.822  28.166   0.965
94716W        W67031  16.500  40.271  14.937
94717W        W67032  32.558  18.117   2.404
94718W        W67033   6.971  30.556   0.383
94719W        W67034  22.835  38.500  11.898
94720W        W67035  20.323  10.266  10.900
94721W        W67036  16.711  16.878   0.356
94722W        W67037   9.960   6.201   3.168
94723W        W67038   8.475  13.723  14.418
94724W        W67039  42.017  22.749  11.423
94725W        W67040  31.518  12.615   2.861
94726W        W67041  39.586  20.774   1.374
94727W        W67042  11.633  40.418  13.489
94728W        W67043  42.351  19.295  12.733
94729W        W67044  36.845  25.585  14.931
94730W        W67045   8.800   3.298  11.574
94731W        W67046   9.939  43.646  13.836
94732W        W67047  44.305  18.199   4.501
94733W        W67048   0.956  33.241  10.635
94734W        W67049  18.553  20.571  11.499
94735W        W67050  38.902  38.500   0.270
94736W        W67051   5.930  23.899   3.570
94737W        W67052  37.369  39.927  13.146
94738W        W67053   2.533  27.093   4.617
94739W        W67054  27.025  22.934  12.907
94740W        W67055  13.273  36.124  12.177
94741W        W67056  28.211  44.905  13.556
94742W        W67057  42.571  15.490  14.199
94743W        W67058  21.348  13.660  10.648
94744W        W67059  35.751   0.345   1.772
94745W        W67060   2.474  14.693   3.700
94746W        W67061  28.272  44.505   5.128
94747W        W67062  44.372  20.962   3.198
94748W        W67063  44.553  26.718  11.998
94749W        W67064   0.812  37.814  11.114
94750W        W67065  25.372  33.176   4.005
94751W        W67066   3.976  30.521   1.800
94752W        W67067  21.775  43.408  13.320
94753W        W67068  24.966   3.195  11.527
94754W        W67069  36.461   0.490   1.531
94755W        W67070  15.850  27.613  12.047
94756W        W67071   1.940  42.237  14.295
94757W        W67072  25.992  21.474  14.857
94758W        W67073  12.733  26.095  14.905
94759W        W67074  36.311  34.948  12.450
94760W        W67075  16.596  27.605  10.957
94761W        W67076  30.454  12.112  14.809
94762W        W67077  22.448  27.495   2.378
94763W        W67078  12.374  12.654  10.721
94764W        W67079  39.628   0.785  12.594
94765W        W67080  32.888  27.465   1.475
94766W        W67081  30.053  16.107   1.151
94767W        W67082  40.793  28.205   2.276
94768W        W67083  36.489  24.252   2.982
94769W        W67084  29.033  17.658   3.569
94770W        W67085  19.193   3.926   2.239
94771W        W67086  21.158  25.200   3.195
94772W        W67087  19.868   2.164   4.000
94773W        W67088   2.073  28.107  11.382
94774W        W67089  38.302  27.241  12.641
94775W        W67090  38.254  17.381   3.760
94776W        W67091  25.535  39.006   2.941
94777W        W67092   3.039   2.055  12.610
94778W        W67093   6.628  40.984   4.527
94779W        W67094   2.640  41.310   1.389
94780W        W67095  31.058  14.127  11.065
94781W        W67096  21.494  11.465  12.211
94782W        W67097  41.066  30.368  13.499
94783W        W67098  39.480   7.446   0.398
94784W        W67099  30.116  19.085  11.609
94785W        W67100  23.185  36.647  12.033
94786W        W67101  35.608  25.050   4.161
94787W        W67102  31.277  36.536   4.055
94788W        W67103  29.711  44.547   0.476
94789W        W67104  43.061   5.335  10.754
94790W        W67105  39.863   8.203  12.456
94791W        W67106  11.753  31.483   2.382
94792W        W67107  20.091  15.776   0.820
94793W        W67108   8.419  24.695   2.582
94794W        W67109   4.293  27.219   4.221
94795W        W67110  39.342  20.301   2.214
94796W        W67111  26.383  17.142   0.273
94797W        W67112  22.237  16.499  13.964
94798W        W67113  19.113  14.866   3.889
94799W        W67114  27.627  13.391  11.234
94800W        W67115  28.569  14.562  13.775
94801W        W67116  17.369  41.273   2.285
94802W        W67117  15.793   7.103   1.426
94803W        W67118  25.754  22.299  11.036
94804W        W67119  20.344  38.167   4.670
94805W        W67120  27.597  31.610  11.639
94806W        W67121  31.625  29.628  11.993
94807W        W67122  19.127   3.912   0.853
94808W        W67123  39.954  24.993   0.901
94809W        W67124  34.989   9.137  12.497
94810W        W67125  43.444  31.147  11.125
94811W        W67126  31.005  34.723   2.872
94812W        W67127  21.834  33.200   4.105
94813W        W67128  15.423  23.998  14.361
94814W        W67129  39.896  34.409  13.456
94815W        W67130  13.602  15.215   4.343
94816W        W67131  11.820  15.828   2.926
94817W        W67132   7.361   9.115   2.257
94818W        W67133  31.713  23.997  13.108
94819W        W67134   6.329  37.044  12.028
94820W        W67135  18.563  20.396   1.550
94821W        W67136  35.036  11.677  12.156
94822W        W67137  32.631  31.584  11.079
94823W        W67138   4.017  35.353  10.831
94824W        W67139  19.814  26.136   4.343
94825W        W67140  31.628  26.137  10.620
94826W        W67141  29.116  33.541   1.356
94827W        W67142  40.284  29.351  11.137
94828W        W67143  36.120   1.884  13.318
94829W        W67144   9.726  13.125   1.393
94830W        W67145   3.190  15.040  10.804
94831W        W67146  44.256  24.518   0.266
94832W        W67147   5.896  13.275  14.010
94833W        W67148   2.156  23.687  10.950
94834W        W67149  41.090  23.380   5.054
94835W        W67150   2.875  17.076  12.954
94836W        W67151  12.139   4.370   2.328
94837W        W67152  26.581  36.810   1.108
94838W        W67153   8.505  31.179   0.920
94839W        W67154  28.903  24.273   4.658
94840W        W67155   3.801  28.316  12.459
94841W        W67156  39.146  26.128  14.063
94842W        W67157   2.571   7.227   4.718
94843W        W67158  42.360  23.873  14.272
94844W        W67159  12.659  22.368   0.281
94845W        W67160   8.585  10.302  14.891
94846W        W67161  16.605  28.149  13.941
94847W        W67162  14.337  20.986  12.198
94848W        W67163   1.514  21.111  13.851
94849W        W67164   8.210  25.054  10.944
94850W        W67165  39.017   7.168   0.993
94851W        W67166  16.057   1.352   4.080
94852W        W67167  24.111  10.178   3.530
94853W        W67168   0.996  23.820   1.755
94854W        W67169  25.880  40.325  14.126
94855W        W67170   9.512  20.090  12.946
94856W        W67171  16.595  15.140  10.589
94857W        W67172  10.495   3.478  10.918
94858W        W67173  37.571  18.270   3.655
94859W        W67174  21.137  31.471   4.601
94860W        W67175  30.497  34.294   3.756
94861W        W67176  34.321  20.789   0.992
94862W        W67177  21.667  38.843   3.358
94863W        W67178   4.613  33.404  11.087
94864W        W67179   9.322  22.811   1.250
94865W        W67180  28.322  30.939   0.873
94866W        W67181  37.706  21.669   2.348
94867W        W67182  43.295  23.613   2.353
94868W        W67183   2.135   5.749   3.135
94869W        W67184  17.523  43.400  11.165
94870W        W67185   7.876  20.556  14.479
94871W        W67186  28.700  25.190  14.432
94872W        W67187  41.470  43.604   1.968
94873W        W67188  27.781  31.298  13.829
94874W        W67189   1.773   7.916  11.565
94875W        W67190  38.562   3.093   2.249
94876W        W67191   1.055  17.093   0.407
94877W        W67192   8.650  34.692  12.603
94878W        W67193  40.391  33.640  10.686
94879W        W67194   9.193  38.070   2.239
94880W        W67195  27.440  28.622   1.299
94881W        W67196  27.462   2.361  13.043
94882W        W67197  35.825  28.283  11.337
94883W        W67198  24.336  33.110  14.385
94884W        W67199  43.766  40.237  13.465
94885W        W67200   0.510   9.572   4.630
94886W        W67201   7.695   9.849  13.201
94887W        W67202   2.723  35.491  14.321
94888W        W67203   0.032   3.312   4.117
94889W        W67204  35.478  17.894   4.232
94890W        W67205   3.267   7.724   2.739
94891W        W67206   7.658  42.626   1.594
94892W        W67207  11.071  21.426  11.992
94893W        W67208  24.191  20.749  10.663
94894W        W67209  28.560   4.961  10.709
94895W        W67210  43.826  34.153   2.335
94896W        W67211  35.861   5.012   3.287
94897W        W67212   1.049   5.524  10.671
94898W        W67213  35.096  23.163  12.395
94899W        W67214  41.496  25.453  11.446
94900W        W67215  20.306  34.012   3.656
94901W        W67216  14.155  12.209   0.680
94902W        W67217  35.022  12.563   1.956
94903W        W67218  43.497   2.451   4.209
94904W        W67219  13.968  41.571   4.017
94905W        W67220   1.803  27.979  10.446
94906W        W67221  40.916  21.250   4.535
94907W        W67222  40.166  17.829   0.788
94908W        W67223  23.121   9.415   1.100
94909W        W67224  18.590  10.996  12.679
94910W        W67225  37.489  32.407  14.360
94911W        W67226  40.061  26.224   0.515
94912W        W67227   1.677  12.533   9.522
94913W        W67228  19.576  14.182   1.716
94914W        W67229  21.587   7.707  11.575
94915W        W67230   5.070  36.917   4.460
94916W        W67231  40.417  25.358   3.327
94917W        W67232  41.531  16.683   3.100
94918W        W67233  20.497  10.279  14.382
94919W        W67234  33.904  39.111  12.639
94920W        W67235  33.421  43.906  13.427
94921W        W67236  27.640  22.725  11.252
94922W        W67237  26.101  17.109   3.317
94923W        W67238  17.319  32.917  12.867
94924W        W67239  25.731   8.419  12.027
94925W        W67240  28.666  15.046   0.684
94926W        W67241  10.807  39.316  14.417
94927W        W67242  33.337  24.178   1.717
94928W        W67243  25.726  16.670  12.536
94929W        W67244  13.872  19.643  14.774
94930W        W67245   5.274  19.458  14.213
94931W        W67246  10.709  18.118  12.065
94932W        W67247  12.129  17.042  11.812
94933W        W67248  31.138  18.095   2.579
94934W        W67249   0.303  33.594   0.454
94935W        W67250  33.353  22.030  14.905
94936W        W67251   5.976  44.964   2.078
94937W        W67252   8.746  20.858  12.053
94938W        W67253   9.842   5.162   1.081
94939W        W67254  34.374  15.525   2.667
94940W        W67255  24.119  43.704   4.819
94941W        W67256  18.682  29.435  13.344
94942W        W67257  36.433  31.336  10.991
94943W        W67258  41.809  10.351   4.596
94944W        W67259   5.814   0.977   0.681
94945W        W67260  41.403  16.578  12.010
94946W        W67261  11.517  23.413  13.057
94947W        W67262  29.656  33.391  14.816
94948W        W67263   4.495  24.544   3.696
94949W        W67264  30.967  21.224   1.196
94950W        W67265  33.229  18.596   4.545
94951W        W67266  29.662  36.943  12.840
94952W        W67267  31.582  24.932  14.972
94953W        W67268  12.295  10.622  12.692
94954W        W67269  25.489   4.124   3.704
94955W        W67270  10.610  33.816   1.653
94956W        W67271  22.044  33.614   2.443
94957W        W67272  17.072  44.750  14.570
94958W        W67273  13.987  12.734   4.688
94959W        W67274  24.971   9.290  11.144
94960W        W67275  43.492  21.543  12.001
94961W        W67276  35.703  13.141  14.748
94962W        W67277   6.725   1.254  14.994
94963W        W67278   6.404  12.776  13.945
94964W        W67279  13.622  30.734  11.649
94965W        W67280  12.133  36.277  11.221
94966W        W67281  38.733  41.398  13.468
94967W        W67282  31.546  44.859  13.069
94968W        W67283  33.658  11.947   3.242
94969W        W67284  39.050  41.589  12.072
94970W        W67285   8.668  23.738  12.052
94971W        W67286   8.185  40.787  12.282
94972W        W67287   6.876  28.420   2.254
94973W        W67288   7.801   5.994   3.240
94974W        W67289  15.782   7.343  13.136
94975W        W67290  18.892   6.410  14.293
94976W        W67291   7.310  12.516   2.791
94977W        W67292  23.759   3.955   2.017
94978W        W67293  41.729  21.289  11.631
94979W        W67294   2.812   4.843   4.489
94980W        W67295  34.385  11.956  14.339
94981W        W67296  10.681  25.861   4.436
94982W        W67297  26.190  43.331   1.663
94983W        W67298   3.754  26.525  12.929
94984W        W67299  13.727  31.858  14.877
94985W        W67300   4.439  18.936   4.081
94986W        W67301  25.686   6.163  10.140
94987W        W67302   1.471   2.469   4.662
94988W        W67303   6.628  37.002   1.424
94989W        W67304  35.068  13.160  12.319
94990W        W67305  26.201  43.933  13.680
94991W        W67306   6.917  12.046  10.770
94992W        W67307  38.692  23.911  12.013
94993W        W67308   1.991  35.747   1.336
94994W        W67309   5.030  28.733   1.630
94995W        W67310  41.732   7.624  12.475
94996W        W67311  37.873  33.524  11.703
94997W        W67312   9.634  41.753   0.389
94998W        W67313  18.400  23.751   0.430
94999W        W67314  39.295  18.260  10.276
95000W        W67315  20.752  25.281  11.116
95001W        W67316   6.824  37.381   2.205
95002W        W67317  10.757  43.053   3.097
95003W        W67318  13.344  30.947  12.836
95004W        W67319  11.198  43.953  14.406
95005W        W67320  41.993  42.272   3.923
95006W        W67321   1.997  40.649  14.869
95007W        W67322  24.075  25.506  11.379
95008W        W67323  33.371  15.463  10.732
95009W        W67324  23.527  18.349  11.437
95010W        W67325  20.153  11.848  14.290
95011W        W67326  37.940  23.012  14.880
95012W        W67327  41.505   3.730  11.538
95013W        W67328   9.335  33.527   1.921
95014W        W67329  21.265  22.148   0.794
95015W        W67330  17.273  27.144  12.467
95016W        W67331  21.968  18.589   0.267
95017W        W67332  16.733  42.501   3.349
95018W        W67333  41.351   2.765   3.095
95019W        W67334  37.130  24.767  13.200
95020W        W67335  17.214   3.887  14.911
95021W        W67336   0.250  42.995  11.819
95022W        W67337  40.370  33.055  12.908
95023W        W67338  29.955   8.716   1.664
95024W        W67339  12.322  16.301  12.196
95025W        W67340  25.480   5.482   3.307
95026W        W67341  14.896  33.940   4.169
95027W        W67342  32.007  35.828  14.848
95028W        W67343  19.710  32.168  10.766
95029W        W67344  12.658  28.646   4.227
95030W        W67345  19.474   8.258  14.893
95031W        W67346  21.873  26.253  13.482
95032W        W67347  39.024  15.660   3.729
95033W        W67348  44.345  21.218  14.813
95034W        W67349  35.418  33.458   0.836
95035W        W67350  39.522  44.722  10.656
95036W        W67351  23.529   4.723   1.295
95037W        W67352   4.812  12.947   4.148
95038W        W67353  21.036   0.783  13.935
95039W        W67354   0.997   3.959   5.022
95040W        W67355  42.961  15.045  11.949
95041W        W67356  14.679  34.537   1.447
95042W        W67357  10.827  15.026   1.513
95043W        W67358  40.001  15.526   1.200
95044W        W67359  22.651   2.404   4.520
95045W        W67360  14.611   3.430  11.694
95046W        W67361  40.796  19.773   2.321
95047W        W67362  17.741  42.935  11.205
95048W        W67363   3.108  13.595   2.097
95049W        W67364  34.304  14.064   3.142
95050W        W67365  26.238  43.717  12.635
95051W        W67366  35.079  18.103  13.672
95052W        W67367  31.590  44.739  12.579
95053W        W67368  31.111  29.228   1.284
95054W        W67369   1.885  19.650   2.568
95055W        W67370  22.187  33.212   2.154
95056W        W67371  44.206  29.149   2.789
95057W        W67372   8.186  23.556  14.692
95058W        W67373  44.184  27.270  11.057
95059W        W67374  28.578  23.530   1.258
95060W        W67375  44.947  26.108   1.448
95061W        W67376  42.095  14.793  11.268
95062W        W67377  18.728  42.741   4.960
95063W        W67378   8.007  19.659   0.749
95064W        W67379  19.985   0.478  12.066
95065W        W67380  26.173  43.526  10.705
95066W        W67381  19.762  25.688  13.382
95067W        W67382  37.886   5.765   0.740
95068W        W67383  26.878  11.848   4.538
95069W        W67384  21.236  40.958   1.909
95070W        W67385  13.918   9.929  12.045
95071W        W67386  42.275  19.570   2.785
95072W        W67387  10.753  39.446  11.252
95073W        W67388  12.780  41.042   4.868
95074W        W67389   9.809  40.297  12.146
95075W        W67390  18.938   7.914  10.244
95076W        W67391  41.362  20.444   4.636
95077W        W67392  18.667  24.616  13.903
95078W        W67393  34.418  16.946   2.031
95079W        W67394  10.639  41.506   0.319
95080W        W67395  23.246  37.402  12.359
95081W        W67396  37.574   1.313   1.942
95082W        W67397  23.770  33.617  11.980
95083W        W67398  40.049   4.526  12.472
95084W        W67399   4.455  36.533   1.704
95085W        W67400   5.872  29.640   2.437
95086W        W67401  43.381  17.316   2.578
95087W        W67402   3.391  28.425   2.801
95088W        W67403   0.307  34.521   3.363
95089W        W67404  42.548   2.880   2.610
95090W        W67405   0.192  33.578  11.533
95091W        W67406  43.307  42.833  14.289
95092W        W67407   7.168   5.412  14.371
95093W        W67408  16.711  41.048  10.336
95094W        W67409  23.232  36.610  11.131
95095W        W67410  41.444  44.371  11.918
95096W        W67411   9.287  16.615   5.392
95097W        W67412  24.564   7.631  11.589
95098W        W67413   0.507  21.682  11.598
95099W        W67414  24.690  41.511   1.768
95100W        W67415   6.727  21.752  11.217
95101W        W67416  27.644  28.840   4.044
95102W        W67417   9.336  26.193  12.402
95103W        W67418  34.442  22.090   3.434
95104W        W67419  38.909  16.776  14.261
95105W        W67420  14.922  24.076   1.788
95106W        W67421  12.078  32.012   2.512
95107W        W67422  25.135  29.983   1.338
95108W        W67423  38.021   7.914  13.740
95109W        W67424  24.696  17.651  11.642
95110W        W67425  42.157  37.049  12.691
95111W        W67426   9.925  21.189  13.607
95112W        W67427  18.440   3.269  10.725
95113W        W67428  26.926  26.352   1.579
95114W        W67429  24.430   8.918   2.959
95115W        W67430  40.000  34.231  14.002
95116W        W67431  18.457   1.736   4.650
95117W        W67432   9.898  33.596  14.848
95118W        W67433   4.372  29.673   4.355
95119W        W67434  23.158  30.039  11.972
95120W        W67435  26.051  13.185   1.375
95121W        W67436  32.733  29.612   1.220
95122W        W67437  43.485   3.454  14.502
95123W        W67438  24.602  14.022  12.885
95124W        W67439  25.712   7.247  14.746
95125W        W67440  32.387  15.045  13.408
95126W        W67441  10.671   3.096  12.560
95127W        W67442  20.249   9.976  14.838
95128W        W67443  26.535   0.440  12.762
95129W        W67444  11.907  17.582   2.006
95130W        W67445  36.556  35.973  10.310
95131W        W67446  44.537  44.285   0.340
95132W        W67447  20.238  44.456   2.590
95133W        W67448  44.577  11.824   2.227
95134W        W67449  35.790  17.728  11.549
95135W        W67450  38.224  26.644  11.550
95136W        W67451  25.777  43.791  12.905
95137W        W67452  15.851  39.046  10.951
95138W        W67453  42.930   0.020  11.041
95139W        W67454  30.975  29.456   1.803
95140W        W67455  10.026  26.523   1.314
95141W        W67456  29.821  32.928  12.395
95142W        W67457  38.128  13.073  11.976
95143W        W67458  43.358  21.573  14.672
95144W        W67459  23.628  31.852  11.735
95145W        W67460   2.001  18.289  11.553
95146W        W67461   9.566  35.597  11.211
95147W        W67462  20.226  10.900   4.652
95148W        W67463  27.982  14.278  14.935
95149W        W67464  14.690  39.385  14.998
95150W        W67465   8.219   3.048  10.443
95151W        W67466  31.946  28.355  14.867
95152W        W67467  25.517  43.524   3.530
95153W        W67468  24.751  38.647  10.703
95154W        W67469  26.667   3.692  11.193
95155W        W67470  14.834   3.901   2.454
95156W        W67471  36.006  15.621   3.803
95157W        W67472  44.468  11.995   4.341
95158W        W67473   0.382  18.727   1.250
95159W        W67474  34.790  10.753   0.937
95160W        W67475  38.847  21.613  13.841
95161W        W67476  44.877  21.985   0.155
95162W        W67477  43.955  39.415   3.184
95163W        W67478   7.899   9.695  14.086
95164W        W67479  22.054  27.576   4.551
95165W        W67480  24.935   5.730  14.398
95166W        W67481  24.596  37.585  10.603
95167W        W67482  31.021  23.720   5.056
95168W        W67483  13.775  30.448  12.093
95169W        W67484  13.893  24.815  11.532
95170W        W67485   5.595   0.815   1.418
95171W        W67486  30.498  15.035  11.589
95172W        W67487  19.183  11.076  14.797
95173W        W67488  16.770   5.112   0.820
95174W        W67489  30.450  29.918  13.140
95175W        W67490   8.294  41.383   0.222
95176W        W67491   0.827   0.578   2.454
95177W        W67492  40.830   3.869  14.243
95178W        W67493  19.000  23.133   2.252
95179W        W67494  17.585  41.526  11.163
95180W        W67495   7.178  31.878   3.398
95181W        W67496  12.363  13.151   1.634
95182W        W67497  21.524  26.432   4.353
95183W        W67498  26.135  37.988   1.173
95184W        W67499   5.504  12.416  14.879
95185W        W67500  21.028  21.091  10.657
95186W        W67501  30.949   2.789  13.295
95187W        W67502  20.901  23.797  14.386
95188W        W67503  29.714  18.526   0.496
95189W        W67504  25.729  11.341  11.093
95190W        W67505  34.389  26.559  10.428
95191W        W67506   1.335   6.797   1.662
95192W        W67507   2.986  40.377  14.203
95193W        W67508  26.075  23.133  13.134
95194W        W67509   4.867   4.197  14.838
95195W        W67510  42.466  34.998   3.644
95196W        W67511  34.395  16.160   1.371
95197W        W67512   8.305  43.049  12.923
95198W        W67513  34.070  31.692  10.052
95199W        W67514  11.626  23.709   0.398
95200W        W67515   2.764  27.161  13.963
95201W        W67516  18.604   5.246  12.841
95202W        W67517  24.138  22.372  12.421
95203W        W67518  18.853  34.571  11.603
95204W        W67519  40.620  20.644  10.644
95205W        W67520  24.803  16.601  14.301
95206W        W67521  39.455  26.091   4.141
95207W        W67522   2.321  17.631  12.521
95208W        W67523   7.103  39.272  13.544
95209W        W67524  44.824  19.448   1.531
95210W        W67525  43.927  17.890  13.464
95211W        W67526   5.317  22.986  12.529
95212W        W67527   2.314  24.961  14.907
95213W        W67528  16.368  34.079   0.974
95214W        W67529  15.231  37.078   0.614
95215W        W67530  12.589  20.737   4.108
95216W        W67531  15.154  34.138   4.886
95217W        W67532   8.016  21.010   1.758
95218W        W67533  37.059  33.480   1.407
95219W        W67534  18.040  10.267   3.608
95220W        W67535  26.932  10.717  11.398
95221W        W67536  35.395  32.910  12.358
95222W        W67537  33.866  13.682  12.053
95223W        W67538  41.116  16.278   3.082
95224W        W67539  28.730  25.211  12.946
95225W        W67540  36.776  44.887  14.760
95226W        W67541  32.114  21.641  12.527
95227W        W67542  26.474  23.100   4.550
95228W        W67543  19.000  22.984   0.940
95229W        W67544   0.391  25.004  10.733
95230W        W67545  30.455  11.607  14.832
95231W        W67546  13.789  14.652  14.357
95232W        W67547  44.969  17.118  13.326
95233W        W67548  11.119  18.444  10.683
95234W        W67549  10.971  12.255  14.187
95235W        W67550  19.106  28.766  14.382
95236W        W67551  11.712  41.013  10.980
95237W        W67552   7.832   2.426  11.719
95238W        W67553  10.662   8.126  11.634
95239W        W67554   1.406   1.539   4.717
95240W        W67555  21.242  19.357  10.715
95241W        W67556  19.510  26.573   3.626
95242W        W67557  28.920  42.246   2.885
95243W        W67558  21.428   1.217   3.852
95244W        W67559   1.828  27.614  13.985
95245W        W67560  43.927  22.028  13.023
95246W        W67561  25.431  19.985   4.153
95247W        W67562   0.242   9.605   9.835
95248W        W67563   8.978  29.976  12.564
95249W        W67564   7.342  24.141   2.321
95250W        W67565  13.645  33.313   2.108
95251W        W67566  13.068  30.294  14.426
95252W        W67567  11.220   5.513   3.269
95253W        W67568  44.292   6.105  14.860
95254W        W67569  36.547  35.346   1.286
95255W        W67570  29.894  19.090   3.840
95256W        W67571  30.693   1.270   3.675
95257W        W67572  42.787  41.010   1.196
95258W        W67573  22.638  37.098   2.377
95259W        W67574  34.297  38.645   0.220
95260W        W67575  37.768   3.721   3.752
95261W        W67576   1.571   8.953  14.796
95262W        W67577  40.915   7.386   0.154
95263W        W67578  19.866  40.513  10.770
95264W        W67579   8.167  41.400   1.493
95265W        W67580  22.759  30.886  12.962
95266W        W67581  42.053   3.385  13.412
95267W        W67582  20.132  11.889   3.212
95268W        W67583  18.105   3.438  11.102
95269W        W67584  41.419  39.990   3.969
95270W        W67585  39.906  42.214   3.286
95271W        W67586   8.554  20.009   0.079
95272W        W67587  39.775  30.503  12.495
95273W        W67588  30.711  10.547  10.636
95274W        W67589  11.884  21.640   1.270
95275W        W67590  37.857  42.760  10.228
95276W        W67591  19.516  16.397  14.183
95277W        W67592   8.894   2.368   4.902
95278W        W67593  34.244  13.737   2.728
95279W        W67594  24.497  41.726   2.384
95280W        W67595  19.148   3.532   1.236
95281W        W67596   2.432  10.050  11.628
95282W        W67597  42.442  40.453   3.635
95283W        W67598  41.795  15.757  13.045
95284W        W67599  43.761   7.636   4.508
95285W        W67600  42.328  38.428  14.337
95286W        W67601   0.762  12.927  13.200
95287W        W67602  27.698   2.326   4.290
95288W        W67603  35.184  44.777  11.938
95289W        W67604  19.698  35.961  10.544
95290W        W67605  34.191  26.027   4.293
95291W        W67606  28.218  41.913  12.891
95292W        W67607  34.612  21.115   1.274
95293W        W67608  17.088  28.121   9.793
95294W        W67609  19.221  34.398  13.912
95295W        W67610   7.662  25.730   3.983
95296W        W67611  44.324  25.753  11.062
95297W        W67612  22.996  42.862   4.529
95298W        W67613  37.009  26.875  14.348
95299W        W67614  20.291  22.745  10.634
95300W        W67615  41.898  36.963  12.222
95301W        W67616  36.369   1.934   3.077
95302W        W67617  12.618  19.528  11.138
95303W        W67618   7.099  40.989  13.926
95304W        W67619  21.040  43.477  12.112
95305W        W67620   0.183   3.996   0.787
95306W        W67621   3.766  32.225  11.893
95307W        W67622  36.837   7.767  13.342
95308W        W67623   3.469  21.029   0.422
95309W        W67624  28.581  15.304   2.202
95310W        W67625   5.433   0.480   1.900
95311W        W67626  20.650   3.717  10.854
95312W        W67627  34.414  14.649   4.638
95313W        W67628  29.239  16.739   5.004
95314W        W67629   2.379  24.516   4.297
95315W        W67630  33.186   9.704   2.313
95316W        W67631  21.212  18.617   1.620
95317W        W67632  41.920   8.125   3.641
95318W        W67633  23.875   8.859  10.751
95319W        W67634   2.912  31.350   0.796
95320W        W67635  34.217   4.332  12.384
95321W        W67636  14.073  26.607   4.466
95322W        W67637   6.370  23.817   2.756
95323W        W67638  22.115  38.252   4.484
95324W        W67639  38.136   6.795   0.965
95325W        W67640  28.812  32.855  12.601
95326W        W67641  41.435  17.135   2.239
95327W        W67642  26.175  44.761   4.569
95328W        W67643  10.710  41.330   4.535
95329W        W67644   1.885  40.226  12.040
95330W        W67645  27.163  21.408  13.963
95331W        W67646   5.462  32.869   4.116
95332W        W67647  41.718  37.777  14.201
95333W        W67648  21.000  13.395  11.126
95334W        W67649   6.328   1.417   1.306
95335W        W67650  27.534  34.784  14.875
95336W        W67651  34.971  35.652   3.809
95337W        W67652  13.182  33.859  13.220
95338W        W67653   7.777  38.466  14.456
95339W        W67654  22.515   0.471  10.312
95340W        W67655  22.817  18.374  10.119
95341W        W67656   9.784  39.324  13.805
95342W        W67657  33.237  27.367  14.274
95343W        W67658  39.982  44.564  12.264
95344W        W67659  12.938  13.644  11.480
95345W        W67660   4.471  27.365  11.013
95346W        W67661  26.119   5.881  14.917
95347W        W67662   8.190   9.101   4.935
95348W        W67663   6.428  20.536  11.983
95349W        W67664   8.286  30.580   0.131
95350W        W67665  26.129  42.948  13.606
95351W        W67666  30.507   7.202   4.076
95352W        W67667  39.777  11.774  14.639
95353W        W67668  30.558  16.687   0.048
95354W        W67669  27.204  19.328  12.058
95355W        W67670   1.806   0.692   3.454
95356W        W67671  25.683  44.398   3.625
95357W        W67672  15.752  19.792   1.891
95358W        W67673  12.627   3.886  12.926
95359W        W67674  44.227  22.760   3.791
95360W        W67675   5.986  38.433  14.884
95361W        W67676   4.217  37.080  11.095
95362W        W67677  22.475   0.295  11.168
95363W        W67678   6.798  28.463   4.707
95364W        W67679  24.544  26.130   1.747
95365W        W67680  35.572  32.524  14.877
95366W        W67681  35.662   2.329   2.826
95367W        W67682  35.390  27.500  10.531
95368W        W67683  24.607  35.437   0.713
95369W        W67684   6.996  39.711   2.580
95370W        W67685   3.471   1.969   2.623
95371W        W67686  32.102  38.571  10.232
95372W        W67687  41.832  42.004  12.594
95373W        W67688  32.990  25.449   1.491
95374W        W67689  28.026  23.998   3.345
95375W        W67690   6.455  28.918  14.988
95376W        W67691   1.715  37.654  13.805
95377W        W67692  39.423  32.572  11.021
95378W        W67693  27.204   5.323   1.489
95379W        W67694   4.347  17.279  13.930
95380W        W67695  23.762   2.159  14.303
95381W        W67696  15.194  18.551  12.513
95382W        W67697  27.559   2.949   1.302
95383W        W67698  21.116   5.245  12.048
95384W        W67699  28.015  40.738  10.605
95385W        W67700  34.326  14.116   1.804
95386W        W67701  28.940  28.162  10.712
95387W        W67702  25.229  34.833  11.267
95388W        W67703   9.309  25.264  12.506
95389W        W67704  37.574  39.105  11.200
95390W        W67705   9.732  22.511   1.252
95391W        W67706  14.022  11.606  10.822
95392W        W67707  13.700  11.695  12.865
95393W        W67708  26.227  15.055   3.190
95394W        W67709  15.648   3.730  11.955
95395W        W67710  44.260  44.233   4.577
95396W        W67711  16.594   6.061  13.843
95397W        W67712  32.811  19.126   0.769
95398W        W67713  21.104   1.816  11.611
95399W        W67714  43.378  25.003   0.921
95400W        W67715  25.584  13.373  11.153
95401W        W67716  21.960  40.538   1.581
95402W        W67717  22.233  11.945   4.182
95403W        W67718   7.151  13.166  14.442
95404W        W67719  12.279   9.107   4.487
95405W        W67720  15.768  33.615  12.482
95406W        W67721  42.356  22.912   4.007
95407W        W67722  26.442   5.107   1.661
95408W        W67723  14.508  26.619  14.846
95409W        W67724   7.158  30.540   4.109
95410W        W67725  11.709  31.178   3.783
95411W        W67726  13.253  19.536   3.752
95412W        W67727   4.786  28.646  14.009
95413W        W67728  41.493   9.702  14.102
95414W        W67729  24.498  43.307  12.920
95415W        W67730  24.198  24.552  11.060
95416W        W67731  22.537  39.165   3.598
95417W        W67732  32.452  42.301   1.361
95418W        W67733   9.711  10.607   3.606
95419W        W67734   5.799  33.205   1.846
95420W        W67735   1.054  32.405  11.941
95421W        W67736  44.868  31.044   0.290
95422W        W67737   4.864  35.383   3.457
95423W        W67738   3.993  11.760   2.152
95424W        W67739  41.411  10.413   2.894
95425W        W67740   5.208  29.003  14.319
95426W        W67741  30.083   2.786   0.238
95427W        W67742  28.442  32.841   1.839
95428W        W67743  42.867  40.418   3.301
95429W        W67744   0.689  34.129   4.098
95430W        W67745   3.504   0.945  13.933
95431W        W67746  40.753  33.410   0.821
95432W        W67747  43.788  39.894  11.530
95433W        W67748   0.669  20.978   2.563
95434W        W67749  20.031  14.889  13.472
95435W        W67750  13.595  41.256   1.915
95436W        W67751  29.192  27.412   2.381
95437W        W67752   7.680  18.239  11.957
95438W        W67753  33.182  40.349   0.813
95439W        W67754   3.653  31.471  13.286
95440W        W67755  11.632   6.261   2.333
95441W        W67756  43.296  39.806  10.756
95442W        W67757  30.847  36.505   1.750
95443W        W67758   7.950  40.359   4.495
95444W        W67759  39.053  10.692   3.785
95445W        W67760  32.881  14.254   0.778
95446W        W67761  30.610   2.554   1.773
95447W        W67762  37.485  37.460  12.062
95448W        W67763  33.377   7.745   4.582
95449W        W67764  40.885   1.315   0.875
95450W        W67765  19.554  44.388  12.400
95451W        W67766  22.609  35.348  13.955
95452W        W67767  31.105  30.530  11.262
95453W        W67768   7.341  10.767   2.690
95454W        W67769  12.336  26.881  13.971
95455W        W67770  23.993  13.376  12.910
95456W        W67771   5.841   5.923   3.815
95457W        W67772  40.946  19.715  12.398
95458W        W67773  27.383  37.071   0.136
95459W        W67774   8.655  42.052  11.118
95460W        W67775  28.348  12.674  13.954
95461W        W67776  21.360  12.771   2.815
95462W        W67777  31.835  31.673   0.360
95463W        W67778  22.080   6.130   3.244
95464W        W67779  27.467  15.128   2.716
95465W        W67780   8.787  12.755   1.697
95466W        W67781  25.354  39.725   1.390
95467W        W67782  28.116   1.689   0.941
95468W        W67783   6.203   3.854  13.146
95469W        W67784  33.933  23.035   0.592
95470W        W67785  24.050   3.450  13.488
95471W        W67786   7.909  30.384  11.555
95472W        W67787  28.500  17.132  14.605
95473W        W67788  21.883  14.731  12.113
95474W        W67789  23.799  32.656  11.223
95475W        W67790  31.897  35.888  11.996
95476W        W67791  36.137  15.015  12.539
95477W        W67792   6.227  35.020  12.056
95478W        W67793  38.178  17.958   4.398
95479W        W67794  16.232  34.422  12.954
95480W        W67795   9.742  42.781   0.460
95481W        W67796  33.572  22.029   1.851
95482W        W67797  10.909   7.163  14.067
95483W        W67798  40.119  12.624  12.572
95484W        W67799  19.778  41.338   3.606
95485W        W67800  28.770   1.660   2.636
95486W        W67801  36.676  12.292   4.519
95487W        W67802  15.389  33.464  12.793
95488W        W67803   6.222  30.154   4.260
95489W        W67804  41.798  42.976  10.850
95490W        W67805  24.174  43.480   1.351
95491W        W67806  13.572  38.017   0.991
95492W        W67807   6.132  29.090   0.371
95493W        W67808  14.412  28.635   3.813
95494W        W67809  17.206  18.058   1.517
95495W        W67810  18.620  10.844   3.261
95496W        W67811   1.710  29.042   0.447
95497W        W67812  20.304  35.115   3.198
95498W        W67813  34.438  14.250  10.781
95499W        W67814  31.909  33.481  10.435
95500W        W67815  32.062   9.307  12.811
95501W        W67816  41.392  17.720   1.970
95502W        W67817  19.165  36.585  13.246
95503W        W67818  18.297  41.834  13.892
95504W        W67819  22.951  11.698   1.483
95505W        W67820  16.835  20.626  12.482
95506W        W67821  42.437  16.664   4.150
95507W        W67822  23.548  30.583  13.936
95508W        W67823  36.568  27.033  10.343
95509W        W67824  19.261  13.911   0.456
95510W        W67825  32.491  13.823  12.393
95511W        W67826  18.679   2.347   0.714
95512W        W67827  24.966   9.460   0.768
95513W        W67828   1.214  43.068   1.952
95514W        W67829  27.965   4.326  14.090
95515W        W67830  33.946  42.433   1.490
95516W        W67831   0.197  30.165   0.299
95517W        W67832  19.315  11.933  13.981
95518W        W67833  33.007  21.243  11.135
95519W        W67834  44.471  12.399  13.639
95520W        W67835  24.190  39.036  12.881
95521W        W67836  38.871  38.807  14.860
95522W        W67837  17.271  18.582   4.223
95523W        W67838  29.885   4.489   4.295
95524W        W67839  36.126  39.962   1.801
95525W        W67840  19.465   9.924  13.022
95526W        W67841  38.945  38.845   2.452
95527W        W67842  27.660  38.338   1.324
95528W        W67843  16.189  24.967  12.920
95529W        W67844   4.906  22.162  10.835
95530W        W67845  44.380   9.783   0.852
95531W        W67846   5.181  36.321   2.947
95532W        W67847  38.580   1.745   4.966
95533W        W67848   6.817  42.623  10.908
95534W        W67849  35.774  11.309  12.041
95535W        W67850  21.290  19.129   2.926
95536W        W67851  35.906   0.877   3.640
95537W        W67852  22.514  39.246   2.592
95538W        W67853  21.151  39.320   4.853
95539W        W67854  19.606   4.756   0.626
95540W        W67855  38.202  37.397   4.286
95541W        W67856  39.418  42.703   2.765
95542W        W67857   0.565   8.827   5.075
95543W        W67858   5.990  43.056   2.172
95544W        W67859  17.290  42.712  12.385
95545W        W67860  24.462  22.898   0.343
95546W        W67861   6.808  41.818   4.037
95547W        W67862   0.116  34.910  14.621
95548W        W67863  32.418   3.667   2.959
95549W        W67864   4.587  39.708   1.832
95550W        W67865  35.250  28.327  14.986
95551W        W67866  29.992  36.825  12.475
95552W        W67867  24.453  22.496  13.567
95553W        W67868  18.861  38.977  11.025
95554W        W67869   4.761  39.527  10.857
95555W        W67870  44.194  39.289   2.578
95556W        W67871  28.866  17.061  14.020
95557W        W67872  13.885  22.487  14.588
95558W        W67873  38.881  12.554  13.971
95559W        W67874  24.081  35.807  11.278
95560W        W67875  30.870  34.870  11.632
95561W        W67876   7.591  19.579  12.987
95562W        W67877  32.574  39.090  12.167
95563W        W67878   5.982  26.512  13.429
95564W        W67879   2.503  13.487   4.078
95565W        W67880  23.204  41.261   3.601
95566W        W67881  29.096  28.219  12.349
95567W        W67882  30.188  22.625  13.831
95568W        W67883   4.105  24.780  13.972
95569W        W67884  25.104  44.543   0.997
95570W        W67885   0.188  24.321   1.347
95571W        W67886   9.950   1.928   3.346
95572W        W67887  31.692  25.524  13.696
95573W        W67888  38.801   1.536  12.860
95574W        W67889   8.635  38.919  13.521
95575W        W67890   3.327  32.696  12.530
95576W        W67891  15.105   5.218   4.981
95577W        W67892  16.868  42.569   5.017
95578W        W67893  41.827  29.928  12.467
95579W        W67894  38.838  32.496   1.914
95580W        W67895  31.927  25.723  12.497
95581W        W67896   0.760   4.442   5.009
95582W        W67897   1.449   9.229   3.698
95583W        W67898  40.252  44.778  14.272
95584W        W67899  12.695   4.407  11.085
95585W        W67900  11.918  13.005  12.375
95586W        W67901  26.024  42.118  13.829
95587W        W67902  37.462  41.969  14.370
95588W        W67903  37.851  27.875  12.810
95589W        W67904  11.873  33.839  11.110
95590W        W67905  26.698   7.155   2.213
95591W        W67906  13.084  40.537   0.081
95592W        W67907  30.873  10.823  11.632
95593W        W67908  25.073   5.821  11.118
95594W        W67909  27.498  34.659   5.283
95595W        W67910  32.910   8.897   1.820
95596W        W67911  11.893  15.280  14.570
95597W        W67912  22.640   5.847  10.935
95598W        W67913   4.006  25.435   2.507
95599W        W67914  32.158  13.331  14.749
95600W        W67915  16.362   8.768   0.752
95601W        W67916  17.245  19.072  14.826
95602W        W67917  15.794   6.435   0.640
95603W        W67918   7.527   2.369  13.110
95604W        W67919  42.396  10.368   1.647
95605W        W67920  40.073   9.234   4.309
95606W        W67921  16.174   7.734   4.676
95607W        W67922  44.221  18.200   3.997
95608W        W67923  25.212   2.304   2.372
95609W        W67924  12.269  36.935   0.420
95610W        W67925   1.412  23.714   2.498
95611W        W67926   9.875   2.539   1.057
95612W        W67927  11.996  18.778  14.776
95613W        W67928  30.053  20.809  14.896
95614W        W67929  18.820  44.320   2.432
95615W        W67930  23.122   0.156  14.321
95616W        W67931  35.118  31.465   3.226
95617W        W67932  40.884  23.631   1.700
95618W        W67933  20.492  31.023  12.430
95619W        W67934  39.533  33.981   2.766
95620W        W67935  41.935  33.937  12.511
95621W        W67936  42.524  32.722  12.968
95622W        W67937  13.808   0.035  12.659
95623W        W67938  41.916  12.167  13.107
95624W        W67939  28.266  41.170   0.377
95625W        W67940  18.608   9.230  13.597
95626W        W67941  13.787  31.379  13.969
95627W        W67942  27.954  15.988  10.397
95628W        W67943   3.903  19.610   4.094
95629W        W67944   3.417   4.477   1.605
95630W        W67945   4.070  40.005   1.459
95631W        W67946  22.938   7.337   4.029
95632W        W67947   5.618   6.228   0.303
95633W        W67948  24.288  33.608  12.029
95634W        W67949  29.053  22.141   0.832
95635W        W67950   2.287  27.684  14.921
95636W        W67951  16.954  39.807   0.401
95637W        W67952   1.286  22.143   0.214
95638W        W67953  20.535   9.141  11.881
95639W        W67954   3.848  41.887  11.477
95640W        W67955   2.793  41.790  14.669
95641W        W67956  33.992  10.021  12.975
95642W        W67957  15.962  34.456  11.081
95643W        W67958  44.331  35.567  13.928
95644W        W67959  11.402  19.535  10.537
95645W        W67960  15.581  13.200   3.615
95646W        W67961   4.805  29.456  11.613
95647W        W67962  16.557  38.024  12.421
95648W        W67963  44.264  14.349  13.764
95649W        W67964  31.484  23.960   3.286
95650W        W67965  14.361  20.050   0.465
95651W        W67966  25.038  34.638   0.871
95652W        W67967  21.671  40.875  13.405
95653W        W67968   1.221  16.107   2.849
95654W        W67969  20.717   2.785  10.657
95655W        W67970  14.910   1.719   2.682
95656W        W67971  25.571   3.455  13.160
95657W        W67972  29.406   6.435  12.023
95658W        W67973  14.163  44.406   4.012
95659W        W67974  23.080   9.103   2.906
95660W        W67975  18.742  16.860  13.978
95661W        W67976  16.550  33.446   0.298
95662W        W67977  39.445  27.948  13.388
95663W        W67978  39.322   5.827   4.289
95664W        W67979  18.701  37.397   4.453
95665W        W67980  26.518   5.454  14.176
95666W        W67981  23.435  20.623  12.505
95667W        W67982  25.561  23.541   0.295
95668W        W67983  21.676  40.091   3.626
95669W        W67984   4.167   0.405   2.273
95670W        W67985  24.991  35.968  12.480
95671W        W67986  18.089  21.629   4.204
95672W        W67987  31.425  44.933   3.268
95673W        W67988  17.114  32.760   2.807
95674W        W67989   2.512  12.650   2.333
95675W        W67990  41.628  32.524  11.059
95676W        W67991  39.738  28.804   1.057
95677W        W67992  17.778  26.353  10.784
95678W        W67993  28.472   6.306   5.395
95679W        W67994  13.613  42.045   2.810
95680W        W67995  18.728  40.518   3.557
95681W        W67996   0.773   2.148  11.476
95682W        W67997   3.246  40.142   0.335
95683W        W67998  40.837   6.828   0.837
95684W        W67999  12.100   5.626   1.848
95685W        W68000  15.790  38.980   0.338
95686W        W68001   5.267  23.679   1.803
95687W        W68002  16.186  44.751  14.538
95688W        W68003  40.785  19.993  14.473
95689W        W68004   3.177  28.052  13.351
95690W        W68005   5.381  40.605  13.337
95691W        W68006   5.464   4.952  14.745
95692W        W68007   1.179  30.918  13.505
95693W        W68008   2.216  26.008   0.166
95694W        W68009  44.399  12.829  12.767
95695W        W68010   0.504  43.351  11.108
95696W        W68011  21.604  36.229   3.203
95697W        W68012   0.683   8.407  10.655
95698W        W68013  12.926   2.693  13.905
95699W        W68014  21.639  12.275  12.814
95700W        W68015  30.178  18.692   0.341
95701W        W68016  21.986   7.701  12.916
95702W        W68017  34.529  32.421   0.290
95703W        W68018  40.415  37.953   1.140
95704W        W68019   2.825  19.696  12.126
95705W        W68020  16.626   4.254   0.859
95706W        W68021  31.085  32.511   4.760
95707W        W68022   2.397  17.471  10.363
95708W        W68023   5.620   4.480   0.355
95709W        W68024  14.405  42.232  14.289
95710W        W68025  35.806  18.487   0.743
95711W        W68026  18.868  15.116   4.979
95712W        W68027  12.260  13.371   3.117
95713W        W68028   7.902  35.824  13.767
95714W        W68029  27.232  29.871  11.912
95715W        W68030  10.332  15.795  13.954
95716W        W68031   4.996  21.031  11.463
95717W        W68032  40.025   9.601   2.378
95718W        W68033  13.884  23.656  12.479
95719W        W68034  15.605   0.414   2.907
95720W        W68035  12.214  42.868   3.890
95721W        W68036  24.249  28.634   3.795
95722W        W68037  13.037  18.265  10.792
95723W        W68038  32.041  37.924  14.191
95724W        W68039  36.658  34.111  11.951
95725W        W68040  22.499  20.981   4.278
95726W        W68041  35.385   0.598  11.975
95727W        W68042  20.016   5.763  10.927
95728W        W68043  39.779   3.085   2.610
95729W        W68044  42.546  35.259  14.739
95730W        W68045  10.200   4.317  13.635
95731W        W68046  37.662  15.553  13.357
95732W        W68047   1.764  17.862  13.371
95733W        W68048  26.146  43.662  12.128
95734W        W68049  36.408  41.472   3.052
95735W        W68050  42.349  42.365   4.276
95736W        W68051   6.852  41.637  11.562
95737W        W68052  29.363  19.183  13.829
95738W        W68053  23.126  35.351   0.102
95739W        W68054  28.938  37.617  10.170
95740W        W68055  29.227  42.317  14.350
95741W        W68056  26.533  44.046   4.938
95742W        W68057  39.944  14.937  13.741
95743W        W68058  34.400  19.123   3.627
95744W        W68059  23.825   5.926   0.329
95745W        W68060  44.098   9.790   9.475
95746W        W68061  16.610  28.589   3.997
95747W        W68062   6.847  23.691  14.414
95748W        W68063   7.156  22.966   1.917
95749W        W68064  14.456  19.224  13.178
95750W        W68065   3.717  36.049   0.365
95751W        W68066   8.741  10.714   2.869
95752W        W68067  17.363  44.320  13.862
95753W        W68068  30.331  33.066  12.435
95754W        W68069  38.142  37.486   1.959
95755W        W68070   4.424  23.445   4.253
95756W        W68071  31.537  13.723  12.349
95757W        W68072   9.490  23.226   2.624
95758W        W68073   9.319  10.304  11.525
95759W        W68074  12.613  29.911  12.062
95760W        W68075  15.105  41.795  14.926
95761W        W68076  21.293  36.433  14.710
95762W        W68077  13.383   6.972   2.297
95763W        W68078  33.945  33.134   1.373
95764W        W68079   4.513   8.664   4.127
95765W        W68080  41.527  40.518   3.266
95766W        W68081  42.406  39.529   1.313
95767W        W68082   2.242  11.300  12.563
95768W        W68083  18.978   8.886  12.519
95769W        W68084   9.272  22.179   1.967
95770W        W68085  24.100  26.046  12.472
95771W        W68086  36.455  21.550  13.357
95772W        W68087   0.079  20.496   4.748
95773W        W68088  27.911  39.864  13.780
95774W        W68089   4.266  25.647  14.761
95775W        W68090  12.625   5.266  11.610
95776W        W68091   3.405  24.630   4.236
95777W        W68092  15.126  16.042  11.650
95778W        W68093  10.870  16.137   1.642
95779W        W68094  22.540  15.230   4.053
95780W        W68095  40.440  38.294   0.716
95781W        W68096  22.055  12.230   4.580
95782W        W68097  39.113   4.945   4.043
95783W        W68098  10.708   9.809  14.926
95784W        W68099  41.238  40.898   1.177
95785W        W68100  38.527  29.682   3.380
95786W        W68101   5.177  17.077   4.176
95787W        W68102  36.057  19.899   3.621
95788W        W68103  28.357  19.109  13.929
95789W        W68104  21.319  22.425  11.374
95790W        W68105  33.470  37.099   1.885
95791W        W68106  31.065  12.738   3.061
95792W        W68107   6.252  14.874  11.490
95793W        W68108  22.284  43.525  13.289
95794W        W68109   2.794  18.588   1.630
95795W        W68110  20.506  23.809   2.628
95796W        W68111  33.136  16.289  14.460
95797W        W68112  15.999  26.560  10.073
95798W        W68113  34.463  36.757  14.524
95799W        W68114  36.441   0.549  12.900
95800W        W68115  24.082  36.974  14.910
95801W        W68116  22.294   0.255   4.060
95802W        W68117  37.100  31.594   0.922
95803W        W68118  27.303   2.808  11.521
95804W        W68119   3.402  13.560  11.572
95805W        W68120   2.358   1.312  12.090
95806W        W68121  27.478  24.499   2.264
95807W        W68122  38.895  38.856  11.866
95808W        W68123  16.339   9.008  14.263
95809W        W68124   8.930  23.246  11.975
95810W        W68125  29.342  35.656  13.321
95811W        W68126  20.709   4.812   0.719
95812W        W68127  19.156  30.637   3.579
95813W        W68128  11.587  29.920   4.927
95814W        W68129   8.180  34.202  11.740
95815W        W68130  13.144  44.774   2.775
95816W        W68131  23.451  17.665  13.556
95817W        W68132  19.117  27.540   4.783
95818W        W68133  43.938  20.467   1.708
95819W        W68134  29.042   4.162  10.479
95820W        W68135   0.311  33.120  12.686
95821W        W68136  22.554   8.850   1.446
95822W        W68137  15.157   5.599   0.233
95823W        W68138  13.153   6.631   1.424
95824W        W68139  10.094  36.141   0.551
95825W        W68140   9.927  15.670   3.664
95826W        W68141  11.313   8.656   1.215
95827W        W68142  34.533  26.271  12.148
95828W        W68143   1.723  35.800  10.256
95829W        W68144  42.475   5.152  13.000
95830W        W68145  27.546   2.369   2.165
95831W        W68146   7.702  40.310   1.410
95832W        W68147  37.925  17.599   2.022
95833W        W68148  31.356   2.414  13.062
95834W        W68149  17.079  42.475  11.188
95835W        W68150  17.065  27.661   4.637
95836W        W68151   8.460  36.229  14.515
95837W        W68152  18.245   3.806   2.334
95838W        W68153  44.756  12.314   0.472
95839W        W68154   8.757  16.229  10.825
95840W        W68155  24.289  16.669  14.224
95841W        W68156  44.323  36.339  11.588
95842W        W68157  29.014   5.454   1.243
95843W        W68158  21.167  37.719  12.044
95844W        W68159  34.095  32.152   3.231
95845W        W68160   7.948  27.733   2.627
95846W        W68161  18.530   0.010   3.147
95847W        W68162  10.322  43.113   5.114
95848W        W68163   8.880  33.098   0.783
95849W        W68164  12.195  20.100  14.692
95850W        W68165  36.027   9.393   0.776
95851W        W68166  12.232  36.793  11.130
95852W        W68167  26.214  24.084  12.964
95853W        W68168  17.657  38.809  11.455
95854W        W68169   9.609  24.520   4.729
95855W        W68170  25.482  16.123   3.763
95856W        W68171  19.478  20.617  13.980
95857W        W68172  11.405   1.558  10.734
95858W        W68173  31.429  11.763   0.478
95859W        W68174  41.438  19.304  10.736
95860W        W68175  22.259  11.134   1.311
95861W        W68176   7.716   8.670  12.685
95862W        W68177  38.309  25.924  11.013
95863W        W68178  24.676  38.641   4.263
95864W        W68179  15.295  17.143  13.505
95865W        W68180  34.006  35.997  13.395
95866W        W68181  44.458   2.259   0.808
95867W        W68182  32.748  16.940  12.109
95868W        W68183  41.182  42.091  14.301
95869W        W68184  33.814  11.326  12.366
95870W        W68185  10.653  33.847   0.766
95871W        W68186  30.944  28.632  12.138
95872W        W68187   8.482  25.266   0.018
95873W        W68188   0.430  29.293  14.893
95874W        W68189  35.836  30.859  13.010
95875W        W68190  13.132   4.378  13.370
95876W        W68191  42.925  11.584  10.049
95877W        W68192  32.471  22.995   2.220
95878W        W68193   2.129  16.482  11.727
95879W        W68194  21.156  39.973   3.658
95880W        W68195  31.661   7.092  14.971
95881W        W68196  15.283  31.795   3.757
95882W        W68197  33.687  26.184   4.357
95883W        W68198  15.070   1.964  14.095
95884W        W68199   6.115   3.001  11.675
95885W        W68200  32.835  11.434   0.709
95886W        W68201  10.329  22.663  12.748
95887W        W68202  11.658  11.041   0.727
95888W        W68203  20.490  12.750  10.657
95889W        W68204  14.650  34.611   0.321
95890W        W68205  10.119   1.291  12.575
95891W        W68206  28.581  39.883   3.370
95892W        W68207  13.796   2.324   2.238
95893W        W68208  42.507  34.022  13.164
95894W        W68209  34.991  34.770   1.726
95895W        W68210   4.984  22.494   4.490
95896W        W68211  19.106  40.698  11.460
95897W        W68212  26.737  13.872   3.341
95898W        W68213  20.518  30.961   1.132
95899W        W68214   7.406   3.260  13.137
95900W        W68215   2.925  23.557   3.190
95901W        W68216  31.625  34.383   3.635
95902W        W68217  24.138  24.941   3.373
95903W        W68218  24.741  32.655  11.435
95904W        W68219  26.261   7.795   4.172
95905W        W68220  25.060  36.229   0.999
95906W        W68221  34.102  29.376  14.800
95907W        W68222  21.588  18.351  14.999
95908W        W68223  16.117  27.669  14.285
95909W        W68224  42.793  19.371   4.615
95910W        W68225  42.517   3.927   1.298
95911W        W68226  20.240  10.449   2.904
95912W        W68227  21.271  21.588   2.737
95913W        W68228  39.303   9.350  12.092
95914W        W68229   2.981  13.111  12.089
95915W        W68230  12.141   4.247  14.467
95916W        W68231  27.176  34.377  14.046
95917W        W68232  22.744   5.418  14.318
95918W        W68233   3.253  26.518   1.765
95919W        W68234   9.864  36.997   4.648
95920W        W68235   9.891  30.353   0.399
95921W        W68236  17.294  16.774  12.725
95922W        W68237  13.438  29.435  11.626
95923W        W68238   7.891  35.425  12.175
95924W        W68239  38.635  41.291   4.588
95925W        W68240  44.440  27.707  12.370
95926W        W68241  24.025  16.637  11.629
95927W        W68242   4.967  24.803  14.355
95928W        W68243  15.926  23.034  10.558
95929W        W68244  22.273  13.773   1.167
95930W        W68245  20.614   8.082  11.105
95931W        W68246  35.074  25.121  14.862
95932W        W68247  27.843  27.227   2.287
95933W        W68248   4.718   2.285  14.774
95934W        W68249  17.721   4.690  13.013
95935W        W68250   0.744  44.120  12.215
95936W        W68251  14.083  16.337   0.416
95937W        W68252  22.494  23.002  10.643
95938W        W68253   5.402  24.982   2.884
95939W        W68254  15.131   5.174  13.496
95940W        W68255   3.275   6.334   2.755
95941W        W68256   7.386  41.546   3.717
95942W        W68257  44.303  10.659  14.394
95943W        W68258  11.742  12.142   3.071
95944W        W68259  10.409  14.097  12.993
95945W        W68260  25.026   4.601  13.353
95946W        W68261   6.938  29.066   4.107
95947W        W68262  41.861  26.796  12.634
95948W        W68263  37.544  11.346   2.714
95949W        W68264   8.584  23.516   0.498
95950W        W68265  34.606  38.975  10.927
95951W        W68266  18.548  20.641   2.888
95952W        W68267  43.393  20.350   0.853
95953W        W68268  22.776  22.292  13.482
95954W        W68269  23.039  33.899   4.497
95955W        W68270  22.902   3.716   0.429
95956W        W68271  10.201  20.690   3.218
95957W        W68272   7.723  22.021   2.162
95958W        W68273  18.069   4.861  10.712
95959W        W68274  25.560  32.920   2.678
95960W        W68275  34.049  13.783  13.369
95961W        W68276  10.804  16.652   3.559
95962W        W68277  27.697  35.649  11.152
95963W        W68278  39.108  33.122  13.551
95964W        W68279  12.851  23.724  10.775
95965W        W68280  22.194  30.223   2.922
95966W        W68281  12.055  36.867   4.663
95967W        W68282  22.778  31.167   4.202
95968W        W68283   6.754  32.841  12.507
95969W        W68284  44.415  14.837  13.866
95970W        W68285  29.178  33.962   4.086
95971W        W68286  28.538  38.841   3.641
95972W        W68287  11.701  16.011   4.323
95973W        W68288  44.530   1.426   3.886
95974W        W68289  42.031  20.631   2.469
95975W        W68290   8.139  39.029  13.606
95976W        W68291   7.354  40.359   0.290
95977W        W68292  23.247  42.703  14.548
95978W        W68293  30.646  39.878   0.882
95979W        W68294  44.867  33.180  11.542
95980W        W68295  42.356  25.195   0.875
95981W        W68296  14.531  35.852  14.844
95982W        W68297  35.877  13.611   1.832
95983W        W68298  41.518   5.242  12.139
95984W        W68299  36.276  25.285  11.451
95985W        W68300  23.425  41.244   3.100
95986W        W68301  39.837  25.959   4.545
95987W        W68302  19.790  16.749   2.797
95988W        W68303  25.400   1.342  13.848
95989W        W68304  34.596  24.940   1.205
95990W        W68305  39.802  16.011  13.942
95991W        W68306   5.372  26.961  12.821
95992W        W68307  36.601   3.131   1.625
95993W        W68308  18.106  36.696  12.439
95994W        W68309  20.769  41.562   0.442
95995W        W68310  30.864  17.268   2.699
95996W        W68311  39.536  13.571   3.732
95997W        W68312  37.925  38.970  12.062
95998W        W68313   4.972  25.690  13.464
95999W        W68314  17.538  29.457   2.817
96000W        W68315  35.342   2.489   3.693
96001W        W68316  44.793  21.670   0.559
96002W        W68317  15.526  24.968  13.373
96003W        W68318  37.183  38.867  13.245
96004W        W68319  21.175  27.346  11.644
96005W        W68320  30.816  27.416  12.809
96006W        W68321  38.858  13.833  11.595
96007W        W68322  36.653  20.413  11.348
96008W        W68323  27.032  33.450  11.590
96009W        W68324  21.169   3.287   3.292
96010W        W68325  20.516   8.762   0.699
96011W        W68326   7.388   7.235  14.055
96012W        W68327  11.133   3.335  13.410
96013W        W68328   8.269   4.602   1.180
96014W        W68329  24.619  34.869  11.513
96015W        W68330  33.648   4.351   2.432
96016W        W68331  31.648  25.253   4.178
96017W        W68332  11.806  20.535  11.852
96018W        W68333  14.617  26.592   2.247
96019W        W68334  10.554  26.680  12.624
96020W        W68335  27.260  36.655  12.989
96021W        W68336  32.845  20.677   4.958
96022W        W68337  28.412  14.166  13.308
96023W        W68338  24.462   9.203   4.120
96024W        W68339  10.331  19.231  11.554
96025W        W68340  10.807   2.025  13.531
96026W        W68341  19.404  11.335   0.641
96027W        W68342  26.080  43.515   0.917
96028W        W68343  24.324  11.210  11.084
96029W        W68344  42.506   2.969  11.135
96030W        W68345  11.853  16.981  12.723
96031W        W68346  40.124  41.958  14.453
96032W        W68347  43.099  16.530   1.523
96033W        W68348   5.755   9.614  13.399
96034W        W68349  18.343  14.330  14.117
96035W        W68350  22.163   2.215   4.025
96036W        W68351  14.919  32.888  12.461
96037W        W68352  13.372  27.683   0.367
96038W        W68353   3.042  38.067   1.801
96039W        W68354   6.324  22.010  10.538
96040W        W68355  18.578  33.389  12.029
96041W        W68356  20.155  24.950   1.349
96042W        W68357  37.475  19.290   4.676
96043W        W68358  27.721  38.039   1.747
96044W        W68359  15.010  15.656   4.498
96045W        W68360  20.328  40.665  11.553
96046W        W68361  19.381  23.380   3.543
96047W        W68362  42.722  35.431  12.257
96048W        W68363   8.825  33.609  14.738
96049W        W68364   6.291  26.391  11.628
96050W        W68365  44.026  11.914  11.489
96051W        W68366  37.882  20.756  11.065
96052W        W68367   1.273  17.799   0.317
96053W        W68368   1.435  24.198  11.524
96054W        W68369  39.291  37.852  11.109
96055W        W68370  17.799  34.971   3.654
96056W        W68371  16.215  38.496   9.748
96057W        W68372  26.279   1.989  12.621
96058W        W68373  11.862  10.731  10.873
96059W        W68374  16.325  22.647   4.788
96060W        W68375  28.932  27.317   5.115
96061W        W68376   6.475  41.589   2.262
96062W        W68377  36.562  30.641  14.263
96063W        W68378   4.224  30.192  13.473
96064W        W68379  20.120  16.145   3.345
96065W        W68380  14.514  29.510  14.853
96066W        W68381  19.074  30.587   1.586
96067W        W68382  18.731  27.094   1.813
96068W        W68383  11.808   2.252  14.296
96069W        W68384   8.605  13.650  11.698
96070W        W68385  26.964   4.952   4.340
96071W        W68386   9.974  43.530   3.382
96072W        W68387   0.271  42.353  12.350
96073W        W68388  26.365  17.328   4.605
96074W        W68389  10.385  33.491  14.947
96075W        W68390  18.500  40.466  12.561
96076W        W68391   8.376  18.024   2.266
96077W        W68392  20.291   6.444   0.371
96078W        W68393  31.434   8.182   1.347
96079W        W68394  26.006  25.832   2.985
96080W        W68395  29.351  35.569  14.325
96081W        W68396  30.701  15.839   4.652
96082W        W68397  15.813  42.857  12.078
96083W        W68398  42.944  10.412  10.088
96084W        W68399  22.252  42.726   3.209
96085W        W68400  25.786  21.537   2.421
96086W        W68401  26.433   2.062   2.916
96087W        W68402   7.343   2.347   1.676
96088W        W68403  36.280  31.042  13.370
96089W        W68404  18.084   5.787   3.706
96090W        W68405  28.586  24.456  14.303
96091W        W68406  36.299  21.780  13.833
96092W        W68407  15.864  40.981   3.677
96093W        W68408  26.173  44.543   3.678
96094W        W68409  23.030  23.121   0.406
96095W        W68410  25.130  41.079  13.400
96096W        W68411  30.886  15.818  14.940
96097W        W68412   3.808   2.545   3.289
96098W        W68413  30.412  37.426   0.524
96099W        W68414  29.567   0.354   1.182
96100W        W68415  42.135  23.728   4.169
96101W        W68416  41.312  43.305   2.359
96102W        W68417  12.656  41.428  10.605
96103W        W68418  38.804   4.445  12.811
96104W        W68419   6.867  13.793   1.206
96105W        W68420  37.560  16.101  14.325
96106W        W68421  38.921  29.212   4.519
96107W        W68422  35.005   5.263   3.568
96108W        W68423  17.713  24.595   4.843
96109W        W68424   8.675   9.665  12.859
96110W        W68425   0.258  37.300   5.357
96111W        W68426  32.480   1.280  12.523
96112W        W68427  15.294  37.852  14.293
96113W        W68428  10.914   8.758   3.630
96114W        W68429  31.153  34.009   1.962
96115W        W68430   3.808  36.079  12.916
96116W        W68431  33.581   4.755  12.266
96117W        W68432  44.319   9.217   1.931
96118W        W68433   2.645  41.859   2.356
96119W        W68434   6.922  36.277  13.825
96120W        W68435   6.719  35.448  12.599
96121W        W68436  28.158  10.631   3.781
96122W        W68437  20.495   7.389   1.350
96123W        W68438   1.589  26.017  10.740
96124W        W68439  10.760  17.630  11.908
96125W        W68440  29.511  42.525  13.956
96126W        W68441  12.119  32.834  11.178
96127W        W68442  16.719  30.065  12.295
96128W        W68443  25.625  13.964   1.857
96129W        W68444  32.882  39.970  11.048
96130W        W68445  24.236  38.497  10.756
96131W        W68446  34.050   7.778   0.946
96132W        W68447  39.532  21.699   3.352
96133W        W68448  35.036  25.160   1.373
96134W        W68449  19.124   2.431   2.595
96135W        W68450  27.599  13.670   2.369
96136W        W68451  13.750  16.597   3.516
96137W        W68452  39.945   5.837  12.087
96138W        W68453   3.964   9.351  13.976
96139W        W68454  30.993   1.785  11.197
96140W        W68455   7.390  43.622   1.888
96141W        W68456  37.028  40.731   4.396
96142W        W68457   5.849  31.538  13.861
96143W        W68458  14.700  16.266  10.759
96144W        W68459  28.130   5.635   1.196
96145W        W68460  42.633  32.369   5.247
96146W        W68461   6.666   2.206  14.646
96147W        W68462  31.765  40.459   3.810
96148W        W68463  41.726  33.273   9.986
96149W        W68464   0.052  25.160  11.942
96150W        W68465  27.668  21.734   1.688
96151W        W68466   2.600  36.899   2.361
96152W        W68467   0.871   3.696   3.768
96153W        W68468  34.904  39.366   3.258
96154W        W68469  42.392  23.249  10.875
96155W        W68470   4.347  15.226   0.199
96156W        W68471  16.606   6.421  14.735
96157W        W68472  25.133  20.601   0.264
96158W        W68473  24.832  27.870  11.935
96159W        W68474   5.448  14.828  11.108
96160W        W68475  11.723   5.229  14.036
96161W        W68476  10.911  20.510  12.899
96162W        W68477  18.015  31.083   3.342
96163W        W68478  20.250  14.741   3.832
96164W        W68479   4.401  37.014   2.118
96165W        W68480   0.474  26.133  13.281
96166W        W68481  35.070  39.058  12.638
96167W        W68482  37.875  18.714  13.521
96168W        W68483  19.568  25.707   4.225
96169W        W68484   7.005  18.219   1.145
96170W        W68485  30.954  14.896  13.470
96171W        W68486   0.385  28.678  14.796
96172W        W68487  41.887  36.491   0.012
96173W        W68488   0.950  14.814   0.334
96174W        W68489  27.622   0.001   2.881
96175W        W68490  13.744  29.048   3.436
96176W        W68491  25.131   8.312   0.527
96177W        W68492  36.745  42.813   0.487
96178W        W68493  25.411   8.789   4.112
96179W        W68494   5.242   3.286   2.106
96180W        W68495  27.340   1.510   3.394
96181W        W68496  18.046  18.111  12.910
96182W        W68497   4.263  15.064  13.212
96183W        W68498  25.933  32.119   0.902
96184W        W68499  17.627  34.638  12.798
96185W        W68500  27.685   2.991  13.924
96186W        W68501  24.462   1.958   4.067
96187W        W68502  37.587  27.577   4.786
96188W        W68503  39.924  26.155   1.000
96189W        W68504  22.215  20.355  11.458
96190W        W68505  42.875  26.890  10.775
96191W        W68506  13.012  41.899  12.391
96192W        W68507  40.148  12.042   2.608
96193W        W68508   8.310  25.048   4.895
96194W        W68509  25.008  30.350  14.769
96195W        W68510  21.228  17.132   0.341
96196W        W68511  43.014  19.149   1.444
96197W        W68512  35.357  37.121   3.836
96198W        W68513  11.768  14.636  12.009
96199W        W68514   0.310   4.839  14.212
96200W        W68515  10.319  12.888  14.063
96201W        W68516  14.433   2.419   1.273
96202W        W68517  15.132  44.473  11.185
96203W        W68518   4.878   7.637   3.114
96204W        W68519  18.496  41.300  13.301
96205W        W68520  25.048  34.015  13.355
96206W        W68521  33.981  34.387  14.939
96207W        W68522   3.941  19.865  11.502
96208W        W68523  28.350  34.185   5.375
96209W        W68524  29.575   1.204  13.754
96210W        W68525  31.471   4.440  13.474
96211W        W68526  16.459  17.341   4.170
96212W        W68527   4.251  26.499  10.621
96213W        W68528  38.189  41.306   2.754
96214W        W68529  25.188  15.212  14.824
96215W        W68530  37.333   1.801   2.045
96216W        W68531  37.088  19.111   2.853
96217W        W68532  12.218  21.323   2.776
96218W        W68533  16.571   6.887   1.525
96219W        W68534   2.344  39.285   2.774
96220W        W68535  36.518  22.483   1.775
96221W        W68536  14.058  10.711  12.907
96222W        W68537  12.684  15.235  10.948
96223W        W68538   5.043  42.450  11.631
96224W        W68539   5.888  38.980  10.998
96225W        W68540   9.675  41.237   0.267
96226W        W68541  31.892  40.540   4.700
96227W        W68542  39.799  16.106   2.811
96228W        W68543   1.935  23.050   3.832
96229W        W68544  29.004  43.242  13.423
96230W        W68545  24.201  41.200   5.039
96231W        W68546  27.614  19.722   0.785
96232W        W68547   0.047  11.221  11.981
96233W        W68548  11.390   4.802  14.547
96234W        W68549  22.558   9.626  11.193
96235W        W68550  29.653  33.009   4.130
96236W        W68551  18.064  26.098  11.145
96237W        W68552  39.389  33.703  11.643
96238W        W68553   3.415  19.263  11.911
96239W        W68554  37.623  30.495  12.460
96240W        W68555  20.276  44.572  14.330
96241W        W68556  21.647  42.935  13.470
96242W        W68557  26.991  40.437   1.715
96243W        W68558   4.200  23.037  11.999
96244W        W68559  18.167  19.658   2.316
96245W        W68560   4.309  27.572  13.957
96246W        W68561  22.588  32.119   0.041
96247W        W68562  42.442  37.534   4.096
96248W        W68563   8.467  37.985   4.291
96249W        W68564  44.872  37.535   2.184
96250W        W68565  28.550  19.304   1.699
96251W        W68566  43.724   3.725   2.580
96252W        W68567   6.677  14.391  14.757
96253W        W68568  27.132   4.387   1.680
96254W        W68569  41.630  27.521   1.452
96255W        W68570  19.686  29.462   4.378
96256W        W68571   2.254   5.879  12.367
96257W        W68572  21.625  22.899   1.687
96258W        W68573  37.356  43.464   0.435
96259W        W68574  14.818   2.621   2.766
96260W        W68575  29.977   3.678  10.645
96261W        W68576  30.718  18.378  14.214
96262W        W68577  13.146  14.352   3.377
96263W        W68578   1.518  11.039   2.195
96264W        W68579  28.692  30.441  11.224
96265W        W68580  20.674  26.698   3.555
96266W        W68581  37.340   3.471  14.872
96267W        W68582   1.503   2.766   3.354
96268W        W68583  16.081  25.362  12.013
96269W        W68584  16.241  39.301  14.388
96270W        W68585  22.653  11.881   3.588
96271W        W68586  44.342  21.446   2.273
96272W        W68587  30.586  12.800  10.924
96273W        W68588  28.217  15.499  14.576
96274W        W68589   0.841  40.826  13.349
96275W        W68590  21.655  12.655  14.745
96276W        W68591  21.604  15.916   3.753
96277W        W68592   6.780  38.977  10.766
96278W        W68593  18.824  35.039  12.461
96279W        W68594  21.816  16.589   4.118
96280W        W68595  40.703  37.249  13.499
96281W        W68596  22.861   6.288   0.476
96282W        W68597  30.616  17.758   4.281
96283W        W68598  13.024  38.691   2.553
96284W        W68599  29.173  28.998  13.493
96285W        W68600   7.751   8.183   0.486
96286W        W68601  37.447   2.924   0.775
96287W        W68602  25.204  34.387   2.515
96288W        W68603  15.911   4.406  13.065
96289W        W68604  29.416  28.877   4.482
96290W        W68605  24.391  41.881   4.076
96291W        W68606  31.175  28.524   3.325
96292W        W68607  34.476  41.134  12.958
96293W        W68608  25.468   3.930   5.041
96294W        W68609  27.402  44.754   1.361
96295W        W68610  26.994   1.290   2.442
96296W        W68611  11.155  19.197   1.235
96297W        W68612  25.376  16.248  11.257
96298W        W68613  17.250  36.601   2.009
96299W        W68614   0.504  21.045   1.862
96300W        W68615   9.933  12.391  10.695
96301W        W68616  35.967  41.727   4.185
96302W        W68617  31.863  27.147  14.293
96303W        W68618  16.289  16.163   4.909
96304W        W68619  15.313   6.709  11.665
96305W        W68620   2.494  35.722  10.986
96306W        W68621  43.291  40.837   3.786
96307W        W68622  37.263   5.706   2.077
96308W        W68623  41.087  43.556  12.439
96309W        W68624  10.168  23.363   3.644
96310W        W68625  43.504  27.707  12.263
96311W        W68626  25.949   2.247   2.807
96312W        W68627   7.057  42.604  10.426
96313W        W68628  18.074   7.637   2.595
96314W        W68629  41.025  30.429   3.150
96315W        W68630  36.439  10.725   2.742
96316W        W68631  31.054  43.913  13.073
96317W        W68632  26.488   4.746   2.290
96318W        W68633  42.352  31.134  11.518
96319W        W68634  17.578  11.251  14.125
96320W        W68635  11.560  41.056  11.490
96321W        W68636  38.686  29.230   4.051
96322W        W68637   9.259  24.699   2.228
96323W        W68638  25.954  41.440   4.973
96324W        W68639  21.424   5.778   2.434
96325W        W68640  15.080  28.055   5.112
96326W        W68641  17.784   4.863  11.135
96327W        W68642  22.920   5.249  14.790
96328W        W68643  41.447   7.449  10.672
96329W        W68644  17.633  38.588  14.326
96330W        W68645  21.135  24.083  11.578
96331W        W68646  33.652  41.885   2.225
96332W        W68647  38.446  15.841   0.937
96333W        W68648   8.715   0.369   3.324
96334W        W68649  15.874  31.385   3.781
96335W        W68650  17.350  37.476   3.327
96336W        W68651  30.019  18.234   2.203
96337W        W68652   0.317  42.436  10.706
96338W        W68653  28.213  40.821  14.010
96339W        W68654   2.542  26.452   0.317
96340W        W68655   6.928   9.222  13.055
96341W        W68656  28.881  35.403  14.157
96342W        W68657  37.475  18.019   1.901
96343W        W68658   0.311  36.357  11.912
96344W        W68659   3.564  38.993  11.163
96345W        W68660  33.970   2.261  11.509
96346W        W68661  20.909   0.643   4.080
96347W        W68662  29.043  23.041   0.760
96348W        W68663  43.748   8.358   0.832
96349W        W68664  25.772   0.045   1.834
96350W        W68665   9.991  37.647  13.502
96351W        W68666  15.823  12.116  12.413
96352W        W68667  12.838  40.009  11.958
96353W        W68668  33.891  26.973   4.730
96354W        W68669  29.897   7.382   1.957
96355W        W68670  44.914   3.910  12.057
96356W        W68671  27.124  42.287   0.965
96357W        W68672  42.513  10.075  11.653
96358W        W68673   0.653  20.197   0.193
96359W        W68674  24.265  28.582   0.547
96360W        W68675  22.595  42.220   2.459
96361W        W68676  29.185   9.675  13.786
96362W        W68677  42.314  16.320  13.946
96363W        W68678  23.737   0.269   0.105
96364W        W68679   6.430  10.387  10.647
96365W        W68680  43.508  24.193   3.735
96366W        W68681   1.668  10.740   3.211
96367W        W68682   3.209  34.176   4.662
96368W        W68683  40.476  14.300   2.258
96369W        W68684  33.384   7.157  11.142
96370W        W68685  34.058  25.752   3.809
96371W        W68686  31.746  30.890  14.847
96372W        W68687  17.504  42.428  13.649
96373W        W68688  37.999  30.191  13.408
96374W        W68689  39.757  29.540   0.302
96375W        W68690  40.239  15.696  11.624
96376W        W68691  23.711  17.529  11.613
96377W        W68692  13.078  38.616   2.028
96378W        W68693  35.459  40.337  13.895
96379W        W68694  36.419   3.894  12.418
96380W        W68695  11.175  19.634  14.484
96381W        W68696  32.117  39.210   4.624
96382W        W68697  15.540  41.896   4.550
96383W        W68698  10.290   1.535   4.179
96384W        W68699  15.358  14.804  12.041
96385W        W68700  33.996  28.462   2.830
96386W        W68701  27.174  10.773  11.847
96387W        W68702   5.100  31.050   1.235
96388W        W68703  14.055   6.982   1.506
96389W        W68704   2.828  33.471  10.797
96390W        W68705  40.573  36.033   1.720
96391W        W68706  34.585  38.826  13.324
96392W        W68707  22.544  21.508  14.202
96393W        W68708  30.685  17.907   2.923
96394W        W68709  15.864   0.691   0.383
96395W        W68710  38.889  39.825  12.586
96396W        W68711   5.716  22.112   3.620
96397W        W68712  35.419  37.485   4.996
96398W        W68713  40.347  13.797  12.932
96399W        W68714  28.531   5.212  11.612
96400W        W68715  33.839  25.160  14.375
96401W        W68716  18.580   2.207   3.610
96402W        W68717  31.681  29.616   0.440
96403W        W68718  38.247   2.314   2.452
96404W        W68719   1.783  44.846   4.635
96405W        W68720  32.710  44.018   2.931
96406W        W68721   6.187  33.657  11.927
96407W        W68722  26.924  19.495  11.545
96408W        W68723  18.744   1.984  14.539
96409W        W68724  15.814  15.277  10.816
96410W        W68725  25.894  34.589   4.237
96411W        W68726  22.068  20.732   4.473
96412W        W68727  14.138   8.164   2.840
96413W        W68728  44.504  28.511  14.393
96414W        W68729  13.770  37.124   0.214
96415W        W68730   6.760  11.841   0.315
96416W        W68731  44.412  39.131   5.102
96417W        W68732  31.002  40.364   3.204
96418W        W68733  11.668  19.576  10.105
96419W        W68734  27.588  10.238   5.002
96420W        W68735  30.574  10.700  12.135
96421W        W68736  19.134   1.468   3.592
96422W        W68737  17.133   1.223   4.553
96423W        W68738  27.859  39.948  11.018
96424W        W68739  35.519   6.226  14.661
96425W        W68740  20.998   2.881  11.721
96426W        W68741  15.569  16.210   1.452
96427W        W68742   9.175  30.647   5.000
96428W        W68743  30.052  16.818   4.114
96429W        W68744  34.599   4.583   3.656
96430W        W68745  10.350  29.437   1.648
96431W        W68746  19.274   7.971  11.140
96432W        W68747  21.242  41.975  14.813
96433W        W68748   0.188   6.266   4.737
96434W        W68749  27.670   8.440   1.401
96435W        W68750  14.109  44.892  11.918
96436W        W68751  29.313  16.331  13.643
96437W        W68752  39.863   6.237  11.732
96438W        W68753   2.680  36.444  10.686
96439W        W68754  16.713  24.084   0.414
96440W        W68755  42.977  21.208  13.537
96441W        W68756  41.231  42.427   3.849
96442W        W68757  37.486  40.650   1.930
96443W        W68758  27.802  21.147  13.574
96444W        W68759  14.790  33.050   3.647
96445W        W68760  39.367  21.110  10.677
96446W        W68761   7.330  17.049   2.630
96447W        W68762  11.134   8.636   3.179
96448W        W68763   2.942  29.770   1.687
96449W        W68764  30.919  17.973  13.347
96450W        W68765  16.838  14.281  13.477
96451W        W68766   2.206   6.076   1.318
96452W        W68767  35.166  37.959  14.217
96453W        W68768   3.696   0.357  11.392
96454W        W68769   8.421  35.333   0.013
96455W        W68770  21.081  44.977  11.032
96456W        W68771  22.052   8.292   2.164
96457W        W68772  20.538  16.832  12.446
96458W        W68773   1.788  44.749  10.333
96459W        W68774  22.182  38.815  11.524
96460W        W68775   4.775  15.342   4.631
96461W        W68776  36.997   2.212   2.803
96462W        W68777   4.995   3.448  11.624
96463W        W68778  31.398  21.251   0.939
96464W        W68779  44.328  21.248  11.601
96465W        W68780  33.136  25.961   2.362
96466W        W68781  32.445   9.774   0.314
96467W        W68782  26.172  30.791   4.803
96468W        W68783  12.713  18.529  14.276
96469W        W68784  16.212  13.333   0.947
96470W        W68785  41.249  44.984  14.374
96471W        W68786  12.145  39.907   3.846
96472W        W68787  30.678  32.920   1.416
96473W        W68788  10.827  13.722  14.139
96474W        W68789  19.837   4.355   9.782
96475W        W68790  23.216  32.632   3.625
96476W        W68791  10.820  16.233   0.814
96477W        W68792   9.441  30.858  13.486
96478W        W68793   1.835  13.299   1.486
96479W        W68794  18.448  30.129  11.475
96480W        W68795  32.928  38.331  14.460
96481W        W68796  40.358  38.890   1.454
96482W        W68797  43.868  39.604  14.635
96483W        W68798   2.765  44.990  10.680
96484W        W68799   6.356  44.905   2.423
96485W        W68800   2.985  31.283  11.131
96486W        W68801  29.830   0.713   0.810
96487W        W68802  30.367  32.413  14.439
96488W        W68803  16.300  16.471  10.581
96489W        W68804  18.781  20.582  12.869
96490W        W68805  38.418   3.755  11.559
96491W        W68806  41.327  37.875   0.456
96492W        W68807  28.395   7.227  13.075
96493W        W68808  30.971  10.771  13.109
96494W        W68809  15.851  42.940  10.768
96495W        W68810  26.934  33.475   4.976
96496W        W68811  20.304  23.786   3.666
96497W        W68812  37.540  32.369  13.855
96498W        W68813  34.851   8.487  11.032
96499W        W68814  33.467  25.524   1.269
96500W        W68815  27.697  11.249  11.151
96501W        W68816  30.905  14.360   1.446
96502W        W68817  14.632  29.993  14.050
96503W        W68818  35.870  13.789   4.479
96504W        W68819  31.357   7.350  14.625
96505W        W68820  16.219  26.418  11.723
96506W        W68821  34.036   4.321  10.573
96507W        W68822  13.767  38.379  11.868
96508W        W68823  27.162  42.847   3.660
96509W        W68824   8.668   7.257  14.421
96510W        W68825  27.701   5.218  11.130
96511W        W68826  39.181   2.334   2.196
96512W        W68827  23.184  23.227  12.958
96513W        W68828  43.699  11.810  13.308
96514W        W68829  36.575  35.377  11.553
96515W        W68830  19.184  28.680   3.278
96516W        W68831   8.624  39.991  14.926
96517W        W68832  27.264   9.509   0.820
96518W        W68833  30.432  34.132  13.097
96519W        W68834  28.474  14.085  14.734
96520W        W68835  44.319  18.703  11.504
96521W        W68836  23.486   1.519  13.420
96522W        W68837  35.859  10.291  10.487
96523W        W68838  26.066   7.446   2.411
96524W        W68839   5.469  18.455  10.825
96525W        W68840  30.169  16.641   0.372
96526W        W68841  42.851  26.477   0.402
96527W        W68842  27.036  44.846  12.006
96528W        W68843  29.150  16.419   2.747
96529W        W68844  31.492  20.819  12.574
96530W        W68845  17.759  10.230  10.950
96531W        W68846   8.705  26.497   3.621
96532W        W68847  31.581  11.387  14.202
96533W        W68848   8.352  35.862   2.953
96534W        W68849  25.734   7.210   1.225
96535W        W68850  25.719  34.478  12.888
96536W        W68851  43.802  15.355   2.774
96537W        W68852  40.622  13.205   4.315
96538W        W68853  21.073  20.714  13.545
96539W        W68854  40.960  38.851   3.128
96540W        W68855  14.279   4.418   4.269
96541W        W68856  39.556  18.966  14.933
96542W        W68857  23.837  10.415   3.148
96543W        W68858   9.907  11.274   2.778
96544W        W68859   0.742  39.079   1.251
96545W        W68860   3.288  30.891  13.983
96546W        W68861   7.876   2.239  14.404
96547W        W68862  16.585  41.815  11.605
96548W        W68863  11.599  10.519   2.634
96549W        W68864  14.698  30.802  13.492
96550W        W68865  31.655  15.458   3.698
96551W        W68866  29.004  12.735   1.815
96552W        W68867  14.454   3.906   4.140
96553W        W68868  38.787  39.522   0.281
96554W        W68869  32.154  19.724   0.101
96555W        W68870  39.500  10.673   1.534
96556W        W68871  32.069  22.557  11.983
96557W        W68872  16.901  27.987  10.795
96558W        W68873  26.121  41.083   2.390
96559W        W68874   3.115  20.008   0.270
96560W        W68875  10.713   5.419   0.850
96561W        W68876  44.144  44.029   2.209
96562W        W68877  26.294   6.680   0.309
96563W        W68878  19.750  27.905   2.356
96564W        W68879  34.676  18.532  14.436
96565W        W68880  12.195  31.532   2.643
96566W        W68881  25.612   7.714   2.378
96567W        W68882  11.527  39.931   2.693
96568W        W68883  27.244  13.111  11.427
96569W        W68884  27.960  28.634  12.940
96570W        W68885  26.916   1.259   1.894
96571W        W68886  28.420   9.678   1.789
96572W        W68887  31.539   3.624  12.964
96573W        W68888   0.397  28.879   3.382
96574W        W68889  17.330  42.730   9.644
96575W        W68890  29.289   5.870   1.828
96576W        W68891  36.663  19.184  10.365
96577W        W68892  27.061  28.374  14.630
96578W        W68893  13.722  34.071  10.896
96579W        W68894  23.678  40.167  13.456
96580W        W68895  40.070  42.346  14.846
96581W        W68896   3.673   8.867  13.960
96582W        W68897   9.389  39.261   4.337
96583W        W68898   8.420   7.133   3.618
96584W        W68899  16.570  33.414  11.328
96585W        W68900  39.438  41.083   4.709
96586W        W68901  13.893   9.613  12.513
96587W        W68902  26.255  35.925  10.927
96588W        W68903  29.528  16.775  12.066
96589W        W68904  24.693  32.702  13.500
96590W        W68905  33.612  39.948   0.347
96591W        W68906   6.195  15.036   0.446
96592W        W68907  15.700  36.912   0.783
96593W        W68908  19.695  29.394  13.985
96594W        W68909  10.270  16.837   9.846
96595W        W68910  11.121  18.893  11.916
96596W        W68911  28.723  37.427   4.379
96597W        W68912  28.251  14.875   4.184
96598W        W68913   3.700  22.794   4.859
96599W        W68914  26.346  10.339  10.609
96600W        W68915   1.615  25.306   2.372
96601W        W68916   5.404  11.597   4.074
96602W        W68917  11.916   6.097   0.937
96603W        W68918  12.620   3.422  13.191
96604W        W68919  11.659  26.150   4.124
96605W        W68920  11.415   8.691   3.613
96606W        W68921  21.036   4.283   2.153
96607W        W68922   2.798   3.439   3.307
96608W        W68923   2.193  27.707  11.038
96609W        W68924   4.346  33.597   3.797
96610W        W68925  41.867  29.137  13.379
96611W        W68926  21.952  18.238  13.142
96612W        W68927  14.323  24.694  11.978
96613W        W68928  28.560  26.776   1.926
96614W        W68929   4.482  31.555   4.355
96615W        W68930  31.367  21.975   2.187
96616W        W68931   4.905   0.730   0.653
96617W        W68932  33.451  21.556   2.013
96618W        W68933   9.692  24.099  11.651
96619W        W68934  31.478  11.794   4.019
96620W        W68935  12.150  31.108   1.443
96621W        W68936   0.938  42.659  12.916
96622W        W68937   4.695  39.426   2.889
96623W        W68938  25.097  16.532   0.449
96624W        W68939  34.973  19.143   4.352
96625W        W68940   5.957  16.262  12.498
96626W        W68941  28.354   9.488  12.627
96627W        W68942  33.424   7.323  13.426
96628W        W68943  20.757  27.192   4.671
96629W        W68944   9.826   6.883  14.248
96630W        W68945  29.603  30.487  11.736
96631W        W68946  25.584   0.203  13.319
96632W        W68947  15.102  20.595   0.188
96633W        W68948   7.971  40.774   1.471
96634W        W68949   5.419  44.577   0.940
96635W        W68950  22.165  38.415  13.538
96636W        W68951  41.327  42.450   0.194
96637W        W68952   9.632   9.886  12.506
96638W        W68953   6.997  38.384  12.087
96639W        W68954  40.795  18.790  12.232
96640W        W68955  25.174  42.436  14.307
96641W        W68956  15.003   3.376   2.386
96642W        W68957  31.460  24.177   1.927
96643W        W68958   1.966  21.870  11.540
96644W        W68959  44.842  25.161  10.670
96645W        W68960   0.476  24.220  14.963
96646W        W68961  37.149  43.458   2.666
96647W        W68962  22.779  27.098   2.350
96648W        W68963  24.217  42.558   2.262
96649W        W68964   6.320  16.894   1.911
96650W        W68965   6.378  25.819   2.906
96651W        W68966  44.526  22.749  11.446
96652W        W68967   3.189  38.067  11.154
96653W        W68968  42.811  23.653  14.515
96654W        W68969  21.516  13.562   2.390
96655W        W68970  10.628  11.906  13.938
96656W        W68971  27.020  34.931  14.947
96657W        W68972   4.358  21.486  13.764
96658W        W68973  14.686  22.105  14.702
96659W        W68974  28.480  13.083  14.861
96660W        W68975  41.386  12.051   3.805
96661W        W68976  24.710  30.162  14.272
96662W        W68977   6.311  29.904  14.386
96663W        W68978  34.254  22.613   4.176
96664W        W68979  43.948  27.257   3.229
96665W        W68980  38.415  18.522   0.417
96666W        W68981  29.055  27.190   4.195
96667W        W68982  37.347  27.430   2.792
96668W        W68983  34.020  15.782   0.238
96669W        W68984  32.040  22.008  14.841
96670W        W68985  14.165  39.064   1.368
96671W        W68986  10.519  40.843  11.481
96672W        W68987  13.334  24.696  11.235
96673W        W68988  20.100   6.287  14.931
96674W        W68989  26.761  41.805   0.026
96675W        W68990  37.997  20.607  13.318
96676W        W68991   4.393   9.202  11.155
96677W        W68992  20.674  13.614  14.601
96678W        W68993  16.846  19.791  13.901
96679W        W68994   3.946  14.242  13.799
96680W        W68995  44.679   8.008  13.940
96681W        W68996  15.020  36.983   1.100
96682W        W68997  25.315  37.044   1.704
96683W        W68998   5.709  27.599   4.156
96684W        W68999  40.437  10.574   0.989
96685W        W69000   6.765  23.554  13.042
96686W        W69001  13.720  30.054   5.050
96687W        W69002  36.903  14.644  14.835
96688W        W69003  38.850  16.701   0.885
96689W        W69004  38.618  27.060  11.172
96690W        W69005  20.359  21.635  11.188
96691W        W69006  19.818   4.796   2.419
96692W        W69007  24.981  11.656   4.574
96693W        W69008  40.467  26.596  13.423
96694W        W69009   0.736  17.165  14.065
96695W        W69010   9.932   8.269   2.731
96696W        W69011   4.969  16.168   2.138
96697W        W69012   8.731  31.298  12.493
96698W        W69013  28.887  31.799   2.385
96699W        W69014  13.815  33.433  12.942
96700W        W69015  31.378  37.360  14.754
96701W        W69016   0.785  29.972  14.311
96702W        W69017  34.723   8.688   4.049
96703W        W69018  32.498  37.728   1.385
96704W        W69019  38.503  40.281  12.984
96705W        W69020  43.019  24.083   0.619
96706W        W69021   6.843  43.415  10.472
96707W        W69022  24.523   4.017  11.489
96708W        W69023  19.608  19.631  12.056
96709W        W69024  28.519  24.182  11.735
96710W        W69025   1.251  32.009   2.945
96711W        W69026  10.477  21.220   1.284
96712W        W69027  22.297  28.934   2.467
96713W        W69028  26.716  42.144   1.774
96714W        W69029   3.458   7.441   5.031
96715W        W69030  23.473   1.287  12.967
96716W        W69031  38.403  32.412   3.739
96717W        W69032  14.081  15.827  11.110
96718W        W69033  31.567  41.076   1.904
96719W        W69034  44.881  31.214   2.290
96720W        W69035  14.572  31.549   2.180
96721W        W69036  16.382  13.894  12.434
96722W        W69037  32.666  40.051   2.273
96723W        W69038  23.741  14.306  14.395
96724W        W69039  37.253  18.518  12.555
96725W        W69040  20.642  21.983  14.381
96726W        W69041  33.147  33.663  13.403
96727W        W69042  20.079  18.324   1.750
96728W        W69043  21.619  39.404  12.417
96729W        W69044  15.263  24.999   3.245
96730W        W69045   0.666   0.391   4.623
96731W        W69046   2.928  36.065  10.934
96732W        W69047  44.004  19.296  12.599
96733W        W69048  14.201  42.860   3.692
96734W        W69049  30.442  25.448  13.353
96735W        W69050   4.475  43.370  13.419
96736W        W69051  19.132  24.578  14.212
96737W        W69052  12.628  17.414   4.106
96738W        W69053   4.213  24.522   0.966
96739W        W69054   2.270  43.938   4.631
96740W        W69055  31.388  41.055  12.295
96741W        W69056  41.703  18.746   2.210
96742W        W69057  43.589  37.575  11.193
96743W        W69058  37.599  14.639  12.942
96744W        W69059  42.098   4.916  11.530
96745W        W69060  25.759  40.639  13.168
96746W        W69061  39.426  12.363  12.081
96747W        W69062  27.104  11.217  12.128
96748W        W69063  13.206  11.231   2.286
96749W        W69064  17.175  25.537  14.046
96750W        W69065  28.518  15.881  14.411
96751W        W69066  18.112  18.221  11.168
96752W        W69067  40.901  40.235  13.111
96753W        W69068  14.698  32.464  12.655
96754W        W69069  42.856  23.805  12.498
96755W        W69070  41.519  15.446   3.707
96756W        W69071  41.058  39.506   3.614
96757W        W69072  33.121  29.973  11.375
96758W        W69073  28.453  44.158  12.656
96759W        W69074  15.716  31.891   1.492
96760W        W69075  27.835   1.787  11.741
96761W        W69076  11.613  22.094  12.578
96762W        W69077  12.727   5.196  12.116
96763W        W69078  33.097  16.202   1.187
96764W        W69079  18.716   6.001  11.151
96765W        W69080  35.653  27.576   1.691
96766W        W69081  20.980  26.877  11.607
96767W        W69082   4.697  20.039  14.801
96768W        W69083  32.671  35.809   2.725
96769W        W69084  11.577  32.927  14.732
96770W        W69085  18.624  40.379  12.059
96771W        W69086  35.893   8.803  10.535
96772W        W69087  20.671  37.365   3.089
96773W        W69088   5.842  12.289   0.685
96774W        W69089  31.523   3.395   0.503
96775W        W69090   2.423  12.746   4.530
96776W        W69091  11.084   6.370   3.799
96777W        W69092  15.254   6.074   0.428
96778W        W69093  40.873  28.575  12.876
96779W        W69094  29.826  15.696  13.099
96780W        W69095  24.563  26.137   4.087
96781W        W69096  24.489  17.987   3.224
96782W        W69097  43.495   2.939   2.176
96783W        W69098  10.685  27.479   2.427
96784W        W69099  39.107  40.902  11.516
96785W        W69100  44.514  30.648  12.917
96786W        W69101  25.457  20.554   4.118
96787W        W69102  43.109  34.888  12.841
96788W        W69103  26.995  38.010  13.903
96789W        W69104   7.418  15.107  13.338
96790W        W69105  18.601  10.598  11.441
96791W        W69106   7.308   9.776  14.839
96792W        W69107   7.372  19.259   3.121
96793W        W69108  36.167  25.289  10.815
96794W        W69109  17.554  34.545   0.423
96795W        W69110  21.974   8.735  13.136
96796W        W69111  40.408   1.782  12.434
96797W        W69112  25.601  11.007   1.614
96798W        W69113  26.686  43.806  12.383
96799W        W69114  17.624  20.345  13.066
96800W        W69115  41.533  44.349  11.442
96801W        W69116  38.510  16.667   4.967
96802W        W69117   4.298  14.667  10.732
96803W        W69118  15.146  14.281   1.270
96804W        W69119  41.489  24.530   4.495
96805W        W69120  20.287   4.388   1.722
96806W        W69121  38.589  40.589  13.441
96807W        W69122  12.849  36.991   0.298
96808W        W69123  10.429   7.368   4.095
96809W        W69124  39.172  15.041  11.226
96810W        W69125   0.851  15.206  12.790
96811W        W69126  44.466  16.810  10.674
96812W        W69127  27.208  24.602  11.191
96813W        W69128  11.854  33.440  11.899
96814W        W69129  10.267  23.898   2.355
96815W        W69130  41.348  36.480   0.694
96816W        W69131  35.553  11.103   2.625
96817W        W69132  36.600  23.115  13.860
96818W        W69133  42.092  38.947   1.763
96819W        W69134  41.854  27.022   1.295
96820W        W69135   6.752  27.709   2.781
96821W        W69136  16.051   0.246  14.562
96822W        W69137  22.176  16.438   3.107
96823W        W69138  44.539  26.905  10.190
96824W        W69139  37.448  21.212   1.265
96825W        W69140  39.055   9.622  13.877
96826W        W69141  35.161  18.560   3.692
96827W        W69142  23.947  27.830   1.006
96828W        W69143   0.406  13.179  14.752
96829W        W69144   7.642   5.978  13.447
96830W        W69145  14.819   8.563  13.833
96831W        W69146  40.590  21.149  12.833
96832W        W69147   9.250  18.797  12.095
96833W        W69148  35.855  38.578   1.142
96834W        W69149  20.651  22.486   1.833
96835W        W69150   9.401  41.573  10.715
96836W        W69151   7.135   1.107   3.908
96837W        W69152  34.840  18.287   0.222
96838W        W69153  38.895   8.682  12.524
96839W        W69154  13.763  20.828   3.747
96840W        W69155  31.105  19.235   0.078
96841W        W69156  34.395   8.243   0.877
96842W        W69157  18.293  40.427  13.524
96843W        W69158   4.945  18.080   2.170
96844W        W69159  30.989  38.945  12.103
96845W        W69160  37.893  30.101   3.435
96846W        W69161  11.571  40.328  12.070
96847W        W69162  40.027  37.588  11.840
96848W        W69163  17.594  44.359   2.645
96849W        W69164  40.414  40.488  12.933
96850W        W69165   4.142  19.821  10.451
96851W        W69166  20.780  41.841  13.400
96852W        W69167  39.685  43.456   2.205
96853W        W69168  15.366   1.429  13.013
96854W        W69169  20.340  27.055   2.730
96855W        W69170  31.088  37.469  13.784
96856W        W69171   4.362   0.902  14.907
96857W        W69172  11.949  38.955  10.698
96858W        W69173   8.879  30.512   0.236
96859W        W69174   7.926  21.331   4.965
96860W        W69175  43.865  22.933  13.596
96861W        W69176  10.298  36.089  11.154
96862W        W69177  10.404  17.740   0.901
96863W        W69178  21.763  29.886   1.628
96864W        W69179  39.907  40.299  11.385
96865W        W69180  39.253  42.101  13.861
96866W        W69181  36.800  34.821   2.317
96867W        W69182   3.633  42.389  14.947
96868W        W69183   0.186  25.232  13.932
96869W        W69184   0.040   5.345   3.897
96870W        W69185  30.028  10.290  11.680
96871W        W69186  33.481   8.939  13.526
96872W        W69187   1.750  43.552   0.526
96873W        W69188  35.570  11.398   4.531
96874W        W69189   5.898  26.894   2.082
96875W        W69190  18.048   0.681  10.958
96876W        W69191   8.337  26.763  13.272
96877W        W69192  35.787  22.719  13.831
96878W        W69193  32.217  43.960   2.779
96879W        W69194  16.364  21.121   2.699
96880W        W69195  39.116  42.057   3.762
96881W        W69196   2.873   0.215   4.433
96882W        W69197  26.040  24.049   3.812
96883W        W69198   6.287  34.575   5.012
96884W        W69199  23.669  27.169  13.045
96885W        W69200  42.309  22.807   1.756
96886W        W69201  16.106  13.170  14.021
96887W        W69202   0.406  12.620  13.478
96888W        W69203  14.250  23.662   4.651
96889W        W69204  17.630   0.764  13.997
96890W        W69205  10.145  22.614   1.900
96891W        W69206  13.848  35.834  10.994
96892W        W69207  38.880  12.140  10.865
96893W        W69208  32.187   6.190  11.089
96894W        W69209   3.276  25.166   4.131
96895W        W69210  39.297  27.045   4.181
96896W        W69211  27.964  10.147   1.465
96897W        W69212  32.607  32.928   1.725
96898W        W69213   5.373  30.545  14.457
96899W        W69214  18.260  41.099   2.290
96900W        W69215   6.289  25.510  14.328
96901W        W69216   5.726  19.340   4.048
96902W        W69217  17.693  21.187   0.168
96903W        W69218  10.166  36.963  12.816
96904W        W69219  16.111   1.240  14.484
96905W        W69220  39.973  28.552  13.151
96906W        W69221   6.367  37.013   1.907
96907W        W69222  29.074  21.010  11.481
96908W        W69223   9.652  31.077  10.928
96909W        W69224  18.227  26.896  12.955
96910W        W69225  30.597   6.177  11.726
96911W        W69226  43.384  44.622   3.213
96912W        W69227  16.235  17.065  10.753
96913W        W69228  39.852   2.517   2.657
96914W        W69229  36.396  27.615   2.389
96915W        W69230  28.498  19.685   3.797
96916W        W69231  35.538  14.237  12.654
96917W        W69232   2.940  39.429   4.597
96918W        W69233  32.823   4.222   2.375
96919W        W69234  24.065  37.055  14.078
96920W        W69235  20.545   2.670  11.509
96921W        W69236   1.447  36.128   4.992
96922W        W69237  34.110  27.029  10.410
96923W        W69238  12.806  14.108   0.567
96924W        W69239  30.525  31.979   4.182
96925W        W69240   7.662  26.631   4.542
96926W        W69241  40.592  24.249  12.427
96927W        W69242   7.294  27.935  11.936
96928W        W69243  31.488   7.761  11.672
96929W        W69244  18.152  11.863  11.101
96930W        W69245  40.434  19.852   5.284
96931W        W69246  29.730  37.463  10.523
96932W        W69247  33.508   0.742   0.271
96933W        W69248   8.545  28.960  14.509
96934W        W69249  44.182   1.163   4.177
96935W        W69250   1.294  16.634   0.407
96936W        W69251  43.219  11.664  11.744
96937W        W69252  14.580  20.384  14.558
96938W        W69253  20.716  40.238   3.092
96939W        W69254  17.165  27.297   5.509
96940W        W69255  28.497  24.874   4.297
96941W        W69256  28.052  39.898   2.205
96942W        W69257   2.652  43.691   4.280
96943W        W69258  26.999  37.730   1.281
96944W        W69259   9.137  39.889  14.797
96945W        W69260  34.772   8.656  12.363
96946W        W69261  10.287   1.660  11.199
96947W        W69262   4.914  40.400  14.320
96948W        W69263  22.981  38.464  13.836
96949W        W69264  13.101  38.405  11.146
96950W        W69265  29.157   9.826   0.215
96951W        W69266   4.770   3.351  12.853
96952W        W69267  10.631  42.229  12.943
96953W        W69268  18.223   7.451   3.866
96954W        W69269  25.486  20.939   3.153
96955W        W69270  29.510  23.508   0.245
96956W        W69271  29.857  17.274   0.928
96957W        W69272   8.386  35.688   0.981
96958W        W69273  22.426  19.038   1.413
96959W        W69274  17.544  36.387   4.664
96960W        W69275  23.966  42.911   4.551
96961W        W69276   7.977  21.938  11.477
96962W        W69277  28.608  21.253  11.981
96963W        W69278   9.604  43.701   0.449
96964W        W69279   2.794  13.536  12.934
96965W        W69280  38.854  18.764  11.501
96966W        W69281   2.268  28.757   1.496
96967W        W69282   3.848  34.854   2.229
96968W        W69283  14.717  17.053  14.431
96969W        W69284  24.746  25.828   0.011
96970W        W69285  43.812  12.945   0.781
96971W        W69286  41.051   8.384  11.633
96972W        W69287  42.407   1.087   3.059
96973W        W69288  39.711   8.956   3.641
96974W        W69289  28.547  22.248  11.185
96975W        W69290  36.333  25.089  13.102
96976W        W69291  35.007  37.860   3.340
96977W        W69292   3.003   7.805   3.623
96978W        W69293  12.704  38.395   0.372
96979W        W69294  10.144   7.255  13.530
96980W        W69295  23.019  28.457   2.663
96981W        W69296   4.308  11.245   3.427
96982W        W69297  36.502  42.445  13.706
96983W        W69298  27.949  11.689   9.989
96984W        W69299  29.901  13.219   3.194
96985W        W69300  18.135  38.713  14.387
96986W        W69301   4.189  27.727   4.227
96987W        W69302  43.276  26.546  11.605
96988W        W69303  24.098  30.897  13.390
96989W        W69304  38.881  26.449  14.455
96990W        W69305  37.337  33.830   2.628
96991W        W69306  12.365  36.321  13.957
96992W        W69307  31.101  20.842  14.107
96993W        W69308  20.252  39.800  11.608
96994W        W69309   6.714   2.844  12.940
96995W        W69310  21.925  40.530   4.879
96996W        W69311  15.162   6.019  13.126
96997W        W69312  12.846  16.332  14.018
96998W        W69313  34.344  31.108   2.084
96999W        W69314  23.971   2.463  13.927
97000W        W69315  23.691  34.908   3.949
97001W        W69316  11.507  41.378   0.424
97002W        W69317  15.110  27.431   4.333
97003W        W69318  43.276  12.149   3.280
97004W        W69319  31.410  19.061  11.952
97005W        W69320  29.699  24.132   4.128
97006W        W69321  40.835  34.127   2.357
97007W        W69322  34.853  28.664  14.914
97008W        W69323  13.164  26.064  12.539
97009W        W69324  10.728  33.937   3.017
97010W        W69325  16.454  41.373  13.868
97011W        W69326  23.534  31.115   1.382
97012W        W69327  34.425  36.934  13.485
97013W        W69328  22.706   9.565  13.397
97014W        W69329   7.695  34.383   0.816
97015W        W69330  36.917  26.651   2.849
97016W        W69331  38.798  33.980   1.441
97017W        W69332  39.712   0.332   2.259
97018W        W69333  23.012  27.489   2.675
97019W        W69334  32.110  26.750   3.085
97020W        W69335  37.878  27.111   0.633
97021W        W69336   7.358  36.473  12.114
97022W        W69337   2.918  30.547   1.890
97023W        W69338  39.239  21.812   4.150
97024W        W69339   5.352  22.246  13.901
97025W        W69340  15.754   9.612  13.357
97026W        W69341  16.152   9.651   2.270
97027W        W69342  40.805  29.613  11.615
97028W        W69343  26.297  35.722   4.650
97029W        W69344  12.355  14.607  11.290
97030W        W69345  39.166   8.893   3.516
97031W        W69346  40.952  26.186   4.203
97032W        W69347   0.393  16.979  13.009
97033W        W69348  19.500  38.469   4.604
97034W        W69349   4.960   9.079   1.336
97035W        W69350  18.459  38.523   3.764
97036W        W69351  37.364   4.000   3.553
97037W        W69352   5.552  20.160  12.559
97038W        W69353  27.515  22.467   1.077
97039W        W69354  29.222   9.129  10.624
97040W        W69355  17.688  41.268  12.952
97041W        W69356  23.039  29.377   0.871
97042W        W69357  40.581  42.385   4.581
97043W        W69358  12.145  39.340  11.402
97044W        W69359  40.871  42.601  10.740
97045W        W69360  28.086  44.695   1.918
97046W        W69361  41.272  20.170   2.397
97047W        W69362   7.450   6.600   0.345
97048W        W69363  30.655   5.307  10.802
97049W        W69364   1.805   4.958   0.376
97050W        W69365   6.218  15.866   4.415
97051W        W69366  22.072  35.115   4.646
97052W        W69367  17.574  11.394  11.658
97053W        W69368  23.943  32.420   1.538
97054W        W69369   2.282   3.893  13.207
97055W        W69370   7.179  33.651   4.385
97056W        W69371  38.216  28.517  11.265
97057W        W69372   4.840  19.080   3.364
97058W        W69373  33.983  44.745   2.886
97059W        W69374   6.985  16.064  11.139
97060W        W69375  33.172  23.128   2.837
97061W        W69376   0.627  19.510  12.597
97062W        W69377  28.126  10.800  13.500
97063W        W69378  29.865  42.842   1.736
97064W        W69379  11.803   9.868   4.553
97065W        W69380  33.568  22.298  12.620
97066W        W69381  33.048  44.402  10.586
97067W        W69382  25.909  31.900  11.512
97068W        W69383  12.641  12.095   2.409
97069W        W69384  33.098  22.958  11.448
97070W        W69385  15.343  40.349   0.802
97071W        W69386  35.026  39.814  12.112
97072W        W69387  16.277  30.903  10.139
97073W        W69388  23.180  25.158  12.083
97074W        W69389  37.964   4.356  11.874
97075W        W69390  26.031  30.780   1.547
97076W        W69391  44.226  16.067  10.566
97077W        W69392  34.490  41.044  14.442
97078W        W69393  37.422  43.738   1.292
97079W        W69394  31.143  30.039   0.078
97080W        W69395  32.092  25.162   2.241
97081W        W69396   6.798  43.819   4.256
97082W        W69397  24.585  44.371   1.732
97083W        W69398  37.040  31.424  10.687
97084W        W69399  38.922  27.562   3.233
97085W        W69400  10.746  14.588   1.185
97086W        W69401  20.217  14.888  11.069
97087W        W69402  39.810  13.409   0.720
97088W        W69403   5.002  30.244  12.048
97089W        W69404   1.889  12.720  11.563
97090W        W69405   6.748   2.851   2.301
97091W        W69406  14.065   4.778  14.062
97092W        W69407  26.779  44.499   2.436
97093W        W69408   8.658   4.146  11.607
97094W        W69409  29.220  19.304   1.892
97095W        W69410  30.594  17.384  14.290
97096W        W69411  17.332  26.723   1.448
97097W        W69412  22.850   6.830   2.258
97098W        W69413  22.230  19.771   1.748
97099W        W69414   0.702  40.610  12.525
97100W        W69415  27.624   4.437  14.485
97101W        W69416  11.075  13.989   3.659
97102W        W69417  30.875   1.702   1.304
97103W        W69418  41.168  31.094  13.737
97104W        W69419  43.352   2.231  13.924
97105W        W69420  22.692   6.849   3.250
97106W        W69421   1.866  11.472  11.092
97107W        W69422  22.096   4.484   2.332
97108W        W69423  15.278  20.428   4.844
97109W        W69424  41.969  22.562   0.824
97110W        W69425  25.283  27.003   3.308
97111W        W69426  41.546  27.947  11.064
97112W        W69427  19.457  12.729  12.368
97113W        W69428  38.893   3.671   4.601
97114W        W69429  29.179  26.452   1.784
97115W        W69430  35.127   3.498  14.331
97116W        W69431  26.517  33.373   0.415
97117W        W69432   5.852   4.963   1.922
97118W        W69433   8.341   1.332  14.086
97119W        W69434  35.531   7.317   0.755
97120W        W69435  10.164  20.227   4.068
97121W        W69436   9.676  32.517   2.195
97122W        W69437  20.178   0.952   5.094
97123W        W69438  19.275  20.147   3.582
97124W        W69439   4.295  22.526   2.767
97125W        W69440   5.687  14.008  12.023
97126W        W69441  39.327   8.712   2.421
97127W        W69442   3.518  16.865   3.738
97128W        W69443  23.008  25.491  12.979
97129W        W69444   6.193   9.299  11.648
97130W        W69445   0.672  36.197   4.015
97131W        W69446  12.840  26.634   3.199
97132W        W69447  21.082  24.741   1.718
97133W        W69448  21.297  40.822   0.012
97134W        W69449   9.897  24.497  12.925
97135W        W69450  40.956   2.395   4.173
97136W        W69451  32.134  10.160   1.676
97137W        W69452   7.269  19.793  14.488
97138W        W69453  18.504   7.366   0.717
97139W        W69454   0.954  40.609   0.431
97140W        W69455  40.195  43.227   0.669
97141W        W69456  31.663  28.030  12.573
97142W        W69457   2.752  22.493  13.001
97143W        W69458  24.589   9.726   2.420
97144W        W69459  41.801  33.670   0.392
97145W        W69460   7.308  22.000  14.790
97146W        W69461   4.665  10.215   2.805
97147W        W69462  31.607  30.577   4.690
97148W        W69463   3.153  12.025  11.658
97149W        W69464  24.056   1.806   3.714
97150W        W69465   0.264  22.678  14.560
97151W        W69466  10.747   3.769  14.738
97152W        W69467  20.542  15.749   0.516
97153W        W69468  40.358  13.557   4.076
97154W        W69469  32.011   2.975   2.413
97155W        W69470  15.751  12.892  12.978
97156W        W69471  32.860  12.516   4.148
97157W        W69472  26.566  28.789   2.792
97158W        W69473  29.998  12.126  12.613
97159W        W69474  13.764  17.145  14.307
97160W        W69475  20.217  12.059  11.164
97161W        W69476  21.163  33.979  11.686
97162W        W69477  26.859  39.493  13.006
97163W        W69478  44.371  22.022   4.259
97164W        W69479   2.575  21.232   2.833
97165W        W69480  24.371  30.003   1.400
97166W        W69481   1.011  27.536  14.568
97167W        W69482   5.947  41.312   4.134
97168W        W69483  13.090  31.968  13.069
97169W        W69484   0.001  27.521   3.307
97170W        W69485  26.064   0.477  12.494
97171W        W69486  15.835  17.585   0.858
97172W        W69487  36.772  22.990   2.395
97173W        W69488  23.111  31.285   3.105
97174W        W69489  16.824  36.563  13.470
97175W        W69490  27.962   6.858   0.878
97176W        W69491  42.352  35.032  12.634
97177W        W69492  12.845  24.039  14.445
97178W        W69493  44.772  24.259  11.983
97179W        W69494  35.654  26.662   0.884
97180W        W69495  24.027  11.774   3.687
97181W        W69496  15.212   9.074   2.222
97182W        W69497  41.262  44.985  13.079
97183W        W69498  11.563  23.454  12.088
97184W        W69499  42.080   6.075  11.184
97185W        W69500  18.029  33.098  11.554
97186W        W69501  13.127  33.489   3.909
97187W        W69502   5.218  35.406   1.893
97188W        W69503   5.615  42.590   4.515
97189W        W69504  16.301   6.271   4.506
97190W        W69505   7.714  20.427   2.319
97191W        W69506  30.929  13.223   2.955
97192W        W69507  34.629  28.398  12.936
97193W        W69508   2.786  11.750  11.430
97194W        W69509   0.799  16.703  13.444
97195W        W69510  36.499   3.982   1.252
97196W        W69511  29.220  34.394   1.104
97197W        W69512   4.247  42.410  11.972
97198W        W69513   9.784  24.987   4.931
97199W        W69514   8.109  25.144  12.938
97200W        W69515   2.144  17.936   2.552
97201W        W69516   5.896   6.189   3.279
97202W        W69517  32.633  12.676  11.975
97203W        W69518  32.830   1.392   4.976
97204W        W69519   1.217  14.659  13.534
97205W        W69520  12.743  10.826  12.448
97206W        W69521  42.342  13.633  13.105
97207W        W69522   7.636  30.573   3.458
97208W        W69523  23.003   0.004   0.289
97209W        W69524  31.082  26.247  13.368
97210W        W69525  24.201  20.385   4.349
97211W        W69526  25.937  39.561  12.018
97212W        W69527  31.200  24.968  13.053
97213W        W69528  10.965  19.583  12.087
97214W        W69529  25.656  39.741   1.840
97215W        W69530   6.464  25.444  11.754
97216W        W69531   8.945   4.692   5.078
97217W        W69532  37.290  34.941   0.223
97218W        W69533  44.855  38.601   0.211
97219W        W69534   4.657   8.461  11.653
97220W        W69535  44.823  20.461   1.990
97221W        W69536  15.670  21.021  12.445
97222W        W69537   4.547   3.954  14.463
97223W        W69538   9.162  23.665   4.639
97224W        W69539   4.275  40.101  14.709
97225W        W69540  37.101  41.672  12.033
97226W        W69541   7.001  34.402  12.043
97227W        W69542   7.453  32.640  11.262
97228W        W69543  44.381  43.852  12.892
97229W        W69544  29.971   7.313  14.374
97230W        W69545  29.417   3.435   1.867
97231W        W69546  19.352   0.957  11.009
97232W        W69547   2.488  31.449   1.743
97233W        W69548  43.918  10.110   1.743
97234W        W69549  30.411  28.194  13.993
97235W        W69550  18.574  37.858  11.500
97236W        W69551  28.995  35.476  14.670
97237W        W69552  40.414  12.111  14.932
97238W        W69553  27.518  44.014  12.176
97239W        W69554  22.268   6.651  14.748
97240W        W69555  18.088   1.163  13.276
97241W        W69556  11.093  17.533   0.203
97242W        W69557  20.240   5.232   0.381
97243W        W69558  29.477  11.389  10.676
97244W        W69559  26.596  10.035  11.420
97245W        W69560  28.981   9.720  12.508
97246W        W69561  43.123  40.623   1.261
97247W        W69562  10.821  34.300  14.958
97248W        W69563   7.019  43.396  11.946
97249W        W69564   2.138  26.770  10.558
97250W        W69565   4.548  18.502   1.048
97251W        W69566  36.455  32.238  12.095
97252W        W69567   9.304  35.266   0.805
97253W        W69568  17.667  19.232   2.339
97254W        W69569  25.405  31.962   5.103
97255W        W69570  19.705  42.877   3.244
97256W        W69571  11.298  33.964   2.195
97257W        W69572   8.709   0.010  14.152
97258W        W69573  18.048  28.695   4.031
97259W        W69574  41.486  19.245   4.013
97260W        W69575  27.657  25.273  11.849
97261W        W69576   1.732  17.532   3.679
97262W        W69577  29.912   9.680   2.621
97263W        W69578   9.894  33.528  13.059
97264W        W69579   5.071  18.719  11.020
97265W        W69580  25.073   1.882   2.834
97266W        W69581  29.108  32.281  13.545
97267W        W69582  29.677  31.366  11.484
97268W        W69583  28.618  33.651  11.600
97269W        W69584  14.792  38.189   2.412
97270W        W69585  40.929  31.656   2.894
97271W        W69586   5.322  43.075  10.568
97272W        W69587  25.098  37.822  14.411
97273W        W69588  24.695   0.203  14.116
97274W        W69589  26.175  28.006   4.731
97275W        W69590  43.021  13.785   4.088
97276W        W69591  41.097   6.980   0.410
97277W        W69592  11.719   4.397   2.015
97278W        W69593  30.719  12.819  14.411
97279W        W69594  32.382  20.081   0.919
97280W        W69595  26.169  31.559  14.488
97281W        W69596  22.724  34.634   1.372
97282W        W69597  33.414   4.277   4.447
97283W        W69598  30.513  32.894   3.830
97284W        W69599  38.869   0.515   0.868
97285W        W69600   0.886  27.222   1.287
97286W        W69601   2.788  37.951  11.459
97287W        W69602  36.604  27.353   0.465
97288W        W69603   0.763  17.316  13.153
97289W        W69604  34.874  31.872   3.690
97290W        W69605   2.649  25.588  10.589
97291W        W69606   4.502  21.291   3.692
97292W        W69607  27.005  25.710  11.816
97293W        W69608  11.957   4.274  11.100
97294W        W69609  37.523   7.733   3.675
97295W        W69610  10.904  42.806   2.122
97296W        W69611  31.589   5.284  14.331
97297W        W69612  17.565  22.077  13.479
97298W        W69613  18.862  22.885  11.660
97299W        W69614   6.920   1.784  12.004
97300W        W69615   5.826  34.120   2.825
97301W        W69616  27.742   9.884  14.217
97302W        W69617   9.596  30.186   1.257
97303W        W69618  25.293  42.911   2.944
97304W        W69619  11.431  19.236   2.586
97305W        W69620  13.080  40.256  13.912
97306W        W69621  10.884  17.465  10.599
97307W        W69622  38.720  30.966   4.113
97308W        W69623   5.135  44.412   2.203
97309W        W69624  24.030  19.446  11.064
97310W        W69625  19.716  11.108   2.816
97311W        W69626  39.295  39.503   0.469
97312W        W69627  44.411  40.358   3.617
97313W        W69628  27.883  10.421   1.923
97314W        W69629  38.064  38.620   0.994
97315W        W69630   2.641   8.553  13.130
97316W        W69631  21.452  11.745   4.513
97317W        W69632   1.624  13.616   4.174
97318W        W69633  36.829  33.330   3.657
97319W        W69634  14.662  25.155  13.073
97320W        W69635  13.460  11.128  11.092
97321W        W69636  16.671  18.207  13.746
97322W        W69637  43.625  32.643   1.358
97323W        W69638  41.770  14.315  12.459
97324W        W69639  24.244  40.450  12.655
97325W        W69640  31.020  11.138  12.715
97326W        W69641  22.154  21.799  14.020
97327W        W69642  43.060  24.055  13.875
97328W        W69643   1.570  39.316  11.792
97329W        W69644  17.935  36.421  10.964
97330W        W69645  43.371   7.102   1.172
97331W        W69646  30.387   2.430  12.707
97332W        W69647  10.809  42.846   1.187
97333W        W69648   3.768   9.277   3.050
97334W        W69649  40.805  37.995  11.075
97335W        W69650  35.198   6.807   2.749
97336W        W69651   3.754  11.904  11.139
97337W        W69652  12.991  21.270   9.845
97338W        W69653  41.478  35.387  14.033
97339W        W69654  10.023  21.059   1.521
97340W        W69655  36.935  23.014  14.361
97341W        W69656  23.030   2.298  12.635
97342W        W69657  37.328  23.419  10.246
97343W        W69658   9.294  20.987   2.833
97344W        W69659  12.622  10.722   2.781
97345W        W69660  15.661  11.830   1.000
97346W        W69661   4.872  37.556   1.184
97347W        W69662  44.489  42.915  12.392
97348W        W69663  24.032  24.909   3.868
97349W        W69664   9.121  18.174   2.955
97350W        W69665   6.766  22.185  13.474
97351W        W69666  39.845  28.596  13.987
97352W        W69667  44.272  32.442   3.024
97353W        W69668  17.581   3.976  12.331
97354W        W69669  29.424  36.033  12.976
97355W        W69670  37.332  30.488  13.822
97356W        W69671  43.396  21.623   1.203
97357W        W69672  36.019  44.188   4.250
97358W        W69673  12.612  29.128  14.508
97359W        W69674  10.779  32.439  11.614
97360W        W69675  32.731  32.791   2.215
97361W        W69676  37.434  22.208  13.620
97362W        W69677  16.388  18.753   3.238
97363W        W69678  12.441  13.166   0.336
97364W        W69679  20.895  35.784   3.706
97365W        W69680  14.661  30.810  10.352
97366W        W69681   2.214   4.003  14.154
97367W        W69682   9.256  21.650  13.473
97368W        W69683  11.961   7.411   4.167
97369W        W69684  34.442  14.831   0.882
97370W        W69685  12.125  25.092   1.315
97371W        W69686   4.072   1.494  13.366
97372W        W69687  31.566   9.218   3.591
97373W        W69688  38.182  21.975  12.976
97374W        W69689  24.976  12.561  11.342
97375W        W69690   4.292  29.450  11.470
97376W        W69691   4.009  23.714   5.016
97377W        W69692  35.764  44.577  11.088
97378W        W69693  32.931  30.415  14.872
97379W        W69694   3.671  26.129   3.253
97380W        W69695  12.770  12.156   1.889
97381W        W69696  11.821  29.244   0.634
97382W        W69697  21.056   7.347   2.772
97383W        W69698  36.756  17.522  11.521
97384W        W69699  30.981  13.376  14.862
97385W        W69700  15.752   7.450  14.498
97386W        W69701  21.182  34.675  11.092
97387W        W69702  12.487  35.280  10.621
97388W        W69703  41.557  14.562  12.033
97389W        W69704  39.574  34.684   0.924
97390W        W69705  19.941  19.309   3.728
97391W        W69706   3.485  21.018   2.439
97392W        W69707  22.604  26.150  12.939
97393W        W69708   9.190  28.133  11.636
97394W        W69709  16.704  24.075   1.959
97395W        W69710  28.112  42.418   0.773
97396W        W69711  11.131  43.237  13.900
97397W        W69712  32.471  35.991  10.707
97398W        W69713  20.433  41.713  11.122
97399W        W69714  35.136  15.243  14.051
97400W        W69715  17.234  38.538   4.600
97401W        W69716  21.665   3.783   0.017
97402W        W69717  26.419  28.483  11.011
97403W        W69718  42.280   0.880  12.960
97404W        W69719  16.374   9.789  10.501
97405W        W69720   9.236  19.067   3.163
97406W        W69721  17.644  10.849   0.765
97407W        W69722  21.952   4.676   1.441
97408W        W69723  31.841   4.076  13.388
97409W        W69724  18.590   3.816  12.563
97410W        W69725  32.236  35.936   1.791
97411W        W69726  26.073  35.856   0.354
97412W        W69727   1.520  12.399   3.741
97413W        W69728  36.144  19.194   0.704
97414W        W69729  14.063  26.725  14.486
97415W        W69730   1.263   4.851   1.178
97416W        W69731  28.647   9.279  11.233
97417W        W69732  11.831   1.806  13.444
97418W        W69733  38.625  44.522  14.354
97419W        W69734  41.607  43.283   1.035
97420W        W69735  35.383  19.327  14.421
97421W        W69736  37.027  27.103   3.095
97422W        W69737   1.779  44.019   1.351
97423W        W69738  29.656  16.813  11.157
97424W        W69739  11.116  27.148   2.425
97425W        W69740   6.619  21.302  14.944
97426W        W69741  36.956   7.855   1.940
97427W        W69742  23.537  41.935   1.365
97428W        W69743  42.960   2.844   0.477
97429W        W69744  23.339  20.141   1.935
97430W        W69745  34.892  37.469   4.511
97431W        W69746  17.069  10.249   0.457
97432W        W69747  12.339  44.980   1.235
97433W        W69748  29.488   8.065   3.352
97434W        W69749  32.309  42.197   3.657
97435W        W69750  29.102  36.439  12.302
97436W        W69751   8.790   6.732   3.698
97437W        W69752   0.796  20.339  12.393
97438W        W69753  13.100  26.970  12.888
97439W        W69754  23.581  35.040  13.080
97440W        W69755  41.407  24.961   3.150
97441W        W69756  14.939  24.128  14.283
97442W        W69757  26.685   4.250  12.594
97443W        W69758   5.405  43.898   2.248
97444W        W69759   4.934  15.927  14.330
97445W        W69760  12.566  27.049   4.557
97446W        W69761   6.435  16.708   3.815
97447W        W69762  41.406   7.107   2.273
97448W        W69763  34.905  42.180   0.496
97449W        W69764  34.187  28.204   3.638
97450W        W69765  16.601  24.104   4.446
97451W        W69766  41.868  31.031   4.842
97452W        W69767   9.886  24.013   1.949
97453W        W69768   5.340  31.841  13.075
97454W        W69769  12.609  13.595   2.366
97455W        W69770  37.088  12.879  11.935
97456W        W69771  43.712  18.353   4.058
97457W        W69772  11.253  39.070   4.753
97458W        W69773  15.171   7.138  13.923
97459W        W69774  16.189   4.684   1.441
97460W        W69775  21.196  12.699   1.960
97461W        W69776  44.390  14.162   1.319
97462W        W69777  40.738  14.684   0.741
97463W        W69778  30.568  30.602  11.392
97464W        W69779  30.000  36.888   0.315
97465W        W69780  44.463  42.869   3.925
97466W        W69781  41.850  25.769   1.027
97467W        W69782  22.150  26.151   2.271
97468W        W69783  16.010  20.675   0.536
97469W        W69784  29.217  16.184  11.604
97470W        W69785  44.331  42.259   0.324
97471W        W69786  35.631  25.536   4.324
97472W        W69787  22.616  21.130   2.898
97473W        W69788  16.251  30.443   0.946
97474W        W69789  21.056  11.183  12.190
97475W        W69790  22.370  14.287  13.038
97476W        W69791  30.123  33.173   2.446
97477W        W69792   6.719  16.522  11.163
97478W        W69793  27.087  32.579   3.780
97479W        W69794   6.915   5.741  12.932
97480W        W69795   0.286  29.179  13.033
97481W        W69796  29.069  24.790   3.252
97482W        W69797  36.564   5.314   0.762
97483W        W69798  18.585  11.889   0.750
97484W        W69799  16.120  28.104   2.161
97485W        W69800   7.179   3.829  14.946
97486W        W69801  31.510  18.752  11.475
97487W        W69802  42.789  12.320   3.223
97488W        W69803  17.045   4.367   4.602
97489W        W69804  37.371  28.072  12.887
97490W        W69805   6.644  14.434  14.211
97491W        W69806   2.464   4.368   3.353
97492W        W69807   3.298  44.852   0.939
97493W        W69808  30.037  10.783   3.648
97494W        W69809  38.557   5.278  13.874
97495W        W69810  33.746  37.181   5.097
97496W        W69811   3.776  16.983  14.807
97497W        W69812  19.214  33.618  12.512
97498W        W69813  29.083  18.006  10.711
97499W        W69814  11.800  42.207  10.686
97500W        W69815  39.995   6.632   1.929
97501W        W69816   9.435   6.185  11.145
97502W        W69817  24.506  11.668  13.980
97503W        W69818  41.746   5.393  13.472
97504W        W69819  21.094   3.537  10.650
97505W        W69820   6.605  14.668   0.996
97506W        W69821  13.957  34.589   0.984
97507W        W69822  13.424  33.691   1.237
97508W        W69823  12.246  42.833   2.916
97509W        W69824   1.266  41.031   0.535
97510W        W69825  17.247   9.854   3.733
97511W        W69826  26.422  21.908   0.612
97512W        W69827   0.511  43.912   2.289
97513W        W69828  35.918  23.563  14.260
97514W        W69829  24.431  36.795   2.721
97515W        W69830  34.117   4.778  11.156
97516W        W69831  25.041  43.331  12.325
97517W        W69832   0.661  32.139  14.790
97518W        W69833  25.474  21.372  10.153
97519W        W69834   0.395  15.646   1.034
97520W        W69835  12.175  14.255  11.647
97521W        W69836  16.096  12.417   1.875
97522W        W69837  29.035  33.855   2.784
97523W        W69838   0.313  14.539  13.072
97524W        W69839  37.440  12.616  14.542
97525W        W69840  33.049  34.440  12.356
97526W        W69841   8.164   4.133   2.265
97527W        W69842   8.274   1.242  11.429
97528W        W69843  32.695   3.365   5.043
97529W        W69844  29.066   1.481   4.521
97530W        W69845  17.744   2.248  12.860
97531W        W69846  18.335  16.280  11.181
97532W        W69847   5.078  21.436   1.751
97533W        W69848  24.569  22.710  10.106
97534W        W69849  23.356  36.335  14.818
97535W        W69850  41.134  22.148   3.721
97536W        W69851  23.667  22.732  10.939
97537W        W69852   3.617   9.401  11.559
97538W        W69853   9.637  27.945  12.422
97539W        W69854  31.134  35.434  10.431
97540W        W69855   8.291  32.176   0.721
97541W        W69856  33.548   2.536   3.525
97542W        W69857  44.902  36.512  12.197
97543W        W69858  19.217  34.991   2.324
97544W        W69859   3.383  27.918   2.744
97545W        W69860  40.846  16.732   2.793
97546W        W69861  23.475  32.973   1.848
97547W        W69862  36.377  37.871   1.503
97548W        W69863  42.029  12.004   0.249
97549W        W69864  19.047  38.249  10.583
97550W        W69865  38.806  43.222   2.392
97551W        W69866  18.995   8.925   0.824
97552W        W69867  15.244  26.954   1.767
97553W        W69868  44.984   7.565   2.612
97554W        W69869  31.203  34.574   0.807
97555W        W69870  39.501   6.926  12.378
97556W        W69871  27.210   7.861  12.574
97557W        W69872  32.419  43.688  14.814
97558W        W69873  41.744  27.659  14.753
97559W        W69874  25.886  44.787  11.155
97560W        W69875   1.159  28.664   3.797
97561W        W69876  32.543   1.946   3.706
97562W        W69877  20.528  44.779   2.214
97563W        W69878   0.307  31.093  13.019
97564W        W69879  38.004  35.917   2.372
97565W        W69880   3.683   1.429   4.206
97566W        W69881   9.406  11.252   2.904
97567W        W69882  32.128   6.944  12.107
97568W        W69883  20.643  20.694   2.735
97569W        W69884  16.239   2.015   3.535
97570W        W69885  36.175  18.574   3.761
97571W        W69886   9.632  35.666   4.587
97572W        W69887  37.955   3.229   2.372
97573W        W69888   6.226   9.461   2.831
97574W        W69889  43.377  16.781   2.786
97575W        W69890   9.827  37.807  10.484
97576W        W69891  25.701  36.621  11.204
97577W        W69892  43.218  35.172  11.117
97578W        W69893  40.572  22.186  12.926
97579W        W69894  36.951  12.128   2.235
97580W        W69895  32.460  27.143   0.478
97581W        W69896  19.631   3.351  10.929
97582W        W69897  39.997  13.961   4.865
97583W        W69898  12.162  17.708  11.429
97584W        W69899   9.344  40.010  13.473
97585W        W69900  24.689   4.874  10.661
97586W        W69901  30.065  25.522  12.595
97587W        W69902  31.135   2.080   2.809
97588W        W69903  19.216   4.868  14.714
97589W        W69904  11.103  36.851  13.861
97590W        W69905  29.708  17.576  12.739
97591W        W69906  36.047  41.907   2.333
97592W        W69907  31.616  44.396  13.573
97593W        W69908  16.696   8.767  12.030
97594W        W69909   6.232   9.196  12.574
97595W        W69910  14.038  32.386   3.177
97596W        W69911  34.038   0.274   0.989
97597W        W69912  27.045  37.490   4.025
97598W        W69913  34.689  35.625  12.956
97599W        W69914  38.806  18.233  11.034
97600W        W69915  35.254  43.124  13.270
97601W        W69916  34.804  44.436  12.662
97602W        W69917  30.420  26.158   3.667
97603W        W69918   0.807  44.666  13.900
97604W        W69919  21.146  30.021  13.463
97605W        W69920  25.693  38.429   3.688
97606W        W69921  11.788  40.154  11.151
97607W        W69922   3.713  34.273  12.235
97608W        W69923  37.429   2.726   3.642
97609W        W69924  26.459  43.071  11.089
97610W        W69925   3.870  24.583   3.585
97611W        W69926  19.593  19.722  12.619
97612W        W69927   1.828  28.586   0.188
97613W        W69928  25.924  20.654   1.459
97614W        W69929  34.106  11.367   3.642
97615W        W69930  21.236   5.325   4.776
97616W        W69931  10.916  21.637   3.274
97617W        W69932   7.852  31.133  12.904
97618W        W69933  34.167  39.617  13.580
97619W        W69934  36.511  20.826  11.608
97620W        W69935  32.699  28.734  12.089
97621W        W69936  36.037  14.250  10.640
97622W        W69937  36.472   4.158  14.314
97623W        W69938  15.285  43.968   3.724
97624W        W69939  42.848   3.501  14.944
97625W        W69940  36.672   5.106   1.666
97626W        W69941   3.748  37.443  12.528
97627W        W69942   1.139  29.238   0.997
97628W        W69943  35.966  28.402  12.900
97629W        W69944  43.470  32.855  13.585
97630W        W69945  12.087  12.091  12.454
97631W        W69946  41.523   3.827   2.282
97632W        W69947  10.372   1.721  13.571
97633W        W69948  19.764  27.024  13.619
97634W        W69949  15.572  20.148   2.223
97635W        W69950  19.638  44.522  14.980
97636W        W69951  26.701  19.305  12.110
97637W        W69952  33.583  29.877   1.130
97638W        W69953  43.616  38.089  11.131
97639W        W69954   1.644  40.237  12.556
97640W        W69955  18.089  43.555   4.110
97641W        W69956  42.097  32.871  14.837
97642W        W69957  22.644  15.238  12.312
97643W        W69958  44.020   4.524  14.482
97644W        W69959   6.244  36.939   0.513
97645W        W69960  14.540  32.085   2.265
97646W        W69961  31.244  38.953  13.479
97647W        W69962  38.548  41.765  11.929
97648W        W69963  43.384  42.470   0.325
97649W        W69964   0.912  44.187   1.452
97650W        W69965  44.087  40.990  14.640
97651W        W69966  39.782  11.379  14.966
97652W        W69967  15.587  12.873  11.135
97653W        W69968  42.054  22.203   3.590
97654W        W69969  31.713  38.550  11.172
97655W        W69970  30.076  35.078  14.839
97656W        W69971  39.724  40.939  13.511
97657W        W69972  17.337  29.894   5.433
97658W        W69973   1.422  22.568   0.521
97659W        W69974  33.459  39.860   2.872
97660W        W69975   9.572  23.589   4.327
97661W        W69976  19.785  16.030  11.108
97662W        W69977  40.009  27.235   2.120
97663W        W69978  38.141  13.731   2.634
97664W        W69979  25.004  20.695  13.474
97665W        W69980  14.315  13.303   2.710
97666W        W69981   4.468  26.959  10.458
97667W        W69982  32.459  39.495  14.148
97668W        W69983  38.485  23.068  11.130
97669W        W69984  39.295  17.328  12.465
97670W        W69985  21.065  21.800   2.288
97671W        W69986  39.418   3.829   1.397
97672W        W69987  32.426  31.614  11.578
97673W        W69988  10.944  15.374   3.473
97674W        W69989  31.110  26.505  10.634
97675W        W69990  12.380  14.891   0.731
97676W        W69991  40.808   4.957  13.578
97677W        W69992  37.784   7.388  11.133
97678W        W69993  21.994  18.294  13.664
97679W        W69994  13.270  33.181   4.680
97680W        W69995  14.548  15.134  11.494
97681W        W69996  40.944  30.540   2.239
97682W        W69997  31.370  36.938   1.360
97683W        W69998  42.650  41.882   0.670
97684W        W69999  31.219  33.380  12.388
97685W        W70000   8.299  21.816   1.328
97686W        W70001   8.683  29.883   0.435
97687W        W70002   3.137  35.711  11.678
97688W        W70003  31.674  36.493   1.394
97689W        W70004   2.772   9.922   4.018
97690W        W70005  10.911  28.684  13.955
97691W        W70006  30.600   1.156   2.244
97692W        W70007  14.128  22.411   1.048
97693W        W70008  27.113  38.554  11.929
97694W        W70009  40.937   3.797  14.730
97695W        W70010  35.750   8.660   4.194
97696W        W70011  13.478  21.275  11.374
97697W        W70012  13.084   4.056   4.634
97698W        W70013  15.096   4.311  14.489
97699W        W70014  11.963  11.355   4.192
97700W        W70015  11.129  24.965  10.533
97701W        W70016  39.172  24.044  12.125
97702W        W70017   8.376  44.608   3.650
97703W        W70018  24.059   7.618  11.334
97704W        W70019  10.004  23.558   4.582
97705W        W70020  10.144  34.764  11.303
97706W        W70021  12.833  15.788  14.036
97707W        W70022  24.816  24.762   1.670
97708W        W70023  25.083  23.696   0.361
97709W        W70024  35.990  11.834  12.492
97710W        W70025  43.430  23.863   1.379
97711W        W70026  24.063  23.986   0.859
97712W        W70027  26.183  15.816  14.344
97713W        W70028  44.739   9.181  12.823
97714W        W70029   1.924  30.583   3.528
97715W        W70030  39.475  17.666  14.354
97716W        W70031  13.160   1.975  10.642
97717W        W70032  10.039  13.052  10.761
97718W        W70033  15.613  40.315   3.673
97719W        W70034   9.730  14.598   2.403
97720W        W70035   4.694  10.408   3.754
97721W        W70036  41.462  40.837   1.697
97722W        W70037  22.300  43.793   3.300
97723W        W70038   9.885   8.176   1.733
97724W        W70039  42.506   6.140   0.923
97725W        W70040  13.177  42.937  10.813
97726W        W70041  11.235  38.180  13.901
97727W        W70042  43.766  24.841   1.898
97728W        W70043  26.197  29.624  14.522
97729W        W70044  12.812  14.851   4.567
97730W        W70045  24.169  28.011  14.962
97731W        W70046  20.627   1.347  13.907
97732W        W70047  35.058   0.861   0.190
97733W        W70048  43.733  13.136  11.173
97734W        W70049   4.685   0.513  14.746
97735W        W70050  41.820  23.233  11.448
97736W        W70051  11.214  11.565   4.245
97737W        W70052  18.246  12.245  14.830
97738W        W70053  22.568  38.453  14.905
97739W        W70054   4.695  30.877   2.286
97740W        W70055   2.788  29.384   1.404
97741W        W70056  25.662  18.685  14.994
97742W        W70057  42.782   7.682  10.416
97743W        W70058  11.060  27.042  11.538
97744W        W70059  20.718  34.976  11.158
97745W        W70060  22.026  10.625   3.161
97746W        W70061  36.667  42.423  12.162
97747W        W70062  18.493  27.711  12.800
97748W        W70063   3.580  20.926   4.284
97749W        W70064   8.152  20.187  14.769
97750W        W70065  29.547  41.811  11.138
97751W        W70066  12.892  10.107  13.613
97752W        W70067  21.107  44.891   3.449
97753W        W70068  27.684   1.835  12.211
97754W        W70069  36.494  27.472   4.161
97755W        W70070  23.179  12.221  12.919
97756W        W70071  38.216  36.386   4.553
97757W        W70072  27.927   4.425   2.643
97758W        W70073   9.644   0.425  11.623
97759W        W70074   9.666  39.539   2.840
97760W        W70075  27.595  14.696  11.579
97761W        W70076  21.233   0.204  10.586
97762W        W70077  20.756   7.691   2.238
97763W        W70078  23.194   6.303   1.235
97764W        W70079  36.922  19.603  11.996
97765W        W70080  18.763  41.522   1.334
97766W        W70081   2.287   1.880  12.861
97767W        W70082  16.336   0.163   2.217
97768W        W70083  44.042  39.393  13.659
97769W        W70084  22.536   8.936   2.867
97770W        W70085  32.938  31.503   2.233
97771W        W70086  26.514  18.594  11.339
97772W        W70087  13.663   6.443   2.263
97773W        W70088  24.917  33.924   0.352
97774W        W70089  20.725  29.658  13.554
97775W        W70090  14.190  34.198  10.709
97776W        W70091  21.535  11.811   1.199
97777W        W70092   9.122  31.965  12.714
97778W        W70093   7.409  40.269   1.855
97779W        W70094  44.664  43.034   1.098
97780W        W70095  28.709  30.180  11.677
97781W        W70096  22.632  19.767   3.215
97782W        W70097  34.808  44.301   4.593
97783W        W70098  35.913  32.048  14.967
97784W        W70099  11.711  20.967   3.334
97785W        W70100   6.325  12.679  13.281
97786W        W70101  29.136  32.034  12.485
97787W        W70102  39.544  16.725  11.676
97788W        W70103   1.075  16.885  14.458
97789W        W70104  37.067  15.871  12.200
97790W        W70105  30.919   1.805  13.972
97791W        W70106   6.205  19.730  14.546
97792W        W70107  28.613  38.375   4.616
97793W        W70108  14.430  34.464  14.833
97794W        W70109   3.871  11.234   3.140
97795W        W70110  32.002   4.457   1.933
97796W        W70111   2.795  34.017   2.681
97797W        W70112  38.951  31.573   0.202
97798W        W70113  18.188  13.131  10.933
97799W        W70114  37.508   3.289  10.632
97800W        W70115  30.356  26.962   0.261
97801W        W70116  34.615  16.088  13.125
97802W        W70117  36.323  26.319  13.450
97803W        W70118  44.460  25.579   1.738
97804W        W70119  24.585  43.832  12.072
97805W        W70120   8.353   0.183   1.716
97806W        W70121  20.833  24.748  13.752
97807W        W70122  23.459   8.619   2.893
97808W        W70123   1.696  12.356  12.554
97809W        W70124  19.181   4.066   1.347
97810W        W70125  21.852  32.519  13.567
97811W        W70126  12.405  15.280   3.784
97812W        W70127  29.240  42.043  13.884
97813W        W70128  26.794  26.196  14.844
97814W        W70129  21.700   7.762  13.370
97815W        W70130  23.128  28.552  14.426
97816W        W70131  20.398  36.869   4.545
97817W        W70132   0.357  30.469   2.442
97818W        W70133  40.360  37.305  13.899
97819W        W70134  16.085  43.418   3.678
97820W        W70135   4.795   4.648   1.400
97821W        W70136   4.906   0.540   1.738
97822W        W70137  30.933   9.671  12.540
97823W        W70138  35.462  27.720   3.404
97824W        W70139  36.574  10.886  12.435
97825W        W70140  13.603  22.494   2.282
97826W        W70141  30.491  23.963   3.217
97827W        W70142  33.561  39.799  11.248
97828W        W70143  32.417   8.767   0.510
97829W        W70144  41.466  23.494  13.057
97830W        W70145  30.225  38.455   2.785
97831W        W70146  35.510  14.940   1.302
97832W        W70147  17.370  13.674   0.549
97833W        W70148  42.960  18.170   0.849
97834W        W70149  33.546  32.695  13.910
97835W        W70150  15.159  43.970  11.339
97836W        W70151  10.170  14.320  14.492
97837W        W70152   4.384  27.490   3.163
97838W        W70153  38.964   8.151  12.470
97839W        W70154   3.479   2.411   0.311
97840W        W70155  10.350  14.358   1.767
97841W        W70156  32.597  33.650  13.787
97842W        W70157  17.263  32.430  14.854
97843W        W70158  23.989  29.256   3.189
97844W        W70159  30.626  18.422   0.380
97845W        W70160  30.141  32.822  12.009
97846W        W70161   0.826  16.609  14.826
97847W        W70162  34.686  41.311  12.534
97848W        W70163   9.705   8.698  11.015
97849W        W70164  30.731   7.658   4.084
97850W        W70165  41.286  37.823  10.982
97851W        W70166  42.533  21.971  11.548
97852W        W70167  12.579  15.831   4.561
97853W        W70168  19.700   8.503  13.018
97854W        W70169   2.887  25.461   4.425
97855W        W70170  16.974  16.356   1.158
97856W        W70171  42.301   6.647   0.907
97857W        W70172  41.811  16.665   0.945
97858W        W70173   5.638   5.361  14.445
97859W        W70174  26.438   8.158  14.635
97860W        W70175  39.829  43.219  11.182
97861W        W70176  13.760  13.181  14.898
97862W        W70177   9.387  38.931   0.261
97863W        W70178  27.742  22.067  14.446
97864W        W70179  43.274  39.723   2.695
97865W        W70180  35.859  18.810  11.551
97866W        W70181  33.052   0.367   2.822
97867W        W70182  20.246  11.389   4.475
97868W        W70183   1.930   2.534   1.509
97869W        W70184  14.530  31.083  13.905
97870W        W70185  36.142  27.602   0.736
97871W        W70186  29.515  34.364  12.476
97872W        W70187  20.492  22.113  12.836
97873W        W70188  39.303  43.900  13.810
97874W        W70189  35.518  43.346  12.850
97875W        W70190  41.246   1.998   3.966
97876W        W70191   6.365  18.662  12.505
97877W        W70192  12.990  43.683   4.674
97878W        W70193  10.296   6.811  11.613
97879W        W70194   6.102  31.837  10.156
97880W        W70195  14.796  22.140  12.877
97881W        W70196  42.038   1.207   2.682
97882W        W70197  32.802   2.007   1.276
97883W        W70198   7.621  29.254  13.605
97884W        W70199   1.032   8.880   4.763
97885W        W70200  38.480  40.301   3.631
97886W        W70201  22.813  27.612   3.678
97887W        W70202  34.045  42.963   4.548
97888W        W70203  24.651  19.070   4.535
97889W        W70204   7.431  44.749  14.696
97890W        W70205  38.405  14.061   4.561
97891W        W70206  14.257  11.352   2.214
97892W        W70207  39.728   9.262  13.993
97893W        W70208  40.902  20.259  12.462
97894W        W70209  25.804  40.048   3.332
97895W        W70210  27.501  14.135  12.422
97896W        W70211   1.974  13.859  12.787
97897W        W70212   8.690  29.359  14.199
97898W        W70213  10.807  40.491   1.909
97899W        W70214  41.046  23.214   2.857
97900W        W70215   2.246  11.349   2.565
97901W        W70216  24.609  44.999   2.669
97902W        W70217  33.736  44.452   2.208
97903W        W70218  34.715  40.823   0.510
97904W        W70219  24.387   9.138  13.019
97905W        W70220  26.447  12.491   0.479
97906W        W70221  44.893  18.272  13.527
97907W        W70222  41.236  16.328   1.169
97908W        W70223  40.428  44.971   2.247
97909W        W70224  24.670  41.417  13.857
97910W        W70225  34.454  38.276   1.162
97911W        W70226   9.843  13.305   4.501
97912W        W70227   5.820  12.613  13.453
97913W        W70228   1.134  23.924  11.222
97914W        W70229   8.605  42.788   4.228
97915W        W70230  20.170  12.966  13.738
97916W        W70231  31.719  11.629  12.435
97917W        W70232  37.982  15.600   0.954
97918W        W70233  43.687  18.250  11.019
97919W        W70234  32.189  22.022   3.864
97920W        W70235  39.347  12.142  12.606
97921W        W70236  16.461  14.714   4.439
97922W        W70237  34.891   0.204   2.794
97923W        W70238  32.115  34.307  12.067
97924W        W70239  17.764  17.588   0.788
97925W        W70240  21.458   8.779  14.507
97926W        W70241   6.305   1.488   4.168
97927W        W70242  38.574  25.498   4.185
97928W        W70243  20.083  10.138   0.459
97929W        W70244   5.687   0.909   2.041
97930W        W70245  14.662   5.005   2.549
97931W        W70246   5.533   3.039   4.384
97932W        W70247  30.448   1.060  14.661
97933W        W70248  30.968  40.324  12.493
97934W        W70249   5.100  36.027   4.647
97935W        W70250  19.585   6.392  14.932
97936W        W70251   6.157  12.788   3.225
97937W        W70252  10.834  22.515   0.252
97938W        W70253   2.316  12.676  14.251
97939W        W70254  15.346  11.027  11.999
97940W        W70255  16.582  41.537   2.149
97941W        W70256   6.936   1.261  12.568
97942W        W70257   7.713  20.055  14.495
97943W        W70258  39.034  24.714   1.881
97944W        W70259  30.174  17.065  14.336
97945W        W70260   5.757  25.689   3.258
97946W        W70261  22.316  37.389   0.210
97947W        W70262  14.447  39.794   1.751
97948W        W70263   4.975   6.750  12.806
97949W        W70264   6.470   5.358   3.182
97950W        W70265  11.844  19.695   0.904
97951W        W70266  11.799  14.591   1.827
97952W        W70267  24.202  10.726  10.612
97953W        W70268  33.617  40.194  14.384
97954W        W70269   7.748  22.174  11.076
97955W        W70270  42.824  37.950  11.789
97956W        W70271  29.499  37.977   3.282
97957W        W70272  32.164  35.213   0.410
97958W        W70273   5.571  26.962  14.782
97959W        W70274   5.427  28.971   3.774
97960W        W70275  33.294  27.114   0.725
97961W        W70276  28.584  12.676  14.490
97962W        W70277  14.039  18.904   1.370
97963W        W70278  31.774  18.807  14.635
97964W        W70279  23.751  41.162  12.138
97965W        W70280  17.088  42.253  13.908
97966W        W70281   8.266  41.786   2.355
97967W        W70282   1.894  28.464   1.765
97968W        W70283  40.585   9.720  13.680
97969W        W70284  30.084  26.389   1.482
97970W        W70285   1.702  39.769  14.411
97971W        W70286  27.029  37.888   4.817
97972W        W70287   2.845   3.476   2.216
97973W        W70288  29.754   8.423  13.805
97974W        W70289  31.074  36.872   3.016
97975W        W70290  11.332   0.788  11.412
97976W        W70291   4.354  23.866  12.511
97977W        W70292  10.794  18.379   3.892
97978W        W70293  16.194  19.254  12.996
97979W        W70294  41.039  13.323  14.756
97980W        W70295  23.098  32.544  14.296
97981W        W70296  40.856  22.580   3.779
97982W        W70297  38.770  24.698  11.626
97983W        W70298  24.519  26.097   3.061
97984W        W70299  12.826  43.482   2.414
97985W        W70300  19.234  24.708   3.152
97986W        W70301  37.374  13.830   2.125
97987W        W70302  27.676   8.307   4.884
97988W        W70303  24.916  30.183   3.679
97989W        W70304  14.511   8.777   9.966
97990W        W70305  21.739  28.064   0.765
97991W        W70306  33.539  13.593   0.347
97992W        W70307   2.468  20.835  11.625
97993W        W70308  43.471  36.403  14.352
97994W        W70309  12.421   0.751  12.931
97995W        W70310  22.366  18.298   2.561
97996W        W70311  41.646  16.971  10.293
97997W        W70312  38.423  14.653   4.513
97998W        W70313  15.650  18.343  13.507
97999W        W70314  21.608  34.712   2.188
98000W        W70315  20.669  31.838   3.276
98001W        W70316  30.615  41.013   3.404
98002W        W70317  33.540  44.504  10.572
98003W        W70318  26.585   5.952  13.500
98004W        W70319  42.757  32.876   0.463
98005W        W70320  30.206  38.992   2.686
98006W        W70321  15.363   3.836   3.292
98007W        W70322   8.804  20.260   2.716
98008W        W70323  14.408  13.358  14.490
98009W        W70324  33.835  24.652  12.594
98010W        W70325  14.403  10.315   4.511
98011W        W70326  15.604   4.503   2.856
98012W        W70327   1.525  39.167   1.666
98013W        W70328  12.581  26.143  11.852
98014W        W70329  43.474   6.227   3.369
98015W        W70330   0.257  35.438  12.816
98016W        W70331  21.060  34.060   0.335
98017W        W70332   8.623  17.569  11.192
98018W        W70333  13.221  44.226  10.198
98019W        W70334  26.612   9.897  10.170
98020W        W70335  13.145   6.374   0.900
98021W        W70336  41.745   3.373   4.676
98022W        W70337  20.509  21.029  10.651
98023W        W70338  10.367  21.729   0.330
98024W        W70339  42.071  28.750   3.134
98025W        W70340   9.508  26.700   2.189
98026W        W70341  25.158   3.908   4.616
98027W        W70342  39.820  18.072   3.823
98028W        W70343  30.602  26.221  13.616
98029W        W70344  11.884  11.629  11.894
98030W        W70345  10.248   6.280   2.691
98031W        W70346  25.956  10.347  13.043
98032W        W70347   3.691  39.370   4.156
98033W        W70348  29.229   6.205   4.660
98034W        W70349  15.095  34.414   4.101
98035W        W70350  10.797  42.091  11.900
98036W        W70351  21.066  30.409  12.117
98037W        W70352   4.952   4.252   4.099
98038W        W70353  15.735  10.912   2.303
98039W        W70354  27.908   8.091  12.918
98040W        W70355  13.541  26.223   1.742
98041W        W70356  42.621  32.860  14.975
98042W        W70357  41.386  27.962  13.289
98043W        W70358  31.058  10.195   3.185
98044W        W70359  20.830  29.108   4.995
98045W        W70360   5.364  16.523   1.911
98046W        W70361  41.508  20.214  14.331
98047W        W70362  28.959  44.551  13.822
98048W        W70363   9.332  10.994   1.756
98049W        W70364  12.039   5.396  14.896
98050W        W70365   3.183  41.462   2.723
98051W        W70366  25.902  20.489  11.275
98052W        W70367  39.600  26.045  14.816
98053W        W70368   5.123  11.855  13.671
98054W        W70369   5.764  24.876   3.671
98055W        W70370  15.080  30.286   3.752
98056W        W70371  31.909  35.604  11.432
98057W        W70372  20.002  19.374   0.682
98058W        W70373  28.765   1.154  11.499
98059W        W70374  24.264  33.202   2.769
98060W        W70375  34.924  44.278  14.121
98061W        W70376  33.591  24.917   4.163
98062W        W70377   3.765  30.611   5.007
98063W        W70378  25.781  33.734   0.123
98064W        W70379  13.480  39.496   2.488
98065W        W70380  35.809   5.403  10.718
98066W        W70381  35.597   2.292  13.616
98067W        W70382  12.399   2.393   4.247
98068W        W70383  29.229  22.295  14.527
98069W        W70384  43.682  30.149  13.014
98070W        W70385  35.008  20.963   2.896
98071W        W70386  13.118  21.647  14.996
98072W        W70387   9.366  44.699   4.403
98073W        W70388  29.415  44.103  12.524
98074W        W70389  34.711  31.538  10.603
98075W        W70390   9.372  15.861  14.915
98076W        W70391  39.373  17.643   0.480
98077W        W70392   8.886  25.042  13.443
98078W        W70393  37.450  37.764  11.643
98079W        W70394   7.222  24.500  11.666
98080W        W70395  19.007  14.212   3.422
98081W        W70396   3.261   2.867   2.652
98082W        W70397   9.617  20.700   2.302
98083W        W70398   2.746  28.895   1.657
98084W        W70399  16.756  15.149  14.018
98085W        W70400   2.753   2.731  10.658
98086W        W70401  15.092   3.752   1.269
98087W        W70402  14.377   1.212  13.900
98088W        W70403   3.724   0.672   2.015
98089W        W70404  13.033  36.535  11.988
98090W        W70405   8.307  43.956   4.480
98091W        W70406  42.321  44.195   3.614
98092W        W70407  22.110  35.526  14.023
98093W        W70408  33.975   5.886  14.547
98094W        W70409   5.725   7.129   1.568
98095W        W70410  24.751  33.002  14.721
98096W        W70411  16.208  26.057   4.135
98097W        W70412   1.737  40.553  10.616
98098W        W70413  13.342  40.860  11.728
98099W        W70414   2.816  24.587   1.012
98100W        W70415   4.666  34.623  10.729
98101W        W70416  35.993   5.673   2.876
98102W        W70417  13.060  31.182  11.125
98103W        W70418  40.552   1.738   3.157
98104W        W70419  31.602  21.049   3.729
98105W        W70420  14.656  28.652  14.900
98106W        W70421  27.984  41.319   2.170
98107W        W70422   7.176  36.205   5.017
98108W        W70423  33.460  43.013   3.851
98109W        W70424  34.768  41.384   0.815
98110W        W70425  21.042  14.350   3.581
98111W        W70426  26.705  40.883  14.972
98112W        W70427  25.980  25.442   1.252
98113W        W70428  20.232  35.083   1.373
98114W        W70429  15.231  31.694   1.794
98115W        W70430   4.478   1.057   4.559
98116W        W70431  12.842  16.649  10.881
98117W        W70432   2.015  37.298   1.110
98118W        W70433  11.105  18.921   9.880
98119W        W70434  30.993   8.842   2.617
98120W        W70435  23.031  25.202  11.464
98121W        W70436   7.491   6.368  14.813
98122W        W70437  20.280  29.458   1.779
98123W        W70438  14.098  16.116   0.888
98124W        W70439  11.442   6.183  12.773
98125W        W70440  27.908  16.911  11.243
98126W        W70441  22.762  41.160   3.268
98127W        W70442   8.867   6.085   1.435
98128W        W70443  38.185  12.679  11.048
98129W        W70444  33.804  33.580   2.268
98130W        W70445  15.696   9.367   0.792
98131W        W70446  35.091  23.117  10.432
98132W        W70447   3.758   4.675  12.921
98133W        W70448  32.029  19.494  12.389
98134W        W70449  22.492  16.689   0.348
98135W        W70450  44.861  28.228  13.011
98136W        W70451  34.121  11.721  13.893
98137W        W70452  43.084   4.315  12.944
98138W        W70453   6.609   3.599  14.296
98139W        W70454  15.697  23.955  12.542
98140W        W70455   4.332  20.794   4.822
98141W        W70456   9.519  28.390  10.596
98142W        W70457  31.412  15.368  14.244
98143W        W70458  35.150   6.318  12.017
98144W        W70459   6.735  20.715  11.503
98145W        W70460  22.595  42.356  10.530
98146W        W70461   4.404   4.985   3.776
98147W        W70462  20.698   8.894  12.293
98148W        W70463  18.596  30.011  14.762
98149W        W70464  15.334  33.691   0.318
98150W        W70465   6.869  43.493  11.372
98151W        W70466  15.617  23.164   4.880
98152W        W70467  34.514  34.133  13.061
98153W        W70468  40.000  29.690   0.745
98154W        W70469  27.716   3.105   4.246
98155W        W70470  24.439   2.775   3.632
98156W        W70471  32.777  44.053  14.874
98157W        W70472  21.594  36.611  11.363
98158W        W70473  13.877  24.412  12.938
98159W        W70474  40.495   0.768  14.054
98160W        W70475  27.073  16.947   0.990
98161W        W70476   4.453  44.906  12.399
98162W        W70477  10.482  21.746  11.133
98163W        W70478   9.292  11.042  12.407
98164W        W70479   0.264  34.071   0.260
98165W        W70480  32.117   9.615  13.906
98166W        W70481   6.392  21.547   3.785
98167W        W70482  43.959  42.034  12.613
98168W        W70483  38.497  34.355   2.208
98169W        W70484   7.912   6.216   0.074
98170W        W70485  25.076  22.738   2.727
98171W        W70486  34.799  27.218  12.510
98172W        W70487  30.265   8.683  13.279
98173W        W70488   5.672  10.111   1.961
98174W        W70489   0.980  44.251  11.640
98175W        W70490  39.018  34.913   3.891
98176W        W70491  21.693  24.327   2.240
98177W        W70492  18.755   7.780   0.389
98178W        W70493  22.256  26.607  14.989
98179W        W70494  39.564  38.546   3.600
98180W        W70495  21.141  34.960   4.006
98181W        W70496  22.246   8.511  14.364
98182W        W70497  16.243  14.099  11.122
98183W        W70498  43.762   0.850  14.695
98184W        W70499   4.875   4.907  14.183
98185W        W70500  26.550  39.315  14.796
98186W        W70501   4.341  39.344   1.542
98187W        W70502  37.151   8.730   1.520
98188W        W70503  33.792   8.744   3.732
98189W        W70504  23.713  24.252   1.651
98190W        W70505  11.696  25.395  13.679
98191W        W70506  20.169  34.840  13.953
98192W        W70507  31.671   0.806   1.666
98193W        W70508  36.936   5.316  13.567
98194W        W70509  14.079  22.701  10.755
98195W        W70510  37.367  15.666  11.001
98196W        W70511  11.438  29.184   0.975
98197W        W70512   1.345  14.529  12.448
98198W        W70513   1.784  38.348   3.763
98199W        W70514  39.484  16.563  13.088
98200W        W70515   1.694  21.504   3.352
98201W        W70516  26.603   6.744  14.028
98202W        W70517  39.454  23.206  12.132
98203W        W70518  25.742  27.586   0.468
98204W        W70519  30.715  23.127   1.898
98205W        W70520  31.573  34.083   0.786
98206W        W70521   5.017  39.128  11.623
98207W        W70522  39.781  23.307   5.599
98208W        W70523  21.461   4.707  11.599
98209W        W70524  29.007  22.516   3.623
98210W        W70525  40.873  15.065  13.920
98211W        W70526  38.431  16.095   0.332
98212W        W70527  38.265  39.816   3.719
98213W        W70528  19.550  26.287  14.652
98214W        W70529  43.066   4.886   1.225
98215W        W70530  12.186  22.301  13.960
98216W        W70531   8.336  13.228  14.410
98217W        W70532  29.441  16.999  10.706
98218W        W70533  24.216  21.004   0.284
98219W        W70534  13.370  43.583  12.422
98220W        W70535  26.222  34.382  10.598
98221W        W70536  26.602  34.325  12.579
98222W        W70537  26.074  38.051  11.515
98223W        W70538  38.547  23.012  14.980
98224W        W70539   3.732  33.421  14.012
98225W        W70540   3.015  29.556  10.656
98226W        W70541  34.111  38.671   1.282
98227W        W70542  21.793   6.814  10.601
98228W        W70543  33.194   8.454   1.838
98229W        W70544  31.406  28.699  12.449
98230W        W70545  42.319  22.004   0.355
98231W        W70546  19.361   4.373   3.577
98232W        W70547   1.530  14.648  12.941
98233W        W70548  25.027  39.631   0.057
98234W        W70549  17.837  42.276  11.606
98235W        W70550  26.732  18.294  12.141
98236W        W70551   7.104   9.833  12.353
98237W        W70552   2.861  28.553   4.578
98238W        W70553  41.704  39.886  12.486
98239W        W70554   7.942  24.648   0.327
98240W        W70555  37.354  38.008   1.902
98241W        W70556  38.190  35.037   3.408
98242W        W70557  31.522  44.942   1.784
98243W        W70558  35.581   2.938   0.203
98244W        W70559  26.646  35.799  10.620
98245W        W70560   1.936  42.049   4.106
98246W        W70561  20.178  20.716  12.296
98247W        W70562   5.680  17.092  12.872
98248W        W70563   4.231   9.804  14.062
98249W        W70564  34.443  24.840   1.687
98250W        W70565  28.040   0.757  14.311
98251W        W70566  19.461  35.810   1.256
98252W        W70567   0.970   6.212  11.158
98253W        W70568   9.612  24.896   3.883
98254W        W70569  25.204  10.715  11.406
98255W        W70570  20.803  15.842   2.363
98256W        W70571  21.445  29.603  11.169
98257W        W70572  13.262   2.262  14.426
98258W        W70573  38.517  33.861   0.668
98259W        W70574  35.770  34.821   0.259
98260W        W70575  20.090  23.328   2.586
98261W        W70576  25.257  34.873  13.528
98262W        W70577  28.500  21.144   4.292
98263W        W70578  17.334   1.988  14.528
98264W        W70579   7.760  41.499  13.395
98265W        W70580  25.251  20.042  12.852
98266W        W70581  15.767  22.047   3.994
98267W        W70582  17.045  20.266   4.977
98268W        W70583  27.440  17.814   2.697
98269W        W70584  27.765  37.610  12.918
98270W        W70585  11.737  10.578   0.457
98271W        W70586  22.649   1.164  14.890
98272W        W70587  16.536   9.662   0.963
98273W        W70588   5.458  11.903   0.007
98274W        W70589  40.855  33.558   4.898
98275W        W70590  10.514  23.435   2.318
98276W        W70591  16.032  38.932   4.210
98277W        W70592  23.749   4.648  12.913
98278W        W70593  42.081  16.654   1.403
98279W        W70594  43.986   7.792  10.976
98280W        W70595  18.142  13.225   0.669
98281W        W70596  18.776  22.583   0.659
98282W        W70597  40.006  16.502   2.166
98283W        W70598  37.670   7.893   3.179
98284W        W70599  34.632   1.365   3.688
98285W        W70600  33.468  23.434  14.372
98286W        W70601  12.538  12.029   0.862
98287W        W70602  32.646   3.471   4.191
98288W        W70603   3.020  22.016   0.936
98289W        W70604  21.840  29.417   1.394
98290W        W70605  23.596  30.264  14.392
98291W        W70606  30.611  30.139  13.930
98292W        W70607  42.730  38.907   0.066
98293W        W70608  41.023  17.544   0.004
98294W        W70609   3.391  11.779   1.107
98295W        W70610  21.705   1.234  11.167
98296W        W70611  39.985  10.784   3.546
98297W        W70612  10.455  32.514   1.905
98298W        W70613  29.084  44.988   1.829
98299W        W70614  30.915   2.972   2.633
98300W        W70615   7.315  11.605  14.372
98301W        W70616  16.684  27.789   0.219
98302W        W70617  30.665  14.760  13.880
98303W        W70618   2.299  33.000   3.644
98304W        W70619  41.798  32.853  11.757
98305W        W70620   3.433   8.172   0.931
98306W        W70621  16.168  12.671   1.368
98307W        W70622  29.062  15.757   4.642
98308W        W70623  25.702  33.208   3.104
98309W        W70624  30.060   9.945   4.268
98310W        W70625  29.480   6.740  13.465
98311W        W70626  35.580  31.209   3.818
98312W        W70627  42.252   8.189  14.694
98313W        W70628  36.299  22.024  12.462
98314W        W70629  35.334   5.792   2.338
98315W        W70630  31.514  11.534  13.421
98316W        W70631  39.304  10.769   2.938
98317W        W70632   6.991   6.896  12.387
98318W        W70633   7.478  35.018  13.918
98319W        W70634  33.647  43.414  11.332
98320W        W70635  43.265  32.729  12.460
98321W        W70636  11.729   9.103   0.036
98322W        W70637   3.205  23.525  11.104
98323W        W70638  24.185  10.181   0.847
98324W        W70639   3.751  37.127  12.969
98325W        W70640  14.283  15.920   4.074
98326W        W70641  31.886   3.171   1.375
98327W        W70642  42.277  11.782   4.916
98328W        W70643  23.480  43.779   1.831
98329W        W70644  44.900  16.375  12.244
98330W        W70645  41.939  42.736   1.876
98331W        W70646  39.750  23.555  11.100
98332W        W70647  26.643  37.398   2.630
98333W        W70648  37.124  35.564   0.963
98334W        W70649   1.993  28.976   1.903
98335W        W70650  18.757  32.481  13.112
98336W        W70651  27.602  34.414  10.648
98337W        W70652  35.906  23.144  13.485
98338W        W70653  18.359  29.964  11.987
98339W        W70654  18.844  30.237   5.572
98340W        W70655  41.068   2.046  10.924
98341W        W70656  32.419  12.154  12.624
98342W        W70657   0.786  40.902  14.756
98343W        W70658  14.168  25.646  10.589
98344W        W70659  37.843  31.943  11.430
98345W        W70660   0.258  37.941  12.501
98346W        W70661   0.738   3.167   2.845
98347W        W70662   8.073  44.384   5.566
98348W        W70663  25.502  22.939  12.538
98349W        W70664  20.823  38.565  14.902
98350W        W70665  17.341  21.514  13.838
98351W        W70666  42.262  26.536   2.151
98352W        W70667  20.222  24.041  11.850
98353W        W70668  14.764  19.522   2.776
98354W        W70669  23.940  39.075   3.699
98355W        W70670   2.197  34.086   4.432
98356W        W70671  24.100  38.704   0.516
98357W        W70672   5.910   3.195   3.149
98358W        W70673  19.859  39.786   5.490
98359W        W70674  23.173   7.808   4.179
98360W        W70675   4.645  28.741  10.232
98361W        W70676   8.295  27.673   4.750
98362W        W70677   9.984   0.413   3.960
98363W        W70678  21.002  21.091   2.719
98364W        W70679  16.193  18.043   2.356
98365W        W70680  21.064   9.141  12.991
98366W        W70681  33.902  38.955   2.595
98367W        W70682  32.695  24.901  10.990
98368W        W70683  27.964  16.576  11.631
98369W        W70684  14.296  29.464  11.626
98370W        W70685   1.212  37.298  13.037
98371W        W70686  24.525   7.119   0.540
98372W        W70687  21.784  10.193   4.355
98373W        W70688   9.301  22.620  14.486
98374W        W70689  37.803   7.379   2.147
98375W        W70690  43.961  13.586   0.439
98376W        W70691  43.391  26.718  10.724
98377W        W70692  25.997  12.880  12.451
98378W        W70693  16.232   8.810  10.755
98379W        W70694  25.561   5.213   2.222
98380W        W70695  14.722   7.695   3.212
98381W        W70696  23.333  16.130   1.716
98382W        W70697   7.688  38.295   1.705
98383W        W70698  41.434  19.695  13.871
98384W        W70699  31.936  40.947   0.926
98385W        W70700  26.481  24.867   2.178
98386W        W70701  35.302  26.439  10.561
98387W        W70702  19.113  35.497   3.251
98388W        W70703  11.119  35.442   2.366
98389W        W70704  26.412  32.353   2.143
98390W        W70705   8.265   8.551  14.811
98391W        W70706  43.967  32.732  13.450
98392W        W70707  40.476  25.542  13.774
98393W        W70708  23.730  35.423   1.147
98394W        W70709  12.109  19.696  13.524
98395W        W70710   2.057  24.075  14.994
98396W        W70711  38.909  13.061  12.372
98397W        W70712  23.058  33.132   3.596
98398W        W70713  18.646  17.315   0.688
98399W        W70714  30.250  40.848  13.958
98400W        W70715   9.969  27.171   3.930
98401W        W70716   8.801  31.167   4.144
98402W        W70717  38.241  26.734   3.878
98403W        W70718  20.245  27.996   3.548
98404W        W70719  38.497  11.112   3.262
98405W        W70720  36.505  30.210  12.056
98406W        W70721  22.790  37.753  12.936
98407W        W70722  38.383   4.621  13.974
98408W        W70723  32.180  16.636   4.571
98409W        W70724  23.724  31.377  10.851
98410W        W70725   1.506   5.883  13.002
98411W        W70726  31.140   9.273   0.831
98412W        W70727   4.715  29.584  14.947
98413W        W70728  11.797  14.112  10.741
98414W        W70729   7.826  13.799  10.619
98415W        W70730   5.422   6.327   2.146
98416W        W70731  38.051   8.245   0.484
98417W        W70732  26.722  34.512  12.105
98418W        W70733  12.543  32.822  11.551
98419W        W70734   1.694   7.351   0.830
98420W        W70735  10.396  36.561   0.519
98421W        W70736  34.686  41.756  10.658
98422W        W70737  41.287  36.943  13.761
98423W        W70738   0.960   3.426   1.994
98424W        W70739   8.298  15.453   4.083
98425W        W70740  30.824  33.894  11.335
98426W        W70741  20.101  36.250  11.117
98427W        W70742  18.643  17.787   2.342
98428W        W70743  13.226  31.061  14.789
98429W        W70744  37.350  44.990   4.664
98430W        W70745  20.774  25.546  14.860
98431W        W70746  41.098   6.227  11.190
98432W        W70747  38.940  27.445   3.729
98433W        W70748  18.812  40.264  13.338
98434W        W70749  23.790  39.502   2.809
98435W        W70750   6.704  23.538   3.828
98436W        W70751  15.681  35.920   0.655
98437W        W70752   4.012  35.909   4.546
98438W        W70753  27.941   1.134   1.617
98439W        W70754  12.099  30.582  11.506
98440W        W70755  33.554  15.019   2.309
98441W        W70756  23.091   4.072  13.170
98442W        W70757   6.059  32.300   0.413
98443W        W70758  26.625  27.676  12.634
98444W        W70759  16.635  15.263  14.539
98445W        W70760  29.921  23.664   3.999
98446W        W70761  29.401  27.867  13.014
98447W        W70762  35.950   7.300   1.129
98448W        W70763  10.787  31.688   1.410
98449W        W70764  28.225  28.455  13.931
98450W        W70765  37.529  23.196   1.887
98451W        W70766  15.773   0.217  11.023
98452W        W70767  35.302  16.710   2.387
98453W        W70768  13.183  19.464  12.146
98454W        W70769  40.210   4.816   1.807
98455W        W70770  36.303   1.952  14.755
98456W        W70771  43.948  44.750   4.114
98457W        W70772  36.317   6.058   1.724
98458W        W70773  39.832  12.788   1.241
98459W        W70774  27.881  44.823   4.921
98460W        W70775  12.176   9.630  13.085
98461W        W70776   0.714  44.748   9.846
98462W        W70777  23.558  39.379  14.703
98463W        W70778  39.326  16.033  12.177
98464W        W70779  30.105  43.847  14.914
98465W        W70780  20.052   5.321  11.585
98466W        W70781  35.565  27.909  14.593
98467W        W70782  38.730  33.009   4.529
98468W        W70783  18.645   7.528  11.682
98469W        W70784  17.307  36.387  11.973
98470W        W70785  38.898   9.424  13.378
98471W        W70786   2.650   2.283  12.853
98472W        W70787  18.100  28.981  12.176
98473W        W70788  26.294  39.425  11.651
98474W        W70789  26.060  39.647  10.798
98475W        W70790   5.794  23.401   0.762
98476W        W70791  20.127  43.854  10.673
98477W        W70792  24.075  34.089   0.962
98478W        W70793   0.852  35.230   1.529
98479W        W70794  11.889   4.099   4.307
98480W        W70795  15.263  10.648   2.317
98481W        W70796  33.976  32.436  14.086
98482W        W70797   3.889  31.927   3.619
98483W        W70798  19.003  30.107   5.076
98484W        W70799   3.530  32.379  14.460
98485W        W70800  43.799   4.359  10.795
98486W        W70801  42.373  32.526   1.718
98487W        W70802  14.022  40.549  13.782
98488W        W70803  42.890   5.872   0.214
98489W        W70804  20.790  10.747  13.593
98490W        W70805  27.676  39.898   4.266
98491W        W70806  24.012  41.633  10.332
98492W        W70807   9.690  30.442   3.487
98493W        W70808  12.183  23.980  13.322
98494W        W70809   4.462  38.618  12.335
98495W        W70810  18.126  30.870  11.140
98496W        W70811  44.218  22.004   2.354
98497W        W70812  10.200  34.537  12.690
98498W        W70813  13.395  14.713  12.505
98499W        W70814  36.886  14.986  14.413
98500W        W70815  29.873   5.720  11.728
98501W        W70816  37.782  44.491  13.043
98502W        W70817   2.731  13.740  14.399
98503W        W70818  31.964  34.931   4.620
98504W        W70819  29.390   9.423  12.464
98505W        W70820  34.039  39.549   3.653
98506W        W70821  41.510  26.179  14.482
98507W        W70822  12.743   6.218  13.566
98508W        W70823  42.904  17.433   2.168
98509W        W70824  21.698  34.071   4.747
98510W        W70825  35.449  28.962  13.162
98511W        W70826  29.608   0.115  14.777
98512W        W70827  27.190  11.308   0.525
98513W        W70828  27.424  18.797  12.041
98514W        W70829   5.294  36.929  11.603
98515W        W70830   7.369   2.389   0.246
98516W        W70831  28.478  40.974  10.495
98517W        W70832   9.903  25.203  14.617
98518W        W70833  40.281   5.929   4.827
98519W        W70834  14.913  21.731  13.192
98520W        W70835   2.998  14.583   0.884
98521W        W70836   5.953  16.864   2.717
98522W        W70837  22.939  41.862   4.507
98523W        W70838  40.378  21.999   4.245
98524W        W70839  24.680  22.185  14.846
98525W        W70840  40.094  17.155  10.690
98526W        W70841  40.515  14.328   1.725
98527W        W70842  35.426  13.243   0.411
98528W        W70843  26.404   1.294   1.838
98529W        W70844  11.871  22.976  14.074
98530W        W70845   0.303   3.411   3.631
98531W        W70846  37.865  36.167   4.859
98532W        W70847  44.901  31.967  13.189
98533W        W70848  41.192  30.072   2.325
98534W        W70849  44.755  20.255  14.832
98535W        W70850  42.216  29.956   2.877
98536W        W70851  13.540  23.238   3.723
98537W        W70852  16.010  12.133  10.923
98538W        W70853  12.035   9.588  10.646
98539W        W70854   4.277  20.942  13.117
98540W        W70855  33.140   5.789  11.083
98541W        W70856  44.322  37.084  12.100
98542W        W70857  33.363  20.037   4.681
98543W        W70858  17.880  37.866   4.097
98544W        W70859  21.915  14.771  13.463
98545W        W70860  16.794   9.607  10.284
98546W        W70861   7.407   5.827  10.666
98547W        W70862  30.203   8.283  14.058
98548W        W70863  40.826  10.092  10.240
98549W        W70864  18.118  31.460   4.611
98550W        W70865  26.773  42.935   2.348
98551W        W70866  29.920   7.991  12.034
98552W        W70867  40.076  11.763  12.045
98553W        W70868  38.363  11.440  12.572
98554W        W70869  19.572  27.609  14.712
98555W        W70870  28.444  34.950  10.905
98556W        W70871  24.537  20.479   4.756
98557W        W70872  14.381   2.853   4.121
98558W        W70873  34.020   9.593  10.873
98559W        W70874  21.602  30.782   4.219
98560W        W70875  25.597  41.781  14.115
98561W        W70876  32.212   1.772   0.320
98562W        W70877  38.246   1.549  14.803
98563W        W70878  28.056  31.765   5.500
98564W        W70879   2.190  43.490   0.306
98565W        W70880  39.391   8.842  12.869
98566W        W70881  27.064  14.517   1.400
98567W        W70882  18.805  18.583   1.312
98568W        W70883  32.009  40.786  11.519
98569W        W70884  44.984  40.033  11.985
98570W        W70885  20.091  34.329  11.143
98571W        W70886  20.289  44.391  11.204
98572W        W70887  12.388  38.490  11.696
98573W        W70888  41.666  15.711  11.228
98574W        W70889  24.953  30.957  11.081
98575W        W70890   3.781   6.228   4.262
98576W        W70891   9.595  25.305  12.037
98577W        W70892  29.118  32.448   0.138
98578W        W70893   2.890  26.199  12.896
98579W        W70894  40.307  43.437  13.915
98580W        W70895   8.531   7.800  13.130
98581W        W70896  28.024  31.440  11.885
98582W        W70897  28.657   4.966   3.654
98583W        W70898  37.333  31.031   4.511
98584W        W70899  19.182   8.792   1.299
98585W        W70900  28.961  17.044   3.662
98586W        W70901  23.531   8.597   4.266
98587W        W70902  14.861  32.624  13.118
98588W        W70903  31.542   4.672   1.853
98589W        W70904  14.765  17.851  12.339
98590W        W70905   4.628  23.982   0.273
98591W        W70906  17.793  25.007  14.006
98592W        W70907  27.509  11.211  12.937
98593W        W70908  26.100  36.973   3.162
98594W        W70909  40.131   4.067   2.786
98595W        W70910   7.638   9.847  10.345
98596W        W70911  19.661   9.745   2.743
98597W        W70912  14.604  22.483  14.341
98598W        W70913  21.662  38.072   3.809
98599W        W70914  16.091  16.837  12.894
98600W        W70915  20.070  23.742   0.083
98601W        W70916  19.351  24.821  12.767
98602W        W70917  27.495  12.305   1.460
98603W        W70918  28.373  43.927   1.402
98604W        W70919   3.806   3.113  12.939
98605W        W70920  41.132   7.944  14.410
98606W        W70921   3.665  44.489   0.902
98607W        W70922   1.969  19.591   3.602
98608W        W70923  27.938  41.002  14.420
98609W        W70924  11.845  19.796  10.517
98610W        W70925   5.711  18.941  14.012
98611W        W70926  35.943  20.184   1.890
98612W        W70927  38.352  22.660  11.802
98613W        W70928  42.459   2.412   4.202
98614W        W70929  15.771   7.484   0.411
98615W        W70930  11.364  36.086  14.899
98616W        W70931  25.714  19.666   3.857
98617W        W70932   6.190  32.865  14.219
98618W        W70933   4.533  16.686   3.775
98619W        W70934   2.238   3.343   1.427
98620W        W70935  41.449  29.930  11.486
98621W        W70936  26.523  22.747   4.163
98622W        W70937  28.450  34.638   0.954
98623W        W70938  13.189   4.903   4.561
98624W        W70939  13.783  27.687   2.797
98625W        W70940  33.983  16.797   3.133
98626W        W70941  34.797  12.540  11.691
98627W        W70942   7.270  28.007  11.425
98628W        W70943   0.773   3.378   3.360
98629W        W70944  16.620  41.157   5.493
98630W        W70945  44.286  32.021   1.090
98631W        W70946  26.742  30.066  12.037
98632W        W70947  31.831  36.858  11.764
98633W        W70948  14.224  43.521  11.990
98634W        W70949  13.566  12.781   0.944
98635W        W70950  34.879  23.249   0.833
98636W        W70951  25.686  19.737   4.713
98637W        W70952  24.882   6.182   3.828
98638W        W70953  33.919  43.926   3.118
98639W        W70954   9.826   2.932  13.588
98640W        W70955  40.724  34.879   3.125
98641W        W70956  21.822   4.115  13.397
98642W        W70957   9.933  26.153   0.838
98643W        W70958  18.017  25.192  13.555
98644W        W70959  25.706  34.339  10.547
98645W        W70960  18.426   9.068  10.189
98646W        W70961  29.101   9.202   3.585
98647W        W70962   5.154  31.808  14.035
98648W        W70963  11.628  40.354   0.289
98649W        W70964  37.386  13.590  14.359
98650W        W70965   9.067   9.160  11.613
98651W        W70966   1.196  35.922   2.775
98652W        W70967  21.078  25.199  10.706
98653W        W70968  18.785  21.052  12.653
98654W        W70969  28.676  39.129  11.557
98655W        W70970  27.535  33.912   4.995
98656W        W70971  10.241  11.263   1.171
98657W        W70972   8.284  25.713   0.838
98658W        W70973  13.049   5.776   1.746
98659W        W70974  37.302   0.552   3.716
98660W        W70975   2.373  43.841   2.962
98661W        W70976  19.961   4.288  11.695
98662W        W70977  19.079  29.201   0.393
98663W        W70978  16.793  24.119  10.705
98664W        W70979  28.593  31.844  13.284
98665W        W70980   9.858  16.878  12.495
98666W        W70981  21.161  31.964  13.490
98667W        W70982  40.151  13.010  12.066
98668W        W70983   9.869  16.169  13.975
98669W        W70984  37.973  36.828   2.543
98670W        W70985  30.316  25.685   1.673
98671W        W70986   6.374  12.562   1.388
98672W        W70987  43.451   8.962   4.162
98673W        W70988  17.293  36.472   3.398
98674W        W70989  20.733  38.055  12.910
98675W        W70990   7.325  10.460   2.252
98676W        W70991  34.623   9.336   2.386
98677W        W70992   6.816  38.629   0.404
98678W        W70993  10.697  29.654  14.394
98679W        W70994   3.302  44.791  12.109
98680W        W70995  35.052  33.911   2.002
98681W        W70996  19.062  30.642  10.554
98682W        W70997   1.150  39.559   4.039
98683W        W70998  24.982  16.577   2.731
98684W        W70999  35.307  36.065   4.600
98685W        W71000  16.544  18.693  13.577
98686W        W71001   3.704  38.840   4.667
98687W        W71002   7.895   0.937  11.917
98688W        W71003   9.140  35.242  11.342
98689W        W71004   1.073   9.876  11.491
98690W        W71005  38.005   9.739   3.566
98691W        W71006  12.361  44.397   3.778
98692W        W71007  11.008   2.262   0.309
98693W        W71008  31.888  25.520  11.896
98694W        W71009  16.774  32.639  10.673
98695W        W71010  20.725  22.765   2.267
98696W        W71011   8.128  10.851   0.918
98697W        W71012  32.093  10.637   1.182
98698W        W71013  31.137   0.291   1.072
98699W        W71014  20.125  31.481  13.944
98700W        W71015   6.595   0.038  13.955
98701W        W71016  17.152  12.856  14.968
98702W        W71017   1.486  37.396   4.140
98703W        W71018  38.107  31.592  14.333
98704W        W71019  36.022  41.227   4.315
98705W        W71020  19.971  26.469  14.352
98706W        W71021  15.284  32.237   0.291
98707W        W71022  43.776  33.233   0.017
98708W        W71023  42.001  32.318   2.742
98709W        W71024  21.523   3.880  13.061
98710W        W71025  40.722  42.910   4.629
98711W        W71026  14.343  40.488   0.339
98712W        W71027  22.276  11.241  12.098
98713W        W71028   4.756   3.142   5.045
98714W        W71029  10.612  30.136  12.664
98715W        W71030   1.315  32.028   1.920
98716W        W71031  35.748  28.753  11.545
98717W        W71032  37.363  12.240  11.131
98718W        W71033  10.424  39.594   0.025
98719W        W71034  10.244  18.334   1.634
98720W        W71035   2.780  15.205   2.757
98721W        W71036   1.905  33.562  14.551
98722W        W71037  27.649   8.145  12.480
98723W        W71038  12.832  20.853  12.076
98724W        W71039  26.225  11.896   3.165
98725W        W71040  25.593  21.295   5.441
98726W        W71041  23.078  35.083  13.821
98727W        W71042   2.000  30.588   4.027
98728W        W71043  42.433  41.802   2.053
98729W        W71044   6.837  19.751   1.635
98730W        W71045   6.882  43.291   0.006
98731W        W71046   0.087   0.455   3.668
98732W        W71047  12.223  28.537   1.985
98733W        W71048  17.556  44.525  14.320
98734W        W71049  24.716  24.751  13.679
98735W        W71050  22.579  16.628  14.342
98736W        W71051  30.545  14.490  11.745
98737W        W71052  41.466  29.223  13.971
98738W        W71053  35.070  24.696   2.785
98739W        W71054   1.300  12.588   3.279
98740W        W71055  19.183   5.390  11.945
98741W        W71056  26.539  10.110   0.742
98742W        W71057  10.354  27.600  11.900
98743W        W71058  21.158   4.033   0.306
98744W        W71059  30.799  25.543  14.902
98745W        W71060   1.424  21.948   1.234
98746W        W71061  37.962  34.958  14.369
98747W        W71062  19.721   8.754   2.218
98748W        W71063  10.996  23.742   3.572
98749W        W71064  26.474  18.311   1.672
98750W        W71065  22.219  40.919   1.838
98751W        W71066  36.070  31.854   0.855
98752W        W71067  31.780   9.224  14.022
98753W        W71068  25.716  27.165  10.670
98754W        W71069  32.023  14.057  10.007
98755W        W71070   5.646   5.334   0.530
98756W        W71071  35.395  32.420  13.846
98757W        W71072  34.918  20.934  11.717
98758W        W71073  27.657  27.829  14.529
98759W        W71074  23.084  43.072  14.204
98760W        W71075  13.161  24.240  13.521
98761W        W71076  11.361  10.190   4.569
98762W        W71077  21.457   3.447   3.852
98763W        W71078   7.740  33.319   1.754
98764W        W71079  13.448  34.669  13.607
98765W        W71080  20.520   0.708  12.101
98766W        W71081  27.040  23.211   2.984
98767W        W71082   7.357  32.913   2.397
98768W        W71083  15.596  39.359  13.614
98769W        W71084   3.352  11.183  13.446
98770W        W71085   2.710  30.844  11.126
98771W        W71086   1.787  10.636   2.014
98772W        W71087   7.438  33.724  11.612
98773W        W71088  17.765   5.319   0.177
98774W        W71089  17.832  29.030   2.735
98775W        W71090  11.767  10.675   3.555
98776W        W71091  34.186   1.243  12.495
98777W        W71092  16.346  31.468   4.518
98778W        W71093  22.099  22.269  10.230
98779W        W71094   9.350  44.941  11.044
98780W        W71095   8.890  31.388  11.617
98781W        W71096  33.826  22.359  10.966
98782W        W71097  14.857   4.229   4.087
98783W        W71098  26.024  43.120  14.088
98784W        W71099   3.979  15.053  11.506
98785W        W71100  24.310   6.934  14.168
98786W        W71101   3.764  34.387   4.046
98787W        W71102  24.505   6.908   3.215
98788W        W71103  44.301   3.158   0.476
98789W        W71104  42.279  26.143   4.425
98790W        W71105  20.142   1.931  14.908
98791W        W71106  39.026  16.083  11.394
98792W        W71107  22.518  29.886  10.763
98793W        W71108  30.655  14.338   0.304
98794W        W71109   0.263   6.657   0.056
98795W        W71110  28.102   4.659  14.478
98796W        W71111  14.402  17.685   1.883
98797W        W71112   5.426   3.489   4.087
98798W        W71113   1.867   7.635  10.770
98799W        W71114  31.530   9.385  10.610
98800W        W71115   0.385   5.369  11.335
98801W        W71116  21.760   6.230  12.426
98802W        W71117  26.193   6.579  14.299
98803W        W71118   5.696  40.232   4.643
98804W        W71119  28.190   8.679   1.740
98805W        W71120  14.814  16.193   4.959
98806W        W71121  32.032   8.024   2.370
98807W        W71122  44.704   0.595   4.523
98808W        W71123  38.822   4.035  11.422
98809W        W71124  43.258  32.823   4.535
98810W        W71125   5.678  36.105  14.032
98811W        W71126  31.619  25.986   3.348
98812W        W71127   1.908  30.737  12.933
98813W        W71128  11.881  40.010   1.760
98814W        W71129  32.850  43.695   2.076
98815W        W71130  24.029  22.667  13.840
98816W        W71131  30.259   3.935   0.842
98817W        W71132   9.157  12.211   4.633
98818W        W71133  10.819   1.664   1.651
98819W        W71134   4.701  24.628   4.156
98820W        W71135   9.801  22.191  10.623
98821W        W71136   4.786  38.671  11.564
98822W        W71137  16.300   8.314   4.110
98823W        W71138  37.344   1.912  14.686
98824W        W71139  44.992  34.959   3.284
98825W        W71140  23.700  25.414   2.314
98826W        W71141  34.345   4.475  13.309
98827W        W71142  31.555  13.849   2.847
98828W        W71143  32.125   1.003   0.784
98829W        W71144  11.558  30.402  10.607
98830W        W71145   8.175  36.393  12.886
98831W        W71146  42.372  23.361  14.211
98832W        W71147  26.426  28.078  13.949
98833W        W71148   3.964  23.799   1.253
98834W        W71149  10.207  18.850   9.820
98835W        W71150  22.505  24.590   0.371
98836W        W71151  14.079  31.092  11.133
98837W        W71152  23.082  19.715   9.803
98838W        W71153  42.944   2.443  11.738
98839W        W71154  15.266  41.291   2.870
98840W        W71155  21.510   9.292  14.329
98841W        W71156   3.882  34.127   2.627
98842W        W71157  12.232  31.559  11.139
98843W        W71158  19.765  44.672   5.187
98844W        W71159  19.091  27.394   2.340
98845W        W71160  27.203  39.945  11.991
98846W        W71161   1.854  37.839   2.664
98847W        W71162  14.595  35.429  11.494
98848W        W71163  44.859   2.838   1.055
98849W        W71164   2.633  21.023  12.631
98850W        W71165  43.114  26.936   0.485
98851W        W71166  25.991  25.039   3.563
98852W        W71167   0.501  30.383   1.666
98853W        W71168   5.367  22.558   4.152
98854W        W71169  15.739  27.095   1.827
98855W        W71170  39.475  21.030   0.930
98856W        W71171  25.772  26.349   1.949
98857W        W71172  36.086   0.573  14.083
98858W        W71173  40.914   2.296   0.189
98859W        W71174  15.600  41.383  10.805
98860W        W71175  27.415  26.873  12.785
98861W        W71176  32.883  15.658  11.999
98862W        W71177  34.422  28.442   1.896
98863W        W71178  23.415   9.557   3.818
98864W        W71179  13.616  39.926  12.389
98865W        W71180  39.281  38.533  11.558
98866W        W71181  38.632  38.042   0.902
98867W        W71182  17.567  38.105  10.309
98868W        W71183  21.439  29.818   0.344
98869W        W71184  22.183  34.561  10.364
98870W        W71185  19.000  36.886   1.733
98871W        W71186   0.252  34.538   1.883
98872W        W71187  37.857   6.575  12.303
98873W        W71188  24.168  14.495   2.649
98874W        W71189  38.016  37.056   3.957
98875W        W71190  31.323  20.706   2.886
98876W        W71191  18.254  44.392  10.991
98877W        W71192   7.269  38.363  14.493
98878W        W71193  39.577  16.604   0.070
98879W        W71194  18.836  40.582   4.466
98880W        W71195  29.995  38.795   3.120
98881W        W71196  30.672  40.413  12.903
98882W        W71197  14.612   7.148  13.280
98883W        W71198  34.642  39.044   0.230
98884W        W71199  38.201   1.684   2.836
98885W        W71200  30.398   3.650   3.349
98886W        W71201  42.498  14.952   0.905
98887W        W71202  34.153  25.241   1.500
98888W        W71203  43.391  41.877  14.500
98889W        W71204   9.666  18.249  13.443
98890W        W71205  23.743   2.976   2.870
98891W        W71206  31.665  21.681  10.728
98892W        W71207  12.972  14.351   4.667
98893W        W71208  27.500  15.288  11.255
98894W        W71209  39.414  19.739   4.053
98895W        W71210  22.112  17.709   1.365
98896W        W71211  20.775  43.853   4.260
98897W        W71212  20.281  33.048   1.327
98898W        W71213  26.956  30.563  12.435
98899W        W71214  39.108  15.414   0.231
98900W        W71215  27.522  12.930   0.831
98901W        W71216  22.100  42.163  13.155
98902W        W71217   0.881  27.108   3.996
98903W        W71218  36.875   2.440   3.758
98904W        W71219  32.532  33.429   0.847
98905W        W71220  36.795  33.861   2.550
98906W        W71221  34.685  20.229  13.556
98907W        W71222   9.470   9.187  11.945
98908W        W71223  43.409  24.964   2.265
98909W        W71224  16.592  12.328   2.670
98910W        W71225  19.436  20.089  10.507
98911W        W71226  12.465  36.610   1.652
98912W        W71227  10.236  29.394  11.226
98913W        W71228  44.621  36.725  11.424
98914W        W71229   9.364  33.205  13.808
98915W        W71230  26.630  23.643  12.129
98916W        W71231   3.818  36.689  11.084
98917W        W71232   6.571   4.902  13.905
98918W        W71233  37.789  12.879  12.297
98919W        W71234  24.241  32.022  14.365
98920W        W71235  43.405  20.040  12.523
98921W        W71236  36.910  41.629   0.611
98922W        W71237  41.913  38.440   1.861
98923W        W71238  22.014  20.364   4.824
98924W        W71239  30.271  29.241   4.562
98925W        W71240  25.153  13.912  12.423
98926W        W71241   7.898  27.461   1.607
98927W        W71242   8.349  10.134   1.370
98928W        W71243   9.884  22.722  12.358
98929W        W71244   4.425  22.134  14.381
98930W        W71245  21.824  33.743  12.097
98931W        W71246  10.883  31.492   0.417
98932W        W71247  35.527  22.989  10.678
98933W        W71248  12.192  22.032  13.501
98934W        W71249  33.654  27.084   1.758
98935W        W71250  26.737  18.264   2.693
98936W        W71251   1.742  24.501  10.701
98937W        W71252  26.359  16.807   5.052
98938W        W71253  36.452  33.630   4.180
98939W        W71254  38.857  13.208   1.912
98940W        W71255  17.567  35.079  12.518
98941W        W71256  33.457  33.756  14.026
98942W        W71257   1.364  21.342  12.002
98943W        W71258  11.575  27.970   4.613
98944W        W71259   7.513  35.225  10.965
98945W        W71260  25.208  41.924  12.329
98946W        W71261   6.832  12.596  14.855
98947W        W71262  20.741  34.503  12.805
98948W        W71263  24.242  22.679  12.828
98949W        W71264  20.665  24.462  12.705
98950W        W71265  12.668   1.998   4.545
98951W        W71266  21.439   7.290  13.532
98952W        W71267  33.555  26.466  10.424
98953W        W71268  20.329  24.672   2.323
98954W        W71269  17.659   3.879   4.240
98955W        W71270  12.244   7.290  11.718
98956W        W71271  22.667   9.932  12.998
98957W        W71272  10.981  20.058  13.924
98958W        W71273   3.775  36.342   4.776
98959W        W71274  34.693  19.690  13.964
98960W        W71275  17.234  36.065   0.774
98961W        W71276  30.912  28.102   3.668
98962W        W71277  26.304   0.023  12.559
98963W        W71278  20.697  27.507  10.423
98964W        W71279  40.080   4.273   3.985
98965W        W71280  11.617  22.493  12.951
98966W        W71281  11.808  41.718   3.886
98967W        W71282   4.076  37.936   1.757
98968W        W71283  10.276   3.115   4.880
98969W        W71284   9.697  27.790  12.941
98970W        W71285  17.863  24.947  11.021
98971W        W71286  28.404  17.589  13.763
98972W        W71287   0.712  41.262  13.115
98973W        W71288   8.320  31.930   2.865
98974W        W71289  24.549  16.708  10.753
98975W        W71290  15.345  39.941   0.474
98976W        W71291  22.544  44.746  14.824
98977W        W71292  37.369  14.694  10.462
98978W        W71293   8.041  44.293   4.784
98979W        W71294   3.138  34.814  13.577
98980W        W71295  25.522  29.601   3.543
98981W        W71296  39.023  11.857  11.299
98982W        W71297  14.378  26.080  13.005
98983W        W71298  17.127  10.607   4.142
98984W        W71299  35.397  27.056  13.656
98985W        W71300  43.799   2.078  14.476
98986W        W71301  42.957  36.868   3.653
98987W        W71302  10.109  37.110   1.416
98988W        W71303   4.715  14.809  11.666
98989W        W71304  21.093  24.470   0.757
98990W        W71305  38.441  41.906  10.931
98991W        W71306  16.265  28.993   3.225
98992W        W71307  26.627   1.936   4.954
98993W        W71308  31.151  26.095   1.041
98994W        W71309  23.909  44.821   3.763
98995W        W71310  17.226  21.693  11.461
98996W        W71311  28.434   2.776   2.751
98997W        W71312  15.964  21.364  11.588
98998W        W71313  13.665   9.296   0.116
98999W        W71314  18.458   7.230  11.312
99000W        W71315   5.266   3.887   3.334
99001W        W71316   4.622  10.610  13.166
99002W        W71317  19.720   2.278  11.525
99003W        W71318  42.563  30.172  10.730
99004W        W71319  16.134  17.204   1.042
99005W        W71320  15.096  37.442  14.569
99006W        W71321  23.617  15.082   1.756
99007W        W71322  19.081  42.477   4.122
99008W        W71323  23.934  26.866  13.397
99009W        W71324  12.036  16.816  13.969
99010W        W71325  36.878  37.572   2.210
99011W        W71326  20.880  12.322   0.800
99012W        W71327  28.890  30.609   3.304
99013W        W71328   5.697  10.268   4.152
99014W        W71329  35.927   2.237  14.978
99015W        W71330  12.105  38.814  13.107
99016W        W71331   7.210  17.912   1.526
99017W        W71332  28.430  34.725   1.603
99018W        W71333  38.659   7.160   3.977
99019W        W71334  11.622  22.609   3.082
99020W        W71335  28.914  18.089  14.781
99021W        W71336  18.869  43.316   2.357
99022W        W71337  41.307  22.772  11.607
99023W        W71338  22.149  21.983   1.314
99024W        W71339  44.371  11.253  12.389
99025W        W71340  21.662  34.791   0.028
99026W        W71341  11.236  43.417  14.401
99027W        W71342  31.948  25.436  12.969
99028W        W71343  42.055  19.284   2.392
99029W        W71344   2.326  18.576  12.493
99030W        W71345  13.702   5.697  11.574
99031W        W71346   1.445   1.301   1.788
99032W        W71347  38.873  22.936   5.645
99033W        W71348  35.766   8.278  11.697
99034W        W71349  17.184  14.166  11.131
99035W        W71350  28.797  36.777  12.941
99036W        W71351  29.677  39.314  12.959
99037W        W71352  21.418  12.815  14.300
99038W        W71353  16.242  34.255  13.917
99039W        W71354  10.877   9.808  14.424
99040W        W71355  39.778  14.993   1.339
99041W        W71356  28.999  10.768  12.656
99042W        W71357  33.485  37.290  14.181
99043W        W71358  40.237  26.235  13.159
99044W        W71359  36.980  29.774   2.804
99045W        W71360   5.815  30.321  13.549
99046W        W71361  23.130  24.188  12.543
99047W        W71362  35.838  10.865   0.870
99048W        W71363  22.951   9.711   0.711
99049W        W71364  21.546   8.948  12.945
99050W        W71365   2.162  40.877   0.326
99051W        W71366  42.983  15.768  10.691
99052W        W71367  18.449  31.207  13.969
99053W        W71368   5.945  22.958   3.201
99054W        W71369  34.219  22.155   3.912
99055W        W71370  35.032  27.812   3.686
99056W        W71371  18.527  35.012  11.588
99057W        W71372  32.208  33.862  12.443
99058W        W71373  26.585  41.400  11.443
99059W        W71374   6.616  20.571   4.892
99060W        W71375  20.931   7.208  13.614
99061W        W71376  35.976   5.228  11.910
99062W        W71377  14.518   8.001  12.958
99063W        W71378  28.664  26.876  14.880
99064W        W71379   5.734  39.350   3.567
99065W        W71380  14.707  24.320   3.217
99066W        W71381   3.156  32.931  11.432
99067W        W71382  16.999  30.977   4.828
99068W        W71383  23.236  30.836   3.329
99069W        W71384   4.665  15.252   3.621
99070W        W71385  40.517   6.046  12.021
99071W        W71386  41.043  44.932   4.001
99072W        W71387  19.098  19.077   1.252
99073W        W71388  29.169  12.172  13.902
99074W        W71389   4.853  34.047   2.412
99075W        W71390  20.438   8.216   4.984
99076W        W71391  16.153  26.448   1.448
99077W        W71392  13.094  38.040  11.532
99078W        W71393  24.808  29.803   3.162
99079W        W71394   9.472   4.815   3.269
99080W        W71395  38.294  11.947  14.991
99081W        W71396  13.223  39.964  14.300
99082W        W71397   9.292  34.842  12.871
99083W        W71398  37.532  13.510  11.024
99084W        W71399   3.070  34.895   3.581
99085W        W71400  30.103   2.431   4.849
99086W        W71401  43.955  19.950   1.657
99087W        W71402  17.902  31.017   0.634
99088W        W71403   3.330   7.285  11.293
99089W        W71404  37.938  22.987   0.963
99090W        W71405  20.080  38.592   4.571
99091W        W71406  36.648   7.934   4.072
99092W        W71407  41.528  24.991  14.013
99093W        W71408   2.549  39.451   2.265
99094W        W71409  35.492  17.700   4.720
99095W        W71410   0.460  33.912   4.551
99096W        W71411  25.140   6.433  10.681
99097W        W71412  10.247  40.050  11.892
99098W        W71413   9.261  24.088   3.327
99099W        W71414   5.910  26.244   4.578
99100W        W71415  31.146  26.607  14.417
99101W        W71416  11.887  37.001   0.813
99102W        W71417  34.401   8.316  11.184
99103W        W71418  31.354  38.780   2.351
99104W        W71419  13.229  39.988  13.318
99105W        W71420  43.076   6.091  11.171
99106W        W71421  25.253  22.764  12.105
99107W        W71422   2.478  20.603   3.827
99108W        W71423  42.863  10.572  11.990
99109W        W71424  40.359  25.795   5.421
99110W        W71425  43.535  44.451   0.348
99111W        W71426  21.766   8.910  11.527
99112W        W71427   4.898  10.722  12.060
99113W        W71428  15.297  28.068  10.741
99114W        W71429   2.033  18.810   2.860
99115W        W71430  17.120  43.441  14.702
99116W        W71431  28.662   5.809  13.381
99117W        W71432  37.403   7.923  12.493
99118W        W71433  27.971  28.671  12.055
99119W        W71434  37.534  25.698   4.189
99120W        W71435   8.702  11.447  12.085
99121W        W71436   1.501   1.029   2.752
99122W        W71437  39.993  20.265  12.590
99123W        W71438   0.915  14.601  10.965
99124W        W71439   6.239  16.616  14.300
99125W        W71440  27.204   4.842  11.029
99126W        W71441  22.080  22.247  12.350
99127W        W71442   2.877  35.021  11.211
99128W        W71443   9.299  15.120   4.791
99129W        W71444  38.372  23.659   2.741
99130W        W71445  29.944  34.174  12.898
99131W        W71446  39.075  15.088  12.383
99132W        W71447   5.549  12.693   3.645
99133W        W71448  17.162  18.438   3.740
99134W        W71449  29.356  17.283  12.973
99135W        W71450  38.802  44.101   4.133
99136W        W71451  26.584  32.598  14.946
99137W        W71452   8.145  14.178   0.388
99138W        W71453   7.494  41.591   0.847
99139W        W71454  43.115   7.444   9.884
99140W        W71455  33.540   2.017  14.907
99141W        W71456  26.073  12.721   0.189
99142W        W71457  33.200  31.938  12.134
99143W        W71458  17.730  22.890   3.007
99144W        W71459   0.001   2.843   3.894
99145W        W71460  10.973  40.360   4.125
99146W        W71461  18.496  39.472  12.317
99147W        W71462  40.691  11.035   1.107
99148W        W71463  40.753   5.263  11.455
99149W        W71464   5.978  30.498  11.715
99150W        W71465  31.977  11.968   1.833
99151W        W71466  26.687  20.308   2.877
99152W        W71467  16.046   8.261  11.559
99153W        W71468  37.706  14.040   5.166
99154W        W71469  18.505  24.732   1.898
99155W        W71470  15.374  21.123   0.955
99156W        W71471  23.271  43.810  13.346
99157W        W71472  30.953  10.304  14.917
99158W        W71473  23.510   8.517   1.708
99159W        W71474  34.531  34.332  13.547
99160W        W71475  37.016  39.447  11.996
99161W        W71476  31.367  44.535   3.621
99162W        W71477  40.477   9.705  10.757
99163W        W71478  41.774  40.854  14.360
99164W        W71479  18.347  38.037  11.963
99165W        W71480  11.792  13.283   0.456
99166W        W71481   7.744  31.612  11.094
99167W        W71482  13.991  21.526  11.107
99168W        W71483  32.881  34.197  11.512
99169W        W71484  44.421  30.893   0.794
99170W        W71485  13.052  37.551   3.289
99171W        W71486   7.464   6.529  11.171
99172W        W71487   2.372  37.639  12.473
99173W        W71488  22.129  19.130   0.049
99174W        W71489   4.819  16.239   0.308
99175W        W71490  13.846   7.418   2.247
99176W        W71491   5.186   0.541  13.903
99177W        W71492  42.888  21.777   3.095
99178W        W71493   1.076  15.665   3.086
99179W        W71494  33.007  30.483  11.154
99180W        W71495  22.709  19.920  12.451
99181W        W71496  18.064  11.174   0.392
99182W        W71497  30.003  42.373   0.528
99183W        W71498  17.702  42.883   0.392
99184W        W71499   9.037  15.214  12.506
99185W        W71500  38.570  18.710   3.924
99186W        W71501  31.723  31.504   4.681
99187W        W71502  31.989  38.056   4.848
99188W        W71503  38.059   5.209  13.777
99189W        W71504   1.915   1.570   3.614
99190W        W71505   1.923  36.527  13.871
99191W        W71506  19.761   9.433  13.743
99192W        W71507   2.499  19.316   3.532
99193W        W71508  26.699  26.983  10.597
99194W        W71509  41.589  23.825  10.647
99195W        W71510  20.800   4.305   1.663
99196W        W71511  24.294  24.356  11.959
99197W        W71512  41.787  11.020   0.426
99198W        W71513  40.236   3.670   0.510
99199W        W71514   1.043  22.749  12.448
99200W        W71515  38.873  28.057  12.014
99201W        W71516  11.198  24.251   4.626
99202W        W71517   0.452  44.744  10.755
99203W        W71518  20.221  17.276   1.840
99204W        W71519  17.688   0.889  13.081
99205W        W71520  44.765  14.514   1.032
99206W        W71521  13.957  16.212  13.068
99207W        W71522   1.903  22.164   3.950
99208W        W71523   9.166  27.760  12.553
99209W        W71524   8.670  13.319   3.677
99210W        W71525  32.333  27.056  14.998
99211W        W71526  37.942  13.387  13.007
99212W        W71527  39.830   8.599  13.483
99213W        W71528  38.765  28.781   4.281
99214W        W71529  15.569   6.230   1.647
99215W        W71530  19.090  36.809   2.260
99216W        W71531  32.973   4.454   1.939
99217W        W71532  40.847  43.323   3.066
99218W        W71533  11.671  39.931   4.580
99219W        W71534  20.749   4.346  12.105
99220W        W71535   2.246  38.764  11.601
99221W        W71536   8.067   4.352   0.148
99222W        W71537  13.322  34.097   1.849
99223W        W71538   1.208  23.232  10.659
99224W        W71539  32.854   3.209   3.801
99225W        W71540   2.435  19.932  13.970
99226W        W71541  22.237   4.752  12.473
99227W        W71542   8.399  20.511   0.293
99228W        W71543  39.242   0.780   2.270
99229W        W71544  31.845  32.357  12.992
99230W        W71545  39.568  11.857   0.451
99231W        W71546  37.051  44.071   1.742
99232W        W71547  41.618   6.389   1.348
99233W        W71548   1.428   1.568   3.164
99234W        W71549  35.058  39.944  10.640
99235W        W71550  41.197  37.113  12.802
99236W        W71551  32.292  15.585   2.845
99237W        W71552  37.894  15.634  11.400
99238W        W71553   8.904  28.022   0.532
99239W        W71554  17.594  20.229   3.332
99240W        W71555  34.473  34.012   4.129
99241W        W71556  40.548  21.600  13.457
99242W        W71557  38.981  25.650  14.167
99243W        W71558  25.669  25.046  12.023
99244W        W71559  14.855   7.756  13.782
99245W        W71560   7.114  34.384  14.280
99246W        W71561  23.251  39.757   0.642
99247W        W71562   0.419  11.840   0.789
99248W        W71563  12.195  13.356   2.103
99249W        W71564   9.698  36.998  14.050
99250W        W71565  38.401  43.597   4.055
99251W        W71566   9.001  19.632  11.623
99252W        W71567  28.583  10.408  13.540
99253W        W71568  10.244  42.465   2.635
99254W        W71569   4.250  30.901  12.923
99255W        W71570  42.776  38.401   2.255
99256W        W71571  39.843  14.031  12.766
99257W        W71572  32.550  38.861  13.012
99258W        W71573  34.309  36.204   3.659
99259W        W71574   9.099  28.532  14.274
99260W        W71575  16.018  25.007  12.391
99261W        W71576  30.663  34.480   4.614
99262W        W71577  12.634   7.399  12.925
99263W        W71578  38.357  39.932   0.726
99264W        W71579  29.612  25.049   2.397
99265W        W71580  32.574  10.906   1.454
99266W        W71581  17.853  16.229   0.919
99267W        W71582  20.317  10.620  13.775
99268W        W71583  24.293  22.640  10.565
99269W        W71584  22.736  33.682   0.842
99270W        W71585  10.321  19.223   4.563
99271W        W71586  24.968  42.228   1.268
99272W        W71587  31.416  41.461   0.368
99273W        W71588  26.957  36.319   0.725
99274W        W71589  32.829  20.111  12.189
99275W        W71590  21.482  16.665   0.381
99276W        W71591  41.989  28.725   1.650
99277W        W71592  34.390   8.934  14.105
99278W        W71593  29.552  37.512  13.131
99279W        W71594  20.686  24.236   2.351
99280W        W71595   0.304  40.538   4.612
99281W        W71596  27.451  38.343   0.465
99282W        W71597   1.983  39.922   1.473
99283W        W71598  36.324  40.413   0.320
99284W        W71599  30.669  43.511   4.173
99285W        W71600  40.004  36.347  10.697
99286W        W71601  30.571  21.884  12.663
99287W        W71602   2.924  43.411  10.754
99288W        W71603   1.311   2.331   0.845
99289W        W71604  37.016  15.198   1.007
99290W        W71605  39.988  29.111   4.594
99291W        W71606  35.963  23.794  11.610
99292W        W71607  15.259   5.287  14.826
99293W        W71608  37.545  29.054   3.762
99294W        W71609  21.198   1.006  12.902
99295W        W71610  10.613  12.104  13.433
99296W        W71611   8.667  35.877  13.912
99297W        W71612  29.500  22.032  11.119
99298W        W71613   9.309  35.763  13.173
99299W        W71614   3.260  28.532  13.520
99300W        W71615  24.922   7.624   1.221
99301W        W71616  28.704  11.240  10.979
99302W        W71617  28.066  18.467   3.312
99303W        W71618  12.340  16.352  14.869
99304W        W71619  17.863  25.400   1.302
99305W        W71620  20.334  23.113   3.272
99306W        W71621  25.928  23.636   1.074
99307W        W71622  31.689  35.706  13.915
99308W        W71623  25.477  17.599   2.203
99309W        W71624  21.159  22.150  12.629
99310W        W71625  29.960  26.341   2.336
99311W        W71626  34.531   1.381   4.563
99312W        W71627  41.889   0.950  13.293
99313W        W71628   3.265  35.073  10.864
99314W        W71629  31.185   7.776   3.224
99315W        W71630  13.668   1.546   0.855
99316W        W71631  38.772  14.732   3.475
99317W        W71632  26.126  34.132   1.685
99318W        W71633  17.860  15.124   2.114
99319W        W71634  13.567  31.132  11.147
99320W        W71635  33.607  39.897  11.756
99321W        W71636  32.762   3.928  13.375
99322W        W71637  44.783  10.368  11.744
99323W        W71638   6.766  17.257   1.290
99324W        W71639   9.707  44.036   4.765
99325W        W71640  24.214  32.567  12.088
99326W        W71641  21.095  31.962  11.625
99327W        W71642  44.997  13.387   3.316
99328W        W71643   1.380  21.342   1.891
99329W        W71644  27.815  33.416  11.066
99330W        W71645   5.888  34.466  13.425
99331W        W71646  38.549   0.024   3.653
99332W        W71647  12.177  19.198  13.851
99333W        W71648  12.291  22.606   1.901
99334W        W71649  31.387  42.700   3.257
99335W        W71650  10.766   6.513   4.684
99336W        W71651  23.580  33.080  12.982
99337W        W71652  25.933  42.502  11.565
99338W        W71653  19.564   1.798   3.752
99339W        W71654   2.329  25.056  13.872
99340W        W71655  33.783  17.692   1.728
99341W        W71656  26.422  22.480  12.368
99342W        W71657  44.820   8.812   4.556
99343W        W71658  23.814  26.977   0.866
99344W        W71659  37.639   0.893   0.493
99345W        W71660  18.174  31.364   3.787
99346W        W71661  15.598  25.693   3.687
99347W        W71662  32.923  42.316   2.962
99348W        W71663  36.932  26.168   1.940
99349W        W71664  17.069  30.320  11.425
99350W        W71665  23.962  38.300   0.210
99351W        W71666   0.705  18.362  14.419
99352W        W71667  28.537  37.658  13.361
99353W        W71668  42.467  10.608   0.601
99354W        W71669  13.741  22.618   1.416
99355W        W71670   7.812  33.342  10.187
99356W        W71671   9.605   3.937   0.829
99357W        W71672  42.768  32.783   1.379
99358W        W71673  23.776  38.109  11.181
99359W        W71674  21.277   7.742   1.348
99360W        W71675   3.929  11.251   2.295
99361W        W71676  42.552   6.824  13.309
99362W        W71677  15.605  41.896  14.787
99363W        W71678  24.709  27.020   4.108
99364W        W71679  35.424  12.358  12.966
99365W        W71680  24.620  18.548  11.689
99366W        W71681   7.285  33.399   3.380
99367W        W71682  10.194  16.988   2.444
99368W        W71683   5.156  23.240  12.080
99369W        W71684   7.583  28.637   4.043
99370W        W71685   3.350  28.105  12.336
99371W        W71686  43.520  16.620  10.464
99372W        W71687   0.981  34.136  10.352
99373W        W71688  31.825  33.534  10.975
99374W        W71689  13.119  39.877   1.321
99375W        W71690  40.511  13.247   5.054
99376W        W71691   4.912  36.851  13.476
99377W        W71692   4.304   8.630  11.986
99378W        W71693  34.535  15.849  11.434
99379W        W71694  43.267  40.739   2.813
99380W        W71695  26.145  39.014   5.135
99381W        W71696  38.926   4.970   3.561
99382W        W71697  18.102   8.142   1.692
99383W        W71698   2.705  14.843  10.798
99384W        W71699  24.448  43.993   2.542
99385W        W71700  13.920  44.401  12.083
99386W        W71701  26.831  38.555   1.572
99387W        W71702  30.640  41.266  10.646
99388W        W71703   1.076   7.294  14.922
99389W        W71704  29.496  21.317  13.357
99390W        W71705  10.143  13.200   4.935
99391W        W71706  14.291  28.957  12.987
99392W        W71707  19.782  25.418  11.980
99393W        W71708  43.316  35.522   3.144
99394W        W71709  23.726  14.170  12.509
99395W        W71710   1.786  36.270   0.284
99396W        W71711  32.535  35.200   4.244
99397W        W71712  16.777  25.573   0.224
99398W        W71713  40.095  19.078  10.704
99399W        W71714   1.532  10.317   5.395
99400W        W71715  14.241   7.239   4.655
99401W        W71716  32.624  40.507  13.066
99402W        W71717  38.465  38.890   2.662
99403W        W71718  20.264  41.799   5.061
99404W        W71719  22.224   0.831   4.656
99405W        W71720  20.406  34.656   0.278
99406W        W71721  23.018  30.882   2.750
99407W        W71722   8.740   4.864  14.894
99408W        W71723  33.511  33.614   0.960
99409W        W71724  15.189  25.203  13.031
99410W        W71725  21.210  29.967   4.088
99411W        W71726   6.709  26.465  13.885
99412W        W71727  16.171  13.407   2.836
99413W        W71728  19.577  35.633   3.089
99414W        W71729  38.628  22.248  14.294
99415W        W71730  32.765  31.503  13.954
99416W        W71731   3.293  12.584  14.047
99417W        W71732  27.181  31.177  11.010
99418W        W71733   5.818  39.037  10.479
99419W        W71734  30.746   4.243   2.778
99420W        W71735  19.583  32.075  12.544
99421W        W71736   5.239  29.621  14.032
99422W        W71737  25.178  13.040   1.109
99423W        W71738  15.817  17.176  13.538
99424W        W71739  37.614  38.585   0.733
99425W        W71740  29.353  39.096   1.406
99426W        W71741  24.243  35.015  13.755
99427W        W71742  14.178  15.517  13.850
99428W        W71743   1.142  42.195  11.239
99429W        W71744  32.031  39.854  13.114
99430W        W71745  41.017  34.129   1.015
99431W        W71746  20.166   5.784  14.261
99432W        W71747   3.301  43.314  12.626
99433W        W71748  10.836   5.289  12.027
99434W        W71749  30.585  30.685  12.471
99435W        W71750  44.893  27.958   2.584
99436W        W71751  39.009   6.774  13.289
99437W        W71752  28.096   8.660   1.228
99438W        W71753   6.744  36.925  11.668
99439W        W71754  10.341  25.491  11.492
99440W        W71755  25.091  24.964   3.756
99441W        W71756  35.405  29.447  12.947
99442W        W71757  20.064  17.820  14.457
99443W        W71758  13.291  25.069  14.878
99444W        W71759   2.879  37.969   4.790
99445W        W71760   9.198  14.429   2.411
99446W        W71761  12.120  35.391  13.328
99447W        W71762  33.373  13.679   1.675
99448W        W71763  17.218  33.360  13.118
99449W        W71764  12.166  19.948   1.825
99450W        W71765  25.871  38.517  11.488
99451W        W71766  19.123  36.824  10.583
99452W        W71767  40.771  11.742  14.882
99453W        W71768  39.887   6.701  14.207
99454W        W71769   7.981  11.191  10.815
99455W        W71770  22.523   5.157  13.850
99456W        W71771  15.854  39.835   3.634
99457W        W71772  35.130  11.027   1.822
99458W        W71773  27.454  23.732   0.373
99459W        W71774   4.736  13.405  11.661
99460W        W71775  41.924   1.192  12.656
99461W        W71776  17.086  25.246  11.267
99462W        W71777  34.589  16.269  14.469
99463W        W71778  41.220   8.697  12.014
99464W        W71779  39.734   9.863   1.804
99465W        W71780  23.713  43.224   1.389
99466W        W71781  44.477   6.477  13.490
99467W        W71782   2.690   0.729   4.373
99468W        W71783  41.249   0.425   3.168
99469W        W71784  10.307  26.456   0.076
99470W        W71785   3.258  29.994  14.726
99471W        W71786  24.696  31.200   1.320
99472W        W71787   8.669  22.308   2.548
99473W        W71788  20.076  11.457  13.701
99474W        W71789  16.315  42.267  11.581
99475W        W71790   1.211  44.205   1.005
99476W        W71791  23.018  26.577   3.108
99477W        W71792  29.394  31.733  11.717
99478W        W71793  22.500  21.065  13.970
99479W        W71794  41.947  25.231  11.325
99480W        W71795  11.288   8.901  10.694
99481W        W71796  37.794  12.911   3.313
99482W        W71797  38.164  18.693   4.776
99483W        W71798  28.655   4.809   1.354
99484W        W71799   8.799  35.554  13.158
99485W        W71800  44.861   4.427  12.067
99486W        W71801  13.176  42.311   0.978
99487W        W71802   7.710  33.489   0.268
99488W        W71803  15.355  37.542  13.440
99489W        W71804  27.929   9.879  13.363
99490W        W71805   6.981  30.874  13.668
99491W        W71806  31.629  38.147   1.995
99492W        W71807  10.849   6.813   1.611
99493W        W71808  20.204  16.886  14.726
99494W        W71809  43.010   5.466  13.038
99495W        W71810  35.388  23.983  11.019
99496W        W71811  15.656  22.675   3.249
99497W        W71812  43.330  25.072  11.581
99498W        W71813  18.273  22.714  14.682
99499W        W71814  26.677  31.622  11.995
99500W        W71815   6.163   2.633   0.747
99501W        W71816   9.770  22.242   1.681
99502W        W71817  15.660  16.185   4.166
99503W        W71818  44.888   0.473  12.675
99504W        W71819  42.709  21.401  13.109
99505W        W71820  19.971  42.497   4.311
99506W        W71821  26.525  12.834   2.386
99507W        W71822   4.624   1.304   2.343
99508W        W71823  12.230  13.349  11.639
99509W        W71824  26.188  31.753   4.807
99510W        W71825  29.501  19.976  11.273
99511W        W71826   9.754  33.484   2.239
99512W        W71827   8.450   1.876   2.275
99513W        W71828  43.859  40.743  13.543
99514W        W71829  24.943  18.646   4.711
99515W        W71830  11.609   4.314   3.038
99516W        W71831  19.198  27.741  12.008
99517W        W71832  18.293  14.180   4.182
99518W        W71833  17.255   0.277  11.054
99519W        W71834  11.299  34.715   3.134
99520W        W71835  17.828  19.737   4.157
99521W        W71836  43.871   3.202   0.768
99522W        W71837   8.702  26.600  12.938
99523W        W71838  41.347  18.115  12.053
99524W        W71839  42.271  21.122   4.782
99525W        W71840  33.647  10.810  12.389
99526W        W71841  30.392  28.225   3.687
99527W        W71842  33.607  28.555  14.261
99528W        W71843  41.924  11.664   3.550
99529W        W71844   8.916   6.957  12.194
99530W        W71845  38.703   7.343   1.970
99531W        W71846  28.707   9.708  12.941
99532W        W71847  39.512  17.143  14.327
99533W        W71848  31.053  32.844  12.957
99534W        W71849  30.027  30.429  10.534
99535W        W71850  20.303  10.722   0.504
99536W        W71851  32.597   0.755  12.499
99537W        W71852  41.278  40.248  11.579
99538W        W71853  22.280   0.810  14.770
99539W        W71854  40.979  16.894  12.004
99540W        W71855   7.847  43.291  12.990
99541W        W71856  28.604  30.308  14.570
99542W        W71857   0.159  38.125   3.621
99543W        W71858  43.927  24.589   2.882
99544W        W71859  36.473  27.065   1.746
99545W        W71860  13.285  31.022   2.640
99546W        W71861  20.330   0.746  14.921
99547W        W71862  33.464  22.464   2.239
99548W        W71863  26.250  30.530  11.045
99549W        W71864   6.770   8.290  12.908
99550W        W71865  25.011   4.146   4.171
99551W        W71866   5.328  17.805   1.229
99552W        W71867   7.660   1.300  13.070
99553W        W71868  11.856   7.270   3.250
99554W        W71869   3.895  10.409  13.916
99555W        W71870  44.871  15.315  10.731
99556W        W71871  33.346  27.922   2.366
99557W        W71872   0.818   1.517  13.832
99558W        W71873  35.440  34.066  13.149
99559W        W71874  44.410  27.196  12.163
99560W        W71875  37.730  14.173  12.672
99561W        W71876  23.639  32.928   4.393
99562W        W71877  25.264   7.782   4.182
99563W        W71878   7.383  25.536   1.949
99564W        W71879  39.627  42.419  11.028
99565W        W71880  26.961   9.803  13.512
99566W        W71881  20.094   0.993  11.526
99567W        W71882  19.046  12.575   1.837
99568W        W71883  42.746   0.338   4.157
99569W        W71884  23.487  11.048  13.651
99570W        W71885  39.836  25.406   5.507
99571W        W71886  23.535  35.056  14.594
99572W        W71887   8.231  43.224  11.233
99573W        W71888  41.982  33.867  13.741
99574W        W71889  36.473   9.795   1.304
99575W        W71890  16.240  24.526   4.348
99576W        W71891  19.050  38.511   0.722
99577W        W71892  22.442   5.910   1.816
99578W        W71893  34.855   8.775  12.856
99579W        W71894  24.448  10.375  10.310
99580W        W71895  34.265  34.488  11.670
99581W        W71896   7.673  14.298   0.142
99582W        W71897  42.714  28.170   0.729
99583W        W71898  44.276  29.681   3.673
99584W        W71899  44.273   4.808  13.942
99585W        W71900   4.362  28.429  13.831
99586W        W71901  31.410  15.001   3.666
99587W        W71902   2.245  19.828  13.475
99588W        W71903   6.391  38.235  12.963
99589W        W71904  39.485   2.723   2.335
99590W        W71905  14.391  20.891  13.420
99591W        W71906   6.007   7.955  11.911
99592W        W71907  36.843  24.152  10.854
99593W        W71908  38.711  15.132  13.362
99594W        W71909  13.122  39.085   1.791
99595W        W71910  28.121   8.551   5.037
99596W        W71911   3.294   0.609   3.482
99597W        W71912  42.923  22.553   2.058
99598W        W71913  14.811  19.866   4.743
99599W        W71914  17.376  32.509  13.448
99600W        W71915  36.340  34.080  14.958
99601W        W71916  30.180  29.752  10.996
99602W        W71917  22.526   5.902   2.855
99603W        W71918   2.503  35.356   1.864
99604W        W71919  19.848  20.681   1.869
99605W        W71920  18.362  23.072   3.679
99606W        W71921  24.577   5.566   2.965
99607W        W71922   6.424  37.577  13.356
99608W        W71923  18.735   0.884   2.411
99609W        W71924  26.289  23.592   3.620
99610W        W71925   3.966  43.590   0.840
99611W        W71926   1.044   4.699   2.367
99612W        W71927  38.849  13.328  10.876
99613W        W71928  31.692  29.777  11.219
99614W        W71929  29.707  42.555   2.403
99615W        W71930   8.603   3.636   1.682
99616W        W71931  43.322   2.324  11.253
99617W        W71932  39.412  43.360   3.589
99618W        W71933  19.786  21.466  10.753
99619W        W71934  10.355  19.306   0.959
99620W        W71935  23.565   9.270  11.235
99621W        W71936  25.001  28.165   0.315
99622W        W71937  23.559  22.174  14.378
99623W        W71938   1.976   0.675  13.038
99624W        W71939   7.449  34.344  13.819
99625W        W71940  39.717  35.432  13.021
99626W        W71941   3.846  19.429   5.075
99627W        W71942  38.070  21.757   2.760
99628W        W71943  17.352  30.491  14.886
99629W        W71944  16.789  22.610  14.852
99630W        W71945  16.381   6.242  12.578
99631W        W71946  31.438  13.074  11.543
99632W        W71947  41.961  27.590   0.220
99633W        W71948  19.430  34.530  11.635
99634W        W71949  21.265  42.774  14.784
99635W        W71950   7.666  44.944   1.260
99636W        W71951  17.234   8.691  14.670
99637W        W71952   0.278   0.887  11.916
99638W        W71953   9.850  42.450  13.322
99639W        W71954   9.310  26.623   4.862
99640W        W71955   8.626  42.415   4.642
99641W        W71956   8.160  29.781  12.895
99642W        W71957   5.478  16.108  14.348
99643W        W71958  23.126  31.453  14.932
99644W        W71959  39.826  25.503   0.995
99645W        W71960  20.712   0.345   1.312
99646W        W71961   9.280  20.537   1.402
99647W        W71962  29.760  30.895  10.427
99648W        W71963  18.342  36.002   4.926
99649W        W71964  15.563   2.466  14.833
99650W        W71965  31.975  22.110  10.680
99651W        W71966   8.854  11.244  11.101
99652W        W71967  20.186  14.740   0.863
99653W        W71968  34.440   8.367   4.343
99654W        W71969  24.020  17.136  11.500
99655W        W71970   1.300  22.663  13.058
99656W        W71971  39.020  24.675   0.927
99657W        W71972  26.407  23.183   3.306
99658W        W71973  37.630  39.528  12.885
99659W        W71974   3.289  37.995   4.442
99660W        W71975  35.466  21.266  10.712
99661W        W71976  11.073  40.536  13.033
99662W        W71977  21.923  14.173   1.861
99663W        W71978   5.000   5.705  13.109
99664W        W71979  31.142  34.405  10.586
99665W        W71980  42.218  43.930   0.821
99666W        W71981  28.910   3.122  11.966
99667W        W71982   3.284  22.916  12.382
99668W        W71983  39.506  18.328   4.601
99669W        W71984  40.701  25.455  11.129
99670W        W71985  30.556   7.338  11.176
99671W        W71986  10.266  41.358   3.101
99672W        W71987  37.842  23.545  10.073
99673W        W71988  26.011   8.380   2.931
99674W        W71989  15.666  27.576   0.907
99675W        W71990  38.162  35.552  12.304
99676W        W71991  41.233   4.660  11.507
99677W        W71992   0.470   2.334  12.574
99678W        W71993  12.392  34.147   1.935
99679W        W71994  13.791  22.762  12.482
99680W        W71995  22.717   4.388  11.837
99681W        W71996   4.712  20.307   4.001
99682W        W71997  34.807  42.933  10.997
99683W        W71998  19.149   1.638   4.084
99684W        W71999  20.611  13.702   4.077
99685W        W72000  35.706  30.731  14.724
99686W        W72001  43.084  24.157   4.089
99687W        W72002   4.767  25.592  12.994
99688W        W72003  26.133  43.294   4.853
99689W        W72004  38.473  16.359   3.890
99690W        W72005  20.587  21.982   3.579
99691W        W72006  35.007  44.461   0.053
99692W        W72007  29.755   2.690   1.398
99693W        W72008  34.334  12.675   2.953
99694W        W72009  32.938   0.405   1.708
99695W        W72010  40.770  39.368   3.170
99696W        W72011  40.588  43.007  14.007
99697W        W72012  11.185  13.605  11.198
99698W        W72013  30.041  37.803   4.540
99699W        W72014  21.110   9.576   0.692
99700W        W72015   3.787  32.662   2.790
99701W        W72016  22.310  20.158   2.914
99702W        W72017  42.107   7.175  13.354
99703W        W72018  24.348  29.116  11.989
99704W        W72019  35.205  21.241  10.263
99705W        W72020  28.189  22.579  12.039
99706W        W72021   5.154   0.386  14.906
99707W        W72022   5.418  15.647   4.129
99708W        W72023  36.362   9.287  10.470
99709W        W72024  17.049   5.197  14.234
99710W        W72025  10.362  23.150  12.929
99711W        W72026  34.016   1.606   4.484
99712W        W72027  21.977  33.526   0.448
99713W        W72028   5.131  24.015  11.178
99714W        W72029   4.733   5.381   3.769
99715W        W72030  15.043  15.099  12.374
99716W        W72031  37.596  35.572   4.597
99717W        W72032  40.795  22.282  11.099
99718W        W72033  10.876  12.863  13.069
99719W        W72034  32.999  25.814  13.950
99720W        W72035  31.440   9.171   0.424
99721W        W72036  23.667  33.875   2.375
99722W        W72037  17.559   4.649  11.542
99723W        W72038  21.267   7.696  10.907
99724W        W72039  42.014  31.558  12.075
99725W        W72040   5.931  28.962   3.750
99726W        W72041  15.689  17.827   4.774
99727W        W72042  29.660   2.743  14.920
99728W        W72043   8.373  23.106   4.207
99729W        W72044   8.443   9.842   3.413
99730W        W72045   1.995  25.997   1.917
99731W        W72046  12.025  38.439  11.314
99732W        W72047  24.130  39.571  10.764
99733W        W72048  40.536  39.464   3.719
99734W        W72049  26.237  35.457  10.637
99735W        W72050  44.405  10.187   1.938
99736W        W72051   2.734   0.373  11.037
99737W        W72052   3.890   8.974   4.597
99738W        W72053  13.806  39.433  12.376
99739W        W72054  13.844   9.141  13.380
99740W        W72055  19.739  33.722  11.205
99741W        W72056  33.883  43.471   2.222
99742W        W72057  44.009  38.029   0.706
99743W        W72058  39.452   9.942  13.851
99744W        W72059   8.673   3.851  13.553
99745W        W72060  30.645  25.682   3.717
99746W        W72061  31.160   8.370   4.534
99747W        W72062  34.185  15.152  12.086
99748W        W72063  16.620   9.937   2.210
99749W        W72064  15.894  44.375  12.323
99750W        W72065   9.892  38.778  14.984
99751W        W72066   3.174  34.612   0.129
99752W        W72067  35.479  24.150   2.146
99753W        W72068  19.962  11.778  13.319
99754W        W72069  42.588  17.951   4.459
99755W        W72070  31.409  19.087  12.839
99756W        W72071   4.854  10.848   3.994
99757W        W72072  32.594  38.495   3.346
99758W        W72073  38.037  39.441   1.377
99759W        W72074  10.726  34.519   3.835
99760W        W72075  38.546  39.967  11.375
99761W        W72076  19.152  16.094   2.773
99762W        W72077  32.321   1.887   1.208
99763W        W72078  32.058  37.449  14.004
99764W        W72079  10.270  12.401   1.778
99765W        W72080   9.263  12.064  12.392
99766W        W72081   7.950  36.869  12.887
99767W        W72082  27.016  16.053  12.919
99768W        W72083  38.349  39.736   1.754
99769W        W72084   0.812  11.162   1.015
99770W        W72085  34.023  24.261  10.966
99771W        W72086  12.261  20.056  10.646
99772W        W72087   5.797  37.562   3.729
99773W        W72088   8.445  16.751  14.741
99774W        W72089  35.483   5.592  12.444
99775W        W72090  17.428  18.800  13.497
99776W        W72091  20.668  41.480  13.028
99777W        W72092  39.859  18.322   1.542
99778W        W72093  40.691   5.657  11.101
99779W        W72094  39.342  38.729   0.059
99780W        W72095  32.896  18.728  14.870
99781W        W72096  33.795  24.700  11.659
99782W        W72097   3.436  17.366  11.907
99783W        W72098  42.385  29.549   2.551
99784W        W72099  39.835  22.718   4.808
99785W        W72100  35.616  28.227  12.101
99786W        W72101  10.528  32.415   4.180
99787W        W72102  17.280   1.149   1.502
99788W        W72103  24.690   1.168   0.289
99789W        W72104  39.514  31.681  13.364
99790W        W72105  20.337  39.985   1.898
99791W        W72106  26.542  27.724  11.260
99792W        W72107  20.803  16.690  13.797
99793W        W72108   5.301  32.524   3.779
99794W        W72109  20.292  20.523   4.224
99795W        W72110  36.601  33.702   9.742
99796W        W72111  19.201  16.271  10.864
99797W        W72112  10.353   1.787   0.776
99798W        W72113  41.979  21.966  13.610
99799W        W72114  23.752  41.100   1.171
99800W        W72115  38.925  35.354  14.470
99801W        W72116   0.041   6.337   3.331
99802W        W72117  36.438  14.188   2.413
99803W        W72118  18.646  26.652  13.832
99804W        W72119  37.554  19.234  13.056
99805W        W72120  33.988  36.409  12.544
99806W        W72121  13.293   8.205   1.335
99807W        W72122  30.083   9.900  13.853
99808W        W72123  20.855  12.694  11.925
99809W        W72124  33.368  35.973  12.047
99810W        W72125  15.878  35.767  11.933
99811W        W72126  35.096   6.137  12.891
99812W        W72127  23.251  44.701  11.830
99813W        W72128  17.577  14.734  14.699
99814W        W72129  24.696   2.690  10.551
99815W        W72130   2.476  17.376   3.162
99816W        W72131   8.190  30.388   1.440
99817W        W72132  20.247   5.736   3.891
99818W        W72133  25.652   1.609  11.953
99819W        W72134   4.406  20.216  11.715
99820W        W72135   9.294  22.758   0.499
99821W        W72136   9.928  38.015  13.861
99822W        W72137  11.079  25.169  13.031
99823W        W72138   9.278   9.818  13.976
99824W        W72139  25.134  35.970  11.960
99825W        W72140  36.023   5.190   1.474
99826W        W72141  22.110  18.758   2.738
99827W        W72142   5.385   6.170   0.750
99828W        W72143  44.074  40.923  13.972
99829W        W72144   2.784   9.905  10.688
99830W        W72145  42.855   3.939  12.582
99831W        W72146  19.338  10.811  13.556
99832W        W72147  42.789   2.375  11.245
99833W        W72148  15.700  28.571   4.192
99834W        W72149  37.608  28.073   4.560
99835W        W72150   1.242  24.818  12.892
99836W        W72151   4.180  44.438   2.213
99837W        W72152  42.400  37.879  13.049
99838W        W72153  10.945   7.344   4.113
99839W        W72154  20.187  25.029  12.705
99840W        W72155  13.121  13.883  10.750
99841W        W72156  14.559  28.758  11.977
99842W        W72157   8.571  35.200   4.702
99843W        W72158   3.841  44.984  14.087
99844W        W72159  14.626  34.756  14.366
99845W        W72160  28.229  22.262  14.315
99846W        W72161  42.555   4.322   2.655
99847W        W72162  32.135   2.319  13.928
99848W        W72163  34.020  44.715   0.944
99849W        W72164  44.536  16.251   0.259
99850W        W72165  17.244  31.037  10.073
99851W        W72166  22.966  42.706   1.220
99852W        W72167  41.258  31.871  13.109
99853W        W72168  11.337  42.816   2.420
99854W        W72169  27.262   6.814  12.471
99855W        W72170  27.693  29.974  11.680
99856W        W72171   9.765  19.148   9.905
99857W        W72172  27.652  34.993   2.849
99858W        W72173  16.566  27.054   2.748
99859W        W72174  43.072   1.164  14.484
99860W        W72175   0.836   6.964  14.276
99861W        W72176  40.906  21.588  13.049
99862W        W72177  38.645  33.922  14.697
99863W        W72178  29.664  24.173  10.300
99864W        W72179  44.850  40.454   4.884
99865W        W72180  21.866  26.901   1.427
99866W        W72181  18.513  23.773  10.466
99867W        W72182  36.106   1.763  10.510
99868W        W72183   2.881  37.606  12.985
99869W        W72184  37.044   0.271   2.391
99870W        W72185   5.400  25.054  14.490
99871W        W72186   7.756  40.238  11.248
99872W        W72187  43.347   0.433   3.800
99873W        W72188   0.731  10.755  12.901
99874W        W72189  14.623  16.352  12.463
99875W        W72190  32.424  15.280   3.239
99876W        W72191  17.493  16.217  11.512
99877W        W72192   1.453   3.937  12.094
99878W        W72193  15.160  12.825   1.329
99879W        W72194  20.221  34.806  10.986
99880W        W72195  22.753  21.980  14.880
99881W        W72196  17.198  27.018   3.432
99882W        W72197  32.030   5.681  14.731
99883W        W72198  18.472  19.095  13.058
99884W        W72199  41.455  44.938   3.249
99885W        W72200  41.415  27.738  14.344
99886W        W72201  41.870  32.985  11.273
99887W        W72202   9.358  28.280   0.400
99888W        W72203  38.850  10.149  12.570
99889W        W72204  41.077  21.753   1.331
99890W        W72205  11.857  12.594  10.707
99891W        W72206  27.714  39.259  11.016
99892W        W72207  16.099  11.231  12.311
99893W        W72208   8.170  13.243  12.383
99894W        W72209  38.408   6.791   2.598
99895W        W72210   4.269  20.090   4.169
99896W        W72211  17.170  33.076  13.743
99897W        W72212  37.449  36.090   4.596
99898W        W72213  30.402   8.009   4.195
99899W        W72214  42.279  29.477   0.360
99900W        W72215  31.633  40.258  12.901
99901W        W72216  33.465   0.337   1.677
99902W        W72217  15.700  41.824   1.833
99903W        W72218  34.830  18.481  10.708
99904W        W72219   9.411  30.438  14.465
99905W        W72220  42.236  14.809   1.881
99906W        W72221  17.678   6.669   3.328
99907W        W72222  41.338  24.931  12.099
99908W        W72223  42.499   7.358   1.341
99909W        W72224  16.325  19.480   0.815
99910W        W72225   5.952  38.895   0.735
99911W        W72226   2.095  42.777  12.555
99912W        W72227  22.660  44.734  12.921
99913W        W72228  27.037  26.010  10.936
99914W        W72229   0.496  22.162  14.472
99915W        W72230  15.790  18.870   4.034
99916W        W72231  27.872  20.728   2.806
99917W        W72232  13.698  34.076  11.403
99918W        W72233  34.001  21.619  14.484
99919W        W72234  33.353  40.708   4.882
99920W        W72235  16.453  27.913   2.920
99921W        W72236  11.150   2.155   2.269
99922W        W72237  27.400   3.443  11.144
99923W        W72238  17.799  11.850  12.381
99924W        W72239   1.905  19.777  14.312
99925W        W72240  30.762  23.190   0.058
99926W        W72241  13.753  36.893   1.802
99927W        W72242  18.343  40.930  13.696
99928W        W72243   2.273  29.718  11.184
99929W        W72244  17.072  18.860  11.496
99930W        W72245  32.612  41.885  12.179
99931W        W72246  31.782  19.455  12.869
99932W        W72247  30.878  18.179  12.025
99933W        W72248  43.871   1.631   4.184
99934W        W72249   3.377  40.641   0.192
99935W        W72250   0.212  33.822  11.976
99936W        W72251  40.492  14.973  13.566
99937W        W72252   2.450  17.698   1.298
99938W        W72253  29.009  38.424  10.713
99939W        W72254  24.797  16.132   3.118
99940W        W72255  17.068  12.025   0.660
99941W        W72256  22.432  19.642   0.790
99942W        W72257  18.864  33.481  11.591
99943W        W72258   6.895  13.866   4.680
99944W        W72259   4.236  15.219  10.540
99945W        W72260   0.932  17.909  14.437
99946W        W72261  20.442  16.240  13.994
99947W        W72262  24.591  36.587  13.482
99948W        W72263   2.684  43.989  12.092
99949W        W72264  27.756  37.507   4.630
99950W        W72265  24.149  20.971  11.146
99951W        W72266   7.946  44.932  14.883
99952W        W72267  36.266  16.913  14.775
99953W        W72268  30.263   0.868   3.165
99954W        W72269   5.769  37.056   1.926
99955W        W72270  30.013  20.634   2.808
99956W        W72271  19.616  31.089   4.108
99957W        W72272   3.299  39.828  11.471
99958W        W72273   9.315  16.343  13.476
99959W        W72274  17.754  27.112   3.540
99960W        W72275  38.437  13.593  11.385
99961W        W72276  22.962  24.616   1.341
99962W        W72277  40.974   2.298   3.634
99963W        W72278  32.587  41.829   2.358
99964W        W72279  12.324  14.732  11.816
99965W        W72280  33.513  29.909   3.738
99966W        W72281  42.457  35.410   3.325
99967W        W72282  25.513  38.775  14.870
99968W        W72283   7.141   8.736  11.023
99969W        W72284  20.752  42.834  14.846
99970W        W72285   7.134   4.045  12.474
99971W        W72286  29.150  36.005  14.560
99972W        W72287  28.254   6.893   2.837
99973W        W72288  31.580   0.623  14.728
99974W        W72289  34.472  23.752   3.162
99975W        W72290  18.305  12.859   4.917
99976W        W72291   0.522  12.894   9.747
99977W        W72292  30.434   5.891   0.482
99978W        W72293  44.780  11.960   9.891
99979W        W72294  24.012  41.594  12.116
99980W        W72295  14.565  37.995  12.517
99981W        W72296  18.636  35.335   5.255
99982W        W72297  38.006   3.877  13.189
99983W        W72298  41.540   2.339  14.377
99984W        W72299  21.112  17.733  14.413
99985W        W72300  22.670  24.669   3.346
99986W        W72301  17.835  23.076   1.775
99987W        W72302  40.761   3.502   1.350
99988W        W72303  24.529  14.354   0.230
99989W        W72304  34.065  29.680  12.812
99990W        W72305  13.581  29.120  12.277
99991W        W72306  33.021   6.945  11.988
99992W        W72307   5.658  30.090  12.397
99993W        W72308  42.837  11.087  12.417
99994W        W72309  10.849   6.257   3.353
99995W        W72310   1.462  43.055  11.180
99996W        W72311   1.542  24.900   0.147
99997W        W72312  13.699   5.570  14.371
99998W        W72313  29.520  33.430  10.696
99999W        W72314  18.510  30.844  14.862
    0W        W72315  41.285  33.814   0.363
    1W        W72316   0.080  32.514  12.064
    2W        W72317  34.318  28.023  12.289
    3W        W72318   2.491   1.960   5.055
    4W        W72319  11.255  42.113   1.480
    5W        W72320  39.856  39.823   0.944
    6W        W72321  30.543  26.479   0.254
    7W        W72322   7.195  23.482  10.526
    8W        W72323   4.504  33.380   4.222
    9W        W72324  23.650  16.758   2.188
   10W        W72325  30.677  21.584  10.690
   11W        W72326  34.805  17.912  12.650
   12W        W72327  33.975  11.240  11.470
   13W        W72328  26.401  43.474  14.007
   14W        W72329  25.216   5.412  11.602
   15W        W72330  16.590  11.762  13.479
   16W        W72331  14.614   2.421  13.536
   17W        W72332  17.852  15.775  14.298
   18W        W72333   5.221  27.418  12.647
   19W        W72334  44.819  22.248   4.155
   20W        W72335  29.132  36.836  11.540
   21W        W72336   6.549  24.930   1.394
   22W        W72337  27.068   8.861  12.314
   23W        W72338  11.904  44.094   3.873
   24W        W72339   8.392  32.525  14.706
   25W        W72340   4.300  38.474  12.889
   26W        W72341  32.726  41.254  12.634
   27W        W72342  41.864  23.585   4.574
   28W        W72343   5.294   8.116  11.500
   29W        W72344  16.686   7.248   0.571
   30W        W72345  18.940   6.123   5.017
   31W        W72346  29.009  22.312  12.501
   32W        W72347  20.533  41.234  12.428
   33W        W72348  25.096  21.221   3.818
   34W        W72349  21.515  39.813   3.223
   35W        W72350  16.564  10.291   0.237
   36W        W72351  12.387   9.858   2.766
   37W        W72352  37.421  34.340  11.603
   38W        W72353   5.169  20.986  14.801
   39W        W72354  34.176  18.082   2.786
   40W        W72355  27.939  13.330  12.116
   41W        W72356  10.922  20.524   0.085
   42W        W72357  31.055  34.856   4.202
   43W        W72358   4.480   9.339  13.987
   44W        W72359  36.356   3.249  12.572
   45W        W72360  13.302   7.011   3.560
   46W        W72361  35.563  28.456   2.811
   47W        W72362  44.666  33.206  13.937
   48W        W72363  41.416  14.919   4.606
   49W        W72364  13.458   6.191   1.751
   50W        W72365  41.452  34.894  11.138
   51W        W72366  27.403   7.119   9.980
   52W        W72367   5.356  32.401  10.887
   53W        W72368  29.065   3.440   1.448
   54W        W72369   4.427  12.695   2.564
   55W        W72370  10.249   5.451   4.248
   56W        W72371  29.669  39.737   2.784
   57W        W72372   4.863  18.697  14.934
   58W        W72373  16.230  34.978  12.102
   59W        W72374  26.015  31.317  13.652
   60W        W72375   3.554  14.783   0.350
   61W        W72376  44.326  43.831  14.217
   62W        W72377  25.181  35.886  14.061
   63W        W72378  22.286  21.473  13.638
   64W        W72379  21.574  13.135   4.034
   65W        W72380  35.020  38.861   2.021
   66W        W72381  11.664   2.224  10.821
   67W        W72382   7.883  38.765  12.355
   68W        W72383  14.577  34.411   3.362
   69W        W72384  37.473  14.470   2.640
   70W        W72385  28.910  24.498   2.480
   71W        W72386  21.988   2.285  12.994
   72W        W72387  29.713  16.812   2.171
   73W        W72388   1.406  14.269  14.937
   74W        W72389   3.809  30.938  14.030
   75W        W72390  21.178  32.622  11.058
   76W        W72391  14.146  25.174  13.811
   77W        W72392  44.274  14.369   4.508
   78W        W72393   4.358  30.734  10.429
   79W        W72394  14.562  14.206  12.004
   80W        W72395   4.690  37.391   1.619
   81W        W72396  43.511  35.812   5.189
   82W        W72397  24.972   5.600  12.009
   83W        W72398   9.264  36.845  13.844
   84W        W72399   3.745  16.851  12.552
   85W        W72400   2.556  43.033   4.709
   86W        W72401  23.862  36.750   2.803
   87W        W72402  41.569  17.604   1.467
   88W        W72403  43.148  31.592   2.321
   89W        W72404  29.618  11.536  14.782
   90W        W72405  32.683  11.909   9.889
   91W        W72406   8.321  10.146  13.517
   92W        W72407   4.605   1.881   3.916
   93W        W72408  27.543  19.247  13.340
   94W        W72409  28.707  38.979  12.837
   95W        W72410   8.885  17.834   2.203
   96W        W72411   8.549  21.029  13.333
   97W        W72412  11.467  37.339   5.254
   98W        W72413  16.151   0.858  10.732
   99W        W72414  14.002  42.831   0.273
  100W        W72415  42.767  10.093   3.787
  101W        W72416  13.913  25.346   1.395
  102W        W72417  17.526  34.555   3.869
  103W        W72418   6.669  36.361   4.944
  104W        W72419  14.340  12.846   1.320
  105W        W72420  17.611  13.709   0.068
  106W        W72421  14.739   4.102  12.463
  107W        W72422  38.536  30.275  11.661
  108W        W72423   4.368  12.961   3.730
  109W        W72424  40.987  37.066   1.777
  110W        W72425  36.564  19.251  12.139
  111W        W72426  23.000  30.339  14.311
  112W        W72427  36.423   8.114   2.747
  113W        W72428  26.057  44.918   2.755
  114W        W72429  13.236  36.107   1.712
  115W        W72430  15.019  31.159  12.062
  116W        W72431   2.211  35.989   2.652
  117W        W72432  29.605  38.789   1.851
  118W        W72433  27.248  44.192  14.048
  119W        W72434  43.281  11.387  11.201
  120W        W72435  18.626   2.660   1.958
  121W        W72436  42.445  19.782   3.252
  122W        W72437   9.715   9.407  11.535
  123W        W72438   2.678   8.605   1.777
  124W        W72439   8.808  35.850   3.643
  125W        W72440  33.087  22.280   1.914
  126W        W72441  28.425  11.626   3.662
  127W        W72442  24.788  25.504   1.820
  128W        W72443  12.470  16.506   5.425
  129W        W72444   4.487  31.373  12.941
  130W        W72445   9.557  41.245   1.931
  131W        W72446  37.473  26.203   4.273
  132W        W72447  40.280   1.001  13.134
  133W        W72448  27.496  44.839  11.538
  134W        W72449   0.416   2.982   4.175
  135W        W72450  16.325   8.391  12.119
  136W        W72451  12.882  11.625   1.701
  137W        W72452  24.154  41.023  10.973
  138W        W72453  24.467   9.675   0.821
  139W        W72454  23.335  43.897  10.701
  140W        W72455   4.061   3.385  10.675
  141W        W72456   5.888  44.499   0.254
  142W        W72457  13.347  42.035   2.299
  143W        W72458  23.057  16.405  14.352
  144W        W72459  35.022  24.609  13.123
  145W        W72460  26.048  15.322   4.592
  146W        W72461  39.455  14.175   2.516
  147W        W72462  14.749   1.477  11.447
  148W        W72463  30.973  24.204   3.179
  149W        W72464  21.164  12.897  12.452
  150W        W72465  15.613  11.802  10.706
  151W        W72466  12.321   1.143   1.784
  152W        W72467  22.100  34.884  11.852
  153W        W72468  16.201  10.697   0.214
  154W        W72469  21.168  14.666   0.816
  155W        W72470   1.575  19.631   0.705
  156W        W72471  30.532  43.940  14.642
  157W        W72472  24.983  31.556   1.643
  158W        W72473  41.407  35.489  12.428
  159W        W72474  23.206  23.261   2.857
  160W        W72475  40.857   8.290   4.624
  161W        W72476  39.958   8.217   4.601
  162W        W72477   6.272  26.725  13.817
  163W        W72478  16.982  41.035  13.441
  164W        W72479   2.160  25.759  10.695
  165W        W72480  34.842  31.810   1.415
  166W        W72481   0.514  40.633  11.096
  167W        W72482   8.394  37.486   4.095
  168W        W72483   8.861  42.355  12.866
  169W        W72484   4.337  36.075   4.171
  170W        W72485  43.392  10.137  11.654
  171W        W72486   6.995  26.156  10.514
  172W        W72487  23.992  34.160  14.588
  173W        W72488  42.346  22.716   2.812
  174W        W72489  35.089   2.707   3.235
  175W        W72490  13.626  31.982   1.403
  176W        W72491  24.567  18.579   4.362
  177W        W72492  24.286  39.613   2.672
  178W        W72493  42.505  41.348   4.637
  179W        W72494  40.051  22.259  11.540
  180W        W72495   7.803   4.686   3.205
  181W        W72496   7.596  27.013  13.916
  182W        W72497  17.378  27.272   3.831
  183W        W72498  42.303  38.047   0.327
  184W        W72499  22.013  39.792   0.876
  185W        W72500   4.346  36.603   2.414
  186W        W72501   1.296  16.699  10.693
  187W        W72502  13.313   8.168   0.422
  188W        W72503   6.852  11.111   1.755
  189W        W72504  32.967  22.252  11.061
  190W        W72505  15.090   2.201   2.984
  191W        W72506  16.225  31.955   4.644
  192W        W72507   3.454  39.400  10.576
  193W        W72508  14.736   4.516   0.860
  194W        W72509  30.372  17.277   4.212
  195W        W72510  40.813  18.504   2.360
  196W        W72511  13.568   0.881  10.947
  197W        W72512  44.733   5.192   0.389
  198W        W72513  27.241  37.881  13.435
  199W        W72514  40.377  41.034   0.946
  200W        W72515  40.266   5.891  14.327
  201W        W72516  16.219  11.744   0.298
  202W        W72517  35.591   4.240   1.957
  203W        W72518  37.776   9.912   3.997
  204W        W72519  19.323   7.123   0.386
  205W        W72520  18.759  15.132  12.688
  206W        W72521  25.403  35.546   1.666
  207W        W72522  44.203   1.230  13.921
  208W        W72523  35.556  14.855  12.912
  209W        W72524  26.305  36.507  12.519
  210W        W72525  31.456  15.059  13.326
  211W        W72526  27.594   6.853  13.858
  212W        W72527  36.535  43.638   2.384
  213W        W72528   7.781  30.414  13.326
  214W        W72529  42.484  34.079   3.898
  215W        W72530   3.479  25.654  13.337
  216W        W72531  26.858  36.344   1.644
  217W        W72532  32.074  20.156   0.483
  218W        W72533  27.486  31.131  13.423
  219W        W72534  42.380  22.789  13.574
  220W        W72535   3.823  41.751   0.187
  221W        W72536  22.661  14.240  12.172
  222W        W72537  16.641  27.214  11.827
  223W        W72538  35.451  44.308  12.028
  224W        W72539   0.024  22.564  12.469
  225W        W72540  21.237  18.297  12.129
  226W        W72541   8.142  42.194  11.158
  227W        W72542  39.939  28.581  11.201
  228W        W72543  37.943  11.581   0.968
  229W        W72544  22.085  20.634  10.643
  230W        W72545  37.698  36.901   3.303
  231W        W72546  37.396  19.789  12.187
  232W        W72547  11.132  33.459  12.455
  233W        W72548  33.076  14.781  13.958
  234W        W72549  25.209   2.428   3.240
  235W        W72550  42.363  41.296  13.777
  236W        W72551   1.799   7.364  13.099
  237W        W72552  41.522   4.636  11.066
  238W        W72553  31.001  30.021   2.691
  239W        W72554  34.364  21.618  12.757
  240W        W72555  34.695  35.662  12.037
  241W        W72556  44.288   1.743  13.887
  242W        W72557  27.439  12.174  11.106
  243W        W72558   9.305  34.182   4.211
  244W        W72559  18.611  32.543   0.041
  245W        W72560   0.938  22.073   4.311
  246W        W72561  31.240   5.770  11.626
  247W        W72562   4.135   5.732   3.183
  248W        W72563  32.590  21.819  12.432
  249W        W72564   0.558  24.723  14.805
  250W        W72565  37.451   7.699  14.214
  251W        W72566   0.311  36.924  14.706
  252W        W72567  31.868  34.106  14.390
  253W        W72568  41.211  39.035  14.811
  254W        W72569  16.541   5.510  13.011
  255W        W72570  10.655  18.105   1.817
  256W        W72571  16.752  10.807   3.256
  257W        W72572  23.965  21.605   4.083
  258W        W72573  29.134   0.991  11.166
  259W        W72574  24.946  31.427  13.543
  260W        W72575  39.592  17.903  13.884
  261W        W72576  26.451   4.267   4.222
  262W        W72577  21.169  27.629   2.744
  263W        W72578  30.355   5.701   0.970
  264W        W72579   2.496   7.867   3.175
  265W        W72580   8.959  16.847  13.829
  266W        W72581  11.631  19.446   1.301
  267W        W72582   6.833  24.258  10.552
  268W        W72583  33.843  12.306   1.390
  269W        W72584  32.273  35.580  11.790
  270W        W72585  29.116  18.158  13.852
  271W        W72586  11.159  10.900  10.663
  272W        W72587  38.384  25.456  11.914
  273W        W72588  35.552  37.797  12.852
  274W        W72589   7.359   0.330   3.822
  275W        W72590   2.281  18.702   4.159
  276W        W72591  27.708   0.400  14.093
  277W        W72592  11.750  43.891  11.618
  278W        W72593  44.748  32.440   2.795
  279W        W72594  39.341  41.948   4.244
  280W        W72595   7.390  36.031  10.687
  281W        W72596   9.724  14.666   3.320
  282W        W72597  36.581  38.826   1.339
  283W        W72598  14.722  29.551  10.326
  284W        W72599  19.286  23.065   1.822
  285W        W72600  31.519   3.881   3.749
  286W        W72601   3.810  23.553   2.207
  287W        W72602  35.969   6.135  14.014
  288W        W72603   5.489   7.443   1.898
  289W        W72604  23.457  30.113  11.163
  290W        W72605  29.127  40.928  12.070
  291W        W72606   7.536  39.764  11.232
  292W        W72607  10.789  42.306   1.249
  293W        W72608   8.409  21.564  10.540
  294W        W72609   9.402  24.012   0.375
  295W        W72610  31.579  19.289  14.858
  296W        W72611  38.971  28.575   5.301
  297W        W72612   6.334  21.503   1.217
  298W        W72613  42.580  10.664  12.586
  299W        W72614   3.785   3.218   4.683
  300W        W72615  33.660   4.746   1.259
  301W        W72616  33.517  24.592  13.436
  302W        W72617  24.382  13.812   3.902
  303W        W72618   0.398   6.310  13.760
  304W        W72619  30.532  31.243   4.946
  305W        W72620  10.237  31.642  10.709
  306W        W72621   7.829  24.062  11.065
  307W        W72622   0.725  30.745  11.670
  308W        W72623  25.266  21.744   4.567
  309W        W72624  27.577  37.597   3.325
  310W        W72625  21.535   1.673   3.632
  311W        W72626  40.189  11.596  11.172
  312W        W72627  44.031   9.892  14.890
  313W        W72628  36.446   6.159   0.764
  314W        W72629   3.048  17.764   2.182
  315W        W72630  37.485  17.013   1.724
  316W        W72631  36.381  18.730   3.304
  317W        W72632  25.596  34.514  13.391
  318W        W72633  39.242  37.326  11.135
  319W        W72634   8.772  15.658   3.131
  320W        W72635   0.331   7.338   1.306
  321W        W72636  43.668  25.033   2.750
  322W        W72637  23.003  18.726  13.271
  323W        W72638  13.025  44.993   0.432
  324W        W72639  34.505  39.329   4.483
  325W        W72640   4.692   8.155   2.211
  326W        W72641  24.263  42.896   3.106
  327W        W72642  27.774  37.852  14.793
  328W        W72643  38.732  16.564   0.403
  329W        W72644   4.443  31.132  14.933
  330W        W72645  44.473  37.901   2.158
  331W        W72646  30.414  44.965   0.714
  332W        W72647   6.888  14.792  13.231
  333W        W72648  27.903  36.787   3.298
  334W        W72649   4.443  37.586  14.820
  335W        W72650  37.176  16.632  14.975
  336W        W72651  32.946  37.376  11.636
  337W        W72652   4.750  44.216  13.757
  338W        W72653   4.639  44.340  12.781
  339W        W72654  11.099  24.847   3.434
  340W        W72655  18.870  22.268   1.909
  341W        W72656  19.745  14.576   1.985
  342W        W72657  17.043  24.957   2.186
  343W        W72658  19.976  21.460  13.439
  344W        W72659  35.063  10.367  11.132
  345W        W72660  38.861  30.066  12.489
  346W        W72661  26.032  36.398   1.766
  347W        W72662  16.199  29.197  14.300
  348W        W72663  43.082   8.828   3.809
  349W        W72664  29.675  24.050  12.189
  350W        W72665  29.259  12.836   0.809
  351W        W72666  39.762  27.814   0.782
  352W        W72667  30.050  35.011  13.355
  353W        W72668   7.369  29.089   3.817
  354W        W72669  17.683  14.117   2.266
  355W        W72670   7.859   8.642  13.942
  356W        W72671   3.146  43.893  10.532
  357W        W72672  14.836  37.312  13.873
  358W        W72673  33.603  12.245  14.076
  359W        W72674   7.632  27.709   4.058
  360W        W72675  40.553  23.625  12.063
  361W        W72676  23.197  23.231  11.477
  362W        W72677  18.762  44.145  13.783
  363W        W72678  38.167  34.569   1.674
  364W        W72679  36.016   7.169   3.036
  365W        W72680  21.118  43.093   4.533
  366W        W72681  34.794  42.951   4.001
  367W        W72682  17.092   2.349   2.396
  368W        W72683   4.313  31.531   1.466
  369W        W72684   2.713  36.071   2.651
  370W        W72685  24.910  15.236   0.754
  371W        W72686   3.903   0.873   1.021
  372W        W72687  41.890  12.544   3.166
  373W        W72688   5.389  22.036   0.444
  374W        W72689  24.274   3.965   2.211
  375W        W72690  34.866   2.190   2.467
  376W        W72691  34.474  29.910  13.074
  377W        W72692  35.453  26.853  13.199
  378W        W72693  15.715  16.228  13.892
  379W        W72694   4.749   1.312   0.028
  380W        W72695  26.456  25.635   2.843
  381W        W72696  42.484  26.516  14.204
  382W        W72697  37.465   5.905   1.644
  383W        W72698  33.596  14.316  14.768
  384W        W72699  24.694  18.070   1.862
  385W        W72700  41.279  31.656  14.908
  386W        W72701   1.739  12.734   1.023
  387W        W72702  18.270  33.085   1.018
  388W        W72703  17.845  40.747  12.911
  389W        W72704  28.596  12.055   2.741
  390W        W72705   1.749  37.353  11.358
  391W        W72706  11.287  33.627   1.296
  392W        W72707  40.636  43.988  10.543
  393W        W72708  31.804  21.243   4.192
  394W        W72709  40.712  16.995   3.879
  395W        W72710  14.777  22.888  12.013
  396W        W72711   2.848  16.292  10.887
  397W        W72712  18.172   6.293  13.503
  398W        W72713  42.866  16.158  11.940
  399W        W72714  27.836  23.850  10.121
  400W        W72715  35.500  42.947  12.458
  401W        W72716  21.150  41.872  13.788
  402W        W72717  22.257  38.103  12.034
  403W        W72718  17.282  21.033   1.395
  404W        W72719  29.640  18.860  11.613
  405W        W72720  14.206  30.220  13.454
  406W        W72721  29.183  24.652  12.219
  407W        W72722  11.670  11.850  12.658
  408W        W72723  21.605  12.835   0.680
  409W        W72724  29.499   7.290   1.187
  410W        W72725  39.606  24.493  10.915
  411W        W72726  21.544  23.082   2.719
  412W        W72727  42.930  38.446   0.007
  413W        W72728  11.176   4.167  12.170
  414W        W72729  35.963   8.856  14.932
  415W        W72730  13.985   0.349  14.334
  416W        W72731   8.469  16.481   2.842
  417W        W72732   5.947  14.647  14.257
  418W        W72733   2.164  31.655  11.451
  419W        W72734   6.682  10.193   1.883
  420W        W72735   5.780  44.028   1.708
  421W        W72736  27.216  17.625  12.310
  422W        W72737  13.815  12.558   2.834
  423W        W72738  15.046   9.672  11.306
  424W        W72739  30.026  32.830  11.134
  425W        W72740   0.877  30.111   1.451
  426W        W72741  41.430   6.336   0.396
  427W        W72742  16.298  44.042  12.545
  428W        W72743  12.129  34.904   1.329
  429W        W72744   9.192  35.171   4.038
  430W        W72745  14.275  15.597  14.366
  431W        W72746  19.001  18.463  12.474
  432W        W72747  16.317  34.660  12.497
  433W        W72748  12.789  23.492  11.648
  434W        W72749  15.553  13.772  14.285
  435W        W72750  42.722  23.109  12.088
  436W        W72751  20.737  36.818  12.975
  437W        W72752  20.366  21.121   4.588
  438W        W72753   5.625   6.741   4.683
  439W        W72754  38.269  39.371   2.747
  440W        W72755  33.029   1.342  14.183
  441W        W72756  20.431   4.364   0.748
  442W        W72757  21.255  36.841  12.911
  443W        W72758   0.806  10.583  11.063
  444W        W72759   4.518   3.107   2.705
  445W        W72760  10.490  40.513  13.851
  446W        W72761  30.169  44.122  13.486
  447W        W72762  11.084  40.724   0.509
  448W        W72763  17.271  22.048   0.364
  449W        W72764  25.898   1.437   1.234
  450W        W72765  25.033  34.804   2.803
  451W        W72766  23.993  32.422  12.539
  452W        W72767  17.208  20.474   1.188
  453W        W72768   9.709  17.788   1.429
  454W        W72769  32.756  28.676  11.152
  455W        W72770   0.264  12.281  10.257
  456W        W72771  35.986  13.118  10.981
  457W        W72772  39.568  25.398   1.989
  458W        W72773  35.041  24.271   0.759
  459W        W72774  34.085  39.791   4.119
  460W        W72775  25.732  24.233   2.629
  461W        W72776  28.005  41.516   0.650
  462W        W72777   0.950  26.661   2.255
  463W        W72778   6.368  20.913   1.253
  464W        W72779   1.433  14.190  13.478
  465W        W72780  34.655  24.076  13.941
  466W        W72781   5.529  23.045   0.455
  467W        W72782  31.486  25.434  12.363
  468W        W72783  16.770   6.249   2.111
  469W        W72784  37.022  33.082  13.338
  470W        W72785  38.493  40.769   3.828
  471W        W72786  16.267   4.973  11.270
  472W        W72787  40.591  13.793   0.753
  473W        W72788  13.108  10.552   5.119
  474W        W72789  34.418  14.039  11.585
  475W        W72790  19.797   0.465   1.001
  476W        W72791  15.844  10.292  11.104
  477W        W72792   5.163  15.723   5.094
  478W        W72793  16.884  14.789   2.275
  479W        W72794   4.340  15.615   4.568
  480W        W72795  24.285   5.205  10.636
  481W        W72796   8.922  14.222  12.081
  482W        W72797  22.665   2.732   0.001
  483W        W72798  34.600   8.897  11.913
  484W        W72799  14.211  24.185   3.136
  485W        W72800  35.302   8.640   4.719
  486W        W72801   7.197  18.726   3.625
  487W        W72802  15.842  37.491  13.568
  488W        W72803   1.971  33.067  13.366
  489W        W72804  18.076  21.271  14.834
  490W        W72805  36.095  16.064  10.757
  491W        W72806  26.391  23.483  12.580
  492W        W72807  40.259   4.433  10.645
  493W        W72808   1.322  44.829  14.792
  494W        W72809  40.552  23.383  14.036
  495W        W72810  31.878  23.435  13.787
  496W        W72811   3.073  22.074  14.305
  497W        W72812  35.578  28.211   3.292
  498W        W72813  10.049   2.440  13.554
  499W        W72814  26.094   7.521   0.409
  500W        W72815  16.819   9.859   0.179
  501W        W72816  27.038  38.077  10.635
  502W        W72817  26.100  16.086   3.191
  503W        W72818  35.874  18.927   1.051
  504W        W72819  16.000  21.471   2.748
  505W        W72820  20.568  14.711  11.527
  506W        W72821   2.781  30.176  12.900
  507W        W72822  24.176  30.207   4.557
  508W        W72823   5.172  20.911  10.013
  509W        W72824  16.945  33.161  14.191
  510W        W72825  28.658   6.145   2.671
  511W        W72826  29.502  15.137  14.932
  512W        W72827  14.443  25.443  14.689
  513W        W72828  40.935  40.803  14.781
  514W        W72829  29.448  25.616  12.967
  515W        W72830  17.375  33.948   0.858
  516W        W72831  11.733  23.046   3.652
  517W        W72832  43.020   1.731  13.351
  518W        W72833  18.624  26.038   3.787
  519W        W72834  34.067  39.942  12.613
  520W        W72835   6.405  40.253  11.443
  521W        W72836   1.819  21.063  11.965
  522W        W72837  19.571  38.976  11.529
  523W        W72838  14.214  44.460   2.159
  524W        W72839  34.387   4.012  13.071
  525W        W72840  14.646   3.876  13.843
  526W        W72841  11.323  44.437  13.543
  527W        W72842  13.593  17.055   3.792
  528W        W72843  22.391   0.289  12.057
  529W        W72844  15.478  32.035   3.348
  530W        W72845  17.829   9.776   0.408
  531W        W72846  40.350  33.233   2.126
  532W        W72847   8.714  29.447  12.061
  533W        W72848   8.755  31.731   3.099
  534W        W72849  21.969  29.884   1.162
  535W        W72850  32.971  30.505   3.560
  536W        W72851  30.660  18.164   3.363
  537W        W72852  34.934  29.309  10.780
  538W        W72853  44.879  25.392  12.374
  539W        W72854  35.772  12.174  13.394
  540W        W72855  11.318  38.717  13.912
  541W        W72856   7.029  34.724   2.449
  542W        W72857  15.105  13.408  13.317
  543W        W72858  16.744   3.429  14.529
  544W        W72859   2.483   0.882  12.339
  545W        W72860   7.679  42.791   3.365
  546W        W72861  26.776  12.671  11.994
  547W        W72862  44.919  41.568  12.899
  548W        W72863  42.904   5.403   1.324
  549W        W72864  26.735  16.764   0.662
  550W        W72865  31.179  22.664  12.952
  551W        W72866  44.931  40.267   2.862
  552W        W72867  40.283  28.573  10.795
  553W        W72868   8.678  31.906   0.440
  554W        W72869   2.364  15.708   1.676
  555W        W72870  31.694  16.780   1.825
  556W        W72871   1.731  29.153   2.338
  557W        W72872   1.025  15.723  13.015
  558W        W72873   9.416  18.840  10.127
  559W        W72874  36.145   4.885   4.312
  560W        W72875   8.848  29.504  10.965
  561W        W72876  31.164  29.959   3.240
  562W        W72877  34.491  30.970   0.069
  563W        W72878  10.839   3.890   3.651
  564W        W72879  34.885  12.385  13.543
  565W        W72880   9.810  21.721   0.802
  566W        W72881  13.964  32.353  13.499
  567W        W72882  29.189  12.047   2.389
  568W        W72883  21.673  24.440   3.091
  569W        W72884  23.777  14.093  10.448
  570W        W72885  42.234  43.568   3.078
  571W        W72886  29.558  18.189   2.406
  572W        W72887   8.849  23.495   3.496
  573W        W72888  37.267  20.186   0.986
  574W        W72889   7.572  21.476  13.532
  575W        W72890  43.793  34.412  13.102
  576W        W72891   4.311   6.262  10.544
  577W        W72892  40.583  21.100  10.104
  578W        W72893   0.444  26.889  13.434
  579W        W72894  30.327  44.440  13.886
  580W        W72895  23.425  41.553  12.075
  581W        W72896  17.234  31.385   9.648
  582W        W72897  41.546  37.483   1.374
  583W        W72898   1.986  38.467  11.163
  584W        W72899  14.231  11.354   4.207
  585W        W72900   7.744  11.025  12.682
  586W        W72901  12.736  36.376   4.783
  587W        W72902   6.352  13.829   5.021
  588W        W72903  44.643  16.615  12.656
  589W        W72904   4.156  39.064   0.458
  590W        W72905  41.027   7.876  14.928
  591W        W72906  26.022  27.616  11.462
  592W        W72907  18.006  42.930   1.242
  593W        W72908  35.643  36.943   2.476
  594W        W72909  22.788   8.532  13.655
  595W        W72910  43.149   9.924  10.281
  596W        W72911  14.181  28.938  11.660
  597W        W72912  22.755  12.379   1.809
  598W        W72913   5.190   5.878   1.353
  599W        W72914  13.726  10.706  13.449
  600W        W72915  11.757   2.709   4.775
  601W        W72916   5.383   5.824  14.397
  602W        W72917   7.060  34.702  13.850
  603W        W72918  30.676  24.027  12.282
  604W        W72919  20.157  40.631  13.826
  605W        W72920  27.626  18.565   4.617
  606W        W72921  23.612   6.436   1.541
  607W        W72922  30.701  10.785   4.245
  608W        W72923  37.387  38.828   0.294
  609W        W72924  10.434  13.040   4.543
  610W        W72925  21.704  26.942   2.902
  611W        W72926  27.063  12.751   3.648
  612W        W72927  28.164  42.792   0.412
  613W        W72928  25.545  11.551   2.720
  614W        W72929  17.887  15.207   4.730
  615W        W72930  23.976  13.865  12.170
  616W        W72931  16.701  29.500   1.203
  617W        W72932  44.390   9.285   4.037
  618W        W72933   9.781  25.724   0.518
  619W        W72934  30.540   6.760   3.149
  620W        W72935  18.726  34.136  14.991
  621W        W72936  29.941   1.038  14.494
  622W        W72937   5.182  32.212   0.832
  623W        W72938   8.979  10.365   4.174
  624W        W72939   0.305  17.366   4.095
  625W        W72940  12.730  28.878  12.032
  626W        W72941  34.214   9.736   0.197
  627W        W72942   9.322  29.061  10.327
  628W        W72943  27.155  32.606   2.425
  629W        W72944  21.470  17.850  12.035
  630W        W72945  30.480  32.540  10.663
  631W        W72946  14.740   2.809  14.314
  632W        W72947  28.060  38.515  14.294
  633W        W72948  15.525  29.938   4.792
  634W        W72949   8.476  12.397  13.246
  635W        W72950  22.266  32.148  10.511
  636W        W72951  42.440  20.939   5.317
  637W        W72952  18.148  27.693   2.854
  638W        W72953  21.271  30.325   9.904
  639W        W72954  39.502  42.937   0.745
  640W        W72955  26.421  29.100   4.597
  641W        W72956  25.877  26.736  11.506
  642W        W72957  36.718  19.793   3.167
  643W        W72958  18.542  41.442  14.851
  644W        W72959  43.903  16.167   0.960
  645W        W72960  25.219  16.629  12.527
  646W        W72961  29.105  38.268  12.048
  647W        W72962  17.196  19.953  11.999
  648W        W72963  31.668  23.249   0.022
  649W        W72964  28.635  14.123   4.134
  650W        W72965  24.134  36.502  12.141
  651W        W72966  27.446  21.489   1.309
  652W        W72967   1.928  17.228   1.867
  653W        W72968  31.187  26.767   1.743
  654W        W72969  38.817  40.781   4.318
  655W        W72970  12.139  26.935   3.313
  656W        W72971   4.849  19.280  13.979
  657W        W72972  38.684   3.480  13.558
  658W        W72973   0.353  42.390  13.640
  659W        W72974  36.281   7.258  13.061
  660W        W72975   9.083   4.580   0.713
  661W        W72976  38.482  28.437  12.907
  662W        W72977  40.237   2.872   2.701
  663W        W72978  13.659   8.969  13.819
  664W        W72979  43.416  12.677  11.072
  665W        W72980  17.525  29.665   3.756
  666W        W72981  11.269  37.786   0.971
  667W        W72982  21.122  19.362  13.685
  668W        W72983  26.942  41.799  11.196
  669W        W72984  19.872  39.842   4.108
  670W        W72985   9.665  36.974  12.076
  671W        W72986  32.486   3.430  10.823
  672W        W72987  17.483   9.800   0.839
  673W        W72988  34.444  41.914  11.165
  674W        W72989  44.742  20.982  13.775
  675W        W72990  11.789  11.262  14.277
  676W        W72991  16.847   3.454   0.809
  677W        W72992  39.255  36.412   4.250
  678W        W72993   7.466  43.425   3.865
  679W        W72994  20.182  35.990   4.436
  680W        W72995  22.463   9.430  12.100
  681W        W72996  15.851   6.353  10.501
  682W        W72997  35.478  15.168   2.370
  683W        W72998  40.781  25.469  10.227
  684W        W72999  42.190  24.467  10.983
  685W        W73000  44.747   4.898   3.577
  686W        W73001  32.849  19.476   0.394
  687W        W73002  34.964  17.897  13.189
  688W        W73003  34.373  24.582   0.912
  689W        W73004   0.960  38.302   1.025
  690W        W73005  44.425   2.816  11.519
  691W        W73006  43.880   7.877  11.451
  692W        W73007  40.545  24.500  11.950
  693W        W73008   0.838  43.658   4.691
  694W        W73009  29.098  15.131  12.408
  695W        W73010  11.307   2.117   1.251
  696W        W73011   4.794   2.943  12.509
  697W        W73012  15.845   8.868   0.850
  698W        W73013  11.534  16.491   4.245
  699W        W73014   2.418  13.875  13.048
  700W        W73015  29.568  25.513  12.479
  701W        W73016  11.686  14.269  12.404
  702W        W73017  40.988  14.250  14.549
  703W        W73018  19.153  31.751   2.304
  704W        W73019   4.622  12.074   1.644
  705W        W73020  14.527  15.718   0.903
  706W        W73021  24.215  30.161  12.918
  707W        W73022   7.425  29.634   0.478
  708W        W73023  36.157  25.287   2.775
  709W        W73024   9.075  30.751   1.814
  710W        W73025  28.892   0.890   3.823
  711W        W73026  40.235  23.493  11.203
  712W        W73027  29.034  15.779  14.511
  713W        W73028  28.618  17.924   3.798
  714W        W73029  38.180  43.406   1.731
  715W        W73030  30.103   7.754   1.175
  716W        W73031  21.059  27.880  10.251
  717W        W73032  20.842  43.373   1.268
  718W        W73033  38.024   7.259  10.676
  719W        W73034  24.597  11.190  14.097
  720W        W73035  42.534  13.106   3.319
  721W        W73036  26.007  11.411  14.515
  722W        W73037  43.197  30.124   4.451
  723W        W73038  10.391  11.733   4.832
  724W        W73039   1.534  16.798   3.220
  725W        W73040  34.015  29.369   2.645
  726W        W73041  31.830  18.842   4.222
  727W        W73042  24.753  38.882  13.050
  728W        W73043  32.887   2.390   4.323
  729W        W73044  36.602  23.718   4.690
  730W        W73045  25.580  21.133   3.647
  731W        W73046  16.746  17.732  10.519
  732W        W73047  26.642  10.209  13.469
  733W        W73048  27.102   3.203   3.685
  734W        W73049  22.246  35.633   0.974
  735W        W73050  20.265  24.825   0.850
  736W        W73051   9.482  30.247   3.971
  737W        W73052  26.051  41.442  12.635
  738W        W73053  40.388  21.050   3.049
  739W        W73054  33.507  20.042   3.581
  740W        W73055  21.319  21.645  12.518
  741W        W73056  20.247   2.259  11.681
  742W        W73057  17.035   4.876   1.202
  743W        W73058  41.504  23.003  14.912
  744W        W73059  30.413  36.141   0.357
  745W        W73060  30.497  16.750   3.327
  746W        W73061   8.086  14.721  11.274
  747W        W73062  33.970  40.066   3.559
  748W        W73063   1.568  12.741   4.122
  749W        W73064  21.770  19.018  10.927
  750W        W73065  21.736  14.684  10.879
  751W        W73066   3.467   1.430  11.464
  752W        W73067   5.620   7.617  11.885
  753W        W73068  26.178  31.516   2.157
  754W        W73069   8.141  28.522   0.754
  755W        W73070  19.323  43.285   0.369
  756W        W73071   0.331  33.047   1.678
  757W        W73072  24.756   8.153  14.429
  758W        W73073  25.538  19.985  11.950
  759W        W73074  28.864  26.999   3.617
  760W        W73075  17.233  24.246  14.737
  761W        W73076  32.314  24.591  14.963
  762W        W73077  16.968  42.883  14.885
  763W        W73078  22.491  34.874   1.790
  764W        W73079   2.752  16.711   4.634
  765W        W73080  14.966  38.798  12.901
  766W        W73081  36.891   8.917   1.989
  767W        W73082  25.715   2.685  10.546
  768W        W73083   6.861  24.017  14.914
  769W        W73084   9.807  44.516   3.683
  770W        W73085  18.276  40.779   5.589
  771W        W73086  20.632  35.486  12.466
  772W        W73087  37.969   7.704   1.761
  773W        W73088   8.579  14.582  11.271
  774W        W73089  28.654  26.873   4.085
  775W        W73090  32.970  34.893   0.996
  776W        W73091  40.115  26.024   1.464
  777W        W73092  34.079  23.576   4.513
  778W        W73093  18.350  12.253  10.834
  779W        W73094  33.396  16.437   0.405
  780W        W73095   1.389  11.792   0.783
  781W        W73096  44.753  42.569  14.177
  782W        W73097  23.632   1.255  14.262
  783W        W73098  24.123  10.049   2.191
  784W        W73099   2.395  25.482   4.607
  785W        W73100   0.397  42.041   4.347
  786W        W73101  25.131   7.335   0.379
  787W        W73102  30.545  43.848  13.264
  788W        W73103  42.011  41.335  10.301
  789W        W73104  19.483  11.584   3.492
  790W        W73105  44.436  12.275   0.957
  791W        W73106   0.181   4.410  14.880
  792W        W73107  21.248  26.448  11.515
  793W        W73108  30.919  43.775  14.923
  794W        W73109   6.055   5.056  13.283
  795W        W73110  36.470   3.500   4.757
  796W        W73111   3.989  14.234   3.464
  797W        W73112   4.719  17.297   2.508
  798W        W73113  35.170  32.821   3.642
  799W        W73114  44.651   6.849   1.506
  800W        W73115  28.903  24.080  13.993
  801W        W73116  18.974  25.170   3.895
  802W        W73117  23.695  30.607   2.067
  803W        W73118  43.284   0.283   1.361
  804W        W73119  20.813  26.097   1.856
  805W        W73120  31.455  41.538  13.838
  806W        W73121   8.213  24.206   0.912
  807W        W73122  42.056   7.657   3.470
  808W        W73123  12.524  29.538   1.825
  809W        W73124  21.630  24.101  10.656
  810W        W73125  42.982   5.083   4.919
  811W        W73126  29.856  16.752  11.650
  812W        W73127  24.752  28.902   4.576
  813W        W73128   9.125  36.848   1.118
  814W        W73129  18.287  40.896   1.809
  815W        W73130  23.721  13.763   4.082
  816W        W73131  16.281  38.540   0.875
  817W        W73132   2.684  21.376   2.273
  818W        W73133  28.277  35.025   4.730
  819W        W73134  33.058  31.353   4.591
  820W        W73135  27.759   9.409  11.046
  821W        W73136   6.768  25.242  14.285
  822W        W73137  12.632  25.504   4.540
  823W        W73138  40.517  30.932   3.667
  824W        W73139  36.000  37.293   2.658
  825W        W73140  39.571  18.984  11.836
  826W        W73141  39.794  23.109   1.374
  827W        W73142  35.650  13.140   1.962
  828W        W73143   5.337  14.021  12.738
  829W        W73144  13.475   6.705  11.597
  830W        W73145  12.144  19.369  13.087
  831W        W73146   6.329  19.445  10.341
  832W        W73147  32.998  17.768  14.591
  833W        W73148  38.804  10.073   0.832
  834W        W73149  33.405  36.645  13.538
  835W        W73150  43.313   3.197  14.093
  836W        W73151   6.861  40.128   0.321
  837W        W73152  16.567  42.289   0.906
  838W        W73153  25.010  37.447   4.012
  839W        W73154  13.322  27.562   1.293
  840W        W73155  11.151  23.684   1.697
  841W        W73156   0.425  36.042   3.068
  842W        W73157  20.680  35.140  14.000
  843W        W73158  27.547   6.523  14.689
  844W        W73159  24.962  42.773   0.396
  845W        W73160  19.457   6.898   1.258
  846W        W73161  28.649  27.484  10.570
  847W        W73162  23.331  31.486   3.563
  848W        W73163  19.164  15.345   4.077
  849W        W73164  43.226  13.245  14.275
  850W        W73165   1.333  11.241   0.378
  851W        W73166  12.350  27.424  14.025
  852W        W73167   0.347  32.112   2.115
  853W        W73168  21.804  15.687   4.175
  854W        W73169  13.247  11.283   2.815
  855W        W73170  12.330  40.008  11.943
  856W        W73171   2.687  31.099  13.436
  857W        W73172   3.160  17.277   3.787
  858W        W73173  38.772  26.047   4.037
  859W        W73174  10.205   6.622   5.097
  860W        W73175   3.284  13.054  10.790
  861W        W73176  33.547   8.727  11.200
  862W        W73177  11.667  16.865   4.626
  863W        W73178  12.234  25.623   2.149
  864W        W73179  39.970   3.917   0.931
  865W        W73180  27.636  30.731  10.498
  866W        W73181  19.691  17.750  14.060
  867W        W73182  16.582  37.891   2.342
  868W        W73183  39.890  12.994  13.407
  869W        W73184  31.570  10.343   3.233
  870W        W73185   7.269  19.694   3.397
  871W        W73186  41.449  26.379  14.963
  872W        W73187  34.472  28.491   0.735
  873W        W73188  37.541  35.427   1.231
  874W        W73189   3.904  30.223   2.793
  875W        W73190  33.324  24.126  13.293
  876W        W73191  37.514  36.951   4.829
  877W        W73192   8.055  40.389   2.344
  878W        W73193  11.224  28.840   3.766
  879W        W73194  44.456  40.781   4.793
  880W        W73195  42.281  36.099  13.497
  881W        W73196  13.112  16.513  12.767
  882W        W73197  10.731  20.030   2.669
  883W        W73198   5.939  11.196   1.318
  884W        W73199  23.154  26.158   3.351
  885W        W73200  24.593  40.021   4.476
  886W        W73201  36.162  32.864  14.421
  887W        W73202  21.592  18.143  11.345
  888W        W73203   9.897   6.909  13.225
  889W        W73204  33.685  12.847  13.415
  890W        W73205   9.372   6.788   1.020
  891W        W73206  30.208  37.885   0.419
  892W        W73207   4.438   8.840   0.498
  893W        W73208  40.866  16.194   4.415
  894W        W73209   3.700  41.339   2.798
  895W        W73210  44.271  17.754  11.638
  896W        W73211  33.656   6.152  14.022
  897W        W73212   6.868  15.590   2.712
  898W        W73213  25.764  30.041   3.360
  899W        W73214   4.978  11.848   1.953
  900W        W73215  16.022  36.866   1.196
  901W        W73216  44.517   8.391  11.579
  902W        W73217  12.192  35.863  13.709
  903W        W73218   7.185  29.047   2.761
  904W        W73219  28.856  12.916  11.981
  905W        W73220   7.755  21.829   2.648
  906W        W73221  12.819   3.937   1.189
  907W        W73222  27.403   7.818  14.516
  908W        W73223  25.884  19.073   0.288
  909W        W73224  39.993  38.351   2.971
  910W        W73225  19.632  13.212  13.879
  911W        W73226   0.968  18.846  14.979
  912W        W73227  33.689   3.499   0.984
  913W        W73228  35.298  39.513  12.484
  914W        W73229   4.234  26.700  12.382
  915W        W73230   4.358  27.343   0.409
  916W        W73231  19.346   2.789  12.028
  917W        W73232   1.127   2.736   1.766
  918W        W73233   6.705  33.879   1.835
  919W        W73234  30.986  25.943  11.343
  920W        W73235   6.183  32.076  14.767
  921W        W73236   0.962  16.203   0.506
  922W        W73237  16.554   0.913  14.949
  923W        W73238  10.369   4.594   2.369
  924W        W73239  19.853  19.733   3.339
  925W        W73240  35.017  44.183   0.495
  926W        W73241  34.805  41.717   2.854
  927W        W73242  25.948   4.124   5.006
  928W        W73243   6.140  10.090   0.336
  929W        W73244  38.070   8.907  11.016
  930W        W73245  22.650  39.013  11.042
  931W        W73246   2.471  21.082  10.365
  932W        W73247  43.477  31.559  12.927
  933W        W73248  28.215  10.810   2.028
  934W        W73249  24.465  43.404  12.389
  935W        W73250   0.349   8.181  13.011
  936W        W73251  44.607   9.671  14.325
  937W        W73252  36.408  31.142   0.408
  938W        W73253  37.457  42.391   4.809
  939W        W73254  12.801  28.570   0.817
  940W        W73255   3.903  34.107  11.266
  941W        W73256  21.668  19.997  14.043
  942W        W73257  20.771  26.679   0.097
  943W        W73258   9.861  40.860  10.638
  944W        W73259  25.789   0.322  11.374
  945W        W73260   4.082  29.154  13.356
  946W        W73261  43.050  41.490   0.473
  947W        W73262  35.503  33.857  11.178
  948W        W73263  28.860   5.439  12.534
  949W        W73264   3.976  20.511   4.171
  950W        W73265  12.232  19.773   2.712
  951W        W73266   2.333  10.825  11.134
  952W        W73267  10.691  11.135   3.614
  953W        W73268  22.833   2.749  12.440
  954W        W73269  41.595   7.642  11.154
  955W        W73270  43.712  28.689  13.661
  956W        W73271  15.815  14.370  12.950
  957W        W73272   9.511  30.012   2.503
  958W        W73273  13.544  41.685   3.768
  959W        W73274   8.830  34.469  13.961
  960W        W73275  35.151  19.478   0.986
  961W        W73276   0.531  43.712  13.920
  962W        W73277  40.725  35.389  11.180
  963W        W73278  19.330   5.495   3.762
  964W        W73279  10.561   0.272  11.995
  965W        W73280   3.402  24.848   4.705
  966W        W73281  27.648   0.913   1.975
  967W        W73282  18.067  26.932   2.264
  968W        W73283  21.050   6.079   2.174
  969W        W73284   1.098  13.541  12.379
  970W        W73285  31.348   4.229  12.137
  971W        W73286  38.234  24.106   0.958
  972W        W73287  15.880   4.466  13.920
  973W        W73288  16.897   1.278  14.852
  974W        W73289  14.353  14.571  13.471
  975W        W73290  19.592  32.468  11.180
  976W        W73291  11.130   9.305   0.457
  977W        W73292  33.341  13.690   3.017
  978W        W73293  18.452  15.862  10.440
  979W        W73294   9.078  25.239  12.063
  980W        W73295  31.153  14.356   0.119
  981W        W73296  39.641  20.666  11.106
  982W        W73297  33.655  38.387   4.231
  983W        W73298  26.251   3.309  13.540
  984W        W73299   1.886  32.237  12.265
  985W        W73300   2.267  30.469  13.525
  986W        W73301  32.254  16.597   3.681
  987W        W73302  25.819  31.106   0.305
  988W        W73303  18.506   0.197  11.468
  989W        W73304  39.117  27.193  11.180
  990W        W73305  32.806  33.607  12.137
  991W        W73306   8.788  44.325  14.884
  992W        W73307  33.677  28.798   1.110
  993W        W73308  29.883  13.068  14.668
  994W        W73309  39.038  18.674  10.502
  995W        W73310   2.232  11.233  10.779
  996W        W73311  24.660  23.570   2.688
  997W        W73312  28.398  20.508  11.096
  998W        W73313  15.741  25.779   1.022
  999W        W73314   8.163  18.042   1.792
 1000W        W73315  30.083  14.331   2.449
 1001W        W73316   2.834  21.271   1.249
 1002W        W73317  28.954  33.987  12.795
 1003W        W73318  18.795  18.730  12.865
 1004W        W73319  34.021  14.365   0.055
 1005W        W73320  40.857  35.177   4.740
 1006W        W73321  38.628  22.644  13.271
 1007W        W73322  44.405  26.953   3.354
 1008W        W73323  14.305   0.909  11.988
 1009W        W73324  44.735  31.462   1.525
 1010W        W73325  17.196   2.418  12.290
 1011W        W73326  22.087  27.043  13.387
 1012W        W73327  21.440  29.117  11.476
 1013W        W73328  35.480  33.317  13.580
 1014W        W73329   9.866  11.045   2.323
 1015W        W73330   1.152  15.664   2.266
 1016W        W73331  44.236  16.840   0.362
 1017W        W73332  29.069  17.734   4.076
 1018W        W73333  23.623  22.196   3.081
 1019W        W73334  26.764  33.377  12.535
 1020W        W73335  27.426  41.357   3.273
 1021W        W73336  13.818  11.232   0.488
 1022W        W73337  23.734  42.427   4.589
 1023W        W73338  20.084   8.489  14.518
 1024W        W73339  14.599  29.533   1.813
 1025W        W73340  14.684   1.945  14.961
 1026W        W73341  36.941  23.714  13.996
 1027W        W73342  14.599   8.887  11.517
 1028W        W73343  27.886  26.013  12.519
 1029W        W73344  24.444  22.220  10.262
 1030W        W73345  38.122  23.095  10.765
 1031W        W73346  44.001  33.789   3.652
 1032W        W73347  40.994  16.082   3.542
 1033W        W73348  25.992  22.310  10.551
 1034W        W73349   0.465  41.009   1.674
 1035W        W73350   4.317  19.945   0.797
 1036W        W73351  37.480   4.376  12.117
 1037W        W73352  23.680  34.927   2.452
 1038W        W73353   1.302  32.186  11.277
 1039W        W73354   6.903  16.854  10.794
 1040W        W73355  12.337  38.750   1.351
 1041W        W73356  18.961  29.066  11.142
 1042W        W73357   8.108  41.105   2.948
 1043W        W73358  22.062  15.921  11.032
 1044W        W73359  20.035  32.592   4.146
 1045W        W73360  43.963  29.110  14.028
 1046W        W73361   9.226  22.719  13.825
 1047W        W73362  42.831   4.920  12.340
 1048W        W73363   4.757   2.755   4.698
 1049W        W73364   1.320   5.332   0.460
 1050W        W73365  13.659  42.606  10.855
 1051W        W73366  37.906   4.366   0.419
 1052W        W73367  26.242  15.663   1.342
 1053W        W73368  43.668  27.365  14.433
 1054W        W73369  30.096  13.832   2.645
 1055W        W73370  28.321  44.172   4.258
 1056W        W73371  41.524  10.431   4.170
 1057W        W73372  21.299  30.122  14.857
 1058W        W73373   6.261  27.115   4.880
 1059W        W73374  29.223   4.026  13.936
 1060W        W73375  36.322   9.712  12.902
 1061W        W73376  43.411  23.150  11.435
 1062W        W73377   6.307  37.307  14.419
 1063W        W73378  35.317  11.511  11.745
 1064W        W73379  34.636  41.550   3.297
 1065W        W73380  38.485  37.181   2.860
 1066W        W73381   9.391  37.219   0.883
 1067W        W73382   7.180  42.752   3.292
 1068W        W73383   3.323   5.934  14.944
 1069W        W73384   2.953  28.325  12.557
 1070W        W73385   5.317  22.472  12.489
 1071W        W73386   3.365  12.923   0.008
 1072W        W73387  19.793  11.420   0.974
 1073W        W73388  39.834  24.557   5.114
 1074W        W73389   6.352  11.636   1.314
 1075W        W73390  44.338  28.131  14.723
 1076W        W73391  40.822  37.581   3.712
 1077W        W73392  32.826  19.360   3.749
 1078W        W73393  33.920  20.096   3.101
 1079W        W73394  21.228  14.292   0.259
 1080W        W73395  12.793  25.047  11.698
 1081W        W73396  35.115  35.874  12.807
 1082W        W73397  25.081  22.296   3.266
 1083W        W73398   9.076   0.918   2.475
 1084W        W73399   4.497  11.737   1.232
 1085W        W73400  28.073   5.294   5.092
 1086W        W73401  12.237   0.524   4.070
 1087W        W73402   7.011  42.812  13.892
 1088W        W73403  14.670  20.068   1.567
 1089W        W73404  17.071  37.385  12.518
 1090W        W73405  31.576  13.493   2.449
 1091W        W73406   8.330  11.793   0.694
 1092W        W73407  36.017  19.038   3.558
 1093W        W73408  21.104  16.115   3.622
 1094W        W73409  19.689  14.677   3.823
 1095W        W73410  39.315  44.822  11.639
 1096W        W73411   0.133  26.528   1.718
 1097W        W73412  21.687  41.045  12.927
 1098W        W73413  42.098  21.226   0.731
 1099W        W73414  29.398  17.629   1.751
 1100W        W73415  20.163  15.701   4.084
 1101W        W73416   0.044  21.025   4.707
 1102W        W73417  28.764  44.707  11.045
 1103W        W73418  43.954  10.933  12.412
 1104W        W73419  18.254  21.500  13.901
 1105W        W73420   1.688  29.710  14.716
 1106W        W73421   4.342  41.452   4.537
 1107W        W73422  14.836  12.160   0.807
 1108W        W73423  14.435  44.501  11.973
 1109W        W73424  14.767  22.230  10.431
 1110W        W73425  36.986  10.834  14.952
 1111W        W73426   0.747   2.718  11.177
 1112W        W73427  26.113   5.717  13.619
 1113W        W73428  35.800   7.866   3.666
 1114W        W73429  14.331  10.698   3.909
 1115W        W73430  36.092  24.524  12.087
 1116W        W73431  23.074  41.035  13.521
 1117W        W73432  13.834  38.927  13.987
 1118W        W73433   5.893   5.849  14.372
 1119W        W73434  25.215  10.118   0.038
 1120W        W73435   5.686  13.702   3.721
 1121W        W73436  43.083  16.832   5.227
 1122W        W73437  40.236  12.547  13.959
 1123W        W73438  12.092  32.081   1.434
 1124W        W73439  15.593  35.889   4.649
 1125W        W73440  22.233  33.507   0.899
 1126W        W73441  16.293   5.796  11.803
 1127W        W73442   4.871  23.061   0.463
 1128W        W73443  41.595  35.192  10.730
 1129W        W73444  19.025  33.549   0.228
 1130W        W73445  29.697   4.765   1.312
 1131W        W73446  14.873   1.998   3.787
 1132W        W73447   4.189  42.360   4.198
 1133W        W73448  11.176   0.612   1.286
 1134W        W73449  27.383  21.727   0.852
 1135W        W73450  44.942  34.503  14.336
 1136W        W73451  27.607  21.217   1.760
 1137W        W73452   3.854   8.413   0.543
 1138W        W73453   0.446   0.356   4.042
 1139W        W73454  22.637  38.520  12.346
 1140W        W73455  15.358   7.678   3.576
 1141W        W73456  10.866  25.160   3.784
 1142W        W73457  27.966  20.109  11.561
 1143W        W73458  14.920  10.860  11.042
 1144W        W73459  30.513  22.579   0.272
 1145W        W73460  16.866  18.025   3.692
 1146W        W73461  10.456  12.311   3.069
 1147W        W73462  34.643  33.526   4.913
 1148W        W73463  20.635  35.966  14.297
 1149W        W73464  29.253  31.603   3.287
 1150W        W73465  31.677  11.230  11.419
 1151W        W73466  27.947   1.004  14.758
 1152W        W73467  17.123  31.267  11.091
 1153W        W73468   4.302  20.335  14.460
 1154W        W73469  28.509  37.782  13.889
 1155W        W73470  23.148  12.614   0.467
 1156W        W73471   3.748  15.699   1.833
 1157W        W73472  14.799  23.655  13.574
 1158W        W73473  13.363  11.519   1.867
 1159W        W73474  22.272  40.262   9.861
 1160W        W73475  44.330  30.504  13.404
 1161W        W73476  40.528  19.074   0.938
 1162W        W73477  21.617  35.121  11.107
 1163W        W73478  20.595  43.270  14.017
 1164W        W73479   1.260  20.785  14.832
 1165W        W73480  39.424   7.646   4.577
 1166W        W73481  24.141  13.392  12.014
 1167W        W73482   4.667  16.777  14.518
 1168W        W73483  31.946  16.659   4.107
 1169W        W73484   5.708  34.375   3.280
 1170W        W73485   2.277   3.952   2.234
 1171W        W73486  42.501  27.780  11.204
 1172W        W73487   6.858  31.121   2.126
 1173W        W73488   5.767  35.597   4.175
 1174W        W73489  27.165  39.961   1.777
 1175W        W73490  40.774  28.012  12.027
 1176W        W73491  11.790  25.930   2.163
 1177W        W73492  39.616  41.943  12.699
 1178W        W73493  28.060  34.045   0.459
 1179W        W73494  27.564  34.461  14.398
 1180W        W73495  25.682  29.978   0.970
 1181W        W73496   6.714  35.870  11.856
 1182W        W73497   3.919  43.928  14.838
 1183W        W73498  10.725   6.586  11.747
 1184W        W73499  30.196  36.410   1.380
 1185W        W73500  16.258   8.221  14.482
 1186W        W73501  42.768   7.715  13.809
 1187W        W73502  27.280  15.680   0.013
 1188W        W73503  15.505  27.110   4.241
 1189W        W73504  24.768  44.313  13.041
 1190W        W73505  12.371  32.536  12.809
 1191W        W73506   8.203  21.549  12.381
 1192W        W73507  43.809  44.938  10.530
 1193W        W73508  31.584  14.257  11.007
 1194W        W73509  12.858   1.987  12.448
 1195W        W73510  39.635  27.325  12.003
 1196W        W73511  20.266  20.213  12.189
 1197W        W73512   6.270   5.839   1.370
 1198W        W73513  16.876  40.364  11.582
 1199W        W73514  22.314  25.027   0.921
 1200W        W73515  44.954  33.634  13.940
 1201W        W73516  17.188  38.610  13.045
 1202W        W73517  13.118   5.956  12.638
 1203W        W73518   6.193  16.348  11.961
 1204W        W73519  42.840   0.954  13.929
 1205W        W73520  20.739  15.072  14.872
 1206W        W73521  25.619  36.132   0.243
 1207W        W73522  28.019  11.676   0.747
 1208W        W73523  41.401  21.281  14.453
 1209W        W73524  35.229  18.191  12.588
 1210W        W73525  13.345  20.742  12.096
 1211W        W73526  41.152  15.832   4.616
 1212W        W73527  27.970  12.754   2.644
 1213W        W73528   8.311  12.306  12.386
 1214W        W73529  22.019  39.059   2.771
 1215W        W73530  10.423  19.741   1.893
 1216W        W73531  35.368  40.769  13.614
 1217W        W73532  18.238  44.999  11.867
 1218W        W73533   9.357  38.312  12.932
 1219W        W73534   1.237  25.235   3.656
 1220W        W73535   9.160  35.411   1.292
 1221W        W73536  40.797  15.177   4.277
 1222W        W73537   8.329   8.685  12.010
 1223W        W73538  23.750  36.527  12.489
 1224W        W73539  20.692  36.493   1.489
 1225W        W73540  24.513  41.781  13.496
 1226W        W73541  34.672  38.714  12.455
 1227W        W73542  39.316   5.204   2.716
 1228W        W73543  20.715  27.958  11.201
 1229W        W73544   3.234  42.017  13.851
 1230W        W73545  36.929  34.858   4.632
 1231W        W73546  41.192  25.514   0.665
 1232W        W73547   7.293   5.283  11.499
 1233W        W73548   7.060   7.860   2.727
 1234W        W73549   8.805  11.890   0.542
 1235W        W73550   6.646  29.779  14.774
 1236W        W73551  32.336   9.638   3.832
 1237W        W73552  22.966   5.935  12.107
 1238W        W73553   2.962  12.847   4.496
 1239W        W73554  35.795  44.483   3.886
 1240W        W73555  13.497  38.890   3.349
 1241W        W73556  34.847  36.937  13.810
 1242W        W73557  31.775  44.106   4.860
 1243W        W73558  10.388   0.014   2.087
 1244W        W73559   5.433  38.827  13.942
 1245W        W73560  41.101  19.406   2.654
 1246W        W73561  23.799  41.733  11.185
 1247W        W73562  12.875  44.323   1.682
 1248W        W73563  33.369  29.129   1.905
 1249W        W73564  40.958   1.747  13.293
 1250W        W73565  13.126   9.849  11.563
 1251W        W73566  15.279  13.789   1.217
 1252W        W73567  21.062  39.401  12.693
 1253W        W73568  31.860  14.191  10.571
 1254W        W73569  38.922   4.437  11.105
 1255W        W73570  17.194   6.777  12.092
 1256W        W73571   2.045  35.996  11.124
 1257W        W73572  26.491   7.842   0.053
 1258W        W73573  34.322  16.123   0.483
 1259W        W73574  13.068  33.577   0.068
 1260W        W73575  27.345  17.321   0.383
 1261W        W73576  17.496  13.350  14.451
 1262W        W73577  39.062   0.054   3.663
 1263W        W73578  27.516   0.738  14.411
 1264W        W73579  41.664   2.295  13.474
 1265W        W73580  42.307  43.406   4.494
 1266W        W73581  23.392  20.001   2.453
 1267W        W73582  20.048  25.072  10.709
 1268W        W73583   1.648  39.402   0.412
 1269W        W73584  29.205  34.580  11.987
 1270W        W73585   1.536  39.049  13.027
 1271W        W73586  12.002  17.269  14.744
 1272W        W73587   9.232   6.430   4.526
 1273W        W73588  16.680  12.852   2.138
 1274W        W73589  19.427  12.553  13.304
 1275W        W73590   5.060  19.703   2.311
 1276W        W73591  26.713  23.917  10.797
 1277W        W73592  34.635   0.353   4.646
 1278W        W73593  26.927  18.359   0.732
 1279W        W73594   3.451  18.572   0.991
 1280W        W73595  33.062  24.683  12.977
 1281W        W73596  10.617  11.828   0.878
 1282W        W73597  36.996   4.855  11.264
 1283W        W73598  26.052  12.729   1.685
 1284W        W73599  29.071  22.286  10.815
 1285W        W73600  16.128  38.085   0.684
 1286W        W73601  23.967  14.969   2.483
 1287W        W73602  22.601  17.289  11.181
 1288W        W73603   3.423   7.797  11.096
 1289W        W73604  10.228  20.087  14.486
 1290W        W73605   5.299  38.163  14.313
 1291W        W73606   8.230  14.078   3.773
 1292W        W73607  31.603  31.637   2.536
 1293W        W73608  42.441  14.475  10.544
 1294W        W73609   8.390  35.767  14.729
 1295W        W73610  29.745  10.209  14.446
 1296W        W73611  38.824  10.534   4.630
 1297W        W73612  40.829  27.227   4.436
 1298W        W73613  19.314  34.646  12.477
 1299W        W73614  39.684   4.869  10.949
 1300W        W73615   7.243  18.761   0.309
 1301W        W73616   7.683   2.722   3.248
 1302W        W73617  12.413   1.551  11.621
 1303W        W73618  30.491  20.641   0.127
 1304W        W73619  21.585  38.980  10.380
 1305W        W73620  23.774  13.223   1.691
 1306W        W73621  22.577  10.168   2.338
 1307W        W73622  18.761   9.148  12.912
 1308W        W73623  18.881  19.608   9.976
 1309W        W73624  44.890   6.962   1.977
 1310W        W73625  33.985  43.903   4.128
 1311W        W73626  15.312   0.230   4.146
 1312W        W73627  27.487   4.508   1.320
 1313W        W73628  19.204  37.404   4.677
 1314W        W73629  34.863   7.757  14.850
 1315W        W73630  26.015  29.983  12.681
 1316W        W73631  21.008  13.915  12.452
 1317W        W73632  15.267   3.955   1.738
 1318W        W73633  10.250   5.591   1.034
 1319W        W73634   1.789  17.585   2.758
 1320W        W73635   5.410  41.572   0.461
 1321W        W73636  19.499   9.445  14.775
 1322W        W73637  24.437  29.525   1.220
 1323W        W73638  29.318  17.199   0.985
 1324W        W73639  26.209   7.472  14.147
 1325W        W73640  27.926  44.949   0.462
 1326W        W73641  41.776  19.349   2.852
 1327W        W73642  10.166  10.349   0.777
 1328W        W73643  30.488  35.688  11.521
 1329W        W73644  28.819  38.640  12.376
 1330W        W73645  22.204  22.086  11.497
 1331W        W73646   5.738  36.379   4.048
 1332W        W73647  24.054  41.001  14.429
 1333W        W73648  33.872  11.125   4.070
 1334W        W73649  13.170  34.802  14.922
 1335W        W73650  10.827   0.750   4.918
 1336W        W73651  21.923   2.786  13.387
 1337W        W73652   3.933  32.124   0.448
 1338W        W73653   9.744  13.780  11.456
 1339W        W73654  24.873   1.414  13.878
 1340W        W73655  24.710  21.268   1.827
 1341W        W73656  14.808  11.822   2.005
 1342W        W73657  16.323  16.290   3.367
 1343W        W73658  22.044  17.635   1.887
 1344W        W73659  42.580  19.087  14.960
 1345W        W73660  34.861  24.223   2.787
 1346W        W73661  32.670  31.799  14.381
 1347W        W73662  27.716  12.065   0.610
 1348W        W73663  11.438  23.577   2.166
 1349W        W73664  31.969  29.131   2.607
 1350W        W73665  34.070  13.147  10.702
 1351W        W73666  27.590   2.874   2.156
 1352W        W73667  32.002  22.700   3.143
 1353W        W73668  11.637   3.322  13.478
 1354W        W73669  42.079  24.058  14.676
 1355W        W73670  32.491  29.123   0.422
 1356W        W73671  35.580  32.876  13.291
 1357W        W73672  33.855  36.371  14.009
 1358W        W73673   7.611   1.982  11.540
 1359W        W73674   5.702   0.009   0.204
 1360W        W73675  30.825  21.351   4.259
 1361W        W73676   6.555  44.994   4.360
 1362W        W73677  31.901  42.381   0.260
 1363W        W73678  39.361  13.920   3.369
 1364W        W73679  10.021  35.338  12.076
 1365W        W73680  36.841   5.771  11.160
 1366W        W73681  44.413  18.519   0.734
 1367W        W73682  29.913   0.054  12.173
 1368W        W73683   6.228  40.071   3.069
 1369W        W73684  20.030  35.535   4.664
 1370W        W73685  20.668  38.843   1.198
 1371W        W73686  37.967  29.579   1.608
 1372W        W73687  14.340  28.674  11.257
 1373W        W73688   0.328  40.988  13.405
 1374W        W73689   8.135  11.657   1.335
 1375W        W73690  19.047  18.646  13.315
 1376W        W73691  28.533  31.678  10.656
 1377W        W73692  34.805  13.778   3.681
 1378W        W73693  14.913  17.826   0.993
 1379W        W73694  19.788  29.641   1.722
 1380W        W73695  17.281  26.350   2.333
 1381W        W73696  22.036  14.931  11.188
 1382W        W73697  44.957   5.806   2.576
 1383W        W73698   0.849  18.603   4.847
 1384W        W73699  17.070  29.104  13.052
 1385W        W73700   9.351  39.850   3.188
 1386W        W73701  21.063   4.992   1.370
 1387W        W73702   9.785  28.490   4.895
 1388W        W73703  24.453  13.893   3.393
 1389W        W73704  38.909  42.557  12.033
 1390W        W73705  41.966  17.871  14.057
 1391W        W73706   7.727  12.841   4.612
 1392W        W73707  19.048  16.675   4.584
 1393W        W73708   4.518  16.561  11.572
 1394W        W73709  17.078  41.535  11.079
 1395W        W73710  40.337  20.157  10.742
 1396W        W73711  20.190   5.704   0.818
 1397W        W73712   4.270  26.039  11.126
 1398W        W73713   9.319   7.344   4.061
 1399W        W73714  36.058  16.302  11.487
 1400W        W73715  30.596  22.910   2.359
 1401W        W73716   6.609   2.069   2.759
 1402W        W73717  20.123   7.399  13.327
 1403W        W73718  35.830  25.599   3.602
 1404W        W73719   5.189  25.275  13.666
 1405W        W73720   1.949   1.612  11.180
 1406W        W73721   5.470  16.475  14.726
 1407W        W73722  21.810  20.999   2.245
 1408W        W73723   1.400  10.280   4.388
 1409W        W73724  39.040   3.294  14.292
 1410W        W73725  16.579  18.263   3.270
 1411W        W73726  30.230   6.253   4.528
 1412W        W73727  32.147  41.064  13.436
 1413W        W73728  10.534  22.085  12.445
 1414W        W73729  43.631  12.753   1.478
 1415W        W73730  26.349  35.397  14.453
 1416W        W73731   6.225   4.845   5.235
 1417W        W73732  24.203  33.100  12.105
 1418W        W73733   2.198   4.576   1.257
 1419W        W73734  34.382  28.520  11.588
 1420W        W73735  15.685   0.260  12.402
 1421W        W73736  39.045   5.277   3.157
 1422W        W73737  16.325  22.982  14.317
 1423W        W73738  21.463  11.256  11.664
 1424W        W73739  14.895  12.359   1.321
 1425W        W73740   5.834  21.811  11.093
 1426W        W73741   0.664  33.841  14.495
 1427W        W73742   5.949  17.740  11.271
 1428W        W73743  39.429  11.632   2.393
 1429W        W73744  15.364  40.346  13.542
 1430W        W73745   7.849   4.717   0.446
 1431W        W73746  43.314  29.063   4.359
 1432W        W73747  12.540  31.159  11.167
 1433W        W73748   9.252  32.964   4.764
 1434W        W73749  12.767   8.357  14.519
 1435W        W73750  23.940  28.129   2.857
 1436W        W73751  23.767   2.950  11.512
 1437W        W73752   2.728   6.668   0.106
 1438W        W73753  32.226  25.470   1.513
 1439W        W73754  14.782  36.714  10.741
 1440W        W73755  38.586  12.412  12.410
 1441W        W73756   1.469  14.342   4.654
 1442W        W73757  14.485   4.248   0.280
 1443W        W73758   1.754   1.478  13.853
 1444W        W73759   6.296  21.036  12.060
 1445W        W73760  31.659  31.904  11.956
 1446W        W73761  29.202   6.426   0.969
 1447W        W73762  34.139  37.917  12.186
 1448W        W73763  29.052  37.528  11.021
 1449W        W73764  27.430  18.660   1.563
 1450W        W73765  27.716  15.750  11.185
 1451W        W73766  36.576   5.732  10.570
 1452W        W73767  42.768  13.112  14.090
 1453W        W73768  40.109  43.265  12.450
 1454W        W73769  44.020  10.421  12.371
 1455W        W73770  43.787  20.507   4.178
 1456W        W73771  44.030  36.771   0.436
 1457W        W73772  16.193  38.561  13.873
 1458W        W73773  27.130  40.362  14.244
 1459W        W73774  22.816   2.263   0.391
 1460W        W73775  39.469  21.622  10.764
 1461W        W73776  17.621  40.060  11.536
 1462W        W73777  17.034  43.359   1.643
 1463W        W73778   9.939  29.861  12.865
 1464W        W73779  36.843  21.679   0.221
 1465W        W73780   8.392  11.415   2.740
 1466W        W73781  17.638  27.074  12.082
 1467W        W73782  27.394  29.953   4.896
 1468W        W73783  13.683   9.676   4.446
 1469W        W73784  21.860  18.748  14.791
 1470W        W73785  41.997  39.526   1.906
 1471W        W73786   0.906  38.621   1.405
 1472W        W73787   7.531   9.670   0.437
 1473W        W73788   0.343  38.026   4.102
 1474W        W73789   0.013  14.498   2.381
 1475W        W73790  30.573   1.522  14.912
 1476W        W73791   3.772  22.167  13.512
 1477W        W73792   3.844  28.196   2.408
 1478W        W73793   0.563   8.194  14.101
 1479W        W73794  12.802  31.126  10.682
 1480W        W73795   5.225  42.346   2.824
 1481W        W73796  44.051   3.107   4.199
 1482W        W73797  21.735  28.948  11.098
 1483W        W73798  37.040  23.032   0.421
 1484W        W73799  32.060  15.895  13.471
 1485W        W73800  24.698  15.741  14.376
 1486W        W73801   3.015  44.081   0.353
 1487W        W73802   4.680  26.448  12.717
 1488W        W73803  40.773  25.845   4.617
 1489W        W73804  21.045  13.873   3.815
 1490W        W73805  26.515  44.563  12.578
 1491W        W73806   1.400   9.813   5.371
 1492W        W73807   8.220  15.337  10.684
 1493W        W73808  42.376  25.654   3.565
 1494W        W73809   1.697  22.615   1.948
 1495W        W73810  28.161  14.234  11.611
 1496W        W73811   3.767  20.768  10.502
 1497W        W73812  33.023  29.321  13.994
 1498W        W73813  34.482  25.277  12.111
 1499W        W73814   8.011  30.474  11.065
 1500W        W73815  13.783  24.782   2.895
 1501W        W73816  11.281  35.541  13.486
 1502W        W73817  28.212   3.617  10.603
 1503W        W73818  32.099  39.867  14.140
 1504W        W73819   1.689  30.046  10.727
 1505W        W73820  17.528  10.133  11.916
 1506W        W73821  33.006  33.716  11.568
 1507W        W73822   5.295   3.765  10.509
 1508W        W73823  11.190  19.064  13.753
 1509W        W73824  38.997  10.071  11.606
 1510W        W73825  18.972  41.019  11.085
 1511W        W73826  43.715  38.414   4.681
 1512W        W73827  17.263  42.918  10.998
 1513W        W73828  20.676   3.255   1.418
 1514W        W73829  10.240  23.726  12.190
 1515W        W73830  30.543  10.170   1.774
 1516W        W73831  35.081  41.960   2.206
 1517W        W73832  28.073  21.014  14.031
 1518W        W73833  35.396  43.582   2.298
 1519W        W73834  33.952  15.721  12.883
 1520W        W73835  40.707  18.500  11.393
 1521W        W73836   0.723  38.447  11.560
 1522W        W73837   6.432  16.825   1.380
 1523W        W73838  14.604  43.552  13.330
 1524W        W73839   7.632  36.536   4.925
 1525W        W73840  25.231   7.162   1.264
 1526W        W73841  24.279  37.893  12.049
 1527W        W73842  22.188   2.887  14.913
 1528W        W73843  30.436  35.936   1.317
 1529W        W73844  33.581   4.919  13.556
 1530W        W73845  40.497  43.539   0.394
 1531W        W73846  37.942  40.438   2.851
 1532W        W73847  25.756  36.995  13.541
 1533W        W73848  20.241  11.275  14.458
 1534W        W73849  15.816  15.819  11.514
 1535W        W73850  37.006  24.516  14.424
 1536W        W73851  12.918  36.429  13.572
 1537W        W73852  14.592  26.947  14.445
 1538W        W73853   9.875  24.237  14.475
 1539W        W73854  44.527  35.253   1.277
 1540W        W73855  27.123  21.286  12.218
 1541W        W73856  24.363  11.455   5.112
 1542W        W73857  18.583  42.403  12.118
 1543W        W73858  38.522  43.469  12.662
 1544W        W73859  11.205  36.309   2.727
 1545W        W73860  38.927  43.515  11.738
 1546W        W73861  20.964  14.067  12.924
 1547W        W73862  14.772   1.565  13.890
 1548W        W73863  12.280  20.908  12.836
 1549W        W73864  25.979  25.017  11.580
 1550W        W73865   7.863  40.988  14.580
 1551W        W73866  23.558  35.608   0.299
 1552W        W73867  36.032  15.584  12.036
 1553W        W73868   2.307  36.440   2.390
 1554W        W73869  36.698   4.524  11.000
 1555W        W73870   7.831  14.419  10.939
 1556W        W73871  12.790  33.107   2.544
 1557W        W73872   1.711   3.257   3.637
 1558W        W73873  32.632  24.307   4.225
 1559W        W73874  18.128   8.913  12.235
 1560W        W73875  43.709   1.836   3.734
 1561W        W73876   3.316  30.439  14.432
 1562W        W73877   1.467  44.880   2.491
 1563W        W73878  40.647  24.514  11.083
 1564W        W73879  28.455  20.621  12.770
 1565W        W73880   4.313   2.815   3.091
 1566W        W73881  44.645  32.449   1.110
 1567W        W73882  15.077  28.681   3.198
 1568W        W73883  31.513  31.622  12.412
 1569W        W73884  30.905  32.591   3.654
 1570W        W73885  44.382  30.961  11.385
 1571W        W73886  10.602  20.689   2.297
 1572W        W73887  29.846   2.254  14.914
 1573W        W73888  20.546  26.712   4.538
 1574W        W73889  40.241   4.302  12.979
 1575W        W73890  23.911  26.307  11.508
 1576W        W73891   6.696   7.807   3.115
 1577W        W73892  32.422   3.254  12.818
 1578W        W73893   8.417  39.603  12.395
 1579W        W73894   3.552   5.913  10.862
 1580W        W73895  26.772  20.988  13.466
 1581W        W73896  17.279  43.372  10.688
 1582W        W73897  10.261  37.734  12.248
 1583W        W73898  26.492   9.029   9.859
 1584W        W73899  14.190  32.627   1.667
 1585W        W73900  37.063  35.836  11.202
 1586W        W73901  14.072  31.395   0.738
 1587W        W73902  17.763  31.135   5.202
 1588W        W73903  40.105  36.296  12.981
 1589W        W73904  27.222  15.232  10.398
 1590W        W73905  24.515  44.501  13.483
 1591W        W73906  31.001   5.701   1.887
 1592W        W73907   2.157  19.146  11.318
 1593W        W73908   4.054  12.513   4.932
 1594W        W73909  27.266  21.257  14.476
 1595W        W73910   7.926  26.102   0.920
 1596W        W73911  19.287  40.923  14.364
 1597W        W73912  39.459   6.174  13.858
 1598W        W73913  11.798  26.051  12.359
 1599W        W73914  24.949  41.029   3.250
 1600W        W73915   2.019  42.862  13.079
 1601W        W73916  12.092  32.848  14.793
 1602W        W73917  37.094   2.577   0.933
 1603W        W73918   0.532   0.903   2.785
 1604W        W73919   5.758  14.741   2.004
 1605W        W73920  19.411   8.314   4.503
 1606W        W73921  31.919  28.454   0.723
 1607W        W73922   9.001  30.142  13.905
 1608W        W73923   9.198   7.601  13.810
 1609W        W73924   4.322  36.193   1.293
 1610W        W73925  40.348   2.409   4.291
 1611W        W73926  14.706  42.880   4.454
 1612W        W73927  16.807  33.083   0.684
 1613W        W73928  27.145   0.052   1.699
 1614W        W73929  35.061   2.452  13.587
 1615W        W73930  35.564  31.075  13.927
 1616W        W73931   2.773  19.134  11.201
 1617W        W73932  19.765   9.841   3.737
 1618W        W73933  44.979  12.932   9.726
 1619W        W73934  12.393   3.844   0.719
 1620W        W73935  28.204  23.220  10.747
 1621W        W73936  13.208   6.631  12.988
 1622W        W73937  10.707  12.720   0.950
 1623W        W73938  41.033  36.460   4.930
 1624W        W73939  28.940  42.174   3.666
 1625W        W73940  30.539  14.934   4.486
 1626W        W73941  24.667  28.843   1.907
 1627W        W73942  23.128   1.381  12.595
 1628W        W73943  15.151  17.056   4.508
 1629W        W73944  31.956  24.774  10.752
 1630W        W73945  12.574   6.998  11.370
 1631W        W73946  26.985  25.226  14.914
 1632W        W73947  29.766  12.975   0.952
 1633W        W73948  40.275  32.237   2.493
 1634W        W73949   0.121  21.512  12.466
 1635W        W73950  37.371   1.974  11.167
 1636W        W73951  27.108  42.400   1.493
 1637W        W73952  26.886   7.103   3.152
 1638W        W73953  17.539  30.564  13.009
 1639W        W73954  18.543  12.269  13.916
 1640W        W73955  32.116   3.491   1.738
 1641W        W73956  35.422  21.546  13.680
 1642W        W73957  41.991   9.533  11.510
 1643W        W73958  23.709   2.861  10.509
 1644W        W73959  37.868  25.015   3.723
 1645W        W73960  35.958  28.030   3.941
 1646W        W73961   8.151  19.261   1.887
 1647W        W73962  36.240  35.762   1.151
 1648W        W73963  38.518  29.772  11.543
 1649W        W73964  37.750  38.497  14.473
 1650W        W73965  10.822  29.157  13.798
 1651W        W73966  34.806   6.401  11.517
 1652W        W73967  29.316  12.652  13.376
 1653W        W73968   9.712  40.765   0.556
 1654W        W73969  28.166  21.837   4.827
 1655W        W73970  19.955   1.609   4.041
 1656W        W73971  22.803  18.835  14.007
 1657W        W73972   4.983  32.909   1.457
 1658W        W73973  25.218  25.714   2.025
 1659W        W73974  14.054   0.931   3.122
 1660W        W73975  17.025  43.906  14.545
 1661W        W73976  29.467  35.550   0.513
 1662W        W73977  23.209  31.824  12.881
 1663W        W73978  26.147  18.200  10.334
 1664W        W73979  28.703   8.202   2.876
 1665W        W73980  44.157   1.429   0.343
 1666W        W73981  26.231  18.706  13.478
 1667W        W73982  31.957  34.667   4.180
 1668W        W73983   3.588   9.280   1.317
 1669W        W73984  20.879   5.979   1.325
 1670W        W73985  18.327  21.248  12.661
 1671W        W73986   1.811  15.518   0.904
 1672W        W73987  29.334   6.543   5.062
 1673W        W73988  27.017  41.014   3.678
 1674W        W73989  10.938  42.495  10.702
 1675W        W73990   5.713  39.875   3.648
 1676W        W73991  26.564  40.167   4.963
 1677W        W73992  34.057  10.783   2.357
 1678W        W73993  43.742  10.605   4.559
 1679W        W73994  36.885   8.584   2.379
 1680W        W73995  40.874   5.862   3.043
 1681W        W73996  19.227  28.748  12.003
 1682W        W73997  27.159  14.185  11.565
 1683W        W73998  38.081  42.780   1.398
 1684W        W73999  26.819   5.668  13.139
 1685W        W74000  32.614  44.039   2.413
 1686W        W74001  14.847   2.716   4.324
 1687W        W74002  28.110  31.675   4.687
 1688W        W74003  29.033  26.460  14.764
 1689W        W74004  13.518  20.255  11.150
 1690W        W74005  42.837  32.732   4.862
 1691W        W74006  34.055   8.671  11.242
 1692W        W74007  27.122  10.503   4.187
 1693W        W74008  37.019   0.425  14.101
 1694W        W74009  15.797  25.242  11.538
 1695W        W74010  29.849  31.850  11.408
 1696W        W74011  20.405  11.775   4.778
 1697W        W74012  35.863  15.605  10.712
 1698W        W74013  18.529  11.225   3.602
 1699W        W74014  15.255  15.079  12.862
 1700W        W74015  27.964  42.434   3.631
 1701W        W74016  40.566  40.737  14.430
 1702W        W74017  12.398  36.994   3.254
 1703W        W74018  22.458  17.808   3.182
 1704W        W74019   6.805   7.693  14.754
 1705W        W74020  43.381  32.668  10.899
 1706W        W74021   9.908  43.391  10.727
 1707W        W74022  14.799  29.100  13.569
 1708W        W74023   4.011   6.787  13.068
 1709W        W74024  35.177  26.929  10.672
 1710W        W74025   0.040  34.099   0.745
 1711W        W74026   8.240  23.758   4.614
 1712W        W74027   6.920   5.859  14.303
 1713W        W74028  19.918  15.700  10.704
 1714W        W74029  14.281  11.201  11.586
 1715W        W74030   3.737  36.299   3.248
 1716W        W74031   3.504   3.674  14.354
 1717W        W74032  41.265  15.753   3.231
 1718W        W74033  23.615  34.066  13.796
 1719W        W74034  30.442  22.593   4.647
 1720W        W74035  17.123   8.297   0.572
 1721W        W74036   0.797  18.615   4.309
 1722W        W74037  42.167  15.192  14.268
 1723W        W74038  15.147  24.709   4.077
 1724W        W74039  28.076  43.028  11.171
 1725W        W74040  13.599   3.056  10.595
 1726W        W74041  16.724  31.586   3.342
 1727W        W74042  12.774  44.446  11.385
 1728W        W74043  13.711  25.356  11.798
 1729W        W74044   3.686  19.518  14.913
 1730W        W74045  39.396   2.923   1.827
 1731W        W74046  28.226  27.219  14.727
 1732W        W74047  41.075  39.736  11.179
 1733W        W74048  12.747  41.215   3.886
 1734W        W74049  16.548  13.063  14.271
 1735W        W74050  37.082  44.081   3.153
 1736W        W74051  43.692  36.614   1.242
 1737W        W74052  44.800  43.396   4.146
 1738W        W74053  24.469  12.011   3.573
 1739W        W74054  11.209  19.275   5.820
 1740W        W74055  11.368  20.093  11.636
 1741W        W74056  37.723  12.990   2.322
 1742W        W74057   8.932  34.881  13.378
 1743W        W74058   6.786   7.973   4.260
 1744W        W74059  31.937  22.232  12.672
 1745W        W74060  11.023  26.032   1.676
 1746W        W74061  32.390  28.854   2.819
 1747W        W74062   6.204  16.941   0.887
 1748W        W74063  27.879   4.874   0.879
 1749W        W74064   5.225  44.532   0.009
 1750W        W74065  10.206  39.319   0.973
 1751W        W74066   6.826   2.442   4.539
 1752W        W74067   8.383   1.418   3.672
 1753W        W74068   6.146  44.980   1.562
 1754W        W74069  20.822  20.204   2.886
 1755W        W74070  12.661  20.598   1.745
 1756W        W74071  35.298   4.711   1.848
 1757W        W74072  25.838  17.343  11.188
 1758W        W74073   4.007  20.046  12.493
 1759W        W74074   3.346  19.261   3.539
 1760W        W74075  33.931  42.908   4.043
 1761W        W74076  10.654  31.404  12.329
 1762W        W74077  17.830  29.938  10.636
 1763W        W74078   4.744  20.088   0.336
 1764W        W74079   7.587  36.056  11.861
 1765W        W74080  40.333  36.595   3.620
 1766W        W74081   7.903  29.173  14.052
 1767W        W74082  33.639   9.262  10.656
 1768W        W74083   3.684  43.944  12.974
 1769W        W74084   3.004   9.976  10.221
 1770W        W74085   9.624  11.765   2.728
 1771W        W74086  38.594  37.413   1.470
 1772W        W74087   8.416   5.849  10.726
 1773W        W74088  33.232  41.129  12.558
 1774W        W74089  29.587  30.462   3.789
 1775W        W74090  10.146  44.567   4.120
 1776W        W74091  25.547  35.589   4.063
 1777W        W74092  10.165  33.369   3.448
 1778W        W74093  39.807  38.319  12.969
 1779W        W74094  20.601   3.522  12.450
 1780W        W74095   1.383  32.105  14.018
 1781W        W74096  20.008  20.193   1.718
 1782W        W74097   0.257  36.426   4.747
 1783W        W74098  29.662  22.737  12.937
 1784W        W74099   6.138  31.054  13.442
 1785W        W74100  39.110  13.625  14.970
 1786W        W74101  36.626   3.154  14.365
 1787W        W74102  13.859  19.082   4.170
 1788W        W74103  20.799  17.328   3.670
 1789W        W74104  32.235  25.549   2.914
 1790W        W74105   7.221   3.011  14.402
 1791W        W74106  13.208  32.510   0.748
 1792W        W74107  40.030  44.264   3.601
 1793W        W74108  15.376  18.816  11.483
 1794W        W74109  10.098   8.702  14.984
 1795W        W74110  19.096  22.760  14.388
 1796W        W74111  28.466  42.940   3.117
 1797W        W74112  11.644  28.101  11.584
 1798W        W74113  26.503  13.586   2.957
 1799W        W74114  28.983  16.059   0.410
 1800W        W74115  35.016  36.148   4.164
 1801W        W74116  19.989  13.039  12.046
 1802W        W74117   4.316  38.562  11.848
 1803W        W74118  20.964  15.193   3.495
 1804W        W74119  35.620  20.349   4.082
 1805W        W74120  30.597  10.323  12.980
 1806W        W74121  38.457  13.878  13.759
 1807W        W74122  24.863  23.203   4.345
 1808W        W74123  13.654  13.317  14.405
 1809W        W74124  22.263  14.636  14.324
 1810W        W74125  36.015  21.167   1.833
 1811W        W74126  20.124   5.661   2.763
 1812W        W74127  41.788  29.420  12.546
 1813W        W74128   6.847  23.091   0.544
 1814W        W74129  23.642  25.644   3.850
 1815W        W74130  23.318  37.211   4.558
 1816W        W74131  33.806   7.779   3.672
 1817W        W74132   7.787  11.491   4.322
 1818W        W74133  38.096   2.680  11.599
 1819W        W74134  22.475   9.333  10.687
 1820W        W74135  40.465  23.909   4.108
 1821W        W74136  34.072   2.227  12.990
 1822W        W74137  36.051   2.900  12.754
 1823W        W74138  17.132   4.705  14.960
 1824W        W74139  19.259  35.951  13.993
 1825W        W74140   3.324  36.869  11.916
 1826W        W74141  10.186  41.998   4.074
 1827W        W74142  10.112   6.752  10.692
 1828W        W74143  15.080   6.211   2.826
 1829W        W74144  21.622  22.521   0.306
 1830W        W74145  31.034   4.312  10.647
 1831W        W74146  14.034  32.860  13.475
 1832W        W74147   6.401  10.911  13.058
 1833W        W74148  44.737  12.160   5.132
 1834W        W74149  14.316  14.690   4.666
 1835W        W74150   7.254  41.343   0.445
 1836W        W74151  17.118  30.594   0.444
 1837W        W74152   9.311  21.152  11.226
 1838W        W74153   5.458  18.249  14.292
 1839W        W74154  40.357  10.546  13.639
 1840W        W74155  40.477  40.815  12.384
 1841W        W74156  37.691  26.549  11.368
 1842W        W74157  36.648  27.537   1.905
 1843W        W74158  40.679  26.994  13.221
 1844W        W74159  16.117  31.502  13.522
 1845W        W74160   8.620  35.874  12.029
 1846W        W74161  23.858  38.285  12.009
 1847W        W74162  19.567  13.324  12.964
 1848W        W74163  21.834  26.037   0.252
 1849W        W74164  10.401  10.841  11.124
 1850W        W74165  21.009  13.178  12.038
 1851W        W74166   2.360  36.227   4.734
 1852W        W74167  42.558  25.352  12.874
 1853W        W74168  13.779  13.205  12.837
 1854W        W74169  39.136   2.760  11.624
 1855W        W74170  39.126  23.002  14.081
 1856W        W74171  21.778  43.387   2.448
 1857W        W74172  19.473  10.352  13.317
 1858W        W74173  43.419  23.902  13.071
 1859W        W74174  30.679  31.677  10.976
 1860W        W74175   1.063  42.010   3.173
 1861W        W74176   3.969  29.142   2.122
 1862W        W74177  28.195  12.533  12.884
 1863W        W74178  18.007  35.122   2.839
 1864W        W74179  44.803  36.353   2.692
 1865W        W74180  37.002  13.645  14.766
 1866W        W74181  33.498   7.648  11.559
 1867W        W74182  40.472  36.936  10.802
 1868W        W74183   2.646  30.446   3.061
 1869W        W74184  20.440   7.304   2.427
 1870W        W74185   3.811  37.082  12.034
 1871W        W74186  14.344   4.761  14.486
 1872W        W74187  12.530  29.507  13.920
 1873W        W74188  41.893  12.680  11.982
 1874W        W74189  34.545  30.145   1.790
 1875W        W74190   4.093  30.499   4.563
 1876W        W74191  37.428  20.173  14.535
 1877W        W74192   9.153  30.081   0.442
 1878W        W74193  26.467  27.771   3.771
 1879W        W74194  41.835  18.304  12.524
 1880W        W74195  34.101   4.269  11.548
 1881W        W74196  28.933  27.010   0.527
 1882W        W74197   8.114  14.118  12.513
 1883W        W74198  40.318  26.645  14.790
 1884W        W74199  31.847  22.965  11.074
 1885W        W74200   5.456  38.181  11.129
 1886W        W74201  15.677  18.352   4.808
 1887W        W74202  19.049  25.629   0.298
 1888W        W74203  30.487  39.092   3.128
 1889W        W74204  17.490  16.716  11.242
 1890W        W74205  20.999  39.822   3.216
 1891W        W74206  40.073  19.609  14.968
 1892W        W74207  30.409  44.328   1.792
 1893W        W74208  42.530  16.193   0.750
 1894W        W74209  21.813   4.226  12.434
 1895W        W74210  43.175  27.455  14.351
 1896W        W74211  22.187  27.987   0.032
 1897W        W74212   4.726  20.231   4.534
 1898W        W74213  10.796  10.884   3.141
 1899W        W74214  32.716  19.629  12.027
 1900W        W74215  20.030  13.565  12.973
 1901W        W74216  15.076  42.059  10.724
 1902W        W74217  38.617   1.632  11.640
 1903W        W74218  12.026  30.971   4.603
 1904W        W74219  19.741  37.822  13.082
 1905W        W74220  31.369  36.909  12.573
 1906W        W74221  29.687   1.928  11.967
 1907W        W74222  36.045  17.535   0.889
 1908W        W74223  36.651  36.309   0.358
 1909W        W74224  44.078  23.236   2.103
 1910W        W74225  17.852  35.516  10.853
 1911W        W74226  43.025  25.458   1.702
 1912W        W74227   8.747   9.792   2.956
 1913W        W74228   4.905  30.137   4.878
 1914W        W74229  34.016   1.775   3.277
 1915W        W74230  13.781  24.781  11.008
 1916W        W74231  38.691  11.021  12.479
 1917W        W74232  12.327  39.062   3.166
 1918W        W74233   8.761  18.751   1.311
 1919W        W74234  36.394   1.081   2.542
 1920W        W74235  12.821  21.770  12.867
 1921W        W74236  23.593  26.459  11.096
 1922W        W74237  32.379  40.572  14.943
 1923W        W74238  37.983  32.145   3.577
 1924W        W74239  24.035  33.530   4.637
 1925W        W74240  14.395   3.933  10.792
 1926W        W74241  11.717  39.443  14.918
 1927W        W74242  37.388  40.450  11.494
 1928W        W74243  38.888  29.585  11.866
 1929W        W74244  18.666  42.099   2.688
 1930W        W74245   0.684   9.243   1.717
 1931W        W74246   5.406   3.265  10.815
 1932W        W74247  37.390   7.320   0.414
 1933W        W74248  28.128  36.546  12.055
 1934W        W74249   4.691  13.630   2.855
 1935W        W74250   5.340  32.455   4.394
 1936W        W74251   9.055  42.286   1.666
 1937W        W74252  44.670  37.035   4.265
 1938W        W74253  40.486  28.929   3.699
 1939W        W74254  44.817  36.038  10.630
 1940W        W74255  42.041  15.500   2.258
 1941W        W74256  38.308  37.842  14.276
 1942W        W74257  22.670  40.896  10.699
 1943W        W74258  37.604  30.063  13.971
 1944W        W74259  40.351  37.943   0.322
 1945W        W74260   3.677  35.031  14.291
 1946W        W74261  27.763   7.173   2.339
 1947W        W74262  40.719  29.456   1.765
 1948W        W74263   2.632  21.985  11.112
 1949W        W74264  24.018  31.919  13.408
 1950W        W74265   6.195   4.154   3.894
 1951W        W74266  42.970  14.090  14.436
 1952W        W74267  20.074  31.279  14.446
 1953W        W74268   1.245  29.399  11.566
 1954W        W74269  37.429   8.081   1.936
 1955W        W74270  19.791  26.483   3.195
 1956W        W74271   7.251  31.960   2.888
 1957W        W74272   8.647  37.129   0.934
 1958W        W74273  34.951  33.852   4.134
 1959W        W74274  11.582   0.853   2.177
 1960W        W74275  17.098  20.447  12.070
 1961W        W74276  14.691   8.406   3.661
 1962W        W74277  24.979  35.416  14.822
 1963W        W74278   4.496  10.911  14.466
 1964W        W74279  22.631   7.378   1.178
 1965W        W74280   3.553  43.505   3.269
 1966W        W74281  41.361  31.513   3.734
 1967W        W74282  43.489  21.174   1.441
 1968W        W74283  16.614  24.506   1.677
 1969W        W74284  13.299  10.092  14.801
 1970W        W74285  15.579  42.906  12.563
 1971W        W74286   6.631  11.253   4.884
 1972W        W74287  32.309  41.211   5.274
 1973W        W74288   8.274   4.704  10.459
 1974W        W74289  38.996  39.925   0.535
 1975W        W74290  10.641  18.312   2.309
 1976W        W74291   9.570   5.932   0.726
 1977W        W74292   0.732   6.680   2.323
 1978W        W74293  15.745  17.686  10.787
 1979W        W74294   4.157   4.346  14.389
 1980W        W74295  12.697  30.176   0.552
 1981W        W74296  31.143  21.670   4.552
 1982W        W74297  29.576  37.168   4.730
 1983W        W74298   5.769  40.747   3.082
 1984W        W74299  23.647  24.595  14.377
 1985W        W74300  39.074  17.221  14.066
 1986W        W74301   2.535  39.149  11.098
 1987W        W74302  22.857  40.245  11.758
 1988W        W74303  42.449   7.589  10.811
 1989W        W74304  21.150  13.163  10.699
 1990W        W74305  44.690  20.642  11.686
 1991W        W74306   5.077  26.295  11.424
 1992W        W74307  13.273   0.656   1.090
 1993W        W74308  44.952  41.294  14.818
 1994W        W74309  12.219   0.016   0.697
 1995W        W74310  26.670  13.745  12.063
 1996W        W74311  22.898  23.737  13.735
 1997W        W74312   4.414  30.212   3.585
 1998W        W74313  10.595   4.329   2.836
 1999W        W74314  40.293  36.986   4.765
 2000W        W74315  14.068  20.448  12.554
 2001W        W74316  39.810  43.349   4.523
 2002W        W74317  38.747  18.910  11.985
 2003W        W74318  31.179  41.462   1.183
 2004W        W74319  39.343  33.116   2.231
 2005W        W74320  28.924   2.480   4.658
 2006W        W74321  33.928   2.279   2.850
 2007W        W74322   5.304   7.492   3.829
 2008W        W74323  19.068  11.529   1.559
 2009W        W74324  27.398  12.328   2.316
 2010W        W74325  13.525  17.140   1.922
 2011W        W74326  30.194  14.784  13.008
 2012W        W74327  38.300  19.052  14.310
 2013W        W74328   3.778  20.540   3.699
 2014W        W74329  17.917  24.483   2.699
 2015W        W74330  15.053   4.346   4.872
 2016W        W74331  17.864   7.130   1.421
 2017W        W74332  44.853  22.286   3.165
 2018W        W74333   8.748  12.112   2.385
 2019W        W74334   0.553  29.484   1.367
 2020W        W74335  24.750  12.100   4.003
 2021W        W74336  23.899   5.230   4.071
 2022W        W74337  33.916  28.559   1.938
 2023W        W74338  24.462  33.949  14.390
 2024W        W74339  31.542   2.240  10.674
 2025W        W74340  23.307  27.231  11.120
 2026W        W74341  27.003  43.357   0.220
 2027W        W74342  25.469  33.266  13.334
 2028W        W74343  43.144  17.524  14.758
 2029W        W74344   1.824  35.246   1.402
 2030W        W74345  36.490   0.345  14.993
 2031W        W74346  22.229  41.136  10.538
 2032W        W74347  25.535  28.787  12.772
 2033W        W74348  30.034  18.658  11.307
 2034W        W74349  21.506  41.279   4.629
 2035W        W74350   0.473  11.863  10.921
 2036W        W74351  42.526  17.127  13.481
 2037W        W74352  24.230  27.200   3.198
 2038W        W74353  18.228  27.142   2.739
 2039W        W74354   1.001  37.133   1.790
 2040W        W74355   2.608  39.000  10.199
 2041W        W74356   8.769  25.009   3.983
 2042W        W74357  14.711  31.921  10.243
 2043W        W74358   2.268  27.207  10.830
 2044W        W74359   1.248  21.474  11.197
 2045W        W74360  37.872  37.683   0.686
 2046W        W74361  22.460  33.030   1.735
 2047W        W74362  36.859  13.374   3.870
 2048W        W74363  27.669  31.891  11.108
 2049W        W74364   8.591  24.235   2.851
 2050W        W74365  40.250  28.036   2.222
 2051W        W74366  15.561  18.022   0.776
 2052W        W74367   2.183  41.681   2.855
 2053W        W74368  25.988  32.099   2.392
 2054W        W74369  21.163   3.192   0.727
 2055W        W74370  20.294  13.089   0.757
 2056W        W74371  31.872  37.541  10.769
 2057W        W74372  34.133  17.280  11.021
 2058W        W74373  20.157   3.932   0.842
 2059W        W74374  27.203  20.755   4.464
 2060W        W74375  44.793   3.292   3.665
 2061W        W74376  24.636  23.383   0.400
 2062W        W74377  12.918   9.664   1.943
 2063W        W74378  32.085   5.093  13.672
 2064W        W74379  17.067   4.421  11.137
 2065W        W74380  18.139  10.314   5.084
 2066W        W74381  16.610  39.603   2.144
 2067W        W74382  16.368  14.143   0.631
 2068W        W74383  15.222  10.883  10.624
 2069W        W74384  34.011  23.934   4.153
 2070W        W74385  30.423  44.251   4.578
 2071W        W74386  35.620   7.874  10.894
 2072W        W74387  42.294  27.802   2.937
 2073W        W74388   0.751  19.947  12.871
 2074W        W74389   7.898  19.623   5.077
 2075W        W74390  37.576  40.829  12.946
 2076W        W74391  38.052  36.498  13.960
 2077W        W74392  17.065   8.632  11.069
 2078W        W74393   8.833  34.518  11.257
 2079W        W74394  23.775  13.111   0.254
 2080W        W74395  30.703   6.050   4.490
 2081W        W74396  42.421  38.357  14.861
 2082W        W74397  10.634  35.712  11.252
 2083W        W74398  33.042  21.441  10.660
 2084W        W74399  34.611  35.700   3.170
 2085W        W74400  35.363  41.525   2.101
 2086W        W74401  28.474   7.950   1.103
 2087W        W74402   3.673   4.887   0.412
 2088W        W74403  29.731  37.544  12.131
 2089W        W74404  32.658  34.309   3.832
 2090W        W74405  31.005  14.394  11.525
 2091W        W74406  38.921  11.327   0.212
 2092W        W74407  32.876  40.333   4.862
 2093W        W74408  35.973  28.993   2.398
 2094W        W74409  14.343  18.688   4.803
 2095W        W74410  20.281  33.492  10.229
 2096W        W74411  34.500  32.393   4.066
 2097W        W74412  41.844  36.836   4.238
 2098W        W74413  35.984  22.715  14.322
 2099W        W74414  20.925  23.079   0.726
 2100W        W74415  33.173  25.004  10.765
 2101W        W74416  32.420  22.350   4.193
 2102W        W74417  32.037  44.018  12.088
 2103W        W74418   9.941  17.118  11.343
 2104W        W74419  23.232  44.272  13.921
 2105W        W74420   5.656  36.365   3.173
 2106W        W74421  21.135   4.825   2.776
 2107W        W74422  16.918   0.015  12.065
 2108W        W74423   8.403  17.738  13.891
 2109W        W74424  43.415  40.953  12.185
 2110W        W74425  20.806   3.800   2.103
 2111W        W74426  41.990  12.565   1.620
 2112W        W74427  24.277  29.170   3.649
 2113W        W74428  15.088  25.978  10.818
 2114W        W74429   4.682   4.256   1.755
 2115W        W74430  30.198  44.150  11.079
 2116W        W74431   2.550  15.976   4.366
 2117W        W74432  24.656  32.826  12.159
 2118W        W74433  28.446  22.676   4.332
 2119W        W74434  42.864  42.948  14.532
 2120W        W74435  43.300  12.106   0.542
 2121W        W74436  26.372  27.025   1.205
 2122W        W74437  43.006   4.960  12.942
 2123W        W74438  17.269  20.707   2.373
 2124W        W74439   2.883  16.719   0.931
 2125W        W74440  22.069  19.687   2.705
 2126W        W74441   7.341  19.662  13.993
 2127W        W74442  38.651  27.553  10.395
 2128W        W74443  20.911  30.870   2.296
 2129W        W74444  10.280   7.756  11.666
 2130W        W74445  39.332   9.699  11.579
 2131W        W74446  40.934   1.010  14.221
 2132W        W74447  10.384  20.475  12.811
 2133W        W74448  21.385  37.225   0.911
 2134W        W74449  16.426  44.446  12.898
 2135W        W74450  13.639  27.059  14.417
 2136W        W74451  38.118  42.493   2.788
 2137W        W74452  32.645  17.038   2.622
 2138W        W74453  31.039   1.572   2.790
 2139W        W74454  21.707   7.638  12.477
 2140W        W74455  16.316   0.905   0.399
 2141W        W74456   3.960  11.293  14.520
 2142W        W74457   2.853  21.469  14.008
 2143W        W74458   7.859  10.189  12.877
 2144W        W74459  12.578   0.055   3.181
 2145W        W74460  28.211  31.914  10.275
 2146W        W74461  12.644  34.175   0.846
 2147W        W74462   1.000  35.358   3.730
 2148W        W74463   0.620  35.437   5.091
 2149W        W74464  31.826  22.599  10.697
 2150W        W74465  32.271  37.311   2.844
 2151W        W74466  24.281  14.830  12.804
 2152W        W74467  42.475  43.318   0.816
 2153W        W74468  23.819  13.797   1.239
 2154W        W74469  38.834  31.899   4.050
 2155W        W74470   4.920  19.183   0.303
 2156W        W74471  25.456  15.455   2.014
 2157W        W74472  17.773  44.336   4.331
 2158W        W74473   4.953  42.530   0.276
 2159W        W74474   7.713  35.617  10.691
 2160W        W74475  31.945   9.938   0.412
 2161W        W74476   7.215  27.964  10.402
 2162W        W74477  27.165   9.344  11.580
 2163W        W74478  44.940  22.123   4.650
 2164W        W74479  23.920  31.900   2.720
 2165W        W74480  30.428  28.094  10.857
 2166W        W74481  27.014  38.664   0.227
 2167W        W74482  37.817  31.014   1.711
 2168W        W74483  44.561  26.629   2.952
 2169W        W74484   9.007  11.727  11.141
 2170W        W74485  42.790  29.056  14.811
 2171W        W74486  10.010  36.276  14.567
 2172W        W74487   0.892   2.137  12.802
 2173W        W74488  20.283  10.649  11.884
 2174W        W74489   1.416  23.001   1.260
 2175W        W74490  29.373  10.760   2.353
 2176W        W74491  19.691  25.235   0.739
 2177W        W74492  44.295  34.362   2.343
 2178W        W74493  31.183   1.869   1.737
 2179W        W74494  43.240   0.043   3.462
 2180W        W74495  41.586  35.608   4.790
 2181W        W74496  29.514  23.216   1.605
 2182W        W74497   6.440   9.412  13.006
 2183W        W74498  17.211  23.011   0.454
 2184W        W74499  11.846  11.301  14.784
 2185W        W74500  19.120  30.946   4.553
 2186W        W74501  43.348  44.870  10.744
 2187W        W74502  30.965  41.567   5.030
 2188W        W74503   8.716  12.843  12.128
 2189W        W74504  38.451  24.494  10.888
 2190W        W74505   6.398  39.493  14.143
 2191W        W74506  30.636   2.007  13.080
 2192W        W74507  42.888  15.747  14.544
 2193W        W74508   3.925  22.235  14.506
 2194W        W74509  13.354  25.994   2.200
 2195W        W74510  19.337  16.698   1.357
 2196W        W74511   6.187  10.311   0.835
 2197W        W74512   1.766  18.672   4.135
 2198W        W74513  14.675  42.993  12.689
 2199W        W74514  43.488  28.109   2.440
 2200W        W74515  18.922  35.054   0.790
 2201W        W74516  15.212  23.589  10.754
 2202W        W74517   8.274   3.755  13.954
 2203W        W74518  21.207  28.157   2.738
 2204W        W74519   4.296   2.360   3.401
 2205W        W74520  19.709  25.151  12.463
 2206W        W74521  30.408   9.939   0.905
 2207W        W74522   2.329   8.433   1.396
 2208W        W74523  27.439  20.097  14.510
 2209W        W74524  19.016   2.559  10.818
 2210W        W74525   2.965  10.163  12.456
 2211W        W74526  19.254   1.256   2.188
 2212W        W74527   5.421  11.241   4.537
 2213W        W74528  42.298  34.497  11.889
 2214W        W74529  23.504  43.916   2.383
 2215W        W74530  17.305  33.505  10.229
 2216W        W74531   6.060   1.697  13.479
 2217W        W74532  14.275  28.445  14.000
 2218W        W74533  41.934  20.181   3.950
 2219W        W74534  30.282   1.958   4.731
 2220W        W74535   5.924  12.791   4.834
 2221W        W74536  31.417  31.642  14.464
 2222W        W74537  33.046  19.006   0.308
 2223W        W74538  18.830  33.107   3.347
 2224W        W74539  37.531  35.311  13.412
 2225W        W74540  33.129   9.355  10.747
 2226W        W74541   2.387  31.007   4.696
 2227W        W74542  37.014  21.620   0.726
 2228W        W74543  12.193   3.666   3.550
 2229W        W74544  32.187  40.284  12.879
 2230W        W74545   5.360  13.227  14.633
 2231W        W74546  14.624  44.992  12.668
 2232W        W74547  40.456   4.356   1.795
 2233W        W74548   0.312   0.332  14.215
 2234W        W74549  44.171  16.156  13.355
 2235W        W74550  24.283  12.882   4.029
 2236W        W74551  11.298  36.418   3.811
 2237W        W74552  24.236  23.817  14.724
 2238W        W74553  14.782  31.938   1.334
 2239W        W74554  11.420  36.493  13.143
 2240W        W74555   4.354  33.891  14.541
 2241W        W74556  10.792  37.993  12.981
 2242W        W74557  17.444  44.431  13.076
 2243W        W74558  41.040  17.416   3.836
 2244W        W74559  13.073  21.265  12.270
 2245W        W74560  43.473  24.169   0.847
 2246W        W74561  34.818   4.334   3.191
 2247W        W74562   6.222  43.763  14.526
 2248W        W74563  16.799  31.909  14.471
 2249W        W74564  35.550  30.750  12.373
 2250W        W74565   6.681   9.647  10.500
 2251W        W74566  25.760  11.569  12.444
 2252W        W74567  32.912  39.338   1.799
 2253W        W74568  17.610  37.488   0.691
 2254W        W74569  38.093  37.726  12.339
 2255W        W74570   9.786  19.669  11.097
 2256W        W74571  29.075   2.802  10.886
 2257W        W74572   3.341  16.941   1.048
 2258W        W74573  29.555   6.116   2.956
 2259W        W74574   6.833  33.787  11.624
 2260W        W74575  25.575  20.838   0.258
 2261W        W74576   9.574   5.247   0.227
 2262W        W74577   8.690   5.451   2.745
 2263W        W74578  30.121  40.808  13.464
 2264W        W74579  44.246  42.260   2.187
 2265W        W74580  36.900  41.313   3.874
 2266W        W74581   2.473  27.933  14.072
 2267W        W74582  24.671  13.723  13.337
 2268W        W74583   9.785  42.739  12.042
 2269W        W74584  32.653  10.168   3.144
 2270W        W74585  21.225  24.145   4.051
 2271W        W74586  13.118  29.115   1.316
 2272W        W74587  24.220   5.878   3.162
 2273W        W74588  41.769  12.832   1.233
 2274W        W74589  23.198  35.417   4.886
 2275W        W74590   3.617  13.122   1.016
 2276W        W74591   3.464   5.431   0.771
 2277W        W74592  10.922   9.277   1.013
 2278W        W74593   9.391  25.256  11.173
 2279W        W74594   5.508  10.585  10.781
 2280W        W74595  12.737  35.960  13.770
 2281W        W74596  12.374   2.581  12.969
 2282W        W74597  26.956  21.941  10.525
 2283W        W74598  33.593  16.558  14.396
 2284W        W74599   2.535  36.435   4.317
 2285W        W74600  17.151  29.463  10.770
 2286W        W74601  32.512  21.118  11.225
 2287W        W74602  35.094   4.870  12.574
 2288W        W74603  32.063  33.065   0.272
 2289W        W74604  34.780  27.449   0.450
 2290W        W74605  24.512  12.600  11.579
 2291W        W74606  27.643  18.681   2.634
 2292W        W74607  20.033  16.141   4.380
 2293W        W74608   8.186  29.968   0.382
 2294W        W74609  19.760  12.774   3.000
 2295W        W74610  12.285  37.707  14.281
 2296W        W74611  10.237  29.037   2.779
 2297W        W74612  24.766  11.948   3.160
 2298W        W74613  32.889   5.129   3.580
 2299W        W74614  24.897   1.339   2.116
 2300W        W74615  13.618  42.087  13.889
 2301W        W74616  23.072  28.115  14.938
 2302W        W74617  29.152   1.319   0.777
 2303W        W74618  31.158  39.418  12.124
 2304W        W74619  22.536  26.842   2.725
 2305W        W74620  35.834  18.588  14.008
 2306W        W74621   7.777  19.543  12.511
 2307W        W74622  37.099  18.683  14.258
 2308W        W74623  22.634  27.730   4.911
 2309W        W74624  35.665  31.591  14.986
 2310W        W74625  14.152  40.814   1.061
 2311W        W74626  10.779   5.993  12.961
 2312W        W74627  10.531   2.244   5.089
 2313W        W74628  11.616  26.128  11.445
 2314W        W74629  25.954   4.383   4.171
 2315W        W74630  43.644  31.951  12.079
 2316W        W74631  10.751  11.730  11.573
 2317W        W74632  34.694   3.704   4.426
 2318W        W74633  14.766  14.579  13.118
 2319W        W74634  38.453  42.796  13.289
 2320W        W74635  32.829  35.395   3.047
 2321W        W74636  36.195  23.014   3.237
 2322W        W74637  11.213   7.078   0.291
 2323W        W74638  23.290  29.032  14.690
 2324W        W74639  20.461  19.880  12.587
 2325W        W74640   7.179  12.018   2.690
 2326W        W74641  34.298   2.458   0.482
 2327W        W74642  20.968  29.679   3.725
 2328W        W74643  44.529   2.562  14.016
 2329W        W74644   5.739  42.567   2.867
 2330W        W74645  26.045  34.389   2.217
 2331W        W74646  32.914  22.150   3.328
 2332W        W74647   2.592  16.347  10.438
 2333W        W74648  24.089  14.102   0.895
 2334W        W74649  25.438  19.978   9.691
 2335W        W74650   3.510  31.934   3.260
 2336W        W74651   6.166  40.990   2.300
 2337W        W74652  26.514   5.413   3.564
 2338W        W74653  17.711   1.206   2.636
 2339W        W74654  29.523  17.120  12.498
 2340W        W74655  44.139  13.146  13.136
 2341W        W74656  20.613  39.049   2.042
 2342W        W74657  15.253  21.580  10.918
 2343W        W74658   1.739   6.291  10.689
 2344W        W74659   3.183  25.527  10.569
 2345W        W74660  28.729  29.049   1.674
 2346W        W74661  16.309  32.985  11.147
 2347W        W74662   1.655  40.751   0.296
 2348W        W74663  33.437  28.151  14.527
 2349W        W74664  33.686  18.587  14.427
 2350W        W74665  38.021   6.496  14.029
 2351W        W74666   4.448   4.270  13.957
 2352W        W74667  11.946  25.781   1.705
 2353W        W74668  23.673  33.708  14.775
 2354W        W74669   9.117  33.962  12.853
 2355W        W74670  24.112  22.172   3.218
 2356W        W74671  41.567   5.579  14.514
 2357W        W74672  37.127   8.133   2.350
 2358W        W74673  37.882   5.026   4.306
 2359W        W74674  44.506  24.530   5.031
 2360W        W74675  14.328  26.807   3.859
 2361W        W74676  35.656  21.092  14.542
 2362W        W74677   1.325  24.555  13.335
 2363W        W74678  27.889  12.946  11.336
 2364W        W74679  24.115  30.893   3.366
 2365W        W74680  24.005  19.240   0.266
 2366W        W74681  25.753   5.371   1.383
 2367W        W74682  30.025  26.610   0.466
 2368W        W74683   8.355  19.927   4.243
 2369W        W74684  17.726  27.543  11.872
 2370W        W74685  33.716  35.969  14.335
 2371W        W74686   1.432  23.653  12.556
 2372W        W74687  25.791  30.778  10.810
 2373W        W74688  20.979   2.552  12.150
 2374W        W74689  19.855  44.432   0.464
 2375W        W74690  33.747  11.847  12.425
 2376W        W74691  10.344  38.249  12.085
 2377W        W74692  21.599  42.505  11.111
 2378W        W74693  39.244  27.564  10.699
 2379W        W74694  30.026   7.799  14.209
 2380W        W74695   7.358  18.559  14.367
 2381W        W74696   0.392  23.679  14.918
 2382W        W74697  33.548  28.661   4.555
 2383W        W74698   1.918  13.827   0.274
 2384W        W74699   7.456  39.848   1.563
 2385W        W74700  31.472  41.027  12.842
 2386W        W74701  24.041   2.538   0.008
 2387W        W74702  29.830   9.484   3.218
 2388W        W74703  10.300  32.510  10.705
 2389W        W74704  38.046   7.765   0.272
 2390W        W74705  25.688  39.904  13.909
 2391W        W74706  31.546   1.510  12.826
 2392W        W74707  33.411  29.549   5.072
 2393W        W74708  31.264  28.536   5.150
 2394W        W74709  36.347  17.162  14.330
 2395W        W74710   8.831   2.988  12.536
 2396W        W74711  30.943   5.686  10.295
 2397W        W74712  13.336  19.317   1.908
 2398W        W74713  12.193   5.473  11.784
 2399W        W74714  18.726  26.166  11.613
 2400W        W74715  42.454  29.108   2.895
 2401W        W74716  13.421  14.245   4.368
 2402W        W74717  44.404   2.129  12.067
 2403W        W74718   5.013  35.342  12.004
 2404W        W74719  33.084   6.059   2.893
 2405W        W74720  25.929   6.676  11.442
 2406W        W74721   3.305  26.644  14.897
 2407W        W74722   1.143  11.074   4.160
 2408W        W74723  11.576  24.077   2.310
 2409W        W74724  30.132  22.707   2.220
 2410W        W74725   1.308  12.085   4.597
 2411W        W74726  19.722  18.680   2.268
 2412W        W74727  19.916  23.143  12.683
 2413W        W74728  41.292  19.757   4.642
 2414W        W74729  16.058   1.974   1.313
 2415W        W74730   4.932  30.315   3.804
 2416W        W74731   6.194  19.072   4.161
 2417W        W74732  28.433   3.681   2.720
 2418W        W74733  20.105  22.319   3.850
 2419W        W74734  35.882  31.641   0.442
 2420W        W74735  13.836  10.781   4.829
 2421W        W74736  17.259  17.179  13.412
 2422W        W74737  23.129  38.629  12.753
 2423W        W74738  27.526  20.579  14.325
 2424W        W74739  25.643   0.398  10.621
 2425W        W74740  39.112  41.024  14.210
 2426W        W74741  11.753   5.801   1.494
 2427W        W74742  39.904  21.578   0.289
 2428W        W74743  31.456  34.311  13.116
 2429W        W74744  27.007  29.086   4.592
 2430W        W74745  34.862  15.493  11.633
 2431W        W74746  35.870   9.900  14.817
 2432W        W74747   0.251  23.524  11.736
 2433W        W74748  38.606   7.972  11.202
 2434W        W74749   3.965  40.741  12.001
 2435W        W74750  31.522  16.147  10.927
 2436W        W74751  33.714  22.571   0.746
 2437W        W74752  27.028   9.918   0.576
 2438W        W74753  37.264  31.189   4.026
 2439W        W74754  15.459  19.826   9.956
 2440W        W74755  32.436  44.820  14.282
 2441W        W74756  30.861  27.946  12.841
 2442W        W74757  30.454   6.756   0.416
 2443W        W74758   6.901   2.756  12.043
 2444W        W74759  37.126  10.337   0.894
 2445W        W74760  11.242  27.070  13.136
 2446W        W74761  40.040   2.523  14.357
 2447W        W74762  31.548  20.478   3.875
 2448W        W74763  13.858  30.640  11.212
 2449W        W74764  25.033  14.686   2.161
 2450W        W74765  34.386  40.508   0.770
 2451W        W74766  11.219  39.872   4.281
 2452W        W74767  13.709  32.138  10.674
 2453W        W74768  27.770  24.668   1.351
 2454W        W74769   6.876  24.009   0.505
 2455W        W74770   9.645  23.660  13.424
 2456W        W74771  18.527   9.914   0.644
 2457W        W74772  15.660  31.742  13.491
 2458W        W74773  44.556  11.825   1.217
 2459W        W74774  37.321  43.828   0.053
 2460W        W74775  36.109   4.284  12.532
 2461W        W74776   3.556  38.424  13.568
 2462W        W74777   7.217  35.228  12.569
 2463W        W74778   3.512  41.056   5.099
 2464W        W74779  22.652  17.075   2.189
 2465W        W74780   8.761  35.077  12.931
 2466W        W74781  43.463  29.653   4.340
 2467W        W74782  10.703  23.696  10.816
 2468W        W74783  23.517  26.641  11.604
 2469W        W74784  10.730  35.821   0.020
 2470W        W74785  16.915  27.347   5.051
 2471W        W74786  28.009  39.802   3.756
 2472W        W74787  41.237  19.701   4.106
 2473W        W74788  23.602  11.142  14.134
 2474W        W74789  27.639  16.528  10.466
 2475W        W74790  36.873   7.239   0.193
 2476W        W74791   0.558   8.374  13.440
 2477W        W74792  34.035  29.872   2.763
 2478W        W74793   4.022  43.194  13.917
 2479W        W74794  26.872  10.460   3.726
 2480W        W74795  10.320   1.146  12.112
 2481W        W74796  34.475  13.196  12.464
 2482W        W74797   4.432   4.346  11.579
 2483W        W74798  21.663  39.363   4.714
 2484W        W74799  36.164  42.935  10.447
 2485W        W74800  30.729  42.168  13.090
 2486W        W74801   0.936  12.426  13.076
 2487W        W74802   7.903   4.909  10.100
 2488W        W74803  14.370  38.331   2.728
 2489W        W74804  13.730  26.912   4.179
 2490W        W74805  32.132  44.505  11.885
 2491W        W74806  22.783  30.318  12.234
 2492W        W74807  23.449   7.646   4.607
 2493W        W74808  21.979  17.954   3.105
 2494W        W74809  15.848  36.357   2.177
 2495W        W74810  35.811  36.012  10.630
 2496W        W74811  14.026   4.358  14.374
 2497W        W74812  26.230   8.287  11.253
 2498W        W74813  12.842  19.481   0.877
 2499W        W74814   8.222   5.485   0.940
 2500W        W74815   8.286  19.280   3.182
 2501W        W74816   3.916  34.343   2.174
 2502W        W74817  28.168  38.522  14.819
 2503W        W74818  29.881  31.635   4.324
 2504W        W74819  37.123  34.486  10.673
 2505W        W74820   2.868  42.852  13.773
 2506W        W74821  32.547  42.636   2.758
 2507W        W74822  43.822   0.825  13.567
 2508W        W74823  13.598  36.938  13.233
 2509W        W74824  12.170   6.358   2.308
 2510W        W74825  13.420  44.851   2.349
 2511W        W74826  18.876  33.955   3.885
 2512W        W74827  24.219  24.703  10.548
 2513W        W74828   3.505  36.820   3.657
 2514W        W74829  13.604  14.660  14.965
 2515W        W74830   3.339  31.646   0.001
 2516W        W74831  18.696  17.506  13.356
 2517W        W74832  19.982  41.420   0.918
 2518W        W74833  16.309  23.660   4.520
 2519W        W74834  39.982  14.041   1.546
 2520W        W74835  44.328  42.785   0.296
 2521W        W74836  41.366  37.448  14.506
 2522W        W74837  42.840  39.221   3.251
 2523W        W74838   2.521  28.109   1.017
 2524W        W74839   8.536  25.962   4.523
 2525W        W74840  15.484  16.136   0.940
 2526W        W74841   8.140  35.073  11.702
 2527W        W74842  35.280  44.483   1.407
 2528W        W74843  39.099   9.068   4.785
 2529W        W74844  42.369  26.972   1.826
 2530W        W74845  34.356   6.812   0.889
 2531W        W74846  43.054  39.088  14.661
 2532W        W74847  30.532  24.260   2.777
 2533W        W74848  25.592  21.360   0.330
 2534W        W74849   2.050  25.037  13.104
 2535W        W74850  36.967   9.286  13.516
 2536W        W74851   4.346  33.849  11.023
 2537W        W74852  10.282   6.812  13.985
 2538W        W74853  37.857  17.723   3.929
 2539W        W74854  44.913  25.700  13.847
 2540W        W74855   8.907  10.438  12.088
 2541W        W74856  24.669  37.114   3.125
 2542W        W74857  23.318  35.467   3.910
 2543W        W74858  24.172  40.260   0.382
 2544W        W74859   8.628  32.995  13.449
 2545W        W74860  34.577  12.876  12.031
 2546W        W74861  37.335  20.722  11.921
 2547W        W74862  29.074  38.092   4.601
 2548W        W74863  38.031  32.100   0.492
 2549W        W74864   2.351  31.529   3.699
 2550W        W74865  34.375  32.578  13.775
 2551W        W74866  41.038  13.652  12.074
 2552W        W74867  29.751  18.640   1.844
 2553W        W74868  42.679  42.452  10.518
 2554W        W74869  28.435   7.326  10.725
 2555W        W74870  25.495  14.663  14.030
 2556W        W74871  32.105  31.825   4.875
 2557W        W74872   9.181  32.028   4.027
 2558W        W74873  26.547  15.048  12.440
 2559W        W74874   0.092  32.059  13.653
 2560W        W74875  28.059   6.580   5.274
 2561W        W74876   8.393  41.639  13.888
 2562W        W74877   4.956  33.941   2.894
 2563W        W74878   0.784  15.780   2.675
 2564W        W74879   8.455  26.081   4.018
 2565W        W74880  27.755  26.555  11.739
 2566W        W74881   4.099  21.006   4.253
 2567W        W74882  43.059  24.556   0.827
 2568W        W74883  35.537  12.069  12.566
 2569W        W74884  33.512  43.974   3.917
 2570W        W74885  18.800  35.266   1.257
 2571W        W74886  39.970   1.974  14.461
 2572W        W74887  15.188  38.354   0.972
 2573W        W74888   6.355   8.428   3.667
 2574W        W74889  14.272   7.137   2.198
 2575W        W74890  32.828   1.622  11.173
 2576W        W74891  30.874  35.289   5.258
 2577W        W74892  36.976   3.755   1.153
 2578W        W74893  36.954  20.180   4.136
 2579W        W74894   3.427  42.260   0.880
 2580W        W74895   2.498  10.070   1.067
 2581W        W74896   1.863   7.329   3.636
 2582W        W74897  35.160  44.728  12.896
 2583W        W74898  30.168   6.680   4.814
 2584W        W74899  33.370  23.682   3.597
 2585W        W74900  40.746  13.159  10.723
 2586W        W74901  22.327  22.497  10.670
 2587W        W74902   3.030   8.146  11.137
 2588W        W74903  39.867  13.057  11.610
 2589W        W74904  24.711  18.086  13.519
 2590W        W74905  17.858  28.517  11.949
 2591W        W74906   7.581  35.593   4.603
 2592W        W74907  23.179  35.454   4.394
 2593W        W74908   6.723  22.577   2.836
 2594W        W74909  38.849   8.823   4.022
 2595W        W74910  37.036   5.285   0.952
 2596W        W74911  33.890  17.957  12.230
 2597W        W74912  17.188  44.939   0.993
 2598W        W74913   9.091  25.908  14.859
 2599W        W74914  36.977   9.717   2.638
 2600W        W74915  33.107  34.812  10.960
 2601W        W74916  30.881  31.973  10.580
 2602W        W74917  28.220  33.887  10.405
 2603W        W74918  22.284   1.742   0.951
 2604W        W74919   0.748  26.046  11.105
 2605W        W74920  20.725  24.017  11.865
 2606W        W74921  39.850  26.585  12.268
 2607W        W74922  21.968  23.848  13.838
 2608W        W74923  23.701   8.647  12.039
 2609W        W74924  16.501  17.733  14.983
 2610W        W74925   7.887  17.327   1.004
 2611W        W74926  18.099  23.783  12.069
 2612W        W74927  12.989  43.027   3.180
 2613W        W74928  34.893  34.392   2.236
 2614W        W74929   5.935   3.882  10.188
 2615W        W74930  36.688  20.554   4.561
 2616W        W74931  32.226  28.861   4.532
 2617W        W74932  40.834  33.959   3.253
 2618W        W74933  24.381  12.778  10.720
 2619W        W74934  32.861  42.360   1.970
 2620W        W74935  40.940  25.996  14.432
 2621W        W74936  32.684   0.776  13.343
 2622W        W74937  38.386  18.714  12.628
 2623W        W74938   0.911  11.600  11.077
 2624W        W74939  31.873  21.942   3.330
 2625W        W74940  18.897  12.092  14.337
 2626W        W74941  23.581   1.765  14.021
 2627W        W74942  14.277  14.030  12.410
 2628W        W74943  33.046  44.767   4.227
 2629W        W74944   4.812  24.120  11.918
 2630W        W74945  21.143   7.862   4.061
 2631W        W74946  30.184  38.510  13.476
 2632W        W74947  10.565  18.268   4.675
 2633W        W74948  16.572  44.293   3.858
 2634W        W74949   9.982  42.842   0.931
 2635W        W74950  17.522  30.378   2.237
 2636W        W74951  14.357  30.537   2.421
 2637W        W74952  41.102  21.122  12.920
 2638W        W74953  29.088  18.613   1.234
 2639W        W74954   9.903   1.649  14.940
 2640W        W74955  44.001  23.907   3.825
 2641W        W74956  18.156  27.662   0.793
 2642W        W74957  13.670   4.857   3.378
 2643W        W74958  14.621  11.361  12.537
 2644W        W74959  41.933  26.129  14.824
 2645W        W74960  20.222   5.803  14.782
 2646W        W74961  33.363  36.462   3.561
 2647W        W74962  29.624  28.441   0.935
 2648W        W74963  29.629  38.035  11.302
 2649W        W74964  36.522   0.252  13.342
 2650W        W74965  39.614  34.988   0.026
 2651W        W74966  41.600  21.009  14.854
 2652W        W74967  39.500  20.821  13.428
 2653W        W74968  31.342  36.839  11.573
 2654W        W74969  24.729   9.795  13.941
 2655W        W74970   6.178  12.202  13.139
 2656W        W74971  25.661  33.084   4.431
 2657W        W74972  36.356  14.571  12.390
 2658W        W74973   2.008  32.234  11.701
 2659W        W74974  14.632  33.696   2.317
 2660W        W74975  40.396  27.149   0.628
 2661W        W74976  23.470  31.835   2.493
 2662W        W74977  39.157   4.227   1.160
 2663W        W74978  29.226   5.762  11.948
 2664W        W74979  36.574  19.522  11.165
 2665W        W74980   9.888  34.144   2.938
 2666W        W74981  29.134  44.393   1.235
 2667W        W74982   3.660   8.254  11.232
 2668W        W74983  41.468  12.631   0.842
 2669W        W74984  14.344  37.452  13.510
 2670W        W74985  38.555  37.033  10.593
 2671W        W74986   1.781  22.437  14.178
 2672W        W74987  18.055  39.922   4.626
 2673W        W74988  36.878   9.447   4.213
 2674W        W74989  43.802  33.929   1.715
 2675W        W74990  22.831  38.486  13.320
 2676W        W74991   0.392  17.545   2.804
 2677W        W74992  31.118  43.307  11.429
 2678W        W74993  30.088  16.573  12.103
 2679W        W74994   4.928  17.527   4.285
 2680W        W74995  16.239  38.248  10.214
 2681W        W74996  14.559  19.204   2.243
 2682W        W74997  28.141  24.066   2.866
 2683W        W74998   5.974   9.795   1.609
 2684W        W74999  34.393  28.222  13.362
 2685W        W75000  10.783   9.339  14.596
 2686W        W75001  40.055  14.197  14.524
 2687W        W75002  10.807  34.805  14.783
 2688W        W75003   5.400  27.498  14.393
 2689W        W75004  12.525  20.185   4.317
 2690W        W75005   8.172  12.789  13.469
 2691W        W75006  40.127  18.648  10.402
 2692W        W75007  35.394  44.977  10.784
 2693W        W75008  34.380   0.466  12.915
 2694W        W75009  13.292   1.773  11.178
 2695W        W75010  24.090  29.824  14.914
 2696W        W75011  33.304  44.255   1.413
 2697W        W75012  19.739  19.707  10.705
 2698W        W75013  11.059  13.612  12.556
 2699W        W75014  44.866   8.565   4.097
 2700W        W75015   1.422  12.108  10.692
 2701W        W75016  15.295  41.849  11.948
 2702W        W75017  20.300   4.645   2.513
 2703W        W75018  25.013  33.065  13.344
 2704W        W75019   7.658  44.331   0.947
 2705W        W75020  17.233  19.466   2.139
 2706W        W75021  18.790  38.667  10.224
 2707W        W75022  20.748   5.073  12.564
 2708W        W75023  22.578  41.815   1.472
 2709W        W75024  27.391  10.710   1.007
 2710W        W75025  34.894  44.952   1.855
 2711W        W75026  34.402   0.704  13.417
 2712W        W75027  37.382  27.142  12.489
 2713W        W75028  39.014  38.579  13.395
 2714W        W75029   8.404  13.690  12.598
 2715W        W75030  41.416  41.221  14.266
 2716W        W75031   7.443   5.496  13.469
 2717W        W75032   4.766  21.044   2.794
 2718W        W75033   9.636  36.226   0.754
 2719W        W75034   7.416  18.282   0.212
 2720W        W75035  30.555  13.225  11.200
 2721W        W75036  23.144  37.389   2.247
 2722W        W75037   8.000  16.863   4.865
 2723W        W75038  11.305   3.633  12.927
 2724W        W75039  12.072  22.581  13.171
 2725W        W75040   4.952  34.441  12.080
 2726W        W75041  40.090  34.623   0.930
 2727W        W75042  25.947   5.694  14.121
 2728W        W75043  44.885   6.159   2.223
 2729W        W75044  16.181  43.793  14.380
 2730W        W75045   1.330  42.336  13.056
 2731W        W75046   2.576  27.727   3.340
 2732W        W75047  28.420  25.913  11.914
 2733W        W75048  40.946  34.159  11.617
 2734W        W75049  25.022  43.777   1.259
 2735W        W75050  38.248  30.284   1.145
 2736W        W75051   2.282   5.355  14.523
 2737W        W75052  40.371  35.059  10.991
 2738W        W75053  42.578  16.202   3.291
 2739W        W75054  28.913  31.018  10.999
 2740W        W75055  31.364  30.954   0.641
 2741W        W75056   4.842  26.835  10.815
 2742W        W75057  34.940   5.197   3.041
 2743W        W75058   0.230  24.996   2.666
 2744W        W75059  31.656  41.640   1.267
 2745W        W75060   1.163   9.956   4.096
 2746W        W75061  19.329  21.197   0.509
 2747W        W75062   7.156  29.041  13.134
 2748W        W75063  27.948  39.261  12.619
 2749W        W75064  26.983  15.329  12.566
 2750W        W75065  37.802  39.085   0.517
 2751W        W75066  35.685  22.962   3.273
 2752W        W75067   6.966  21.284   4.642
 2753W        W75068  26.169   7.921   0.731
 2754W        W75069  17.109  17.943   2.429
 2755W        W75070  35.022  26.664   3.514
 2756W        W75071   2.771  43.033   2.971
 2757W        W75072   3.820  27.381  13.289
 2758W        W75073  36.046  28.380   3.581
 2759W        W75074  18.327  24.941  11.764
 2760W        W75075  17.222   1.713   3.173
 2761W        W75076   7.376  21.065  13.833
 2762W        W75077  39.806   4.375   0.208
 2763W        W75078   3.792  44.847   3.132
 2764W        W75079  34.988   3.860   3.089
 2765W        W75080  42.257  36.925  10.492
 2766W        W75081   8.407  30.585  11.574
 2767W        W75082   9.575   8.635  13.045
 2768W        W75083  29.948  10.751   3.128
 2769W        W75084   4.935  42.572   3.766
 2770W        W75085   9.851  19.470   4.619
 2771W        W75086  42.191  43.257   2.651
 2772W        W75087  22.242  38.101  11.132
 2773W        W75088  38.062  11.853  10.780
 2774W        W75089  34.517  42.057   3.145
 2775W        W75090  12.445  23.745   1.353
 2776W        W75091  22.629  34.471  12.453
 2777W        W75092  13.882  24.860  14.157
 2778W        W75093  18.761  27.494  14.714
 2779W        W75094  35.099  24.174  12.843
 2780W        W75095  43.748   7.796   2.370
 2781W        W75096  19.917  25.117   3.759
 2782W        W75097  29.020  24.477  14.825
 2783W        W75098  15.175  36.180   4.804
 2784W        W75099   3.215  40.544   4.689
 2785W        W75100  30.341  12.355   3.271
 2786W        W75101  24.824  25.917  11.355
 2787W        W75102  33.926  38.615  10.857
 2788W        W75103  37.620  26.009  14.932
 2789W        W75104  28.027  14.781  14.947
 2790W        W75105   7.667   2.398  14.840
 2791W        W75106   5.750  30.200  14.400
 2792W        W75107  44.299  20.545   4.183
 2793W        W75108  32.049  37.528   3.283
 2794W        W75109  36.784  17.308   0.992
 2795W        W75110  15.304  15.603   2.785
 2796W        W75111  29.939  10.767   4.708
 2797W        W75112  15.692  41.796   1.321
 2798W        W75113  38.513  25.238   0.133
 2799W        W75114  30.625  11.806   0.855
 2800W        W75115  36.291  14.538   1.709
 2801W        W75116  44.720  26.147  13.584
 2802W        W75117  29.174  41.771   0.377
 2803W        W75118  12.308  11.922  14.429
 2804W        W75119  21.031  26.088  13.631
 2805W        W75120  19.456   7.910  10.272
 2806W        W75121  44.491  29.673   0.008
 2807W        W75122  38.546  25.798   2.845
 2808W        W75123  11.358  31.264   2.685
 2809W        W75124  11.345  29.046  12.429
 2810W        W75125  38.775  28.562   2.332
 2811W        W75126  33.445   1.335   1.857
 2812W        W75127  37.302  37.340   4.537
 2813W        W75128  44.262  25.131  13.488
 2814W        W75129  29.049  41.438   0.756
 2815W        W75130   2.991  44.665  13.819
 2816W        W75131   8.013  32.233   4.061
 2817W        W75132  27.098  22.049  11.883
 2818W        W75133  17.824  33.897   2.693
 2819W        W75134  31.211  36.037   2.907
 2820W        W75135   8.927   3.499  12.579
 2821W        W75136  32.198  14.181   3.258
 2822W        W75137  17.395  38.457  14.759
 2823W        W75138  35.034  32.538   4.486
 2824W        W75139  23.233  22.311   4.019
 2825W        W75140   7.322  33.970   1.311
 2826W        W75141  12.131  41.874  11.106
 2827W        W75142   9.419  25.185   2.352
 2828W        W75143   2.802  13.168  12.578
 2829W        W75144   4.514  31.987   1.321
 2830W        W75145  16.963   8.875   3.750
 2831W        W75146  17.734  34.813   3.161
 2832W        W75147  21.813  24.902   3.318
 2833W        W75148  30.347   3.259   0.861
 2834W        W75149  29.829  20.587  12.485
 2835W        W75150  43.981   1.230   1.936
 2836W        W75151  29.482  30.026  11.965
 2837W        W75152   4.922  11.320   0.402
 2838W        W75153  36.316  30.734  12.948
 2839W        W75154  26.536  44.322   2.016
 2840W        W75155  32.641  42.932  12.194
 2841W        W75156  41.589   0.246   0.393
 2842W        W75157  17.511   6.238   0.740
 2843W        W75158  21.480  13.823   1.933
 2844W        W75159  39.764  37.035  13.346
 2845W        W75160  12.751   8.256  10.814
 2846W        W75161  30.266  23.109   0.060
 2847W        W75162  26.753   3.279   0.514
 2848W        W75163  27.970   9.847   0.047
 2849W        W75164  10.172   3.279   3.651
 2850W        W75165  22.713  12.601   0.766
 2851W        W75166   9.435  24.415   2.612
 2852W        W75167  28.473  37.129  13.211
 2853W        W75168  33.852  11.036  11.933
 2854W        W75169  12.945  24.585  13.864
 2855W        W75170  43.669  31.494   2.288
 2856W        W75171  43.232  12.571  10.579
 2857W        W75172  27.793  19.695  13.428
 2858W        W75173   6.883  42.433  14.864
 2859W        W75174  11.457   6.473  11.059
 2860W        W75175  27.487  34.940   1.434
 2861W        W75176  43.849  33.055  12.372
 2862W        W75177  39.762  22.114  11.991
 2863W        W75178  25.422   2.496   0.982
 2864W        W75179  18.686   6.758   0.387
 2865W        W75180  10.821  23.125  13.534
 2866W        W75181  16.287   0.644   5.067
 2867W        W75182  25.673  38.807   1.940
 2868W        W75183  35.966  28.156   2.927
 2869W        W75184   0.262  39.781   0.205
 2870W        W75185  17.279  20.165   2.913
 2871W        W75186   0.271  24.240   3.211
 2872W        W75187   8.179  34.201  13.621
 2873W        W75188  34.044  37.105  12.744
 2874W        W75189  38.326   3.223  14.837
 2875W        W75190  24.635   3.835   1.276
 2876W        W75191   5.835  32.104  10.529
 2877W        W75192  20.503   6.890  10.743
 2878W        W75193  19.026  10.352   0.883
 2879W        W75194   5.837  22.281  11.274
 2880W        W75195  34.062  26.171   1.337
 2881W        W75196  36.265  44.962  14.715
 2882W        W75197   2.279   4.680  10.119
 2883W        W75198  30.653   2.900  11.936
 2884W        W75199  21.352   6.813  14.733
 2885W        W75200  29.938  44.160  12.513
 2886W        W75201   6.489  35.608   1.862
 2887W        W75202  41.459  28.318   4.066
 2888W        W75203  37.481  24.211   2.123
 2889W        W75204  27.697  41.312   4.210
 2890W        W75205   0.345  32.570  14.843
 2891W        W75206   2.045  14.832   1.795
 2892W        W75207  39.456  35.924  11.416
 2893W        W75208   2.505  32.057   3.661
 2894W        W75209  24.584  44.711   4.152
 2895W        W75210  15.326  40.518  11.499
 2896W        W75211  38.326   8.737   4.225
 2897W        W75212  13.847  31.833  13.543
 2898W        W75213  23.196  15.309   4.696
 2899W        W75214  11.591  44.192  14.049
 2900W        W75215  27.908  42.545  12.568
 2901W        W75216  24.233  26.324   1.366
 2902W        W75217  25.155  26.065   4.302
 2903W        W75218   6.321  28.478  14.723
 2904W        W75219   6.696  38.734  11.650
 2905W        W75220  33.771   5.799   1.326
 2906W        W75221  21.020   1.153   4.163
 2907W        W75222  17.699  15.540  13.847
 2908W        W75223  27.168  20.029   1.959
 2909W        W75224  12.243   1.841   2.829
 2910W        W75225  33.005  23.525  11.579
 2911W        W75226  20.671  12.935   2.049
 2912W        W75227  16.612  28.066   4.180
 2913W        W75228  14.585  26.725  11.132
 2914W        W75229   8.606  27.082  13.592
 2915W        W75230  15.167  22.835   3.127
 2916W        W75231  31.913  11.190   2.398
 2917W        W75232  36.894   6.268   1.025
 2918W        W75233   4.121  42.788   3.380
 2919W        W75234  26.599  16.226  12.592
 2920W        W75235  20.789  41.098  14.271
 2921W        W75236  23.859  12.524  12.560
 2922W        W75237   3.306  26.364  10.319
 2923W        W75238  35.585  16.123  10.659
 2924W        W75239  29.711   2.736  12.943
 2925W        W75240  42.127   6.357  14.367
 2926W        W75241   3.226  23.522   1.767
 2927W        W75242   8.682   5.098  11.674
 2928W        W75243  26.703  39.069  12.101
 2929W        W75244  39.888  41.497  10.670
 2930W        W75245  16.293  12.921   2.820
 2931W        W75246  19.183  38.856   0.336
 2932W        W75247   7.754  32.431   0.777
 2933W        W75248  28.864  44.823   0.346
 2934W        W75249  11.938  19.484   4.234
 2935W        W75250  34.008   9.620   1.188
 2936W        W75251  44.401  27.629   1.517
 2937W        W75252  17.490  11.554   1.243
 2938W        W75253  21.132  39.087   1.180
 2939W        W75254   0.941  30.297  13.855
 2940W        W75255   9.852  31.544   3.666
 2941W        W75256  43.433  19.421  14.201
 2942W        W75257  11.391  12.068  13.054
 2943W        W75258  41.966  24.537  10.477
 2944W        W75259  30.443  31.850   0.739
 2945W        W75260  21.351   7.296  12.607
 2946W        W75261   1.669   0.363   4.812
 2947W        W75262  20.389   6.678   2.696
 2948W        W75263  18.779   4.941   4.442
 2949W        W75264  40.917  29.239  14.746
 2950W        W75265  34.858  26.636   1.342
 2951W        W75266  10.956  35.477  12.492
 2952W        W75267  33.583  38.488  11.674
 2953W        W75268  37.850   1.053  13.815
 2954W        W75269  40.819  43.311  12.068
 2955W        W75270  30.641  11.790  11.061
 2956W        W75271  37.107   2.545   4.193
 2957W        W75272  12.237   0.808   4.515
 2958W        W75273  19.318  19.749   3.246
 2959W        W75274  25.207  18.203  12.988
 2960W        W75275  13.335  38.402   2.833
 2961W        W75276  34.355  37.387   0.887
 2962W        W75277  18.077  35.124  12.550
 2963W        W75278  31.090  19.019  12.407
 2964W        W75279  23.066  11.232  13.879
 2965W        W75280  40.253  14.721   3.684
 2966W        W75281  38.743  10.969   0.532
 2967W        W75282  19.584  12.757  10.468
 2968W        W75283  19.812   7.263   0.315
 2969W        W75284  18.882  38.224   9.976
 2970W        W75285  10.465  16.697  14.992
 2971W        W75286  11.388  41.343  12.944
 2972W        W75287  35.367  21.517   0.699
 2973W        W75288  41.897   1.453  13.569
 2974W        W75289   0.774  30.942   2.908
 2975W        W75290   0.987  36.301   5.107
 2976W        W75291  39.391  37.631   2.497
 2977W        W75292  40.606  22.122   3.787
 2978W        W75293   8.480  43.456   3.729
 2979W        W75294   8.894  21.210  13.923
 2980W        W75295  18.028  22.979  10.655
 2981W        W75296  29.533   1.942  13.427
 2982W        W75297  24.788  32.877  14.218
 2983W        W75298  31.174  23.268   4.742
 2984W        W75299  22.483  17.329   1.728
 2985W        W75300  16.784  41.298  12.560
 2986W        W75301  25.840  29.761  14.859
 2987W        W75302   6.575  21.746   1.910
 2988W        W75303  26.091  35.289  14.016
 2989W        W75304   3.275  20.352   1.284
 2990W        W75305  32.201   8.210   2.828
 2991W        W75306  44.689  13.738   1.399
 2992W        W75307  34.965  42.002   4.156
 2993W        W75308  43.308  26.556  12.341
 2994W        W75309   6.151   0.302  14.803
 2995W        W75310   9.141  33.588   3.391
 2996W        W75311  13.268  42.408   4.596
 2997W        W75312  37.346  26.618   4.573
 2998W        W75313  13.400  38.283  13.663
 2999W        W75314  28.988   7.983  13.419
 3000W        W75315  44.903  35.478   0.576
 3001W        W75316  34.152  41.516   4.464
 3002W        W75317   6.844  43.984  11.828
 3003W        W75318  37.449  22.570   4.570
 3004W        W75319  25.669  15.111   1.458
 3005W        W75320  42.585   5.842   3.732
 3006W        W75321  38.785  30.379  11.209
 3007W        W75322  34.464  38.482  12.892
 3008W        W75323  28.579  16.057   2.987
 3009W        W75324  12.488  44.289  13.589
 3010W        W75325  33.324  23.770  14.003
 3011W        W75326  17.383  40.972   4.606
 3012W        W75327  44.082  29.523  14.662
 3013W        W75328  44.440  32.268   4.451
 3014W        W75329   5.109  43.451   3.678
 3015W        W75330  13.235  33.979   2.755
 3016W        W75331  10.514   4.401   0.814
 3017W        W75332  26.624  31.376   9.790
 3018W        W75333  21.378  27.632  14.757
 3019W        W75334  15.691  39.861   4.614
 3020W        W75335  10.331   1.176   2.649
 3021W        W75336   5.033  41.295   4.026
 3022W        W75337   7.844  39.047   1.795
 3023W        W75338   9.658  10.360   0.669
 3024W        W75339  39.017   8.123   0.252
 3025W        W75340   7.206  10.427  13.887
 3026W        W75341   7.423   3.466   3.283
 3027W        W75342  35.150   6.309   2.835
 3028W        W75343   4.460  27.882   0.495
 3029W        W75344  37.637  26.097   2.242
 3030W        W75345   2.965  33.927  14.002
 3031W        W75346  35.983  34.805  14.358
 3032W        W75347  44.874  31.206   3.178
 3033W        W75348  36.637  11.733   2.303
 3034W        W75349   9.901   5.182   3.272
 3035W        W75350  10.829  23.015   4.009
 3036W        W75351   2.998  16.151   2.653
 3037W        W75352  26.644   0.307   3.800
 3038W        W75353  39.573  21.557   4.457
 3039W        W75354  36.706  41.952  13.063
 3040W        W75355   9.185  31.910  12.012
 3041W        W75356  41.856  36.905  11.702
 3042W        W75357  31.931  30.861   1.401
 3043W        W75358  30.607  16.888  11.276
 3044W        W75359   9.942  44.047  12.512
 3045W        W75360   9.459  43.900   0.893
 3046W        W75361  18.798  34.397   1.770
 3047W        W75362   3.925  41.837  10.648
 3048W        W75363  40.757  14.285  12.327
 3049W        W75364  27.271  21.705   3.855
 3050W        W75365  31.344  32.913  12.553
 3051W        W75366   4.475  43.137   3.241
 3052W        W75367  25.126   8.128  10.462
 3053W        W75368  26.468  12.985   1.903
 3054W        W75369  40.742   2.626   4.622
 3055W        W75370  24.114  35.113   0.847
 3056W        W75371  36.514  22.269  12.052
 3057W        W75372  19.973  11.285  10.184
 3058W        W75373  43.868  20.662   2.181
 3059W        W75374  39.479  20.039   1.807
 3060W        W75375   4.182  18.266  12.905
 3061W        W75376  34.573  36.439   4.067
 3062W        W75377   9.774   4.892   4.526
 3063W        W75378   8.396  41.765  12.364
 3064W        W75379  26.101  16.742   4.617
 3065W        W75380  15.421  16.842  11.943
 3066W        W75381  13.300  24.723   1.195
 3067W        W75382  36.826  38.774  13.587
 3068W        W75383  17.529   1.181   0.661
 3069W        W75384  32.080   7.918   0.375
 3070W        W75385  41.324  34.295  13.990
 3071W        W75386  28.633  22.262   1.285
 3072W        W75387   1.204  13.510  14.557
 3073W        W75388  40.777  30.265  11.019
 3074W        W75389   7.679  33.083   3.250
 3075W        W75390  19.025  23.511   0.888
 3076W        W75391  26.096  34.572   1.377
 3077W        W75392  16.311   3.305  14.282
 3078W        W75393   5.700   1.329  14.734
 3079W        W75394   7.434  44.069  12.952
 3080W        W75395  36.869  38.892  14.963
 3081W        W75396  18.565   9.776   3.204
 3082W        W75397  24.246  38.766   2.322
 3083W        W75398  21.905  21.648   4.670
 3084W        W75399  25.552  26.949  11.097
 3085W        W75400  23.174  43.574   2.169
 3086W        W75401  31.102  23.289  10.685
 3087W        W75402  13.224  27.198  11.565
 3088W        W75403  14.150  43.856  13.649
 3089W        W75404   2.240  37.238  11.451
 3090W        W75405  18.262  37.644   4.594
 3091W        W75406  14.369  27.942  13.938
 3092W        W75407  19.069  27.550   3.753
 3093W        W75408  24.508  37.880  14.605
 3094W        W75409   3.400  44.317  10.336
 3095W        W75410   2.958   3.710   2.890
 3096W        W75411  42.638  15.024  13.429
 3097W        W75412  24.922  42.479  10.485
 3098W        W75413   4.881  42.246  11.183
 3099W        W75414  24.091  34.163  13.067
 3100W        W75415   6.005  11.636  12.350
 3101W        W75416  29.635   2.694   4.545
 3102W        W75417  12.067  39.786  10.652
 3103W        W75418  38.680   6.887  12.099
 3104W        W75419  29.384   9.657   2.500
 3105W        W75420  36.923  16.613   2.311
 3106W        W75421  31.948   7.977   3.845
 3107W        W75422  25.762  40.242   4.199
 3108W        W75423  19.122  25.934  11.831
 3109W        W75424  38.146  27.413  14.330
 3110W        W75425  13.134  33.593   4.410
 3111W        W75426  44.753  19.192   2.391
 3112W        W75427   1.044  40.231   5.040
 3113W        W75428  29.785  38.297   1.798
 3114W        W75429   7.124  13.270   2.373
 3115W        W75430  22.020  17.297  14.361
 3116W        W75431  35.537  37.230  11.153
 3117W        W75432   1.040   8.560  11.058
 3118W        W75433  25.965   6.155  10.587
 3119W        W75434  42.776  35.209  10.858
 3120W        W75435  41.036  11.284  14.831
 3121W        W75436  11.602   4.264  12.450
 3122W        W75437  44.901  22.760  12.000
 3123W        W75438   5.835  18.074  10.871
 3124W        W75439  39.051  39.269   0.869
 3125W        W75440  14.845   8.559   1.720
 3126W        W75441  37.444   7.301   4.057
 3127W        W75442  30.524   2.187   0.828
 3128W        W75443  19.696  14.161   2.729
 3129W        W75444  39.464  18.458  14.969
 3130W        W75445  14.808  42.512  12.546
 3131W        W75446  33.345  11.715   1.907
 3132W        W75447  27.170  34.109  14.553
 3133W        W75448  25.117  25.252   0.304
 3134W        W75449  23.179  12.308  14.543
 3135W        W75450  24.024  33.952  10.785
 3136W        W75451  12.583  13.354  11.245
 3137W        W75452   0.838  28.500   4.217
 3138W        W75453   7.634  19.441   2.689
 3139W        W75454  14.232  35.028  13.595
 3140W        W75455  17.146  35.443  11.936
 3141W        W75456  24.041  16.206  14.055
 3142W        W75457  18.138   2.488   3.635
 3143W        W75458  11.641  12.361  12.579
 3144W        W75459   5.953  29.635   0.271
 3145W        W75460  30.250   2.296   0.212
 3146W        W75461  20.462  39.865  13.379
 3147W        W75462  37.096  21.681   4.189
 3148W        W75463  10.623   7.145  13.645
 3149W        W75464  30.924  11.345  10.982
 3150W        W75465   6.292  42.382   3.372
 3151W        W75466  35.384  13.028   3.197
 3152W        W75467   9.282  19.337  10.051
 3153W        W75468  37.783  44.741  13.510
 3154W        W75469  25.029  21.152  10.322
 3155W        W75470  18.621  38.063   2.765
 3156W        W75471   3.828  40.702  10.239
 3157W        W75472  18.527  33.611  10.696
 3158W        W75473  43.962   6.699   4.092
 3159W        W75474  27.885  17.985   3.325
 3160W        W75475  33.166   9.897  13.193
 3161W        W75476   2.588  26.164  11.842
 3162W        W75477  20.643  11.755  12.034
 3163W        W75478  16.279   4.259  10.772
 3164W        W75479  33.600  31.576  12.112
 3165W        W75480  26.938   3.458   9.795
 3166W        W75481  29.976  25.034  11.021
 3167W        W75482  26.278  14.421  11.596
 3168W        W75483  43.529   7.873   0.850
 3169W        W75484  10.269  11.370   3.926
 3170W        W75485  30.253  33.970  10.771
 3171W        W75486  32.355  20.536  14.428
 3172W        W75487  36.300  14.817  13.358
 3173W        W75488  35.887  43.693  13.022
 3174W        W75489  44.640  34.996  14.781
 3175W        W75490  28.510  19.190  11.202
 3176W        W75491  30.840  37.483   4.878
 3177W        W75492  43.864  22.513   4.075
 3178W        W75493  30.417  31.045  11.649
 3179W        W75494   2.421  27.595  13.209
 3180W        W75495  35.401  14.232  13.993
 3181W        W75496  38.567  25.951  11.927
 3182W        W75497  14.340   8.347   0.435
 3183W        W75498   8.394  17.524   4.398
 3184W        W75499  27.851   7.538   5.022
 3185W        W75500  36.239   8.434  11.592
 3186W        W75501  20.051  18.263  12.178
 3187W        W75502   5.379  26.158  11.832
 3188W        W75503  32.609   3.180   2.904
 3189W        W75504  43.357  19.339   3.743
 3190W        W75505  31.903   7.146   3.285
 3191W        W75506  11.670  43.435   1.260
 3192W        W75507  39.111   7.593  11.604
 3193W        W75508   2.252  24.206  12.558
 3194W        W75509  42.713  14.843  14.911
 3195W        W75510  32.929  39.740  14.008
 3196W        W75511  43.623  27.674   3.679
 3197W        W75512  32.120  28.015  13.887
 3198W        W75513  12.661  34.964  13.940
 3199W        W75514  36.343  16.183   2.359
 3200W        W75515  33.882   5.486  14.859
 3201W        W75516  37.422  12.000   2.406
 3202W        W75517  40.392  41.541  14.620
 3203W        W75518  43.909   1.838   0.101
 3204W        W75519  30.885  16.594   0.881
 3205W        W75520  19.370   0.407   4.728
 3206W        W75521  40.465  12.916   2.394
 3207W        W75522   5.028  25.277  11.592
 3208W        W75523   7.680  39.908   3.293
 3209W        W75524  25.170   5.068  10.643
 3210W        W75525  33.831  32.208   4.124
 3211W        W75526  13.721  36.053  13.331
 3212W        W75527   7.293  41.838   0.363
 3213W        W75528  10.663  42.091   2.691
 3214W        W75529  11.173  15.037  13.855
 3215W        W75530   7.878  39.473  11.522
 3216W        W75531  10.139  42.479   3.213
 3217W        W75532  43.068  11.251  10.432
 3218W        W75533  34.290  27.146   4.437
 3219W        W75534   2.370   7.290  14.392
 3220W        W75535  26.081  17.241  10.739
 3221W        W75536   4.998   2.474  13.025
 3222W        W75537   7.782  25.823  10.742
 3223W        W75538  34.658  28.495   3.628
 3224W        W75539   6.224  34.764   4.522
 3225W        W75540  38.335  13.792  14.797
 3226W        W75541  44.748  43.894   3.416
 3227W        W75542  33.333  28.440  14.947
 3228W        W75543  14.840  25.510  12.400
 3229W        W75544  28.050  39.402   3.155
 3230W        W75545  13.440   9.409  13.656
 3231W        W75546  41.000  42.998   5.095
 3232W        W75547  35.407  28.049   0.591
 3233W        W75548  43.820   9.883   2.212
 3234W        W75549  23.575  36.883   0.679
 3235W        W75550  14.363   1.227  11.142
 3236W        W75551  11.261  22.799   0.386
 3237W        W75552  15.833   2.791   4.654
 3238W        W75553  28.939  23.684   4.279
 3239W        W75554  44.836  30.472  13.550
 3240W        W75555  19.617  39.265  11.978
 3241W        W75556  28.399   9.888   2.253
 3242W        W75557  17.750   5.820  12.063
 3243W        W75558  40.275  14.746  10.669
 3244W        W75559  41.032   0.110   3.505
 3245W        W75560  43.809  38.974   0.281
 3246W        W75561  43.264  40.866  10.797
 3247W        W75562  11.786   0.905   0.207
 3248W        W75563   7.436  13.305   0.805
 3249W        W75564  18.798  22.154   2.404
 3250W        W75565  27.186  12.306   4.594
 3251W        W75566  20.423  39.531  14.952
 3252W        W75567  38.607   7.701  11.630
 3253W        W75568  13.735  18.570  13.299
 3254W        W75569  36.336  43.950   2.776
 3255W        W75570  19.857  18.890  11.174
 3256W        W75571  36.392   0.842   0.198
 3257W        W75572  32.581  42.826   1.276
 3258W        W75573  31.603  13.391  12.766
 3259W        W75574  18.035  30.207   2.309
 3260W        W75575   1.295  41.667  11.319
 3261W        W75576  20.627   6.660   3.754
 3262W        W75577  43.252  41.891   1.332
 3263W        W75578  14.107  38.342   4.657
 3264W        W75579  24.374  38.956  10.517
 3265W        W75580  38.026  40.048   2.034
 3266W        W75581  27.126  35.516  12.323
 3267W        W75582  16.575  32.464   4.145
 3268W        W75583  24.401  26.434  11.595
 3269W        W75584  20.171  15.863   1.336
 3270W        W75585  36.387  10.317   1.365
 3271W        W75586  24.573  39.509   4.633
 3272W        W75587  26.032   7.638  11.902
 3273W        W75588  19.195  40.069  12.060
 3274W        W75589  25.884  28.144  13.923
 3275W        W75590  18.009  33.537   0.319
 3276W        W75591   8.119   7.451   3.151
 3277W        W75592  42.561  40.818  13.063
 3278W        W75593   0.859  26.970  10.849
 3279W        W75594  28.151  30.435   0.840
 3280W        W75595  23.591  38.344   1.349
 3281W        W75596   0.303  12.218   3.105
 3282W        W75597   7.818  17.739   4.803
 3283W        W75598  13.592  11.725  11.843
 3284W        W75599  26.995  41.112   2.424
 3285W        W75600  30.879  12.381  14.920
 3286W        W75601  24.312  13.243   1.638
 3287W        W75602  10.317  32.050   0.891
 3288W        W75603  20.676  20.771  11.977
 3289W        W75604  17.309   2.843  11.120
 3290W        W75605   4.183  14.311  14.282
 3291W        W75606  40.416  28.675  14.079
 3292W        W75607  31.895   8.828  13.495
 3293W        W75608  16.157  13.731   2.428
 3294W        W75609  32.541  21.602  13.766
 3295W        W75610  29.024  16.271   4.779
 3296W        W75611  39.689   4.989  13.436
 3297W        W75612  40.367  16.199  11.511
 3298W        W75613  11.377  16.402   1.678
 3299W        W75614  30.192   9.190   3.443
 3300W        W75615  11.115  13.303  14.994
 3301W        W75616  12.921  28.625  11.474
 3302W        W75617  31.417  23.744  12.391
 3303W        W75618  30.518   3.904  13.539
 3304W        W75619  25.252  33.612  13.647
 3305W        W75620  30.395   1.669  13.945
 3306W        W75621  20.228  11.809  14.789
 3307W        W75622  20.299  43.573  11.577
 3308W        W75623   3.526   4.236   4.022
 3309W        W75624  36.528  27.173   4.889
 3310W        W75625  18.534  27.374   0.159
 3311W        W75626  10.363   2.769  14.432
 3312W        W75627   8.349  32.128  11.500
 3313W        W75628  20.220  40.582   5.111
 3314W        W75629  24.509  29.064   0.427
 3315W        W75630  39.223  27.925  11.608
 3316W        W75631   2.916  34.897  12.652
 3317W        W75632  22.612   2.908   4.394
 3318W        W75633  41.321  35.824   0.022
 3319W        W75634  42.281   7.377   3.085
 3320W        W75635  31.967  30.060   2.751
 3321W        W75636  39.860  18.802  12.832
 3322W        W75637  33.347  20.709  12.550
 3323W        W75638  26.484  37.959  13.946
 3324W        W75639  19.655  12.160   2.296
 3325W        W75640  25.979  14.729   2.204
 3326W        W75641  36.088  30.549  14.442
 3327W        W75642  32.407  22.695  11.598
 3328W        W75643  11.701  34.685   0.870
 3329W        W75644  37.853   2.221  11.513
 3330W        W75645  29.662  16.324   1.408
 3331W        W75646   2.954  29.978   4.799
 3332W        W75647  36.447   0.756  13.374
 3333W        W75648  15.542  10.111  11.519
 3334W        W75649  33.548   5.361   4.291
 3335W        W75650  42.556  35.186   4.125
 3336W        W75651  37.504   1.248  12.303
 3337W        W75652  42.802  40.859   3.631
 3338W        W75653  20.891  35.241   3.649
 3339W        W75654  22.429   3.319  10.789
 3340W        W75655  22.768  23.568   2.711
 3341W        W75656  35.173  39.003  11.192
 3342W        W75657   9.745  21.298  12.159
 3343W        W75658  43.264  44.551   1.728
 3344W        W75659  19.210  22.758   1.393
 3345W        W75660  23.996  20.608  13.452
 3346W        W75661  20.227  18.544   2.206
 3347W        W75662  16.071   6.146   3.201
 3348W        W75663   1.710   8.269   4.580
 3349W        W75664  24.522  31.751   4.717
 3350W        W75665   3.659  25.002   0.761
 3351W        W75666   6.559   5.134  13.441
 3352W        W75667  35.049  41.237   0.399
 3353W        W75668  26.026   7.919   2.637
 3354W        W75669  19.192  44.917   4.835
 3355W        W75670   7.669  23.582  14.467
 3356W        W75671  17.613  26.821  14.530
 3357W        W75672   6.353   4.828  11.552
 3358W        W75673  27.553  35.707  13.039
 3359W        W75674  17.647  24.242  11.772
 3360W        W75675   3.997  35.820   2.338
 3361W        W75676  35.776  13.774  10.816
 3362W        W75677   6.971  36.026   4.041
 3363W        W75678   8.759   1.262   4.370
 3364W        W75679  21.055  36.317   0.786
 3365W        W75680   6.736   0.963   4.649
 3366W        W75681  33.268  43.727   1.737
 3367W        W75682  11.812   8.763  13.569
 3368W        W75683  43.998   6.134   3.342
 3369W        W75684   2.366  13.668  11.565
 3370W        W75685  39.713   4.288  11.531
 3371W        W75686  36.330  20.135   3.283
 3372W        W75687  31.721  41.370  12.536
 3373W        W75688   7.905  29.673  13.653
 3374W        W75689  22.749  30.482  14.825
 3375W        W75690  26.796   5.696   4.464
 3376W        W75691  27.229   5.922   5.348
 3377W        W75692  40.386  26.611   2.722
 3378W        W75693   6.861  37.803  14.056
 3379W        W75694  27.798  34.672   1.772
 3380W        W75695   3.720   2.959   1.887
 3381W        W75696  16.546   9.209   1.914
 3382W        W75697  36.118  44.685   4.472
 3383W        W75698  15.388  22.439   0.941
 3384W        W75699  34.397  32.441  11.212
 3385W        W75700  37.890  19.124   2.386
 3386W        W75701  35.419   7.406  12.165
 3387W        W75702  41.880  12.342   1.116
 3388W        W75703   1.472  41.818   4.273
 3389W        W75704  26.137  17.141   1.323
 3390W        W75705  15.145   4.768  10.660
 3391W        W75706   5.216  13.106  12.628
 3392W        W75707   3.308  11.538   3.645
 3393W        W75708   9.655  21.070   0.957
 3394W        W75709   5.299  27.953   0.261
 3395W        W75710  20.527  22.534  14.553
 3396W        W75711   3.827  10.634   3.261
 3397W        W75712  17.389  41.010  12.037
 3398W        W75713  43.365  33.455   3.278
 3399W        W75714  30.519  43.497  12.302
 3400W        W75715   1.231  36.033   1.739
 3401W        W75716  36.819  15.812   2.804
 3402W        W75717  21.909  17.152  11.439
 3403W        W75718  31.450  14.062   3.745
 3404W        W75719  30.379  20.784   4.310
 3405W        W75720  14.250  19.658  12.611
 3406W        W75721  39.070  40.428  13.480
 3407W        W75722   5.078  22.789   4.909
 3408W        W75723  36.955  34.636  14.983
 3409W        W75724  15.601  16.600  10.145
 3410W        W75725  43.070  20.126   2.623
 3411W        W75726  18.362  42.275  10.746
 3412W        W75727  39.846  26.694   2.131
 3413W        W75728  39.391  26.123   1.696
 3414W        W75729  11.673   5.453  11.797
 3415W        W75730  22.020  23.721   0.137
 3416W        W75731  44.466  10.601  14.893
 3417W        W75732  24.871   2.984  12.593
 3418W        W75733  22.888  26.572  12.181
 3419W        W75734  29.225  16.609   1.231
 3420W        W75735  14.066  15.095  14.302
 3421W        W75736  28.476  27.937  10.749
 3422W        W75737  40.727  35.411   3.181
 3423W        W75738   0.739  16.277   2.819
 3424W        W75739   0.039  18.048  13.029
 3425W        W75740  19.451  19.285  10.815
 3426W        W75741   0.818  12.227  10.257
 3427W        W75742  28.371  20.336   1.313
 3428W        W75743   3.068   0.499  10.667
 3429W        W75744  28.660   4.917   4.611
 3430W        W75745  30.572   6.827  11.116
 3431W        W75746  37.397  21.961   1.999
 3432W        W75747  32.119  14.647  10.679
 3433W        W75748   5.384  31.337  14.018
 3434W        W75749  33.416  18.844  14.064
 3435W        W75750   3.371   0.859  11.987
 3436W        W75751   6.327  25.952   4.635
 3437W        W75752  36.984   8.467   3.773
 3438W        W75753  40.495  21.195  14.212
 3439W        W75754   8.351  28.222  14.640
 3440W        W75755  40.600   7.831  11.016
 3441W        W75756   8.725  10.676   2.352
 3442W        W75757  25.607  31.078  13.924
 3443W        W75758  31.395  11.137   3.691
 3444W        W75759  28.952  20.841   3.310
 3445W        W75760   2.266   2.701   0.285
 3446W        W75761  43.993   2.481   1.732
 3447W        W75762  15.051   2.643   2.125
 3448W        W75763  14.301   3.770  12.450
 3449W        W75764  17.037  22.495   1.310
 3450W        W75765   2.513  43.740   1.506
 3451W        W75766  13.192  44.756   0.941
 3452W        W75767  37.066  20.829  14.810
 3453W        W75768  15.775   4.742   1.772
 3454W        W75769  40.682  16.030   3.940
 3455W        W75770  35.729  42.012  10.677
 3456W        W75771  42.730  13.427   0.071
 3457W        W75772   9.689  44.529  12.528
 3458W        W75773  10.622  18.008   3.567
 3459W        W75774  16.027  30.057  13.367
 3460W        W75775  21.069  27.633  12.864
 3461W        W75776  21.500  27.743   3.981
 3462W        W75777   4.363  33.208   0.827
 3463W        W75778  41.980  21.092  13.448
 3464W        W75779  20.987  28.876  11.567
 3465W        W75780   8.693   7.211   2.270
 3466W        W75781  36.051  24.201  13.933
 3467W        W75782  41.794   3.152  12.608
 3468W        W75783  30.114  19.308  12.441
 3469W        W75784  20.018  30.463   0.653
 3470W        W75785  43.519  44.121   3.240
 3471W        W75786  17.674   8.084  12.555
 3472W        W75787  18.577  22.146   4.576
 3473W        W75788  26.578  29.075  13.451
 3474W        W75789   3.426  21.749   2.738
 3475W        W75790   4.252   0.924   2.331
 3476W        W75791   2.922  25.662   3.252
 3477W        W75792  14.613  25.232  13.577
 3478W        W75793  17.174  11.301   4.683
 3479W        W75794  38.319  32.157  11.523
 3480W        W75795   0.377  11.255   1.681
 3481W        W75796   5.681  36.567   2.217
 3482W        W75797   9.571   0.318   3.099
 3483W        W75798  30.557   6.330   0.734
 3484W        W75799  37.651  11.786  11.169
 3485W        W75800  15.590  33.362   5.011
 3486W        W75801  28.889   1.585  12.933
 3487W        W75802  10.202  32.263  13.853
 3488W        W75803  21.191   6.736   4.150
 3489W        W75804  41.990  21.246  12.394
 3490W        W75805  28.522   8.390   1.426
 3491W        W75806  12.649   6.757   4.260
 3492W        W75807   7.799  14.088   1.015
 3493W        W75808  25.014  34.897  10.813
 3494W        W75809  40.120   6.739  10.411
 3495W        W75810   9.828  44.382  10.721
 3496W        W75811  34.962  35.457   2.227
 3497W        W75812  42.053  42.757   2.777
 3498W        W75813   0.996  31.670   1.701
 3499W        W75814   1.899  13.411  12.510
 3500W        W75815  21.173  28.211   1.396
 3501W        W75816  33.930  14.445   3.144
 3502W        W75817  27.042  12.829   2.589
 3503W        W75818   9.907  19.674   2.398
 3504W        W75819  32.485  11.547  14.515
 3505W        W75820  33.909   0.856  14.028
 3506W        W75821  24.017  10.173  13.868
 3507W        W75822  14.637  43.538   1.852
 3508W        W75823   8.675  20.483   5.049
 3509W        W75824  29.476  19.365   3.692
 3510W        W75825   5.621  36.107  11.150
 3511W        W75826  32.539   0.464  11.921
 3512W        W75827  37.382   3.477   0.884
 3513W        W75828   8.564   5.921  12.433
 3514W        W75829  15.105  27.459   1.762
 3515W        W75830  41.678  19.766  10.646
 3516W        W75831  35.180  37.078  12.033
 3517W        W75832   9.800  21.714  13.523
 3518W        W75833  22.180  29.439   1.004
 3519W        W75834  43.381  36.534   4.293
 3520W        W75835  26.052  23.551  11.319
 3521W        W75836  16.875  33.943   0.982
 3522W        W75837  19.309  15.294   1.788
 3523W        W75838   6.440  31.973   0.241
 3524W        W75839   0.225  42.551   2.191
 3525W        W75840  28.619  44.336   1.192
 3526W        W75841   4.958   9.583  12.520
 3527W        W75842  27.113   3.897   5.463
 3528W        W75843   5.301  32.386   4.912
 3529W        W75844  15.335  19.058   3.895
 3530W        W75845  21.573  17.422   1.861
 3531W        W75846  38.086   5.896   3.236
 3532W        W75847  40.004   0.564   2.648
 3533W        W75848  44.833   9.374  10.112
 3534W        W75849   3.021  36.313  14.840
 3535W        W75850   9.198  13.310  12.505
 3536W        W75851   0.731  40.355  11.657
 3537W        W75852  19.830  15.394   3.285
 3538W        W75853  18.346  29.617   4.187
 3539W        W75854  10.170  34.330   4.638
 3540W        W75855  39.589  33.463  14.350
 3541W        W75856  28.647   6.211   0.832
 3542W        W75857  43.560  11.730   0.860
 3543W        W75858  20.634   0.456  12.555
 3544W        W75859  25.528  17.328  10.310
 3545W        W75860  37.960  16.192  12.067
 3546W        W75861  21.704  31.565   0.823
 3547W        W75862  25.718  18.542  10.656
 3548W        W75863  21.662  37.626  13.329
 3549W        W75864  40.840   6.145   3.830
 3550W        W75865  27.987  15.629  11.640
 3551W        W75866   8.790  39.894   3.948
 3552W        W75867  16.225  15.428  14.042
 3553W        W75868   0.733  24.578  10.713
 3554W        W75869  25.268  36.378  12.395
 3555W        W75870  14.615  31.901  14.874
 3556W        W75871   4.508  38.315  13.357
 3557W        W75872  22.599  13.848  12.522
 3558W        W75873  42.825  18.284   1.944
 3559W        W75874  11.839  27.589   0.446
 3560W        W75875  18.674  12.302  12.158
 3561W        W75876  36.264  31.642   2.514
 3562W        W75877  18.421  41.068  11.990
 3563W        W75878   7.798  36.535   0.530
 3564W        W75879  34.595   0.523  10.640
 3565W        W75880  19.150  22.709   4.098
 3566W        W75881   9.947  29.466  13.377
 3567W        W75882  18.574  35.469  13.617
 3568W        W75883   0.414  38.840  12.520
 3569W        W75884   3.426  38.270   3.614
 3570W        W75885  27.757   3.947   4.287
 3571W        W75886  23.926  33.651   3.622
 3572W        W75887  21.694  23.578  11.101
 3573W        W75888   0.435   4.147  13.812
 3574W        W75889  41.811  26.063   2.713
 3575W        W75890  28.398  33.396   1.855
 3576W        W75891   2.226  35.074   0.221
 3577W        W75892  35.662  37.492   4.038
 3578W        W75893  37.984  14.312  10.625
 3579W        W75894  23.685  21.084   3.269
 3580W        W75895   7.729  31.045   2.632
 3581W        W75896  37.743  30.480   1.157
 3582W        W75897   8.734  26.766   3.186
 3583W        W75898  25.411  14.610  13.530
 3584W        W75899  19.278  22.026  12.032
 3585W        W75900   9.603  37.052   0.408
 3586W        W75901  32.430  29.061   3.280
 3587W        W75902  25.092  10.391   1.029
 3588W        W75903  14.378  29.395   4.334
 3589W        W75904  32.856  29.070  14.502
 3590W        W75905   4.321  30.208  10.418
 3591W        W75906  16.443  28.808  12.336
 3592W        W75907  16.576  33.515   2.899
 3593W        W75908  20.305  29.476  14.606
 3594W        W75909  36.967  37.972  14.909
 3595W        W75910   1.307  27.959   0.476
 3596W        W75911   9.619  34.589   2.786
 3597W        W75912  32.126   4.419  14.270
 3598W        W75913   2.247  17.364   2.689
 3599W        W75914  26.878  27.669   1.990
 3600W        W75915  11.070   9.098   2.993
 3601W        W75916  40.887  31.529  13.644
 3602W        W75917  35.882  17.342  13.450
 3603W        W75918  42.096  20.095  12.018
 3604W        W75919   2.755  34.493   3.866
 3605W        W75920  33.457   7.596   3.291
 3606W        W75921   1.309   5.986  13.911
 3607W        W75922  22.182  37.926   1.324
 3608W        W75923   1.335  24.953   0.928
 3609W        W75924   2.783  29.956   0.056
 3610W        W75925  41.049  42.487   4.359
 3611W        W75926  19.722  34.010   0.669
 3612W        W75927  37.942  24.554  14.810
 3613W        W75928  13.434  35.816  11.325
 3614W        W75929  42.540  35.523  10.476
 3615W        W75930   3.543   0.715   4.649
 3616W        W75931  35.086  38.019  12.058
 3617W        W75932  23.030  13.939   0.764
 3618W        W75933  38.976  17.170   4.492
 3619W        W75934  17.092  22.473  11.950
 3620W        W75935  38.581   4.126  13.964
 3621W        W75936  42.906  21.136  10.403
 3622W        W75937  10.613  10.331  10.924
 3623W        W75938   7.685  28.505  14.097
 3624W        W75939  36.733   3.550  13.456
 3625W        W75940  20.934  42.312  13.985
 3626W        W75941  16.790  43.594  10.718
 3627W        W75942  27.673  26.943   4.140
 3628W        W75943  35.986  12.763   1.443
 3629W        W75944   1.085  23.198   2.053
 3630W        W75945  34.944  35.084  13.384
 3631W        W75946  42.538   5.212  13.839
 3632W        W75947  11.360  25.185   4.690
 3633W        W75948   9.525  28.703   2.919
 3634W        W75949  33.191  20.205   4.218
 3635W        W75950  42.042  26.052   2.255
 3636W        W75951   3.477   8.223   2.756
 3637W        W75952  35.525  17.548   0.288
 3638W        W75953   5.053  23.143  14.057
 3639W        W75954  26.034  19.659  10.701
 3640W        W75955  35.898  23.794  10.747
 3641W        W75956  32.532  15.492   0.355
 3642W        W75957  40.014   4.831   3.809
 3643W        W75958  15.265   2.903  14.296
 3644W        W75959   8.258  35.530  11.520
 3645W        W75960  38.544  36.264  12.090
 3646W        W75961  42.947  37.457   4.126
 3647W        W75962  31.510  20.138  14.621
 3648W        W75963  13.814   3.104   2.814
 3649W        W75964  42.173  19.670  10.211
 3650W        W75965   0.540  42.877   4.230
 3651W        W75966  12.368   3.754  14.385
 3652W        W75967   0.423  33.601   9.978
 3653W        W75968  12.448  37.616  14.773
 3654W        W75969  44.306  13.369  13.587
 3655W        W75970  16.814  30.323  10.637
 3656W        W75971  21.803  44.444  11.136
 3657W        W75972  42.400  35.165   0.680
 3658W        W75973  37.134  27.397  11.598
 3659W        W75974  21.563   9.653  14.718
 3660W        W75975  20.711  26.432  11.539
 3661W        W75976  12.643   0.001  14.608
 3662W        W75977  42.461  38.566   1.787
 3663W        W75978   3.292  24.224   0.555
 3664W        W75979  24.687   9.372  11.647
 3665W        W75980  17.828  33.863  11.076
 3666W        W75981  24.028  29.352   4.936
 3667W        W75982  10.397   7.255   4.971
 3668W        W75983  26.441  21.596  14.642
 3669W        W75984  12.314   6.893   1.979
 3670W        W75985  14.039  44.026   3.186
 3671W        W75986  15.065  37.862   1.212
 3672W        W75987  41.218   1.864  12.852
 3673W        W75988  34.396   2.441   2.676
 3674W        W75989  33.629   3.921  12.091
 3675W        W75990   7.167  40.458  14.790
 3676W        W75991  31.207   3.528   0.886
 3677W        W75992  44.259   1.296   2.391
 3678W        W75993  39.501  38.050   3.810
 3679W        W75994  20.916   3.859  13.894
 3680W        W75995  25.037  20.776   5.495
 3681W        W75996  33.624  41.874   3.209
 3682W        W75997  44.703  44.030   1.978
 3683W        W75998  21.421  32.032  10.801
 3684W        W75999   0.784   5.958  10.737
 3685W        W76000   6.763  36.072   1.919
 3686W        W76001  11.118  28.938   0.642
 3687W        W76002  39.830   8.221   1.864
 3688W        W76003  35.386   8.754   1.134
 3689W        W76004   4.207   5.285  10.700
 3690W        W76005  36.387  40.403  10.934
 3691W        W76006   5.189   7.124   1.601
 3692W        W76007  21.645  41.048   0.340
 3693W        W76008   1.766  31.740   5.082
 3694W        W76009   5.347   1.908   4.659
 3695W        W76010  31.911  17.308  12.047
 3696W        W76011  25.969  22.932   3.164
 3697W        W76012   6.138  21.667   4.835
 3698W        W76013  42.712  36.171   3.115
 3699W        W76014  39.859  10.692  13.746
 3700W        W76015  10.321  40.698   1.823
 3701W        W76016  24.511  33.203  13.381
 3702W        W76017  20.522  23.602   4.103
 3703W        W76018  31.411  19.514   1.349
 3704W        W76019  10.998  22.649  13.586
 3705W        W76020  17.493  14.598  12.473
 3706W        W76021  42.767   5.030  13.403
 3707W        W76022  24.030  24.033  11.129
 3708W        W76023  18.586  11.049   2.195
 3709W        W76024  16.007  37.655  11.630
 3710W        W76025  16.902  41.890   1.233
 3711W        W76026   0.665  41.979  14.333
 3712W        W76027  26.439  36.615   3.266
 3713W        W76028  22.079  42.248   0.241
 3714W        W76029   5.822  32.569   0.029
 3715W        W76030  26.326   0.434   1.245
 3716W        W76031  38.434  24.687  12.423
 3717W        W76032  10.242   4.820   2.821
 3718W        W76033  15.456  30.109   0.283
 3719W        W76034  14.953  28.887  14.484
 3720W        W76035  11.603  15.080  11.704
 3721W        W76036  36.906  21.130   1.965
 3722W        W76037   3.774  22.893   0.217
 3723W        W76038   9.284   1.010  10.110
 3724W        W76039  31.676   3.152   4.139
 3725W        W76040   1.860  44.597   2.219
 3726W        W76041   7.709  41.039   0.126
 3727W        W76042  22.380  10.792   4.927
 3728W        W76043  16.248  22.123   1.442
 3729W        W76044   5.716  30.859  12.500
 3730W        W76045  33.984  13.369  14.566
 3731W        W76046  40.523  24.492   0.918
 3732W        W76047  14.108  11.547   2.740
 3733W        W76048  22.367  38.598  11.092
 3734W        W76049  11.524  31.887   3.284
 3735W        W76050  37.776  17.664   4.514
 3736W        W76051  36.969   2.558  13.458
 3737W        W76052   4.813   3.706   3.604
 3738W        W76053  37.349  23.491   2.418
 3739W        W76054  33.086  18.189   3.788
 3740W        W76055  23.269  13.379  11.985
 3741W        W76056  32.011  17.185   1.964
 3742W        W76057  32.693  22.500  13.004
 3743W        W76058  20.623   1.443   2.015
 3744W        W76059  41.919  36.381   4.476
 3745W        W76060  14.754  35.840   4.593
 3746W        W76061  17.857   9.179  14.383
 3747W        W76062  21.904  24.080   0.894
 3748W        W76063   3.719   0.187   4.777
 3749W        W76064   3.941  30.063   1.512
 3750W        W76065  44.316  28.652   5.018
 3751W        W76066  35.601  34.386  14.410
 3752W        W76067   7.322  37.522   4.744
 3753W        W76068   4.712  13.881  14.507
 3754W        W76069  20.108  21.349   2.871
 3755W        W76070  38.227  23.278   4.483
 3756W        W76071  32.360  12.302   1.911
 3757W        W76072  32.448  39.331   1.367
 3758W        W76073  42.781  18.741   2.255
 3759W        W76074   6.721  44.119  10.889
 3760W        W76075  22.863  22.366  11.918
 3761W        W76076  23.005  19.354   0.568
 3762W        W76077  44.216  11.692   3.648
 3763W        W76078  41.410  12.142   1.028
 3764W        W76079  20.155  12.335  11.583
 3765W        W76080  25.977  35.814  11.789
 3766W        W76081  27.919  35.083  13.009
 3767W        W76082  29.495  24.678  12.814
 3768W        W76083  43.689  19.714  13.848
 3769W        W76084   8.682   8.138  14.750
 3770W        W76085  16.181  36.609   4.909
 3771W        W76086  28.610  35.199   1.680
 3772W        W76087  43.435  25.603   2.652
 3773W        W76088  28.549  40.216   0.755
 3774W        W76089   0.957  34.608   2.156
 3775W        W76090  21.600   5.605   0.336
 3776W        W76091  30.125   9.850  11.933
 3777W        W76092  34.915  20.183  12.854
 3778W        W76093  38.087  22.511  14.813
 3779W        W76094  14.907  43.461  12.890
 3780W        W76095  29.016  18.338  14.326
 3781W        W76096  27.478  15.614   3.711
 3782W        W76097  16.693  23.627   0.168
 3783W        W76098  43.449  34.644   2.612
 3784W        W76099  22.439  32.654  11.583
 3785W        W76100   8.211  14.138  10.715
 3786W        W76101  13.495  11.828   2.273
 3787W        W76102  38.682  42.302   5.051
 3788W        W76103  13.077  33.411   0.998
 3789W        W76104  28.950   0.986  14.679
 3790W        W76105   4.523  34.546  12.430
 3791W        W76106  33.667  28.852   0.277
 3792W        W76107  36.546  34.481  13.588
 3793W        W76108  27.650   0.303  11.673
 3794W        W76109   9.748   5.243  14.443
 3795W        W76110  25.510  17.116  12.433
 3796W        W76111   5.791   0.538  11.553
 3797W        W76112   0.748  26.055   2.833
 3798W        W76113  37.844  40.935  14.755
 3799W        W76114  25.604  26.894   0.662
 3800W        W76115   8.593  19.989   2.226
 3801W        W76116  28.428  33.540   2.369
 3802W        W76117  34.594  24.207  12.864
 3803W        W76118   4.308  26.070  13.392
 3804W        W76119  22.615  35.854   3.645
 3805W        W76120  11.936  19.724  14.954
 3806W        W76121  28.748  21.115   0.723
 3807W        W76122  27.371  36.951  14.366
 3808W        W76123  37.508  41.937   1.486
 3809W        W76124   8.636  14.715   3.223
 3810W        W76125  19.830  13.275   2.239
 3811W        W76126  29.987   8.776   2.166
 3812W        W76127   5.846   7.627  14.516
 3813W        W76128  36.083  13.344   4.291
 3814W        W76129   4.686  22.653  11.560
 3815W        W76130   9.805   3.929   2.939
 3816W        W76131  11.237  41.369  14.966
 3817W        W76132  20.265  37.371   0.447
 3818W        W76133   3.348  37.424  13.750
 3819W        W76134  11.394  20.588  10.334
 3820W        W76135  27.589  30.393   0.883
 3821W        W76136   2.188  13.801   0.971
 3822W        W76137  31.912   3.349   4.584
 3823W        W76138  33.956  34.756   1.176
 3824W        W76139  27.433  20.932   2.642
 3825W        W76140  30.331  18.601   1.418
 3826W        W76141   7.321  32.470   2.708
 3827W        W76142  17.169  36.352   3.882
 3828W        W76143  22.407  12.409  11.129
 3829W        W76144  30.068  36.123   2.281
 3830W        W76145  26.611  35.112   0.432
 3831W        W76146  44.523  21.031  14.325
 3832W        W76147  13.269  15.166   2.302
 3833W        W76148  12.876  24.652   3.243
 3834W        W76149  18.280  25.674  13.540
 3835W        W76150  16.066   2.216  10.990
 3836W        W76151  42.279   0.414  12.101
 3837W        W76152  26.484   8.615   1.825
 3838W        W76153  16.773   4.718  12.553
 3839W        W76154  23.201  37.357   3.203
 3840W        W76155   1.577  32.691   1.501
 3841W        W76156  19.217  13.022  13.214
 3842W        W76157   4.557  39.919   2.828
 3843W        W76158   4.692  36.287   3.189
 3844W        W76159  11.239   0.365  10.444
 3845W        W76160  12.075  44.726   1.834
 3846W        W76161  10.643  16.035  12.462
 3847W        W76162  33.569  13.394  14.866
 3848W        W76163  38.858  19.122   3.815
 3849W        W76164  23.093  33.444  14.248
 3850W        W76165  16.323  42.901  12.125
 3851W        W76166  23.464   9.574  12.151
 3852W        W76167  42.420   4.234   0.000
 3853W        W76168  40.503  37.420   1.130
 3854W        W76169   6.119  20.150   3.454
 3855W        W76170   3.726  34.589  14.003
 3856W        W76171   4.404  15.147  13.704
 3857W        W76172  15.341  32.502   0.744
 3858W        W76173  11.892  23.238   0.405
 3859W        W76174  35.087  21.161  14.436
 3860W        W76175  24.118  39.565   3.681
 3861W        W76176  15.024  32.934   0.749
 3862W        W76177  28.008  39.549  11.825
 3863W        W76178  26.441  13.904  11.646
 3864W        W76179  24.469  19.381   4.969
 3865W        W76180  12.291  34.390  14.081
 3866W        W76181   3.827  21.397  11.411
 3867W        W76182  43.064  25.671  14.105
 3868W        W76183  32.563  12.563   0.425
 3869W        W76184  14.356  11.469  14.291
 3870W        W76185   2.829   6.999  13.511
 3871W        W76186  22.304   4.289  12.652
 3872W        W76187  30.358  38.470  10.675
 3873W        W76188   1.917  21.166   4.678
 3874W        W76189  14.204   1.421  12.122
 3875W        W76190  19.221  35.427   0.974
 3876W        W76191  20.831  43.176  10.816
 3877W        W76192   4.312   6.181  13.221
 3878W        W76193  19.835  39.875   1.903
 3879W        W76194  14.011  15.724  14.791
 3880W        W76195  14.860  43.936   1.057
 3881W        W76196  41.733  20.528   4.278
 3882W        W76197  36.954  23.020  11.933
 3883W        W76198  24.729  13.911  11.170
 3884W        W76199  27.637  40.734  12.360
 3885W        W76200  40.475  18.452  12.504
 3886W        W76201  20.802   5.469   1.284
 3887W        W76202  38.129  11.515  12.086
 3888W        W76203  32.683  16.243  10.779
 3889W        W76204  35.742   7.640  11.813
 3890W        W76205   1.777   8.678   4.115
 3891W        W76206  42.180  20.683  10.629
 3892W        W76207  32.949  12.349   0.747
 3893W        W76208  14.832  15.376   3.130
 3894W        W76209  12.633  34.089  12.080
 3895W        W76210  16.277  25.481  12.985
 3896W        W76211  39.604  36.500  13.006
 3897W        W76212  21.082   5.902  13.476
 3898W        W76213  27.658  33.221  10.226
 3899W        W76214   1.812  36.202  10.567
 3900W        W76215  24.676  22.975  10.687
 3901W        W76216  22.953  17.817  13.551
 3902W        W76217   1.353  13.202   2.201
 3903W        W76218  43.862  30.212  11.679
 3904W        W76219  27.039  26.670  14.024
 3905W        W76220  43.834  30.600   4.237
 3906W        W76221  11.922   7.199   2.261
 3907W        W76222  43.514  26.246  11.964
 3908W        W76223  28.443  17.798   2.734
 3909W        W76224  31.420   6.212  13.941
 3910W        W76225  10.793  13.541  10.739
 3911W        W76226   6.789  32.634  14.832
 3912W        W76227  16.747  42.354   1.395
 3913W        W76228  23.871  21.941   3.699
 3914W        W76229  19.727  33.895   4.508
 3915W        W76230  19.220  21.445   5.022
 3916W        W76231  25.157  31.041   1.090
 3917W        W76232  19.326   1.138  12.211
 3918W        W76233  24.514  13.490  12.898
 3919W        W76234  25.951  14.420  13.876
 3920W        W76235  10.239  18.843   5.442
 3921W        W76236  15.270   9.875  13.498
 3922W        W76237  34.077  23.416  14.810
 3923W        W76238  43.943   9.440  12.366
 3924W        W76239  27.442  22.481  13.446
 3925W        W76240  22.159  25.117   1.427
 3926W        W76241  29.103  14.337   4.009
 3927W        W76242  35.143  20.318  14.111
 3928W        W76243  25.235  30.038  13.032
 3929W        W76244  38.264  28.001  13.079
 3930W        W76245  34.484  33.086   4.141
 3931W        W76246  25.467  18.025   4.640
 3932W        W76247  11.536   2.516  13.923
 3933W        W76248  33.362  37.456   4.501
 3934W        W76249  20.298  10.314   1.284
 3935W        W76250  21.694  18.901  10.443
 3936W        W76251  43.794  30.941   4.636
 3937W        W76252  27.768   9.219   2.783
 3938W        W76253  28.661   8.240   3.834
 3939W        W76254  33.340   9.530   3.137
 3940W        W76255   0.939  16.750  11.051
 3941W        W76256  25.113  44.763  12.335
 3942W        W76257   9.247  19.602   3.278
 3943W        W76258  34.414  17.859   0.909
 3944W        W76259  38.802  39.994   0.055
 3945W        W76260  40.613  20.274  12.901
 3946W        W76261  25.418  24.189  11.016
 3947W        W76262  34.039  23.224   2.614
 3948W        W76263   5.301  37.141   1.680
 3949W        W76264  32.385  38.998   5.130
 3950W        W76265   8.559  30.670   1.743
 3951W        W76266  24.856   8.348  11.997
 3952W        W76267  41.450  13.764  13.549
 3953W        W76268  41.743  37.279   4.505
 3954W        W76269  42.738  35.957  10.712
 3955W        W76270  11.556  16.592  14.401
 3956W        W76271  21.304  24.962   0.814
 3957W        W76272  25.768   6.500   2.856
 3958W        W76273  41.523   4.282  14.900
 3959W        W76274  15.667  23.169   2.350
 3960W        W76275  24.700  12.593   2.661
 3961W        W76276  13.141  27.724  10.795
 3962W        W76277  22.114  15.614  10.623
 3963W        W76278  27.368  28.549   1.862
 3964W        W76279  12.933  31.938   0.875
 3965W        W76280  40.285  15.735   1.791
 3966W        W76281  33.542  32.682   2.647
 3967W        W76282  27.099  16.382  12.542
 3968W        W76283  27.684  14.642   3.647
 3969W        W76284  34.793   0.526   0.469
 3970W        W76285  28.569  33.786   4.951
 3971W        W76286   2.314  37.842  10.640
 3972W        W76287   2.236  12.388   1.239
 3973W        W76288  28.370  32.548  14.887
 3974W        W76289   6.418   1.719   0.853
 3975W        W76290  25.643  30.009   1.505
 3976W        W76291  43.853   0.418  11.133
 3977W        W76292  18.610  20.124  14.150
 3978W        W76293  39.771  30.070   0.470
 3979W        W76294  12.837   9.280  14.504
 3980W        W76295   3.970   2.664  14.852
 3981W        W76296  17.520   7.900  10.708
 3982W        W76297  39.034  44.235   2.291
 3983W        W76298  19.422  19.283   3.966
 3984W        W76299  26.953   4.546   0.729
 3985W        W76300  20.267  10.833  12.392
 3986W        W76301  12.368   1.950  14.802
 3987W        W76302   0.409  24.488   3.653
 3988W        W76303   4.091  28.138   1.923
 3989W        W76304  39.813  21.806  11.562
 3990W        W76305  13.709  16.604  14.335
 3991W        W76306  23.678  21.739  12.108
 3992W        W76307   1.696   5.660  13.775
 3993W        W76308  31.062   5.236  12.490
 3994W        W76309   3.299   9.331   5.395
 3995W        W76310  44.914  33.001   4.704
 3996W        W76311  23.985   3.004   3.890
 3997W        W76312  23.874   9.731   3.694
 3998W        W76313   7.356  14.129   1.862
 3999W        W76314  30.248  18.321   4.049
 4000W        W76315  44.555  26.477   4.251
 4001W        W76316  24.999  36.729   1.201
 4002W        W76317  13.885  38.924  11.752
 4003W        W76318   1.333  42.710  10.286
 4004W        W76319   5.341  44.537   2.672
 4005W        W76320  14.684  21.825   3.708
 4006W        W76321  32.216  34.796   2.871
 4007W        W76322  39.114   0.940   3.652
 4008W        W76323  14.090   1.364   2.863
 4009W        W76324  15.772  17.008  11.011
 4010W        W76325  43.774  40.978   2.521
 4011W        W76326  18.159   2.739  12.429
 4012W        W76327  11.371   7.097  11.598
 4013W        W76328   8.929  40.497  11.105
 4014W        W76329   6.040  32.818   0.454
 4015W        W76330  20.117   1.221  14.942
 4016W        W76331  30.356  17.400  13.802
 4017W        W76332  35.942  36.332  12.401
 4018W        W76333  28.785  13.833   4.772
 4019W        W76334  44.176  18.051  10.996
 4020W        W76335  12.603   3.256  14.510
 4021W        W76336   4.324   1.756   0.797
 4022W        W76337  13.521  29.866  12.516
 4023W        W76338  23.749   1.135   0.541
 4024W        W76339   8.625  28.499  12.436
 4025W        W76340   7.638  43.991   1.346
 4026W        W76341  11.587  29.562   4.531
 4027W        W76342  20.644  26.140  12.021
 4028W        W76343  28.496  32.530  14.027
 4029W        W76344  17.786  28.245   3.775
 4030W        W76345  35.949   4.118  14.444
 4031W        W76346  18.722   0.307   2.279
 4032W        W76347  16.652  39.567   3.135
 4033W        W76348  36.688  39.282  12.382
 4034W        W76349  12.074  31.553  13.843
 4035W        W76350  31.373  23.505  13.837
 4036W        W76351  27.736  17.771   2.262
 4037W        W76352  33.998  44.309  10.592
 4038W        W76353  42.951  44.167  11.137
 4039W        W76354  28.160  43.748  12.499
 4040W        W76355  11.707  30.566  11.895
 4041W        W76356   1.233  14.245  11.584
 4042W        W76357  28.248  43.239   4.022
 4043W        W76358  40.373  12.296   0.418
 4044W        W76359   8.824  37.648   2.593
 4045W        W76360  30.114  34.970   2.354
 4046W        W76361  44.930  29.429  14.852
 4047W        W76362  28.609  10.742   2.385
 4048W        W76363  30.901  11.852  14.916
 4049W        W76364  27.596  22.051   2.906
 4050W        W76365   4.939  37.995   0.442
 4051W        W76366  18.274   7.499   4.386
 4052W        W76367  43.491   0.546   1.774
 4053W        W76368  13.783  37.352   3.158
 4054W        W76369  17.814  23.031  13.376
 4055W        W76370   0.963  24.349  14.797
 4056W        W76371  32.981  36.388   1.562
 4057W        W76372  16.407   8.870   3.597
 4058W        W76373  35.236  42.444  11.624
 4059W        W76374  18.017   6.412   0.754
 4060W        W76375   5.303   9.267  12.790
 4061W        W76376  12.643  29.058   3.841
 4062W        W76377  39.352   8.318   2.791
 4063W        W76378  18.555  27.250  11.564
 4064W        W76379  13.214  13.319   1.396
 4065W        W76380  31.548  10.179   1.760
 4066W        W76381  17.512  32.189   0.835
 4067W        W76382  18.079  25.930  12.493
 4068W        W76383   5.687  11.041   0.891
 4069W        W76384  23.453  12.520   2.329
 4070W        W76385   7.503   2.992   4.142
 4071W        W76386  37.883  22.174   2.314
 4072W        W76387  20.770   7.808   5.112
 4073W        W76388  37.163  17.865   2.286
 4074W        W76389   2.738   1.228   4.552
 4075W        W76390  44.296  12.339   1.963
 4076W        W76391   2.983  30.991   4.126
 4077W        W76392  18.216  26.835  12.445
 4078W        W76393  22.294  29.905   4.769
 4079W        W76394  16.098  38.837   5.075
 4080W        W76395  39.378  27.642  11.202
 4081W        W76396  38.079   7.867  14.239
 4082W        W76397  24.778  32.999   4.718
 4083W        W76398   6.852  37.715   4.818
 4084W        W76399  39.590   8.241   2.336
 4085W        W76400  17.466  26.228   4.708
 4086W        W76401  42.171  30.652   4.593
 4087W        W76402  30.362  19.039   1.151
 4088W        W76403   1.885  12.694   4.552
 4089W        W76404   0.364   0.789   2.234
 4090W        W76405   5.756  31.358  12.502
 4091W        W76406   6.591  31.983   1.939
 4092W        W76407  44.003  30.644  12.978
 4093W        W76408  10.255  39.397   4.783
 4094W        W76409   7.473  18.808   2.890
 4095W        W76410  22.770  39.862  13.126
 4096W        W76411  10.457  35.533  12.320
 4097W        W76412  17.977  26.447   4.122
 4098W        W76413   6.449  41.551  11.271
 4099W        W76414  34.072   6.958   2.643
 4100W        W76415   5.801   2.169   4.460
 4101W        W76416   8.786   4.044   3.306
 4102W        W76417  20.547   2.318  14.839
 4103W        W76418  20.643  34.972  13.106
 4104W        W76419   1.031  29.620   2.666
 4105W        W76420   7.000  29.494  12.827
 4106W        W76421   3.301  14.146  13.870
 4107W        W76422  17.758  44.499  13.580
 4108W        W76423  33.590  39.908   4.357
 4109W        W76424  31.930  16.092   0.137
 4110W        W76425   6.970   9.258   1.946
 4111W        W76426  39.862   7.766   4.334
 4112W        W76427  20.460  37.838   0.313
 4113W        W76428  32.831  43.914   0.736
 4114W        W76429  18.341  41.700   3.749
 4115W        W76430  22.220  41.409   2.049
 4116W        W76431  40.808  38.509   2.693
 4117W        W76432  19.144  39.531  12.113
 4118W        W76433  24.968  39.259  11.790
 4119W        W76434  21.777  31.304  13.034
 4120W        W76435  11.402   6.789  13.436
 4121W        W76436  25.380  43.609   0.332
 4122W        W76437  12.082   4.813   1.994
 4123W        W76438  28.153   6.106  12.930
 4124W        W76439  40.090   5.489   2.136
 4125W        W76440  12.346   1.451  11.109
 4126W        W76441   5.748  15.287   0.511
 4127W        W76442  12.351  35.339   1.126
 4128W        W76443  41.047  42.798  12.947
 4129W        W76444  28.666  21.753   3.332
 4130W        W76445  10.541   4.817   1.137
 4131W        W76446  10.652  37.394   4.602
 4132W        W76447  32.244  33.886  11.100
 4133W        W76448   0.902  41.420  11.587
 4134W        W76449   2.841  18.243   2.167
 4135W        W76450   7.754  11.701   3.631
 4136W        W76451  44.064  37.342  13.450
 4137W        W76452  10.435  41.278  12.858
 4138W        W76453  26.786   4.601  13.981
 4139W        W76454   8.281  41.383   1.999
 4140W        W76455  33.997  34.297  12.056
 4141W        W76456  25.595  11.827   9.950
 4142W        W76457  44.227  34.829  11.988
 4143W        W76458  33.002  15.239   0.201
 4144W        W76459  43.318  44.214   2.205
 4145W        W76460  22.313  18.575  13.332
 4146W        W76461  34.563   5.522  12.487
 4147W        W76462  12.371  10.311   0.760
 4148W        W76463   1.315   6.716  14.185
 4149W        W76464  28.690  43.465   2.241
 4150W        W76465   1.892  11.821   4.458
 4151W        W76466  28.933   6.237   1.914
 4152W        W76467  15.275  44.999   2.810
 4153W        W76468  20.069  36.186  13.507
 4154W        W76469   3.531  12.741   2.254
 4155W        W76470   5.784  22.795  12.608
 4156W        W76471  11.230   4.288   4.887
 4157W        W76472  21.786  43.259   3.858
 4158W        W76473   0.417  39.195   0.868
 4159W        W76474   0.712  12.724  12.704
 4160W        W76475  23.192  36.823  13.347
 4161W        W76476  14.647  13.342   0.878
 4162W        W76477  15.168  26.976  12.160
 4163W        W76478  34.708  35.609   1.788
 4164W        W76479  39.540  32.078  10.819
 4165W        W76480  37.509  16.351  12.998
 4166W        W76481  35.928   9.173  12.628
 4167W        W76482  15.071  32.440  10.924
 4168W        W76483  10.330  29.083   3.311
 4169W        W76484  14.632  19.277   3.227
 4170W        W76485  33.656  13.315  12.986
 4171W        W76486  35.924  10.551  14.033
 4172W        W76487  39.621  41.537  12.238
 4173W        W76488  12.617  37.147  11.260
 4174W        W76489  17.682  26.954   2.602
 4175W        W76490  42.709  28.248  13.877
 4176W        W76491  43.694  23.852  12.538
 4177W        W76492  11.946   8.336  13.901
 4178W        W76493   1.222   1.725   1.995
 4179W        W76494  12.292  27.158   0.573
 4180W        W76495  36.599  36.586  11.171
 4181W        W76496  43.912  27.529  10.674
 4182W        W76497  29.462   4.761  12.475
 4183W        W76498  26.722  19.305   0.838
 4184W        W76499   5.746  24.086   4.638
 4185W        W76500   4.197   5.732  13.492
 4186W        W76501  27.875   1.890  14.989
 4187W        W76502  26.115  24.018  13.872
 4188W        W76503  17.766  16.967   0.404
 4189W        W76504  33.031   5.519  11.489
 4190W        W76505   2.824  39.772  12.170
 4191W        W76506  18.855   5.016   3.203
 4192W        W76507   2.162  29.688   3.249
 4193W        W76508  18.006  37.399   3.858
 4194W        W76509   0.251   6.943   3.208
 4195W        W76510  41.882  35.347   4.474
 4196W        W76511  12.692   5.215  14.359
 4197W        W76512  10.144  15.639   4.692
 4198W        W76513  32.387  34.212   1.237
 4199W        W76514  26.653  30.588   4.623
 4200W        W76515  15.860   8.722  11.733
 4201W        W76516  22.431  23.496  12.566
 4202W        W76517  32.679   4.835  14.913
 4203W        W76518  18.657  14.375   4.471
 4204W        W76519  35.882  34.490  13.948
 4205W        W76520  43.905  10.922   0.955
 4206W        W76521  23.121   3.684   2.763
 4207W        W76522  35.864  37.059  11.510
 4208W        W76523  43.744  22.227   1.275
 4209W        W76524   6.648   8.726   2.693
 4210W        W76525  43.729  13.894  13.292
 4211W        W76526  13.434   0.263  12.344
 4212W        W76527  42.030   1.996   2.305
 4213W        W76528  21.554   4.746   3.796
 4214W        W76529  20.252  11.425  13.048
 4215W        W76530  17.610  22.258  10.693
 4216W        W76531   9.393  21.404   0.638
 4217W        W76532  41.167   9.720   4.533
 4218W        W76533  38.937  43.007   2.841
 4219W        W76534  39.542  25.898  13.797
 4220W        W76535   7.343  39.989  13.092
 4221W        W76536   2.611   5.257  12.430
 4222W        W76537  35.006  23.572  10.681
 4223W        W76538  38.997  30.525  11.644
 4224W        W76539  26.628  30.412  10.664
 4225W        W76540   1.456  42.839   0.036
 4226W        W76541  11.620  13.856  13.573
 4227W        W76542   4.263  18.327  14.752
 4228W        W76543   8.146  42.893   3.591
 4229W        W76544  24.778  16.202   0.207
 4230W        W76545  22.599  10.625  14.862
 4231W        W76546  16.243   9.470  13.509
 4232W        W76547   5.387  14.245   0.989
 4233W        W76548  16.691  24.102   0.943
 4234W        W76549  33.530   6.990   4.102
 4235W        W76550  37.145   0.911   1.795
 4236W        W76551  41.050   9.187   1.239
 4237W        W76552  36.319   5.377   4.172
 4238W        W76553  43.756  12.641   2.764
 4239W        W76554  43.057  37.526  11.933
 4240W        W76555  38.899   3.899   1.471
 4241W        W76556  20.609  24.915  12.439
 4242W        W76557  18.342   0.483   3.321
 4243W        W76558  19.640  15.886  14.064
 4244W        W76559  10.147  14.846   1.213
 4245W        W76560   9.377   9.295   2.217
 4246W        W76561  41.046  12.827  14.952
 4247W        W76562  31.743  33.506   0.233
 4248W        W76563  39.090  35.059  14.020
 4249W        W76564   0.854  33.475   2.298
 4250W        W76565   9.897  31.705  14.380
 4251W        W76566  20.751  40.378   0.831
 4252W        W76567  18.543   0.810   4.650
 4253W        W76568  23.863  15.654   5.133
 4254W        W76569   1.738  20.693  14.671
 4255W        W76570   0.046  27.426  12.797
 4256W        W76571   0.992  26.151   2.368
 4257W        W76572  19.584  23.205   4.360
 4258W        W76573  33.289   9.031   3.876
 4259W        W76574  14.495  18.307   2.285
 4260W        W76575  15.190  10.907   4.156
 4261W        W76576  38.576  44.519   2.906
 4262W        W76577  41.684  31.925  11.942
 4263W        W76578   8.613  42.983  10.973
 4264W        W76579  44.910  14.826  13.151
 4265W        W76580  15.143  16.576  12.462
 4266W        W76581  39.032  12.498   0.804
 4267W        W76582  41.757  18.122  11.205
 4268W        W76583  40.778  42.187   3.650
 4269W        W76584  32.167  34.799  14.998
 4270W        W76585  26.784  24.221  14.333
 4271W        W76586  37.578  43.381  14.981
 4272W        W76587  34.403  40.192   4.147
 4273W        W76588  10.628  27.669   1.918
 4274W        W76589  11.574  31.536   4.194
 4275W        W76590  30.904  19.198  11.969
 4276W        W76591  22.118  10.312   2.724
 4277W        W76592   9.959  32.543   1.751
 4278W        W76593  18.916   8.176  12.023
 4279W        W76594  44.312  44.819  10.539
 4280W        W76595  15.166  33.823  11.195
 4281W        W76596  25.618   6.530  10.520
 4282W        W76597   9.309  29.644   4.771
 4283W        W76598   7.648   3.288   1.351
 4284W        W76599  24.513  23.216  12.454
 4285W        W76600  29.949  32.060  13.869
 4286W        W76601  26.997  19.605   1.733
 4287W        W76602   4.504   0.747  13.859
 4288W        W76603  37.280   4.189  14.754
 4289W        W76604  40.726   1.043  12.846
 4290W        W76605  26.863  22.745  12.423
 4291W        W76606  32.406  38.267   3.756
 4292W        W76607   6.803   3.299   4.463
 4293W        W76608   9.822   1.345  12.044
 4294W        W76609  35.367  27.666   4.893
 4295W        W76610  42.021  25.197  12.534
 4296W        W76611  16.025   5.221   0.298
 4297W        W76612   3.628   1.923   0.347
 4298W        W76613  32.609   7.230   2.476
 4299W        W76614  10.741  24.150  10.564
 4300W        W76615  42.949  17.900  10.666
 4301W        W76616  25.327   8.292  12.316
 4302W        W76617  44.676  43.472  14.935
 4303W        W76618  23.470   7.684   1.283
 4304W        W76619  28.455  43.082   2.599
 4305W        W76620  27.515  44.469   4.559
 4306W        W76621  37.858  38.143   0.421
 4307W        W76622  11.846  20.700   4.882
 4308W        W76623  25.656  16.540   4.106
 4309W        W76624  33.150  34.964  12.438
 4310W        W76625  35.682   1.896  10.758
 4311W        W76626  18.120  24.489   3.757
 4312W        W76627  13.727  13.372  13.334
 4313W        W76628   3.787  44.744   4.424
 4314W        W76629  19.406  33.869  12.073
 4315W        W76630  15.831  44.467   0.902
 4316W        W76631   4.030  43.381  14.925
 4317W        W76632  21.234  35.944  13.040
 4318W        W76633  22.742  26.009   3.081
 4319W        W76634  26.176  18.744   2.878
 4320W        W76635  36.899  24.795  13.981
 4321W        W76636  26.267  36.777  11.523
 4322W        W76637  16.908  24.477   0.685
 4323W        W76638  37.909  24.131  13.827
 4324W        W76639  28.149  34.311   2.674
 4325W        W76640  20.691   3.773   4.836
 4326W        W76641  40.542  20.973   4.344
 4327W        W76642  24.805  43.782   2.863
 4328W        W76643  22.342  43.958   4.122
 4329W        W76644  28.872  42.053  10.563
 4330W        W76645  27.873  32.872   2.755
 4331W        W76646  25.627  30.800  12.096
 4332W        W76647   1.795  24.234  11.158
 4333W        W76648  37.917   0.004   3.206
 4334W        W76649   5.402  26.523  14.533
 4335W        W76650  18.317  16.002   2.383
 4336W        W76651  44.276  23.254  12.508
 4337W        W76652  29.348  41.107   2.256
 4338W        W76653  25.708  18.799  12.530
 4339W        W76654  32.647   6.137   2.125
 4340W        W76655  34.626  40.814  11.904
 4341W        W76656  39.142  43.989  14.287
 4342W        W76657  22.349   0.767   4.168
 4343W        W76658   6.361  33.393  14.803
 4344W        W76659  33.604   1.488  10.810
 4345W        W76660   0.307  11.354   2.207
 4346W        W76661  23.098  11.325  12.831
 4347W        W76662  26.370  26.522  11.442
 4348W        W76663   1.789  26.103   2.806
 4349W        W76664  37.914  11.374  14.540
 4350W        W76665  10.191  11.545  13.948
 4351W        W76666  32.643  31.462  14.780
 4352W        W76667  34.451  44.811   3.110
 4353W        W76668  38.497  38.423   1.253
 4354W        W76669  41.400  16.355   4.454
 4355W        W76670  39.319   0.323  11.754
 4356W        W76671  31.623  27.938  14.015
 4357W        W76672  15.287  42.492  13.976
 4358W        W76673  14.367   2.524  13.984
 4359W        W76674  33.954  27.589   2.878
 4360W        W76675   1.610  35.808  13.063
 4361W        W76676  34.399  35.907   2.748
 4362W        W76677   6.775   6.228  12.828
 4363W        W76678  15.652  38.693  11.260
 4364W        W76679  25.013  30.076  12.479
 4365W        W76680  26.467  43.991   2.411
 4366W        W76681  32.195  25.482   4.664
 4367W        W76682  29.544  39.190  11.114
 4368W        W76683  31.161   0.414  14.456
 4369W        W76684  19.060   8.164   0.213
 4370W        W76685   3.470  31.720  12.440
 4371W        W76686  22.130  21.704  13.166
 4372W        W76687  42.800   2.165   3.647
 4373W        W76688  17.987   9.449   1.090
 4374W        W76689   5.777  33.057  10.713
 4375W        W76690   6.277   0.435   3.247
 4376W        W76691  19.392  17.563  12.678
 4377W        W76692   8.187   8.505   2.132
 4378W        W76693   7.311   5.181   2.312
 4379W        W76694  13.567  12.194  12.713
 4380W        W76695   6.695  19.552   3.338
 4381W        W76696  41.925  43.986   2.315
 4382W        W76697  17.731  10.310   3.185
 4383W        W76698  11.011   5.809  14.202
 4384W        W76699   2.021  34.829  10.202
 4385W        W76700  23.674  42.734  11.062
 4386W        W76701  35.551  41.932   2.376
 4387W        W76702  14.192  16.848  14.457
 4388W        W76703   6.352  26.412   4.351
 4389W        W76704  24.406  42.386  12.672
 4390W        W76705  34.023  14.324   1.384
 4391W        W76706   8.440  25.235   2.673
 4392W        W76707  10.668  40.361  14.320
 4393W        W76708  44.966  13.245   0.045
 4394W        W76709  16.836   6.743   2.804
 4395W        W76710  38.461   7.285   2.953
 4396W        W76711  36.815  12.109  14.352
 4397W        W76712  13.177  39.475  14.549
 4398W        W76713   4.695  29.203  11.180
 4399W        W76714   9.478  15.898   3.696
 4400W        W76715   7.909  31.718   4.165
 4401W        W76716  24.095  30.470  14.341
 4402W        W76717  19.443  30.709  10.911
 4403W        W76718  17.218  15.758   2.351
 4404W        W76719  26.132  37.671   4.363
 4405W        W76720  29.435  14.611   0.570
 4406W        W76721  36.162  18.643   1.360
 4407W        W76722  26.933  31.883   1.823
 4408W        W76723  22.706  33.773  13.730
 4409W        W76724  31.383   6.389  12.639
 4410W        W76725  16.311  42.436  14.319
 4411W        W76726   1.493  23.710   3.516
 4412W        W76727  30.000  35.987   3.735
 4413W        W76728   6.202  26.225  13.836
 4414W        W76729  10.834  34.686   0.828
 4415W        W76730  42.018   2.834   0.608
 4416W        W76731  14.096  33.612   4.176
 4417W        W76732  27.286  23.485   4.423
 4418W        W76733  31.058  42.074   4.797
 4419W        W76734  25.295  10.170  10.126
 4420W        W76735  18.271  22.583   3.908
 4421W        W76736  41.439   8.060  12.499
 4422W        W76737  41.132  43.325   1.646
 4423W        W76738  41.330   2.414   2.124
 4424W        W76739  25.659  39.607  12.830
 4425W        W76740   3.212  25.177  10.965
 4426W        W76741  20.600  42.856  13.418
 4427W        W76742   6.615   0.210  11.472
 4428W        W76743  18.630  44.886   1.270
 4429W        W76744  22.632  29.878   1.793
 4430W        W76745  24.244  27.110  13.078
 4431W        W76746  14.066  32.071  13.963
 4432W        W76747   1.571  42.571  12.156
 4433W        W76748  35.438  14.507   1.616
 4434W        W76749  33.085   1.203   2.265
 4435W        W76750  29.241  34.367   2.827
 4436W        W76751  41.776  41.492  12.616
 4437W        W76752  24.964   7.969  12.391
 4438W        W76753  29.236  33.597   4.578
 4439W        W76754  37.852  38.530  12.980
 4440W        W76755  41.476  31.448  11.951
 4441W        W76756  30.521  32.919   0.536
 4442W        W76757  29.471  10.924  13.779
 4443W        W76758  14.848  33.794  14.419
 4444W        W76759  33.044  24.536  10.533
 4445W        W76760  21.343  36.838   2.470
 4446W        W76761  32.414   3.886  11.233
 4447W        W76762  14.612  25.568  11.917
 4448W        W76763  34.642  42.327  11.978
 4449W        W76764  29.245  23.603   1.877
 4450W        W76765  38.972   7.974  13.856
 4451W        W76766  10.607  12.693   0.355
 4452W        W76767  32.712  13.177  12.001
 4453W        W76768  27.793  12.904  10.837
 4454W        W76769  25.680  42.527   3.694
 4455W        W76770  30.386  14.169  10.801
 4456W        W76771  40.839   5.345   1.207
 4457W        W76772  12.749  42.038  14.210
 4458W        W76773  41.913  43.111  13.804
 4459W        W76774  27.004  23.479  10.660
 4460W        W76775  17.342  15.247  11.541
 4461W        W76776   2.155   1.349  10.721
 4462W        W76777  21.787  10.683  14.226
 4463W        W76778  35.114  17.728   2.278
 4464W        W76779  16.877  41.115   2.223
 4465W        W76780   8.888  40.232   2.798
 4466W        W76781  33.994   7.197   4.808
 4467W        W76782  41.811   8.592   4.153
 4468W        W76783   7.689  38.419   4.589
 4469W        W76784  29.595  28.335  12.438
 4470W        W76785  12.202  37.027   1.834
 4471W        W76786  41.445  37.960  12.806
 4472W        W76787   1.231  34.239   9.769
 4473W        W76788  13.523  16.097   2.171
 4474W        W76789  39.280  23.187   4.086
 4475W        W76790  42.455  28.625   4.598
 4476W        W76791  27.286  31.439  10.321
 4477W        W76792  24.586  30.521  11.632
 4478W        W76793  42.422  39.794   2.761
 4479W        W76794  30.080  35.548   1.192
 4480W        W76795   8.591  28.534   4.207
 4481W        W76796   2.941  17.535   3.355
 4482W        W76797  14.147   9.959  11.467
 4483W        W76798  29.896  14.577  13.395
 4484W        W76799  15.255  11.164  14.569
 4485W        W76800  23.027  39.362   3.773
 4486W        W76801  35.280  30.599   2.785
 4487W        W76802  29.609  13.593   1.512
 4488W        W76803  29.396  42.998  13.746
 4489W        W76804   6.770   9.682  14.859
 4490W        W76805  36.393  30.590   1.773
 4491W        W76806  26.546  15.177   1.712
 4492W        W76807  29.693  39.034   3.713
 4493W        W76808  37.089  31.460  14.367
 4494W        W76809  13.621  27.024  13.496
 4495W        W76810  19.604  29.485   1.229
 4496W        W76811  13.608  25.914  13.520
 4497W        W76812   1.009  17.392  14.492
 4498W        W76813  41.474  35.926   4.397
 4499W        W76814  37.088  42.453   0.383
 4500W        W76815  26.030  30.823  13.700
 4501W        W76816  32.423   3.933  10.726
 4502W        W76817   2.568   5.894  10.043
 4503W        W76818  36.823  35.010  12.437
 4504W        W76819   1.176   1.934   2.896
 4505W        W76820  35.881  44.946   4.074
 4506W        W76821   2.726   1.311  14.379
 4507W        W76822  39.341   3.700   0.250
 4508W        W76823  33.950   2.771  11.572
 4509W        W76824   7.265  28.232   4.676
 4510W        W76825  20.102  12.867  14.742
 4511W        W76826  30.689  26.053   1.984
 4512W        W76827  21.609  39.336   2.073
 4513W        W76828  43.500  33.538   1.943
 4514W        W76829  36.923  17.360  11.052
 4515W        W76830  27.378  19.110  13.836
 4516W        W76831   8.821  24.011   3.605
 4517W        W76832  21.750  44.611   0.299
 4518W        W76833  18.682  21.000   3.803
 4519W        W76834  42.663   9.976  13.121
 4520W        W76835  12.690  37.915   1.987
 4521W        W76836  15.418  19.069   2.055
 4522W        W76837   3.144  28.768  11.975
 4523W        W76838  20.205  32.874   0.445
 4524W        W76839  36.687  15.598   2.348
 4525W        W76840   1.475  29.544  12.039
 4526W        W76841  32.029  38.513   1.223
 4527W        W76842  10.047  18.766   0.331
 4528W        W76843  41.000  15.180  14.889
 4529W        W76844   7.303  17.832   4.938
 4530W        W76845  26.330   4.833   0.690
 4531W        W76846  14.140   2.182  13.653
 4532W        W76847  29.541  23.204  14.029
 4533W        W76848  18.448  38.367  14.741
 4534W        W76849  34.297  41.944  12.000
 4535W        W76850  36.756  10.373   2.156
 4536W        W76851  42.955   9.815  13.514
 4537W        W76852  19.963  26.604  13.402
 4538W        W76853  23.607   1.446   1.515
 4539W        W76854  12.929  35.498   0.398
 4540W        W76855   9.268  33.470   2.903
 4541W        W76856  18.163  15.170   3.716
 4542W        W76857  36.657  36.763  13.729
 4543W        W76858  29.862  37.479  11.635
 4544W        W76859  41.366  19.440   3.143
 4545W        W76860   0.533  35.088   4.695
 4546W        W76861  14.101  22.720   4.509
 4547W        W76862  44.440  25.241   3.987
 4548W        W76863  40.271  20.571   4.213
 4549W        W76864  17.697  14.526   2.597
 4550W        W76865  35.371  18.581   3.198
 4551W        W76866  29.677  23.965  14.941
 4552W        W76867  29.990  12.790   1.397
 4553W        W76868  44.308  17.878  14.517
 4554W        W76869  42.893  35.361   2.897
 4555W        W76870  35.456  35.516   3.753
 4556W        W76871  13.568   7.245  11.599
 4557W        W76872  18.063  39.545  14.072
 4558W        W76873   9.908   1.344  14.091
 4559W        W76874  42.096  29.194   4.472
 4560W        W76875  27.620  29.522   2.287
 4561W        W76876  16.122  37.392  14.536
 4562W        W76877  24.983  16.251   3.590
 4563W        W76878  27.730  27.163  14.536
 4564W        W76879  30.565  38.625  11.125
 4565W        W76880  44.554  28.388   3.184
 4566W        W76881  16.606  40.872  11.649
 4567W        W76882   5.239  16.057   1.709
 4568W        W76883   1.374  34.906  14.200
 4569W        W76884  14.757  24.450   4.874
 4570W        W76885  41.550  31.665   1.394
 4571W        W76886  19.490  28.625   4.596
 4572W        W76887  14.099  33.006  12.992
 4573W        W76888  24.489  30.029  12.434
 4574W        W76889  10.103  22.011  14.390
 4575W        W76890   9.268  43.278   4.541
 4576W        W76891   4.707  20.920   2.278
 4577W        W76892  41.021  43.243  14.718
 4578W        W76893  23.736  36.064  11.556
 4579W        W76894  35.484  25.491  12.698
 4580W        W76895  11.895  24.942  13.100
 4581W        W76896  41.986   5.407  11.602
 4582W        W76897   1.275  17.533   2.756
 4583W        W76898  13.702  24.327  11.250
 4584W        W76899  26.753  28.175  11.430
 4585W        W76900  12.304  26.388  13.761
 4586W        W76901   7.168  29.459  11.068
 4587W        W76902   4.508  28.353  12.091
 4588W        W76903  22.574   9.289  13.838
 4589W        W76904  33.862   1.263   4.136
 4590W        W76905  19.931  34.012  12.158
 4591W        W76906   1.193  34.842  13.731
 4592W        W76907  23.597   0.725  14.243
 4593W        W76908  20.146  43.984   0.358
 4594W        W76909   8.600   7.029   1.790
 4595W        W76910   3.889  43.852   1.311
 4596W        W76911  42.858  18.566   3.696
 4597W        W76912  36.088  29.943   1.178
 4598W        W76913   3.034  22.515   3.515
 4599W        W76914  15.163  38.392   4.921
 4600W        W76915   2.451   0.337   4.139
 4601W        W76916  35.276  14.884   1.975
 4602W        W76917  42.520  26.143   3.546
 4603W        W76918  27.596  29.451  12.630
 4604W        W76919   8.765   0.729  13.507
 4605W        W76920  22.716   6.338   2.057
 4606W        W76921  15.130  34.012  12.959
 4607W        W76922  13.949  18.273   4.787
 4608W        W76923  44.275   1.794   3.081
 4609W        W76924  19.384  13.937   4.179
 4610W        W76925  22.455  29.195  14.291
 4611W        W76926  33.555  24.175  13.756
 4612W        W76927  36.036  26.776   4.234
 4613W        W76928  15.867  44.761   0.442
 4614W        W76929  34.384   0.907  14.788
 4615W        W76930  44.909  34.600  13.803
 4616W        W76931  18.302   7.922  13.523
 4617W        W76932  44.360  40.562  11.512
 4618W        W76933  27.525  26.416   2.196
 4619W        W76934   8.474  12.011   1.170
 4620W        W76935  44.460  25.539   4.924
 4621W        W76936  40.918  18.550   1.677
 4622W        W76937  31.722  34.947   2.809
 4623W        W76938  28.126  32.406   3.614
 4624W        W76939  14.817  10.701   0.394
 4625W        W76940  42.301  32.023  11.086
 4626W        W76941  19.579  29.809   4.744
 4627W        W76942  11.177  29.890   4.542
 4628W        W76943  36.893  36.924   2.873
 4629W        W76944  16.725  16.325   0.236
 4630W        W76945  41.527  43.082   1.922
 4631W        W76946  33.958  14.109  10.775
 4632W        W76947  27.926  17.980   4.188
 4633W        W76948  24.923  21.986  10.695
 4634W        W76949  44.603  35.606  12.067
 4635W        W76950  30.999   8.966   0.281
 4636W        W76951  30.632   0.800  10.816
 4637W        W76952  39.530  27.674  14.402
 4638W        W76953  35.954  14.100  12.952
 4639W        W76954  28.302   8.757   4.611
 4640W        W76955  31.929  29.958   1.294
 4641W        W76956  39.038  19.043   2.252
 4642W        W76957  29.764  11.347  12.361
 4643W        W76958  32.131   7.859   4.488
 4644W        W76959  15.113  26.245  10.379
 4645W        W76960  34.125  32.304  10.784
 4646W        W76961  37.434  44.886  12.590
 4647W        W76962  14.258  22.231   4.036
 4648W        W76963  12.315  25.434   1.673
 4649W        W76964   2.725  31.470   1.266
 4650W        W76965  31.472  31.175  11.473
 4651W        W76966   4.866   0.944  10.696
 4652W        W76967  40.206  27.633   3.357
 4653W        W76968  10.882  28.660   1.472
 4654W        W76969   8.692  18.456   0.749
 4655W        W76970   6.332  29.420  14.988
 4656W        W76971  41.205  23.054   2.381
 4657W        W76972  16.536  39.179  10.050
 4658W        W76973  18.095  31.243  10.245
 4659W        W76974  32.848  18.555   3.199
 4660W        W76975  31.434  30.158   3.666
 4661W        W76976  39.826  33.029   3.554
 4662W        W76977  25.560  27.213   2.854
 4663W        W76978  26.665  20.717   0.897
 4664W        W76979  23.017  32.043  13.449
 4665W        W76980  16.707  27.128  10.843
 4666W        W76981  21.667  37.863  10.438
 4667W        W76982  14.152  35.187  13.109
 4668W        W76983  20.590  43.892  14.281
 4669W        W76984  24.280  40.431   3.978
 4670W        W76985   8.370  30.826  11.137
 4671W        W76986  11.713   7.188  13.595
 4672W        W76987  39.583  22.694  12.160
 4673W        W76988   5.179  17.155  12.119
 4674W        W76989   9.220   9.939   2.739
 4675W        W76990  44.884   5.688   1.242
 4676W        W76991  23.650  23.799   1.375
 4677W        W76992  26.360  23.760   2.869
 4678W        W76993  10.608  37.808  13.456
 4679W        W76994  31.937  36.405   1.858
 4680W        W76995  29.162   9.927  12.961
 4681W        W76996  17.577   4.390  11.103
 4682W        W76997  36.577  38.484   3.893
 4683W        W76998  37.783  37.867   1.234
 4684W        W76999  22.495  37.141  14.234
 4685W        W77000   9.970  28.938  11.089
 4686W        W77001   3.306  33.995   2.723
 4687W        W77002   1.906  37.976   0.527
 4688W        W77003  23.953   8.855  12.460
 4689W        W77004  24.333  32.046  10.626
 4690W        W77005  41.072   4.020   4.266
 4691W        W77006  13.701  28.612  12.182
 4692W        W77007   0.296  44.947  13.151
 4693W        W77008   3.999  36.815   4.538
 4694W        W77009  29.245   3.520  14.399
 4695W        W77010  43.175  35.070   4.793
 4696W        W77011  22.583  32.312  12.483
 4697W        W77012  43.222  40.977  12.653
 4698W        W77013   7.573  43.373   0.613
 4699W        W77014  26.615  28.534   0.550
 4700W        W77015  26.344  20.962   0.574
 4701W        W77016  36.847  36.550   0.778
 4702W        W77017  31.856  32.830  12.563
 4703W        W77018   7.714  10.729  10.892
 4704W        W77019  40.343   1.496  11.098
 4705W        W77020  42.908  11.815   3.138
 4706W        W77021  10.822  20.892   3.820
 4707W        W77022  41.026   1.349   2.842
 4708W        W77023  38.927  37.777   1.346
 4709W        W77024  27.717   7.842  14.092
 4710W        W77025   1.884   0.228  13.307
 4711W        W77026  21.329  15.134  11.627
 4712W        W77027  20.982  37.714   2.325
 4713W        W77028   9.636   1.370   4.904
 4714W        W77029  30.840  22.059   2.267
 4715W        W77030  11.301   9.748  13.747
 4716W        W77031  13.368  19.174   4.120
 4717W        W77032   5.121   7.031   3.960
 4718W        W77033  25.782  43.580   3.046
 4719W        W77034  24.730   7.280   4.469
 4720W        W77035  16.766  31.225   0.230
 4721W        W77036  22.586   6.370  12.942
 4722W        W77037   2.285  21.366   0.618
 4723W        W77038  40.147  21.486   1.662
 4724W        W77039  40.151  43.604   4.205
 4725W        W77040   5.051  27.725  13.023
 4726W        W77041  41.885  44.388  11.085
 4727W        W77042  23.506  16.080  13.546
 4728W        W77043  11.856  40.155   0.788
 4729W        W77044   5.252  44.623   1.764
 4730W        W77045   4.973  13.749   3.265
 4731W        W77046  19.022   4.713  12.344
 4732W        W77047  15.502  37.814  11.573
 4733W        W77048  30.086  22.285   0.370
 4734W        W77049  30.228  11.869  10.772
 4735W        W77050   7.433  43.856   0.816
 4736W        W77051   2.515  10.441  12.559
 4737W        W77052  11.578  30.483  11.412
 4738W        W77053  32.995   3.448   2.719
 4739W        W77054  21.171  26.839   2.272
 4740W        W77055   4.879  33.091  10.781
 4741W        W77056  34.629  20.654   4.933
 4742W        W77057  24.511  17.499   3.052
 4743W        W77058   5.682  44.914  13.280
 4744W        W77059  27.438  18.918   1.099
 4745W        W77060  31.790  30.141   4.934
 4746W        W77061  16.689   0.253   3.806
 4747W        W77062  12.711  30.075   1.044
 4748W        W77063  16.263  24.143  14.629
 4749W        W77064  11.611  30.173  13.574
 4750W        W77065   8.309   7.659  11.521
 4751W        W77066  39.504  35.014  10.372
 4752W        W77067  36.284  38.748   0.893
 4753W        W77068  37.574  23.049  14.072
 4754W        W77069  22.629   4.453   2.681
 4755W        W77070   1.672   8.475   2.318
 4756W        W77071  29.534   1.272   4.473
 4757W        W77072  21.060  22.613   3.458
 4758W        W77073   3.891  18.817   2.713
 4759W        W77074  44.473  20.434  12.084
 4760W        W77075  28.888  38.472  13.946
 4761W        W77076  41.735   4.569  11.647
 4762W        W77077  20.236  31.541   3.646
 4763W        W77078  44.212   1.823   3.618
 4764W        W77079   8.476  32.990   3.745
 4765W        W77080  14.167  28.913   2.221
 4766W        W77081   2.929  39.443  14.259
 4767W        W77082  19.567  23.296  13.504
 4768W        W77083   1.248  18.354   0.359
 4769W        W77084  41.087  34.039   2.811
 4770W        W77085  34.665  38.874   4.670
 4771W        W77086  30.450  33.507  10.709
 4772W        W77087  37.518  33.675  14.005
 4773W        W77088   1.858  12.300  10.529
 4774W        W77089  32.744  21.605   0.881
 4775W        W77090  24.488  14.128   5.073
 4776W        W77091  44.950  36.304  14.725
 4777W        W77092  38.993  25.751   4.985
 4778W        W77093  15.430  35.955  14.483
 4779W        W77094  38.615  18.810   3.415
 4780W        W77095  16.704   7.154  11.695
 4781W        W77096  14.035  34.012   1.061
 4782W        W77097   0.205  29.411  13.504
 4783W        W77098  39.389  39.042  11.562
 4784W        W77099  25.015  43.453  14.323
 4785W        W77100  22.486  39.294  11.457
 4786W        W77101  35.673   4.572  12.485
 4787W        W77102  18.827  36.813  14.462
 4788W        W77103  20.309  30.783  14.406
 4789W        W77104  42.112  28.553  13.994
 4790W        W77105   7.574  30.585   2.029
 4791W        W77106  12.038  42.237  11.658
 4792W        W77107  22.185  44.997   1.874
 4793W        W77108  28.939  26.562   0.773
 4794W        W77109  12.691  24.558  14.420
 4795W        W77110  26.517  37.337  13.478
 4796W        W77111  33.358  21.232  13.312
 4797W        W77112  30.228   3.271   0.345
 4798W        W77113   6.737  18.527   1.466
 4799W        W77114  22.492  18.235  10.561
 4800W        W77115  29.940  17.060  12.071
 4801W        W77116  44.945  32.467   4.596
 4802W        W77117  13.388  10.760   0.403
 4803W        W77118   5.470  30.442  11.144
 4804W        W77119  28.202  29.484   3.908
 4805W        W77120   9.195  10.216   1.477
 4806W        W77121  11.652   8.382  13.050
 4807W        W77122  41.783  44.809   0.938
 4808W        W77123  24.486   0.938   4.029
 4809W        W77124   9.278  42.089   3.581
 4810W        W77125  44.172  28.897  14.446
 4811W        W77126  19.137  11.827  11.939
 4812W        W77127   4.478   8.360   2.678
 4813W        W77128  25.423  15.708  14.807
 4814W        W77129  20.854  32.534  10.677
 4815W        W77130  24.109  27.729  12.491
 4816W        W77131   0.601   1.800   3.703
 4817W        W77132  42.417  15.205  11.251
 4818W        W77133  16.435  23.200  12.326
 4819W        W77134  34.034   4.626  14.031
 4820W        W77135  41.558  44.960  13.519
 4821W        W77136  24.748  35.605  13.370
 4822W        W77137   4.463  29.142   1.193
 4823W        W77138  10.482  29.981   2.757
 4824W        W77139  28.467  41.539   2.373
 4825W        W77140  26.391  20.797   3.711
 4826W        W77141  43.805  40.333   0.794
 4827W        W77142  26.437  22.649  11.465
 4828W        W77143   1.858  41.258  14.456
 4829W        W77144   6.855  41.963   0.646
 4830W        W77145  20.038  23.557  11.854
 4831W        W77146  26.929  18.569  11.667
 4832W        W77147  42.087  31.566   0.493
 4833W        W77148  21.855   2.714  14.472
 4834W        W77149  38.482  31.189  10.705
 4835W        W77150   0.009   9.181   5.441
 4836W        W77151  17.296  27.130   0.761
 4837W        W77152  36.048  12.539  14.136
 4838W        W77153   8.926  37.478   4.071
 4839W        W77154   3.903   6.978   0.346
 4840W        W77155  38.494  22.220  10.559
 4841W        W77156  12.747  26.046   2.638
 4842W        W77157  19.017  28.562  13.021
 4843W        W77158  37.825  31.589   0.376
 4844W        W77159  28.057  35.486   2.242
 4845W        W77160  36.862   3.154  12.646
 4846W        W77161   4.450  34.391  14.356
 4847W        W77162  17.621  31.820  10.058
 4848W        W77163   5.970  19.521   0.818
 4849W        W77164   8.049  16.802  10.991
 4850W        W77165   1.731  15.357  12.414
 4851W        W77166  13.885  11.306  11.987
 4852W        W77167  37.388  43.134   3.018
 4853W        W77168  21.316   5.432  13.448
 4854W        W77169  23.484  18.182   1.290
 4855W        W77170  20.671  37.365  14.370
 4856W        W77171  24.168  33.448  10.839
 4857W        W77172  22.171  24.961  10.446
 4858W        W77173   6.893  18.953  11.508
 4859W        W77174   4.019  19.344  14.519
 4860W        W77175  22.952  21.641   1.159
 4861W        W77176  19.342  18.175  11.605
 4862W        W77177  33.983  37.366  14.114
 4863W        W77178  35.714  22.768  11.502
 4864W        W77179  21.350   0.332  14.822
 4865W        W77180   5.188  28.968   0.226
 4866W        W77181  43.113   1.234   5.042
 4867W        W77182  27.039  25.092  13.826
 4868W        W77183  40.863  42.210   0.179
 4869W        W77184  17.733  13.302   3.689
 4870W        W77185  17.705  26.127   1.618
 4871W        W77186   9.996  35.703  10.912
 4872W        W77187  20.948  34.236   4.119
 4873W        W77188  15.525  17.061   1.738
 4874W        W77189   8.390  31.002   3.859
 4875W        W77190  18.364  32.354   2.299
 4876W        W77191  18.184  31.376   0.410
 4877W        W77192  10.831  33.658   3.820
 4878W        W77193  20.474  13.184   4.815
 4879W        W77194  40.757   0.317   3.116
 4880W        W77195   1.215  25.617  13.364
 4881W        W77196  42.961  23.552   3.757
 4882W        W77197   0.966  34.800  11.503
 4883W        W77198   8.450  23.519  11.076
 4884W        W77199  21.273  11.683  12.968
 4885W        W77200  27.393   7.526   4.720
 4886W        W77201  36.347  35.141   0.838
 4887W        W77202  35.363  44.255  11.135
 4888W        W77203   8.208  19.497  10.395
 4889W        W77204  41.324  18.775   4.155
 4890W        W77205  32.907   6.502  11.772
 4891W        W77206  41.940  34.270  14.468
 4892W        W77207   2.723  18.254   2.668
 4893W        W77208  17.669  22.794  13.841
 4894W        W77209  12.158   4.743   1.479
 4895W        W77210  16.958  30.785   5.617
 4896W        W77211  41.255   2.150   2.838
 4897W        W77212  28.337  31.748  12.479
 4898W        W77213   3.205  43.548   0.369
 4899W        W77214   0.405  29.956   2.587
 4900W        W77215  30.558  11.628   4.492
 4901W        W77216  28.729  40.934   0.326
 4902W        W77217  10.082  13.256  14.935
 4903W        W77218  39.714  27.118   1.353
 4904W        W77219   9.375  21.660  11.388
 4905W        W77220  23.200   0.102  13.506
 4906W        W77221  16.234  30.961   0.885
 4907W        W77222  10.921  28.173  13.877
 4908W        W77223  42.494   2.019   3.179
 4909W        W77224  24.684  41.533   0.344
 4910W        W77225  34.454   4.554  12.789
 4911W        W77226  20.722   7.058  11.223
 4912W        W77227  26.323   5.983   1.223
 4913W        W77228  38.034  18.068   3.537
 4914W        W77229  26.702  40.099   3.188
 4915W        W77230  23.777   0.015   2.000
 4916W        W77231  34.935  29.199  13.134
 4917W        W77232   5.610   5.260  11.935
 4918W        W77233   0.308  39.856   3.868
 4919W        W77234  11.682  24.665   0.481
 4920W        W77235  12.673   3.046   0.003
 4921W        W77236  21.118  11.617  11.924
 4922W        W77237   6.927   4.225  12.988
 4923W        W77238  29.824  22.813   4.343
 4924W        W77239  41.941   3.300   2.845
 4925W        W77240  39.407  12.134   0.858
 4926W        W77241  15.332  28.712   2.171
 4927W        W77242  40.127   5.297   3.259
 4928W        W77243  15.748  13.592   1.214
 4929W        W77244  38.446  32.521   0.491
 4930W        W77245   2.913   2.629  11.147
 4931W        W77246  44.369   9.791   4.037
 4932W        W77247  35.381  13.520   1.679
 4933W        W77248  34.540  39.262   3.623
 4934W        W77249  11.212  43.274   2.204
 4935W        W77250  30.463  30.068   3.363
 4936W        W77251  29.066  13.890  13.196
 4937W        W77252   0.922  44.773  10.972
 4938W        W77253  16.839  30.864   1.718
 4939W        W77254  32.970  23.664  10.690
 4940W        W77255  34.119  16.040  14.478
 4941W        W77256  18.673  44.244  12.913
 4942W        W77257  32.962  11.911  13.024
 4943W        W77258  40.869  10.250   1.593
 4944W        W77259   6.265  11.070  14.460
 4945W        W77260  31.649  11.304   0.368
 4946W        W77261  20.115  26.588  12.890
 4947W        W77262  35.339  35.896  10.792
 4948W        W77263  22.753   0.533  10.778
 4949W        W77264   2.007  30.121   3.767
 4950W        W77265  23.667  39.489   1.963
 4951W        W77266  22.720  24.112   4.113
 4952W        W77267  43.520  28.555  11.078
 4953W        W77268   6.298   4.743  10.647
 4954W        W77269  34.577   4.890   4.140
 4955W        W77270  11.776  37.984   1.936
 4956W        W77271  19.967  20.026  13.062
 4957W        W77272  33.008  41.492   0.286
 4958W        W77273  38.600  14.586   0.282
 4959W        W77274  30.555  21.163  12.467
 4960W        W77275  43.874  26.657  12.988
 4961W        W77276   4.075  38.851  14.208
 4962W        W77277   1.896  36.280   1.260
 4963W        W77278  22.865  10.348  11.814
 4964W        W77279  42.689  34.044   0.359
 4965W        W77280  34.250  13.705  14.278
 4966W        W77281  38.990  24.213  11.672
 4967W        W77282  42.610  28.603   2.311
 4968W        W77283  37.566  26.979  13.877
 4969W        W77284   5.805   3.107   2.637
 4970W        W77285  28.711  20.118  11.017
 4971W        W77286   6.589  28.623  11.117
 4972W        W77287   1.274  43.992  11.016
 4973W        W77288  15.019  24.156  11.171
 4974W        W77289  30.803  31.084  10.686
 4975W        W77290   4.006  22.128   4.568
 4976W        W77291  38.550  39.794   2.755
 4977W        W77292  37.159  38.471  14.932
 4978W        W77293  43.904  36.501  10.539
 4979W        W77294  24.534  31.668  13.288
 4980W        W77295   1.793   8.143   4.094
 4981W        W77296  28.491   6.788   0.910
 4982W        W77297   9.931  33.003   0.696
 4983W        W77298  41.400   2.290   3.316
 4984W        W77299  14.177   2.238  11.419
 4985W        W77300  42.830  30.468  13.893
 4986W        W77301   7.870  23.388  11.650
 4987W        W77302  25.077   2.658  11.639
 4988W        W77303  39.948   9.946   3.170
 4989W        W77304   2.489  36.254  11.146
 4990W        W77305  26.596  28.897  11.929
 4991W        W77306  14.365  19.240   4.121
 4992W        W77307  41.897  15.117   3.628
 4993W        W77308  32.275  21.585   0.660
 4994W        W77309  10.052   5.729  12.562
 4995W        W77310   3.679  37.025   4.119
 4996W        W77311  32.501  25.747  13.732
 4997W        W77312  40.065  36.844  10.465
 4998W        W77313  36.403  23.456   3.369
 4999W        W77314   0.721  34.469   3.679
 5000W        W77315  31.127   7.126   1.728
 5001W        W77316  26.014  29.911   0.348
 5002W        W77317  20.445  12.812  14.270
 5003W        W77318  15.140  21.618   1.188
 5004W        W77319  25.511  32.920   0.985
 5005W        W77320  10.238  32.912   3.699
 5006W        W77321   9.127   7.799   2.770
 5007W        W77322  14.485  30.054   0.529
 5008W        W77323  39.129   5.509   2.281
 5009W        W77324   9.967  37.791   1.446
 5010W        W77325  32.285  21.242  11.656
 5011W        W77326   9.810  25.955   4.604
 5012W        W77327  44.051   7.555   4.090
 5013W        W77328  42.312   2.227  14.847
 5014W        W77329   6.717  36.835   0.766
 5015W        W77330  39.260  41.338  13.505
 5016W        W77331  33.625   0.836   1.739
 5017W        W77332  16.198   7.748  13.567
 5018W        W77333  20.478   7.734  12.904
 5019W        W77334   3.014   8.831  11.671
 5020W        W77335  38.377  10.918  14.819
 5021W        W77336  13.076  30.439  10.661
 5022W        W77337   3.384   0.293   4.389
 5023W        W77338  44.382  24.259  12.833
 5024W        W77339  11.799  22.013  14.944
 5025W        W77340  27.421  33.331   4.109
 5026W        W77341  38.895  21.247   1.903
 5027W        W77342  17.110  16.536   0.501
 5028W        W77343  15.637  44.956   1.724
 5029W        W77344  41.220  39.722  12.442
 5030W        W77345  31.151  14.556  14.014
 5031W        W77346  35.220  44.797  14.704
 5032W        W77347  29.668  10.458   1.231
 5033W        W77348  34.395  20.687  13.374
 5034W        W77349  14.452  22.174  11.554
 5035W        W77350  21.232  44.951  13.025
 5036W        W77351  23.757   6.204  12.525
 5037W        W77352  24.286   6.614  10.707
 5038W        W77353  34.381  10.920   4.179
 5039W        W77354  14.251  12.345   2.604
 5040W        W77355   5.520   3.671  14.490
 5041W        W77356  22.545  27.205  13.184
 5042W        W77357  41.976   0.273  13.581
 5043W        W77358  42.867   4.171   3.852
 5044W        W77359  18.981  43.687  13.934
 5045W        W77360  35.345  43.610   4.164
 5046W        W77361  15.747  18.227  10.788
 5047W        W77362  28.121  40.925  13.078
 5048W        W77363   3.805  31.502   3.230
 5049W        W77364  40.876  41.382   3.800
 5050W        W77365  12.577  18.505   3.944
 5051W        W77366  16.940  17.224  13.901
 5052W        W77367  37.145  16.803   1.274
 5053W        W77368  28.800  19.488   2.159
 5054W        W77369  29.175   7.316  11.842
 5055W        W77370  23.398  24.526   2.301
 5056W        W77371  32.544  28.503  10.285
 5057W        W77372   3.632  26.969   3.581
 5058W        W77373   1.271   5.180  12.596
 5059W        W77374  34.674  35.866  12.504
 5060W        W77375  16.676   6.089   3.760
 5061W        W77376  25.651  25.406  11.390
 5062W        W77377  18.936  19.107  10.754
 5063W        W77378  26.030   1.648   4.357
 5064W        W77379  12.321  11.293  10.459
 5065W        W77380   1.863  36.817   0.353
 5066W        W77381  24.297  14.265   3.079
 5067W        W77382  10.288  37.852  12.930
 5068W        W77383   8.329  17.744   3.919
 5069W        W77384  23.221   4.482  14.124
 5070W        W77385  24.595   6.683  12.473
 5071W        W77386  10.539   8.401   3.576
 5072W        W77387  42.093  35.518   1.307
 5073W        W77388  43.379  15.794   0.338
 5074W        W77389  44.955  26.587   1.228
 5075W        W77390  35.013   4.947   4.438
 5076W        W77391   4.246  22.565   1.890
 5077W        W77392  14.621  10.098   2.727
 5078W        W77393  13.163  41.991   3.661
 5079W        W77394  20.707  12.303  10.478
 5080W        W77395  12.136  43.038   0.422
 5081W        W77396  33.748  43.385  14.924
 5082W        W77397  43.619  35.875   0.165
 5083W        W77398  14.433  39.562   2.272
 5084W        W77399  14.392  34.988  11.146
 5085W        W77400  43.195  37.389  14.400
 5086W        W77401  19.210  12.442   2.351
 5087W        W77402  38.363  30.650  11.066
 5088W        W77403  17.216  37.556   2.839
 5089W        W77404  10.395  21.251  12.403
 5090W        W77405  12.333  17.658   3.739
 5091W        W77406  30.949  11.924  14.021
 5092W        W77407   6.340  27.221   1.194
 5093W        W77408  20.736  12.555   1.231
 5094W        W77409  37.620  33.102  11.909
 5095W        W77410   1.839   1.252   4.803
 5096W        W77411  30.070  37.968  11.564
 5097W        W77412  30.231  42.356   2.438
 5098W        W77413  44.711  26.116   2.837
 5099W        W77414  10.101  24.668   3.863
 5100W        W77415  10.239   9.650  12.572
 5101W        W77416   8.742  11.118  11.590
 5102W        W77417   5.467  32.647   0.829
 5103W        W77418   4.498  27.018   3.797
 5104W        W77419  23.475  24.631   1.364
 5105W        W77420  40.101  39.163  13.936
 5106W        W77421  21.764  25.969  14.336
 5107W        W77422  12.483  22.574  11.712
 5108W        W77423  33.402  20.812   0.981
 5109W        W77424  12.879   9.423   3.649
 5110W        W77425  41.587  35.562   1.310
 5111W        W77426  40.082  10.159   2.711
 5112W        W77427  17.222  43.775   1.387
 5113W        W77428  33.975  38.135  13.512
 5114W        W77429  26.992  19.568  14.833
 5115W        W77430  32.026   6.834   1.394
 5116W        W77431  19.530  43.889  14.399
 5117W        W77432  16.317  43.475   2.544
 5118W        W77433  22.995  15.763   1.751
 5119W        W77434  14.957   4.231   0.489
 5120W        W77435  16.268  15.977  10.384
 5121W        W77436  33.560  26.250   1.611
 5122W        W77437  21.077  11.187  13.134
 5123W        W77438  24.536  38.257  14.990
 5124W        W77439  41.937  10.746  12.034
 5125W        W77440  10.280  30.505   5.011
 5126W        W77441  18.635  42.890  11.953
 5127W        W77442  12.496  19.721   3.330
 5128W        W77443  27.412  43.717  14.403
 5129W        W77444   0.826  34.439   2.635
 5130W        W77445  19.271  10.853   2.727
 5131W        W77446   9.118   4.776   1.949
 5132W        W77447  38.523  18.573  14.172
 5133W        W77448   6.911  43.304  12.766
 5134W        W77449  35.253  31.635   2.760
 5135W        W77450  21.919  25.080  14.294
 5136W        W77451  43.005  15.543   4.617
 5137W        W77452  40.079  14.162  11.502
 5138W        W77453  14.190   2.840  12.868
 5139W        W77454   4.707  12.834   5.081
 5140W        W77455  32.891  29.180  10.764
 5141W        W77456  12.025  39.952   0.336
 5142W        W77457  24.002  21.222  10.726
 5143W        W77458  11.143  29.626   1.061
 5144W        W77459  14.558  37.016   4.680
 5145W        W77460  35.444  34.870  10.674
 5146W        W77461  40.387  43.054   3.768
 5147W        W77462  33.936  13.329   4.659
 5148W        W77463  40.047   5.441   4.671
 5149W        W77464   0.456  33.497   1.937
 5150W        W77465  35.304  11.332   2.244
 5151W        W77466  21.987  22.452   3.677
 5152W        W77467  21.243  31.611  11.031
 5153W        W77468  24.381   6.692  10.158
 5154W        W77469   3.125  22.263  13.799
 5155W        W77470  32.372  12.352   4.877
 5156W        W77471  11.907  20.233   3.697
 5157W        W77472  41.454  39.511  12.865
 5158W        W77473   1.959  13.230   2.880
 5159W        W77474   1.530  11.597   2.161
 5160W        W77475  13.210  32.040  10.931
 5161W        W77476  11.939  20.288   4.547
 5162W        W77477  39.986   6.782  12.361
 5163W        W77478  32.808   7.727  11.358
 5164W        W77479  15.144  17.734   2.228
 5165W        W77480   3.715  33.524   9.659
 5166W        W77481  37.029   9.946   4.069
 5167W        W77482  26.704  33.112  14.010
 5168W        W77483   5.693  19.299   2.688
 5169W        W77484  44.271  39.699   2.897
 5170W        W77485  38.905   0.512   3.865
 5171W        W77486  25.033  37.589  11.902
 5172W        W77487  28.072  26.709   0.887
 5173W        W77488  34.893  39.898   3.159
 5174W        W77489  16.273  28.988  14.774
 5175W        W77490  29.504  35.351   2.386
 5176W        W77491   7.441   8.312   1.741
 5177W        W77492  21.185  16.251  12.514
 5178W        W77493   6.766  25.980  10.951
 5179W        W77494   9.234  27.999  13.020
 5180W        W77495  36.365  17.314   1.257
 5181W        W77496  31.397  36.443  14.499
 5182W        W77497  30.602  29.685  12.633
 5183W        W77498   1.301  20.470  11.051
 5184W        W77499   5.947  23.065  13.017
 5185W        W77500  10.413  18.561   5.058
 5186W        W77501  33.561  13.854   0.793
 5187W        W77502  30.355  20.132   4.516
 5188W        W77503  28.043  42.197  13.541
 5189W        W77504  14.059  13.857   3.451
 5190W        W77505  12.741   6.898   1.286
 5191W        W77506   4.224  41.854   4.248
 5192W        W77507  38.887  21.171   2.424
 5193W        W77508  31.594   5.413  10.908
 5194W        W77509  30.875  35.932  13.485
 5195W        W77510  13.755   7.714  10.703
 5196W        W77511  37.484  13.097  11.309
 5197W        W77512  30.465   2.232   2.167
 5198W        W77513   5.475  19.766   1.396
 5199W        W77514  31.009  35.082   1.001
 5200W        W77515  19.263  17.751  13.724
 5201W        W77516  37.497  41.572   0.045
 5202W        W77517  29.858  18.719  13.491
 5203W        W77518  44.972  38.465   3.231
 5204W        W77519   2.886  10.808   3.816
 5205W        W77520  38.853  12.013   0.708
 5206W        W77521  38.546  43.288  11.459
 5207W        W77522  23.247  24.140   1.363
 5208W        W77523  33.917  35.712   4.212
 5209W        W77524  13.617  15.617  11.087
 5210W        W77525  17.156  33.749   4.245
 5211W        W77526  34.046  34.129   4.395
 5212W        W77527  36.042  23.636  13.767
 5213W        W77528  10.359  11.039   0.689
 5214W        W77529  27.045   5.968  10.195
 5215W        W77530  26.214  11.107   0.810
 5216W        W77531  38.843  17.682  11.890
 5217W        W77532   0.955  31.528  11.102
 5218W        W77533   1.213  36.417  12.025
 5219W        W77534  11.127  36.532   3.185
 5220W        W77535  17.311  17.130  10.146
 5221W        W77536  18.158   2.798  14.984
 5222W        W77537  20.430  34.116  12.200
 5223W        W77538  24.412  41.517   0.771
 5224W        W77539  39.626   0.217   0.489
 5225W        W77540  20.625  35.091  14.993
 5226W        W77541  39.060  23.255  12.633
 5227W        W77542  34.028   0.965  12.071
 5228W        W77543  23.674  31.170   3.310
 5229W        W77544   2.986  15.307   1.375
 5230W        W77545  24.003  40.440  11.141
 5231W        W77546  14.247  27.010  10.844
 5232W        W77547  37.371  38.442   3.237
 5233W        W77548   8.098  40.603   3.145
 5234W        W77549  32.107   5.243  12.436
 5235W        W77550  22.246  17.162   0.312
 5236W        W77551  30.607  13.779  12.982
 5237W        W77552  29.812   8.267  12.460
 5238W        W77553  15.349  29.905  11.630
 5239W        W77554   1.640   1.130   3.727
 5240W        W77555  24.545  22.528   3.665
 5241W        W77556   0.819  26.651   3.761
 5242W        W77557  10.464  19.757  14.800
 5243W        W77558  38.265  19.945   0.221
 5244W        W77559  31.869  21.320   0.217
 5245W        W77560  10.632  31.923  13.869
 5246W        W77561  29.059  19.075   3.696
 5247W        W77562  15.028  13.908  13.399
 5248W        W77563  15.834  15.668  10.409
 5249W        W77564  12.503  33.376  12.526
 5250W        W77565   2.312  22.199   0.002
 5251W        W77566  30.451  13.144  14.759
 5252W        W77567  40.457  26.099  11.367
 5253W        W77568  28.482   4.975   2.234
 5254W        W77569   8.356   2.977  10.929
 5255W        W77570  25.519  19.486   4.292
 5256W        W77571  24.028  36.545  13.961
 5257W        W77572  27.497   9.203   0.471
 5258W        W77573  26.724  11.683   2.601
 5259W        W77574  44.258  44.267   1.732
 5260W        W77575  39.544  11.870  11.201
 5261W        W77576  13.643  21.307  11.968
 5262W        W77577  25.531   6.858  12.070
 5263W        W77578  14.335   0.316   3.853
 5264W        W77579  36.603  24.665  13.168
 5265W        W77580   2.541  42.523   4.732
 5266W        W77581  34.472  13.935   4.071
 5267W        W77582  35.009  29.709   2.702
 5268W        W77583  38.439  24.828   2.383
 5269W        W77584   8.473  28.827  11.347
 5270W        W77585  34.128  12.392  13.107
 5271W        W77586  23.514  33.333  12.529
 5272W        W77587  41.798  11.076   1.843
 5273W        W77588  27.770  15.911   2.266
 5274W        W77589  34.320  11.428   4.126
 5275W        W77590  27.055  29.199   1.877
 5276W        W77591  12.164  35.579   4.460
 5277W        W77592  40.537  18.870   1.471
 5278W        W77593   3.001  19.120  12.559
 5279W        W77594   1.467  25.469  11.194
 5280W        W77595  31.967   1.493  11.612
 5281W        W77596  27.304  30.590  14.574
 5282W        W77597   4.865  10.197  14.527
 5283W        W77598  23.058  26.038  10.393
 5284W        W77599  28.445  35.076   1.214
 5285W        W77600  43.042  43.441   3.306
 5286W        W77601  16.762   0.513  12.298
 5287W        W77602  14.072   0.005   4.620
 5288W        W77603  11.863  12.814   0.282
 5289W        W77604  20.731  20.816   4.346
 5290W        W77605  30.116  38.117   0.868
 5291W        W77606   4.137  23.007   4.178
 5292W        W77607  40.033  34.426   3.177
 5293W        W77608  38.885  33.647  13.688
 5294W        W77609   2.714  42.885  10.747
 5295W        W77610   1.280  41.036   1.048
 5296W        W77611   9.277  37.887   2.711
 5297W        W77612   2.459  34.592   1.434
 5298W        W77613   7.495  10.796   1.888
 5299W        W77614   9.213  41.225   0.061
 5300W        W77615   9.577  10.274  13.393
 5301W        W77616  35.949  20.769   2.842
 5302W        W77617   4.000   0.635   4.864
 5303W        W77618  27.850  13.720   1.872
 5304W        W77619  44.712   3.897  13.331
 5305W        W77620   7.366  17.501  13.135
 5306W        W77621  28.820  13.242  12.431
 5307W        W77622  42.589  26.950   0.462
 5308W        W77623  31.065  13.134  11.189
 5309W        W77624  11.230  37.362   2.818
 5310W        W77625  42.402  12.645   3.127
 5311W        W77626  24.420  20.338  13.986
 5312W        W77627  39.390  16.415  11.253
 5313W        W77628   8.759  18.475   2.676
 5314W        W77629  38.796  31.569   0.681
 5315W        W77630  37.054   5.307   2.444
 5316W        W77631  14.893  23.975  10.607
 5317W        W77632   1.715  31.414  11.644
 5318W        W77633  27.567   3.232  10.669
 5319W        W77634  27.548  34.715  12.940
 5320W        W77635  34.148  35.361   3.874
 5321W        W77636   1.504  24.028  12.002
 5322W        W77637  27.550  38.830   4.530
 5323W        W77638  26.079  39.834  12.992
 5324W        W77639  18.212  41.675   9.669
 5325W        W77640  28.377   9.580  10.889
 5326W        W77641  21.017   5.952  12.600
 5327W        W77642  16.170  28.669   4.368
 5328W        W77643  14.657   7.642   0.788
 5329W        W77644  18.345  37.426   3.472
 5330W        W77645  18.882  11.377   0.843
 5331W        W77646  35.797  37.560  11.522
 5332W        W77647  22.164   1.796  13.794
 5333W        W77648  41.918  19.552  11.983
 5334W        W77649   8.643  12.820   3.773
 5335W        W77650  42.522   4.391  12.100
 5336W        W77651  27.027  32.921  14.836
 5337W        W77652  31.632  27.815  12.046
 5338W        W77653  25.122   4.533  10.537
 5339W        W77654  40.293  23.406  14.932
 5340W        W77655  21.266   7.161   3.255
 5341W        W77656  16.286  28.174   3.696
 5342W        W77657  12.892  41.352  14.948
 5343W        W77658  25.622  21.465   1.924
 5344W        W77659  25.503   9.304  10.651
 5345W        W77660   0.712  37.474   2.182
 5346W        W77661  15.789  23.587  13.349
 5347W        W77662   2.484  14.515   4.192
 5348W        W77663  22.357   2.921  13.626
 5349W        W77664  25.140  26.810   0.371
 5350W        W77665   0.031  27.131   4.155
 5351W        W77666  23.040  12.818   4.562
 5352W        W77667  31.298  25.104  10.828
 5353W        W77668  19.033  26.106  13.102
 5354W        W77669  41.840  41.900   1.305
 5355W        W77670  22.493  36.442  11.643
 5356W        W77671  23.517  37.738   3.448
 5357W        W77672  11.898  18.712  10.066
 5358W        W77673  36.899  38.327  12.655
 5359W        W77674   5.182   1.931   3.360
 5360W        W77675  39.889  35.112   0.813
 5361W        W77676  27.627  13.271  11.733
 5362W        W77677  16.668   3.140  14.950
 5363W        W77678  24.229   0.237   0.322
 5364W        W77679   5.102  15.094   1.907
 5365W        W77680  38.448  29.207   0.379
 5366W        W77681  44.321  29.366  13.736
 5367W        W77682  37.786  29.075  12.516
 5368W        W77683  18.142   5.012  12.853
 5369W        W77684  22.537  12.179  14.775
 5370W        W77685   0.573   9.716  11.533
 5371W        W77686  17.752  36.350   2.283
 5372W        W77687  30.062   0.443   0.413
 5373W        W77688  27.923  28.466   3.633
 5374W        W77689  26.142   5.845  10.198
 5375W        W77690  33.187  42.781  13.978
 5376W        W77691  27.652  38.841  13.469
 5377W        W77692  21.728   2.439   4.369
 5378W        W77693   1.797  37.403   4.898
 5379W        W77694  21.001  18.772   0.753
 5380W        W77695  38.464   7.898   0.927
 5381W        W77696  41.937  38.054   0.702
 5382W        W77697   4.718   1.913  11.678
 5383W        W77698   7.392  23.961   3.683
 5384W        W77699   2.658  10.332  12.028
 5385W        W77700  38.698  34.855   2.344
 5386W        W77701  25.625  26.966  12.527
 5387W        W77702  32.967   4.262  10.835
 5388W        W77703   2.353  34.023  10.566
 5389W        W77704  32.523   0.157  10.327
 5390W        W77705   4.448  30.113   4.617
 5391W        W77706   9.200   7.917  11.097
 5392W        W77707   1.868  33.474   2.959
 5393W        W77708  29.902  37.099  13.828
 5394W        W77709  21.249   6.364  12.414
 5395W        W77710  28.427  44.412   0.718
 5396W        W77711  35.133  36.410   3.494
 5397W        W77712  43.904  38.953  10.667
 5398W        W77713   1.567  33.597   4.092
 5399W        W77714  14.116  40.555   4.072
 5400W        W77715  44.380  29.946  14.323
 5401W        W77716  38.821  30.852   0.944
 5402W        W77717  36.420  17.945  13.879
 5403W        W77718  21.644  32.410  11.128
 5404W        W77719  25.485  44.991   1.347
 5405W        W77720   4.525  16.218  12.361
 5406W        W77721   8.039  39.056   1.311
 5407W        W77722  35.593  25.308   0.368
 5408W        W77723  30.866  22.656  10.925
 5409W        W77724  29.115   5.924   2.317
 5410W        W77725  36.220  15.140  11.602
 5411W        W77726  17.763  41.325   4.683
 5412W        W77727   7.314  27.963  10.912
 5413W        W77728  15.673  21.038   0.313
 5414W        W77729  16.787  36.809   3.819
 5415W        W77730  30.619  21.064  10.709
 5416W        W77731  38.333  40.626   3.206
 5417W        W77732  20.797  20.571   1.698
 5418W        W77733  21.646  35.346  13.892
 5419W        W77734  40.325  33.325   0.510
 5420W        W77735  20.351  10.387  11.390
 5421W        W77736  30.102  36.359  12.621
 5422W        W77737  16.248   5.370   2.758
 5423W        W77738  14.267  42.909  13.278
 5424W        W77739   6.127  22.667  14.835
 5425W        W77740   3.710  25.556  10.538
 5426W        W77741  28.936  18.765   4.089
 5427W        W77742   7.481   8.259   2.652
 5428W        W77743  38.063   7.168  11.524
 5429W        W77744   5.805  19.072  13.532
 5430W        W77745   7.307  44.240  14.820
 5431W        W77746  27.410   1.508  11.871
 5432W        W77747  37.130   1.753   1.399
 5433W        W77748  42.852  35.931   3.918
 5434W        W77749  24.245   3.847   0.783
 5435W        W77750  13.755  27.673  12.850
 5436W        W77751   3.763   5.255   4.306
 5437W        W77752  27.574  26.875   0.998
 5438W        W77753  30.984   8.467   0.332
 5439W        W77754  18.853  24.069  12.352
 5440W        W77755   6.008   6.759   4.228
 5441W        W77756  41.021  29.048   4.568
 5442W        W77757  28.010  37.391   3.653
 5443W        W77758  16.045   3.212  12.084
 5444W        W77759  18.101  35.646  13.447
 5445W        W77760  44.068   5.982  14.399
 5446W        W77761  12.334  40.635  14.529
 5447W        W77762  28.704   5.871   5.479
 5448W        W77763  14.295  28.968  13.956
 5449W        W77764  28.412  27.585  11.110
 5450W        W77765  34.941  42.698   1.305
 5451W        W77766  35.801  12.829   2.968
 5452W        W77767  38.947  44.746  14.822
 5453W        W77768  16.516  38.794   4.251
 5454W        W77769  25.016  33.725   4.706
 5455W        W77770  40.781  27.225  11.705
 5456W        W77771  17.887   3.969  14.135
 5457W        W77772   8.875  11.912  14.559
 5458W        W77773   0.464  34.578  14.412
 5459W        W77774  37.047  24.544   4.009
 5460W        W77775   0.823  10.898  10.639
 5461W        W77776  30.099  28.992  12.529
 5462W        W77777   1.059  32.882   2.935
 5463W        W77778  44.585  14.798   2.441
 5464W        W77779   9.398  14.653  12.518
 5465W        W77780  35.232  39.276   3.700
 5466W        W77781  16.591  18.364  11.107
 5467W        W77782   1.776  41.362  10.578
 5468W        W77783  21.276  19.616   3.358
 5469W        W77784  36.499  24.502  11.450
 5470W        W77785  39.438  44.373  13.947
 5471W        W77786  17.725  34.633  14.730
 5472W        W77787   9.897  32.650  13.504
 5473W        W77788  43.668  36.914   2.381
 5474W        W77789  14.309  16.714  12.228
 5475W        W77790  11.807  42.564  13.395
 5476W        W77791   5.268  24.193  10.711
 5477W        W77792  31.587  22.758  14.846
 5478W        W77793  31.580   1.766   0.739
 5479W        W77794  34.886  28.650   1.835
 5480W        W77795   1.878   5.907  13.363
 5481W        W77796  14.166  36.978   4.215
 5482W        W77797   4.189  27.451   3.788
 5483W        W77798  23.167  22.232   0.882
 5484W        W77799  22.726   9.795   3.284
 5485W        W77800   1.699   1.980   1.992
 5486W        W77801   3.368   6.453  14.000
 5487W        W77802  29.531  15.734   1.663
 5488W        W77803  43.021   0.466  13.921
 5489W        W77804  40.335  13.269  11.569
 5490W        W77805  36.774  17.533   2.217
 5491W        W77806  36.057  35.564   0.723
 5492W        W77807   9.770  13.852  10.451
 5493W        W77808   8.275   6.139  13.386
 5494W        W77809  10.748  42.557   4.389
 5495W        W77810  41.783  28.180  13.870
 5496W        W77811  39.097  18.554   5.195
 5497W        W77812   8.673  39.059   2.227
 5498W        W77813  30.933  23.663  12.565
 5499W        W77814  33.531  23.767   3.111
 5500W        W77815  41.738  42.698   3.706
 5501W        W77816  29.631  44.198   3.090
 5502W        W77817  28.559   6.818  14.330
 5503W        W77818  29.636  30.431   1.464
 5504W        W77819   1.441  26.706   4.114
 5505W        W77820  16.029  21.195  14.303
 5506W        W77821  41.582   9.407  14.841
 5507W        W77822  11.283   3.139   0.407
 5508W        W77823  37.472   1.286  12.817
 5509W        W77824  35.146  19.297   3.239
 5510W        W77825  42.363  42.727  11.401
 5511W        W77826  22.033   3.915  10.433
 5512W        W77827  25.740   1.188  11.169
 5513W        W77828  26.646  30.426  12.895
 5514W        W77829  40.014  24.268  10.255
 5515W        W77830  24.908   7.406   2.683
 5516W        W77831  34.267  13.152   4.312
 5517W        W77832  25.184  38.454  14.428
 5518W        W77833  20.687   9.666   0.974
 5519W        W77834  35.385  13.904  13.032
 5520W        W77835  38.500  15.288  10.662
 5521W        W77836   1.370   9.101  10.517
 5522W        W77837  25.071  30.658   0.749
 5523W        W77838  44.033   3.614   3.456
 5524W        W77839  14.036  29.411  13.949
 5525W        W77840   4.827   3.544  13.754
 5526W        W77841  33.330  13.709  10.624
 5527W        W77842  11.616  36.784   2.107
 5528W        W77843   9.878  40.386  12.640
 5529W        W77844  22.004  40.270   0.200
 5530W        W77845  44.094  13.307  12.166
 5531W        W77846  24.443  22.986  11.962
 5532W        W77847  14.016  35.416  10.696
 5533W        W77848  21.740  33.876   3.388
 5534W        W77849   5.203  35.539  13.407
 5535W        W77850  34.427  39.900   3.724
 5536W        W77851  29.219  20.870  14.331
 5537W        W77852  17.023   2.202  14.941
 5538W        W77853   2.597  21.857   0.396
 5539W        W77854  22.333   7.098  12.211
 5540W        W77855  39.697  44.239   0.387
 5541W        W77856  15.574  44.365   3.823
 5542W        W77857  13.934  22.158  11.669
 5543W        W77858  26.496  33.911   1.330
 5544W        W77859  42.489  38.320  10.894
 5545W        W77860  19.279   7.439  11.054
 5546W        W77861  39.793   6.587   2.930
 5547W        W77862  41.855  44.990  12.399
 5548W        W77863   8.137  35.082  13.756
 5549W        W77864  15.834  23.812   0.385
 5550W        W77865  19.527  44.272  11.075
 5551W        W77866  17.205  19.392  10.311
 5552W        W77867   1.101  10.807   0.758
 5553W        W77868  40.013  17.088  11.536
 5554W        W77869  18.093   7.897   3.576
 5555W        W77870  36.983  39.338   0.898
 5556W        W77871  42.975  20.132  11.731
 5557W        W77872  38.269  22.970   2.331
 5558W        W77873   6.715  35.116   2.219
 5559W        W77874  21.221  31.920   0.838
 5560W        W77875  15.355  20.135   0.224
 5561W        W77876  39.068   2.704  10.722
 5562W        W77877  10.127  38.452  14.051
 5563W        W77878  23.585  42.118   3.578
 5564W        W77879   0.497  30.440  14.423
 5565W        W77880  26.897  42.436  12.997
 5566W        W77881  43.853  19.523   3.808
 5567W        W77882  27.206  13.415  13.954
 5568W        W77883  16.311  36.421  12.977
 5569W        W77884  15.664  39.708   2.233
 5570W        W77885   6.318  32.880  12.904
 5571W        W77886  33.873  20.662  13.477
 5572W        W77887  37.045  13.822  12.837
 5573W        W77888   8.291   8.810   2.560
 5574W        W77889   5.208  23.511   3.762
 5575W        W77890  25.047  37.412  10.893
 5576W        W77891  34.406  22.134   4.403
 5577W        W77892   9.852  32.992  12.874
 5578W        W77893  39.831  35.432  10.797
 5579W        W77894  22.006   8.779   0.702
 5580W        W77895   3.399  33.407  14.403
 5581W        W77896  21.738  41.050  14.827
 5582W        W77897  28.598  32.520   2.849
 5583W        W77898  29.972   8.380   0.040
 5584W        W77899  21.050  16.732  13.352
 5585W        W77900  15.067  11.323  11.183
 5586W        W77901  37.843  41.018   3.104
 5587W        W77902   9.787  34.191  11.077
 5588W        W77903   3.959  10.277  14.873
 5589W        W77904  38.332   4.920   4.527
 5590W        W77905  35.937   8.975   2.666
 5591W        W77906  31.628  42.333   2.959
 5592W        W77907  13.566  40.392   4.058
 5593W        W77908   7.263  17.821  11.159
 5594W        W77909  23.601  10.254  14.807
 5595W        W77910  10.537  16.743  14.285
 5596W        W77911  22.468  22.042  12.031
 5597W        W77912  12.816   5.103  10.096
 5598W        W77913  12.401  17.025   5.412
 5599W        W77914  32.927  38.666   0.270
 5600W        W77915   8.991  32.565   4.554
 5601W        W77916   1.976   1.069  14.842
 5602W        W77917  40.054  25.990  11.670
 5603W        W77918  42.627   7.003   3.800
 5604W        W77919  39.425  14.531   2.133
 5605W        W77920  43.026  34.705  13.338
 5606W        W77921   7.069  10.201   0.021
 5607W        W77922  21.504   3.973  12.044
 5608W        W77923  13.017  18.626   0.001
 5609W        W77924   6.178  19.085   1.126
 5610W        W77925  16.189  12.640  14.001
 5611W        W77926  11.609  10.844  14.622
 5612W        W77927  34.733  40.600   4.148
 5613W        W77928   4.554  26.999   4.611
 5614W        W77929   7.400   3.271  13.695
 5615W        W77930  32.909  14.712   4.395
 5616W        W77931  44.426  30.490   1.399
 5617W        W77932  24.026  20.805   2.025
 5618W        W77933  21.319  26.680   4.776
 5619W        W77934  36.470  43.977   0.494
 5620W        W77935  42.976  21.261   1.269
 5621W        W77936   4.121  14.723   2.759
 5622W        W77937  14.357  33.358   4.553
 5623W        W77938  18.274  40.963  14.829
 5624W        W77939  37.316  20.230   2.118
 5625W        W77940   0.221   3.760  13.313
 5626W        W77941  19.239  26.539   1.874
 5627W        W77942  41.685   3.973  14.046
 5628W        W77943  29.592  17.774  14.289
 5629W        W77944  23.567  12.652  14.310
 5630W        W77945   8.055  39.696  11.098
 5631W        W77946  18.103  38.149  14.349
 5632W        W77947  16.188   4.510  13.515
 5633W        W77948  24.523  25.619  14.584
 5634W        W77949  29.408   2.892   3.571
 5635W        W77950  41.937  25.790  10.655
 5636W        W77951  35.516  26.887   3.786
 5637W        W77952   2.640  37.133  11.151
 5638W        W77953  21.164  38.981   3.183
 5639W        W77954  31.043  36.535  12.701
 5640W        W77955   7.753  14.602   1.134
 5641W        W77956   0.357   0.259  10.936
 5642W        W77957  26.110  39.662  12.496
 5643W        W77958   0.945  44.770  11.526
 5644W        W77959  25.939  14.045  11.642
 5645W        W77960   0.036  39.506  12.950
 5646W        W77961  32.474  26.589   4.332
 5647W        W77962  41.886  37.140  13.195
 5648W        W77963  16.712  20.178  12.709
 5649W        W77964  39.288  19.001   2.710
 5650W        W77965  19.627  29.871  13.848
 5651W        W77966  36.035  35.367   1.418
 5652W        W77967   0.904  26.213   0.063
 5653W        W77968   1.104   7.912  12.035
 5654W        W77969  40.972  42.049  12.462
 5655W        W77970  38.825  28.967   4.957
 5656W        W77971  13.387  31.531   1.236
 5657W        W77972  31.413  39.117   3.322
 5658W        W77973  27.690  37.885  12.475
 5659W        W77974  36.023  43.922   1.783
 5660W        W77975  32.606  25.039   3.168
 5661W        W77976  41.020  44.785   4.486
 5662W        W77977   9.964  40.375  13.946
 5663W        W77978  21.309  29.625   1.502
 5664W        W77979  29.686  37.885   0.316
 5665W        W77980  17.160   8.473  11.985
 5666W        W77981  31.956  31.486  14.497
 5667W        W77982  26.501  42.482  14.805
 5668W        W77983  23.179  32.075  14.488
 5669W        W77984  41.551  39.281   3.717
 5670W        W77985   2.566  34.976   3.691
 5671W        W77986   0.942  11.130  13.192
 5672W        W77987  39.175  18.771   0.915
 5673W        W77988  14.680  44.517  13.661
 5674W        W77989   2.764  16.880   2.337
 5675W        W77990   1.779  32.105   2.845
 5676W        W77991  33.400   4.588   9.969
 5677W        W77992   6.298  17.508  10.997
 5678W        W77993  15.016  18.706   1.272
 5679W        W77994  29.493  39.784   0.869
 5680W        W77995   5.652  44.302  10.557
 5681W        W77996   8.676  33.392  14.253
 5682W        W77997  31.228  41.089   1.522
 5683W        W77998  32.200  32.530  14.922
 5684W        W77999  19.748  17.324   3.754
 5685W        W78000  41.764  19.114  14.527
 5686W        W78001  27.261   3.443   1.385
 5687W        W78002   2.992  22.208   0.434
 5688W        W78003  14.499  33.347  11.657
 5689W        W78004   4.378  10.449  11.573
 5690W        W78005  43.881  40.107   2.797
 5691W        W78006  12.257  20.117  12.520
 5692W        W78007  39.035  21.127  11.671
 5693W        W78008  29.088  43.787  13.371
 5694W        W78009  34.803  27.569   3.187
 5695W        W78010   1.332  29.414   0.513
 5696W        W78011  40.575  34.478   1.318
 5697W        W78012  18.638  21.057  13.579
 5698W        W78013  43.220  36.614  11.183
 5699W        W78014   2.228  26.134   0.704
 5700W        W78015  16.115  14.710  14.989
 5701W        W78016  31.903  43.953  13.461
 5702W        W78017  15.351   0.511   4.589
 5703W        W78018  33.075  14.857   3.437
 5704W        W78019  28.862  20.778  12.048
 5705W        W78020   6.769  43.103  14.310
 5706W        W78021  31.588  34.317  14.797
 5707W        W78022  16.326  16.524   1.845
 5708W        W78023   1.470   9.778  14.825
 5709W        W78024  18.434  22.912   0.870
 5710W        W78025  31.967  27.401   4.807
 5711W        W78026   0.642   6.846   1.429
 5712W        W78027   5.421  31.221  11.527
 5713W        W78028  31.989  44.050  10.700
 5714W        W78029  39.891  10.758  11.401
 5715W        W78030  18.560  11.738  10.795
 5716W        W78031  23.188  18.758   3.684
 5717W        W78032  36.423  44.916  10.480
 5718W        W78033  11.712  37.998  12.602
 5719W        W78034  28.970  14.555  14.533
 5720W        W78035  22.134   6.627   3.288
 5721W        W78036   3.215   7.254  13.130
 5722W        W78037   4.207  34.313  14.798
 5723W        W78038  16.378   9.220   4.253
 5724W        W78039   3.356   6.843   2.596
 5725W        W78040  14.354  33.853  13.562
 5726W        W78041   1.851   2.449  10.662
 5727W        W78042  24.055  41.901   1.450
 5728W        W78043  36.269  36.411  13.845
 5729W        W78044   7.527  31.562  13.383
 5730W        W78045   2.710  18.154   1.272
 5731W        W78046  27.663  18.622  13.031
 5732W        W78047  13.224  22.441  11.098
 5733W        W78048   8.400  44.238   4.017
 5734W        W78049  42.260  38.938   4.838
 5735W        W78050  16.453  34.003   4.639
 5736W        W78051  19.333   8.747  14.767
 5737W        W78052  42.305  41.908  12.892
 5738W        W78053  29.561  26.724  11.097
 5739W        W78054  22.729  19.700   4.977
 5740W        W78055  13.164   1.483  10.754
 5741W        W78056   1.599  28.978   4.030
 5742W        W78057  34.496  43.952   2.325
 5743W        W78058  14.240  29.703   0.250
 5744W        W78059  32.178  19.956   1.398
 5745W        W78060   1.186  34.564  10.172
 5746W        W78061  43.803  11.595   0.416
 5747W        W78062  16.849  21.752   0.266
 5748W        W78063  13.274  40.486  14.436
 5749W        W78064  33.888  34.054  14.074
 5750W        W78065  34.120   6.338   0.289
 5751W        W78066  17.084  22.253  13.348
 5752W        W78067   7.362  16.574   0.267
 5753W        W78068  16.062  29.194  12.934
 5754W        W78069  13.725  44.934   3.687
 5755W        W78070  22.037  23.270   4.069
 5756W        W78071   6.917  11.172  12.295
 5757W        W78072  28.604  36.834   0.235
 5758W        W78073  12.993  16.498   9.611
 5759W        W78074  33.131  15.474   0.666
 5760W        W78075  19.327  38.278   9.700
 5761W        W78076   3.794  14.114  12.491
 5762W        W78077  16.658   1.301  11.848
 5763W        W78078  44.740  18.016   1.314
 5764W        W78079  26.016  20.585   0.429
 5765W        W78080  27.199   8.171   3.637
 5766W        W78081  44.190  18.662   3.177
 5767W        W78082  11.693  33.628   2.753
 5768W        W78083  22.824  36.173   3.990
 5769W        W78084  20.557   6.849   2.232
 5770W        W78085  23.664  12.994   2.163
 5771W        W78086  27.748  28.516  12.482
 5772W        W78087   0.683  29.806  10.230
 5773W        W78088  27.897  19.779   2.086
 5774W        W78089  20.513  43.356  12.001
 5775W        W78090  38.534  38.934   1.182
 5776W        W78091  18.187  19.571  10.642
 5777W        W78092  19.543   4.564  11.613
 5778W        W78093  12.206   4.867   4.086
 5779W        W78094  43.764  29.537  14.255
 5780W        W78095   7.389  32.182   0.449
 5781W        W78096  33.314   2.759   0.326
 5782W        W78097  32.644  13.748  13.847
 5783W        W78098  13.628  41.588   4.812
 5784W        W78099   2.790   8.971   3.531
 5785W        W78100  34.298   9.746   0.735
 5786W        W78101  14.727  19.968   3.691
 5787W        W78102  36.033  34.643  13.473
 5788W        W78103  19.446   0.524  14.877
 5789W        W78104  26.520  14.260   2.162
 5790W        W78105  34.600   4.686   4.681
 5791W        W78106  31.725   8.410  12.331
 5792W        W78107  35.235  13.032  14.950
 5793W        W78108  27.358   2.358  10.601
 5794W        W78109  16.730  12.794  11.618
 5795W        W78110  17.710  28.101   5.082
 5796W        W78111   0.249  11.144   0.282
 5797W        W78112  39.613  12.890  12.044
 5798W        W78113  28.153   5.184  14.423
 5799W        W78114   5.165  26.829  11.473
 5800W        W78115  26.705   1.258  11.130
 5801W        W78116  30.047   5.729  14.527
 5802W        W78117   4.986  32.816   0.940
 5803W        W78118  31.467   7.869   3.675
 5804W        W78119  26.978  32.827   3.151
 5805W        W78120   8.337  36.087  12.436
 5806W        W78121   5.348  32.363  13.061
 5807W        W78122  17.052  25.283   1.744
 5808W        W78123  15.705   3.643   1.691
 5809W        W78124  22.035   3.706   4.513
 5810W        W78125  30.857  37.507  11.455
 5811W        W78126  44.801  19.312   3.697
 5812W        W78127  35.383  27.092   1.838
 5813W        W78128   4.211  32.213   0.924
 5814W        W78129   8.760  27.659  11.111
 5815W        W78130  16.204  18.350   4.074
 5816W        W78131  33.049   7.423  13.784
 5817W        W78132  44.702   7.507  10.712
 5818W        W78133  42.879  31.783  10.498
 5819W        W78134   9.224  19.506  10.554
 5820W        W78135   0.845   0.365   2.947
 5821W        W78136  14.386   5.823   3.620
 5822W        W78137  40.209   4.607   1.232
 5823W        W78138   6.512  32.530  12.097
 5824W        W78139  28.600   9.220  13.028
 5825W        W78140  27.515  13.143   4.194
 5826W        W78141   6.427   4.809  13.010
 5827W        W78142   6.299  17.744   1.329
 5828W        W78143  39.366  27.426  12.482
 5829W        W78144   7.278   4.633   2.253
 5830W        W78145   4.858  27.076   1.000
 5831W        W78146  31.961  27.893   4.633
 5832W        W78147   0.467   6.849   0.520
 5833W        W78148  24.126  34.475   4.603
 5834W        W78149  16.236   0.415   1.215
 5835W        W78150  15.237  15.613   1.823
 5836W        W78151  33.872  31.263  11.786
 5837W        W78152  30.320   0.777   0.923
 5838W        W78153  30.959  25.659  13.201
 5839W        W78154  41.735  15.655  12.556
 5840W        W78155  28.742  26.041   3.654
 5841W        W78156  31.181   3.237   4.243
 5842W        W78157   9.380  34.827   1.766
 5843W        W78158  28.605  24.479  13.444
 5844W        W78159  38.854  29.119  13.363
 5845W        W78160  36.394  24.972   4.030
 5846W        W78161  10.194  31.176  11.601
 5847W        W78162   8.213  27.415  11.197
 5848W        W78163  17.475   7.676  12.053
 5849W        W78164  23.230  31.953   4.752
 5850W        W78165  11.656  26.898   4.649
 5851W        W78166  12.655   7.178   2.859
 5852W        W78167   0.770  26.106  14.026
 5853W        W78168  37.853  13.471   4.139
 5854W        W78169  11.492  32.863  14.201
 5855W        W78170  35.594  23.328   4.343
 5856W        W78171  38.560  13.327  12.684
 5857W        W78172  33.837  33.853  11.224
 5858W        W78173  38.638  19.016  13.920
 5859W        W78174   5.304  27.959   2.096
 5860W        W78175  38.885  12.859  11.524
 5861W        W78176  19.039  18.620   0.865
 5862W        W78177   0.887  16.094   3.299
 5863W        W78178  10.898  35.549   1.222
 5864W        W78179   0.950   1.289  11.181
 5865W        W78180  11.276   3.022  11.184
 5866W        W78181   3.161  32.538  14.151
 5867W        W78182  28.928  33.693  11.023
 5868W        W78183  37.329  37.104  13.026
 5869W        W78184  29.090   0.465  11.115
 5870W        W78185  41.482  27.046   1.641
 5871W        W78186  44.383  21.301  10.154
 5872W        W78187  37.630  10.598  10.734
 5873W        W78188  37.992  38.849   3.827
 5874W        W78189  28.479  34.354  10.854
 5875W        W78190  32.099  25.688  13.431
 5876W        W78191  19.014  35.964  14.442
 5877W        W78192  10.285  32.386   3.735
 5878W        W78193  10.336  42.990   1.869
 5879W        W78194  43.303   4.505   2.146
 5880W        W78195  41.149  20.449  11.244
 5881W        W78196  23.981  31.610   1.761
 5882W        W78197  40.952  23.155  12.886
 5883W        W78198   9.882  31.638   1.919
 5884W        W78199  26.651  43.555   0.857
 5885W        W78200  33.188  44.813  10.299
 5886W        W78201  30.669  15.740  11.134
 5887W        W78202  29.031  32.090  11.575
 5888W        W78203  28.389  42.188  10.675
 5889W        W78204  32.322   5.592  12.011
 5890W        W78205   7.988   6.820  14.269
 5891W        W78206  25.940   8.320   3.467
 5892W        W78207   2.254  34.651  13.829
 5893W        W78208  27.047  17.737   0.375
 5894W        W78209  34.486  25.033  11.624
 5895W        W78210   1.399  26.568  11.588
 5896W        W78211  34.899  34.423  11.637
 5897W        W78212  15.976  26.940   1.374
 5898W        W78213   9.249  35.895  14.585
 5899W        W78214  14.902  31.442   1.187
 5900W        W78215  40.531  40.924   3.746
 5901W        W78216   9.501  40.243  14.801
 5902W        W78217  35.812   4.499   3.388
 5903W        W78218  24.254   6.368   4.459
 5904W        W78219  19.092  38.553  11.952
 5905W        W78220   6.293  30.623  12.639
 5906W        W78221  27.750   5.758  13.045
 5907W        W78222  11.330  34.349  12.672
 5908W        W78223  15.398  14.288  14.494
 5909W        W78224   7.427   3.341  11.667
 5910W        W78225   9.235  25.644   1.100
 5911W        W78226  37.042  39.277  11.025
 5912W        W78227  27.596   6.900  12.086
 5913W        W78228  17.071  36.117   4.687
 5914W        W78229  39.630  25.025  13.716
 5915W        W78230  28.934   7.238  13.995
 5916W        W78231  12.371  43.363   3.692
 5917W        W78232   4.851  16.040  11.349
 5918W        W78233  31.128  40.482   3.729
 5919W        W78234  14.127   3.850  13.787
 5920W        W78235  10.366  17.501  10.566
 5921W        W78236  10.384  15.255  12.812
 5922W        W78237  22.078   3.674   0.362
 5923W        W78238  33.488  19.533   4.712
 5924W        W78239  31.839  24.726   2.092
 5925W        W78240   9.250  11.308  11.423
 5926W        W78241   9.770  16.053  12.093
 5927W        W78242   5.980  26.156  13.008
 5928W        W78243  23.683   9.612   2.828
 5929W        W78244   4.632  40.884   0.110
 5930W        W78245  16.713  27.572   5.468
 5931W        W78246  38.117  22.142   1.491
 5932W        W78247  12.252  11.758  11.153
 5933W        W78248  40.503  16.139  10.507
 5934W        W78249  19.327  32.309  12.972
 5935W        W78250  25.990  32.335  14.773
 5936W        W78251  24.204  43.336   4.377
 5937W        W78252  10.403  39.566   4.324
 5938W        W78253  33.074  11.836   2.500
 5939W        W78254  18.319  35.060   1.310
 5940W        W78255  39.627   7.746  11.135
 5941W        W78256   5.969  18.128   1.197
 5942W        W78257  37.922   4.424  13.052
 5943W        W78258  20.348  17.816  14.916
 5944W        W78259  12.735  33.617  10.643
 5945W        W78260   0.095  10.107  12.564
 5946W        W78261  41.138  43.752  14.802
 5947W        W78262  42.350  17.974   1.206
 5948W        W78263   4.634  41.521  13.052
 5949W        W78264   4.389  34.456   4.404
 5950W        W78265  13.551  19.765   3.347
 5951W        W78266   3.922   4.149  12.035
 5952W        W78267  10.237  10.529   2.890
 5953W        W78268  27.464  25.053  12.483
 5954W        W78269  15.035  12.186  13.065
 5955W        W78270  20.772  30.714   1.828
 5956W        W78271   1.842  30.907   0.385
 5957W        W78272   1.189  35.013   1.893
 5958W        W78273  42.049  34.390  10.787
 5959W        W78274  30.932  44.880  11.829
 5960W        W78275  40.386   5.198  11.093
 5961W        W78276   3.244   9.282  13.335
 5962W        W78277   3.029  30.259   0.935
 5963W        W78278   4.005  23.844   4.105
 5964W        W78279  41.594  31.469   3.287
 5965W        W78280  36.047  10.147  12.954
 5966W        W78281  40.625  18.083   2.846
 5967W        W78282  22.800  24.303   2.246
 5968W        W78283   9.642  40.246   3.694
 5969W        W78284  44.338   2.238   3.359
 5970W        W78285  22.563  42.820  10.780
 5971W        W78286   4.818  35.471   0.245
 5972W        W78287  18.575  30.072   3.272
 5973W        W78288   9.802  17.245  14.815
 5974W        W78289   8.367  42.294   0.345
 5975W        W78290  12.251   1.459   0.801
 5976W        W78291  22.212  22.694  11.125
 5977W        W78292  10.489  31.147   0.275
 5978W        W78293  15.527  26.320  14.248
 5979W        W78294   5.682  26.086   4.144
 5980W        W78295  26.611  29.292   2.865
 5981W        W78296  24.577  27.034   4.625
 5982W        W78297  43.388  31.810  13.951
 5983W        W78298  34.428  26.243  13.215
 5984W        W78299  25.295  29.471  10.713
 5985W        W78300   6.808   7.742   0.299
 5986W        W78301  22.753  31.597  13.029
 5987W        W78302  25.133   0.299   4.398
 5988W        W78303   6.270  41.397   4.519
 5989W        W78304  44.351  13.792   0.805
 5990W        W78305  42.362   2.443   0.345
 5991W        W78306  14.626  19.025  11.156
 5992W        W78307  44.473  40.756  12.932
 5993W        W78308  42.840   3.808  13.069
 5994W        W78309  27.323   4.672   2.662
 5995W        W78310   0.139   7.174   0.844
 5996W        W78311  44.727  30.686  12.428
 5997W        W78312  34.542  10.126   3.638
 5998W        W78313  15.595  10.201   1.794
 5999W        W78314  38.738   7.229  13.375
 6000W        W78315  23.702  12.381  14.745
 6001W        W78316   2.032  28.645  14.734
 6002W        W78317   9.723  28.040   4.641
 6003W        W78318  30.502  16.766   1.633
 6004W        W78319   4.632  40.833   0.638
 6005W        W78320  31.197  35.918   1.943
 6006W        W78321  31.144  34.991  11.224
 6007W        W78322  21.781  15.121   1.409
 6008W        W78323  28.625  15.805   2.396
 6009W        W78324  21.248  10.337   1.525
 6010W        W78325  38.807   7.796  10.773
 6011W        W78326  43.088  19.025  14.703
 6012W        W78327   5.122  10.414  11.096
 6013W        W78328   3.451  22.504   0.401
 6014W        W78329   6.209   6.399   2.736
 6015W        W78330  21.074  20.004  11.956
 6016W        W78331  33.140  10.642   4.743
 6017W        W78332  12.305   6.388  12.307
 6018W        W78333  37.123  25.270  13.887
 6019W        W78334  44.088  36.008  14.270
 6020W        W78335   3.055  33.956   4.226
 6021W        W78336  29.715  10.148  12.057
 6022W        W78337  15.620  33.497  11.472
 6023W        W78338  10.663  31.690  11.080
 6024W        W78339  19.667  26.615   0.625
 6025W        W78340  37.984  28.432   3.651
 6026W        W78341  36.056   6.868  12.560
 6027W        W78342   6.425  33.437  13.794
 6028W        W78343  28.022  31.342   1.682
 6029W        W78344  23.620  10.681  13.311
 6030W        W78345  31.051  41.606  10.690
 6031W        W78346  33.978  31.831  11.026
 6032W        W78347  23.037  42.595  10.636
 6033W        W78348  41.157  19.217   0.937
 6034W        W78349   3.914  26.984  12.691
 6035W        W78350  42.281  42.256   0.733
 6036W        W78351  32.838  24.268  13.220
 6037W        W78352   8.448   0.088   2.246
 6038W        W78353  34.541  21.679  13.776
 6039W        W78354   3.324  17.548  10.640
 6040W        W78355  29.015   8.601   2.705
 6041W        W78356   4.371  24.417   4.513
 6042W        W78357   0.500  31.728   1.814
 6043W        W78358   0.789  21.105  14.209
 6044W        W78359  22.306  27.512   3.626
 6045W        W78360  32.173  12.638  14.517
 6046W        W78361  20.073   4.212  14.410
 6047W        W78362   0.562  41.069  11.796
 6048W        W78363  19.383  21.569   0.881
 6049W        W78364  30.390  13.608   1.472
 6050W        W78365  42.641  43.374  13.112
 6051W        W78366  10.350  20.089   4.879
 6052W        W78367   8.580  28.504  14.253
 6053W        W78368  39.038  35.797   4.948
 6054W        W78369  39.317  36.064  10.572
 6055W        W78370  44.012  27.273  13.849
 6056W        W78371  18.116  14.115  12.953
 6057W        W78372  19.344   3.361  12.632
 6058W        W78373  34.313  15.696  14.821
 6059W        W78374  30.623  38.950  14.291
 6060W        W78375  29.678  12.236   2.405
 6061W        W78376  30.559  26.012   4.145
 6062W        W78377   0.399   7.364   0.449
 6063W        W78378  28.377  24.743  13.854
 6064W        W78379  32.440  35.635   2.319
 6065W        W78380   9.775  31.500  10.503
 6066W        W78381  23.434  10.752  14.868
 6067W        W78382   5.961   5.600  13.061
 6068W        W78383  41.079  21.138  12.360
 6069W        W78384  44.781  41.404   0.704
 6070W        W78385  14.400  14.749  10.468
 6071W        W78386  29.828  26.898  14.586
 6072W        W78387  34.915  15.030  12.436
 6073W        W78388   0.447  22.139   2.644
 6074W        W78389  40.463   5.391  12.903
 6075W        W78390  37.999  35.878   5.256
 6076W        W78391  35.220   3.112   4.121
 6077W        W78392  26.148  20.076  13.085
 6078W        W78393  42.771  24.183   3.133
 6079W        W78394  30.885  41.654  12.952
 6080W        W78395   0.120  12.207   1.723
 6081W        W78396  18.718  32.066   9.373
 6082W        W78397   8.884  20.665   0.264
 6083W        W78398  21.455  44.400   5.074
 6084W        W78399  22.652  21.520   0.732
 6085W        W78400  14.237  17.549  12.777
 6086W        W78401  14.733   6.713   0.951
 6087W        W78402  22.224  31.941   4.845
 6088W        W78403   0.339  11.783   5.491
 6089W        W78404  38.918  30.670   0.446
 6090W        W78405  26.852  37.003   0.191
 6091W        W78406  34.577  28.849   0.364
 6092W        W78407  18.580  23.990   3.202
 6093W        W78408  23.426  35.899  13.559
 6094W        W78409  18.017   8.577   0.942
 6095W        W78410  37.206  10.855  13.458
 6096W        W78411  13.304  20.015   4.528
 6097W        W78412   9.620  32.602  12.006
 6098W        W78413  12.351  14.086   5.117
 6099W        W78414  30.980  29.459   0.836
 6100W        W78415  39.437  43.222  10.711
 6101W        W78416  20.114  31.117   3.912
 6102W        W78417  12.762  11.900  13.002
 6103W        W78418   4.185   5.819   0.517
 6104W        W78419  15.814  36.445  12.789
 6105W        W78420  37.987  34.370   2.355
 6106W        W78421  19.736  28.872  10.819
 6107W        W78422  38.546   4.866   2.207
 6108W        W78423  12.062  24.782  10.757
 6109W        W78424  16.704  12.620  14.054
 6110W        W78425   9.151  18.220   2.450
 6111W        W78426  29.101  19.618  13.988
 6112W        W78427   6.330   6.717   3.814
 6113W        W78428  27.417  28.730   2.686
 6114W        W78429  10.344  10.737   1.085
 6115W        W78430   6.243   6.128  10.515
 6116W        W78431  15.672  22.642  12.172
 6117W        W78432  20.889  42.273   4.220
 6118W        W78433   9.866  41.607  13.003
 6119W        W78434  34.468  15.622   0.415
 6120W        W78435   3.470  30.710   0.874
 6121W        W78436  15.594  16.125  14.400
 6122W        W78437  30.934   8.429  11.239
 6123W        W78438   9.741   3.149  12.630
 6124W        W78439  13.548  10.312  12.077
 6125W        W78440   1.240  20.777   4.759
 6126W        W78441  15.708  13.130   4.097
 6127W        W78442  28.322  35.938  12.048
 6128W        W78443  27.530  31.106   2.707
 6129W        W78444  18.122  39.930   3.154
 6130W        W78445  35.416   4.445  11.658
 6131W        W78446  10.746  29.209   4.192
 6132W        W78447  17.202   8.084  12.327
 6133W        W78448   4.409  39.417  14.564
 6134W        W78449  16.828  33.001   0.173
 6135W        W78450  38.429   5.770   2.831
 6136W        W78451  18.657   5.221   2.757
 6137W        W78452  19.183  21.228  12.400
 6138W        W78453  23.957   9.688   0.739
 6139W        W78454  21.890  18.022  12.656
 6140W        W78455  34.370   3.473  12.740
 6141W        W78456  42.768  35.951   1.183
 6142W        W78457  14.180   5.170   2.306
 6143W        W78458   7.321  28.453  14.739
 6144W        W78459   8.266  36.532   2.809
 6145W        W78460  42.404  41.552   3.255
 6146W        W78461  38.815  24.120  13.998
 6147W        W78462  15.397  22.784   4.133
 6148W        W78463  44.316  11.354   1.332
 6149W        W78464  27.064  23.481  12.923
 6150W        W78465  31.948  31.129  11.137
 6151W        W78466  17.057   4.325   1.275
 6152W        W78467   1.975  27.044   0.892
 6153W        W78468  20.327  43.977   1.648
 6154W        W78469  44.968  14.769  12.628
 6155W        W78470  25.713  37.067   1.327
 6156W        W78471  18.709  16.636   4.169
 6157W        W78472   8.898   8.642  11.387
 6158W        W78473  18.059  37.547  13.038
 6159W        W78474  41.973  11.363  13.506
 6160W        W78475  12.546  10.663  14.416
 6161W        W78476  39.864   3.281  14.910
 6162W        W78477  21.391   1.969  14.495
 6163W        W78478  44.849   5.267  11.095
 6164W        W78479  15.807  36.403   0.859
 6165W        W78480  29.090  42.661  11.078
 6166W        W78481   9.136  35.476  10.392
 6167W        W78482  10.629  31.832  12.036
 6168W        W78483  30.701   9.453   4.545
 6169W        W78484  12.311   4.560  14.875
 6170W        W78485  10.873  27.645  14.059
 6171W        W78486  32.436   4.421  11.530
 6172W        W78487  38.456  37.511  11.975
 6173W        W78488  27.934  12.860  13.538
 6174W        W78489   1.861  14.349   0.200
 6175W        W78490  16.320   7.961   3.702
 6176W        W78491  28.927  42.855   4.136
 6177W        W78492  23.267  41.958  10.844
 6178W        W78493  11.197  35.651  12.037
 6179W        W78494  15.334  20.560   2.445
 6180W        W78495  12.441  38.143  14.025
 6181W        W78496  10.432   3.035  13.031
 6182W        W78497  20.478  33.569  10.698
 6183W        W78498   7.781  18.319  10.598
 6184W        W78499  28.067  36.455  11.210
 6185W        W78500  26.142  12.550   3.567
 6186W        W78501   7.143  15.114  10.577
 6187W        W78502  35.090   0.320  13.972
 6188W        W78503   4.960  24.059   2.655
 6189W        W78504  10.314  16.578   4.575
 6190W        W78505  24.134  23.699  10.740
 6191W        W78506  41.474  38.990   2.253
 6192W        W78507  17.859  19.813   1.686
 6193W        W78508  14.055  16.774   3.077
 6194W        W78509  26.496  30.265   2.758
 6195W        W78510  42.999   2.677   2.830
 6196W        W78511  39.877  14.320   0.542
 6197W        W78512  38.130  11.707  13.020
 6198W        W78513   6.610   9.088   1.066
 6199W        W78514  38.773  11.333   3.861
 6200W        W78515  17.982   0.752   3.672
 6201W        W78516  15.726   8.602   2.827
 6202W        W78517  24.264   8.972   3.518
 6203W        W78518  32.665  36.442  11.689
 6204W        W78519  42.420  15.955   0.284
 6205W        W78520  11.169  18.053  11.547
 6206W        W78521  18.859  38.077  11.948
 6207W        W78522  19.839  21.200   4.575
 6208W        W78523   7.841  13.248  14.241
 6209W        W78524  44.966  33.032  13.528
 6210W        W78525  40.054  28.962   1.626
 6211W        W78526  13.773   2.252   0.333
 6212W        W78527  16.520  24.819  12.549
 6213W        W78528  42.201   8.188   0.854
 6214W        W78529  41.281  14.268  12.673
 6215W        W78530   2.719  24.133  12.315
 6216W        W78531  11.400   1.977  10.448
 6217W        W78532  38.351  17.516   0.182
 6218W        W78533  37.957  29.177  13.425
 6219W        W78534   8.266  14.253   1.816
 6220W        W78535  13.178  44.358   2.403
 6221W        W78536  39.038  24.995  12.913
 6222W        W78537  38.045  11.173   4.828
 6223W        W78538   0.038  37.053   2.736
 6224W        W78539  43.379  44.666  14.879
 6225W        W78540  33.337   5.787   3.271
 6226W        W78541  35.124   5.366  14.336
 6227W        W78542  25.609  11.650  14.304
 6228W        W78543   4.701  16.098  10.851
 6229W        W78544  13.773   5.263  14.787
 6230W        W78545  15.177   4.292   3.156
 6231W        W78546  40.963  41.458   2.373
 6232W        W78547  16.798  32.358  11.519
 6233W        W78548  21.343  40.445  13.424
 6234W        W78549  30.555  39.972   4.291
 6235W        W78550  27.760  19.255   0.896
 6236W        W78551  18.795  29.273  14.959
 6237W        W78552  27.211  29.360  11.982
 6238W        W78553  23.125  23.639  13.274
 6239W        W78554   6.924  30.502  12.098
 6240W        W78555  14.847  11.822   4.720
 6241W        W78556  29.527  39.676  11.285
 6242W        W78557  18.088   7.471  11.589
 6243W        W78558  21.639  40.607  13.860
 6244W        W78559  20.379  28.455  14.857
 6245W        W78560   8.430  31.106  11.572
 6246W        W78561  12.270  26.432   4.317
 6247W        W78562  37.490  37.263  12.556
 6248W        W78563   0.044  24.038  13.314
 6249W        W78564  10.580   8.882   1.000
 6250W        W78565   8.357  33.804  14.991
 6251W        W78566  25.181  38.915  12.124
 6252W        W78567   2.637  26.814  10.754
 6253W        W78568  41.962  14.189  10.568
 6254W        W78569   9.864  20.936  14.094
 6255W        W78570  14.670  18.523  11.157
 6256W        W78571  36.100  19.222   3.078
 6257W        W78572   5.478   8.068  10.516
 6258W        W78573  11.599  34.620  11.070
 6259W        W78574  30.704  13.682  11.981
 6260W        W78575  12.633  14.504  10.375
 6261W        W78576  26.742  22.571  14.884
 6262W        W78577  20.944  10.417   2.488
 6263W        W78578  12.159  43.326   4.152
 6264W        W78579  17.836  29.430   3.426
 6265W        W78580   1.779   4.888   1.277
 6266W        W78581  15.718   4.155  13.478
 6267W        W78582   0.356  15.088  13.037
 6268W        W78583  14.255  15.547  12.382
 6269W        W78584  26.241  37.779  14.377
 6270W        W78585  43.095  26.425  10.437
 6271W        W78586  14.313   2.446   3.053
 6272W        W78587  29.095  41.400  14.004
 6273W        W78588  28.832  22.996   4.499
 6274W        W78589   4.502  42.797   4.214
 6275W        W78590  43.151   6.849   2.230
 6276W        W78591  24.260   5.139  12.064
 6277W        W78592  14.082   2.261   3.499
 6278W        W78593  18.464  18.200   4.700
 6279W        W78594  14.599  41.581  14.509
 6280W        W78595  19.131  34.549   3.182
 6281W        W78596  37.447  12.627   0.073
 6282W        W78597   6.862  27.853  11.151
 6283W        W78598  36.533  24.458  14.563
 6284W        W78599  19.330  22.437  13.960
 6285W        W78600  18.490  24.085  11.550
 6286W        W78601  30.940   1.280  14.589
 6287W        W78602  36.079  24.500  14.366
 6288W        W78603  33.051  33.145   1.773
 6289W        W78604  21.262  14.804  11.037
 6290W        W78605  14.232  27.935  11.905
 6291W        W78606   5.956  41.296  12.079
 6292W        W78607  43.027  20.999   4.159
 6293W        W78608   3.661  42.684   2.723
 6294W        W78609  19.773  34.406   2.753
 6295W        W78610   4.107  35.456  13.449
 6296W        W78611  42.880   7.628   3.910
 6297W        W78612  21.305  11.197   2.267
 6298W        W78613  26.117  30.696  11.922
 6299W        W78614  16.725   6.752  10.880
 6300W        W78615  14.896  43.468   4.839
 6301W        W78616  40.370  20.211  14.211
 6302W        W78617  44.461   4.818   9.901
 6303W        W78618  30.579  34.413   1.358
 6304W        W78619   4.246   6.316   1.903
 6305W        W78620  37.115  34.530   3.810
 6306W        W78621  28.640  31.982   5.353
 6307W        W78622   0.693  35.069   0.659
 6308W        W78623  24.122  28.930  10.779
 6309W        W78624  31.186  16.638  12.830
 6310W        W78625  34.316  31.828   5.108
 6311W        W78626  38.600   5.858  13.499
 6312W        W78627  23.327   6.211   3.311
 6313W        W78628  33.569  25.157  11.578
 6314W        W78629  38.010  19.663   0.925
 6315W        W78630  44.879  27.635   1.215
 6316W        W78631  26.999  31.460   4.687
 6317W        W78632  43.566  30.159   3.297
 6318W        W78633  17.836  29.500  11.714
 6319W        W78634  15.561  20.325   4.127
 6320W        W78635   6.501  31.033  13.809
 6321W        W78636  23.545  17.301   4.355
 6322W        W78637  15.365  19.549   3.669
 6323W        W78638  44.846  42.259   2.942
 6324W        W78639  24.245  32.298   0.293
 6325W        W78640  28.233  39.587  14.397
 6326W        W78641  31.153  17.647   4.427
 6327W        W78642  33.530  33.721   2.781
 6328W        W78643   0.761   5.873   1.239
 6329W        W78644  13.355  31.618  11.185
 6330W        W78645  24.752   1.349   4.775
 6331W        W78646  38.329  30.096   3.165
 6332W        W78647   7.062  34.027  14.662
 6333W        W78648   0.285   9.762   0.470
 6334W        W78649  15.650  12.535  13.959
 6335W        W78650  41.694  26.067  13.198
 6336W        W78651  10.900  12.635  10.650
 6337W        W78652  22.154  19.669  10.739
 6338W        W78653  16.132   7.774  11.219
 6339W        W78654  36.553  21.754   2.728
 6340W        W78655   3.462  43.805  12.506
 6341W        W78656   2.368  39.237   1.844
 6342W        W78657  28.249   2.811  10.271
 6343W        W78658  31.509   4.837   0.521
 6344W        W78659  32.269   7.809   1.182
 6345W        W78660  22.973  13.447  12.936
 6346W        W78661  29.406  34.447  13.823
 6347W        W78662   9.754  42.263  11.832
 6348W        W78663  16.345  15.559   2.694
 6349W        W78664  26.963  41.949  14.501
 6350W        W78665  18.629  14.661  13.568
 6351W        W78666  16.852  24.270  11.188
 6352W        W78667   0.670  27.158  14.727
 6353W        W78668  41.806  13.943   1.373
 6354W        W78669  18.625  38.553  13.220
 6355W        W78670   7.548  34.962   0.409
 6356W        W78671  41.889  23.760  12.965
 6357W        W78672  25.255  16.788   0.880
 6358W        W78673  17.917  23.693  11.134
 6359W        W78674  27.007  40.014   2.263
 6360W        W78675  30.259  19.073   1.704
 6361W        W78676  13.921  27.167   3.741
 6362W        W78677   9.245  21.005   4.465
 6363W        W78678  29.407  31.889   4.750
 6364W        W78679   6.734  39.913   0.849
 6365W        W78680  20.446  31.689   4.096
 6366W        W78681  30.677  15.182  10.630
 6367W        W78682  37.271  42.948   0.412
 6368W        W78683  27.215  42.462   0.450
 6369W        W78684  37.911  22.795  14.415
 6370W        W78685  35.097  35.632  14.301
 6371W        W78686  41.041   7.468   2.061
 6372W        W78687  39.828  42.876  10.806
 6373W        W78688  19.510  11.439   9.592
 6374W        W78689  16.352  17.749  14.443
 6375W        W78690  14.722  27.986   2.376
 6376W        W78691  31.635   8.141   0.612
 6377W        W78692  24.830  19.749  12.005
 6378W        W78693   8.747  12.822   2.547
 6379W        W78694   2.327  40.548  12.065
 6380W        W78695   7.297  13.772  10.652
 6381W        W78696   1.799  24.726   1.123
 6382W        W78697  14.081  12.992  14.342
 6383W        W78698  40.796  33.061   0.374
 6384W        W78699  34.765   4.360  12.391
 6385W        W78700   3.738   9.133  10.670
 6386W        W78701  22.300  22.769   1.081
 6387W        W78702  17.169  13.220  10.762
 6388W        W78703  32.501   5.413  13.579
 6389W        W78704  28.081   2.816   2.321
 6390W        W78705  34.000  18.121   4.658
 6391W        W78706  37.830   8.938   1.023
 6392W        W78707   4.005  13.274  12.064
 6393W        W78708   5.755  25.251   0.269
 6394W        W78709  20.965   9.774   1.835
 6395W        W78710  23.891   9.474  14.494
 6396W        W78711  44.548  20.501   0.252
 6397W        W78712  33.603  11.904   2.328
 6398W        W78713  10.668   0.821  10.709
 6399W        W78714   3.393  22.152   3.717
 6400W        W78715  34.908   4.210   2.665
 6401W        W78716  15.400  27.548   0.468
 6402W        W78717  38.023   3.264  12.223
 6403W        W78718  29.946  22.302  10.178
 6404W        W78719  14.681  35.227  13.406
 6405W        W78720  25.912   3.882   3.568
 6406W        W78721   6.704  42.484   1.475
 6407W        W78722  14.978  23.516   3.043
 6408W        W78723  35.939   4.909  10.587
 6409W        W78724   5.780  40.998  11.189
 6410W        W78725  25.595  38.823   2.452
 6411W        W78726  31.453  43.225   4.605
 6412W        W78727   1.985  38.989   3.247
 6413W        W78728   4.915  32.643  13.077
 6414W        W78729   2.937  28.603   0.338
 6415W        W78730  44.398  10.067  11.172
 6416W        W78731  22.946  34.379   0.213
 6417W        W78732  21.517  20.196  11.800
 6418W        W78733  23.213  37.396   4.094
 6419W        W78734  35.585  30.122  11.800
 6420W        W78735   1.993  17.697  13.799
 6421W        W78736  24.954  29.475   1.166
 6422W        W78737   9.454  29.208  12.486
 6423W        W78738  16.643  15.814  12.430
 6424W        W78739  26.922  15.599  10.622
 6425W        W78740   4.774   4.234  11.211
 6426W        W78741   5.309  43.889   1.332
 6427W        W78742  44.006  33.874  12.994
 6428W        W78743  36.826   6.296  13.586
 6429W        W78744  13.782  32.087   0.350
 6430W        W78745  12.074  21.946  10.977
 6431W        W78746  36.500  39.280  14.803
 6432W        W78747   1.943   2.222  13.627
 6433W        W78748   0.799  22.208  11.004
 6434W        W78749  14.127  34.534  14.388
 6435W        W78750  29.678  36.393  13.925
 6436W        W78751  11.702  37.077   1.682
 6437W        W78752  44.492  44.832   0.419
 6438W        W78753  12.124  12.854   4.895
 6439W        W78754  14.353  27.421  13.954
 6440W        W78755   3.811  32.595  13.498
 6441W        W78756  37.281  42.348  10.668
 6442W        W78757  27.462  29.988  10.637
 6443W        W78758   5.433   2.277  10.786
 6444W        W78759  43.773   3.368   2.195
 6445W        W78760  38.021   5.382   3.173
 6446W        W78761   5.286   4.985   1.895
 6447W        W78762  35.244  28.033  12.391
 6448W        W78763  19.770   6.305   3.373
 6449W        W78764  27.561  25.313  14.895
 6450W        W78765  35.064   8.394   3.743
 6451W        W78766  39.406   7.945   1.961
 6452W        W78767  15.652  11.755   4.978
 6453W        W78768  20.576   2.456  11.057
 6454W        W78769  18.237  40.700   0.905
 6455W        W78770  25.626  24.514   0.290
 6456W        W78771  41.052  26.455  10.397
 6457W        W78772  14.636  44.947  10.604
 6458W        W78773  22.257  21.793  10.156
 6459W        W78774  19.140  23.616  13.347
 6460W        W78775   5.136   9.591   1.312
 6461W        W78776  32.894  29.321   1.982
 6462W        W78777   1.262  37.367   3.110
 6463W        W78778  43.252  30.473   1.799
 6464W        W78779  16.338  17.852  13.012
 6465W        W78780   9.586  26.157   0.324
 6466W        W78781  42.971  38.520  10.752
 6467W        W78782  42.024  29.469  12.990
 6468W        W78783  21.057  18.270   0.684
 6469W        W78784  24.998   9.852  12.353
 6470W        W78785  11.367  18.207  11.092
 6471W        W78786   9.824   6.019  12.952
 6472W        W78787  19.652   1.884   0.288
 6473W        W78788  11.166  26.018   4.271
 6474W        W78789  36.572   8.136   0.278
 6475W        W78790  10.399  27.940   4.157
 6476W        W78791  21.782   5.239   4.880
 6477W        W78792  12.626   3.124  10.881
 6478W        W78793  12.772  23.293  13.312
 6479W        W78794  31.838  34.618   3.211
 6480W        W78795  23.116   2.965  14.912
 6481W        W78796  16.286  42.362  10.729
 6482W        W78797   6.415  39.550   2.332
 6483W        W78798  32.843  27.928   2.304
 6484W        W78799  31.017  16.863  14.900
 6485W        W78800  38.855  17.591  10.567
 6486W        W78801  12.261  26.164   4.795
 6487W        W78802  37.967  29.849   3.879
 6488W        W78803  39.422  39.680   2.128
 6489W        W78804   9.386  33.929  14.415
 6490W        W78805  17.369  27.919  11.001
 6491W        W78806  41.764  18.481   4.297
 6492W        W78807  25.191  10.694  14.019
 6493W        W78808  27.719  15.822   4.119
 6494W        W78809   0.908  17.116  14.911
 6495W        W78810   4.372  20.699  10.966
 6496W        W78811  16.299  28.041  12.067
 6497W        W78812  40.551  33.027  14.886
 6498W        W78813  31.645  26.014  14.729
 6499W        W78814   7.965  20.808   4.834
 6500W        W78815  31.921  23.743  11.630
 6501W        W78816  27.905  29.189   1.262
 6502W        W78817  25.039  31.566   1.139
 6503W        W78818  29.991  29.907   1.689
 6504W        W78819   6.416  40.507   0.639
 6505W        W78820  23.721  36.004   4.110
 6506W        W78821  36.896   3.893   1.636
 6507W        W78822  31.014  37.040   4.663
 6508W        W78823  11.708  21.628   1.755
 6509W        W78824  28.151  32.468  14.411
 6510W        W78825   9.296  18.045   3.414
 6511W        W78826  40.482  18.921   3.153
 6512W        W78827  15.657  17.676  12.498
 6513W        W78828   8.680   0.866  12.263
 6514W        W78829  28.569   6.120   4.111
 6515W        W78830  30.350  36.439   1.977
 6516W        W78831  28.988   6.433   2.383
 6517W        W78832  31.832  39.991  12.085
 6518W        W78833  40.988   7.138  10.731
 6519W        W78834   9.198  10.488  13.097
 6520W        W78835   1.897   8.669   0.090
 6521W        W78836  20.061  29.132   3.667
 6522W        W78837  29.373   7.500   3.414
 6523W        W78838  15.132  22.162  14.060
 6524W        W78839  26.052   4.152   1.817
 6525W        W78840   1.558   9.327   1.500
 6526W        W78841   5.429   9.362  13.748
 6527W        W78842  33.435  37.821   2.340
 6528W        W78843   7.476  21.022   4.752
 6529W        W78844  36.077   7.366  12.505
 6530W        W78845  25.431  20.489  13.027
 6531W        W78846  12.300  22.995  13.427
 6532W        W78847  36.972  18.660   2.254
 6533W        W78848  27.530  11.366   1.786
 6534W        W78849  40.331  18.827  11.224
 6535W        W78850  19.391  26.922  10.350
 6536W        W78851  15.653  41.572  10.320
 6537W        W78852   0.923  18.715  12.311
 6538W        W78853  26.570  28.043   0.330
 6539W        W78854  29.654  35.904  10.649
 6540W        W78855  14.484  25.848   4.165
 6541W        W78856  36.871  40.410   2.600
 6542W        W78857  27.175  37.868  12.565
 6543W        W78858  32.528  37.970   1.837
 6544W        W78859  24.633  10.700   4.053
 6545W        W78860  40.229   9.287  13.927
 6546W        W78861  44.524  38.426   4.133
 6547W        W78862  32.431  37.515  11.639
 6548W        W78863  25.935  11.360   2.393
 6549W        W78864  26.883  14.797   1.773
 6550W        W78865   9.344  14.862   2.151
 6551W        W78866  44.872  21.122  14.711
 6552W        W78867  29.377  35.048  10.774
 6553W        W78868  15.614   2.202  13.405
 6554W        W78869  17.359   7.358   4.497
 6555W        W78870  40.784  35.605   0.842
 6556W        W78871  39.960   1.523   4.357
 6557W        W78872   9.949   2.351   3.694
 6558W        W78873  40.509  23.445   3.354
 6559W        W78874  21.498  23.086   2.152
 6560W        W78875  30.650   9.049   4.190
 6561W        W78876  24.244  28.197   4.108
 6562W        W78877  32.128   8.181   0.820
 6563W        W78878  20.690  35.097  11.663
 6564W        W78879   7.812  14.267   2.079
 6565W        W78880  11.173   4.728   2.360
 6566W        W78881  21.848  36.362   1.369
 6567W        W78882  22.364  32.336   2.315
 6568W        W78883  24.205  10.740   4.347
 6569W        W78884   4.390  37.082  10.446
 6570W        W78885  28.519   5.321   0.388
 6571W        W78886  19.073  29.610  11.109
 6572W        W78887  34.460  44.880   2.116
 6573W        W78888  11.077  29.612   4.108
 6574W        W78889  10.267  11.304   3.367
 6575W        W78890  38.604  15.004   2.123
 6576W        W78891  22.275  40.160  10.884
 6577W        W78892   0.379  15.537   2.958
 6578W        W78893  22.702  15.559   1.192
 6579W        W78894   1.448  15.397   1.840
 6580W        W78895  43.334  14.331   1.298
 6581W        W78896   7.815   3.754   2.154
 6582W        W78897  29.501  43.713  12.908
 6583W        W78898  16.008  18.263  13.061
 6584W        W78899  16.927  44.893   1.493
 6585W        W78900  27.577   9.953   3.231
 6586W        W78901  31.926  33.422   3.722
 6587W        W78902  18.388  16.913  14.755
 6588W        W78903  37.796  38.009  13.121
 6589W        W78904  32.088  32.457   2.719
 6590W        W78905  11.243  29.246   1.951
 6591W        W78906   5.464   0.035   0.701
 6592W        W78907  16.388  40.627   1.364
 6593W        W78908  18.086   7.250  14.871
 6594W        W78909  14.835  18.215  13.919
 6595W        W78910  42.809   8.987   2.741
 6596W        W78911  16.862  18.453   0.335
 6597W        W78912  13.659  41.811  14.507
 6598W        W78913  16.655  19.011   3.735
 6599W        W78914   0.031   9.469  14.096
 6600W        W78915  40.928  38.078  13.884
 6601W        W78916  19.743   9.515  12.912
 6602W        W78917  30.125  13.139  12.461
 6603W        W78918  43.223  32.655   0.459
 6604W        W78919  17.555  23.702  11.667
 6605W        W78920   5.957  36.398   3.595
 6606W        W78921  33.815  32.322   0.841
 6607W        W78922  43.763   2.026  13.024
 6608W        W78923  17.212  24.453  10.581
 6609W        W78924  35.750   7.732  12.378
 6610W        W78925  34.098  44.327  14.981
 6611W        W78926   5.239  30.260   3.328
 6612W        W78927  18.346  30.392   0.089
 6613W        W78928   4.621  17.284  14.386
 6614W        W78929  34.427  35.392   1.396
 6615W        W78930  37.330  42.582  13.577
 6616W        W78931  33.076   2.342  14.613
 6617W        W78932  14.727  14.277   1.794
 6618W        W78933  21.493   7.865  12.892
 6619W        W78934  33.978  31.140   4.099
 6620W        W78935  18.653  19.740   2.523
 6621W        W78936  29.186  30.194  12.939
 6622W        W78937  14.330   5.468  12.199
 6623W        W78938  11.174  30.592   3.268
 6624W        W78939   5.236  19.741  11.238
 6625W        W78940  20.721  16.719   2.425
 6626W        W78941  38.136  15.122  12.687
 6627W        W78942  11.042   2.943   4.082
 6628W        W78943  17.824  35.364  13.818
 6629W        W78944  14.613  18.348  14.383
 6630W        W78945  23.927  30.336  11.070
 6631W        W78946  13.336  13.943   1.520
 6632W        W78947  26.066  23.239  14.513
 6633W        W78948  34.174   9.882   4.898
 6634W        W78949  15.798  39.343  14.104
 6635W        W78950   2.688  37.391   2.234
 6636W        W78951   0.895  31.542   1.179
 6637W        W78952  25.003  21.135  12.557
 6638W        W78953   8.392  37.626   2.227
 6639W        W78954  24.452  33.010   4.310
 6640W        W78955  20.846  22.653   4.376
 6641W        W78956  24.072  11.746  13.662
 6642W        W78957  33.219   2.633  13.030
 6643W        W78958  10.233  34.104  14.830
 6644W        W78959  28.001  16.697  14.408
 6645W        W78960   7.642   1.966  13.442
 6646W        W78961  41.730  33.391   0.980
 6647W        W78962  19.074  18.147  12.071
 6648W        W78963   1.934  21.158  14.794
 6649W        W78964  34.284  31.936   4.135
 6650W        W78965   7.871  42.873   0.389
 6651W        W78966  19.494   3.404  14.817
 6652W        W78967  44.242  37.118  13.021
 6653W        W78968  40.483  30.073  11.646
 6654W        W78969  25.035  24.017   3.624
 6655W        W78970  34.789  30.535   4.982
 6656W        W78971  31.893  35.512  14.439
 6657W        W78972  32.435   7.822   1.684
 6658W        W78973  37.070  40.510  12.909
 6659W        W78974  32.123  43.261  14.925
 6660W        W78975  36.013  37.112   5.132
 6661W        W78976  14.322   8.386   1.324
 6662W        W78977  17.602  17.069   1.543
 6663W        W78978   8.111  44.337   1.832
 6664W        W78979   1.936   0.093  12.002
 6665W        W78980  34.662  19.435   0.847
 6666W        W78981  37.841  42.920  14.950
 6667W        W78982  10.396   6.461   4.335
 6668W        W78983  23.498  44.867   0.356
 6669W        W78984  39.460  19.663  14.294
 6670W        W78985   6.478  40.606  11.074
 6671W        W78986  27.855  25.218  13.469
 6672W        W78987  36.249  41.684   5.053
 6673W        W78988  25.155  43.346  10.859
 6674W        W78989  21.157   4.281  11.768
 6675W        W78990  19.255  15.553  13.128
 6676W        W78991  10.290  32.542  14.316
 6677W        W78992  14.163  21.136   3.535
 6678W        W78993   7.389  19.192   1.166
 6679W        W78994  21.374  17.145  13.508
 6680W        W78995   4.324  33.505   4.668
 6681W        W78996  17.279  36.519  12.937
 6682W        W78997  27.377   1.645   2.564
 6683W        W78998  38.183  19.486   0.476
 6684W        W78999   3.263   4.106   4.622
 6685W        W79000  43.449   4.497  12.035
 6686W        W79001   3.085  19.185  14.030
 6687W        W79002  14.290  15.793   2.691
 6688W        W79003  22.089  24.454  11.745
 6689W        W79004  26.860   6.360  11.966
 6690W        W79005  16.666  13.792   4.537
 6691W        W79006  20.630   1.466   0.878
 6692W        W79007  29.080  31.020   0.455
 6693W        W79008  17.823   9.956   2.762
 6694W        W79009  19.048  13.776  13.877
 6695W        W79010  26.107  16.827  12.850
 6696W        W79011  21.020  33.405   3.841
 6697W        W79012  21.845  12.720  13.004
 6698W        W79013  22.670  15.328   3.159
 6699W        W79014  36.225  39.895   0.363
 6700W        W79015   0.339  14.529  14.906
 6701W        W79016  17.014  15.527  13.163
 6702W        W79017  41.951   3.313   0.821
 6703W        W79018  34.875  40.251  14.547
 6704W        W79019  41.301  28.432  14.990
 6705W        W79020  11.782   5.176   9.892
 6706W        W79021  42.748  37.972  14.998
 6707W        W79022   4.336  13.727   1.568
 6708W        W79023  36.137  18.569  11.972
 6709W        W79024  38.549  25.395  14.091
 6710W        W79025  35.188   1.770  13.071
 6711W        W79026  28.543  20.569   4.360
 6712W        W79027  43.192  41.802  11.045
 6713W        W79028  21.819  41.041   4.199
 6714W        W79029  25.476   2.847  11.964
 6715W        W79030  34.831  24.560  14.000
 6716W        W79031  19.766  33.365   4.577
 6717W        W79032  23.340  20.382  14.822
 6718W        W79033  27.614  31.210  12.485
 6719W        W79034   4.848  39.217  12.804
 6720W        W79035  20.900  36.428  14.331
 6721W        W79036  13.299   1.053   3.733
 6722W        W79037  44.358  20.729   1.846
 6723W        W79038  27.197  33.961  13.365
 6724W        W79039  34.886  38.561  11.341
 6725W        W79040   3.791  25.263   3.064
 6726W        W79041  13.198   1.809  14.092
 6727W        W79042  11.400   3.310   3.233
 6728W        W79043   4.206  39.527   3.693
 6729W        W79044  35.537  10.127  14.454
 6730W        W79045  15.840   6.731  13.513
 6731W        W79046  40.101  24.279  12.652
 6732W        W79047   7.801  26.696  11.256
 6733W        W79048  12.573  29.557   4.105
 6734W        W79049  25.162  23.293  14.365
 6735W        W79050  14.650  35.371  12.490
 6736W        W79051   6.864  23.689  11.428
 6737W        W79052  16.681   6.324  13.400
 6738W        W79053  16.904  17.660   0.964
 6739W        W79054  44.066  10.878   3.281
 6740W        W79055  28.333  32.333   1.814
 6741W        W79056  26.964   4.991   2.313
 6742W        W79057  44.442  41.855   4.073
 6743W        W79058  11.888   6.458   4.233
 6744W        W79059  10.158  34.424   1.413
 6745W        W79060   5.426   0.281  13.495
 6746W        W79061  37.972  18.612   2.327
 6747W        W79062  17.738  23.250   1.313
 6748W        W79063   1.466  24.440   0.793
 6749W        W79064   8.284  31.609   3.284
 6750W        W79065  36.679  44.308  11.544
 6751W        W79066   3.308  32.086  13.909
 6752W        W79067   6.403  24.050   4.570
 6753W        W79068  30.266  12.992   4.128
 6754W        W79069  16.904  42.013   3.315
 6755W        W79070  13.098  25.635  10.668
 6756W        W79071   9.682  15.591   1.199
 6757W        W79072  24.480  40.446  14.041
 6758W        W79073  31.438  12.052  12.534
 6759W        W79074  21.486  31.205  12.007
 6760W        W79075   3.608  28.905  13.483
 6761W        W79076  37.366  35.973  11.597
 6762W        W79077  14.828   2.516   3.803
 6763W        W79078  32.573   4.823  10.212
 6764W        W79079   9.562  43.486   1.224
 6765W        W79080   1.473  34.085  11.683
 6766W        W79081   5.706  17.289   4.702
 6767W        W79082  37.392  43.716   4.167
 6768W        W79083  17.686   2.750   1.770
 6769W        W79084  15.808  11.301   3.209
 6770W        W79085  20.329  30.377  14.770
 6771W        W79086  15.729  23.454   2.790
 6772W        W79087   9.172  32.543   4.068
 6773W        W79088   8.394   1.985  10.961
 6774W        W79089  30.730  27.614   1.736
 6775W        W79090  34.642  11.658   1.435
 6776W        W79091  36.865  31.905  11.529
 6777W        W79092  31.943  27.170  12.677
 6778W        W79093   9.875  22.480  13.713
 6779W        W79094  38.029  25.485   1.953
 6780W        W79095  39.483  36.995   4.267
 6781W        W79096  32.858  25.154  14.287
 6782W        W79097  18.141  43.596  14.999
 6783W        W79098  18.369   3.388   2.622
 6784W        W79099  27.042  27.611   0.953
 6785W        W79100  36.921  17.259  13.636
 6786W        W79101  16.757   1.522   3.294
 6787W        W79102   0.413   3.104  11.628
 6788W        W79103  29.440  19.708   2.833
 6789W        W79104  24.422  14.241   1.272
 6790W        W79105  42.622  33.964   2.886
 6791W        W79106  25.515  33.838  12.147
 6792W        W79107  27.556  18.034   4.641
 6793W        W79108  15.063  40.594  13.866
 6794W        W79109  29.907   3.547   0.796
 6795W        W79110  32.162  42.463   0.695
 6796W        W79111  44.746  25.995   1.911
 6797W        W79112  37.266  39.934  13.833
 6798W        W79113   1.465   2.845   3.872
 6799W        W79114  35.894  35.068  10.465
 6800W        W79115   6.611  28.112  13.038
 6801W        W79116  24.253   0.760  12.981
 6802W        W79117   9.382  44.386   9.801
 6803W        W79118  11.205  17.575   2.704
 6804W        W79119  24.007   3.387  14.875
 6805W        W79120  31.114   2.411   1.861
 6806W        W79121   6.954  17.586   0.720
 6807W        W79122   9.586  27.057   4.302
 6808W        W79123   0.236   2.015   0.960
 6809W        W79124   4.354  34.913   1.841
 6810W        W79125   1.267  37.909   1.959
 6811W        W79126  38.173   6.720   0.441
 6812W        W79127  15.286   1.483  14.028
 6813W        W79128  25.270  37.932  10.966
 6814W        W79129  40.770  44.783  12.912
 6815W        W79130   9.351   1.479   1.540
 6816W        W79131  26.490  11.531  11.521
 6817W        W79132  43.287   3.163  12.438
 6818W        W79133  22.523   6.700  11.083
 6819W        W79134  38.525  42.537   4.022
 6820W        W79135  24.283  33.725  13.355
 6821W        W79136  35.060  26.567   4.508
 6822W        W79137  29.033  33.599  13.295
 6823W        W79138  13.320  37.606  10.663
 6824W        W79139  31.973  29.058   2.106
 6825W        W79140  11.620  13.542   2.896
 6826W        W79141  38.985  42.970  12.383
 6827W        W79142   6.218  43.207   1.600
 6828W        W79143  11.359  33.057  12.209
 6829W        W79144   5.954  15.087   0.954
 6830W        W79145  25.568  10.572   2.447
 6831W        W79146  39.344  14.228   4.714
 6832W        W79147  12.482  25.162  14.605
 6833W        W79148  41.284  25.923   4.649
 6834W        W79149  20.222   4.797   0.916
 6835W        W79150  28.681  31.691  11.592
 6836W        W79151  21.544  19.525   1.258
 6837W        W79152   3.916  29.585  13.060
 6838W        W79153  43.049  39.374   4.946
 6839W        W79154  22.801  18.471   0.004
 6840W        W79155  31.619  30.658  14.306
 6841W        W79156  11.776   8.325  12.569
 6842W        W79157  20.203  37.456  13.056
 6843W        W79158   0.052  26.261  11.617
 6844W        W79159  29.669  22.734  13.825
 6845W        W79160   0.394  23.659   2.379
 6846W        W79161  35.576  14.920  11.173
 6847W        W79162  36.917  25.316   5.140
 6848W        W79163  37.877  15.141   1.173
 6849W        W79164  20.523   6.865  11.670
 6850W        W79165   0.701  14.242   3.580
 6851W        W79166  35.488  20.504  12.358
 6852W        W79167   7.304   0.850  11.586
 6853W        W79168   5.226  26.642  11.955
 6854W        W79169  11.732   5.255   0.919
 6855W        W79170  24.234   7.866   2.468
 6856W        W79171   0.237  42.838  13.355
 6857W        W79172  27.589  10.498   1.493
 6858W        W79173   7.414   8.918  13.900
 6859W        W79174  42.846  44.870   3.123
 6860W        W79175  21.828   0.366  14.006
 6861W        W79176  33.872  41.083   2.223
 6862W        W79177  12.232  41.804   2.736
 6863W        W79178  20.032   5.436   2.191
 6864W        W79179  24.163   2.822   2.598
 6865W        W79180   4.814  16.503  11.142
 6866W        W79181  40.839  34.422  13.249
 6867W        W79182  18.549  40.130  11.113
 6868W        W79183  34.629  11.188   1.768
 6869W        W79184  28.074  27.520  14.318
 6870W        W79185  43.237  17.307   3.103
 6871W        W79186  29.685  40.135  11.492
 6872W        W79187  33.877   4.764  13.129
 6873W        W79188  41.813  31.510   1.821
 6874W        W79189  35.818  23.050   4.722
 6875W        W79190  33.627  35.885  12.471
 6876W        W79191  11.680  26.497  11.093
 6877W        W79192   7.735  34.394  13.398
 6878W        W79193   4.841  34.488   2.717
 6879W        W79194  28.432   8.849  14.855
 6880W        W79195   4.421  32.548   3.884
 6881W        W79196  38.314  31.561  12.064
 6882W        W79197  40.224  44.822  11.552
 6883W        W79198  20.320  10.757  14.290
 6884W        W79199  16.793   2.042   3.286
 6885W        W79200  37.827  33.519   4.405
 6886W        W79201  19.590  13.514  11.119
 6887W        W79202  26.152  44.321   0.298
 6888W        W79203  21.151  41.934  12.442
 6889W        W79204  25.232  15.197   3.328
 6890W        W79205  27.096  30.730   4.912
 6891W        W79206  24.261  42.498   4.649
 6892W        W79207   0.438  16.015  14.787
 6893W        W79208  34.970   4.150  11.383
 6894W        W79209   7.779  21.318   2.579
 6895W        W79210  21.512  42.299  14.520
 6896W        W79211  16.856  39.570  10.280
 6897W        W79212  34.834  27.145   0.906
 6898W        W79213  28.040   8.488  12.595
 6899W        W79214  15.780   0.264   4.791
 6900W        W79215   0.806  18.118   5.016
 6901W        W79216  41.347  30.999  13.222
 6902W        W79217  44.548  11.376  12.898
 6903W        W79218  13.071  23.088   1.035
 6904W        W79219  20.458   2.935   2.228
 6905W        W79220  36.006  39.601  13.035
 6906W        W79221   6.656  43.347   3.413
 6907W        W79222  39.013  29.628   4.074
 6908W        W79223  25.009   1.735   4.459
 6909W        W79224  17.071  36.879  10.742
 6910W        W79225  11.512  24.702  11.609
 6911W        W79226  39.480  27.469   2.649
 6912W        W79227   8.878  19.230   4.373
 6913W        W79228  26.030  38.266  14.339
 6914W        W79229  40.253  15.390  14.449
 6915W        W79230  18.439  35.635   1.214
 6916W        W79231  38.861  40.327  12.589
 6917W        W79232  12.297  16.614   2.735
 6918W        W79233  30.508  32.629   2.877
 6919W        W79234   5.548  33.564  14.637
 6920W        W79235  40.873   8.859  11.681
 6921W        W79236  11.782  12.409  11.540
 6922W        W79237  18.200  38.007  11.132
 6923W        W79238  17.110  28.706   1.332
 6924W        W79239  28.275  34.519   4.961
 6925W        W79240  33.908   7.655   0.027
 6926W        W79241  33.048  10.203  11.054
 6927W        W79242  34.202   8.744   4.045
 6928W        W79243   5.457  39.345   2.277
 6929W        W79244   1.762  22.652   4.114
 6930W        W79245   2.771   8.996  11.235
 6931W        W79246  21.197  40.597  12.150
 6932W        W79247  18.650  33.658   2.125
 6933W        W79248  10.947  39.211   2.605
 6934W        W79249  16.854   1.989  11.628
 6935W        W79250   2.355  35.983   3.599
 6936W        W79251   0.219  34.336   4.713
 6937W        W79252   3.237  44.364   1.893
 6938W        W79253   9.149   3.265  13.797
 6939W        W79254  24.294  25.628   1.809
 6940W        W79255  33.670  21.009  10.895
 6941W        W79256   4.266  30.003  10.899
 6942W        W79257  28.492  38.324   2.732
 6943W        W79258   7.800  23.665   1.292
 6944W        W79259  40.928  30.017  12.461
 6945W        W79260  25.553  26.707   3.678
 6946W        W79261   5.120  23.141  13.521
 6947W        W79262   6.085  16.210   0.798
 6948W        W79263  12.872  15.601  12.650
 6949W        W79264  29.250  26.564   4.671
 6950W        W79265  39.906  21.254   3.152
 6951W        W79266  42.645   1.744   0.764
 6952W        W79267   4.287  10.096   3.854
 6953W        W79268   2.849  23.613   0.689
 6954W        W79269  39.461  18.710  12.512
 6955W        W79270  32.345   5.865  11.503
 6956W        W79271  10.841  14.209   1.823
 6957W        W79272  23.463   4.345   0.020
 6958W        W79273  43.698  30.472  12.599
 6959W        W79274  17.459  16.332  12.938
 6960W        W79275  22.270  18.558   4.073
 6961W        W79276  41.355  13.396  11.646
 6962W        W79277  19.378  19.789   0.821
 6963W        W79278  39.587  13.825  14.874
 6964W        W79279  42.855  13.926  12.389
 6965W        W79280  29.937  43.493  10.678
 6966W        W79281   8.273   3.330   3.866
 6967W        W79282  39.699  42.928   0.259
 6968W        W79283  21.989   4.192  11.179
 6969W        W79284  25.417   7.131  11.388
 6970W        W79285   0.257  20.501   3.494
 6971W        W79286  39.464  44.860  11.142
 6972W        W79287  41.393  18.078  13.979
 6973W        W79288  10.768  39.032   4.167
 6974W        W79289   0.021  35.160   4.676
 6975W        W79290   2.431  22.277  10.715
 6976W        W79291  18.698  23.910   0.821
 6977W        W79292  39.488  21.691  12.148
 6978W        W79293  44.980  38.467  13.913
 6979W        W79294  15.344   1.867  11.580
 6980W        W79295  21.849   7.839  14.774
 6981W        W79296  30.643  30.537  11.891
 6982W        W79297   6.151  25.112   1.076
 6983W        W79298  15.323  34.860   1.886
 6984W        W79299  24.474  17.619  13.373
 6985W        W79300  14.520  38.082   3.198
 6986W        W79301  14.587  34.945  12.217
 6987W        W79302  19.066  11.291   0.266
 6988W        W79303  43.972  33.478   1.516
 6989W        W79304  44.810  29.244  13.860
 6990W        W79305  29.034  30.546   0.193
 6991W        W79306  29.624  37.803   1.645
 6992W        W79307  29.364  31.515  13.551
 6993W        W79308  43.330  16.110  13.462
 6994W        W79309  33.377  23.535   2.284
 6995W        W79310  43.726  17.543   3.779
 6996W        W79311   8.434   1.730  14.977
 6997W        W79312  39.008  26.585  13.094
 6998W        W79313   2.918   5.960  13.456
 6999W        W79314  25.816   4.363   9.825
 7000W        W79315  17.375  39.092   3.959
 7001W        W79316  33.782  44.338   3.668
 7002W        W79317  14.680  20.857   0.977
 7003W        W79318  14.272  35.346   2.289
 7004W        W79319  39.892  13.315  11.142
 7005W        W79320  39.860  33.965  12.616
 7006W        W79321   5.387  36.460  13.816
 7007W        W79322  27.173   1.926  12.796
 7008W        W79323   3.228   8.585  14.873
 7009W        W79324   2.315  37.693   3.630
 7010W        W79325  29.744  35.766  13.651
 7011W        W79326   2.288   9.093  13.946
 7012W        W79327   4.265   3.871  13.178
 7013W        W79328   8.185  28.535  11.004
 7014W        W79329  20.386  36.384  14.077
 7015W        W79330  38.714   9.246  13.836
 7016W        W79331  13.814  21.805  12.018
 7017W        W79332  25.101  22.747  14.351
 7018W        W79333  28.195  34.988   1.984
 7019W        W79334  44.964  13.130   2.862
 7020W        W79335   7.152  32.866  12.154
 7021W        W79336   8.451  30.288   2.665
 7022W        W79337  35.468  40.331  10.748
 7023W        W79338  28.165   4.852  11.971
 7024W        W79339   7.121  29.269  13.643
 7025W        W79340  10.343  19.339   5.394
 7026W        W79341  14.783  41.717  11.123
 7027W        W79342  36.924   7.784   4.490
 7028W        W79343   8.976   2.247   3.583
 7029W        W79344  20.597   4.370   3.852
 7030W        W79345   0.876  22.671   0.314
 7031W        W79346  35.621  18.597  14.849
 7032W        W79347   1.992  22.096   0.427
 7033W        W79348  12.800  16.965  12.455
 7034W        W79349   6.122  41.873   3.533
 7035W        W79350  38.848  43.736   2.404
 7036W        W79351  23.971  40.737  12.998
 7037W        W79352  35.295  30.107  13.518
 7038W        W79353  40.782  24.940  10.256
 7039W        W79354  30.473  37.686   4.260
 7040W        W79355  31.200  23.267  12.352
 7041W        W79356  26.750  35.587  11.524
 7042W        W79357  29.769  31.899  14.953
 7043W        W79358  44.822   5.176   1.312
 7044W        W79359   5.460  18.819   2.755
 7045W        W79360  29.620  15.520  11.098
 7046W        W79361  33.415   6.272  12.448
 7047W        W79362   3.062  26.997   1.870
 7048W        W79363  10.277  13.845  12.089
 7049W        W79364  43.576  34.652  12.687
 7050W        W79365   9.254  41.894   0.726
 7051W        W79366  41.769  38.508   0.939
 7052W        W79367  25.749  14.485  14.480
 7053W        W79368  18.218   2.021  13.762
 7054W        W79369   1.880   1.091  12.001
 7055W        W79370  27.076  16.803   3.140
 7056W        W79371  30.960  22.800  12.491
 7057W        W79372  44.928  28.639  11.552
 7058W        W79373  18.178   3.522  12.896
 7059W        W79374  31.582   3.847   0.154
 7060W        W79375  24.149  36.306   4.103
 7061W        W79376  36.072  42.681   1.649
 7062W        W79377  42.510  16.688  10.700
 7063W        W79378  17.829   8.918  12.674
 7064W        W79379  29.104   0.525   1.901
 7065W        W79380  29.909  26.902  14.069
 7066W        W79381   9.376  28.195   1.262
 7067W        W79382   0.853  35.764   4.247
 7068W        W79383  32.512   5.207   1.649
 7069W        W79384  39.038  35.236   0.390
 7070W        W79385   6.033  13.826  14.759
 7071W        W79386  20.288   0.778  11.114
 7072W        W79387  33.798  14.559   4.116
 7073W        W79388  36.104  39.515   4.482
 7074W        W79389  42.598  43.745  12.389
 7075W        W79390   0.769  29.585   4.591
 7076W        W79391  22.583  32.087  10.086
 7077W        W79392  37.433  23.525   4.805
 7078W        W79393  39.431  21.637  11.273
 7079W        W79394  43.956  21.137  11.988
 7080W        W79395  15.556  31.411   1.512
 7081W        W79396  43.472  24.511   2.622
 7082W        W79397  43.558  20.498   4.653
 7083W        W79398   6.789   7.280   3.509
 7084W        W79399  39.050  16.151  10.391
 7085W        W79400  21.261  13.843  11.126
 7086W        W79401  17.237  33.390   3.869
 7087W        W79402  35.255  41.214   0.871
 7088W        W79403   3.365  17.871  12.071
 7089W        W79404   5.575  17.906  13.879
 7090W        W79405  34.028  40.166   4.513
 7091W        W79406  22.625  26.137  12.252
 7092W        W79407  19.802  38.563  13.517
 7093W        W79408  15.679  39.624   4.138
 7094W        W79409  18.767  24.498   2.284
 7095W        W79410  43.965   2.989  11.490
 7096W        W79411  39.182  43.453   2.116
 7097W        W79412  21.900  34.620   3.868
 7098W        W79413  43.956  27.868   0.763
 7099W        W79414  23.107  38.854   0.836
 7100W        W79415  36.102   0.975  12.517
 7101W        W79416  11.299  16.094  14.700
 7102W        W79417  24.043   0.257   2.405
 7103W        W79418  10.041   3.823  13.590
 7104W        W79419  31.654  36.562  10.791
 7105W        W79420  43.801  17.031  10.667
 7106W        W79421  14.761  23.964   2.829
 7107W        W79422   5.037  25.196   3.182
 7108W        W79423  34.020  32.958  13.912
 7109W        W79424  40.760   9.243  13.895
 7110W        W79425  29.714  23.372  10.758
 7111W        W79426   9.692   8.289   2.264
 7112W        W79427  44.814  12.290   1.319
 7113W        W79428   2.935  26.495   2.228
 7114W        W79429   6.809   4.667  13.373
 7115W        W79430   2.396  28.943  13.864
 7116W        W79431  37.247   0.323   1.114
 7117W        W79432   5.803  43.853   1.202
 7118W        W79433   4.029  16.695  11.489
 7119W        W79434  38.104  39.085  10.241
 7120W        W79435   3.826  32.104  14.073
 7121W        W79436  16.723  39.020   1.911
 7122W        W79437  10.605  44.881  14.831
 7123W        W79438  13.158  14.375   1.288
 7124W        W79439  39.862  16.881   1.838
 7125W        W79440  38.574   9.715  11.085
 7126W        W79441  15.741   1.963   4.195
 7127W        W79442  18.317  16.404  14.800
 7128W        W79443  41.543  19.251   2.390
 7129W        W79444  40.075  17.325  11.989
 7130W        W79445  19.054  42.820   0.265
 7131W        W79446   2.368  14.573   4.761
 7132W        W79447   2.956  42.195  11.574
 7133W        W79448  24.015  16.723  12.135
 7134W        W79449  22.161  24.991  10.963
 7135W        W79450  29.428  24.954   1.897
 7136W        W79451  20.029  26.033  10.807
 7137W        W79452   3.836  26.619   0.053
 7138W        W79453  11.754   7.799  12.519
 7139W        W79454  31.039  17.884  14.800
 7140W        W79455   7.907  43.855   2.747
 7141W        W79456  26.437  36.034   4.113
 7142W        W79457  24.226  40.838   3.639
 7143W        W79458  35.054   5.866  14.545
 7144W        W79459  16.606  29.498   4.086
 7145W        W79460  18.641  11.869   9.802
 7146W        W79461   3.757  20.267  11.970
 7147W        W79462  31.325  26.145  11.677
 7148W        W79463  36.933  15.801   1.798
 7149W        W79464  40.994   0.556   1.806
 7150W        W79465  13.561  10.946   2.576
 7151W        W79466  31.651  39.833  11.590
 7152W        W79467  43.428  38.300  14.307
 7153W        W79468  44.290  35.968   0.085
 7154W        W79469  38.863   2.807  12.069
 7155W        W79470  40.804  20.976  13.868
 7156W        W79471  44.254  21.497  13.042
 7157W        W79472  14.579   8.897   3.274
 7158W        W79473  32.654  15.878  11.167
 7159W        W79474  27.054  11.619   1.737
 7160W        W79475  36.803   7.739  14.468
 7161W        W79476  11.217  10.336   1.454
 7162W        W79477  10.852  37.613  12.557
 7163W        W79478  25.106  44.733  12.857
 7164W        W79479   5.324  18.478   4.226
 7165W        W79480  44.375  31.913  11.760
 7166W        W79481  14.862  32.438  13.995
 7167W        W79482  38.333  32.404   2.756
 7168W        W79483   8.872  34.512  14.878
 7169W        W79484  17.344  21.531   1.547
 7170W        W79485  34.151  28.609  13.052
 7171W        W79486   6.343  19.076  12.903
 7172W        W79487  10.416  29.960  11.076
 7173W        W79488  16.593  12.143   0.377
 7174W        W79489  19.265  20.772  14.451
 7175W        W79490   9.131  44.923   3.990
 7176W        W79491  39.117  12.782  11.976
 7177W        W79492  34.252  36.804   0.893
 7178W        W79493  23.614  16.533  12.403
 7179W        W79494  14.637   5.373  13.387
 7180W        W79495   1.102  19.039  13.723
 7181W        W79496  34.045  26.044  12.877
 7182W        W79497  41.302  36.016   4.932
 7183W        W79498  18.482  41.760   0.249
 7184W        W79499  43.262   8.228   2.620
 7185W        W79500  38.371  44.733  10.643
 7186W        W79501   1.878  29.200  12.139
 7187W        W79502   2.852   6.938   3.338
 7188W        W79503   8.693  26.129   1.816
 7189W        W79504  32.749  39.565  13.156
 7190W        W79505  17.696  31.504   3.232
 7191W        W79506  32.069  29.557  14.377
 7192W        W79507  39.865  38.361   2.465
 7193W        W79508  21.792  10.217   3.381
 7194W        W79509  24.903   0.264   3.299
 7195W        W79510  23.600  37.353   0.943
 7196W        W79511  35.989   5.706  12.542
 7197W        W79512   1.470  39.557   2.632
 7198W        W79513  35.507   7.130  11.714
 7199W        W79514  42.082  24.902   3.775
 7200W        W79515  24.985  16.156   4.471
 7201W        W79516   4.753  28.232  14.322
 7202W        W79517  36.056   0.465  12.534
 7203W        W79518   0.712  25.964  12.352
 7204W        W79519  44.565   6.877  14.287
 7205W        W79520  27.815  10.702   0.103
 7206W        W79521   8.879  15.164   3.312
 7207W        W79522  11.131   0.644   0.456
 7208W        W79523  17.369   4.822  14.386
 7209W        W79524  33.819   4.476  14.884
 7210W        W79525  25.139  16.785  13.403
 7211W        W79526  25.066  40.823   2.369
 7212W        W79527  23.503  16.722   2.717
 7213W        W79528  27.138  17.512  11.631
 7214W        W79529  34.047  25.152  14.871
 7215W        W79530  29.920   2.246   2.209
 7216W        W79531  19.976  10.118  13.073
 7217W        W79532   5.339   4.814  12.812
 7218W        W79533   6.892   9.656   3.763
 7219W        W79534  34.668  26.708  12.417
 7220W        W79535  35.640   7.758   1.008
 7221W        W79536  37.449  31.676  14.896
 7222W        W79537  42.223   7.635  13.680
 7223W        W79538  29.000  25.628   3.823
 7224W        W79539  31.927   5.914  14.251
 7225W        W79540  28.737  11.624   2.456
 7226W        W79541  18.211  32.591   4.798
 7227W        W79542  33.611   6.264   2.167
 7228W        W79543  13.743  15.749   1.394
 7229W        W79544   9.640  11.613  13.890
 7230W        W79545   9.763  11.806   0.945
 7231W        W79546  28.625  30.043   0.018
 7232W        W79547  22.603  10.086  13.494
 7233W        W79548  23.794  43.878  12.427
 7234W        W79549  42.949  43.440  10.620
 7235W        W79550  25.920  42.487  10.697
 7236W        W79551  16.311  38.314  13.382
 7237W        W79552   2.616  36.270  10.075
 7238W        W79553  30.928  31.179   0.443
 7239W        W79554  36.815  37.326   4.726
 7240W        W79555  19.209  10.907   4.560
 7241W        W79556  25.837  23.036   2.442
 7242W        W79557  28.675  18.345  11.372
 7243W        W79558  32.828   9.238   0.387
 7244W        W79559  22.956  20.823  13.953
 7245W        W79560  38.107  34.818  12.886
 7246W        W79561  35.405   6.671   2.123
 7247W        W79562   5.669  35.168   1.880
 7248W        W79563  35.181  10.554  11.613
 7249W        W79564  39.365  42.516   5.011
 7250W        W79565  16.655  43.295   1.283
 7251W        W79566  14.401  27.376   0.337
 7252W        W79567  40.820   2.391   2.600
 7253W        W79568   9.064   3.847   1.743
 7254W        W79569  11.778  32.494  14.508
 7255W        W79570  19.901  20.114   4.174
 7256W        W79571   3.689  37.248   4.607
 7257W        W79572  27.182  31.186   2.238
 7258W        W79573  34.217   3.645   0.802
 7259W        W79574  28.463   4.471   2.276
 7260W        W79575   5.189  21.470  13.457
 7261W        W79576  23.069  20.755  11.620
 7262W        W79577   8.719   9.311   3.186
 7263W        W79578  21.137  13.224   2.827
 7264W        W79579  21.542   9.331   3.630
 7265W        W79580  22.530  29.718   2.277
 7266W        W79581  42.920   6.674   4.118
 7267W        W79582  20.772  36.416  11.875
 7268W        W79583   2.449  19.732   3.798
 7269W        W79584  34.068  44.629  13.257
 7270W        W79585  19.920  30.368   4.980
 7271W        W79586  30.412  33.980  14.853
 7272W        W79587  22.051   0.737  12.423
 7273W        W79588  23.492  26.108   1.895
 7274W        W79589   0.203  24.559  11.945
 7275W        W79590  38.806   1.099   2.157
 7276W        W79591   9.698  25.321  14.163
 7277W        W79592  28.900  17.634  11.649
 7278W        W79593  32.447  29.169   2.400
 7279W        W79594  18.669  44.432  12.030
 7280W        W79595  26.675  42.366  14.329
 7281W        W79596  19.042  37.343  10.648
 7282W        W79597  28.197  28.474   2.341
 7283W        W79598  13.213  36.366   4.511
 7284W        W79599  22.753  13.938  13.024
 7285W        W79600  18.196  13.041   3.699
 7286W        W79601  28.243  37.545   9.963
 7287W        W79602   5.139  44.427   4.078
 7288W        W79603  10.703  35.406  13.472
 7289W        W79604   5.655  40.813   2.286
 7290W        W79605  31.209  16.593   4.857
 7291W        W79606  41.253   5.156  12.558
 7292W        W79607  16.400   9.371   1.402
 7293W        W79608   0.393  37.648   3.763
 7294W        W79609  29.547  21.819  13.278
 7295W        W79610   0.580  25.019   0.442
 7296W        W79611  19.112  29.536   1.382
 7297W        W79612   9.014  19.706   4.581
 7298W        W79613   8.348   3.505   0.264
 7299W        W79614  26.140  30.601  14.448
 7300W        W79615  26.769  16.811  11.131
 7301W        W79616  38.579  20.146  12.622
 7302W        W79617  44.850  18.835  11.520
 7303W        W79618   4.701  13.173  12.990
 7304W        W79619  29.784  37.091  13.331
 7305W        W79620  39.099   1.962  14.572
 7306W        W79621   8.265  22.333   3.462
 7307W        W79622  41.055  31.991   1.740
 7308W        W79623  33.730  35.793  10.395
 7309W        W79624  15.176  41.837  13.293
 7310W        W79625  17.075  10.760   5.709
 7311W        W79626   9.082   8.590  13.229
 7312W        W79627  28.494  12.589  14.997
 7313W        W79628   5.284  15.116  13.447
 7314W        W79629  24.024  20.793   3.006
 7315W        W79630  29.891  12.329  11.493
 7316W        W79631  28.085   6.146  14.459
 7317W        W79632  42.565  11.248   2.952
 7318W        W79633   6.877  14.515  12.089
 7319W        W79634  36.089  12.835  14.565
 7320W        W79635  43.132  15.552   2.881
 7321W        W79636  33.390  23.177  12.902
 7322W        W79637   3.231  36.388   1.416
 7323W        W79638  10.599  36.347  13.467
 7324W        W79639  44.131  15.359  14.404
 7325W        W79640  21.141  18.220  14.259
 7326W        W79641  31.035  21.579   2.062
 7327W        W79642  22.757  12.337   1.229
 7328W        W79643  18.391  14.196  11.606
 7329W        W79644  33.070  33.445  13.875
 7330W        W79645   8.916  10.951  12.065
 7331W        W79646  39.935  38.406   1.418
 7332W        W79647  32.149  33.042  10.275
 7333W        W79648  10.099  16.454  14.649
 7334W        W79649  27.941  30.812   2.624
 7335W        W79650  19.090  17.985   3.584
 7336W        W79651  13.816  35.384  12.088
 7337W        W79652  10.395  14.118   2.811
 7338W        W79653  21.744  14.652  14.387
 7339W        W79654  10.442  42.349  10.667
 7340W        W79655  11.576  17.582   0.389
 7341W        W79656  22.828  17.283   0.975
 7342W        W79657  37.064  32.156   2.584
 7343W        W79658  42.530  26.968  11.992
 7344W        W79659   9.332  37.460  10.298
 7345W        W79660  40.875  17.827  13.612
 7346W        W79661  37.035  11.515  11.917
 7347W        W79662  15.406  34.793   9.933
 7348W        W79663  18.668  30.781   5.560
 7349W        W79664  44.896  15.500   1.172
 7350W        W79665   1.275  12.104   5.463
 7351W        W79666  26.035  20.500  10.767
 7352W        W79667  26.712  13.573   3.780
 7353W        W79668  43.317   3.842  12.854
 7354W        W79669  40.709   1.011   1.729
 7355W        W79670  23.479   2.863   1.965
 7356W        W79671  36.690  41.793   3.810
 7357W        W79672  33.647  40.410  13.221
 7358W        W79673  37.416  31.314   2.812
 7359W        W79674  15.889  27.353  11.590
 7360W        W79675  22.690  16.162  13.105
 7361W        W79676   8.773  26.031  14.467
 7362W        W79677  25.756  28.553  11.382
 7363W        W79678  30.584   8.385  14.405
 7364W        W79679  36.568  33.175   0.332
 7365W        W79680   5.497   4.304   3.063
 7366W        W79681  13.343  12.800  11.721
 7367W        W79682   7.368  24.232  12.973
 7368W        W79683  30.777  35.581   1.786
 7369W        W79684  10.679  15.040  14.116
 7370W        W79685  38.992  17.340  13.069
 7371W        W79686   5.952  31.000   2.755
 7372W        W79687  28.910  44.963  12.550
 7373W        W79688  24.589  23.227   3.116
 7374W        W79689  22.219  23.669  14.246
 7375W        W79690   5.263  16.639  12.108
 7376W        W79691  15.089  15.239  11.389
 7377W        W79692   7.785  33.406   0.772
 7378W        W79693  40.119   3.408   3.697
 7379W        W79694  12.311  28.280   1.538
 7380W        W79695   1.277   0.998   4.089
 7381W        W79696  31.524  19.771  12.536
 7382W        W79697  43.234  41.209   0.981
 7383W        W79698  10.183  13.816  11.192
 7384W        W79699  10.455   3.277  14.275
 7385W        W79700   7.638  43.310   4.786
 7386W        W79701  38.961  33.007   3.190
 7387W        W79702  43.068   3.386  12.852
 7388W        W79703   4.091   5.696  11.099
 7389W        W79704  19.767  19.807  13.955
 7390W        W79705  26.066   9.274   2.340
 7391W        W79706  31.115  17.518  12.579
 7392W        W79707   9.783  30.011   0.797
 7393W        W79708  25.992  36.561   2.375
 7394W        W79709  43.512  34.141   2.756
 7395W        W79710   2.769  42.497   2.939
 7396W        W79711   9.359   1.388   0.084
 7397W        W79712   0.623  26.446  13.656
 7398W        W79713  43.521  39.906   3.115
 7399W        W79714   6.866   0.394  14.221
 7400W        W79715   0.254  43.768  12.068
 7401W        W79716  23.270  22.983   3.308
 7402W        W79717  14.317  24.592   0.302
 7403W        W79718  39.004  32.408   4.084
 7404W        W79719  27.917  42.341  13.057
 7405W        W79720  21.807  19.695   3.525
 7406W        W79721  25.963  17.836  14.272
 7407W        W79722  25.593  18.262   1.363
 7408W        W79723  26.931  19.675  13.847
 7409W        W79724   5.956  41.982   1.437
 7410W        W79725   6.185  31.181   3.220
 7411W        W79726  43.987  35.517  13.497
 7412W        W79727   4.165  29.057   0.244
 7413W        W79728  15.672   7.603  10.964
 7414W        W79729  18.759  32.042   3.834
 7415W        W79730   6.189   3.423   2.774
 7416W        W79731  14.739  24.073   4.020
 7417W        W79732   3.354  30.287  11.223
 7418W        W79733  20.123  22.069  14.471
 7419W        W79734  20.817  25.800  11.100
 7420W        W79735  34.412   7.912   1.290
 7421W        W79736  32.119  38.640   2.138
 7422W        W79737  21.154   7.512   3.638
 7423W        W79738  31.846  14.718  11.120
 7424W        W79739  41.261   9.208   3.873
 7425W        W79740  32.207   9.092  13.802
 7426W        W79741   1.776  23.965  10.727
 7427W        W79742   0.435  34.338  13.410
 7428W        W79743  24.125   5.389  12.494
 7429W        W79744   9.058  20.158  12.041
 7430W        W79745  28.838  10.319   1.325
 7431W        W79746  12.915  39.985   0.124
 7432W        W79747  42.803  14.726   2.827
 7433W        W79748  33.895  40.288   4.032
 7434W        W79749   8.978   0.497   0.451
 7435W        W79750  13.400  32.980   1.327
 7436W        W79751  16.241  29.438  11.010
 7437W        W79752  30.453  15.729   3.245
 7438W        W79753  35.888  25.645  13.617
 7439W        W79754  44.804  14.719   1.524
 7440W        W79755  36.804  20.345  14.552
 7441W        W79756  41.049  26.635  12.996
 7442W        W79757  18.588  36.593   3.749
 7443W        W79758   8.303   9.628  14.440
 7444W        W79759  19.592  32.825  11.598
 7445W        W79760   5.714  27.777   1.187
 7446W        W79761   7.251  38.050   4.641
 7447W        W79762  27.821   7.313  11.019
 7448W        W79763  13.144  13.490  14.408
 7449W        W79764  41.490  15.302   1.799
 7450W        W79765   8.716  39.040   3.356
 7451W        W79766  20.163  43.506  13.074
 7452W        W79767  38.865  43.133  13.309
 7453W        W79768  19.999  18.187   0.871
 7454W        W79769  19.189  26.964   4.174
 7455W        W79770  35.612  14.232   4.574
 7456W        W79771  30.980   0.973   4.252
 7457W        W79772  39.581   8.151   3.230
 7458W        W79773  24.818   5.123  13.546
 7459W        W79774  11.476  23.879   2.814
 7460W        W79775  38.957  22.677   4.544
 7461W        W79776   6.683  36.623   3.268
 7462W        W79777   2.393  20.524  14.893
 7463W        W79778   7.368  40.677   4.119
 7464W        W79779  13.662  17.868  14.882
 7465W        W79780  41.741   6.719  13.624
 7466W        W79781  15.594   5.252  14.409
 7467W        W79782  30.406  24.372   4.680
 7468W        W79783  40.772  40.937   0.233
 7469W        W79784  38.378  40.018  12.537
 7470W        W79785  42.754  32.549  14.051
 7471W        W79786  11.302  29.097  10.869
 7472W        W79787  20.201  22.793  11.431
 7473W        W79788  30.585  16.339  11.319
 7474W        W79789  32.822  13.883  14.498
 7475W        W79790  12.611  28.155  10.777
 7476W        W79791   8.442  15.226   2.365
 7477W        W79792   8.807   3.198  11.072
 7478W        W79793  21.696  30.654  14.285
 7479W        W79794  31.029   8.662   4.120
 7480W        W79795   7.317  11.929  11.052
 7481W        W79796  37.023   3.967  11.639
 7482W        W79797  15.162   3.706  12.391
 7483W        W79798  37.056  37.386  13.413
 7484W        W79799  22.217   7.431   0.327
 7485W        W79800  37.603   8.419   4.934
 7486W        W79801  35.555  27.296  12.923
 7487W        W79802  25.509  32.564  10.295
 7488W        W79803  14.787   8.667  13.324
 7489W        W79804   9.073   8.384   0.028
 7490W        W79805   7.899  19.541  13.407
 7491W        W79806  23.572  18.678  12.671
 7492W        W79807  26.613  31.725   0.298
 7493W        W79808  37.138  31.230  14.851
 7494W        W79809  42.785  16.654   0.617
 7495W        W79810  16.806  21.197   1.225
 7496W        W79811   9.419  29.906  14.808
 7497W        W79812  43.315  41.191   0.131
 7498W        W79813  29.711  26.655   2.771
 7499W        W79814   2.470  21.091  14.060
 7500W        W79815   3.394  18.180  13.418
 7501W        W79816   4.985  39.337  12.279
 7502W        W79817  21.848   3.458  13.021
 7503W        W79818   2.351   1.993  11.119
 7504W        W79819  10.604   6.784   2.796
 7505W        W79820  17.476  26.402   4.208
 7506W        W79821  35.630  43.973  12.426
 7507W        W79822  32.539  21.228   1.712
 7508W        W79823  29.469  27.014   4.514
 7509W        W79824   5.473  10.668  12.888
 7510W        W79825  28.337  16.808   2.732
 7511W        W79826  13.996  44.012   2.297
 7512W        W79827   4.368  41.940  11.591
 7513W        W79828   7.211  28.912  11.659
 7514W        W79829  21.163  36.744   4.667
 7515W        W79830  21.605  39.283   2.597
 7516W        W79831  29.819  28.075   2.010
 7517W        W79832  33.966   2.477   4.287
 7518W        W79833  38.483  43.086  12.335
 7519W        W79834  11.335  33.492   3.871
 7520W        W79835  22.524  44.970  12.488
 7521W        W79836   4.660  42.924  11.708
 7522W        W79837   6.810  29.438   4.861
 7523W        W79838  35.452  34.340  10.708
 7524W        W79839  20.765  15.850  13.759
 7525W        W79840  23.985  28.361  14.104
 7526W        W79841  26.070  37.769   0.238
 7527W        W79842   3.120   1.306   4.192
 7528W        W79843   9.191  41.577   2.148
 7529W        W79844  38.618  26.677  10.303
 7530W        W79845  39.324  15.491   2.033
 7531W        W79846  22.693  24.946   1.730
 7532W        W79847   1.381  40.926  14.055
 7533W        W79848  12.168  44.609  10.322
 7534W        W79849  17.465  24.338  13.111
 7535W        W79850  31.737   7.669   4.178
 7536W        W79851   4.974  33.128  13.239
 7537W        W79852  38.993   0.436   4.904
 7538W        W79853  13.650   8.862   2.305
 7539W        W79854  26.913   8.519  14.270
 7540W        W79855  21.082   9.103  10.363
 7541W        W79856  31.709  40.792   4.230
 7542W        W79857  26.101  22.567   4.383
 7543W        W79858  20.815  17.178  14.403
 7544W        W79859  41.242  44.523  12.819
 7545W        W79860   7.683   5.352  10.783
 7546W        W79861  15.063  41.770   3.731
 7547W        W79862  33.241  31.299  13.967
 7548W        W79863  25.617  16.851   3.264
 7549W        W79864  25.533  16.103   4.809
 7550W        W79865   1.950  18.918  12.474
 7551W        W79866   1.038   0.838   2.838
 7552W        W79867  10.742  44.925   4.837
 7553W        W79868  25.603  12.499   2.771
 7554W        W79869  17.193  16.310  13.419
 7555W        W79870  14.386   4.933   3.478
 7556W        W79871  10.194  18.835  12.098
 7557W        W79872  19.473  11.877   4.502
 7558W        W79873  39.016  20.075   3.437
 7559W        W79874  40.113  23.536   2.557
 7560W        W79875  19.741  13.220   5.201
 7561W        W79876   9.169   3.728   4.826
 7562W        W79877  15.269  24.204   4.015
 7563W        W79878  24.698   6.942   1.800
 7564W        W79879  41.720  20.999  13.900
 7565W        W79880  41.622  21.745  10.757
 7566W        W79881  27.682  33.931  11.218
 7567W        W79882  37.275   5.640   4.368
 7568W        W79883  40.166  29.367  12.008
 7569W        W79884  44.701   5.623   0.717
 7570W        W79885  23.253  17.584   0.807
 7571W        W79886  11.732  23.496  14.035
 7572W        W79887  39.170   6.763  11.985
 7573W        W79888  41.093   2.021   2.362
 7574W        W79889  18.565  19.698  12.931
 7575W        W79890  32.391   6.693  13.845
 7576W        W79891  18.586  17.451  10.794
 7577W        W79892  33.037  16.791   0.441
 7578W        W79893  43.476  37.401   4.091
 7579W        W79894  38.752   8.759   4.529
 7580W        W79895  13.474  29.503   4.261
 7581W        W79896  21.181  35.021  13.123
 7582W        W79897  40.821  36.255   3.059
 7583W        W79898  28.127  25.100   0.727
 7584W        W79899  31.449  32.601   4.129
 7585W        W79900  33.506  26.702   4.485
 7586W        W79901   6.224   4.894   0.473
 7587W        W79902  31.796   5.239   4.205
 7588W        W79903  14.089  25.709  11.896
 7589W        W79904   5.207  15.669   4.597
 7590W        W79905   9.713  12.717  11.022
 7591W        W79906   3.254  39.852   1.843
 7592W        W79907  21.759  27.215  13.796
 7593W        W79908   7.941  15.730   2.372
 7594W        W79909   9.302  39.411   0.024
 7595W        W79910  19.945   6.827  14.419
 7596W        W79911   3.003  12.302  12.057
 7597W        W79912  21.993  23.942  11.641
 7598W        W79913  44.351   7.904  11.621
 7599W        W79914  42.372  21.483  13.498
 7600W        W79915  36.943   8.321  11.137
 7601W        W79916  33.976  44.540   0.425
 7602W        W79917  25.513  31.607   4.509
 7603W        W79918  30.972   7.952   1.633
 7604W        W79919   0.644  42.817  14.311
 7605W        W79920  20.841  25.394   3.548
 7606W        W79921  20.000  16.279  12.976
 7607W        W79922  21.295  40.887   4.196
 7608W        W79923  25.457   8.190  12.944
 7609W        W79924   8.642  31.452   3.689
 7610W        W79925   7.607  40.538  14.512
 7611W        W79926   5.831  16.578   3.229
 7612W        W79927   3.076  27.753   3.527
 7613W        W79928  12.157  18.045  13.520
 7614W        W79929   4.936   3.466  10.756
 7615W        W79930  20.159  38.082  12.122
 7616W        W79931  17.208  15.248   2.893
 7617W        W79932   2.856  42.365  13.974
 7618W        W79933   4.161  10.407  12.410
 7619W        W79934  24.156   4.680  10.660
 7620W        W79935  12.528  42.783   1.363
 7621W        W79936  36.491  32.813  10.631
 7622W        W79937   2.547  28.073  11.158
 7623W        W79938  17.669   9.724   4.567
 7624W        W79939  16.714  13.767  13.587
 7625W        W79940   5.315  21.964  12.381
 7626W        W79941   8.909  24.770  12.997
 7627W        W79942  44.310  32.518   2.026
 7628W        W79943  25.909  28.459  10.886
 7629W        W79944  42.392   0.692  14.050
 7630W        W79945   9.534  35.013  14.184
 7631W        W79946   9.245  27.070  12.318
 7632W        W79947   5.730   3.131  12.947
 7633W        W79948  11.250  37.802  12.853
 7634W        W79949  41.330  33.024   2.272
 7635W        W79950   7.201  19.110  13.969
 7636W        W79951  16.168  39.882   2.232
 7637W        W79952   7.751  13.854   4.376
 7638W        W79953   0.571   8.191   3.714
 7639W        W79954   2.050  14.772  12.931
 7640W        W79955  44.007  19.698   3.349
 7641W        W79956  39.259  35.975   0.027
 7642W        W79957  36.136  41.487  14.962
 7643W        W79958  43.059   8.800  12.921
 7644W        W79959  20.982  13.962   4.337
 7645W        W79960   8.853  38.916   0.391
 7646W        W79961   4.426  10.041   4.376
 7647W        W79962  20.515  25.416  12.881
 7648W        W79963  37.506  35.098  12.157
 7649W        W79964  20.375  19.714   3.416
 7650W        W79965  36.553  20.160  12.734
 7651W        W79966  43.745  31.745  13.448
 7652W        W79967  20.035  17.740   3.918
 7653W        W79968  28.822   7.196  11.072
 7654W        W79969   9.016  37.262  11.266
 7655W        W79970  29.548  28.244  14.497
 7656W        W79971  23.128  16.318   2.236
 7657W        W79972  44.858  40.404   4.347
 7658W        W79973  33.398  35.425  12.542
 7659W        W79974   2.974   5.456   0.857
 7660W        W79975  10.316  41.575   1.384
 7661W        W79976   7.861  17.367  11.657
 7662W        W79977  11.649  29.615   3.138
 7663W        W79978  25.297   4.719   0.945
 7664W        W79979  26.489   9.649   2.584
 7665W        W79980  14.366  42.876   1.266
 7666W        W79981   8.316   8.198  10.654
 7667W        W79982  21.796  12.320   3.323
 7668W        W79983  34.195  13.289   1.360
 7669W        W79984   5.318  10.060  10.746
 7670W        W79985   8.195   5.514   4.556
 7671W        W79986  23.994  24.830   4.418
 7672W        W79987  20.698  15.387  13.984
 7673W        W79988  19.970  11.567  11.139
 7674W        W79989  14.587  22.037  12.428
 7675W        W79990  26.979  40.689  12.944
 7676W        W79991  28.470  41.860  10.285
 7677W        W79992  19.595  31.163   4.611
 7678W        W79993  16.264  22.660  12.912
 7679W        W79994  26.009  20.590   2.939
 7680W        W79995  26.534  20.661  10.719
 7681W        W79996  10.313  29.411   0.372
 7682W        W79997  41.788  26.118  13.696
 7683W        W79998  16.456   9.718   4.044
 7684W        W79999   5.991  20.029   4.381
 7685W        W80000   2.429  11.342   1.328
 7686W        W80001  21.701   3.285   0.351
 7687W        W80002  26.544  26.501   4.986
 7688W        W80003  40.532  39.269   4.615
 7689W        W80004  14.347  39.998   0.094
 7690W        W80005  23.780   4.456  14.389
 7691W        W80006   5.364   9.761   4.741
 7692W        W80007  20.429  39.122   3.761
 7693W        W80008  42.572  16.730   3.253
 7694W        W80009   5.937  16.288  14.541
 7695W        W80010  15.549  34.078   1.377
 7696W        W80011  17.496  13.125  11.695
 7697W        W80012  22.158   3.170   1.742
 7698W        W80013  38.429  34.371   3.073
 7699W        W80014  29.369   0.742   1.495
 7700W        W80015  28.161  25.545  12.518
 7701W        W80016  43.568  25.723   0.514
 7702W        W80017   6.223  13.711   2.931
 7703W        W80018  21.107  28.734   1.299
 7704W        W80019  39.775  20.678   4.252
 7705W        W80020  13.450  39.426   1.993
 7706W        W80021   4.814  35.111   4.315
 7707W        W80022  14.516   1.310   0.943
 7708W        W80023  20.641  32.478  11.952
 7709W        W80024  42.743  37.944   4.305
 7710W        W80025  15.920  29.994   4.479
 7711W        W80026   8.442  11.845   3.595
 7712W        W80027  13.134   8.432  10.530
 7713W        W80028  42.364  26.398   0.180
 7714W        W80029  28.533  14.029   1.664
 7715W        W80030  43.235  44.072   3.671
 7716W        W80031   9.292  37.863   3.211
 7717W        W80032   1.508  33.758   5.054
 7718W        W80033  25.041  41.374  14.463
 7719W        W80034   4.432  26.597  13.496
 7720W        W80035   4.162  19.850  14.507
 7721W        W80036  24.683  21.715  14.052
 7722W        W80037  28.187  43.462   2.199
 7723W        W80038   9.698  33.147  10.778
 7724W        W80039  26.231  27.931  13.486
 7725W        W80040  26.251  31.704   2.646
 7726W        W80041  23.118  19.570   4.148
 7727W        W80042   1.907  13.297  10.920
 7728W        W80043  42.776  25.590   4.440
 7729W        W80044  39.251  18.309  10.783
 7730W        W80045  31.522  10.913   4.132
 7731W        W80046   0.413   3.041  14.503
 7732W        W80047   0.323  30.326  13.434
 7733W        W80048   7.847   9.751   1.344
 7734W        W80049   9.922   8.247  13.833
 7735W        W80050   4.854   5.694   2.910
 7736W        W80051  41.892   2.018   1.283
 7737W        W80052  38.425   3.160  11.031
 7738W        W80053  25.204  14.884  14.402
 7739W        W80054  29.862  20.184  13.874
 7740W        W80055  21.144  10.075  14.019
 7741W        W80056  11.214  26.441   2.541
 7742W        W80057   3.870  36.088  11.985
 7743W        W80058  16.453  38.860  14.707
 7744W        W80059  21.022  27.375   3.215
 7745W        W80060   8.155  33.396  11.133
 7746W        W80061  43.924  44.442  11.503
 7747W        W80062  26.389  43.224  14.478
 7748W        W80063  29.681  21.531  12.450
 7749W        W80064   3.271  23.591  12.934
 7750W        W80065   3.817  26.388   2.414
 7751W        W80066  17.643  27.372   0.396
 7752W        W80067  28.468  22.805   1.965
 7753W        W80068  23.231  14.927  13.931
 7754W        W80069  36.213   5.079   1.948
 7755W        W80070  28.676   2.760  10.561
 7756W        W80071  43.872  22.805  12.740
 7757W        W80072  27.683  31.212   4.106
 7758W        W80073   3.406  26.676  13.487
 7759W        W80074  33.561  21.553  13.773
 7760W        W80075  17.084  21.910  10.655
 7761W        W80076   6.397  29.340   1.851
 7762W        W80077  23.449  31.590  14.531
 7763W        W80078  28.395  39.313   1.697
 7764W        W80079  10.138  18.997   1.314
 7765W        W80080  16.752  26.415   2.325
 7766W        W80081  32.162   5.952   4.601
 7767W        W80082  28.680  33.746   0.685
 7768W        W80083  16.860   4.252  14.801
 7769W        W80084  12.903  42.203   4.900
 7770W        W80085  21.452  39.908  13.434
 7771W        W80086  26.107  33.396   4.581
 7772W        W80087   5.971  26.197  14.317
 7773W        W80088  24.144  35.626   0.891
 7774W        W80089   1.284  42.185   2.306
 7775W        W80090   7.401   9.691   4.885
 7776W        W80091  32.979  41.662   3.722
 7777W        W80092  40.963  30.057  11.434
 7778W        W80093  14.806   6.334  10.345
 7779W        W80094  14.570   8.215  10.702
 7780W        W80095  14.640  27.651   1.921
 7781W        W80096  17.629  21.427   0.637
 7782W        W80097  37.822  12.255   0.306
 7783W        W80098  38.348  25.279   3.567
 7784W        W80099   7.263  12.134   3.175
 7785W        W80100  33.958   6.355  11.098
 7786W        W80101   4.260  13.862  12.526
 7787W        W80102  19.534  17.198  13.002
 7788W        W80103  36.802   1.165   0.141
 7789W        W80104   6.646  15.767  12.517
 7790W        W80105  32.426   8.336   4.507
 7791W        W80106   2.808  35.635   2.361
 7792W        W80107   1.287   0.153   0.601
 7793W        W80108   1.429   4.634   1.609
 7794W        W80109   1.765  28.680  12.019
 7795W        W80110  23.503  12.093   3.660
 7796W        W80111  23.766  36.314   3.714
 7797W        W80112   1.254  33.974   3.246
 7798W        W80113  11.836  23.716  11.490
 7799W        W80114  42.299   2.939   3.487
 7800W        W80115  31.173  14.533  12.456
 7801W        W80116  13.059  13.637   2.715
 7802W        W80117  18.802  43.009   4.532
 7803W        W80118  32.520   1.799   2.247
 7804W        W80119  43.802   1.349  12.367
 7805W        W80120  10.907  36.525  13.062
 7806W        W80121  39.418   7.474  14.363
 7807W        W80122  34.394  27.576  13.901
 7808W        W80123   6.379  16.257   4.072
 7809W        W80124  11.244  29.074   4.193
 7810W        W80125   3.404  39.924  10.481
 7811W        W80126  37.279  35.574  13.758
 7812W        W80127  21.729   0.951   1.891
 7813W        W80128  21.069  32.419  10.233
 7814W        W80129  31.967  16.139   3.997
 7815W        W80130  41.865  15.819  11.691
 7816W        W80131  16.096  10.192   0.046
 7817W        W80132  15.107  38.372   3.924
 7818W        W80133  42.230   0.830  11.340
 7819W        W80134   5.213  28.639  14.741
 7820W        W80135  23.209  25.235   4.427
 7821W        W80136  44.433  21.775   1.877
 7822W        W80137  13.639  30.998  13.650
 7823W        W80138  37.601   8.906   2.821
 7824W        W80139  31.432  39.572  12.543
 7825W        W80140   8.266  19.164   4.868
 7826W        W80141   3.310   7.841  13.842
 7827W        W80142   7.787  42.030   2.365
 7828W        W80143  35.201  29.545   4.563
 7829W        W80144  38.303  15.793  10.649
 7830W        W80145  22.937  12.843   3.684
 7831W        W80146  28.921  28.148  11.717
 7832W        W80147   9.370  14.133  11.213
 7833W        W80148  21.186   1.960  10.718
 7834W        W80149  27.285  38.887  11.549
 7835W        W80150  31.541  34.625   2.272
 7836W        W80151  31.954  16.189   3.493
 7837W        W80152  32.488  32.032  14.835
 7838W        W80153   8.275   2.972   0.032
 7839W        W80154  32.364  10.426  14.672
 7840W        W80155   5.386   6.166   3.295
 7841W        W80156   3.918  15.436   4.838
 7842W        W80157  43.580  19.992   4.824
 7843W        W80158  17.661  40.428   2.105
 7844W        W80159  20.616  18.595  13.435
 7845W        W80160  17.512  42.402   1.875
 7846W        W80161   2.738  14.697   2.897
 7847W        W80162  39.938  37.883  13.605
 7848W        W80163   8.791  10.236   2.662
 7849W        W80164  44.354  31.687   2.968
 7850W        W80165  30.454  35.037  13.039
 7851W        W80166   0.257  12.861  11.493
 7852W        W80167  33.414  32.911  14.372
 7853W        W80168  25.138  20.004   2.206
 7854W        W80169  25.219  39.445   2.912
 7855W        W80170  41.664   7.875   5.035
 7856W        W80171   0.461  15.170  11.462
 7857W        W80172  11.745  39.949  14.892
 7858W        W80173  43.229  14.813   1.487
 7859W        W80174  12.720  23.205   4.355
 7860W        W80175  13.099  44.280   1.229
 7861W        W80176  29.655   9.270   2.764
 7862W        W80177  15.709  38.407  11.665
 7863W        W80178  24.165  40.092  10.688
 7864W        W80179   2.086  12.391   0.734
 7865W        W80180  13.314  18.248   1.877
 7866W        W80181  32.133  34.251  13.334
 7867W        W80182  41.837  18.325  13.842
 7868W        W80183  32.338  26.735  11.532
 7869W        W80184   4.460  38.343   1.741
 7870W        W80185  39.785  18.221  11.455
 7871W        W80186  31.503  31.030   3.946
 7872W        W80187  14.315  21.822  14.924
 7873W        W80188   4.231  18.658  14.088
 7874W        W80189  11.503  22.272  14.539
 7875W        W80190  33.940   7.869   3.173
 7876W        W80191  22.600  12.881   1.706
 7877W        W80192  36.957  41.571   3.405
 7878W        W80193  33.093  26.171   1.895
 7879W        W80194  19.131   9.454   3.932
 7880W        W80195  13.740   8.140  13.555
 7881W        W80196   3.431   3.272  11.810
 7882W        W80197  36.322  24.499  13.572
 7883W        W80198  15.453  32.580   2.333
 7884W        W80199  29.076  12.073   3.242
 7885W        W80200   4.804   8.156  12.111
 7886W        W80201  15.139  10.579   4.574
 7887W        W80202  28.518   0.028   3.898
 7888W        W80203  44.037  17.714   2.876
 7889W        W80204  44.891  17.093  10.557
 7890W        W80205  36.525  32.651  11.128
 7891W        W80206  27.622  22.958  14.768
 7892W        W80207  36.277  41.904  13.489
 7893W        W80208  22.212  38.699   4.697
 7894W        W80209  15.990  15.336  11.392
 7895W        W80210  22.258  34.561   3.463
 7896W        W80211  25.990  17.659   2.458
 7897W        W80212  16.854  17.530   2.686
 7898W        W80213  14.231  38.771  14.743
 7899W        W80214  43.841  13.800  12.343
 7900W        W80215  39.300  29.642  14.404
 7901W        W80216  26.499   3.283   0.965
 7902W        W80217  36.620   2.654  10.707
 7903W        W80218  36.540  31.435  11.471
 7904W        W80219  38.849  27.243  10.749
 7905W        W80220  17.313   7.058  10.009
 7906W        W80221  26.356  34.594   1.842
 7907W        W80222  22.087  23.667   0.652
 7908W        W80223  23.711   4.739   0.775
 7909W        W80224  32.902  39.626   1.370
 7910W        W80225  31.379  11.052  13.250
 7911W        W80226  22.183  21.553   9.703
 7912W        W80227  20.310  31.896   0.725
 7913W        W80228  22.693  40.495   0.670
 7914W        W80229  38.592  26.615   3.345
 7915W        W80230  41.839   5.666   2.161
 7916W        W80231  43.289   2.176   1.439
 7917W        W80232  21.498  13.091   1.185
 7918W        W80233  14.910  19.077   1.898
 7919W        W80234   1.211  30.423   4.239
 7920W        W80235  18.762   8.006  11.532
 7921W        W80236  18.410  33.731   1.262
 7922W        W80237  15.531   4.929   3.140
 7923W        W80238   6.012  22.444   1.727
 7924W        W80239  10.038   0.182  11.837
 7925W        W80240  22.050   2.180   2.757
 7926W        W80241   0.753  34.874  10.994
 7927W        W80242  20.531  25.984  10.661
 7928W        W80243  19.499  37.644  11.212
 7929W        W80244  20.333  15.386  14.951
 7930W        W80245  13.581  39.544   4.664
 7931W        W80246  12.821  22.825  11.084
 7932W        W80247  22.733   3.837  13.454
 7933W        W80248  39.095   0.079  13.082
 7934W        W80249  12.611  40.947   1.786
 7935W        W80250  25.678  35.963   0.860
 7936W        W80251  34.248  44.394  10.136
 7937W        W80252   2.299  26.926   1.716
 7938W        W80253  44.115  20.697  14.350
 7939W        W80254  42.993  14.303   4.083
 7940W        W80255  30.154  26.497  12.150
 7941W        W80256   6.973  41.933   2.912
 7942W        W80257  19.782  18.656  12.031
 7943W        W80258   2.383  21.083   1.471
 7944W        W80259  18.412  32.065   1.863
 7945W        W80260  10.647  37.489  13.044
 7946W        W80261  26.681  29.518  12.638
 7947W        W80262   6.389  15.641   5.238
 7948W        W80263  39.847  16.165  14.754
 7949W        W80264  35.077  13.255   1.350
 7950W        W80265  24.691  31.395  11.111
 7951W        W80266  36.185  27.213   4.480
 7952W        W80267  42.338  34.390  14.977
 7953W        W80268   6.557  21.155  12.504
 7954W        W80269  32.961  35.483   4.356
 7955W        W80270  26.562  10.489   5.104
 7956W        W80271  30.146   2.134   2.920
 7957W        W80272  25.543  19.241   1.311
 7958W        W80273  16.050  17.608   3.687
 7959W        W80274   9.905   1.840  11.876
 7960W        W80275  11.568  41.368  14.558
 7961W        W80276  41.889  22.628  10.479
 7962W        W80277  38.460  15.356   1.781
 7963W        W80278   2.249  17.334  14.878
 7964W        W80279   6.742  43.477   2.395
 7965W        W80280  19.168  18.088   4.077
 7966W        W80281  27.151  28.149   4.465
 7967W        W80282  42.024  18.224  14.944
 7968W        W80283  25.467  39.901   2.826
 7969W        W80284   3.411  36.865   2.793
 7970W        W80285  13.727   0.247  11.917
 7971W        W80286   1.933   7.913   3.648
 7972W        W80287  43.454  41.978  12.505
 7973W        W80288  32.184  21.075  10.842
 7974W        W80289  26.023  12.825  14.284
 7975W        W80290  36.868  18.177   4.501
 7976W        W80291  40.940   5.684  12.995
 7977W        W80292  19.811   1.496  11.958
 7978W        W80293  25.777  30.588  14.073
 7979W        W80294  22.561  42.946  14.240
 7980W        W80295  27.629  41.280  14.823
 7981W        W80296  39.506  24.507   1.859
 7982W        W80297  38.093  15.027   1.631
 7983W        W80298  16.735   9.251  11.833
 7984W        W80299  15.581  43.753  14.371
 7985W        W80300  38.567  18.000   0.295
 7986W        W80301   3.680  33.972   3.082
 7987W        W80302  20.977  12.649  10.774
 7988W        W80303  29.640   1.328   3.629
 7989W        W80304  38.028  26.734   2.817
 7990W        W80305  18.268  20.545  12.967
 7991W        W80306   4.369  32.070  14.072
 7992W        W80307  18.630  23.133   2.626
 7993W        W80308  32.411  40.535   1.013
 7994W        W80309  10.190  12.883  13.566
 7995W        W80310  14.097  41.346   4.867
 7996W        W80311  14.776  36.924   2.758
 7997W        W80312  32.577  39.484  13.648
 7998W        W80313  26.536  10.063  11.943
 7999W        W80314  38.902   3.990   2.339
 8000W        W80315  23.746  29.972   0.841
 8001W        W80316  29.308  13.253  12.580
 8002W        W80317  42.414  27.455  10.805
 8003W        W80318  40.074  13.859   0.721
 8004W        W80319  17.658  23.085   4.014
 8005W        W80320  21.532  22.792  11.685
 8006W        W80321  42.615   6.062  11.603
 8007W        W80322  42.733  11.686   2.667
 8008W        W80323  24.816  40.793  14.199
 8009W        W80324  26.225  37.643   3.864
 8010W        W80325  44.954  44.506  12.462
 8011W        W80326  16.926  43.523  12.907
 8012W        W80327  11.176  26.413  14.944
 8013W        W80328   5.276  31.509  11.125
 8014W        W80329  23.177  15.318   1.978
 8015W        W80330   4.001  30.578   3.626
 8016W        W80331  33.420  31.091  13.066
 8017W        W80332   6.692   9.110   4.668
 8018W        W80333  43.378  32.827  14.104
 8019W        W80334   7.738  20.004   1.995
 8020W        W80335  23.416  23.239  10.192
 8021W        W80336  30.472  28.160  12.564
 8022W        W80337  34.155  23.246  10.753
 8023W        W80338  44.481   5.275   2.669
 8024W        W80339  21.280  41.875   1.773
 8025W        W80340  43.754   5.815   4.138
 8026W        W80341   5.437  13.996  13.961
 8027W        W80342  43.016  36.503   1.869
 8028W        W80343   2.763   6.204  14.898
 8029W        W80344   5.431  12.003   0.858
 8030W        W80345  27.688   2.247   0.368
 8031W        W80346   2.297  14.637   0.317
 8032W        W80347  33.164   0.077  13.572
 8033W        W80348  20.591  21.640  13.031
 8034W        W80349   6.675  32.970   3.607
 8035W        W80350  37.948   9.190  12.306
 8036W        W80351   3.121  24.292   3.360
 8037W        W80352  15.550  36.941  13.849
 8038W        W80353  39.374  19.905  11.517
 8039W        W80354  19.548  14.946   0.569
 8040W        W80355  44.388  23.493  13.017
 8041W        W80356  11.110  11.345   1.425
 8042W        W80357  42.460  10.389   2.598
 8043W        W80358  10.142   2.327   2.240
 8044W        W80359  43.557  20.393  12.146
 8045W        W80360  41.565  41.747   3.269
 8046W        W80361  10.887  10.329  11.351
 8047W        W80362  18.016  33.436   1.452
 8048W        W80363  30.015   9.429  11.653
 8049W        W80364   6.296   8.971   0.023
 8050W        W80365  42.263  18.623  13.876
 8051W        W80366  33.743  40.889  13.350
 8052W        W80367  12.756  40.370   4.390
 8053W        W80368  26.088  42.149  11.960
 8054W        W80369  17.278  23.981   3.719
 8055W        W80370   1.262  35.898  11.997
 8056W        W80371  35.624   6.222  12.873
 8057W        W80372  24.165  25.817   1.358
 8058W        W80373  28.847   6.134   9.813
 8059W        W80374   4.557  24.249   2.878
 8060W        W80375  28.621  38.290   3.611
 8061W        W80376  33.527  13.718  13.321
 8062W        W80377   4.409  11.368  14.244
 8063W        W80378  20.191   4.270  12.143
 8064W        W80379  39.041  25.024   1.389
 8065W        W80380  11.243  40.080   1.113
 8066W        W80381   8.262  38.302   3.405
 8067W        W80382  25.215  41.916  14.848
 8068W        W80383  36.409  35.220  14.073
 8069W        W80384  22.788  16.242   1.832
 8070W        W80385  20.458  31.070  13.985
 8071W        W80386  14.604  27.985  14.472
 8072W        W80387  21.627  34.943  11.607
 8073W        W80388  14.173  12.722   3.906
 8074W        W80389  24.169  16.312  13.043
 8075W        W80390  30.709  27.354   0.376
 8076W        W80391   2.466   0.519   1.903
 8077W        W80392  38.534  28.503   2.952
 8078W        W80393  20.495  14.651  12.671
 8079W        W80394  15.051  33.499   2.551
 8080W        W80395  36.159  27.092   1.352
 8081W        W80396  17.945   5.957   2.814
 8082W        W80397  31.701  33.592   3.243
 8083W        W80398  27.175  36.126   5.065
 8084W        W80399  13.691  42.094   4.707
 8085W        W80400  19.969   0.569   1.772
 8086W        W80401  38.937  28.401   3.397
 8087W        W80402  33.331  21.931  12.884
 8088W        W80403  28.061  26.657   3.339
 8089W        W80404  10.670  10.763  10.641
 8090W        W80405   3.848  40.974   1.971
 8091W        W80406  15.678  30.304  14.814
 8092W        W80407  17.730   4.510   3.439
 8093W        W80408  17.198  12.615  12.798
 8094W        W80409  44.458   2.788   4.060
 8095W        W80410   7.014   2.672   1.402
 8096W        W80411   1.402  37.850   3.906
 8097W        W80412  10.158  40.198   3.714
 8098W        W80413   3.316  38.579   0.399
 8099W        W80414  26.334  25.984   4.855
 8100W        W80415  29.433  44.760   3.719
 8101W        W80416   0.864  14.315  12.538
 8102W        W80417  12.829   0.465   3.389
 8103W        W80418  44.027  13.669  11.797
 8104W        W80419   5.590  40.009   4.161
 8105W        W80420   9.724   7.764   4.064
 8106W        W80421  10.609  43.151  13.922
 8107W        W80422  30.809  35.966  12.977
 8108W        W80423  30.498  24.783  14.646
 8109W        W80424  20.352  37.042   2.195
 8110W        W80425  43.287   4.244  11.624
 8111W        W80426  37.468  32.508   4.763
 8112W        W80427   6.250  33.130   4.535
 8113W        W80428  10.943  34.739   1.712
 8114W        W80429  14.817  38.071  14.211
 8115W        W80430  27.665  24.773  12.041
 8116W        W80431  28.078  42.730   1.178
 8117W        W80432  28.550   5.417   5.274
 8118W        W80433   7.271  33.620  14.419
 8119W        W80434  25.993  28.594   3.840
 8120W        W80435  44.378   8.133   0.030
 8121W        W80436   5.344  19.178  11.572
 8122W        W80437   5.955  11.858   0.961
 8123W        W80438  20.377  40.850  11.078
 8124W        W80439  34.840  31.180   2.187
 8125W        W80440  42.516  15.699   4.501
 8126W        W80441  17.642   1.828  11.210
 8127W        W80442  14.954   6.647  12.079
 8128W        W80443  11.418  10.412  12.437
 8129W        W80444  13.189  25.962   2.885
 8130W        W80445  39.791  14.550  10.654
 8131W        W80446  38.547  17.112   2.781
 8132W        W80447  17.889  10.617  14.635
 8133W        W80448   8.395   5.971  12.897
 8134W        W80449  15.533   7.636  12.349
 8135W        W80450   0.954  10.935  11.613
 8136W        W80451  12.101  40.318  14.907
 8137W        W80452  18.470  34.359   0.418
 8138W        W80453  43.740  33.720  14.900
 8139W        W80454   4.240  30.454  11.229
 8140W        W80455  43.337  42.998   0.378
 8141W        W80456  27.034  43.190  13.849
 8142W        W80457  23.515  32.824   2.349
 8143W        W80458   6.866  41.931   2.384
 8144W        W80459  18.717  34.550  11.107
 8145W        W80460  25.114  21.750   0.924
 8146W        W80461  44.314  10.315  12.799
 8147W        W80462  19.753  27.965   3.382
 8148W        W80463   5.228   4.853  13.752
 8149W        W80464  29.183   4.625  12.909
 8150W        W80465  17.714  31.049   2.876
 8151W        W80466   6.885  20.347  11.871
 8152W        W80467  39.623  25.478  13.402
 8153W        W80468  40.542  22.657  14.579
 8154W        W80469  41.778  17.964   4.214
 8155W        W80470   3.343  23.945   1.463
 8156W        W80471  40.896  14.773  13.287
 8157W        W80472  22.710  38.804  11.507
 8158W        W80473   5.958  22.815  13.988
 8159W        W80474  35.623  38.134  11.345
 8160W        W80475  27.508  30.557   3.323
 8161W        W80476  42.556  31.958   1.094
 8162W        W80477  13.719  19.536   0.846
 8163W        W80478  33.481  26.075  12.662
 8164W        W80479  30.538  31.948  11.894
 8165W        W80480  31.492  25.684  11.496
 8166W        W80481  19.011   3.477   0.034
 8167W        W80482  16.126  17.727   0.382
 8168W        W80483  31.073  19.987  13.327
 8169W        W80484  37.006   5.283  10.978
 8170W        W80485  34.883  31.074  11.974
 8171W        W80486  40.291  24.062  12.059
 8172W        W80487  15.567  35.339  10.670
 8173W        W80488  11.089   7.419  12.050
 8174W        W80489  40.193   9.952   2.044
 8175W        W80490  44.740   8.644   0.539
 8176W        W80491  18.697   5.965  12.017
 8177W        W80492  32.117  10.655  13.250
 8178W        W80493  34.932  36.119  11.471
 8179W        W80494  17.167   7.220  14.447
 8180W        W80495  33.084   7.969   0.968
 8181W        W80496  13.718  35.804  12.350
 8182W        W80497  30.566  41.205   0.499
 8183W        W80498  24.483   0.956   4.542
 8184W        W80499  31.693  24.064  14.453
 8185W        W80500  31.932  44.000  10.136
 8186W        W80501  18.168   2.527  12.931
 8187W        W80502  21.014  30.835  13.071
 8188W        W80503  44.484  12.140  14.108
 8189W        W80504   2.575  21.126   4.630
 8190W        W80505  19.007  42.448   3.619
 8191W        W80506  21.468  44.953   2.346
 8192W        W80507   2.690   9.278  11.685
 8193W        W80508  41.835   0.712   2.772
 8194W        W80509  39.447  31.192  13.488
 8195W        W80510   4.668  29.967  12.369
 8196W        W80511  17.038  12.144   4.446
 8197W        W80512  11.920  30.867  12.866
 8198W        W80513   7.113  40.782  11.587
 8199W        W80514   3.714   0.488  11.867
 8200W        W80515  21.743  27.106  12.233
 8201W        W80516   6.341  24.687  12.118
 8202W        W80517  30.335  18.798   4.192
 8203W        W80518   4.447  20.629   4.338
 8204W        W80519  28.520  18.823  13.525
 8205W        W80520   0.471   7.213  13.908
 8206W        W80521  42.484  28.651   0.743
 8207W        W80522   2.614  22.836   2.614
 8208W        W80523  41.523  16.268   0.717
 8209W        W80524   8.839  39.203  11.609
 8210W        W80525  15.874  14.161  11.555
 8211W        W80526  34.035   4.699   0.312
 8212W        W80527  10.341  41.382  12.284
 8213W        W80528   9.654  24.216  14.940
 8214W        W80529  15.627   4.393   3.381
 8215W        W80530  33.146  20.747   1.759
 8216W        W80531  21.691  10.840   0.270
 8217W        W80532   6.385  38.646  14.525
 8218W        W80533  36.424  14.616   1.178
 8219W        W80534  27.506  34.593  11.118
 8220W        W80535  15.889   7.721   2.610
 8221W        W80536  10.373  12.809   3.928
 8222W        W80537  39.137  33.916   4.304
 8223W        W80538   7.417  17.593  11.595
 8224W        W80539  18.740  22.006  12.012
 8225W        W80540   7.936  16.139  12.493
 8226W        W80541   8.230  39.436   2.789
 8227W        W80542   2.575  33.104  14.547
 8228W        W80543  24.991  20.568   1.262
 8229W        W80544  29.466  35.561   1.911
 8230W        W80545   9.152  18.328   3.813
 8231W        W80546  32.462  22.854  13.559
 8232W        W80547  42.482  41.466  10.497
 8233W        W80548  31.686  29.928   2.357
 8234W        W80549  19.459  12.753   4.349
 8235W        W80550   8.402  42.307   2.344
 8236W        W80551   9.078  38.160  12.529
 8237W        W80552  30.096   7.075  11.190
 8238W        W80553  41.383  16.651   0.370
 8239W        W80554  27.512  17.414  14.430
 8240W        W80555   2.503   9.955  12.407
 8241W        W80556   1.618   3.327  12.590
 8242W        W80557   1.482  17.708  12.972
 8243W        W80558  24.338  15.463   4.539
 8244W        W80559  21.950   0.046   0.522
 8245W        W80560   6.393   8.320   0.906
 8246W        W80561  39.482  26.949  11.475
 8247W        W80562   8.844   5.665   1.734
 8248W        W80563  28.916  15.194  13.907
 8249W        W80564  12.738  35.780  14.311
 8250W        W80565  19.717  38.150  10.442
 8251W        W80566  37.263  44.260   4.168
 8252W        W80567  28.592  21.913  10.811
 8253W        W80568  29.302   9.814   9.842
 8254W        W80569  26.939  12.655  14.325
 8255W        W80570  22.467  34.953  10.632
 8256W        W80571  30.468   4.753  12.057
 8257W        W80572   8.913   6.758   0.218
 8258W        W80573  15.068  40.048  12.527
 8259W        W80574  30.389  12.426   4.123
 8260W        W80575  27.582  40.104   3.660
 8261W        W80576  34.949  44.332  12.179
 8262W        W80577   9.856  15.998   0.931
 8263W        W80578  43.038  14.604   2.411
 8264W        W80579  42.028  30.116  12.031
 8265W        W80580  21.786  21.506  12.334
 8266W        W80581  30.308  11.894   2.201
 8267W        W80582   0.284  41.491  13.267
 8268W        W80583  37.109  15.098  10.702
 8269W        W80584  34.778   0.465   3.668
 8270W        W80585  44.020  42.272  14.909
 8271W        W80586  18.034  10.656   1.340
 8272W        W80587  35.935  23.048   3.724
 8273W        W80588  17.849  24.667   1.325
 8274W        W80589  24.643  11.201  13.004
 8275W        W80590   7.341   3.956  11.190
 8276W        W80591  36.511  35.135  12.009
 8277W        W80592   8.769  26.219  10.712
 8278W        W80593  17.751  44.868  10.684
 8279W        W80594  34.810  19.522  10.933
 8280W        W80595  31.134   5.520  12.078
 8281W        W80596  16.133  28.900  13.880
 8282W        W80597  28.249  15.120   0.987
 8283W        W80598  42.992  30.216   3.997
 8284W        W80599  24.062  43.350  14.790
 8285W        W80600  39.930  32.505   0.206
 8286W        W80601  38.278   2.491  13.423
 8287W        W80602  23.525  10.374  11.067
 8288W        W80603   6.937  12.870   2.667
 8289W        W80604  30.100  20.155  11.429
 8290W        W80605  36.014  16.777   4.657
 8291W        W80606  41.994  22.677  14.652
 8292W        W80607  40.774  40.381   0.818
 8293W        W80608  11.627   9.075   4.094
 8294W        W80609  41.956  11.314  14.409
 8295W        W80610  37.272   3.495   3.640
 8296W        W80611  16.111   6.305  13.352
 8297W        W80612  15.522  39.378   4.657
 8298W        W80613  36.360  38.565   0.416
 8299W        W80614  27.163  30.373  11.999
 8300W        W80615  28.528   8.124  11.905
 8301W        W80616  38.442  25.174   0.682
 8302W        W80617  33.035  36.593   0.258
 8303W        W80618  28.087  38.887   3.287
 8304W        W80619  31.955   3.911  12.893
 8305W        W80620  22.587  33.151   0.832
 8306W        W80621  44.287  41.843  12.105
 8307W        W80622  13.258  11.202  10.629
 8308W        W80623   0.291   7.465  11.595
 8309W        W80624  16.182  40.290   0.392
 8310W        W80625  25.591   3.401   0.037
 8311W        W80626  28.436  12.175  13.220
 8312W        W80627  35.664  26.465  11.417
 8313W        W80628  34.975   4.790   3.386
 8314W        W80629  25.453  24.240  14.810
 8315W        W80630  37.087  15.871   1.238
 8316W        W80631  14.308  18.288  12.354
 8317W        W80632  27.204  22.438  11.147
 8318W        W80633  33.982  39.598   0.477
 8319W        W80634  35.451  41.715  12.026
 8320W        W80635   0.504  42.174   3.140
 8321W        W80636  38.240  34.838   1.203
 8322W        W80637  28.663  13.383  11.443
 8323W        W80638  37.533  23.649   4.311
 8324W        W80639  38.648  44.368  12.441
 8325W        W80640  38.973   9.946  13.484
 8326W        W80641   1.875  12.775   3.625
 8327W        W80642  33.083   1.100  13.442
 8328W        W80643  29.437  22.353   4.510
 8329W        W80644  25.159  18.381  11.688
 8330W        W80645  27.105  24.602  13.476
 8331W        W80646  39.620  42.301   1.789
 8332W        W80647  35.611  29.919  10.943
 8333W        W80648  37.969  29.684  13.371
 8334W        W80649  42.278  41.152  12.353
 8335W        W80650  12.874   3.639  14.290
 8336W        W80651  12.296  29.542  14.448
 8337W        W80652  37.978  30.386   0.684
 8338W        W80653  33.626  36.352  11.784
 8339W        W80654  41.771   5.534   2.732
 8340W        W80655  35.642  11.798  10.789
 8341W        W80656  23.571  42.539   0.577
 8342W        W80657   3.462   2.358  14.070
 8343W        W80658  35.366  22.531   3.290
 8344W        W80659   2.298   2.043   3.668
 8345W        W80660  20.286  15.266   2.745
 8346W        W80661  15.164  13.542  10.858
 8347W        W80662   7.179  19.186   2.641
 8348W        W80663  23.967  20.309  12.813
 8349W        W80664  25.609  19.593   0.929
 8350W        W80665  35.653  18.556   1.337
 8351W        W80666   9.673  32.096   1.742
 8352W        W80667   1.006   5.957  14.359
 8353W        W80668   4.750  18.712   1.965
 8354W        W80669   8.531  23.208   0.920
 8355W        W80670  11.033  42.504  11.697
 8356W        W80671   6.954   0.210   3.045
 8357W        W80672   7.047   7.825  13.377
 8358W        W80673  32.477  13.753   3.186
 8359W        W80674  41.080  35.675  13.822
 8360W        W80675  28.600  20.504  10.638
 8361W        W80676  42.898  15.609   0.457
 8362W        W80677  14.486  37.477  12.546
 8363W        W80678  15.805   0.928  11.702
 8364W        W80679  13.054  43.747  10.339
 8365W        W80680   2.978  35.516  10.910
 8366W        W80681  15.177  36.820   3.961
 8367W        W80682  29.961   4.655  12.374
 8368W        W80683  10.209  25.259  12.458
 8369W        W80684  38.919   1.851  12.086
 8370W        W80685  25.670  29.041   1.959
 8371W        W80686  22.015   4.983  13.916
 8372W        W80687  16.136  24.412  13.804
 8373W        W80688  14.100  39.352  11.965
 8374W        W80689  10.321  16.978  11.670
 8375W        W80690  31.082  39.626   1.145
 8376W        W80691  35.525  29.749   5.047
 8377W        W80692  18.751  20.691   0.739
 8378W        W80693  38.550  18.062   2.659
 8379W        W80694   0.253  32.029   2.628
 8380W        W80695   6.357  31.216  11.247
 8381W        W80696  35.412   0.342   4.154
 8382W        W80697  23.009  36.890   0.880
 8383W        W80698   0.208  12.086   0.359
 8384W        W80699  44.791  14.012   0.972
 8385W        W80700  39.691  35.378  12.131
 8386W        W80701  41.186  30.068  14.501
 8387W        W80702   6.390  31.538  13.858
 8388W        W80703   5.535   2.043  14.396
 8389W        W80704  25.327  17.309  11.100
 8390W        W80705  33.487  30.258  11.121
 8391W        W80706  32.396  39.854   1.400
 8392W        W80707  11.854   1.719   0.587
 8393W        W80708  27.762  42.834   2.143
 8394W        W80709  19.626   2.906  14.287
 8395W        W80710  19.354  20.440  14.866
 8396W        W80711  23.930   5.187   0.955
 8397W        W80712  38.132   9.052   1.419
 8398W        W80713  44.923  25.069  12.775
 8399W        W80714  39.058  16.805   2.455
 8400W        W80715   2.487  27.242  11.754
 8401W        W80716   3.804  16.053   3.105
 8402W        W80717  14.616   1.300   2.841
 8403W        W80718   4.583  37.553   5.069
 8404W        W80719  23.537  27.072   1.896
 8405W        W80720  23.340   1.936   1.434
 8406W        W80721  29.130  16.623   2.070
 8407W        W80722  10.659  23.616   3.187
 8408W        W80723  34.558  41.432  13.396
 8409W        W80724  38.029  29.954  11.625
 8410W        W80725  44.769   8.624   3.352
 8411W        W80726  30.162   2.094  13.270
 8412W        W80727  14.824  29.033  10.511
 8413W        W80728   6.409  10.588  14.344
 8414W        W80729  32.430  37.409   1.819
 8415W        W80730  10.936  31.808  11.618
 8416W        W80731   0.200  12.675   3.776
 8417W        W80732   7.309  28.317  13.815
 8418W        W80733  21.737  15.506   0.908
 8419W        W80734  17.930  14.116   0.200
 8420W        W80735  31.935  13.021   1.997
 8421W        W80736   0.499   7.855  13.448
 8422W        W80737   9.190  29.316   3.687
 8423W        W80738  22.716  22.656  10.995
 8424W        W80739   2.866  13.850  13.823
 8425W        W80740  32.265  32.983  11.618
 8426W        W80741   2.539  25.054  11.624
 8427W        W80742  18.133  23.991   1.393
 8428W        W80743  22.328   1.994  12.727
 8429W        W80744  43.373  22.182  14.508
 8430W        W80745  17.755  25.558  14.914
 8431W        W80746  41.029   9.474   3.158
 8432W        W80747  20.635  43.358   4.600
 8433W        W80748  11.387  44.002   3.764
 8434W        W80749  29.181  38.391  13.493
 8435W        W80750  25.258  26.484   0.773
 8436W        W80751  14.626  44.822  11.117
 8437W        W80752  34.617   4.853   0.042
 8438W        W80753  29.604  10.046  10.211
 8439W        W80754  30.627  43.853   1.732
 8440W        W80755   8.268  25.329   1.778
 8441W        W80756  33.945  12.299  12.194
 8442W        W80757  26.059  36.526   4.920
 8443W        W80758  39.291  24.779  11.180
 8444W        W80759  40.080  29.026   2.162
 8445W        W80760  30.558  42.260   4.693
 8446W        W80761  12.161   0.672   0.507
 8447W        W80762  41.235  28.528  12.491
 8448W        W80763  42.399  36.271  11.696
 8449W        W80764   3.412   7.186  10.277
 8450W        W80765   6.301  11.283  13.966
 8451W        W80766  15.001   1.829  12.034
 8452W        W80767  37.972  10.555   1.166
 8453W        W80768  41.335  32.960  11.961
 8454W        W80769  10.122  37.402  10.643
 8455W        W80770   7.590  37.420   2.734
 8456W        W80771  42.928  36.177  11.134
 8457W        W80772  23.440  33.606  11.309
 8458W        W80773  39.041  34.699  13.311
 8459W        W80774  14.601  38.486   4.496
 8460W        W80775  38.610  20.822  11.581
 8461W        W80776  18.048  40.072  14.259
 8462W        W80777  22.205  13.392  13.444
 8463W        W80778   8.930   6.815   0.724
 8464W        W80779  13.085  11.226  14.093
 8465W        W80780   2.409  19.354  12.995
 8466W        W80781  14.387  26.590  11.578
 8467W        W80782  44.433  22.306   4.696
 8468W        W80783  37.321  16.990  11.100
 8469W        W80784   7.780  14.649   4.956
 8470W        W80785  14.141  22.031   0.366
 8471W        W80786  17.699   8.465  12.914
 8472W        W80787  25.684  20.550   2.084
 8473W        W80788  30.627  37.123   3.183
 8474W        W80789   6.464  17.595  11.961
 8475W        W80790  20.370   8.489   5.440
 8476W        W80791  38.790  16.711   4.317
 8477W        W80792   5.677  28.727   0.414
 8478W        W80793  40.324  30.754   0.254
 8479W        W80794  26.937  40.318  13.339
 8480W        W80795  29.653  16.307  11.855
 8481W        W80796  17.688   6.760  11.861
 8482W        W80797   4.841  16.714  14.017
 8483W        W80798  10.613  28.128  12.997
 8484W        W80799   5.362  44.030  13.980
 8485W        W80800   4.301  39.849  13.304
 8486W        W80801  19.082  23.510  12.424
 8487W        W80802  21.385  14.519   3.216
 8488W        W80803  31.979   5.367   2.459
 8489W        W80804  16.717   3.081  11.917
 8490W        W80805  21.554  15.588   1.387
 8491W        W80806  44.194  38.323  14.488
 8492W        W80807  24.305  30.904  12.703
 8493W        W80808  36.000  41.539   2.727
 8494W        W80809  29.466   6.789  10.351
 8495W        W80810  32.763   6.958   0.850
 8496W        W80811   3.793  37.616   2.729
 8497W        W80812  10.751  12.621   4.594
 8498W        W80813  35.165  14.392   2.068
 8499W        W80814   6.284  37.003   1.017
 8500W        W80815  16.378  42.862  10.884
 8501W        W80816  18.561   1.896   1.012
 8502W        W80817   5.986  24.073   2.493
 8503W        W80818  14.011   7.823  14.348
 8504W        W80819   0.171   6.701   3.668
 8505W        W80820   0.713  10.441  14.795
 8506W        W80821  27.015  21.051  10.741
 8507W        W80822  31.816  39.835   1.823
 8508W        W80823   1.061  19.699  11.528
 8509W        W80824  12.658  12.570   2.234
 8510W        W80825  40.887  25.108   5.088
 8511W        W80826  26.723   6.549   5.053
 8512W        W80827  18.630  13.320   0.805
 8513W        W80828  20.569  19.807  12.056
 8514W        W80829  27.147  18.177   2.381
 8515W        W80830  13.218   8.375  14.260
 8516W        W80831  35.557  14.684   4.216
 8517W        W80832  38.669   4.357  10.666
 8518W        W80833  44.549  10.655   4.184
 8519W        W80834  15.462  10.175  10.729
 8520W        W80835   8.944  15.055   2.443
 8521W        W80836  41.295  41.490  14.716
 8522W        W80837  43.755  31.224  11.589
 8523W        W80838  22.856  40.739   4.217
 8524W        W80839   9.840  37.003  11.068
 8525W        W80840  24.355  11.110   3.236
 8526W        W80841  38.003  27.427   2.172
 8527W        W80842  20.603  14.353  14.048
 8528W        W80843  37.822  44.077  10.953
 8529W        W80844  25.214  18.373  10.741
 8530W        W80845   9.847  43.327   0.762
 8531W        W80846  20.211  19.790   2.951
 8532W        W80847   5.313  24.096  14.680
 8533W        W80848  15.921   7.721   1.708
 8534W        W80849   8.112  39.315   0.308
 8535W        W80850  37.303  36.315  13.347
 8536W        W80851  15.239   1.341   2.451
 8537W        W80852  25.506  42.091   0.529
 8538W        W80853  31.439  40.596  12.530
 8539W        W80854   3.812  42.912  14.865
 8540W        W80855  19.698  17.260   2.659
 8541W        W80856   3.987  34.273   0.258
 8542W        W80857  31.733   8.362  11.679
 8543W        W80858   2.728  15.629  11.507
 8544W        W80859  12.501   2.692   2.617
 8545W        W80860  10.173  34.079  12.943
 8546W        W80861   5.126  11.218   1.831
 8547W        W80862  34.458  32.271  14.179
 8548W        W80863  24.900   3.683  11.354
 8549W        W80864  32.140   2.680   3.807
 8550W        W80865  19.740  37.157  11.154
 8551W        W80866  14.131  17.255  12.158
 8552W        W80867   7.737  44.785   2.570
 8553W        W80868  43.672  33.025   3.291
 8554W        W80869  14.356   1.325   3.308
 8555W        W80870   6.812  23.430  13.974
 8556W        W80871  36.185  36.540   1.291
 8557W        W80872  41.370   5.618   2.400
 8558W        W80873  39.485  16.736  13.571
 8559W        W80874   7.918  44.882  11.164
 8560W        W80875  38.288   0.998  14.846
 8561W        W80876  27.639  20.175   4.714
 8562W        W80877  16.017   2.911  11.590
 8563W        W80878   4.966  38.971   2.892
 8564W        W80879  37.619  16.529  12.518
 8565W        W80880   1.202  37.581   0.838
 8566W        W80881  37.412  28.974   2.860
 8567W        W80882  39.372  37.360  13.410
 8568W        W80883  19.077   1.405   2.663
 8569W        W80884   8.729  36.881  12.202
 8570W        W80885   7.643  11.160  13.200
 8571W        W80886  21.791  17.320   4.551
 8572W        W80887   4.734  17.098   4.466
 8573W        W80888  29.619  30.982   5.035
 8574W        W80889  25.483  27.207   0.208
 8575W        W80890   8.252  34.571   1.928
 8576W        W80891  43.574  14.787   3.323
 8577W        W80892  40.502   1.275  12.442
 8578W        W80893  41.763   3.366   2.343
 8579W        W80894  11.352  17.564  10.354
 8580W        W80895  23.155  24.104  13.041
 8581W        W80896  13.044  33.451  11.619
 8582W        W80897  12.011   6.595  14.349
 8583W        W80898  14.560  16.790  13.770
 8584W        W80899  19.049  17.580   3.947
 8585W        W80900   7.783  34.292   1.346
 8586W        W80901  10.737  30.901  14.865
 8587W        W80902  32.167  37.514   0.497
 8588W        W80903  18.603  14.746   4.115
 8589W        W80904  21.955   5.737  12.210
 8590W        W80905   4.479  44.459  11.197
 8591W        W80906  22.546  42.041   1.947
 8592W        W80907  36.325  33.187   4.465
 8593W        W80908   8.359  10.653   0.189
 8594W        W80909  41.262  22.710   2.790
 8595W        W80910   6.590  43.447   4.875
 8596W        W80911  44.577  25.162  10.225
 8597W        W80912   5.886  36.859   3.849
 8598W        W80913  23.456  32.458   4.608
 8599W        W80914  28.195  33.867  11.894
 8600W        W80915  18.187  32.956   1.504
 8601W        W80916  22.250   7.325  13.864
 8602W        W80917  28.466  43.954   2.330
 8603W        W80918  37.021  31.456   4.692
 8604W        W80919  23.316  18.487  10.191
 8605W        W80920   7.802   8.797   1.416
 8606W        W80921  40.768  44.140  14.823
 8607W        W80922  21.358  18.116   3.645
 8608W        W80923  13.847   0.500  14.841
 8609W        W80924   2.439   4.774   1.696
 8610W        W80925  37.170  43.397  11.241
 8611W        W80926  32.457  36.427   1.789
 8612W        W80927  33.907   0.735  13.518
 8613W        W80928   6.942   6.208  13.934
 8614W        W80929  39.410  43.619   1.242
 8615W        W80930   3.233   8.443   3.151
 8616W        W80931  12.772  12.156  14.594
 8617W        W80932  24.371  10.550   0.116
 8618W        W80933  40.348  41.394   3.642
 8619W        W80934  13.580  11.345  13.259
 8620W        W80935  41.301  26.890  14.839
 8621W        W80936   6.462  13.253  12.056
 8622W        W80937   0.633  12.252   1.722
 8623W        W80938  19.342  12.682   3.843
 8624W        W80939   4.928  12.852   2.489
 8625W        W80940  31.934  17.328  14.963
 8626W        W80941  13.543  40.367  14.858
 8627W        W80942   3.213  17.542   4.677
 8628W        W80943   8.978  18.614  10.279
 8629W        W80944  24.014   3.409   3.151
 8630W        W80945  42.678   6.203   2.880
 8631W        W80946  21.589  41.401  11.196
 8632W        W80947  11.208   1.664  13.013
 8633W        W80948  14.335  36.370  14.021
 8634W        W80949  16.322  29.972   1.872
 8635W        W80950  13.318  27.627   3.196
 8636W        W80951  34.409  37.867  13.640
 8637W        W80952  39.990  16.992   2.344
 8638W        W80953  29.068  43.431  12.951
 8639W        W80954  30.908  44.439   4.578
 8640W        W80955   9.217  37.270   1.923
 8641W        W80956  35.547  34.341   0.302
 8642W        W80957  26.196  21.396  10.846
 8643W        W80958  23.610  25.130   3.644
 8644W        W80959  13.360  30.053   2.692
 8645W        W80960  14.189   2.689   2.166
 8646W        W80961  38.521  27.670  14.005
 8647W        W80962  19.724  40.828  13.102
 8648W        W80963  35.473   3.717   3.200
 8649W        W80964  39.495  28.415  14.897
 8650W        W80965  40.417  31.178  13.447
 8651W        W80966  35.636  20.200   1.471
 8652W        W80967  44.357  15.561   2.844
 8653W        W80968   7.836  24.754  12.620
 8654W        W80969  24.760  22.247   4.092
 8655W        W80970  25.577   6.208   2.369
 8656W        W80971  20.297   1.024   1.855
 8657W        W80972  12.563   2.393  12.518
 8658W        W80973  21.629  32.228   0.715
 8659W        W80974  41.051  35.534   1.288
 8660W        W80975  34.818  32.521  13.454
 8661W        W80976  25.941  43.249   3.404
 8662W        W80977   8.033  25.245   0.865
 8663W        W80978  33.106  40.409  12.711
 8664W        W80979   2.413  41.940   0.325
 8665W        W80980   1.290  13.921   2.813
 8666W        W80981  26.645  31.401   1.279
 8667W        W80982   2.806  27.926   3.980
 8668W        W80983   2.216  40.943   0.875
 8669W        W80984  36.961   4.973  11.767
 8670W        W80985  39.913  24.044   3.240
 8671W        W80986  23.252  39.978   0.168
 8672W        W80987  21.023  35.818  12.551
 8673W        W80988  44.596  10.613  13.973
 8674W        W80989  26.163  36.179  12.101
 8675W        W80990  31.244  25.683  14.622
 8676W        W80991  21.037   9.862   1.331
 8677W        W80992   5.479  14.979  13.897
 8678W        W80993   5.794  11.111  14.720
 8679W        W80994  12.336  36.485  12.487
 8680W        W80995  28.812  38.968   4.072
 8681W        W80996  16.327  44.924   3.625
 8682W        W80997  11.831  23.228   2.230
 8683W        W80998  44.830  16.283   1.861
 8684W        W80999   0.229   9.977   2.238
 8685W        W81000   1.451  39.909  11.983
 8686W        W81001   6.179  30.473   4.662
 8687W        W81002  14.875  39.442   2.917
 8688W        W81003  44.383  29.458  11.528
 8689W        W81004   7.372  21.282   4.316
 8690W        W81005  28.558  38.902  12.012
 8691W        W81006  20.816  39.407   2.381
 8692W        W81007  23.337   8.139   4.583
 8693W        W81008   9.269   6.901   3.825
 8694W        W81009  12.784  30.155   0.038
 8695W        W81010  27.175  34.524   3.603
 8696W        W81011  34.163  39.123   0.364
 8697W        W81012  41.020  11.518  12.179
 8698W        W81013  16.108   4.277  14.359
 8699W        W81014   0.392  16.132   1.238
 8700W        W81015  39.771   3.770  11.171
 8701W        W81016  38.671  20.500  11.161
 8702W        W81017  41.184  35.274  11.357
 8703W        W81018   3.810  15.076  12.964
 8704W        W81019  40.393  37.895   4.412
 8705W        W81020  15.248  37.797   1.703
 8706W        W81021  43.763  31.347  10.759
 8707W        W81022  43.786  38.033  13.915
 8708W        W81023  18.080  12.607  12.930
 8709W        W81024  44.424  43.140   2.345
 8710W        W81025   9.492  35.062   2.236
 8711W        W81026   7.251   7.843  13.949
 8712W        W81027  13.469  12.668   4.602
 8713W        W81028   1.054  37.361  10.208
 8714W        W81029  38.969  18.084   4.404
 8715W        W81030  10.268  25.249   1.810
 8716W        W81031  17.724  22.673  12.393
 8717W        W81032   9.886  27.566  13.881
 8718W        W81033  26.750  13.393   2.072
 8719W        W81034  29.907  40.802  14.832
 8720W        W81035  21.297  43.784  10.678
 8721W        W81036  24.187   0.757  11.608
 8722W        W81037  30.845  38.481  14.334
 8723W        W81038  35.087   7.285   2.076
 8724W        W81039  18.532  43.102   3.722
 8725W        W81040  12.878  15.559  11.698
 8726W        W81041  12.708  10.277  13.147
 8727W        W81042  17.519  24.522  13.880
 8728W        W81043   9.456  12.174   4.212
 8729W        W81044  12.786  28.592   0.286
 8730W        W81045  12.873   0.924   2.786
 8731W        W81046  36.450  18.126  13.337
 8732W        W81047  29.099  12.909   1.320
 8733W        W81048  36.633  25.668   1.940
 8734W        W81049   0.636  18.536   3.308
 8735W        W81050   3.031   8.138   1.897
 8736W        W81051  13.881  10.742   0.269
 8737W        W81052  37.858  37.459  11.020
 8738W        W81053  42.524  42.524  14.727
 8739W        W81054  37.074  19.615   2.667
 8740W        W81055  41.091  43.430   3.951
 8741W        W81056  13.666  39.460  14.797
 8742W        W81057   3.808   0.326   1.267
 8743W        W81058  42.993  24.566   3.430
 8744W        W81059  33.131  44.945   1.456
 8745W        W81060  25.950  26.012   4.510
 8746W        W81061  39.350  31.606  10.701
 8747W        W81062  15.044  17.212  11.685
 8748W        W81063  12.718   4.091   0.386
 8749W        W81064  34.267  28.677  13.538
 8750W        W81065  41.461  25.646  13.011
 8751W        W81066  20.541  10.713   1.019
 8752W        W81067  10.727  28.838   3.590
 8753W        W81068  23.766   9.308   4.688
 8754W        W81069  23.586  16.110  11.696
 8755W        W81070  25.320  18.376  14.435
 8756W        W81071   9.356  16.079  14.098
 8757W        W81072  38.828   9.877  10.260
 8758W        W81073   2.918  42.012   2.775
 8759W        W81074  27.158  13.769  14.500
 8760W        W81075   2.319  40.727  12.573
 8761W        W81076  44.706  38.011   3.903
 8762W        W81077  22.724  33.394   3.233
 8763W        W81078  17.194  25.420  13.007
 8764W        W81079  41.190  44.224   0.436
 8765W        W81080  29.950   4.768   0.607
 8766W        W81081  18.158  44.697   1.407
 8767W        W81082  25.224   2.179  13.299
 8768W        W81083   4.405  26.431  11.983
 8769W        W81084  34.368  12.235   3.197
 8770W        W81085  37.439  17.518   4.158
 8771W        W81086  25.032  19.407  10.692
 8772W        W81087  14.091   3.632  11.077
 8773W        W81088  28.236   4.925   1.763
 8774W        W81089   6.809  35.383  11.556
 8775W        W81090  12.360  43.432   2.209
 8776W        W81091  43.927  31.997   4.418
 8777W        W81092  15.789  43.914   1.052
 8778W        W81093  22.583  10.170  12.533
 8779W        W81094  12.044   2.479  13.880
 8780W        W81095   0.637  15.654   2.203
 8781W        W81096  18.112  15.993  12.023
 8782W        W81097  26.024   7.073   3.269
 8783W        W81098  36.304  33.368  14.444
 8784W        W81099  14.534   2.714   0.859
 8785W        W81100   9.605   3.228  10.662
 8786W        W81101  40.228  27.895  12.928
 8787W        W81102  23.727   4.717   0.249
 8788W        W81103   0.109  15.705  12.414
 8789W        W81104  35.916  41.940  14.787
 8790W        W81105   0.262   4.501   0.920
 8791W        W81106  44.406  29.559   5.076
 8792W        W81107   9.422  22.271   0.426
 8793W        W81108  13.931  34.991  10.408
 8794W        W81109  42.276  22.281  13.898
 8795W        W81110  44.692   2.527   3.651
 8796W        W81111  38.951  44.015  11.580
 8797W        W81112   6.134  31.969  13.759
 8798W        W81113  16.334   0.020  14.974
 8799W        W81114  28.062  43.391   4.485
 8800W        W81115  35.514  29.802  14.835
 8801W        W81116  13.881  36.388  14.933
 8802W        W81117  41.392  32.754  11.454
 8803W        W81118  44.863  33.018   1.266
 8804W        W81119  23.046  12.629  12.603
 8805W        W81120  11.152  25.059  11.486
 8806W        W81121  24.129  18.267   4.233
 8807W        W81122  41.496   9.259  13.272
 8808W        W81123  23.139  21.575   3.271
 8809W        W81124  36.513  14.339  11.924
 8810W        W81125  31.681  27.967  11.092
 8811W        W81126   8.144  38.610   1.786
 8812W        W81127   0.394  18.355   4.112
 8813W        W81128  31.212  15.662   0.825
 8814W        W81129  38.598   3.971   4.261
 8815W        W81130  42.890  25.202  11.930
 8816W        W81131   6.744  39.212  12.975
 8817W        W81132   0.406  21.966  14.951
 8818W        W81133  29.933   3.025   0.670
 8819W        W81134  37.354   5.904   0.814
 8820W        W81135   7.108  29.522  12.334
 8821W        W81136  41.985  30.208   1.417
 8822W        W81137   9.834   1.164   0.077
 8823W        W81138   6.291   3.133   2.353
 8824W        W81139  12.753  30.343  12.346
 8825W        W81140  27.904  12.413   4.107
 8826W        W81141  30.562  33.451  11.568
 8827W        W81142  28.135  31.092  14.486
 8828W        W81143  26.477   7.074   1.735
 8829W        W81144  19.012  20.989   2.036
 8830W        W81145  12.961  12.561  12.035
 8831W        W81146  13.027  10.311   2.285
 8832W        W81147  41.820  33.225   2.223
 8833W        W81148  40.762  24.744   3.810
 8834W        W81149  26.251  10.945   0.301
 8835W        W81150  22.051   4.384  11.655
 8836W        W81151  36.941  41.248   2.231
 8837W        W81152  24.569   3.205  10.489
 8838W        W81153  15.149  42.905  14.272
 8839W        W81154  27.537   9.920  11.080
 8840W        W81155  24.545  21.585   5.502
 8841W        W81156  10.073  40.505  11.740
 8842W        W81157  16.562  35.110  14.661
 8843W        W81158  19.267  31.829  12.848
 8844W        W81159  15.672  44.933  10.581
 8845W        W81160  34.901  32.663  11.135
 8846W        W81161  16.792  27.673  12.067
 8847W        W81162   6.402   4.469   2.964
 8848W        W81163  15.588  34.603   1.307
 8849W        W81164  36.904  26.918   3.584
 8850W        W81165  14.290  18.592   3.383
 8851W        W81166  28.108  22.295   1.434
 8852W        W81167  27.349  34.371  11.586
 8853W        W81168  41.383  24.845  13.521
 8854W        W81169  28.124   6.126   1.289
 8855W        W81170   1.493  25.985   3.271
 8856W        W81171  18.195  23.465  12.457
 8857W        W81172   8.410  18.018   0.401
 8858W        W81173  33.071  39.878  11.947
 8859W        W81174  42.775  19.450  14.610
 8860W        W81175  40.258  36.496   1.820
 8861W        W81176  11.896  32.546   1.533
 8862W        W81177  39.510  12.459  14.615
 8863W        W81178   6.872  15.794   2.224
 8864W        W81179  31.701  22.612   4.470
 8865W        W81180   6.732  43.111  11.065
 8866W        W81181  25.191  40.483  10.677
 8867W        W81182  28.450  38.866   4.414
 8868W        W81183  34.105  38.770   3.050
 8869W        W81184   1.487  21.122  10.683
 8870W        W81185   0.239  14.024  13.020
 8871W        W81186  36.435  35.266   1.780
 8872W        W81187  30.078  32.857  12.832
 8873W        W81188  40.036  38.070  12.007
 8874W        W81189  10.902  31.811  12.517
 8875W        W81190  32.189   3.246   5.034
 8876W        W81191  18.874  37.784   4.791
 8877W        W81192   9.572  19.219   5.048
 8878W        W81193   4.911  37.302  14.809
 8879W        W81194  35.092  42.523  11.119
 8880W        W81195  28.487  34.463  14.496
 8881W        W81196  34.595  41.930   2.425
 8882W        W81197  27.231  28.491  13.702
 8883W        W81198  32.192  43.479   4.190
 8884W        W81199  14.584   4.998   0.827
 8885W        W81200  36.375  37.206   3.670
 8886W        W81201  24.390  23.586   3.531
 8887W        W81202  26.072   8.900   1.784
 8888W        W81203  33.089  39.565  10.792
 8889W        W81204  19.801  29.899   4.070
 8890W        W81205  39.026  11.835   2.149
 8891W        W81206  15.376  24.089  10.812
 8892W        W81207  34.960  15.706  13.002
 8893W        W81208  32.701  32.512   0.005
 8894W        W81209  21.984  37.501  13.764
 8895W        W81210   6.272   7.606   0.406
 8896W        W81211  18.714  18.749   3.746
 8897W        W81212  36.846  39.521  10.593
 8898W        W81213  18.227   4.013  12.939
 8899W        W81214  40.115   8.188   2.331
 8900W        W81215  18.896  28.261  13.931
 8901W        W81216  12.376   3.978  11.063
 8902W        W81217  17.080  25.076   0.340
 8903W        W81218  35.130  41.245   1.752
 8904W        W81219  24.495  41.562  12.290
 8905W        W81220   3.277  34.562  10.719
 8906W        W81221  39.403  25.195   2.632
 8907W        W81222  19.427  30.303   4.846
 8908W        W81223  37.997  44.021  13.002
 8909W        W81224   0.231   8.358  10.304
 8910W        W81225  24.227  19.006   2.570
 8911W        W81226  41.859  38.642   5.053
 8912W        W81227  23.513  27.024   0.406
 8913W        W81228   3.722  22.019   4.141
 8914W        W81229  40.125   6.880   3.206
 8915W        W81230   8.799  37.119  13.176
 8916W        W81231   3.863  10.306  13.067
 8917W        W81232  25.625  41.925  12.669
 8918W        W81233  44.978  40.995  12.943
 8919W        W81234   9.916  11.584   2.315
 8920W        W81235  42.931  41.402  11.413
 8921W        W81236  37.789   4.791   2.321
 8922W        W81237   2.803   1.797  12.976
 8923W        W81238  38.628  20.770  10.685
 8924W        W81239   0.783  42.816   2.810
 8925W        W81240   7.182  21.863  13.488
 8926W        W81241  17.694  37.968  11.225
 8927W        W81242  16.299   2.782  12.005
 8928W        W81243   3.324  34.691   4.653
 8929W        W81244  25.192  19.136   4.551
 8930W        W81245   6.402   2.956  13.508
 8931W        W81246  15.854  26.937   2.313
 8932W        W81247  35.893   2.393  10.856
 8933W        W81248  22.993  20.906  12.472
 8934W        W81249   5.932  16.199   1.992
 8935W        W81250  35.482  26.494  13.584
 8936W        W81251  44.547  26.192  11.775
 8937W        W81252  26.113   2.750  14.152
 8938W        W81253  39.455   0.093   3.302
 8939W        W81254  30.457  40.332   2.673
 8940W        W81255   9.359  15.854  13.618
 8941W        W81256   7.089  39.820  13.515
 8942W        W81257  37.938  14.873  14.777
 8943W        W81258  38.087  39.242   2.257
 8944W        W81259  35.006  26.650   5.039
 8945W        W81260  36.510  29.737  13.037
 8946W        W81261  16.645   8.217   4.871
 8947W        W81262  31.329  28.773  11.218
 8948W        W81263   5.934  11.193   2.188
 8949W        W81264  24.419   5.248   1.775
 8950W        W81265  15.360  40.528   2.359
 8951W        W81266  40.014  40.923   2.827
 8952W        W81267  28.005  22.360   0.288
 8953W        W81268  24.232   6.642   0.602
 8954W        W81269   6.708  16.557  14.086
 8955W        W81270  43.967  16.085  11.398
 8956W        W81271   3.382   2.180   0.758
 8957W        W81272  15.280  38.208  14.707
 8958W        W81273  17.328  16.600   2.954
 8959W        W81274  26.559  25.577  10.283
 8960W        W81275  36.066  24.543  11.171
 8961W        W81276   2.720  39.908   4.573
 8962W        W81277  29.868  34.910  10.881
 8963W        W81278  16.551  24.564   2.701
 8964W        W81279  37.684  35.036   3.334
 8965W        W81280  43.748  26.052   4.628
 8966W        W81281  23.270  11.721  13.610
 8967W        W81282  21.695  30.907  10.750
 8968W        W81283   6.941   0.901  13.970
 8969W        W81284  36.813  23.672   1.318
 8970W        W81285  42.513   8.630  13.788
 8971W        W81286   1.511  34.013   0.953
 8972W        W81287   1.700  44.400  14.111
 8973W        W81288   9.015  26.179   1.362
 8974W        W81289  43.714  11.995  10.620
 8975W        W81290  33.551   5.409   2.445
 8976W        W81291  24.433  32.301   1.393
 8977W        W81292   2.798  44.749   2.265
 8978W        W81293   1.395  14.558   0.386
 8979W        W81294  43.144  36.860   2.720
 8980W        W81295  31.095  18.668   4.512
 8981W        W81296  14.285  39.850   3.682
 8982W        W81297  30.379  44.968   1.275
 8983W        W81298  32.013   3.428  13.104
 8984W        W81299  22.736  41.501   3.702
 8985W        W81300  27.725  34.391   4.902
 8986W        W81301  40.013  20.617  14.834
 8987W        W81302  37.091  41.241   4.365
 8988W        W81303  41.431  32.416  12.823
 8989W        W81304  18.686  29.603   0.824
 8990W        W81305  30.895  23.700   0.299
 8991W        W81306   6.375  29.401  10.729
 8992W        W81307   4.483   3.388  11.478
 8993W        W81308  29.466   2.682  14.238
 8994W        W81309   2.529   9.932  11.128
 8995W        W81310  26.957  16.512   1.279
 8996W        W81311   3.592   0.411  13.904
 8997W        W81312  22.123  41.948   2.210
 8998W        W81313   8.423  42.473   2.847
 8999W        W81314  22.682   1.219   2.669
 9000W        W81315   5.356  37.029  12.557
 9001W        W81316   7.105  22.033  14.293
 9002W        W81317   7.749   1.622   4.211
 9003W        W81318  34.121  35.755   0.853
 9004W        W81319  12.910  14.650   1.687
 9005W        W81320  15.758  13.544  13.861
 9006W        W81321  16.713  26.359   3.307
 9007W        W81322  17.087   1.963  13.078
 9008W        W81323  18.338  15.250  14.949
 9009W        W81324  29.393  36.001   1.447
 9010W        W81325  16.506  31.140   3.012
 9011W        W81326  29.713  28.976   1.652
 9012W        W81327   2.273  27.093  14.471
 9013W        W81328  37.008   0.253  10.388
 9014W        W81329  42.112   0.411  13.107
 9015W        W81330   5.080  23.426   3.260
 9016W        W81331  17.763   1.811   4.067
 9017W        W81332  44.234   5.616   4.189
 9018W        W81333  42.086  27.278  12.851
 9019W        W81334  39.584  17.074  14.836
 9020W        W81335  19.439  20.273  14.381
 9021W        W81336  38.394  15.009  11.884
 9022W        W81337   0.750   9.741  14.156
 9023W        W81338  18.539  42.310  13.000
 9024W        W81339   7.093  40.277   2.267
 9025W        W81340  20.195  38.299  10.275
 9026W        W81341  29.059  44.057   4.728
 9027W        W81342  21.972  24.720  12.738
 9028W        W81343  44.817  27.900  12.037
 9029W        W81344   7.376  24.213  11.265
 9030W        W81345  19.909  20.524   0.377
 9031W        W81346  34.593  37.442  13.410
 9032W        W81347  43.231   3.661  13.793
 9033W        W81348  23.784  38.073   4.265
 9034W        W81349  14.702  29.925  14.579
 9035W        W81350  39.119  25.989   4.543
 9036W        W81351  34.609   2.911   2.349
 9037W        W81352  31.522  19.730  13.474
 9038W        W81353  39.136  27.163  12.094
 9039W        W81354  17.333  23.557  12.523
 9040W        W81355  37.331  16.153  13.854
 9041W        W81356  18.826  12.129  10.627
 9042W        W81357  32.557  25.916   0.770
 9043W        W81358  39.445  36.359  13.616
 9044W        W81359   8.423  15.942  12.610
 9045W        W81360  31.389   5.006  11.136
 9046W        W81361  11.278   0.650  10.900
 9047W        W81362  43.447  38.892   0.628
 9048W        W81363  18.741  44.226  11.033
 9049W        W81364  14.852   3.208  11.221
 9050W        W81365  16.831   9.234   9.923
 9051W        W81366  33.096   0.725   3.365
 9052W        W81367  15.725  11.805   0.461
 9053W        W81368  42.068   4.205   0.870
 9054W        W81369   0.885   1.442  13.327
 9055W        W81370   1.872  27.101  14.082
 9056W        W81371   7.238  31.450   0.212
 9057W        W81372  44.014  25.420   0.435
 9058W        W81373  19.088   0.948   1.377
 9059W        W81374  19.031  11.775  11.063
 9060W        W81375  21.084  11.295   3.831
 9061W        W81376  27.631  13.157   2.606
 9062W        W81377  14.810  29.554  12.479
 9063W        W81378  23.000   6.661  12.582
 9064W        W81379  11.092  34.470   0.345
 9065W        W81380  17.622  31.239  10.772
 9066W        W81381  27.952  27.937  10.719
 9067W        W81382  28.495  37.271  11.076
 9068W        W81383  39.526  23.706  11.957
 9069W        W81384  37.994  29.361  12.929
 9070W        W81385  31.790  30.992  11.971
 9071W        W81386  19.655  31.036   2.172
 9072W        W81387  13.260  11.969   0.559
 9073W        W81388  15.293  19.174  13.309
 9074W        W81389  16.094  10.715   4.357
 9075W        W81390   2.275  37.042   3.943
 9076W        W81391  21.719  36.323  14.980
 9077W        W81392  44.526   2.668   3.187
 9078W        W81393  34.165  43.815  14.469
 9079W        W81394  44.471  35.633  10.702
 9080W        W81395  25.430  30.061  14.907
 9081W        W81396  14.842  19.538  14.911
 9082W        W81397  16.280  19.295   1.773
 9083W        W81398  11.041   2.332  12.557
 9084W        W81399  20.839  35.528  11.458
 9085W        W81400   1.426  25.082  10.902
 9086W        W81401  17.817  13.134   2.412
 9087W        W81402  21.220  22.670  13.899
 9088W        W81403   5.481  15.421   2.956
 9089W        W81404  31.974  39.054   1.200
 9090W        W81405  44.806   8.334  11.179
 9091W        W81406   1.666  43.103   3.222
 9092W        W81407   2.915   1.577  14.872
 9093W        W81408  27.531   6.027  14.492
 9094W        W81409  14.110  28.249   0.344
 9095W        W81410  29.572  30.527  10.736
 9096W        W81411  38.734  24.476   4.907
 9097W        W81412  44.882  43.008   3.618
 9098W        W81413  37.659  26.416   1.813
 9099W        W81414  15.223  11.826   3.769
 9100W        W81415  19.560  40.955  10.030
 9101W        W81416  19.088  43.427  11.210
 9102W        W81417  18.781  39.662   4.631
 9103W        W81418  44.041  35.163   2.171
 9104W        W81419  25.135  11.267   1.825
 9105W        W81420  38.282  43.645   3.189
 9106W        W81421   8.557   3.858   0.849
 9107W        W81422   8.581  20.935   1.964
 9108W        W81423   3.314  31.375  13.826
 9109W        W81424  38.225   9.721  11.467
 9110W        W81425  11.614  20.070  14.716
 9111W        W81426  44.753   4.281   0.773
 9112W        W81427  24.609   8.354  11.038
 9113W        W81428  35.608   6.883   1.289
 9114W        W81429   5.338  41.004   3.250
 9115W        W81430  21.481  11.628   2.583
 9116W        W81431   6.019  28.029  14.004
 9117W        W81432  44.173  12.413  14.429
 9118W        W81433  12.608  32.195  13.156
 9119W        W81434  20.327  35.461   1.745
 9120W        W81435  39.566   2.768  14.465
 9121W        W81436  26.999  13.396  14.832
 9122W        W81437  31.083  40.914   4.785
 9123W        W81438  42.333   7.449  11.299
 9124W        W81439  22.491  13.971   2.920
 9125W        W81440   6.390  29.104   4.922
 9126W        W81441   4.305  34.837  14.135
 9127W        W81442  14.069   4.969   3.076
 9128W        W81443  17.829  27.887  12.985
 9129W        W81444  17.046  25.788   1.034
 9130W        W81445  39.842   7.182  12.070
 9131W        W81446   9.180  18.220   1.930
 9132W        W81447  13.327  23.354  12.094
 9133W        W81448   8.055  34.611  10.629
 9134W        W81449  35.875   8.233   1.393
 9135W        W81450  21.040  41.973  11.516
 9136W        W81451   4.197  44.489   0.843
 9137W        W81452   4.720  38.732   5.033
 9138W        W81453  37.042   1.127   4.403
 9139W        W81454   1.163  16.535  11.553
 9140W        W81455   2.805  40.097   1.799
 9141W        W81456   7.279  23.925   2.873
 9142W        W81457  13.552  15.540   3.053
 9143W        W81458  29.962  34.294  11.666
 9144W        W81459  43.538   2.997   4.164
 9145W        W81460  12.835  38.809   1.233
 9146W        W81461  28.133   2.786   3.389
 9147W        W81462  14.505   2.314  12.640
 9148W        W81463   5.624  25.010  13.507
 9149W        W81464   4.720  25.029  11.947
 9150W        W81465   5.670  19.716  14.532
 9151W        W81466  28.667  26.362   4.086
 9152W        W81467  32.578  17.592   2.363
 9153W        W81468  37.461  24.404  11.652
 9154W        W81469  42.059  43.242   1.974
 9155W        W81470  28.422  29.425   1.888
 9156W        W81471   2.126   5.296  13.579
 9157W        W81472  41.601  34.555   3.179
 9158W        W81473  24.587   6.004   4.223
 9159W        W81474  44.879  12.414  12.824
 9160W        W81475  37.617  10.233  12.965
 9161W        W81476  17.474   2.920   1.337
 9162W        W81477  27.206  16.049   0.366
 9163W        W81478  31.562  14.676   4.834
 9164W        W81479  25.011  27.084   1.480
 9165W        W81480  40.258  10.311   3.746
 9166W        W81481  43.300  33.452  14.927
 9167W        W81482  41.273  24.885   2.224
 9168W        W81483  39.293  10.774   4.680
 9169W        W81484  39.255   8.647   4.473
 9170W        W81485  42.516  39.542   0.348
 9171W        W81486  22.168  29.559   0.389
 9172W        W81487  29.029   3.357   0.921
 9173W        W81488  27.002  15.872   3.034
 9174W        W81489   9.377  11.694   3.199
 9175W        W81490  18.655  33.504   4.663
 9176W        W81491  44.242  37.717   3.787
 9177W        W81492  33.042  20.094   3.350
 9178W        W81493   7.467  40.826  11.208
 9179W        W81494   0.992   7.853  14.805
 9180W        W81495  20.950  18.739   2.783
 9181W        W81496   1.839   7.367  11.668
 9182W        W81497  13.224   7.167   1.352
 9183W        W81498  36.304  30.135  13.417
 9184W        W81499  41.282  42.435   3.338
 9185W        W81500   6.108  43.823  11.464
 9186W        W81501  19.584  16.228   1.292
 9187W        W81502   4.691  34.938  14.481
 9188W        W81503  23.103  32.957  14.975
 9189W        W81504  29.386  35.035  12.102
 9190W        W81505  14.031  23.274   3.028
 9191W        W81506  12.093  44.128   0.944
 9192W        W81507   7.743  23.643  13.442
 9193W        W81508  12.262  42.839  13.402
 9194W        W81509  23.117  39.346   2.836
 9195W        W81510   2.347  43.528   3.881
 9196W        W81511  28.953  17.899   1.706
 9197W        W81512  39.298  21.867  13.596
 9198W        W81513  10.706  26.353  13.945
 9199W        W81514  32.411  16.569  12.416
 9200W        W81515  24.976  26.298   0.301
 9201W        W81516  13.766   9.383  11.521
 9202W        W81517  10.807  37.007   4.286
 9203W        W81518   0.903  19.856  14.379
 9204W        W81519  16.607   3.472   1.809
 9205W        W81520   6.932  19.089   3.360
 9206W        W81521  17.939   1.252   0.957
 9207W        W81522  20.061   0.903   0.963
 9208W        W81523  43.483   1.755  14.234
 9209W        W81524  23.559  37.020  11.606
 9210W        W81525  24.815  39.735   3.098
 9211W        W81526   3.817  42.249   2.960
 9212W        W81527  18.650  40.775   3.102
 9213W        W81528  37.347  11.142   2.274
 9214W        W81529  38.960  20.376  10.604
 9215W        W81530  10.396  14.314  11.130
 9216W        W81531  34.558  41.332   4.741
 9217W        W81532  12.124  25.170   2.405
 9218W        W81533   0.993  44.097   2.348
 9219W        W81534  19.497   1.915   3.257
 9220W        W81535  29.234  28.447  14.841
 9221W        W81536  36.162  43.006  13.794
 9222W        W81537   4.979  22.072   2.289
 9223W        W81538  43.581  23.103   1.679
 9224W        W81539  33.485  27.735   3.059
 9225W        W81540  25.312  12.113   3.346
 9226W        W81541  41.376  21.697  14.057
 9227W        W81542  24.097  44.086  10.975
 9228W        W81543   9.648  17.325   3.847
 9229W        W81544  34.104  38.327   3.292
 9230W        W81545  30.914  36.655  11.802
 9231W        W81546  14.794  18.038   1.913
 9232W        W81547  29.448   8.941  12.636
 9233W        W81548  42.222  28.529   1.218
 9234W        W81549  32.919  31.183  14.398
 9235W        W81550  17.878  40.483  11.509
 9236W        W81551  26.989  11.828   3.438
 9237W        W81552  15.421  32.760   0.313
 9238W        W81553  37.838  26.558   2.344
 9239W        W81554  24.163  30.828  14.949
 9240W        W81555  26.134  43.983  14.184
 9241W        W81556  39.122  40.896  10.594
 9242W        W81557  19.280  29.193   4.128
 9243W        W81558  39.798  22.472   3.782
 9244W        W81559   1.829  28.610   0.704
 9245W        W81560  14.442  12.540   4.908
 9246W        W81561  16.173  29.201   0.222
 9247W        W81562   9.100   3.282   5.077
 9248W        W81563  20.811  37.345  13.084
 9249W        W81564  44.335  34.515   4.734
 9250W        W81565  35.213  14.520   2.987
 9251W        W81566  35.449  44.130   4.121
 9252W        W81567   3.057  24.595   2.391
 9253W        W81568  43.748  25.748   2.286
 9254W        W81569   8.878  40.480  12.630
 9255W        W81570  22.508  15.298  10.998
 9256W        W81571  16.427  27.213  13.483
 9257W        W81572  12.484  27.620   2.317
 9258W        W81573  43.827  20.535  14.828
 9259W        W81574  31.378  15.790   1.972
 9260W        W81575  43.984   3.931  13.943
 9261W        W81576  33.043  44.287   2.628
 9262W        W81577   1.866  41.691   3.757
 9263W        W81578   4.896  36.794  12.589
 9264W        W81579   7.249   9.644   4.149
 9265W        W81580  22.554  26.618  11.350
 9266W        W81581  32.498  14.325  12.963
 9267W        W81582  19.046   2.801   1.432
 9268W        W81583  41.011  31.562  11.701
 9269W        W81584  24.080   9.968  11.527
 9270W        W81585  25.277  26.129   1.185
 9271W        W81586  31.377   8.886   1.803
 9272W        W81587   6.242   2.360  11.157
 9273W        W81588  27.211  13.752  13.534
 9274W        W81589  32.632   3.354  13.280
 9275W        W81590  25.399  33.413   0.278
 9276W        W81591  42.360  31.074   2.864
 9277W        W81592  24.041  23.793   4.621
 9278W        W81593  16.238  24.129   1.684
 9279W        W81594  15.493  38.761  12.928
 9280W        W81595  28.722   0.573   2.660
 9281W        W81596  31.167   7.646  13.349
 9282W        W81597   8.141  42.272   4.923
 9283W        W81598  19.941  31.925   2.695
 9284W        W81599  29.460  22.593   4.962
 9285W        W81600  25.132  39.948   0.453
 9286W        W81601  23.927  32.781  13.959
 9287W        W81602   6.140  24.722   3.274
 9288W        W81603   5.825  35.052  10.690
 9289W        W81604   6.977  20.472   2.382
 9290W        W81605   3.572  36.430   0.698
 9291W        W81606  31.992  18.629   1.908
 9292W        W81607  29.399  29.616   0.891
 9293W        W81608   1.484  13.738  14.936
 9294W        W81609  16.278  14.363  14.647
 9295W        W81610  26.212  29.135   2.600
 9296W        W81611   4.349  17.845  12.162
 9297W        W81612  44.024  13.109   2.818
 9298W        W81613  25.213  26.935  10.646
 9299W        W81614  29.593  18.707   3.636
 9300W        W81615  17.824   7.796  13.405
 9301W        W81616   6.692   8.818   3.595
 9302W        W81617  13.321  32.788   4.353
 9303W        W81618  13.170  12.540   1.932
 9304W        W81619  24.857  12.238   0.430
 9305W        W81620   3.451   2.939  11.095
 9306W        W81621  19.926   2.634   4.657
 9307W        W81622  40.694   9.416   1.550
 9308W        W81623   7.194  34.732  11.695
 9309W        W81624   5.636   0.282  13.972
 9310W        W81625  36.624   1.786  12.492
 9311W        W81626  29.642  17.888   1.326
 9312W        W81627  24.696  20.875   0.438
 9313W        W81628  32.492  37.965   4.661
 9314W        W81629   9.231   4.464  12.526
 9315W        W81630  30.753  28.624  11.663
 9316W        W81631   1.475  31.967   4.708
 9317W        W81632  14.576   9.744  10.572
 9318W        W81633  43.493  29.352   5.268
 9319W        W81634  15.230  26.199  11.453
 9320W        W81635  38.093  38.522   1.864
 9321W        W81636  27.022  22.625   4.921
 9322W        W81637  28.772   4.763  11.136
 9323W        W81638  39.328  43.419   0.788
 9324W        W81639  18.582   4.690  11.529
 9325W        W81640  24.790  37.595   2.949
 9326W        W81641   5.179  11.740  12.029
 9327W        W81642  13.465  33.253   4.201
 9328W        W81643   7.168  21.218   2.350
 9329W        W81644   0.501  10.097   2.682
 9330W        W81645  42.067  35.822   2.807
 9331W        W81646  27.075  23.781  11.608
 9332W        W81647   2.073  18.248   3.295
 9333W        W81648   9.664   8.746  13.925
 9334W        W81649  39.917  43.190  13.418
 9335W        W81650  25.486  17.741  13.064
 9336W        W81651  29.062   8.762   4.217
 9337W        W81652  22.584  44.074   4.669
 9338W        W81653  16.962  34.806  13.616
 9339W        W81654  26.941  21.663   1.353
 9340W        W81655  13.021  19.696   3.301
 9341W        W81656   8.438   1.639  13.338
 9342W        W81657  23.483   0.726   1.284
 9343W        W81658  12.888  22.159   2.758
 9344W        W81659  25.989   7.024   0.554
 9345W        W81660  41.894   1.251   0.786
 9346W        W81661  44.977  19.315  11.403
 9347W        W81662  36.606  19.604  14.811
 9348W        W81663   1.235  22.509  11.123
 9349W        W81664  25.607   4.341  10.276
 9350W        W81665  29.605   6.834  11.193
 9351W        W81666   3.324   6.753  13.519
 9352W        W81667  14.111   6.649  11.475
 9353W        W81668   8.930  25.641  11.361
 9354W        W81669  32.216  18.603  14.480
 9355W        W81670  33.102  17.022   4.056
 9356W        W81671  31.346  44.722  10.645
 9357W        W81672  26.646  31.193   0.391
 9358W        W81673  36.129  18.075  12.917
 9359W        W81674  20.794  31.478  12.296
 9360W        W81675   6.650  16.972  13.535
 9361W        W81676   9.596  42.795   3.870
 9362W        W81677  28.167  28.915  11.156
 9363W        W81678  16.777  37.563  13.320
 9364W        W81679  28.250   3.237   2.549
 9365W        W81680   3.320  32.756   0.646
 9366W        W81681  22.696  41.063   1.823
 9367W        W81682   9.798  23.552   1.392
 9368W        W81683  29.174  20.918   1.338
 9369W        W81684  10.439  15.324   3.357
 9370W        W81685  31.585  42.586   1.433
 9371W        W81686  20.286   8.869   1.391
 9372W        W81687  24.855   8.418   1.952
 9373W        W81688  44.102   5.822   3.740
 9374W        W81689  12.019  37.921  10.719
 9375W        W81690  16.887  16.823   3.094
 9376W        W81691  16.153  24.593  10.728
 9377W        W81692  31.028  30.309   9.811
 9378W        W81693  30.423  27.098   1.727
 9379W        W81694  25.712  42.785   2.587
 9380W        W81695  32.923  35.465   0.759
 9381W        W81696  30.936  32.501   3.146
 9382W        W81697  10.131  27.110  11.436
 9383W        W81698  33.746  26.416  12.381
 9384W        W81699  40.492  32.812  14.398
 9385W        W81700   1.243  17.213  14.067
 9386W        W81701  43.212  13.900  13.274
 9387W        W81702  16.580   4.334   1.453
 9388W        W81703  33.312  33.669   4.095
 9389W        W81704  16.764   6.207  11.569
 9390W        W81705  39.166   0.329  13.982
 9391W        W81706  10.423  10.249  12.159
 9392W        W81707  11.876  31.453  10.758
 9393W        W81708  16.192  33.852  10.468
 9394W        W81709   0.695  22.700  10.272
 9395W        W81710  27.025  39.546  14.725
 9396W        W81711   6.667  12.138   3.826
 9397W        W81712  32.363  19.807   3.141
 9398W        W81713   9.842  11.195  14.145
 9399W        W81714  21.865  42.438   4.475
 9400W        W81715  44.600  38.385   2.041
 9401W        W81716  20.037  26.128   4.841
 9402W        W81717  28.571  17.356  12.435
 9403W        W81718  10.637  24.601   0.474
 9404W        W81719  18.218  20.673   0.795
 9405W        W81720  22.109  32.960  13.500
 9406W        W81721  36.790  28.316   4.204
 9407W        W81722  41.239   5.745   3.861
 9408W        W81723  18.771  41.440  11.294
 9409W        W81724  39.885  15.036  14.252
 9410W        W81725  37.509   4.994  14.856
 9411W        W81726  34.384  39.527  12.720
 9412W        W81727  19.369   7.687   0.271
 9413W        W81728   8.154  24.424  14.654
 9414W        W81729  29.615  40.455   3.634
 9415W        W81730  26.508  23.179   3.835
 9416W        W81731  28.475  15.159   3.624
 9417W        W81732  17.832  43.536  12.474
 9418W        W81733  25.269  44.993   0.828
 9419W        W81734   1.785  35.552   2.400
 9420W        W81735  39.043   7.140  12.402
 9421W        W81736  39.595   9.850   3.706
 9422W        W81737  14.958  41.467  14.151
 9423W        W81738  30.028  20.587   1.891
 9424W        W81739  37.965  14.048   3.809
 9425W        W81740   9.508   6.584  11.926
 9426W        W81741   1.514  43.582  11.960
 9427W        W81742  17.020  38.833   4.965
 9428W        W81743   9.144   3.212  14.321
 9429W        W81744  37.051  35.919  14.078
 9430W        W81745  24.631   6.921  12.947
 9431W        W81746   2.806  42.918   1.439
 9432W        W81747  18.562  33.652  12.932
 9433W        W81748  25.972  44.809  13.959
 9434W        W81749   4.579   9.485   4.546
 9435W        W81750  36.443  44.000  11.938
 9436W        W81751  18.021   7.273   0.896
 9437W        W81752  40.831  39.274   2.220
 9438W        W81753  26.520  24.913  11.573
 9439W        W81754   8.405  12.538   1.286
 9440W        W81755  21.545  36.332   0.951
 9441W        W81756   9.352  39.744   1.823
 9442W        W81757  16.270  30.042   0.619
 9443W        W81758   9.283  30.065   2.959
 9444W        W81759  18.697  43.969   4.636
 9445W        W81760   3.670  40.413  10.710
 9446W        W81761   5.833  33.869   3.365
 9447W        W81762  27.504  12.097   0.120
 9448W        W81763  12.800   5.748  13.801
 9449W        W81764  24.558  27.483  12.904
 9450W        W81765  36.931  39.101  13.981
 9451W        W81766  35.254  33.347  14.395
 9452W        W81767  40.006   5.723   3.548
 9453W        W81768  14.225   9.926   1.899
 9454W        W81769   6.644  44.698  13.101
 9455W        W81770  23.688  18.913   4.899
 9456W        W81771  31.358  21.998   3.354
 9457W        W81772  12.637  30.955  12.479
 9458W        W81773   7.911  40.564  14.955
 9459W        W81774   6.586  27.910   1.375
 9460W        W81775  17.183   9.903   4.671
 9461W        W81776  40.455   5.852  11.542
 9462W        W81777  40.830   5.755   4.158
 9463W        W81778  36.548  17.430   1.766
 9464W        W81779   1.692  13.761   0.830
 9465W        W81780  34.607  12.354  11.176
 9466W        W81781  42.433  23.300  13.290
 9467W        W81782  27.155  33.613   3.740
 9468W        W81783  30.250  20.621  11.583
 9469W        W81784  22.208  18.111   0.286
 9470W        W81785  32.205  20.711   3.115
 9471W        W81786   6.232  42.710   2.868
 9472W        W81787  14.523   9.707   3.836
 9473W        W81788   5.708  10.927   0.332
 9474W        W81789  11.700  16.367   4.715
 9475W        W81790  10.335  17.881   0.389
 9476W        W81791  19.928   9.826  10.223
 9477W        W81792   4.251  31.449  12.062
 9478W        W81793  14.326  44.451  10.774
 9479W        W81794  25.708   5.267  10.091
 9480W        W81795  25.689  30.630   2.809
 9481W        W81796  33.860  34.768  12.003
 9482W        W81797   8.259  29.968   3.128
 9483W        W81798  42.498  34.157  10.674
 9484W        W81799  13.453   4.009   1.803
 9485W        W81800  29.525  11.312   0.303
 9486W        W81801  33.782  15.669   1.743
 9487W        W81802   0.036   0.902  11.450
 9488W        W81803   8.911  22.474  12.526
 9489W        W81804   3.402  21.615  12.845
 9490W        W81805  22.070  20.986  13.654
 9491W        W81806   7.728  29.676  14.148
 9492W        W81807  21.244  20.128   4.223
 9493W        W81808  29.552  21.405   3.747
 9494W        W81809  22.030  44.001  11.262
 9495W        W81810  31.934  44.619  11.408
 9496W        W81811  34.864  36.853   1.838
 9497W        W81812   5.847  18.560  13.399
 9498W        W81813  25.126  23.174   0.322
 9499W        W81814  44.868  13.774  14.357
 9500W        W81815  27.004  44.827  10.488
 9501W        W81816  19.057  15.140  14.383
 9502W        W81817   9.877  44.015  13.453
 9503W        W81818  31.994  35.890   2.296
 9504W        W81819  10.920   2.254   4.511
 9505W        W81820  44.081  35.674   1.339
 9506W        W81821  11.779   3.438   1.319
 9507W        W81822  39.826  37.718   3.633
 9508W        W81823  12.287  37.659  12.394
 9509W        W81824  19.788   2.542  11.973
 9510W        W81825  15.128  13.658  12.871
 9511W        W81826  21.745  11.213   4.434
 9512W        W81827  34.936  11.851  10.331
 9513W        W81828  26.103   8.412  13.819
 9514W        W81829  27.489  35.453   4.586
 9515W        W81830  10.347  21.695   1.454
 9516W        W81831  22.944   0.920  12.383
 9517W        W81832  37.459   9.344   0.052
 9518W        W81833  29.283  19.692  11.673
 9519W        W81834   6.907  43.843   4.743
 9520W        W81835  41.909  41.794   4.122
 9521W        W81836  40.711  33.423  12.033
 9522W        W81837  31.008   7.733  10.583
 9523W        W81838  21.955  37.931  12.407
 9524W        W81839  14.836  25.680  11.154
 9525W        W81840  10.093   7.249  11.901
 9526W        W81841  32.717  30.718  10.087
 9527W        W81842  41.071  41.586  13.404
 9528W        W81843  30.114   0.535   4.649
 9529W        W81844  31.680   9.592  12.005
 9530W        W81845   3.027  14.864   0.432
 9531W        W81846   0.189   4.810   1.327
 9532W        W81847  38.827  27.561  11.987
 9533W        W81848  24.329  40.869  13.335
 9534W        W81849  29.158  33.991  13.843
 9535W        W81850  30.461  16.265  12.280
 9536W        W81851  19.561  37.396  10.741
 9537W        W81852   5.459  23.937  11.573
 9538W        W81853  16.687  11.289  13.277
 9539W        W81854  25.502  15.036   2.824
 9540W        W81855   5.260  29.022  13.399
 9541W        W81856   7.869  28.611   2.467
 9542W        W81857  32.727  11.264  13.802
 9543W        W81858  29.990  33.040  14.252
 9544W        W81859  25.810  37.342   3.646
 9545W        W81860   9.787  26.220  11.469
 9546W        W81861  11.622  31.516  14.773
 9547W        W81862  22.641  21.769   9.551
 9548W        W81863  42.532  21.131  10.019
 9549W        W81864  41.781   6.322  12.874
 9550W        W81865  15.613  41.402  14.570
 9551W        W81866   8.230  36.588  12.416
 9552W        W81867  27.620   3.206  11.552
 9553W        W81868  12.343   6.807   2.485
 9554W        W81869  12.128   5.391   4.060
 9555W        W81870  18.259   4.339   4.056
 9556W        W81871   4.183  34.367  13.865
 9557W        W81872  38.835  21.255   2.934
 9558W        W81873  40.413  21.673  12.953
 9559W        W81874  41.912  24.496   1.530
 9560W        W81875  43.865  19.782  10.401
 9561W        W81876  34.620  30.400   4.511
 9562W        W81877  26.994  24.099  11.208
 9563W        W81878   0.133  36.709  11.519
 9564W        W81879   3.811  40.889   4.252
 9565W        W81880  26.754  23.560  13.419
 9566W        W81881  41.301   8.815   0.537
 9567W        W81882  21.891   3.007  12.091
 9568W        W81883  27.100   5.461   4.125
 9569W        W81884  20.654  14.140  14.520
 9570W        W81885  18.773  22.533  14.776
 9571W        W81886  18.292   1.950  11.723
 9572W        W81887  28.910  13.565  14.107
 9573W        W81888  19.382  31.176  14.587
 9574W        W81889  40.135  30.148   3.378
 9575W        W81890  11.326  11.419  14.436
 9576W        W81891  12.320  27.444   4.215
 9577W        W81892  37.014  21.301  13.815
 9578W        W81893  39.409  16.558  10.764
 9579W        W81894   0.400   0.552   3.142
 9580W        W81895  18.664  16.729  12.052
 9581W        W81896  18.544  20.231   4.439
 9582W        W81897  41.349  17.179  11.125
 9583W        W81898  19.314  20.758  12.204
 9584W        W81899   3.908   0.396  12.845
 9585W        W81900  15.392  33.059  14.898
 9586W        W81901  12.106  29.814  12.040
 9587W        W81902  26.353  42.895   3.190
 9588W        W81903  39.923  14.781   0.162
 9589W        W81904  40.491  24.398  13.337
 9590W        W81905  41.545  27.504   3.737
 9591W        W81906  26.253  29.196   3.617
 9592W        W81907  44.222  40.033  13.324
 9593W        W81908  18.721   9.113   3.838
 9594W        W81909  19.484  23.722  14.411
 9595W        W81910  10.243  27.895   1.368
 9596W        W81911   9.820  38.933   4.327
 9597W        W81912  31.434  38.918  10.950
 9598W        W81913  23.633  17.326   3.301
 9599W        W81914  10.158  37.952   0.382
 9600W        W81915  25.656  12.788  12.056
 9601W        W81916  39.006  37.182  13.996
 9602W        W81917  36.795   9.908   0.875
 9603W        W81918  41.280  18.283  10.557
 9604W        W81919   4.376  27.704   0.015
 9605W        W81920  10.297  31.852   3.673
 9606W        W81921  21.576   3.758  14.508
 9607W        W81922  21.435  22.418   1.216
 9608W        W81923  11.644  43.734  10.639
 9609W        W81924  16.717  34.589  12.804
 9610W        W81925  29.687  17.751   2.162
 9611W        W81926  15.046  42.947  12.351
 9612W        W81927  11.195  30.074   1.796
 9613W        W81928  31.999   4.189  11.131
 9614W        W81929  11.630  22.788  14.511
 9615W        W81930  24.264   0.250  12.341
 9616W        W81931  17.466   9.310   0.233
 9617W        W81932   3.701   2.948   2.963
 9618W        W81933  43.901  42.981   3.598
 9619W        W81934  15.751  23.763   2.380
 9620W        W81935  21.568  36.768   0.686
 9621W        W81936   8.432  33.326   1.441
 9622W        W81937  32.700  16.633   4.536
 9623W        W81938  11.648  20.032   0.250
 9624W        W81939  17.693   1.225   1.816
 9625W        W81940  33.670   2.781   2.648
 9626W        W81941   5.417  26.963  14.278
 9627W        W81942  11.348  26.442   4.508
 9628W        W81943   4.430  15.736   0.061
 9629W        W81944  29.630  33.424   3.128
 9630W        W81945  35.565   5.992   1.441
 9631W        W81946   2.958  37.611   3.579
 9632W        W81947  32.188   0.385   2.248
 9633W        W81948   8.321  43.909  12.699
 9634W        W81949  11.916  18.658   1.901
 9635W        W81950  37.076  39.662   0.474
 9636W        W81951  29.867  36.595   2.297
 9637W        W81952  36.067  32.935   3.095
 9638W        W81953  17.246  14.109   3.745
 9639W        W81954  43.489  29.642  10.741
 9640W        W81955  31.891  27.137   3.451
 9641W        W81956   4.222  30.889  12.034
 9642W        W81957  34.015  34.021  13.016
 9643W        W81958  43.572  11.432   4.982
 9644W        W81959   0.947   6.464  14.433
 9645W        W81960  14.302  44.296  14.567
 9646W        W81961   1.310  25.123   2.760
 9647W        W81962   5.476  16.853   4.530
 9648W        W81963  21.446  32.279   9.916
 9649W        W81964  38.332   4.213   3.215
 9650W        W81965  25.580  24.506   3.250
 9651W        W81966  40.980  16.023  11.644
 9652W        W81967  42.027  27.189   2.323
 9653W        W81968  44.333  14.769   1.922
 9654W        W81969  19.104   0.562  10.701
 9655W        W81970  30.086  16.654   3.038
 9656W        W81971  28.016  19.694   3.540
 9657W        W81972  29.482  12.987  13.025
 9658W        W81973   7.773  24.109  14.436
 9659W        W81974   3.436  11.239   0.338
 9660W        W81975  33.517  17.257  10.132
 9661W        W81976  26.515  43.586   4.686
 9662W        W81977  18.576  33.546  14.758
 9663W        W81978  15.091  36.109  11.715
 9664W        W81979  37.925  11.269   0.549
 9665W        W81980  17.353  17.545   1.653
 9666W        W81981   7.936  10.979  14.488
 9667W        W81982  33.425  38.690   3.877
 9668W        W81983  38.561  32.924  11.965
 9669W        W81984   8.775  29.689  13.808
 9670W        W81985  20.018   7.172   3.676
 9671W        W81986  41.130   7.442   3.806
 9672W        W81987  11.356  13.569  13.009
 9673W        W81988  37.615  29.320   4.208
 9674W        W81989  24.841  39.022  10.319
 9675W        W81990  24.414   2.264  10.670
 9676W        W81991  43.558  38.514  13.847
 9677W        W81992  42.532  30.733  10.767
 9678W        W81993  28.577  44.466   3.312
 9679W        W81994  33.078   2.842   4.537
 9680W        W81995   5.938  12.827  11.603
 9681W        W81996  44.317  25.026   4.941
 9682W        W81997   9.649  38.096  14.550
 9683W        W81998   9.321  39.809  13.007
 9684W        W81999  27.911  39.956   2.721
 9685W        W82000   1.225   6.381  11.568
 9686W        W82001  10.765  38.500  12.372
 9687W        W82002  41.292  24.199   0.872
 9688W        W82003   7.641  12.920  14.612
 9689W        W82004   8.435  37.963   3.765
 9690W        W82005   8.838  25.518   0.794
 9691W        W82006  26.978   4.470   4.096
 9692W        W82007  22.908  20.364   3.845
 9693W        W82008   2.801  30.486   0.253
 9694W        W82009  20.173  30.171   0.227
 9695W        W82010   5.263  22.091  14.933
 9696W        W82011   8.147  28.004  13.665
 9697W        W82012  28.293  27.604   0.435
 9698W        W82013  26.638  18.208   4.559
 9699W        W82014   4.328  39.873   0.929
 9700W        W82015  18.418  13.680   4.143
 9701W        W82016  29.863  19.630  11.192
 9702W        W82017  40.509   6.576  12.048
 9703W        W82018   3.771  23.930  10.604
 9704W        W82019  19.122  22.204  14.434
 9705W        W82020  25.080  13.043  11.153
 9706W        W82021  10.024  40.686   2.343
 9707W        W82022  16.275  16.306  14.982
 9708W        W82023   8.196  19.259  12.536
 9709W        W82024  38.968  44.331   3.188
 9710W        W82025  40.710  23.692  14.924
 9711W        W82026  10.579   4.500   3.349
 9712W        W82027  43.353  21.199   0.929
 9713W        W82028  19.073   2.216   3.090
 9714W        W82029  15.929  27.337   0.526
 9715W        W82030  39.114  41.776  11.461
 9716W        W82031  35.132  16.761  12.098
 9717W        W82032  35.569  27.428   2.983
 9718W        W82033  32.956  31.210   1.760
 9719W        W82034  10.238  19.241   0.464
 9720W        W82035  17.578  32.548  14.438
 9721W        W82036  24.520  21.881   0.449
 9722W        W82037   4.822   3.134  14.820
 9723W        W82038  28.429  18.729   0.701
 9724W        W82039  39.445  30.368   4.904
 9725W        W82040  23.034   2.348   1.350
 9726W        W82041   7.640  42.335  11.223
 9727W        W82042  34.488  19.295  13.566
 9728W        W82043  27.657  21.399   2.757
 9729W        W82044  40.334  30.344  12.994
 9730W        W82045  23.129  32.127  13.968
 9731W        W82046   9.219  35.832   2.011
 9732W        W82047   0.316  32.922  11.631
 9733W        W82048  33.188  19.695   2.479
 9734W        W82049   9.292   3.742  12.873
 9735W        W82050  31.848  42.857  12.530
 9736W        W82051  16.077  35.360  10.730
 9737W        W82052  36.097   1.434  14.023
 9738W        W82053  26.699  20.536  12.485
 9739W        W82054  36.360  23.746   2.056
 9740W        W82055  38.411  18.518  11.222
 9741W        W82056  32.603  41.366  13.450
 9742W        W82057  38.930  30.589   3.130
 9743W        W82058   8.711  35.385  10.670
 9744W        W82059  25.823  27.187   2.390
 9745W        W82060  20.369   9.269   1.041
 9746W        W82061  21.210  39.531   4.409
 9747W        W82062  15.071  30.555   0.283
 9748W        W82063  18.509   2.449  13.864
 9749W        W82064  20.241  19.603  10.830
 9750W        W82065  19.237  20.796  12.710
 9751W        W82066  18.274  27.596   3.352
 9752W        W82067   7.338  30.991  14.529
 9753W        W82068  17.431  41.989   3.670
 9754W        W82069  41.453   7.516   4.206
 9755W        W82070  28.925   2.179   1.340
 9756W        W82071  33.356  11.225  14.134
 9757W        W82072  34.200  15.749   3.204
 9758W        W82073   1.758  10.805   5.425
 9759W        W82074  29.591  11.809  12.545
 9760W        W82075  33.172  29.890   3.322
 9761W        W82076  12.303  44.846  14.275
 9762W        W82077  25.177  37.877   3.252
 9763W        W82078   3.974   7.865  11.134
 9764W        W82079  15.508  16.031  11.160
 9765W        W82080  42.262   8.175  11.978
 9766W        W82081   5.941  21.611  11.946
 9767W        W82082   3.244   0.706  12.455
 9768W        W82083  37.898  12.951   4.166
 9769W        W82084  29.673  34.863   0.800
 9770W        W82085   2.008   1.863   2.395
 9771W        W82086  28.054   6.847   4.296
 9772W        W82087   6.425   9.122   0.533
 9773W        W82088  18.716  15.682  11.902
 9774W        W82089  17.215  28.511   0.434
 9775W        W82090  20.551  35.966  13.467
 9776W        W82091  30.431  17.727   1.650
 9777W        W82092  39.363  34.581  11.642
 9778W        W82093  42.791  13.367  13.281
 9779W        W82094  11.260  19.822  10.941
 9780W        W82095  13.287   1.434  12.015
 9781W        W82096  39.543   6.275   4.397
 9782W        W82097  32.453   8.644   2.755
 9783W        W82098   0.354  37.192  11.523
 9784W        W82099  39.897  17.775  13.234
 9785W        W82100  12.102  18.498   0.476
 9786W        W82101  43.381   4.155   0.227
 9787W        W82102  32.304   2.126  11.218
 9788W        W82103  27.668  14.078  13.806
 9789W        W82104   6.563  34.887  13.834
 9790W        W82105  31.164  41.398  13.398
 9791W        W82106   7.512  36.795  14.450
 9792W        W82107  32.310  17.232   0.623
 9793W        W82108  17.031  29.035  13.908
 9794W        W82109   4.709  42.198  12.018
 9795W        W82110  42.392  12.420  13.065
 9796W        W82111  20.625  21.741   1.366
 9797W        W82112  43.992  22.019  11.477
 9798W        W82113  32.128  18.458  10.751
 9799W        W82114  15.800  20.983   2.773
 9800W        W82115   3.815  38.465   3.891
 9801W        W82116  27.928   3.954  12.817
 9802W        W82117   5.771  16.647   0.771
 9803W        W82118  13.182  31.586   3.886
 9804W        W82119  39.729   4.868   2.799
 9805W        W82120  12.686  39.794   4.225
 9806W        W82121  35.291   5.257  12.877
 9807W        W82122  41.836  25.155  14.960
 9808W        W82123  22.149  40.990   2.373
 9809W        W82124  43.778  25.894   0.032
 9810W        W82125  24.198  22.198   0.713
 9811W        W82126  17.575  21.507  14.776
 9812W        W82127  43.793  26.237  14.067
 9813W        W82128  43.499   5.916  14.429
 9814W        W82129   3.440  36.984   2.066
 9815W        W82130  16.620   9.814  13.496
 9816W        W82131  37.500   8.460   2.483
 9817W        W82132   1.285   3.392   4.590
 9818W        W82133  24.198   7.359   1.356
 9819W        W82134   9.060  30.400  13.456
 9820W        W82135  27.569  43.890  11.164
 9821W        W82136  10.060  38.114  12.512
 9822W        W82137  36.891  26.551  14.813
 9823W        W82138  36.075   9.490   2.680
 9824W        W82139  34.033  22.606   3.709
 9825W        W82140  32.604   3.810  11.704
 9826W        W82141  41.300  41.813  10.659
 9827W        W82142  34.542  44.762   3.620
 9828W        W82143  23.954   6.184   4.060
 9829W        W82144   0.893   7.256   4.459
 9830W        W82145  20.542   2.514   0.747
 9831W        W82146  28.476  10.866  11.323
 9832W        W82147  28.830   5.795  14.370
 9833W        W82148   9.704  30.126  12.457
 9834W        W82149  19.601  33.917   2.697
 9835W        W82150  31.398  40.508   0.152
 9836W        W82151  11.392  29.627   2.702
 9837W        W82152  25.887   7.639   1.644
 9838W        W82153  32.041  44.766  13.961
 9839W        W82154  39.585  28.870   2.191
 9840W        W82155   2.279   1.192   3.179
 9841W        W82156  13.088  25.004   1.781
 9842W        W82157   6.855   1.170   3.430
 9843W        W82158  43.068   2.837  11.192
 9844W        W82159  37.015  37.597  11.882
 9845W        W82160  40.498   4.300   4.290
 9846W        W82161   7.753  10.855   1.303
 9847W        W82162   9.874  20.473   0.331
 9848W        W82163  16.344  18.054   3.673
 9849W        W82164  14.876  30.517   4.954
 9850W        W82165  23.222  37.384   5.034
 9851W        W82166  20.195   0.364   0.256
 9852W        W82167  39.584  13.623   1.671
 9853W        W82168  29.077  11.029   0.300
 9854W        W82169  41.783  26.052   4.610
 9855W        W82170  23.140  34.850   0.273
 9856W        W82171   7.396   3.749   0.414
 9857W        W82172  13.574  30.262  11.399
 9858W        W82173  27.605  31.004  14.458
 9859W        W82174  25.722  12.533  10.801
 9860W        W82175  40.052  32.916   0.813
 9861W        W82176  12.589  22.715   0.667
 9862W        W82177  33.621   5.257   2.928
 9863W        W82178  25.047  21.964  12.026
 9864W        W82179   8.878  33.871  14.269
 9865W        W82180  21.036   5.358   4.229
 9866W        W82181  42.189  23.910   0.927
 9867W        W82182  37.559   7.295  11.605
 9868W        W82183  17.029   7.728  10.736
 9869W        W82184  42.294  19.695  14.204
 9870W        W82185  22.211  29.916  13.564
 9871W        W82186   6.347  19.116   3.275
 9872W        W82187  42.879  15.016  13.922
 9873W        W82188  43.263  39.615  13.345
 9874W        W82189  26.853  27.190   1.284
 9875W        W82190  12.422  27.584  11.453
 9876W        W82191   4.018  13.687  10.987
 9877W        W82192  19.217   9.516   2.967
 9878W        W82193  44.823  18.341  11.594
 9879W        W82194  12.355  21.751  13.108
 9880W        W82195   4.372  38.848   1.679
 9881W        W82196  33.058  27.727   1.887
 9882W        W82197  40.842  17.863   0.385
 9883W        W82198  39.963  11.820   4.896
 9884W        W82199  23.724  25.180  12.120
 9885W        W82200  41.498  27.163   3.304
 9886W        W82201  26.092  10.783   4.098
 9887W        W82202   0.040   7.592   4.437
 9888W        W82203  17.415  44.766   1.503
 9889W        W82204  28.288  31.119   3.300
 9890W        W82205  15.853  19.259   0.403
 9891W        W82206  28.482   8.255  10.943
 9892W        W82207  19.792   3.815  10.736
 9893W        W82208   8.745  18.380   2.165
 9894W        W82209  38.940  14.256  12.982
 9895W        W82210  23.368  25.710  14.796
 9896W        W82211  11.420  42.528  10.536
 9897W        W82212  29.442  30.909  11.507
 9898W        W82213  16.053   5.304   2.167
 9899W        W82214  11.884  41.457   2.439
 9900W        W82215  42.998  28.737  11.483
 9901W        W82216  24.620   1.723  11.509
 9902W        W82217  28.284  11.455  14.292
 9903W        W82218  13.736  32.118   2.826
 9904W        W82219  22.996  27.530   1.200
 9905W        W82220  28.254   1.228   0.652
 9906W        W82221  11.816  30.351   1.462
 9907W        W82222  27.319  33.449  11.155
 9908W        W82223  27.646  14.326  14.252
 9909W        W82224   6.212  14.804   2.926
 9910W        W82225  43.438   4.974   0.870
 9911W        W82226  21.489  39.574  13.878
 9912W        W82227  27.753  18.714  14.376
 9913W        W82228   5.254   6.329   1.640
 9914W        W82229  34.017  43.419   4.289
 9915W        W82230  25.236   0.748  10.632
 9916W        W82231  37.571  43.503   3.717
 9917W        W82232   4.797  44.067  14.730
 9918W        W82233  34.886  39.057  12.150
 9919W        W82234  10.084  20.175   1.861
 9920W        W82235  14.784  16.787  10.837
 9921W        W82236   8.707  40.375   1.372
 9922W        W82237  29.635  20.921   2.977
 9923W        W82238  35.547  20.581  13.362
 9924W        W82239  13.358  13.193  13.992
 9925W        W82240  38.085  22.462   4.091
 9926W        W82241  42.765  16.047  13.866
 9927W        W82242  27.004  17.237  10.239
 9928W        W82243  18.129  20.059  12.860
 9929W        W82244   6.885   3.171   0.876
 9930W        W82245  26.804   0.359   1.917
 9931W        W82246  44.001  44.683   0.465
 9932W        W82247  41.648  34.079  13.382
 9933W        W82248  26.001   6.856   1.530
 9934W        W82249  19.620   1.466  12.467
 9935W        W82250   6.413  12.142  11.876
 9936W        W82251   1.356   8.129   0.414
 9937W        W82252  19.223  39.357   3.708
 9938W        W82253  29.237  41.025   3.123
 9939W        W82254  42.749  32.658   3.233
 9940W        W82255  22.511  40.855   0.336
 9941W        W82256  16.075  36.860   4.124
 9942W        W82257  42.318  15.773   3.524
 9943W        W82258  18.133  11.116  12.415
 9944W        W82259  27.368  35.119   2.378
 9945W        W82260  25.581  15.325  13.316
 9946W        W82261  30.475  12.383   0.275
 9947W        W82262  41.706   8.241   1.764
 9948W        W82263  18.766  37.332  11.522
 9949W        W82264  13.613  16.630   2.141
 9950W        W82265  14.388   0.393  10.681
 9951W        W82266  17.246   1.370   3.611
 9952W        W82267   2.866  20.597   0.613
 9953W        W82268   8.011  21.807   1.779
 9954W        W82269  15.115  15.843  13.502
 9955W        W82270  35.363  30.969   4.558
 9956W        W82271  21.203  13.586   0.848
 9957W        W82272  20.061  43.230  14.805
 9958W        W82273  11.402  28.678  11.142
 9959W        W82274   9.786   9.961  14.362
 9960W        W82275  27.319  37.600  13.866
 9961W        W82276  34.551  17.313  13.771
 9962W        W82277  39.514  36.871  12.011
 9963W        W82278   3.757   2.945  10.680
 9964W        W82279   5.783  30.903   1.496
 9965W        W82280   7.320  42.090   0.926
 9966W        W82281  29.539  12.589  14.728
 9967W        W82282   5.668  43.561   4.423
 9968W        W82283  14.636  36.227   1.380
 9969W        W82284  16.978  20.742   0.252
 9970W        W82285  33.766  30.309   0.829
 9971W        W82286  36.577  11.638   3.270
 9972W        W82287  28.242  25.232   4.586
 9973W        W82288   1.963  24.985  14.523
 9974W        W82289  44.311  42.802   1.412
 9975W        W82290  41.846  31.733   3.842
 9976W        W82291   5.186  11.461  12.515
 9977W        W82292  35.443  26.214   4.548
 9978W        W82293  27.855  13.013   4.597
 9979W        W82294  29.886   5.892   4.381
 9980W        W82295  25.688  42.912  12.328
 9981W        W82296  34.832  19.574   4.043
 9982W        W82297   6.224  42.102   0.453
 9983W        W82298   4.460  18.026   0.817
 9984W        W82299  42.957  21.613   3.613
 9985W        W82300   6.682  34.511   3.665
 9986W        W82301  44.946   3.047  14.758
 9987W        W82302  11.637   8.367   0.362
 9988W        W82303  40.975  14.471   2.233
 9989W        W82304  42.469  27.248  11.545
 9990W        W82305  11.027  41.230   0.516
 9991W        W82306  29.493  14.162  13.765
 9992W        W82307  38.938  42.711  11.087
 9993W        W82308  15.611   5.930   0.780
 9994W        W82309  22.710  36.392  12.130
 9995W        W82310  18.472  39.731   2.201
 9996W        W82311   4.392  16.382   2.896
 9997W        W82312  19.175  38.043  11.178
 9998W        W82313  20.841  40.881   0.912
 9999W        W82314  23.605  19.539   1.772
10000W        W82315  22.123  14.210   1.388
10001W        W82316  33.869   2.933  13.373
10002W        W82317  24.700  32.599   3.629
10003W        W82318  22.659  20.591  11.359
10004W        W82319  20.975  16.659   0.295
10005W        W82320  12.868  12.905  10.672
10006W        W82321  38.960  28.099   5.074
10007W        W82322  34.677  21.715   4.249
10008W        W82323  19.674   0.378   2.979
10009W        W82324  40.833   1.856   2.757
10010W        W82325  32.392  41.532  13.907
10011W        W82326   6.606  44.317   4.983
10012W        W82327  20.627  16.136  11.152
10013W        W82328  25.055  40.958   1.009
10014W        W82329  20.058  20.005  13.566
10015W        W82330  17.318  41.957  13.522
10016W        W82331   3.750  44.838   0.007
10017W        W82332  44.203  20.064  11.192
10018W        W82333  23.706   5.009  14.251
10019W        W82334  26.175  39.888   4.248
10020W        W82335  17.574   7.450   1.073
10021W        W82336  19.810  18.098   1.372
10022W        W82337  28.088  11.513   5.005
10023W        W82338  15.618  26.257  13.368
10024W        W82339   6.618  18.550  11.216
10025W        W82340   8.920  12.757   0.687
10026W        W82341  41.897  18.357  11.639
10027W        W82342  43.627  31.643  11.173
10028W        W82343  32.573   9.724   0.960
10029W        W82344  22.065  15.461   2.735
10030W        W82345  27.898   7.038  13.065
10031W        W82346  39.207   1.258   4.770
10032W        W82347  27.675   4.493   4.836
10033W        W82348   1.524  36.554   4.246
10034W        W82349  31.450  28.494  13.401
10035W        W82350  24.705   6.343  10.384
10036W        W82351   5.891  23.938   0.832
10037W        W82352   6.641   1.442  12.968
10038W        W82353  11.832  23.759   4.069
10039W        W82354  40.508  43.296  14.839
10040W        W82355   4.761  39.095  13.294
10041W        W82356  35.798  36.551  14.029
10042W        W82357  38.467  10.583   4.234
10043W        W82358  11.680  26.434   2.225
10044W        W82359  44.826  14.348  12.922
10045W        W82360  20.638  42.813  14.301
10046W        W82361   7.930  18.580   0.927
10047W        W82362   3.297  33.418  12.852
10048W        W82363  34.929  37.525  11.995
10049W        W82364  29.110  11.827  13.500
10050W        W82365  40.203  22.774  11.582
10051W        W82366  11.256  28.087  10.438
10052W        W82367  23.638  25.135   1.466
10053W        W82368  31.711  21.303   2.731
10054W        W82369  27.719   9.863  12.887
10055W        W82370  11.260  18.430   5.193
10056W        W82371  14.064  19.272   2.117
10057W        W82372  10.477  20.863  11.465
10058W        W82373   4.458   6.397   2.363
10059W        W82374  24.744   3.962  14.902
10060W        W82375   9.010  43.897   1.741
10061W        W82376   4.417  29.553  14.507
10062W        W82377   9.635  21.978   1.225
10063W        W82378  10.612  23.878  12.515
10064W        W82379  20.650  42.052   2.977
10065W        W82380  24.193  17.996   2.293
10066W        W82381  11.027   6.007  12.518
10067W        W82382  34.378  41.047   0.869
10068W        W82383  27.461  22.421  12.513
10069W        W82384  42.312  25.165   1.830
10070W        W82385  29.827  13.709   3.051
10071W        W82386  42.231  21.193  12.998
10072W        W82387  18.193  11.359  14.912
10073W        W82388  34.701  37.922   3.765
10074W        W82389  36.047  28.463   1.210
10075W        W82390   6.314  13.228   0.272
10076W        W82391  36.406  23.096  13.379
10077W        W82392   2.461   5.429   0.898
10078W        W82393  12.543  24.328  13.020
10079W        W82394   1.915  35.932  13.490
10080W        W82395  23.970  22.538  13.268
10081W        W82396   7.715  24.400  14.918
10082W        W82397   0.857  35.349   0.027
10083W        W82398   1.786  32.770  12.511
10084W        W82399  28.159   0.500  11.047
10085W        W82400  24.890  24.214  11.100
10086W        W82401  17.826   1.921  14.301
10087W        W82402   6.390  39.121   0.937
10088W        W82403  37.742  38.539   2.718
10089W        W82404  35.102  20.816  12.195
10090W        W82405  20.096  19.854   5.039
10091W        W82406  33.169  28.849  14.140
10092W        W82407   5.683  12.814   0.829
10093W        W82408  44.972  34.818   0.115
10094W        W82409   8.382  23.425  12.383
10095W        W82410   9.833  31.926   4.526
10096W        W82411  22.428  21.686   4.640
10097W        W82412   6.069  15.252   1.874
10098W        W82413  12.273  41.902  13.012
10099W        W82414  29.684  38.823   0.522
10100W        W82415  18.359   8.224   0.830
10101W        W82416   2.660  15.870  10.661
10102W        W82417  35.134  18.272  11.312
10103W        W82418  37.493   7.201  13.989
10104W        W82419  13.757   5.079   0.643
10105W        W82420  14.269  34.730  10.695
10106W        W82421  26.050   7.968  12.906
10107W        W82422  12.576   8.621   3.218
10108W        W82423  17.391  41.067   9.884
10109W        W82424   2.827   9.671   1.160
10110W        W82425  17.638   5.333   4.024
10111W        W82426  26.033  22.002   1.326
10112W        W82427   1.606  17.234   4.107
10113W        W82428   4.625  42.567   3.304
10114W        W82429  43.487  13.132   4.401
10115W        W82430   4.317   3.310   2.244
10116W        W82431  44.844  38.760   1.449
10117W        W82432  35.341   9.354  14.004
10118W        W82433   9.464  42.812   4.640
10119W        W82434  15.734  27.526   0.077
10120W        W82435  16.636  23.655   4.133
10121W        W82436   1.612  39.600  10.989
10122W        W82437  19.953  42.126  11.818
10123W        W82438   2.883  34.176   0.830
10124W        W82439  24.250  38.893   9.991
10125W        W82440  26.919  31.888  12.482
10126W        W82441  38.767  44.361  10.630
10127W        W82442  12.132  28.191  13.865
10128W        W82443  24.532  21.469  13.625
10129W        W82444   6.320  36.661  13.558
10130W        W82445  10.257  20.566  14.668
10131W        W82446  40.429  11.562  13.904
10132W        W82447  44.923  31.027  11.128
10133W        W82448   0.801  21.713  11.187
10134W        W82449  23.681  25.940   3.006
10135W        W82450  37.943   6.157  11.409
10136W        W82451   8.926   3.453   0.864
10137W        W82452   1.994   7.932  13.036
10138W        W82453  41.056  15.841   2.767
10139W        W82454   9.136  35.503  10.913
10140W        W82455   7.272  12.115   1.566
10141W        W82456  37.052   3.279  13.107
10142W        W82457  37.026  16.728   2.806
10143W        W82458  14.230  11.632   4.647
10144W        W82459  35.336  30.972  14.403
10145W        W82460  39.840  25.454   1.537
10146W        W82461   7.100   4.386   4.193
10147W        W82462  36.982  28.622  13.421
10148W        W82463  33.202  20.588   2.257
10149W        W82464  40.271  30.732   4.074
10150W        W82465  15.423  17.594  11.582
10151W        W82466  18.601  23.694  12.117
10152W        W82467  11.617  33.891   3.213
10153W        W82468  31.085  20.805   3.778
10154W        W82469  14.381  22.508  11.157
10155W        W82470   3.259   2.393  13.547
10156W        W82471  42.220  22.572  12.622
10157W        W82472  41.039   9.824   2.428
10158W        W82473  30.968  15.703   1.292
10159W        W82474   6.962  29.959  12.017
10160W        W82475   4.928  34.434   0.463
10161W        W82476  36.482  20.224  14.060
10162W        W82477  30.998  19.117   0.575
10163W        W82478  26.575  14.678   0.738
10164W        W82479   1.019   6.235   4.171
10165W        W82480  26.746   2.429   0.357
10166W        W82481  42.799  14.173   2.208
10167W        W82482  31.175  31.384   0.860
10168W        W82483  33.987  31.631  13.389
10169W        W82484  37.774  36.349  12.659
10170W        W82485  20.174  17.149   3.460
10171W        W82486  28.065   1.884  12.576
10172W        W82487   4.214   0.433  11.969
10173W        W82488  18.057  38.584   1.811
10174W        W82489   5.186  26.002   4.143
10175W        W82490  40.791  40.894   4.183
10176W        W82491  26.738  35.689  14.676
10177W        W82492  38.371  41.914  14.986
10178W        W82493  39.635   8.363  12.982
10179W        W82494  35.099  30.915   3.692
10180W        W82495  15.507  21.635   1.563
10181W        W82496  16.238  28.178   1.142
10182W        W82497  19.251   6.472  12.450
10183W        W82498  34.544  10.347  13.438
10184W        W82499  25.044  24.233  13.593
10185W        W82500   2.844  13.656  14.908
10186W        W82501  42.523  37.481  12.653
10187W        W82502  26.879  11.317  14.600
10188W        W82503  39.928  26.290  10.805
10189W        W82504   5.632   2.909  11.581
10190W        W82505  33.496   9.524   1.152
10191W        W82506  12.223   3.730   1.200
10192W        W82507  19.820  43.996   0.753
10193W        W82508  30.116  32.032   1.433
10194W        W82509  42.259  13.783   3.726
10195W        W82510   8.213  21.038   2.683
10196W        W82511   2.492  10.913  12.352
10197W        W82512  16.784  22.879   4.793
10198W        W82513   2.761  42.336   0.417
10199W        W82514  17.582  10.821  11.015
10200W        W82515  36.730  11.599   9.701
10201W        W82516  36.346  19.639   4.335
10202W        W82517  22.503  34.533   2.413
10203W        W82518  18.491   2.188  12.129
10204W        W82519  24.946  25.321  14.429
10205W        W82520  31.041  26.957  12.734
10206W        W82521  12.323  15.769  13.125
10207W        W82522  41.239   6.539   3.662
10208W        W82523  21.984  25.750   3.711
10209W        W82524  28.534  29.422  12.138
10210W        W82525  12.083  26.468  10.783
10211W        W82526  31.414   6.319   5.355
10212W        W82527  14.095  43.691   0.832
10213W        W82528  30.007  34.967   1.861
10214W        W82529  15.264  37.363  11.227
10215W        W82530  24.701  25.457  10.673
10216W        W82531   7.364  12.345  10.708
10217W        W82532  35.058  33.532  10.655
10218W        W82533  31.213  25.015  12.186
10219W        W82534  24.917  42.597  13.319
10220W        W82535  20.680   3.336  13.773
10221W        W82536   2.721   4.842  12.112
10222W        W82537  18.339  11.433   0.860
10223W        W82538  22.910  15.047   2.314
10224W        W82539  25.042  20.293   4.289
10225W        W82540   7.699   2.829   4.630
10226W        W82541  22.610   9.149  12.523
10227W        W82542  20.643   7.888  11.577
10228W        W82543  11.248  41.972   2.359
10229W        W82544  30.136  13.339   2.737
10230W        W82545  37.410  18.666  10.499
10231W        W82546  15.659  13.681   4.820
10232W        W82547  44.804  30.634   1.018
10233W        W82548  40.797  18.631  13.871
10234W        W82549  20.643   0.046   3.230
10235W        W82550  33.989  16.949  11.395
10236W        W82551  24.413  35.132  12.492
10237W        W82552  25.960  10.636  14.948
10238W        W82553  35.633  40.293   2.842
10239W        W82554  41.374  18.650   3.668
10240W        W82555  41.980  34.372   0.882
10241W        W82556  34.565  21.630  14.774
10242W        W82557  35.095   2.189  14.036
10243W        W82558   6.406  42.121   2.238
10244W        W82559  22.734  18.258   4.894
10245W        W82560  12.844   4.795   4.948
10246W        W82561   2.354  42.200  13.977
10247W        W82562   4.223   6.689   3.640
10248W        W82563  12.079   1.029   2.235
10249W        W82564   9.575   3.443  14.504
10250W        W82565  24.694  43.602   2.282
10251W        W82566   7.349  22.682   0.506
10252W        W82567  10.264  23.134  10.876
10253W        W82568  19.014   0.440  13.457
10254W        W82569   5.465  14.151   3.843
10255W        W82570  21.622   2.810  10.800
10256W        W82571  31.432   0.873   2.197
10257W        W82572  27.614  26.020   1.429
10258W        W82573   0.412   2.232  12.041
10259W        W82574  23.828   9.336  13.334
10260W        W82575  17.163  42.636   1.391
10261W        W82576  41.906  42.594   4.334
10262W        W82577  25.021  30.585  14.304
10263W        W82578  26.615   5.324   3.076
10264W        W82579  35.804  37.376   2.202
10265W        W82580   4.875  31.939  12.417
10266W        W82581   7.828  30.140  12.865
10267W        W82582  14.426  40.474   4.475
10268W        W82583  12.338  34.382  13.553
10269W        W82584  39.845   2.032  11.568
10270W        W82585  13.823  36.505  13.582
10271W        W82586  40.942   2.456   3.096
10272W        W82587  35.935  38.571   1.664
10273W        W82588  33.020   9.216   3.477
10274W        W82589  39.059  20.896   1.276
10275W        W82590  34.992   0.475   0.934
10276W        W82591  11.916  43.102  14.967
10277W        W82592  15.859   7.492  11.977
10278W        W82593  38.449  43.884   1.632
10279W        W82594  23.772  24.715  10.825
10280W        W82595   2.023  19.178  10.636
10281W        W82596  41.650  40.402  11.201
10282W        W82597  44.035   0.467   0.418
10283W        W82598   3.032  26.007  14.538
10284W        W82599   6.689  11.183   3.050
10285W        W82600  40.493  35.744  14.912
10286W        W82601  17.537  17.145  14.945
10287W        W82602  31.391  40.815   1.074
10288W        W82603  11.858  24.994   4.696
10289W        W82604  14.994  14.116   4.507
10290W        W82605  35.890  44.909  11.673
10291W        W82606   2.536  26.513   3.868
10292W        W82607   4.296  15.688   3.673
10293W        W82608  10.920  34.027  12.715
10294W        W82609  10.408   1.362  13.961
10295W        W82610  39.329  20.546   4.645
10296W        W82611  40.544  44.948   4.184
10297W        W82612  34.602  39.031  12.849
10298W        W82613  36.464  23.209   4.432
10299W        W82614  36.844  41.089   0.533
10300W        W82615   8.147  44.008   1.403
10301W        W82616  42.026  25.118  13.965
10302W        W82617   8.921  44.972  11.911
10303W        W82618   5.742  22.879   4.285
10304W        W82619   1.442  29.920   4.132
10305W        W82620  35.006  13.337   3.866
10306W        W82621  36.992  41.787  14.725
10307W        W82622  14.766  37.192   2.305
10308W        W82623  14.235   2.905  12.017
10309W        W82624  37.002  11.922   1.735
10310W        W82625  19.325  18.774  14.679
10311W        W82626  28.021   3.875   1.791
10312W        W82627  21.097  21.236   3.659
10313W        W82628  38.545  28.405  14.346
10314W        W82629  22.006  39.554  12.077
10315W        W82630  40.360  34.996  11.937
10316W        W82631  12.639  12.808  13.005
10317W        W82632  42.764  12.085  13.184
10318W        W82633   5.467   4.407  13.097
10319W        W82634  14.642  34.382   4.395
10320W        W82635   8.034  12.140   3.749
10321W        W82636  22.018  19.362   1.541
10322W        W82637  20.660   6.766   0.287
10323W        W82638  41.500   9.404   2.907
10324W        W82639  43.778  32.420  10.636
10325W        W82640  40.593   1.079  11.950
10326W        W82641  16.325  12.898  12.181
10327W        W82642  29.014  13.397   4.507
10328W        W82643  40.830  32.621   3.309
10329W        W82644  29.204  11.523  11.621
10330W        W82645  14.125  43.727  13.149
10331W        W82646  36.356  30.527   4.047
10332W        W82647  35.194  29.986   0.805
10333W        W82648  42.761  23.729  13.470
10334W        W82649  28.926  28.499   1.695
10335W        W82650   2.985   4.359   2.246
10336W        W82651  40.395  23.943   3.334
10337W        W82652  44.176  26.209  14.898
10338W        W82653  34.542  31.291   0.501
10339W        W82654  41.540  11.654  14.388
10340W        W82655  35.402  18.194   1.029
10341W        W82656  41.809  39.442   2.367
10342W        W82657   2.300  29.940   0.772
10343W        W82658  11.399   1.357   0.912
10344W        W82659  28.199  19.261  10.754
10345W        W82660  33.115  14.448  12.507
10346W        W82661  33.976   8.984   3.148
10347W        W82662   5.487   0.967  13.843
10348W        W82663  41.089  22.925   0.810
10349W        W82664  23.256   9.104   0.092
10350W        W82665  12.321   8.172   1.340
10351W        W82666   8.426  15.080  11.103
10352W        W82667  19.615  35.045   0.795
10353W        W82668  22.136  10.786   0.016
10354W        W82669  30.890  32.851  14.795
10355W        W82670   8.726  35.829  10.385
10356W        W82671  14.747  41.347   3.630
10357W        W82672  16.315  11.723  13.926
10358W        W82673  41.886  15.346  13.403
10359W        W82674  23.765  11.332   3.139
10360W        W82675  25.701  30.291  11.966
10361W        W82676  29.928  44.480  13.051
10362W        W82677   3.916  29.475   0.428
10363W        W82678   6.871  15.561   4.096
10364W        W82679  20.757  44.731  14.526
10365W        W82680  12.718   1.678  10.588
10366W        W82681  27.465  32.125   0.626
10367W        W82682   7.030   4.792  11.301
10368W        W82683  14.617  41.259  14.901
10369W        W82684  11.906  18.043   1.259
10370W        W82685  43.985  42.113   4.090
10371W        W82686  26.694   2.006  10.653
10372W        W82687  16.825  19.984  13.153
10373W        W82688  44.309  18.686   4.707
10374W        W82689  20.153   5.151   2.604
10375W        W82690  43.512  37.641  13.703
10376W        W82691  19.420  40.897  12.193
10377W        W82692  44.447  31.123  12.416
10378W        W82693  12.877  37.325  13.595
10379W        W82694  41.887   0.487   2.299
10380W        W82695  11.654  39.113  10.298
10381W        W82696  22.127  23.448   3.568
10382W        W82697  34.399  27.248   2.007
10383W        W82698  27.504   5.131  12.587
10384W        W82699  13.298  32.600  11.700
10385W        W82700  13.333  17.933  14.471
10386W        W82701  35.161   3.969   0.800
10387W        W82702  24.012  35.366   4.918
10388W        W82703  39.481  38.490   4.097
10389W        W82704  24.418  14.798  11.915
10390W        W82705  33.297  12.200   1.559
10391W        W82706  34.385  19.727   4.274
10392W        W82707  27.684  34.166   1.730
10393W        W82708  37.069  14.802  11.580
10394W        W82709  24.061  37.188   2.672
10395W        W82710  15.018   2.792  11.591
10396W        W82711  31.079   1.636  12.532
10397W        W82712  10.760  25.822  10.919
10398W        W82713  30.194   2.903  11.551
10399W        W82714   8.817   9.608   1.712
10400W        W82715  37.335  13.744   1.623
10401W        W82716   4.787   1.416   2.817
10402W        W82717   5.684   4.607  13.901
10403W        W82718  40.096  14.564   1.413
10404W        W82719   2.218  27.719  13.656
10405W        W82720   6.708  12.916  13.009
10406W        W82721  15.109  41.054  13.639
10407W        W82722  25.564   5.676   4.313
10408W        W82723  10.260  32.806   4.591
10409W        W82724  13.628   3.735   0.498
10410W        W82725  40.961  33.835  13.946
10411W        W82726  20.567   8.589   4.612
10412W        W82727  28.820  20.259  14.709
10413W        W82728  10.766  38.911   2.215
10414W        W82729   6.901  31.089   3.691
10415W        W82730  40.424  10.418  11.942
10416W        W82731   3.133   2.421  13.037
10417W        W82732   0.879  24.084  10.628
10418W        W82733  24.165  32.840  13.516
10419W        W82734  32.469   1.788  12.411
10420W        W82735  34.977  34.490  10.588
10421W        W82736   4.278  31.655   3.389
10422W        W82737   6.374  42.405  11.673
10423W        W82738  13.160  31.921   2.588
10424W        W82739  40.839  17.235  11.113
10425W        W82740  33.018  16.743  12.858
10426W        W82741  20.534  28.414  10.457
10427W        W82742  37.788  40.459  10.719
10428W        W82743  20.608  33.105  13.553
10429W        W82744  36.545  28.006   2.718
10430W        W82745  19.570  26.961   3.261
10431W        W82746  15.810  10.940   1.539
10432W        W82747  13.878  18.698  14.119
10433W        W82748  34.756  22.865   1.723
10434W        W82749  43.755  44.911   2.245
10435W        W82750  22.626   7.878   1.777
10436W        W82751  23.122   9.297  12.495
10437W        W82752   8.957  39.465   3.125
10438W        W82753  15.071   8.119  10.755
10439W        W82754  27.454   7.333   2.741
10440W        W82755   3.794   9.270   4.135
10441W        W82756  42.297  26.001  14.428
10442W        W82757   3.239  22.469  10.901
10443W        W82758   6.905  28.338  13.462
10444W        W82759  21.663  26.774  14.764
10445W        W82760   2.029  16.001   4.419
10446W        W82761  27.338  27.977  14.906
10447W        W82762  25.043  11.680  10.437
10448W        W82763   4.739   5.499  14.804
10449W        W82764  17.300  28.158   3.675
10450W        W82765  12.661  28.161   4.011
10451W        W82766  40.559  13.612  11.222
10452W        W82767  20.657  17.823   3.181
10453W        W82768  33.960  38.596   4.585
10454W        W82769  15.254  21.505  14.807
10455W        W82770   4.916   7.083   3.113
10456W        W82771  14.782  33.574  12.045
10457W        W82772  38.586  16.322  11.520
10458W        W82773   8.892  15.514   2.149
10459W        W82774  10.406  31.618   0.547
10460W        W82775  43.471  10.155   2.907
10461W        W82776  14.268  12.680  13.351
10462W        W82777  22.137  13.338   4.758
10463W        W82778  13.216  20.805   0.734
10464W        W82779   5.341  35.809   1.112
10465W        W82780  43.567  14.636   2.419
10466W        W82781  40.552  43.698   4.508
10467W        W82782  24.062   4.868  12.469
10468W        W82783  16.213  27.999  12.963
10469W        W82784  29.651  20.757  11.958
10470W        W82785  30.996   1.034   2.834
10471W        W82786  20.080  43.834   1.201
10472W        W82787  28.490  21.453  12.466
10473W        W82788  26.080   3.383   4.601
10474W        W82789  40.828  40.620   2.696
10475W        W82790  12.597   4.476   3.212
10476W        W82791  15.586  38.671   5.096
10477W        W82792   4.967  26.980  14.023
10478W        W82793  41.070  28.598  13.987
10479W        W82794  40.816  20.671  12.080
10480W        W82795   5.390   4.952  14.225
10481W        W82796  40.468  41.829   0.539
10482W        W82797  19.821  18.616   1.352
10483W        W82798   4.817   4.844   2.893
10484W        W82799   7.754  32.392  13.374
10485W        W82800  12.671  13.038   4.195
10486W        W82801  30.462   1.365   3.230
10487W        W82802   3.712  25.121  12.033
10488W        W82803  44.870  31.691  13.969
10489W        W82804  40.915  10.043  10.772
10490W        W82805  23.232  44.805   1.290
10491W        W82806  13.083  11.717  14.806
10492W        W82807  29.983  10.777   0.911
10493W        W82808   8.800  24.235   2.138
10494W        W82809  41.974  27.753  13.062
10495W        W82810  16.184  10.780   1.236
10496W        W82811  17.090  41.075   4.182
10497W        W82812  34.652  23.028   0.356
10498W        W82813   3.632  28.953  12.090
10499W        W82814  32.048   0.710  12.126
10500W        W82815   5.694  14.241  14.507
10501W        W82816  11.244   6.234  14.439
10502W        W82817   0.173  38.893   4.300
10503W        W82818   2.923   8.739  13.504
10504W        W82819  32.067   6.104   0.735
10505W        W82820  27.183   4.745  12.055
10506W        W82821  24.895  10.538   0.011
10507W        W82822  26.724  28.706  11.432
10508W        W82823   3.566  14.162  12.048
10509W        W82824  44.879  21.001   2.324
10510W        W82825  41.209   4.399  12.995
10511W        W82826  20.787  39.947  14.875
10512W        W82827  18.211  28.918   0.998
10513W        W82828  27.662  21.727  11.157
10514W        W82829  19.631  31.594   1.363
10515W        W82830  23.425  10.373   1.724
10516W        W82831   8.089  31.419   3.708
10517W        W82832  31.486  27.002  12.456
10518W        W82833   3.434  25.666   3.192
10519W        W82834  30.531  37.562   1.501
10520W        W82835  40.858  41.235   1.008
10521W        W82836   2.005   1.813   4.939
10522W        W82837  21.270  15.876   2.140
10523W        W82838  12.277  32.159   3.767
10524W        W82839   6.758   3.533   1.491
10525W        W82840  25.262  42.820  12.027
10526W        W82841   1.553  15.812  12.139
10527W        W82842  34.330  28.500   4.591
10528W        W82843  21.928  35.845   1.314
10529W        W82844  32.539  18.120  13.500
10530W        W82845   5.802  33.336   0.452
10531W        W82846   6.515  29.226   1.351
10532W        W82847   9.774   5.747  12.093
10533W        W82848  19.570  32.883   1.637
10534W        W82849  11.226   1.026  14.499
10535W        W82850  14.620  24.924   4.072
10536W        W82851  32.087  37.252  10.398
10537W        W82852  27.017  25.467   3.085
10538W        W82853   9.670  26.539   3.604
10539W        W82854  13.600  27.584   3.730
10540W        W82855   5.664  38.889   2.157
10541W        W82856  39.782   0.956   2.898
10542W        W82857  35.930   3.711   3.776
10543W        W82858  40.118  12.677   2.685
10544W        W82859   6.920  36.615   1.183
10545W        W82860   2.133  22.034   2.371
10546W        W82861  33.474  29.298  13.493
10547W        W82862  33.148  23.282  13.489
10548W        W82863  35.977  40.145  13.112
10549W        W82864  35.213   0.819   4.299
10550W        W82865  31.841   4.934   2.194
10551W        W82866  13.795  32.653  14.347
10552W        W82867  22.669  39.076   3.068
10553W        W82868  17.398  40.471   0.753
10554W        W82869   3.743  22.234   1.948
10555W        W82870  18.670  44.940  12.155
10556W        W82871  37.995  16.318   2.824
10557W        W82872  44.537  19.256   4.128
10558W        W82873  11.332  22.066  11.363
10559W        W82874  28.480  24.773   4.816
10560W        W82875  37.125  39.941  11.919
10561W        W82876  39.219  25.303  12.489
10562W        W82877  15.062  44.116  10.352
10563W        W82878  33.408   0.968  11.582
10564W        W82879  41.238   2.447   4.654
10565W        W82880   5.941   9.262  12.129
10566W        W82881  37.621  26.079  11.597
10567W        W82882   5.890  22.088   4.561
10568W        W82883  37.805  27.219   2.674
10569W        W82884  24.414  42.893   4.130
10570W        W82885  22.572   2.287   2.679
10571W        W82886  32.206  20.309  12.796
10572W        W82887  39.343  37.553  10.677
10573W        W82888  41.043   7.949   2.267
10574W        W82889  24.272  24.634  12.592
10575W        W82890  17.886   5.815   4.183
10576W        W82891  44.992  18.698  13.878
10577W        W82892  17.317  22.488   0.097
10578W        W82893  30.275  33.896  12.606
10579W        W82894  10.996  38.442   2.098
10580W        W82895  24.758   6.806  10.585
10581W        W82896  24.686   3.641   2.293
10582W        W82897  40.410  30.689   2.313
10583W        W82898  19.286  30.044  11.760
10584W        W82899  23.953  35.952   1.266
10585W        W82900  24.686  26.990   3.056
10586W        W82901  27.964  28.653   1.320
10587W        W82902  11.850  40.177  13.893
10588W        W82903   4.331  11.879  14.102
10589W        W82904   0.238   3.836   1.311
10590W        W82905  37.423  14.677   3.107
10591W        W82906  36.639   2.297   4.192
10592W        W82907   2.352  35.820   0.919
10593W        W82908  25.683  13.790   0.011
10594W        W82909  22.807  24.996   5.113
10595W        W82910  22.505  38.321  11.547
10596W        W82911  23.952  10.334   1.791
10597W        W82912  27.044  33.699   4.533
10598W        W82913  25.026   9.835   2.655
10599W        W82914  24.980  23.954  12.302
10600W        W82915  34.390   8.478  12.637
10601W        W82916   4.465   7.763  11.176
10602W        W82917  39.410   6.491  11.583
10603W        W82918  42.973  26.503  13.488
10604W        W82919   4.904  42.049   3.700
10605W        W82920   8.277  30.856  12.014
10606W        W82921  30.554  15.825   0.321
10607W        W82922  29.501  16.101  14.812
10608W        W82923  21.817  43.516  11.104
10609W        W82924  44.991  21.193   0.261
10610W        W82925  12.627  39.290  11.983
10611W        W82926  25.981  19.157  13.402
10612W        W82927  35.570  16.244   1.736
10613W        W82928  32.119  43.959  12.993
10614W        W82929  32.215  28.640   0.253
10615W        W82930  25.057  30.875  14.737
10616W        W82931  34.844   5.430  13.796
10617W        W82932  30.716  32.197  14.757
10618W        W82933  15.732  11.420   2.318
10619W        W82934  19.627  27.487   4.674
10620W        W82935   9.367   9.756   1.241
10621W        W82936   2.454  10.670  14.859
10622W        W82937  21.244   2.505   3.899
10623W        W82938  16.091  15.595   0.789
10624W        W82939  11.591  13.808  12.600
10625W        W82940  15.816  26.078   2.868
10626W        W82941  18.608  44.541   2.854
10627W        W82942   1.744  26.566   1.775
10628W        W82943  10.114  35.339   0.794
10629W        W82944  31.972   3.472  12.585
10630W        W82945  42.022  19.732   5.117
10631W        W82946   0.925  39.012  10.401
10632W        W82947  17.763  10.344  11.496
10633W        W82948  35.596   7.083  12.497
10634W        W82949  38.279  26.208   3.139
10635W        W82950  33.575   6.806  13.481
10636W        W82951  24.904   9.974   0.748
10637W        W82952  33.072  34.547   1.829
10638W        W82953   6.850  18.352  14.371
10639W        W82954  41.284   6.785   2.682
10640W        W82955  26.883  13.263  10.696
10641W        W82956  18.274  18.591  13.936
10642W        W82957  26.017  25.311   2.808
10643W        W82958  44.828  22.042  11.448
10644W        W82959   2.822  16.784  14.322
10645W        W82960  32.007   0.828  10.332
10646W        W82961  33.113  41.306  11.260
10647W        W82962  35.140  18.282   2.262
10648W        W82963  30.674  17.547   0.553
10649W        W82964   7.904  19.828  10.680
10650W        W82965  15.019   6.778   1.364
10651W        W82966  15.752   6.703  10.842
10652W        W82967   8.879   2.399   1.384
10653W        W82968  21.962  16.264  14.917
10654W        W82969  21.779   8.371  11.533
10655W        W82970  37.420   1.216  14.821
10656W        W82971  25.687  32.402   2.704
10657W        W82972  36.644   8.262  14.361
10658W        W82973  30.825  34.171  14.575
10659W        W82974  43.393  25.501   1.298
10660W        W82975   0.626  12.216  11.673
10661W        W82976   7.455  43.962  10.570
10662W        W82977  40.482  32.521   2.885
10663W        W82978   1.871  33.371   3.722
10664W        W82979  25.145  32.661  12.157
10665W        W82980   5.367  13.009   4.892
10666W        W82981  42.472   4.642   0.927
10667W        W82982  16.666  31.588   9.629
10668W        W82983  21.376  32.787  10.073
10669W        W82984  30.705  41.025   0.036
10670W        W82985  21.889  21.577   5.578
10671W        W82986   9.631  28.591  14.800
10672W        W82987  14.014  23.749  11.986
10673W        W82988  27.069   9.089   3.625
10674W        W82989  40.956  22.451  12.466
10675W        W82990  19.919  30.610  11.243
10676W        W82991   4.806  15.185   0.451
10677W        W82992   7.187   8.835   0.497
10678W        W82993  12.258  20.903   1.800
10679W        W82994   2.207   6.275  14.027
10680W        W82995  24.533  35.557   0.201
10681W        W82996  18.566  31.726  13.390
10682W        W82997  27.756   2.729  14.795
10683W        W82998  44.496  12.550  11.813
10684W        W82999  25.559  37.446  12.980
10685W        W83000  21.640  20.211  13.347
10686W        W83001  21.254  37.200  12.145
10687W        W83002  32.864  42.378   4.872
10688W        W83003   2.045  10.383  10.354
10689W        W83004  34.471  42.891   4.813
10690W        W83005  22.151  10.194   0.162
10691W        W83006  28.080   3.930  13.292
10692W        W83007  26.477  22.950  14.660
10693W        W83008  25.099  13.486   4.011
10694W        W83009  38.931  13.423   4.268
10695W        W83010   8.306  10.794  10.759
10696W        W83011  12.685  41.095  11.017
10697W        W83012  35.970  16.288   3.048
10698W        W83013   8.385  25.501  10.720
10699W        W83014  10.587  44.465  13.964
10700W        W83015  30.819  16.387   3.571
10701W        W83016  15.153  24.792  14.811
10702W        W83017   2.780  11.188  14.331
10703W        W83018  10.797   1.663  11.673
10704W        W83019   9.462  27.042   0.809
10705W        W83020  39.299   7.693  10.734
10706W        W83021  12.801  31.454   1.934
10707W        W83022  25.472  21.933   2.196
10708W        W83023  39.589  10.630  13.029
10709W        W83024  32.498  44.829  12.096
10710W        W83025  41.777  30.675   3.639
10711W        W83026  11.268  39.290  11.933
10712W        W83027  34.573  36.820   1.328
10713W        W83028  41.636  27.187  13.549
10714W        W83029  42.354   4.301  12.597
10715W        W83030  12.163  26.745   4.723
10716W        W83031  22.049  41.321   3.008
10717W        W83032  22.560   4.963  10.730
10718W        W83033  11.128   3.977   0.112
10719W        W83034  40.429  10.573  14.136
10720W        W83035  42.225   3.811   3.319
10721W        W83036  24.224  42.029  11.157
10722W        W83037  36.892  10.172  11.085
10723W        W83038   5.920  12.207  11.689
10724W        W83039  12.113   6.942   4.413
10725W        W83040  20.850  23.221   3.223
10726W        W83041  28.174   8.938  11.658
10727W        W83042  16.939  33.631  10.667
10728W        W83043  35.512  16.652  10.696
10729W        W83044  22.261  40.426   3.048
10730W        W83045  19.796  37.707  12.024
10731W        W83046  21.540  36.585  10.857
10732W        W83047  42.519  32.147  10.648
10733W        W83048  28.360  36.582   1.878
10734W        W83049  13.336  44.837   0.026
10735W        W83050   7.694  29.638   1.704
10736W        W83051   3.953   7.192  12.389
10737W        W83052  43.323   4.483   2.667
10738W        W83053   0.320   9.589   5.485
10739W        W83054  33.010  19.603   0.966
10740W        W83055  40.332   2.323   4.790
10741W        W83056   7.151   1.243   0.688
10742W        W83057   9.778  37.518  13.962
10743W        W83058  17.284  10.537  12.115
10744W        W83059   8.242  13.991   4.273
10745W        W83060  27.204  42.884  12.999
10746W        W83061  29.533  20.136  12.518
10747W        W83062  23.655  25.122   4.154
10748W        W83063  12.209  32.919   4.671
10749W        W83064  34.006  25.065  12.854
10750W        W83065  23.706  18.791   1.210
10751W        W83066   6.013  16.133  13.422
10752W        W83067  26.668   9.161  12.444
10753W        W83068  12.394   8.869  11.525
10754W        W83069  35.951  36.322  14.461
10755W        W83070  41.186  29.719   1.368
10756W        W83071  10.147  37.013   0.320
10757W        W83072  42.108   9.942   3.314
10758W        W83073  44.217  31.116  12.868
10759W        W83074  24.105  43.015  14.398
10760W        W83075   6.745   4.531  11.613
10761W        W83076  22.138   0.835  13.322
10762W        W83077  23.183  24.705  11.534
10763W        W83078  11.760  33.383   2.285
10764W        W83079  20.021  40.999   1.200
10765W        W83080  13.285  39.517  12.458
10766W        W83081  32.265  31.674  13.929
10767W        W83082  35.136   6.392   3.662
10768W        W83083   5.862  29.760  12.713
10769W        W83084  42.792  44.091  10.647
10770W        W83085  29.630  34.591  12.946
10771W        W83086  37.788  17.317   0.735
10772W        W83087  18.576   5.670  12.551
10773W        W83088  36.662  13.130  11.724
10774W        W83089   1.248  44.417  13.887
10775W        W83090  30.673  20.169  12.031
10776W        W83091  22.777   2.768   4.872
10777W        W83092  14.304  32.497   0.272
10778W        W83093  33.409  42.037  11.560
10779W        W83094   1.429  21.127  11.558
10780W        W83095  23.140  44.256  11.514
10781W        W83096   3.749  28.704   2.318
10782W        W83097  40.353  39.314  11.577
10783W        W83098  38.819  16.240   0.006
10784W        W83099  19.252   5.927   1.145
10785W        W83100  26.251  20.296   3.796
10786W        W83101  42.238  21.918  14.440
10787W        W83102  32.705   3.792  12.210
10788W        W83103   9.578  42.910  12.978
10789W        W83104  25.005  15.104  11.585
10790W        W83105   6.291  29.561   2.853
10791W        W83106  28.692  30.430  12.130
10792W        W83107  11.682   8.301  14.462
10793W        W83108   7.184  35.524  11.242
10794W        W83109  38.000  44.934   0.869
10795W        W83110  41.485  11.450  10.565
10796W        W83111   9.279  11.096   3.778
10797W        W83112  34.862  27.066   1.841
10798W        W83113   0.329   7.916  12.363
10799W        W83114   6.532  22.511   5.086
10800W        W83115  34.374  43.367   1.251
10801W        W83116   2.903  28.001   0.696
10802W        W83117  34.024  17.384  14.189
10803W        W83118  16.133  39.896   0.802
10804W        W83119  40.325  39.543  13.413
10805W        W83120  27.224  27.211   4.139
10806W        W83121   9.089  16.749  14.696
10807W        W83122  20.780  28.157   3.473
10808W        W83123  23.012  14.103  10.870
10809W        W83124   2.315  32.638   3.206
10810W        W83125  31.904   9.772  10.560
10811W        W83126   3.350   2.189   2.146
10812W        W83127  18.894   2.785   0.521
10813W        W83128  24.205  38.363   4.067
10814W        W83129   5.995  24.616   2.414
10815W        W83130  35.820   6.013   1.880
10816W        W83131  21.326  19.101  11.133
10817W        W83132  23.449  11.732  14.873
10818W        W83133  17.594  38.020   3.280
10819W        W83134  12.346  10.697   0.388
10820W        W83135  39.033   7.336   4.692
10821W        W83136  23.323  44.100  12.515
10822W        W83137  16.605   7.898  12.429
10823W        W83138  11.163  24.043  11.591
10824W        W83139  44.073   5.350  10.633
10825W        W83140  15.697   7.245  13.989
10826W        W83141  40.115   6.763  13.220
10827W        W83142  28.957  20.731  12.553
10828W        W83143  21.288  20.522  13.128
10829W        W83144  29.632  13.397  14.323
10830W        W83145  37.393  22.177  11.013
10831W        W83146  27.562  15.355  12.961
10832W        W83147   4.958  10.248  12.975
10833W        W83148  36.385  21.659  14.895
10834W        W83149  15.242  10.128   2.296
10835W        W83150  22.857  18.260  12.348
10836W        W83151  34.592  31.602   0.929
10837W        W83152  26.038   7.463   2.932
10838W        W83153  44.410  33.009   1.946
10839W        W83154  18.490  39.903   5.011
10840W        W83155  11.268  18.684  12.966
10841W        W83156  22.728  28.894   1.875
10842W        W83157   8.216  24.836   1.700
10843W        W83158  20.718  27.738   1.937
10844W        W83159   4.743  43.815   0.175
10845W        W83160  42.645  12.663   3.591
10846W        W83161  13.844  38.868   1.012
10847W        W83162  37.775  32.529  12.172
10848W        W83163  31.729  24.673  11.213
10849W        W83164  14.207   9.524   4.731
10850W        W83165  39.033  43.629  13.463
10851W        W83166  31.168  32.410  14.924
10852W        W83167  36.635  29.345  11.618
10853W        W83168  33.858  13.802   1.804
10854W        W83169  28.096  11.234  13.842
10855W        W83170  23.160   9.967  14.862
10856W        W83171  17.799  20.103   2.829
10857W        W83172  30.591  21.017   3.904
10858W        W83173  42.496   3.000  14.438
10859W        W83174  15.299  25.413  13.503
10860W        W83175  21.242   2.001   0.359
10861W        W83176   6.838  16.341  10.701
10862W        W83177  15.327  22.399  11.564
10863W        W83178  18.091  25.819   1.817
10864W        W83179  33.556  16.749  11.593
10865W        W83180  38.372   1.725  11.189
10866W        W83181  30.700  43.310  10.592
10867W        W83182  39.223  32.007  14.308
10868W        W83183  35.572   6.733  14.464
10869W        W83184  25.231  35.358  13.360
10870W        W83185  44.272  36.031   0.963
10871W        W83186   3.256  37.784  11.608
10872W        W83187  20.999  23.195   2.201
10873W        W83188  16.109  40.482   3.762
10874W        W83189   6.890  29.271   1.721
10875W        W83190   1.614  25.608   1.948
10876W        W83191  29.552  16.726  14.007
10877W        W83192  11.667  34.679  12.881
10878W        W83193  22.444  43.359  14.543
10879W        W83194  31.149  37.323  12.319
10880W        W83195   7.883  13.310   1.677
10881W        W83196  32.888  10.522  14.797
10882W        W83197   4.184  12.164   1.384
10883W        W83198  14.691  36.689   4.183
10884W        W83199   3.782  16.057   0.619
10885W        W83200  37.036  16.853  12.297
10886W        W83201  20.442  31.499  13.264
10887W        W83202  17.025  32.812   4.046
10888W        W83203  32.672  20.677  12.071
10889W        W83204  36.800  18.262   0.947
10890W        W83205  44.835  15.007   1.106
10891W        W83206  19.694  11.903   1.835
10892W        W83207  24.505  42.228   2.541
10893W        W83208   8.876  14.964   1.474
10894W        W83209  18.096   3.832  12.450
10895W        W83210  17.623   3.445   3.307
10896W        W83211   7.567  15.211  11.486
10897W        W83212  17.370  23.054  12.236
10898W        W83213   7.268  38.071   0.808
10899W        W83214  31.860  30.823  12.989
10900W        W83215  41.519  24.687   2.719
10901W        W83216  24.629  29.412   4.496
10902W        W83217  17.672  10.804   3.310
10903W        W83218  27.489   7.147   1.647
10904W        W83219  41.043  16.635   4.156
10905W        W83220  37.141  34.536   1.512
10906W        W83221  14.205  11.698  14.803
10907W        W83222  23.104  19.030  11.972
10908W        W83223  25.943  40.460  13.625
10909W        W83224  10.204  24.024   4.721
10910W        W83225  39.963  21.640  11.106
10911W        W83226  42.345   5.673  10.863
10912W        W83227  33.353  38.635  14.156
10913W        W83228  33.241  23.641  11.134
10914W        W83229   3.254   5.883  13.919
10915W        W83230  12.154  15.840   1.025
10916W        W83231  12.790  31.798   3.282
10917W        W83232  12.390  19.756   0.937
10918W        W83233  18.248  35.602  14.004
10919W        W83234   3.714  14.328  13.358
10920W        W83235  38.012  16.305  14.228
10921W        W83236  21.127  42.828  13.371
10922W        W83237  44.220   3.855  13.468
10923W        W83238  38.013   8.362   2.304
10924W        W83239   6.219  17.772  13.563
10925W        W83240  22.996  35.963  14.455
10926W        W83241   8.977  38.017   1.186
10927W        W83242  14.394   0.507  14.948
10928W        W83243  42.748  12.098  10.224
10929W        W83244  13.720  10.800  11.997
10930W        W83245  44.494  25.113   0.431
10931W        W83246  35.286  17.726  11.404
10932W        W83247  13.218  33.974  14.793
10933W        W83248   9.187  17.095   1.213
10934W        W83249  11.160  10.835   1.328
10935W        W83250   4.427  43.962  14.072
10936W        W83251   7.714  11.733  13.863
10937W        W83252  10.838   8.431   1.310
10938W        W83253  29.569  34.518  10.726
10939W        W83254  28.189   5.884   3.846
10940W        W83255  37.021   9.744   0.010
10941W        W83256  15.048  28.511  10.547
10942W        W83257  20.818  22.550  14.971
10943W        W83258  19.067  36.555  12.275
10944W        W83259  33.412  22.458  14.520
10945W        W83260   6.754  33.906   4.599
10946W        W83261  39.936   5.954  10.763
10947W        W83262   2.228  32.094  11.194
10948W        W83263  12.645  38.954  14.484
10949W        W83264   8.831  26.645   1.905
10950W        W83265  27.133   1.372   2.940
10951W        W83266   5.557  32.946   3.196
10952W        W83267  41.915  30.522   4.118
10953W        W83268  23.115  43.109   4.084
10954W        W83269  10.091   5.339   2.819
10955W        W83270   5.154  35.106  14.314
10956W        W83271  29.696  19.571   0.438
10957W        W83272  44.858  13.127   3.755
10958W        W83273   8.448  40.652  11.034
10959W        W83274   1.467   5.387   2.361
10960W        W83275  37.868  21.177   0.976
10961W        W83276   0.792  38.155  13.785
10962W        W83277  31.697  13.732   4.519
10963W        W83278   1.996  24.974   3.284
10964W        W83279  42.319  14.330   3.166
10965W        W83280  38.741  31.137  10.238
10966W        W83281  42.188  12.325  14.402
10967W        W83282  15.717  41.419   4.661
10968W        W83283   4.779   2.684  11.221
10969W        W83284   3.372  10.528   0.924
10970W        W83285  20.518  44.253  14.643
10971W        W83286   4.181  10.793   4.554
10972W        W83287  11.910   9.681   3.652
10973W        W83288  23.967  17.813  12.933
10974W        W83289  28.351  43.267  12.478
10975W        W83290  34.091  23.422   4.005
10976W        W83291  19.508  41.054   5.360
10977W        W83292  17.258  44.406  11.010
10978W        W83293  33.314  12.716   2.717
10979W        W83294   3.319  15.925   0.873
10980W        W83295  37.453  41.227  10.324
10981W        W83296  28.961   2.987   0.442
10982W        W83297   5.340  43.746   3.306
10983W        W83298  32.068  17.512  12.510
10984W        W83299  35.898  36.642   4.205
10985W        W83300  37.372  15.564  13.801
10986W        W83301  29.120  37.862  10.616
10987W        W83302  37.606  37.558  12.959
10988W        W83303  11.611  32.966  11.231
10989W        W83304  22.502  21.123   5.124
10990W        W83305  13.187  23.546  13.029
10991W        W83306  10.403  30.796   3.721
10992W        W83307  18.493  39.484   1.746
10993W        W83308  21.791  43.711   3.285
10994W        W83309  25.954  30.038   4.614
10995W        W83310  11.235  19.438   9.827
10996W        W83311  15.839  28.347   4.639
10997W        W83312   2.720   3.268  10.679
10998W        W83313  21.210  43.319  13.171
10999W        W83314  20.476  33.488   0.544
11000W        W83315  42.036  32.971  12.196
11001W        W83316  21.454  35.543  12.811
11002W        W83317   5.838  24.945  11.834
11003W        W83318  42.591  23.959   4.062
11004W        W83319  36.599   4.627  11.954
11005W        W83320  41.571  12.933   3.226
11006W        W83321  15.179  36.001   0.446
11007W        W83322  20.683  13.124   1.096
11008W        W83323  23.093   2.830  13.875
11009W        W83324  13.315  29.338  14.351
11010W        W83325  31.479  12.591   2.352
11011W        W83326  16.793  20.577  14.505
11012W        W83327  43.407  27.118   1.970
11013W        W83328  30.458  41.991   4.227
11014W        W83329  16.096  43.762  11.615
11015W        W83330  44.214  15.548   1.795
11016W        W83331   6.902  40.610   0.212
11017W        W83332  41.434  39.202   4.466
11018W        W83333  40.684  35.092  10.600
11019W        W83334  25.105  21.695   0.395
11020W        W83335  22.663  37.861   2.866
11021W        W83336  34.565   4.474   1.291
11022W        W83337  25.895  32.633  11.844
11023W        W83338  14.735  30.900   1.870
11024W        W83339   9.163  10.411   2.967
11025W        W83340  12.046   7.639  11.098
11026W        W83341   1.946  16.871  14.008
11027W        W83342  12.087  13.822   2.880
11028W        W83343   4.990  32.573  14.500
11029W        W83344  35.596   5.817  11.504
11030W        W83345  13.842  37.838  12.962
11031W        W83346  34.939  38.377   3.637
11032W        W83347  44.466  25.217  13.016
11033W        W83348  19.102  43.471   4.884
11034W        W83349  28.129  31.971  13.495
11035W        W83350   6.502  35.489  14.831
11036W        W83351   7.628  21.191   1.417
11037W        W83352  28.592  13.864  11.945
11038W        W83353  21.307  27.568  13.314
11039W        W83354  23.669  19.458  10.126
11040W        W83355  18.209  13.335   1.685
11041W        W83356  43.255  35.298  11.955
11042W        W83357  27.549  15.058   4.496
11043W        W83358  44.003   0.891   2.624
11044W        W83359  24.668  11.643  11.677
11045W        W83360   4.356  42.205  11.136
11046W        W83361  19.560   1.311   3.900
11047W        W83362  29.990   4.749   2.561
11048W        W83363  15.763  35.462  13.799
11049W        W83364  30.929  39.288   3.560
11050W        W83365   8.866  12.271   0.900
11051W        W83366  17.511  30.542  10.031
11052W        W83367  32.100  28.945   0.700
11053W        W83368   7.569  41.591  11.646
11054W        W83369  39.387   6.034  12.885
11055W        W83370  33.288  21.875   5.075
11056W        W83371  28.470   9.100   0.454
11057W        W83372  14.745  13.703   1.268
11058W        W83373  36.399  24.627   0.857
11059W        W83374  37.608  44.419  11.277
11060W        W83375  24.095   3.673  12.610
11061W        W83376  12.844  29.961   1.791
11062W        W83377  25.754  26.667  14.585
11063W        W83378  15.555  37.471  10.732
11064W        W83379  14.577  27.503   3.411
11065W        W83380  15.155  38.890   2.623
11066W        W83381  14.448   8.643   0.866
11067W        W83382  20.234  25.181   0.458
11068W        W83383  12.610   1.067   4.228
11069W        W83384  10.656  41.466  13.501
11070W        W83385  12.212   6.682   1.461
11071W        W83386   6.432  41.305   0.005
11072W        W83387  44.229  17.647   3.861
11073W        W83388  25.023  33.981  12.838
11074W        W83389  20.885  13.091  11.544
11075W        W83390  11.221  11.622   2.214
11076W        W83391  26.093   1.975   3.956
11077W        W83392  28.089  20.229  12.579
11078W        W83393   7.477   6.566   1.262
11079W        W83394  13.352  18.358   0.308
11080W        W83395  27.610  20.594   3.279
11081W        W83396  17.589  30.819   0.259
11082W        W83397  43.169  42.211  13.292
11083W        W83398  30.079  25.062   1.363
11084W        W83399  21.141  14.839   2.263
11085W        W83400  41.349  30.533  13.019
11086W        W83401  40.467   3.731  12.520
11087W        W83402   7.785  14.736  14.774
11088W        W83403  23.203  35.949  13.104
11089W        W83404  38.787  41.401  11.597
11090W        W83405   6.285   0.504  13.049
11091W        W83406   3.318  20.345  14.892
11092W        W83407  30.398   2.060  11.272
11093W        W83408   5.708   9.391  10.548
11094W        W83409  18.249   6.428  14.008
11095W        W83410  20.662  13.647   4.616
11096W        W83411  12.370  31.968  13.905
11097W        W83412  24.226   0.967   1.843
11098W        W83413  28.513  38.014   1.416
11099W        W83414  28.814   4.978   5.450
11100W        W83415   2.035  31.675   2.693
11101W        W83416  11.146  20.205   4.125
11102W        W83417  29.985  11.419  10.694
11103W        W83418  28.077   4.342  13.596
11104W        W83419  44.004  11.896  14.380
11105W        W83420  13.120  33.528  14.548
11106W        W83421  35.865  33.880  12.937
11107W        W83422  30.513  43.900   0.224
11108W        W83423  19.657  29.992   0.291
11109W        W83424  19.967  11.385   5.502
11110W        W83425  33.388  21.082  11.466
11111W        W83426  14.219   5.904  13.418
11112W        W83427  32.312   3.747  13.540
11113W        W83428  13.528  33.493  13.859
11114W        W83429  16.897  15.164  11.842
11115W        W83430  36.033  35.048   2.647
11116W        W83431  19.263  14.266   1.322
11117W        W83432  12.061  39.987   1.258
11118W        W83433  33.470  29.504  11.461
11119W        W83434   4.945  31.582  11.517
11120W        W83435   2.694   3.184   1.246
11121W        W83436  14.694  27.894   1.311
11122W        W83437  26.081  23.935   1.477
11123W        W83438  35.130   5.855  11.274
11124W        W83439  32.074  11.860  14.851
11125W        W83440  13.209  32.813   2.565
11126W        W83441  34.459  36.058  13.829
11127W        W83442   5.464  41.797  10.792
11128W        W83443  10.647  34.583   2.772
11129W        W83444  25.474  10.163   4.242
11130W        W83445  38.403  29.173   4.473
11131W        W83446  32.664  22.084  11.852
11132W        W83447   6.723  11.083  14.215
11133W        W83448  27.921  21.527  12.781
11134W        W83449  28.930   0.683  11.546
11135W        W83450  23.524  29.879  11.637
11136W        W83451  16.803  37.809   0.938
11137W        W83452  34.762   4.316   0.800
11138W        W83453  21.764  34.659  12.966
11139W        W83454  23.798  25.376  13.912
11140W        W83455   0.315  30.529   3.816
11141W        W83456  36.587  10.182  12.925
11142W        W83457   9.678  27.298  13.061
11143W        W83458  23.243   2.949   0.818
11144W        W83459  12.315  42.876   0.888
11145W        W83460  18.181  44.404   1.838
11146W        W83461  18.772  36.250   5.092
11147W        W83462  24.810  12.916   3.728
11148W        W83463   3.465   8.912   2.219
11149W        W83464  22.195  37.742   2.669
11150W        W83465  33.920   4.910   0.797
11151W        W83466   9.589  16.246   2.883
11152W        W83467  35.947  28.498   2.224
11153W        W83468  21.764  34.951  14.555
11154W        W83469  41.408  13.974  14.497
11155W        W83470  11.818   4.967   3.748
11156W        W83471  20.052  33.754  13.841
11157W        W83472  25.515  16.714  12.076
11158W        W83473  20.205  30.426  11.623
11159W        W83474   5.360  20.214  13.046
11160W        W83475  28.173  17.747   4.586
11161W        W83476   2.355   7.356   1.969
11162W        W83477  34.715  14.508  14.535
11163W        W83478   2.079  43.342   4.854
11164W        W83479  20.180  39.416   4.101
11165W        W83480  11.530  32.000   2.512
11166W        W83481  41.530   0.435   1.808
11167W        W83482  42.983  22.128   3.828
11168W        W83483  36.006  34.968   1.737
11169W        W83484  19.029  35.045  11.575
11170W        W83485  13.222  25.549   2.496
11171W        W83486  31.110  11.465  13.103
11172W        W83487  13.800  31.097   0.388
11173W        W83488  19.119  24.642  11.780
11174W        W83489  36.407  21.440   1.548
11175W        W83490  32.102  11.593  12.785
11176W        W83491  37.315  12.301   0.487
11177W        W83492   0.768  43.334   1.903
11178W        W83493  16.712  37.821  12.884
11179W        W83494   9.337   8.113   3.141
11180W        W83495  16.743  11.320  14.766
11181W        W83496   9.438  43.212   0.422
11182W        W83497   5.580  23.761   0.455
11183W        W83498   6.934  43.416  13.266
11184W        W83499   1.476  41.410   3.935
11185W        W83500   2.142  37.568  12.949
11186W        W83501  11.241   1.221   4.026
11187W        W83502   1.353  32.477   4.894
11188W        W83503  36.497  23.274   2.764
11189W        W83504  43.216  18.700   4.997
11190W        W83505  28.540  23.416   4.470
11191W        W83506   4.876  13.908   4.175
11192W        W83507  33.394  39.778   4.882
11193W        W83508  38.009  42.026  12.122
11194W        W83509   8.530   9.192   1.345
11195W        W83510  23.789   5.072  14.878
11196W        W83511  15.652  12.497  10.112
11197W        W83512  29.359   7.598   2.660
11198W        W83513  12.215  43.830  14.476
11199W        W83514  36.435  31.472   1.510
11200W        W83515  22.899  25.433   1.797
11201W        W83516  12.453  23.525  12.028
11202W        W83517   5.703  44.860  10.681
11203W        W83518  42.606  25.090   0.428
11204W        W83519  31.015   6.641   1.608
11205W        W83520   0.549   2.249  14.879
11206W        W83521  28.744  41.488  10.512
11207W        W83522   0.011  37.124  13.729
11208W        W83523  13.672  10.298  11.250
11209W        W83524   5.441  19.204   0.326
11210W        W83525  44.202  17.328   4.649
11211W        W83526  30.503  12.720  13.951
11212W        W83527  31.310  44.080  14.938
11213W        W83528  28.070   8.096  10.628
11214W        W83529  33.493  15.729   0.986
11215W        W83530  20.637  30.563  11.310
11216W        W83531  20.075  24.336   4.976
11217W        W83532  27.247   9.494  11.079
11218W        W83533   9.121  41.853  11.215
11219W        W83534  14.539  11.447   1.731
11220W        W83535   8.687  19.798  12.030
11221W        W83536  22.717  30.780  14.408
11222W        W83537  13.730   7.280  12.996
11223W        W83538  17.573   2.921  13.438
11224W        W83539  25.038  27.510  11.515
11225W        W83540   5.589   1.620  13.288
11226W        W83541  40.837   5.700   1.627
11227W        W83542  17.780  43.956   0.260
11228W        W83543  10.381  38.746   3.966
11229W        W83544  42.298  27.812   4.208
11230W        W83545  33.919  30.941  10.614
11231W        W83546  19.734  30.627   1.848
11232W        W83547   7.033  27.875  14.866
11233W        W83548  42.408  38.818  12.815
11234W        W83549  37.462  25.805   3.210
11235W        W83550  20.067  23.750   2.898
11236W        W83551  36.050  18.265   2.129
11237W        W83552  33.165  40.323   1.781
11238W        W83553  42.767   8.194  11.977
11239W        W83554  39.269  15.501   2.628
11240W        W83555  27.488  13.183  13.395
11241W        W83556  24.626   2.237  12.438
11242W        W83557  29.995   2.194  12.376
11243W        W83558  21.473  24.608  10.513
11244W        W83559  42.589   1.802  14.877
11245W        W83560  17.329  14.943   3.313
11246W        W83561  12.582  28.263  11.303
11247W        W83562  23.479  24.400  13.887
11248W        W83563  34.845  39.368  11.414
11249W        W83564   3.301  42.513   4.633
11250W        W83565  34.762   9.855   2.904
11251W        W83566   8.078  40.527  13.589
11252W        W83567  40.042  34.073  12.143
11253W        W83568  28.263  33.013   3.564
11254W        W83569  12.287   2.778   4.901
11255W        W83570  32.128   3.838   0.803
11256W        W83571   3.781   7.238   3.296
11257W        W83572  35.438  32.136  12.858
11258W        W83573  32.658  35.408   4.739
11259W        W83574   0.271  24.634   0.260
11260W        W83575  43.375  22.645   3.918
11261W        W83576   3.257  42.019   4.238
11262W        W83577   7.874  43.124  13.882
11263W        W83578   9.839  44.360  11.630
11264W        W83579  22.697  35.361   1.846
11265W        W83580  44.844   6.385  14.228
11266W        W83581  28.490  24.388   2.186
11267W        W83582  25.233   9.772  11.336
11268W        W83583  23.256  11.459   2.342
11269W        W83584  24.749  14.237  12.433
11270W        W83585  43.294  15.610   0.821
11271W        W83586  20.042   5.799  13.767
11272W        W83587   5.508  39.769   1.683
11273W        W83588  15.345   5.881  12.166
11274W        W83589   9.652  30.921  13.013
11275W        W83590  26.475  36.342  13.437
11276W        W83591  41.512  14.230  14.924
11277W        W83592  26.519  39.849  14.908
11278W        W83593   6.843  10.631  12.904
11279W        W83594  35.870  12.188   3.293
11280W        W83595  41.305  42.348  10.645
11281W        W83596  40.740   0.509   0.026
11282W        W83597   8.762  35.175   2.915
11283W        W83598  28.587  10.307  11.443
11284W        W83599  30.474  43.236   4.564
11285W        W83600  25.618  28.983  11.638
11286W        W83601  24.886  37.133   2.668
11287W        W83602   9.663  29.374  14.217
11288W        W83603  13.880  43.804   1.304
11289W        W83604   6.947  32.316  11.398
11290W        W83605  15.225  21.148   1.446
11291W        W83606  42.814  28.192  11.517
11292W        W83607  16.220  12.169   2.335
11293W        W83608  18.690  23.026  14.605
11294W        W83609  12.642  17.880   4.339
11295W        W83610  18.593   3.978   0.822
11296W        W83611  40.134  24.469  11.043
11297W        W83612   3.698  25.100   3.530
11298W        W83613  23.356  13.322  11.493
11299W        W83614  14.843  29.169  11.094
11300W        W83615  43.595  15.179   0.761
11301W        W83616  24.760  31.867  14.366
11302W        W83617   7.365  30.328  12.939
11303W        W83618  23.520  38.429  13.883
11304W        W83619  15.449  26.078   2.298
11305W        W83620   9.060  34.347  14.408
11306W        W83621  34.596  39.957  11.844
11307W        W83622  36.382   6.438   1.203
11308W        W83623   2.782  24.565   3.651
11309W        W83624   1.404  33.205  11.068
11310W        W83625  19.648   5.409   2.864
11311W        W83626  41.425  34.065   3.853
11312W        W83627   0.014  29.728  12.180
11313W        W83628  33.475  41.390  10.316
11314W        W83629  25.876  11.173  14.953
11315W        W83630  28.464  23.126  14.938
11316W        W83631  37.022  10.641  12.351
11317W        W83632  23.728  27.012  10.929
11318W        W83633  13.938  28.590  13.057
11319W        W83634  35.375  34.084   4.283
11320W        W83635  21.732  25.419   1.357
11321W        W83636  40.844   2.885   2.793
11322W        W83637  19.858  44.863   4.306
11323W        W83638  29.701  41.827   4.767
11324W        W83639   9.378  33.387  11.103
11325W        W83640  32.427  27.010  13.438
11326W        W83641  41.430  10.900   2.635
11327W        W83642  15.599   1.787   1.932
11328W        W83643  32.870  16.115   3.208
11329W        W83644  12.621  19.183  14.438
11330W        W83645  14.810  14.463   3.521
11331W        W83646  37.859  11.055   1.031
11332W        W83647  26.186   4.447   2.732
11333W        W83648  25.767   4.707  11.129
11334W        W83649  38.794   7.749  13.403
11335W        W83650  35.567  32.902   0.223
11336W        W83651  21.704  38.336  12.658
11337W        W83652  19.767   4.697   1.123
11338W        W83653  15.056  43.031  11.578
11339W        W83654  15.813  42.316  11.565
11340W        W83655   1.401  32.623   2.300
11341W        W83656  39.491  40.595   3.768
11342W        W83657  29.994  36.469  11.566
11343W        W83658  10.334  29.235  11.714
11344W        W83659  29.521  18.029  11.311
11345W        W83660  12.678   3.459   2.781
11346W        W83661  18.215  22.494   2.249
11347W        W83662  28.750   1.195   0.445
11348W        W83663   8.217  18.534   1.386
11349W        W83664  36.558  41.665  14.358
11350W        W83665  20.059  12.837   3.492
11351W        W83666  38.080  13.819  13.370
11352W        W83667  10.411  24.534  14.180
11353W        W83668  41.389   8.128   3.273
11354W        W83669  12.730  16.342   2.664
11355W        W83670   4.392  33.926  11.533
11356W        W83671   1.501  31.872  14.476
11357W        W83672  39.257  23.280   2.334
11358W        W83673  32.360  42.934   0.810
11359W        W83674   7.696  35.892  14.227
11360W        W83675  13.853   9.362  14.645
11361W        W83676  14.303  24.164  14.933
11362W        W83677   1.361  41.417  14.261
11363W        W83678  30.875  34.395   0.441
11364W        W83679   8.404   7.968   3.273
11365W        W83680  31.340  19.736  14.931
11366W        W83681  18.728   8.052   3.736
11367W        W83682  22.907  28.083   3.976
11368W        W83683   4.318  20.689  11.494
11369W        W83684  25.984  22.206  14.375
11370W        W83685  27.153  17.269   1.376
11371W        W83686  24.474  10.844  11.941
11372W        W83687  30.398  35.835  13.305
11373W        W83688  31.872  31.701  10.692
11374W        W83689  22.543  44.734   3.396
11375W        W83690  37.506  35.332   2.272
11376W        W83691  18.578   0.219   1.731
11377W        W83692  17.159   3.636  10.664
11378W        W83693  32.041  18.648   1.404
11379W        W83694  21.690  31.812   9.991
11380W        W83695  38.006  25.650  11.389
11381W        W83696   1.692   4.292  13.464
11382W        W83697  23.072  31.530  12.471
11383W        W83698  25.908   0.765  13.893
11384W        W83699  35.681  13.773  13.936
11385W        W83700  13.097   3.431  13.429
11386W        W83701  43.456  37.297  10.704
11387W        W83702  43.260   1.304  14.032
11388W        W83703   7.223  24.628  14.830
11389W        W83704  23.637  12.803   0.879
11390W        W83705  40.593  31.991   0.794
11391W        W83706  35.036  12.603  12.139
11392W        W83707  17.779  24.741  11.934
11393W        W83708  25.637  38.069   0.216
11394W        W83709  19.088  43.009   4.093
11395W        W83710  22.899  14.073  14.201
11396W        W83711  30.052  31.078   4.738
11397W        W83712  22.098  30.570   4.148
11398W        W83713  23.910  36.040  12.571
11399W        W83714  31.417  34.842  13.027
11400W        W83715  15.142  35.534  12.429
11401W        W83716  22.777   8.368   4.646
11402W        W83717  31.455   1.677  11.475
11403W        W83718  40.834  35.310  13.557
11404W        W83719  13.080  32.433  13.290
11405W        W83720  11.291  26.139  12.176
11406W        W83721  23.949  15.732   3.177
11407W        W83722  34.282  25.512  13.489
11408W        W83723  19.627   7.231  13.328
11409W        W83724  29.866  23.317  11.234
11410W        W83725  30.642  23.038   3.506
11411W        W83726   3.696  13.215   2.431
11412W        W83727  30.576  19.965  11.572
11413W        W83728  37.194  30.837   3.627
11414W        W83729  28.369  33.152  11.546
11415W        W83730  28.378  22.740   1.469
11416W        W83731  40.931  18.288  12.320
11417W        W83732  18.156  44.639  14.925
11418W        W83733  27.509  44.613  13.476
11419W        W83734   3.772  28.191  14.247
11420W        W83735  14.108  31.223  13.592
11421W        W83736  41.058  39.015  13.715
11422W        W83737  30.637   2.582   0.004
11423W        W83738   9.716   9.369   0.445
11424W        W83739   8.641   3.283  14.423
11425W        W83740  11.920  11.628   1.620
11426W        W83741  30.553   6.299  11.220
11427W        W83742  20.321  20.288   2.767
11428W        W83743   9.703  38.990   2.259
11429W        W83744  32.523  19.454   4.549
11430W        W83745   5.241  33.013   4.556
11431W        W83746  10.259  25.398   2.303
11432W        W83747  22.610  34.813  14.558
11433W        W83748  34.594  14.254  13.489
11434W        W83749  10.389   8.173  12.091
11435W        W83750  18.272  13.844  13.366
11436W        W83751  31.356  17.599   3.608
11437W        W83752  27.529  20.034  10.647
11438W        W83753  27.893   0.781  11.648
11439W        W83754  32.031  12.626   1.658
11440W        W83755  34.157  41.308  12.566
11441W        W83756  15.288  17.592  10.557
11442W        W83757  28.239   7.285   0.989
11443W        W83758  24.255  33.505   4.055
11444W        W83759  37.827  38.983   1.887
11445W        W83760  18.212  44.381   0.922
11446W        W83761   1.437   0.358  11.866
11447W        W83762  31.174  19.234  14.526
11448W        W83763  43.728  19.537  11.394
11449W        W83764  12.164  22.173  12.853
11450W        W83765  13.369  30.643   3.854
11451W        W83766  18.124  24.553  10.822
11452W        W83767  17.613  25.152  10.067
11453W        W83768   5.230  34.879   1.814
11454W        W83769   8.373  37.814  13.072
11455W        W83770  10.757  36.005  10.599
11456W        W83771  25.114  30.500  12.783
11457W        W83772  21.800  27.548  13.401
11458W        W83773  32.367  44.904   2.151
11459W        W83774  17.327  35.517  10.911
11460W        W83775  28.970  11.860   1.754
11461W        W83776   6.745   6.923   2.300
11462W        W83777   0.993   1.962  14.352
11463W        W83778  21.342  14.586  10.570
11464W        W83779  12.152   9.993   2.281
11465W        W83780  44.130  24.912  11.141
11466W        W83781   7.531  26.295  12.985
11467W        W83782  32.498  19.686  14.038
11468W        W83783  41.127  38.155   2.889
11469W        W83784  19.217  34.709  11.216
11470W        W83785  33.519  36.263  12.780
11471W        W83786   7.350  36.951  10.937
11472W        W83787   0.573  18.449  11.340
11473W        W83788   0.241  18.214  12.589
11474W        W83789  20.045  12.253   0.304
11475W        W83790  30.193  31.101  13.516
11476W        W83791  26.303  29.972  14.901
11477W        W83792  44.693  11.918  12.098
11478W        W83793  13.142  39.488  13.508
11479W        W83794  44.002  34.606   1.423
11480W        W83795  15.063  34.876  13.063
11481W        W83796  13.459  17.573   2.676
11482W        W83797   2.241   8.379  12.888
11483W        W83798   9.420  11.924  14.573
11484W        W83799  40.576  31.419   2.619
11485W        W83800   6.841  20.294  11.220
11486W        W83801  15.716   3.233  12.618
11487W        W83802  39.488   4.418  11.080
11488W        W83803  44.993  35.582   5.000
11489W        W83804  16.131   7.909  12.193
11490W        W83805  21.264  24.968   4.691
11491W        W83806   8.349  28.235   3.875
11492W        W83807  35.394   5.431   3.854
11493W        W83808   4.365  23.181   3.766
11494W        W83809   4.775  37.624  13.031
11495W        W83810  40.789  42.808  12.061
11496W        W83811  27.534  19.565   3.656
11497W        W83812  23.023  29.871   2.345
11498W        W83813  20.992   6.584   4.599
11499W        W83814   4.441  18.687  12.587
11500W        W83815  33.612  33.434  11.034
11501W        W83816   1.530  23.757   3.007
11502W        W83817  26.939  23.833   4.262
11503W        W83818  20.568   9.153   4.430
11504W        W83819  24.756  37.827  11.077
11505W        W83820  22.153  26.916  11.540
11506W        W83821  13.869   2.705  14.477
11507W        W83822   7.186  37.045   0.901
11508W        W83823  19.905  24.384  12.050
11509W        W83824  14.157   8.188   3.698
11510W        W83825   9.890  34.417   0.856
11511W        W83826  13.105  41.009   3.201
11512W        W83827  29.535  19.296  12.122
11513W        W83828  38.487  19.416   0.926
11514W        W83829  15.218  27.933  14.098
11515W        W83830  10.123  17.142  10.829
11516W        W83831  40.517  14.402  14.407
11517W        W83832  18.679   4.616  14.342
11518W        W83833  33.965   0.446  12.062
11519W        W83834  33.500   0.866  13.246
11520W        W83835   4.465  13.935   2.024
11521W        W83836  33.015  15.913  11.540
11522W        W83837  23.587  37.479   1.956
11523W        W83838  42.987  10.626   3.965
11524W        W83839  24.768  20.019  13.037
11525W        W83840   8.060  30.613   1.882
11526W        W83841  15.693   3.830   4.654
11527W        W83842  22.664  19.985   1.159
11528W        W83843  10.198  23.566  12.669
11529W        W83844  14.684  17.118   2.865
11530W        W83845  31.984  43.521  10.619
11531W        W83846  38.568   1.868   1.883
11532W        W83847  44.818  21.810  10.992
11533W        W83848  36.550  13.588   4.213
11534W        W83849   5.887  23.576   4.526
11535W        W83850  37.494   9.781  14.784
11536W        W83851  22.654   3.921   2.724
11537W        W83852  21.822  22.505  10.633
11538W        W83853  17.922  12.436  14.429
11539W        W83854   6.234   0.362  12.167
11540W        W83855  26.353  36.317   3.679
11541W        W83856   8.972   6.770  13.191
11542W        W83857   8.596  30.794  12.438
11543W        W83858  32.659  37.927  10.531
11544W        W83859  25.577  26.439  12.669
11545W        W83860  42.119  33.539   1.280
11546W        W83861  12.256  15.662   0.445
11547W        W83862   6.058   7.380  11.453
11548W        W83863  20.115  27.541   0.861
11549W        W83864  30.727  13.107   1.908
11550W        W83865   4.600  23.486   0.404
11551W        W83866  35.807  19.513   3.391
11552W        W83867  21.904   1.279   3.647
11553W        W83868  29.947   3.251   1.241
11554W        W83869  17.574  35.094  10.726
11555W        W83870  18.218  27.202   0.561
11556W        W83871  14.178  28.030   4.615
11557W        W83872  18.761  28.601   0.707
11558W        W83873  30.455  39.381   0.895
11559W        W83874  32.953  28.975   2.355
11560W        W83875   6.760  43.317   2.905
11561W        W83876  25.637  34.948  13.100
11562W        W83877  44.768  34.243   4.928
11563W        W83878  26.405  34.132   0.805
11564W        W83879  19.074   8.138   4.136
11565W        W83880  38.635  42.571   2.858
11566W        W83881  28.966   4.476  13.839
11567W        W83882  29.436  23.040  11.210
11568W        W83883  44.280  27.974   3.296
11569W        W83884   1.447  18.784   2.363
11570W        W83885  20.857   2.434   4.532
11571W        W83886  16.164  26.383  13.022
11572W        W83887  29.479  23.482  12.327
11573W        W83888  25.255   5.399   1.271
11574W        W83889   3.246  26.089  11.095
11575W        W83890  41.321  18.195  12.620
11576W        W83891  10.414  28.907  11.349
11577W        W83892   8.707  32.083  13.008
11578W        W83893  36.630  25.430  14.398
11579W        W83894  15.248  19.950  12.456
11580W        W83895  13.196  24.386  14.282
11581W        W83896  16.290  15.218  11.898
11582W        W83897  35.102  44.939   0.194
11583W        W83898  28.143  42.409  14.411
11584W        W83899  17.242  39.782  12.244
11585W        W83900  14.834  14.611   4.587
11586W        W83901  36.395  15.256   3.858
11587W        W83902  16.355  33.355  14.434
11588W        W83903  28.049  43.744   1.777
11589W        W83904   7.824  44.733  14.339
11590W        W83905  39.740  17.681   3.488
11591W        W83906  21.127  19.030   4.546
11592W        W83907  35.959  44.428  11.544
11593W        W83908  22.925  38.084   3.694
11594W        W83909  21.490  43.270   3.438
11595W        W83910   1.475  14.059   0.418
11596W        W83911  10.378  41.842   1.826
11597W        W83912   3.357  23.103  14.986
11598W        W83913  38.348  14.568   2.095
11599W        W83914  12.255  30.851  14.814
11600W        W83915   1.378  27.483   2.907
11601W        W83916  13.682  31.345  14.890
11602W        W83917  31.692  42.448  11.136
11603W        W83918  26.236  21.260  11.401
11604W        W83919   0.544  35.572   3.894
11605W        W83920  17.700  38.061  13.484
11606W        W83921  31.479   3.269  12.058
11607W        W83922  23.715  42.386   2.194
11608W        W83923  12.429  27.116   2.058
11609W        W83924  42.853  31.122  13.345
11610W        W83925  15.400  10.136   4.449
11611W        W83926   1.448   2.427   4.164
11612W        W83927  24.053  44.753  14.406
11613W        W83928  25.629  21.485  11.517
11614W        W83929  43.843  24.026  11.087
11615W        W83930   2.038  13.794   1.493
11616W        W83931  25.073  35.352   2.842
11617W        W83932  37.930  30.489   0.165
11618W        W83933  18.105  38.576   4.229
11619W        W83934  16.806  22.928  14.020
11620W        W83935  31.914  42.309  13.994
11621W        W83936  23.581  38.608   0.415
11622W        W83937  17.084  13.700  10.958
11623W        W83938  18.686  33.703   2.681
11624W        W83939  17.837   8.954  11.521
11625W        W83940  36.951   0.346   4.578
11626W        W83941   7.722  28.234  13.501
11627W        W83942   5.179   0.361   2.338
11628W        W83943   5.862  26.575   4.184
11629W        W83944  25.133  34.313   1.295
11630W        W83945  28.039  17.517  14.118
11631W        W83946  42.246  21.119   2.494
11632W        W83947  35.019   6.378  14.429
11633W        W83948  30.628  15.252  14.276
11634W        W83949  26.987  14.512  12.200
11635W        W83950   0.898   6.724   4.358
11636W        W83951   9.747  38.600  14.532
11637W        W83952   1.905   8.965   3.674
11638W        W83953  40.466  39.533  13.904
11639W        W83954   7.428   4.285  12.873
11640W        W83955  43.664  36.809  11.558
11641W        W83956  14.810  42.528  11.476
11642W        W83957  36.623   2.498   1.293
11643W        W83958  36.526  24.799  11.927
11644W        W83959  27.111  32.375  11.859
11645W        W83960  10.615  43.285  12.865
11646W        W83961  16.088   9.370   0.465
11647W        W83962  12.701  40.343  13.348
11648W        W83963   7.169  22.442   3.080
11649W        W83964   9.426   5.316  13.340
11650W        W83965  31.531  18.772  10.612
11651W        W83966  21.626  29.333  10.769
11652W        W83967   0.285  21.888   3.658
11653W        W83968  21.607   2.240  10.814
11654W        W83969  32.410  16.853   4.147
11655W        W83970  26.362  36.874  14.350
11656W        W83971  14.531  32.550  13.602
11657W        W83972  43.963  11.760   4.959
11658W        W83973  26.057  34.713  13.273
11659W        W83974  13.142  14.766   3.724
11660W        W83975  16.305  37.761  14.196
11661W        W83976  12.114  38.277   3.796
11662W        W83977   5.292  40.461   2.434
11663W        W83978   1.792  25.194   3.694
11664W        W83979  38.966  12.452   3.144
11665W        W83980  26.054  40.122   3.799
11666W        W83981  33.710  35.396   1.957
11667W        W83982  12.788  40.929  10.539
11668W        W83983   2.920   0.280   1.813
11669W        W83984   2.050   5.984  11.890
11670W        W83985  31.075  10.797  12.247
11671W        W83986   1.684  32.491   1.036
11672W        W83987  43.995  44.219   0.970
11673W        W83988  36.172  39.445   1.143
11674W        W83989   3.650  37.477  10.690
11675W        W83990  39.913  32.116   3.532
11676W        W83991  29.813  39.383  14.836
11677W        W83992  18.129  35.966   2.388
11678W        W83993   1.687  31.467   3.054
11679W        W83994   8.164  39.036   3.118
11680W        W83995  12.867  34.980   0.307
11681W        W83996  36.062  28.008  12.149
11682W        W83997  15.703  36.990  10.579
11683W        W83998  24.065  10.833  13.011
11684W        W83999  27.175  12.817   0.297
11685W        W84000  40.540  24.636  14.922
11686W        W84001  37.640  24.134  14.760
11687W        W84002  32.425  12.875  11.146
11688W        W84003  20.669  28.007  14.929
11689W        W84004   4.099   6.666  14.940
11690W        W84005   5.718  11.366  12.683
11691W        W84006  22.219  18.562   1.386
11692W        W84007   3.159  14.977  12.111
11693W        W84008  29.456   3.178  11.203
11694W        W84009   3.689  29.577   2.271
11695W        W84010  37.088  24.153   1.786
11696W        W84011  30.903  25.682  10.744
11697W        W84012  15.764  14.782  13.902
11698W        W84013  35.129  43.063  12.106
11699W        W84014  31.997  23.252   2.269
11700W        W84015   3.354   5.481   3.115
11701W        W84016  44.483   3.814   4.359
11702W        W84017  18.113  27.446  13.733
11703W        W84018  17.821   2.950   3.371
11704W        W84019  34.253   0.154  11.167
11705W        W84020  18.376  10.761   4.967
11706W        W84021  32.451  35.943  13.978
11707W        W84022  37.610  11.725  14.343
11708W        W84023   3.342  13.877  12.465
11709W        W84024  16.720  40.886  13.861
11710W        W84025  33.428   8.775  10.690
11711W        W84026  40.987  13.326  11.200
11712W        W84027  38.526  12.166   3.246
11713W        W84028  36.922  11.116   0.391
11714W        W84029   4.022   3.269   2.700
11715W        W84030  33.115   2.849  12.545
11716W        W84031  34.847  37.142  10.704
11717W        W84032  10.286   5.789   3.859
11718W        W84033  27.899  34.872   5.046
11719W        W84034  34.752  33.129   3.679
11720W        W84035  44.748  33.606  10.719
11721W        W84036  33.346  12.350   3.159
11722W        W84037  13.373  15.693  10.647
11723W        W84038  28.758   6.417   1.293
11724W        W84039   7.232  40.538   1.376
11725W        W84040  23.154  34.127   3.555
11726W        W84041  11.368   4.435  14.977
11727W        W84042  15.109  16.060  12.531
11728W        W84043  11.118  17.243   0.875
11729W        W84044  28.437  10.827  10.814
11730W        W84045  25.201  42.342   3.704
11731W        W84046   4.253   9.443  14.468
11732W        W84047  18.211  28.212   2.812
11733W        W84048  34.983  31.892   1.910
11734W        W84049  13.060  26.311  11.732
11735W        W84050  40.525   3.679  10.815
11736W        W84051  27.796  44.790  14.330
11737W        W84052   4.626   9.745  14.675
11738W        W84053  43.955  18.705   4.332
11739W        W84054  11.273  10.140  12.028
11740W        W84055   7.243   7.841  14.958
11741W        W84056   6.681  35.071   3.241
11742W        W84057   7.254  32.366  14.812
11743W        W84058   0.934   7.596   4.066
11744W        W84059  39.954  10.794  14.252
11745W        W84060  18.346  20.752  12.512
11746W        W84061  11.767   0.925  11.139
11747W        W84062  42.310  40.380   0.021
11748W        W84063  19.020  19.924  11.217
11749W        W84064  15.469  35.662   1.109
11750W        W84065  11.569  10.331  14.449
11751W        W84066  24.290   5.369  11.118
11752W        W84067  28.153   0.989  11.250
11753W        W84068  25.549   9.768  10.915
11754W        W84069  12.747  27.508  12.544
11755W        W84070  19.063  20.931  13.899
11756W        W84071   1.469  10.316  12.939
11757W        W84072  35.300   1.949  11.585
11758W        W84073  26.798   3.951   4.013
11759W        W84074  27.651  35.384  11.644
11760W        W84075  17.819   4.414   4.331
11761W        W84076  24.207  10.847   0.509
11762W        W84077   7.694  40.807  12.124
11763W        W84078  21.362  34.889  13.814
11764W        W84079  13.197  21.510  10.664
11765W        W84080   0.293  35.377  11.546
11766W        W84081  44.375  40.337   5.048
11767W        W84082  36.643  13.710   0.141
11768W        W84083  39.658  35.861  14.701
11769W        W84084   2.189  17.205  10.781
11770W        W84085   2.217   7.840   0.384
11771W        W84086  33.548  43.881  11.513
11772W        W84087  20.207  40.229   0.898
11773W        W84088  20.379  11.237   0.421
11774W        W84089  26.509  32.658   1.724
11775W        W84090  17.566  22.527  14.290
11776W        W84091   4.744  44.218   4.404
11777W        W84092  17.543  37.053   0.950
11778W        W84093  12.774  32.934  13.688
11779W        W84094  18.088  21.150   4.382
11780W        W84095   3.005  29.069   4.574
11781W        W84096   0.303  14.823  14.035
11782W        W84097  16.581  22.172  11.926
11783W        W84098  44.937  16.656  10.845
11784W        W84099  32.825  11.762   3.541
11785W        W84100  19.129  27.239  12.006
11786W        W84101   1.445  19.296   1.793
11787W        W84102   6.653  39.607  11.076
11788W        W84103   5.807   7.313   4.105
11789W        W84104  22.386   0.303  14.796
11790W        W84105   5.009  16.537  11.663
11791W        W84106  30.458  21.619  13.933
11792W        W84107  41.988   7.532   9.977
11793W        W84108   8.252  12.120   2.220
11794W        W84109  36.570  21.577  12.405
11795W        W84110   1.888  15.190  10.569
11796W        W84111  36.807   0.365   2.834
11797W        W84112  12.477  13.204   5.087
11798W        W84113  37.025  43.220  10.780
11799W        W84114  37.475   2.930   2.230
11800W        W84115  16.126   4.803   0.005
11801W        W84116  29.953  23.584  12.802
11802W        W84117  37.464   5.231  14.394
11803W        W84118  42.773  19.175   0.483
11804W        W84119   8.625  38.469   4.152
11805W        W84120   7.787   8.978  14.328
11806W        W84121   1.438  24.207   2.678
11807W        W84122  15.719   2.257   4.636
11808W        W84123  43.270  31.915  13.339
11809W        W84124   2.444   3.117  14.103
11810W        W84125  22.677   7.234   0.167
11811W        W84126  27.230  11.660  12.872
11812W        W84127   0.517  35.764  11.327
11813W        W84128  15.822   4.388   4.307
11814W        W84129   9.718  42.040  14.512
11815W        W84130  28.645  42.002   3.259
11816W        W84131  37.946  21.553  11.479
11817W        W84132  39.445  18.758   4.899
11818W        W84133   0.197  33.952  14.749
11819W        W84134   1.817  41.253   0.406
11820W        W84135   9.924  17.753  10.730
11821W        W84136   3.576  13.338   3.232
11822W        W84137  30.838  29.988  13.490
11823W        W84138  32.903   7.601   4.778
11824W        W84139  38.343  15.541  11.102
11825W        W84140  44.187  26.616  10.606
11826W        W84141  38.487  19.961  13.949
11827W        W84142   2.908  36.050  13.080
11828W        W84143  10.268  19.576   4.922
11829W        W84144  29.736  21.298  12.015
11830W        W84145  35.380  24.248  13.282
11831W        W84146  37.419  29.976   4.704
11832W        W84147  18.051  29.529   0.511
11833W        W84148  40.283  29.822   4.177
11834W        W84149  29.107  11.554   3.276
11835W        W84150  15.327  22.890  11.304
11836W        W84151  18.458  29.115  11.208
11837W        W84152  14.865  44.316   3.276
11838W        W84153   5.510  22.589   4.658
11839W        W84154  40.887  18.114  14.040
11840W        W84155  10.603  44.423  12.962
11841W        W84156  38.674  29.930   0.904
11842W        W84157  44.577  12.236   2.904
11843W        W84158  39.829  24.243   0.429
11844W        W84159  10.566   7.354   1.865
11845W        W84160   7.792  27.156  11.036
11846W        W84161  33.466  23.729  12.480
11847W        W84162   4.453  43.790   4.305
11848W        W84163  41.882   7.285  11.445
11849W        W84164  19.112  15.144   1.331
11850W        W84165   2.889  34.017  10.903
11851W        W84166  36.171   4.290   2.686
11852W        W84167  41.661   1.385  13.098
11853W        W84168  25.595  23.679   4.522
11854W        W84169  29.126  33.920   4.976
11855W        W84170   6.413  19.014  11.251
11856W        W84171  40.917  30.439   0.688
11857W        W84172   3.502   7.400  13.593
11858W        W84173  25.242  26.530  14.759
11859W        W84174  33.873   7.169  14.794
11860W        W84175  34.683  18.079   2.888
11861W        W84176  13.966  22.284  12.213
11862W        W84177  39.366  24.958   2.190
11863W        W84178  25.510  34.859  10.667
11864W        W84179  37.004  10.179  12.596
11865W        W84180  13.779  26.359   1.241
11866W        W84181  33.322  15.834   1.890
11867W        W84182  30.841   5.661  14.063
11868W        W84183  31.441  24.530  14.501
11869W        W84184   6.591  10.093   0.128
11870W        W84185  42.196  44.067  12.535
11871W        W84186   4.282  31.581   2.439
11872W        W84187  15.362  35.112  12.680
11873W        W84188  34.087  44.706  10.932
11874W        W84189  27.316  24.598   2.739
11875W        W84190  12.537   7.904  12.933
11876W        W84191  41.772  12.192   0.648
11877W        W84192  26.699  20.169  10.987
11878W        W84193  27.029   9.005  13.127
11879W        W84194  39.108   2.025   4.120
11880W        W84195  37.250  30.824   2.693
11881W        W84196  38.594  17.631  13.904
11882W        W84197  43.904  41.600   4.056
11883W        W84198  30.701  26.556   3.866
11884W        W84199  23.554   0.060   2.844
11885W        W84200  19.976  13.716   3.255
11886W        W84201  30.024   5.624   0.297
11887W        W84202   7.351  18.983  12.213
11888W        W84203   5.419  34.134  14.432
11889W        W84204  29.894  20.132   4.703
11890W        W84205  14.086   3.286  10.697
11891W        W84206  24.698  35.562  12.505
11892W        W84207   2.010  43.458  13.559
11893W        W84208   2.948   6.234   1.845
11894W        W84209  11.124   6.778  14.840
11895W        W84210  31.197  25.783   3.059
11896W        W84211   7.188  16.331  13.972
11897W        W84212  22.562  26.227  14.773
11898W        W84213  29.963  35.977  14.077
11899W        W84214  39.251  25.621   2.332
11900W        W84215  32.140  43.877   0.210
11901W        W84216  14.566   1.171  14.400
11902W        W84217   3.404  41.376  12.607
11903W        W84218  22.709  15.060  11.831
11904W        W84219  17.555   0.998  12.589
11905W        W84220   3.840   7.794  13.921
11906W        W84221  29.734  41.604  14.390
11907W        W84222  25.781   7.661   0.966
11908W        W84223   8.556  25.227  12.076
11909W        W84224  33.661  40.275  14.920
11910W        W84225  13.306  17.721  10.427
11911W        W84226  11.817  30.190  12.241
11912W        W84227   5.952   2.058  10.818
11913W        W84228  26.763  42.282  11.190
11914W        W84229  38.249   7.300  14.777
11915W        W84230  38.568   2.809  10.691
11916W        W84231  17.238  24.954   4.194
11917W        W84232  23.282  24.755  14.739
11918W        W84233   7.745  25.916  11.935
11919W        W84234  40.488   0.273   2.664
11920W        W84235   9.833   3.870   1.898
11921W        W84236  20.445  24.031   1.075
11922W        W84237  41.897   0.803  14.289
11923W        W84238  30.684  20.326  12.590
11924W        W84239  43.650  23.402   0.809
11925W        W84240  13.064  10.146  14.346
11926W        W84241  18.963  16.607   3.036
11927W        W84242  12.580  22.172   1.821
11928W        W84243  38.419  43.044   0.806
11929W        W84244  11.426  10.257  13.958
11930W        W84245  25.646  24.486  12.542
11931W        W84246  41.848  32.434   3.769
11932W        W84247   7.777  18.217   4.570
11933W        W84248  15.548  30.533   4.018
11934W        W84249   0.492   6.249  11.298
11935W        W84250  29.344   2.250  14.819
11936W        W84251   8.080  30.841  13.320
11937W        W84252  14.584   9.183  10.547
11938W        W84253  21.787  11.090   3.200
11939W        W84254  12.377   5.679  14.122
11940W        W84255   5.269  34.841   2.799
11941W        W84256  10.592   1.290  11.368
11942W        W84257  35.355  40.382  11.689
11943W        W84258  28.067  27.544   1.873
11944W        W84259  18.841   0.933  10.945
11945W        W84260  26.484   2.390   4.695
11946W        W84261  21.960  16.356  12.782
11947W        W84262  12.389  27.905  14.789
11948W        W84263   5.922  30.053  11.975
11949W        W84264  24.131  23.174   3.390
11950W        W84265  19.350  44.988   2.873
11951W        W84266  21.321   6.973  11.900
11952W        W84267   3.835  28.660   4.107
11953W        W84268  16.848  38.450  14.785
11954W        W84269  37.540  23.761  12.077
11955W        W84270  37.953  42.815   0.888
11956W        W84271  35.847  28.659   3.220
11957W        W84272  40.265  19.725  11.127
11958W        W84273  30.731  31.450   2.178
11959W        W84274  13.487  12.287   1.409
11960W        W84275  38.435  19.147   4.720
11961W        W84276  24.639  27.098  10.442
11962W        W84277  17.047  43.780   2.427
11963W        W84278  28.619  41.201   2.753
11964W        W84279  20.114  12.832   5.081
11965W        W84280  17.134   5.521  13.725
11966W        W84281  25.994  40.553  12.712
11967W        W84282  22.904  23.537  14.657
11968W        W84283  32.309   4.274  13.361
11969W        W84284  44.426  14.554   0.343
11970W        W84285  43.472   9.262  12.430
11971W        W84286  32.080  39.245   2.789
11972W        W84287  12.672   6.779  12.349
11973W        W84288   3.854  31.012  14.530
11974W        W84289  20.252  20.599  10.455
11975W        W84290  11.231  13.216  14.506
11976W        W84291  28.913  32.670   4.227
11977W        W84292  11.663  30.999  11.540
11978W        W84293  27.390  18.577  11.455
11979W        W84294  34.150   2.738  10.785
11980W        W84295   3.453  28.801   1.894
11981W        W84296   9.810  17.981  11.203
11982W        W84297  11.893  13.670   0.775
11983W        W84298  24.415   0.789  12.459
11984W        W84299  24.110  39.499   0.915
11985W        W84300  25.706  37.942   4.481
11986W        W84301   5.845  36.733   2.811
11987W        W84302  32.087   9.936  11.931
11988W        W84303   7.662  30.480   3.959
11989W        W84304  21.409  39.901   4.081
11990W        W84305  35.920  37.931   4.105
11991W        W84306  28.043   9.391  11.858
11992W        W84307  19.369   5.459   1.380
11993W        W84308  18.265  39.041  11.986
11994W        W84309   0.417   6.808  13.563
11995W        W84310   1.730  20.164  11.996
11996W        W84311  18.974  31.492  14.764
11997W        W84312  12.866   4.409  11.639
11998W        W84313  16.330  17.006  12.461
11999W        W84314  43.393   2.089  10.576
12000W        W84315   7.454  13.083  11.870
12001W        W84316   0.875  23.827  14.821
12002W        W84317  28.559  16.655  13.860
12003W        W84318  37.909  27.970  14.019
12004W        W84319   0.415  20.479  14.768
12005W        W84320  40.068  44.368  11.800
12006W        W84321   7.610   3.831  11.598
12007W        W84322   1.426  25.480  14.285
12008W        W84323   4.354  31.417   1.959
12009W        W84324  23.506  22.034   1.667
12010W        W84325   9.973   7.660   0.335
12011W        W84326  34.180  38.985  10.613
12012W        W84327  41.864  34.311  12.138
12013W        W84328   7.310  42.958  14.293
12014W        W84329  42.974  39.597   0.562
12015W        W84330   7.231  35.175   2.207
12016W        W84331   6.743  31.271  10.825
12017W        W84332  14.740  24.834   3.238
12018W        W84333  17.095   6.917   0.415
12019W        W84334  29.568  17.292  14.523
12020W        W84335   0.221   2.495   4.364
12021W        W84336   8.028  29.300   2.284
12022W        W84337  24.811  26.815  14.942
12023W        W84338   1.256  27.634  14.112
12024W        W84339  41.806  20.530  11.845
12025W        W84340  34.854  40.303  12.171
12026W        W84341  31.485  26.257   2.367
12027W        W84342  43.918  41.060   4.084
12028W        W84343  16.193  19.214   3.638
12029W        W84344  17.098  39.754   2.255
12030W        W84345  11.335  13.508   0.406
12031W        W84346  28.608  11.854  11.579
12032W        W84347  26.908  19.176   0.367
12033W        W84348  14.923  15.405  10.410
12034W        W84349  10.532  24.474   4.091
12035W        W84350  30.001  24.699  12.900
12036W        W84351  27.660  20.542  10.653
12037W        W84352  43.758  15.268  10.861
12038W        W84353  12.315   1.497   2.166
12039W        W84354  26.179  34.330   3.893
12040W        W84355  38.065  37.535  13.238
12041W        W84356   7.308   1.530  10.842
12042W        W84357  36.292  17.866  10.691
12043W        W84358   8.769  35.803  14.407
12044W        W84359  23.688  40.917   1.674
12045W        W84360   0.881   6.771   0.878
12046W        W84361  17.538  12.169   1.831
12047W        W84362  41.177  15.394   1.309
12048W        W84363  40.832  15.585   0.911
12049W        W84364   9.317  40.333  13.045
12050W        W84365  16.616  34.948   3.816
12051W        W84366  33.519  33.432   4.563
12052W        W84367  12.564  16.766   4.950
12053W        W84368  11.680  31.599   0.780
12054W        W84369  38.885  19.088   0.428
12055W        W84370  25.231  14.440  12.337
12056W        W84371  11.136   1.527  14.497
12057W        W84372  12.127  19.871  13.014
12058W        W84373  34.535  15.095   0.447
12059W        W84374  11.081   5.181   0.456
12060W        W84375  23.935  17.287   1.891
12061W        W84376  32.892  33.974   1.222
12062W        W84377  37.133  34.982  12.894
12063W        W84378   9.570  14.219   1.024
12064W        W84379  18.576   1.277   1.768
12065W        W84380  26.100  40.903   0.476
12066W        W84381  26.240   3.377   4.094
12067W        W84382  21.589  19.159   4.358
12068W        W84383  15.690  40.687   4.083
12069W        W84384  14.810  34.998   1.810
12070W        W84385   4.289  12.862  11.894
12071W        W84386  11.865   1.528   1.875
12072W        W84387  28.557  43.534  13.416
12073W        W84388  32.960   2.509  13.480
12074W        W84389   2.112  19.530  11.664
12075W        W84390  18.661  37.111  13.922
12076W        W84391  30.605   1.684   2.268
12077W        W84392  38.798  15.728  10.554
12078W        W84393   2.898  20.097   4.932
12079W        W84394  23.260  27.764   0.274
12080W        W84395  26.441  20.238   0.733
12081W        W84396  19.207  23.221   3.999
12082W        W84397  20.310  34.917  11.952
12083W        W84398   0.788  10.141  12.323
12084W        W84399  24.636  18.700  12.533
12085W        W84400  36.040  17.314   4.846
12086W        W84401   8.397  29.796  11.205
12087W        W84402  23.728  41.602   2.908
12088W        W84403  30.710  10.739   2.621
12089W        W84404  24.483  41.535   4.763
12090W        W84405  44.400  34.389   3.718
12091W        W84406   3.991   0.300  13.335
12092W        W84407   5.785  11.351  13.216
12093W        W84408  29.571  31.192   0.428
12094W        W84409  41.854  35.521   0.262
12095W        W84410  41.567  26.709  14.437
12096W        W84411   1.149  26.574  10.655
12097W        W84412  16.378  24.175   3.546
12098W        W84413   9.625   6.415  14.986
12099W        W84414   3.991  44.996   3.599
12100W        W84415   7.270  43.331   2.290
12101W        W84416  17.655   6.321  13.420
12102W        W84417  23.650  14.222  11.992
12103W        W84418  11.467  20.058   4.538
12104W        W84419  42.409  21.144  10.559
12105W        W84420   8.188  22.065  12.155
12106W        W84421  34.856  40.327   0.928
12107W        W84422  34.880  42.799  14.344
12108W        W84423  22.853  30.816   1.871
12109W        W84424   9.721  40.516   1.473
12110W        W84425  27.003  28.030  12.808
12111W        W84426  21.255  12.517   0.510
12112W        W84427  41.563  41.372   0.158
12113W        W84428  36.152   3.407  10.619
12114W        W84429  26.649  11.643   3.100
12115W        W84430   4.239  22.627   0.017
12116W        W84431  13.923  44.207   0.853
12117W        W84432  35.554  18.325  13.564
12118W        W84433  25.623  21.124  14.839
12119W        W84434  12.600  39.381  11.194
12120W        W84435  16.604  34.448   0.202
12121W        W84436  39.430  26.863   3.364
12122W        W84437  35.470   6.504   1.637
12123W        W84438  39.897   2.531  12.586
12124W        W84439  29.540  33.385  12.408
12125W        W84440  38.897  16.668   3.801
12126W        W84441  12.442  32.508  10.708
12127W        W84442  22.001  24.575  12.241
12128W        W84443   9.149   8.257   3.692
12129W        W84444  13.535  10.243   2.326
12130W        W84445   0.208  29.014   2.838
12131W        W84446   9.827  36.750  14.476
12132W        W84447  35.319   4.756   0.952
12133W        W84448  23.286   0.241   4.226
12134W        W84449  35.308  38.543  10.573
12135W        W84450  16.923  20.573  10.600
12136W        W84451  36.721  15.885  10.429
12137W        W84452  43.865  17.885   4.203
12138W        W84453  33.696  22.209   3.746
12139W        W84454  20.489  10.184   4.746
12140W        W84455   9.378   3.160  11.818
12141W        W84456  34.164  18.539   3.679
12142W        W84457  31.917  31.224  13.823
12143W        W84458  22.702  37.493  11.234
12144W        W84459  29.287   0.751  12.824
12145W        W84460  28.227  36.256   5.181
12146W        W84461  14.817  25.603  13.275
12147W        W84462  18.437  20.129   5.010
12148W        W84463  30.428  29.929   0.884
12149W        W84464  11.409  25.103   0.484
12150W        W84465  20.239  40.444  12.016
12151W        W84466   8.749  42.795   3.174
12152W        W84467   5.628  27.983  14.855
12153W        W84468   1.462  18.233   3.257
12154W        W84469   7.748  33.022   4.268
12155W        W84470  13.672  43.198   2.024
12156W        W84471  20.061  30.817   1.464
12157W        W84472  17.441  22.204  12.464
12158W        W84473   1.333  28.804   0.802
12159W        W84474   0.485  29.241  10.794
12160W        W84475   3.341  13.709   0.445
12161W        W84476  33.758  12.559  12.630
12162W        W84477   0.817   0.682   1.431
12163W        W84478  21.283  10.273  11.163
12164W        W84479   2.989   6.328  14.431
12165W        W84480  23.440  24.781   2.734
12166W        W84481   4.174  42.936   2.872
12167W        W84482  43.538  35.864  11.742
12168W        W84483  31.696  22.544  13.839
12169W        W84484   6.839   4.723   0.221
12170W        W84485  44.982  42.947   4.313
12171W        W84486   9.616  18.132   3.846
12172W        W84487  20.049  11.393  11.605
12173W        W84488  31.769   7.839   1.014
12174W        W84489  23.912   1.512  13.722
12175W        W84490  16.668  11.878  12.936
12176W        W84491  31.254  10.262   4.843
12177W        W84492  33.527   7.709  12.075
12178W        W84493  39.986  25.656   5.053
12179W        W84494  23.699  16.879   4.090
12180W        W84495  17.096  16.835   4.634
12181W        W84496  23.741  36.073   1.750
12182W        W84497   9.425  38.538   2.246
12183W        W84498  34.537  40.387   4.604
12184W        W84499  28.859  27.486   2.809
12185W        W84500  31.947   7.935  11.878
12186W        W84501  44.475  43.380  14.462
12187W        W84502   1.776   7.614   4.073
12188W        W84503  28.215  32.450   0.387
12189W        W84504  11.823  22.707   4.048
12190W        W84505  32.208   2.863   1.102
12191W        W84506  14.208  36.069   2.826
12192W        W84507  16.854  16.127   0.693
12193W        W84508  40.240  16.702  12.491
12194W        W84509  12.242  21.128  11.502
12195W        W84510  43.987  34.200   0.735
12196W        W84511   6.890  10.056  11.623
12197W        W84512  36.896  39.267  13.454
12198W        W84513   0.101   8.873   3.736
12199W        W84514  30.014  19.469  11.977
12200W        W84515  39.292  33.027   3.669
12201W        W84516  20.181  40.631  12.942
12202W        W84517  22.788  25.115   4.103
12203W        W84518  41.902  16.590   4.315
12204W        W84519  38.389  22.115   1.947
12205W        W84520   1.673  29.478  13.396
12206W        W84521  43.397  38.778  12.967
12207W        W84522  38.462  30.979   3.087
12208W        W84523  23.210  19.520  11.767
12209W        W84524  12.011  29.046   0.123
12210W        W84525  20.223  26.612   4.936
12211W        W84526   3.363  41.259   0.784
12212W        W84527  33.711   8.637   2.194
12213W        W84528  12.156   9.323   1.803
12214W        W84529  26.759  19.587  13.380
12215W        W84530  30.568  15.591   5.119
12216W        W84531  10.254  11.011   1.972
12217W        W84532  42.819  24.117   4.549
12218W        W84533  22.296  14.371  12.516
12219W        W84534   8.755  10.436   1.316
12220W        W84535  23.593  25.577  11.539
12221W        W84536  29.424  31.128  11.039
12222W        W84537  19.518   4.432   4.898
12223W        W84538  39.934  29.029  12.405
12224W        W84539  34.008   5.603   3.168
12225W        W84540  25.717  29.520   1.742
12226W        W84541  24.249  42.237  13.857
12227W        W84542  31.366  37.480   2.568
12228W        W84543  16.564   7.958  10.597
12229W        W84544  39.760  35.366   2.794
12230W        W84545  10.320  21.243   1.920
12231W        W84546  15.223  20.655  11.376
12232W        W84547  34.874  19.993   1.802
12233W        W84548   2.188  36.461  13.405
12234W        W84549  27.887  40.452  11.986
12235W        W84550  14.828   3.956  13.343
12236W        W84551  22.279  32.941   4.042
12237W        W84552  40.903  43.724   3.456
12238W        W84553   0.213  16.286  10.580
12239W        W84554   2.169  41.548   4.695
12240W        W84555  40.842  16.425  10.763
12241W        W84556  20.077  19.083  13.755
12242W        W84557  34.279  13.832  11.134
12243W        W84558  36.499   9.861  11.590
12244W        W84559  14.904  34.828   3.247
12245W        W84560   1.489  44.884  12.120
12246W        W84561  25.264  33.847   1.688
12247W        W84562  35.841  19.434   4.311
12248W        W84563  27.207  35.127  13.580
12249W        W84564   8.988   2.742   3.441
12250W        W84565   2.292  16.940   4.514
12251W        W84566  44.316  16.584   1.851
12252W        W84567   3.269  42.806   0.928
12253W        W84568  27.863  20.655  11.952
12254W        W84569  32.724  18.057  12.982
12255W        W84570  40.250  20.077   0.193
12256W        W84571  16.105  35.674  12.612
12257W        W84572  20.746  35.212   1.546
12258W        W84573   4.346   8.862  12.472
12259W        W84574  36.618   4.020  13.282
12260W        W84575  19.793   8.764   4.213
12261W        W84576   7.410  39.286  11.636
12262W        W84577  15.390  44.803   1.286
12263W        W84578  28.569  26.104  14.375
12264W        W84579  36.399   1.298   0.494
12265W        W84580   2.427  29.906  12.043
12266W        W84581  12.024  18.618   1.383
12267W        W84582  24.095  25.919   3.616
12268W        W84583  12.653  27.117  14.321
12269W        W84584  35.810  17.239   1.868
12270W        W84585  25.958  36.082  14.842
12271W        W84586  26.228   6.238   2.930
12272W        W84587   0.977  17.719  12.901
12273W        W84588  42.895  40.371  12.272
12274W        W84589  38.083   9.607  10.953
12275W        W84590  22.883   9.639   1.532
12276W        W84591  26.045  18.974  14.804
12277W        W84592  31.160  20.373   4.207
12278W        W84593  28.643  39.553  10.620
12279W        W84594  27.354   8.636  13.335
12280W        W84595  10.716  30.409   3.010
12281W        W84596  39.363  27.933   4.335
12282W        W84597  37.947   7.293   3.123
12283W        W84598  21.647  10.122   2.908
12284W        W84599  15.073   7.624  11.608
12285W        W84600  38.828  42.056   1.831
12286W        W84601  23.567  12.985  13.403
12287W        W84602   5.547  37.111   2.998
12288W        W84603  30.152   3.295  11.868
12289W        W84604  32.677   1.062   3.286
12290W        W84605  20.628  25.589  14.274
12291W        W84606  30.630   9.245  12.096
12292W        W84607  17.551  24.964  14.476
12293W        W84608  23.543  18.402  14.556
12294W        W84609   0.923  37.112   0.221
12295W        W84610   7.296  34.384  12.929
12296W        W84611  33.752  15.152  12.865
12297W        W84612  18.005  16.648  13.548
12298W        W84613  29.275  38.789  14.339
12299W        W84614  11.215   8.814  13.869
12300W        W84615  28.080  40.999   3.587
12301W        W84616  43.808  43.770   1.882
12302W        W84617  16.747  18.680  13.047
12303W        W84618  29.553  23.657   3.202
12304W        W84619  38.724   9.925   2.599
12305W        W84620   5.609  36.454   0.497
12306W        W84621  42.022  27.967  14.450
12307W        W84622  15.507  32.641   1.822
12308W        W84623  31.188  16.570   2.883
12309W        W84624  10.146   8.576   1.009
12310W        W84625  32.181  27.659   1.653
12311W        W84626  44.915  31.423   3.660
12312W        W84627   3.798  26.729   2.796
12313W        W84628   4.268  36.704   1.192
12314W        W84629  34.826   3.906  14.415
12315W        W84630  25.267   2.927   0.753
12316W        W84631   9.438  36.445   1.292
12317W        W84632  21.170  38.086   1.417
12318W        W84633  17.170  33.170  10.631
12319W        W84634   7.332   2.877   1.764
12320W        W84635  37.558  34.543   1.051
12321W        W84636  36.569  16.923  13.921
12322W        W84637  38.641  16.559  13.423
12323W        W84638   8.200  33.103   1.887
12324W        W84639   2.186  23.997   4.289
12325W        W84640   4.194  17.057   0.731
12326W        W84641  16.632  10.944   5.484
12327W        W84642  33.650   1.355  13.348
12328W        W84643  26.585  30.140   1.824
12329W        W84644   3.270  12.094   0.384
12330W        W84645   5.041  19.210   2.020
12331W        W84646  32.501  36.906  14.942
12332W        W84647  30.801   6.015  14.857
12333W        W84648  15.770  35.069  11.090
12334W        W84649   8.200  20.724  10.989
12335W        W84650  32.160  29.656  11.999
12336W        W84651   8.435  38.521   5.087
12337W        W84652  16.823  20.158   0.438
12338W        W84653  32.140  25.976  12.070
12339W        W84654   1.087  42.345   4.369
12340W        W84655  31.148  33.102   1.686
12341W        W84656  12.621  24.228   1.453
12342W        W84657   9.378  19.332  14.908
12343W        W84658  32.491   7.876   2.204
12344W        W84659  34.122  43.299   1.787
12345W        W84660  22.545  41.874  13.052
12346W        W84661   6.881   4.977  14.307
12347W        W84662   6.736  12.313  13.144
12348W        W84663  15.717   0.470   2.414
12349W        W84664   9.245  39.260   3.829
12350W        W84665  20.634  10.212  13.848
12351W        W84666  39.607  23.925   3.624
12352W        W84667  40.124  17.636   3.806
12353W        W84668  18.132  28.196   4.153
12354W        W84669  31.779   3.274  10.829
12355W        W84670   5.402  37.931  10.677
12356W        W84671  19.771   8.323  11.515
12357W        W84672   9.452  43.391   3.107
12358W        W84673  34.630   9.680   3.372
12359W        W84674   5.827   7.116   3.225
12360W        W84675  19.323  42.887   0.719
12361W        W84676   3.745  30.942  10.771
12362W        W84677  28.203  14.687   4.657
12363W        W84678  34.902  44.853  10.675
12364W        W84679  23.992   9.253   3.184
12365W        W84680   6.671  40.916   0.834
12366W        W84681  30.345  32.926  11.552
12367W        W84682  24.466  27.569  14.936
12368W        W84683  27.630  19.163  12.338
12369W        W84684  32.015  33.924  13.911
12370W        W84685  14.642  27.390   1.473
12371W        W84686  39.678  33.948  14.545
12372W        W84687  10.519  37.442   5.125
12373W        W84688   4.568  14.675  13.074
12374W        W84689   2.954   7.733  12.924
12375W        W84690  16.560  19.172  13.910
12376W        W84691  25.714  25.315  12.848
12377W        W84692  15.700  10.909   1.003
12378W        W84693  24.989  32.435  12.597
12379W        W84694  33.011  35.620  13.329
12380W        W84695  27.488  39.596  13.904
12381W        W84696   1.977   3.189   2.713
12382W        W84697  17.701  39.000  10.479
12383W        W84698  24.032  20.132  13.693
12384W        W84699  24.949  35.807   1.497
12385W        W84700  15.037  19.954   2.915
12386W        W84701   1.531  31.171   0.693
12387W        W84702   1.046  11.599   3.266
12388W        W84703  27.649  39.657   3.372
12389W        W84704  27.365   8.819  12.766
12390W        W84705  39.807  21.314   1.281
12391W        W84706  21.399   6.777   2.472
12392W        W84707   2.454  17.221   1.801
12393W        W84708  27.627   1.531  11.053
12394W        W84709  29.049   5.567   5.248
12395W        W84710  18.053  14.002  13.821
12396W        W84711   5.712   5.718   3.143
12397W        W84712  28.044   2.898  12.501
12398W        W84713   7.731  10.766  14.921
12399W        W84714   2.319   6.609  11.036
12400W        W84715  15.991  31.163   2.969
12401W        W84716  22.752  33.668  10.694
12402W        W84717   1.777  15.136   4.595
12403W        W84718  42.711  13.783  11.600
12404W        W84719   2.858  20.020   3.653
12405W        W84720  22.996  19.075   2.196
12406W        W84721  13.086  13.672   3.645
12407W        W84722   4.153  13.427   3.398
12408W        W84723  24.358  34.994   4.728
12409W        W84724  23.391  32.614   0.371
12410W        W84725  19.933  23.995   1.163
12411W        W84726  17.344  33.026   3.166
12412W        W84727   0.325  26.024   4.284
12413W        W84728  12.556   9.067   4.048
12414W        W84729  24.528  12.884  14.774
12415W        W84730  27.669   0.452  14.918
12416W        W84731  18.359  32.844  12.842
12417W        W84732   3.870  39.309  10.887
12418W        W84733  39.290  29.000  11.013
12419W        W84734  35.397  35.142   3.378
12420W        W84735  32.995  30.655  14.413
12421W        W84736   0.176  26.532   3.071
12422W        W84737   3.031  10.183  13.390
12423W        W84738  36.768  36.320  13.956
12424W        W84739   1.420  23.498   0.013
12425W        W84740  36.436  18.780  12.383
12426W        W84741  16.061   6.255   2.699
12427W        W84742  19.135  35.333  13.162
12428W        W84743   4.957  26.576   0.905
12429W        W84744  31.972   4.574   0.393
12430W        W84745  21.848  25.689  14.807
12431W        W84746  11.655  35.184   0.814
12432W        W84747   8.959  40.377  14.885
12433W        W84748  29.999   6.389   1.981
12434W        W84749  30.896  17.136  12.972
12435W        W84750  43.925  13.874   3.263
12436W        W84751  21.449  42.849   3.742
12437W        W84752  16.268  21.225  10.381
12438W        W84753  35.631  27.126   1.381
12439W        W84754  14.865  23.934   4.918
12440W        W84755  43.327  11.309   1.142
12441W        W84756   2.286  36.345   0.892
12442W        W84757  14.692  27.712  12.005
12443W        W84758  26.781   6.280   1.204
12444W        W84759  14.447   2.174   0.715
12445W        W84760  27.017  13.104   0.985
12446W        W84761  33.226   4.712  13.198
12447W        W84762  37.788  26.374   4.714
12448W        W84763  13.161  22.859   3.562
12449W        W84764   0.461   1.278   0.906
12450W        W84765  27.581  14.309  10.317
12451W        W84766  25.389  44.603   2.321
12452W        W84767  39.927   5.170  14.230
12453W        W84768  22.083  16.770  14.396
12454W        W84769   2.428  17.184   1.276
12455W        W84770  44.760  41.728   2.842
12456W        W84771  14.291  35.826   4.870
12457W        W84772  18.649  36.329  14.491
12458W        W84773   3.419  41.293   1.784
12459W        W84774  12.378  30.465  13.376
12460W        W84775  41.492   9.725  13.524
12461W        W84776   9.812  34.626   2.276
12462W        W84777  24.618  10.196   1.104
12463W        W84778  40.815  39.401  13.483
12464W        W84779  26.096  17.867   3.831
12465W        W84780  27.033  32.425  14.744
12466W        W84781  15.096  38.014  13.331
12467W        W84782  11.384  21.727  11.724
12468W        W84783  16.710  15.634  11.951
12469W        W84784   2.850  26.009  12.417
12470W        W84785  11.706  35.070  11.279
12471W        W84786  26.757  36.603  13.073
12472W        W84787  19.496  11.717   4.000
12473W        W84788   8.015  31.015   0.140
12474W        W84789  28.743  20.127   3.755
12475W        W84790  27.922   4.289  11.041
12476W        W84791  17.260  11.654   3.792
12477W        W84792  38.133  10.238   2.129
12478W        W84793  20.809   2.941   4.535
12479W        W84794  26.874   7.112  10.868
12480W        W84795   4.055  14.703  13.969
12481W        W84796  29.399  36.419  14.360
12482W        W84797  41.336   9.805   1.995
12483W        W84798   4.704  19.784  12.912
12484W        W84799  41.022  40.489  13.562
12485W        W84800  37.823   4.927   3.388
12486W        W84801   0.134  29.229  12.173
12487W        W84802  11.121   5.808   0.762
12488W        W84803  25.472  30.391  10.668
12489W        W84804   5.604  21.122  13.444
12490W        W84805  32.684  33.831   3.611
12491W        W84806   3.626  40.259  12.400
12492W        W84807   0.048  38.529   0.998
12493W        W84808  23.215  12.143   1.393
12494W        W84809  34.580  23.289   1.948
12495W        W84810  26.987  41.261   2.971
12496W        W84811  12.843  27.340  11.093
12497W        W84812  39.249  24.300   3.690
12498W        W84813   1.214  28.974   3.097
12499W        W84814  37.559  31.619   4.130
12500W        W84815  19.194   8.780   2.154
12501W        W84816  27.117  41.933  13.069
12502W        W84817  28.657   1.321  13.820
12503W        W84818  30.632  36.181  11.520
12504W        W84819  33.076  25.962   1.408
12505W        W84820  12.132  44.875   3.769
12506W        W84821   2.021   5.824  10.808
12507W        W84822  10.667  24.201   4.541
12508W        W84823  25.049   4.179   1.839
12509W        W84824  28.642  15.012  13.512
12510W        W84825  20.307   8.661   4.110
12511W        W84826  11.105  24.501  13.379
12512W        W84827  32.012   0.963  11.675
12513W        W84828  34.985  17.716   4.267
12514W        W84829   2.441  34.284  10.989
12515W        W84830  18.640  21.735   1.277
12516W        W84831  28.054  42.720   1.690
12517W        W84832  14.531   0.822   0.782
12518W        W84833  21.013  43.271   3.251
12519W        W84834   5.766  43.014  14.303
12520W        W84835  19.770  37.995  11.483
12521W        W84836   3.303  35.814  11.197
12522W        W84837  42.150  18.915   3.121
12523W        W84838   5.911  14.724  13.734
12524W        W84839  23.333  10.644  12.438
12525W        W84840  23.919  19.264   2.114
12526W        W84841  13.714   1.057   1.017
12527W        W84842  30.393   3.017  11.085
12528W        W84843   0.304  41.843   4.823
12529W        W84844  23.347  28.118  12.721
12530W        W84845  11.853  24.458  12.870
12531W        W84846  13.282  38.975  14.346
12532W        W84847  23.729  23.557   4.964
12533W        W84848  15.761  33.040   3.189
12534W        W84849  32.983   1.275  11.630
12535W        W84850  33.174  19.884  13.418
12536W        W84851  18.133  43.745   3.617
12537W        W84852  20.110   2.887  14.074
12538W        W84853   9.274  13.013  11.701
12539W        W84854  44.709  25.035   0.966
12540W        W84855  41.043  31.449  12.682
12541W        W84856  12.318  39.811   2.065
12542W        W84857  25.953  33.367   0.454
12543W        W84858   8.829   2.453   4.386
12544W        W84859  11.959  20.018  10.045
12545W        W84860  20.368  29.450  10.365
12546W        W84861  13.933  28.020  14.921
12547W        W84862   2.865   0.934  12.694
12548W        W84863  14.785  28.209  14.041
12549W        W84864  44.290   7.659  13.824
12550W        W84865   4.451  19.092  13.291
12551W        W84866  29.270  11.321  13.530
12552W        W84867  23.323  18.446  11.875
12553W        W84868  31.737  11.309   3.311
12554W        W84869  36.943  26.857   4.116
12555W        W84870  35.051  16.672  14.293
12556W        W84871  16.550   4.690  11.626
12557W        W84872  27.763  36.936   3.823
12558W        W84873  36.281   0.456   3.814
12559W        W84874  11.728  26.862  13.351
12560W        W84875   9.339   9.958  11.155
12561W        W84876  35.648   5.321  14.252
12562W        W84877  17.852  29.066  10.457
12563W        W84878  15.272  35.498   2.322
12564W        W84879  34.545  17.265  14.279
12565W        W84880  10.384  15.718   2.332
12566W        W84881  16.654  39.930   0.824
12567W        W84882  43.460  42.875   2.089
12568W        W84883  35.217   3.268  11.934
12569W        W84884  38.831  24.459   0.471
12570W        W84885  35.492  13.537   3.226
12571W        W84886   6.134  15.773  12.516
12572W        W84887  36.996  26.694  10.289
12573W        W84888  30.965  40.626  11.596
12574W        W84889  14.057   2.867   4.548
12575W        W84890  14.408   8.472   4.071
12576W        W84891   3.191  29.049   0.693
12577W        W84892  18.032  36.024  13.793
12578W        W84893  34.507  38.802  13.836
12579W        W84894  10.408  16.151   2.638
12580W        W84895  31.963  25.034   2.796
12581W        W84896  16.523  13.763   0.945
12582W        W84897  35.528  42.792   2.526
12583W        W84898  26.453  13.197   5.048
12584W        W84899  23.050  40.364  11.297
12585W        W84900   8.692  37.593  13.910
12586W        W84901   7.987  30.086  13.960
12587W        W84902   5.465  28.049  12.227
12588W        W84903  10.790  34.990  13.843
12589W        W84904  44.283  34.514  11.451
12590W        W84905  22.805  12.587   4.126
12591W        W84906   6.208   3.769  12.653
12592W        W84907  13.584  13.117  11.148
12593W        W84908   2.250  35.177  13.932
12594W        W84909  21.271  39.614   2.413
12595W        W84910   6.215  31.607  12.490
12596W        W84911  28.165  40.841   1.180
12597W        W84912  11.736  39.153  11.124
12598W        W84913  42.041  41.605   0.032
12599W        W84914  16.987  21.153   2.395
12600W        W84915  24.620  33.404   0.857
12601W        W84916  17.646  20.357  14.935
12602W        W84917  15.785  33.635   4.034
12603W        W84918  24.686  36.872  12.853
12604W        W84919   5.060  16.624   1.480
12605W        W84920  15.101   9.829   2.702
12606W        W84921  26.848   3.258   2.293
12607W        W84922   3.925  36.336   2.343
12608W        W84923   2.199  33.963  14.417
12609W        W84924  16.111  17.993  12.549
12610W        W84925  13.752   4.742   4.865
12611W        W84926  23.016  29.898  12.458
12612W        W84927  15.240  19.104   0.542
12613W        W84928   5.207  43.367   1.331
12614W        W84929  13.405  29.186   2.782
12615W        W84930  26.428  31.048  11.456
12616W        W84931   0.673  25.718   4.002
12617W        W84932   6.322  30.330  13.461
12618W        W84933  23.221   5.929  13.039
12619W        W84934   6.316  27.372   0.638
12620W        W84935  31.575  17.893   0.197
12621W        W84936  22.397  36.545   0.589
12622W        W84937  27.375  17.672  12.810
12623W        W84938   0.819  24.200   3.161
12624W        W84939  10.730  15.194  13.644
12625W        W84940  19.287  39.130   3.260
12626W        W84941   9.948  25.749  11.241
12627W        W84942  13.367  42.567   2.321
12628W        W84943  10.707  23.538  12.115
12629W        W84944   2.279  40.661  11.174
12630W        W84945  38.840   2.745  13.083
12631W        W84946  22.303  16.519   4.087
12632W        W84947  39.601  24.118   4.948
12633W        W84948  43.342   9.581  11.105
12634W        W84949  18.809  40.960  13.078
12635W        W84950  28.299   6.948  12.344
12636W        W84951  44.528  43.448  10.779
12637W        W84952  21.074  44.019   1.370
12638W        W84953  29.673   8.291   3.788
12639W        W84954   7.667  28.742  13.648
12640W        W84955  37.903   7.742  10.507
12641W        W84956  15.596  40.016  14.371
12642W        W84957  16.310  35.365   4.415
12643W        W84958  10.900  17.665   1.056
12644W        W84959  14.352  30.647  11.105
12645W        W84960  40.663  15.726  14.459
12646W        W84961  34.217  33.088   3.693
12647W        W84962   6.642  21.889  14.811
12648W        W84963  10.907  27.327  13.653
12649W        W84964  22.269   3.325   1.218
12650W        W84965  43.451  37.196  14.846
12651W        W84966  17.181   0.967   0.209
12652W        W84967  25.195  13.820  11.527
12653W        W84968  35.880  37.037   3.842
12654W        W84969  11.372  29.471  13.093
12655W        W84970  15.638  40.819   0.749
12656W        W84971  21.236  30.550   2.016
12657W        W84972  20.569   8.550  10.216
12658W        W84973  41.124  10.649   2.309
12659W        W84974  40.241  17.915   3.225
12660W        W84975  42.432   6.791  14.206
12661W        W84976  28.514  16.556  12.035
12662W        W84977  36.708   4.810  10.157
12663W        W84978  38.331  27.792  12.600
12664W        W84979  13.643  28.444   0.030
12665W        W84980  32.379   6.314  14.955
12666W        W84981  18.289  44.656  11.493
12667W        W84982  13.410   2.241   1.412
12668W        W84983  32.490  30.879   2.685
12669W        W84984  13.361  39.885   1.790
12670W        W84985   2.984   2.198  11.410
12671W        W84986  16.858   1.210   1.767
12672W        W84987  16.165  39.018   9.694
12673W        W84988  25.965  29.101  13.948
12674W        W84989  35.113  14.140  11.468
12675W        W84990   4.005  42.510  12.410
12676W        W84991   7.938  18.013  12.451
12677W        W84992  24.801  36.996   1.788
12678W        W84993  18.514  41.876  10.069
12679W        W84994  22.058   9.809   2.905
12680W        W84995   6.226  30.098   0.257
12681W        W84996   1.970   4.872  13.918
12682W        W84997  10.178  10.030   2.941
12683W        W84998  35.474  12.277   1.993
12684W        W84999  25.555  11.142   2.111
12685W        W85000  34.980  25.227  13.914
12686W        W85001   6.847   1.940   4.145
12687W        W85002  37.650  23.511  13.831
12688W        W85003  24.845  39.709   1.423
12689W        W85004  40.840   6.209  11.652
12690W        W85005  26.789  44.442  14.009
12691W        W85006  22.564   2.963   1.493
12692W        W85007   2.242   7.070  13.583
12693W        W85008  19.028  27.537   1.760
12694W        W85009  25.960  17.980   1.140
12695W        W85010  17.600  30.436   1.720
12696W        W85011  25.347  33.444   1.249
12697W        W85012   7.241  16.745   0.767
12698W        W85013  28.412  33.442   4.203
12699W        W85014  14.122  30.092   4.673
12700W        W85015  10.763  20.508  12.250
12701W        W85016  43.898   5.595   2.224
12702W        W85017   7.544   4.746   4.994
12703W        W85018   8.072  36.481  11.610
12704W        W85019   9.365  14.900   1.616
12705W        W85020  35.309  15.576   0.541
12706W        W85021   2.263  16.631   0.377
12707W        W85022   8.103  13.711  13.014
12708W        W85023  36.606  13.113  12.546
12709W        W85024  10.602  31.341   3.272
12710W        W85025  37.961  41.837   1.227
12711W        W85026  42.953  22.751   0.200
12712W        W85027  30.071  26.658  13.607
12713W        W85028  20.609   6.328  14.983
12714W        W85029  11.371  13.060  13.104
12715W        W85030   6.793  19.493  12.504
12716W        W85031   8.287   9.319   0.890
12717W        W85032  39.416  25.971  13.299
12718W        W85033  11.957  17.182  10.110
12719W        W85034   8.313  44.794  12.415
12720W        W85035   0.054  12.227   2.635
12721W        W85036  42.850  40.982   4.823
12722W        W85037  39.041  25.804  13.634
12723W        W85038  37.700   6.556   1.131
12724W        W85039  16.501  24.604   0.388
12725W        W85040  16.763  34.471   2.646
12726W        W85041  17.690   1.200   3.835
12727W        W85042  27.407  38.797  11.016
12728W        W85043  22.693   7.326   0.668
12729W        W85044  27.917  17.161   1.806
12730W        W85045  30.648   2.819   2.214
12731W        W85046  31.861  30.329  11.526
12732W        W85047   8.630  15.715   4.601
12733W        W85048  28.879  34.353   4.232
12734W        W85049  37.592  35.514  11.503
12735W        W85050  37.026  44.607  12.311
12736W        W85051  22.650   8.400   1.680
12737W        W85052   7.022   9.153   3.858
12738W        W85053  24.425  28.173  13.862
12739W        W85054  14.880  14.742   1.954
12740W        W85055  42.084  23.201  13.809
12741W        W85056  33.668   4.853   3.709
12742W        W85057  22.930  34.159   2.206
12743W        W85058  20.260  18.074   2.969
12744W        W85059  17.743  12.284  14.926
12745W        W85060  25.778  32.885   4.887
12746W        W85061   3.182  36.960   0.063
12747W        W85062  25.169  15.517   0.317
12748W        W85063   1.020   6.526   5.006
12749W        W85064   0.830   7.321   3.117
12750W        W85065   1.818  39.798  12.375
12751W        W85066  19.291  14.193  14.063
12752W        W85067  40.276   4.175   0.356
12753W        W85068  17.714  31.338   0.204
12754W        W85069   7.963  41.727  12.058
12755W        W85070  11.873   4.755  13.271
12756W        W85071  36.881  11.092  13.092
12757W        W85072  22.978  28.673  11.269
12758W        W85073   7.443  14.876   0.803
12759W        W85074  30.495  44.517  13.402
12760W        W85075   9.945  36.051  11.616
12761W        W85076  30.667  20.537   4.660
12762W        W85077  20.489  36.339  13.026
12763W        W85078  37.800   3.892   1.896
12764W        W85079   2.529  39.652  11.227
12765W        W85080  44.366   8.892   3.174
12766W        W85081   0.328  25.541  13.512
12767W        W85082  36.355   5.814  14.887
12768W        W85083  22.174  37.367   3.640
12769W        W85084  26.731   0.235  11.280
12770W        W85085  22.152  33.110  12.545
12771W        W85086   0.336  16.622   1.387
12772W        W85087  22.290   8.873  11.488
12773W        W85088   9.594  17.284   4.814
12774W        W85089  44.730  21.186  12.437
12775W        W85090   4.488   8.347   1.194
12776W        W85091  16.138  19.594   4.542
12777W        W85092  25.531  16.258  13.085
12778W        W85093  31.748  20.510  12.909
12779W        W85094  14.186   7.161   3.716
12780W        W85095  36.952  14.173   2.248
12781W        W85096  38.430  23.732   4.551
12782W        W85097  43.707   1.901  11.243
12783W        W85098  15.222  27.654   2.230
12784W        W85099  35.791  16.618  13.921
12785W        W85100   1.696   5.664  11.166
12786W        W85101   8.605  25.848   0.447
12787W        W85102  28.075  12.298  14.208
12788W        W85103  44.811   3.554  14.904
12789W        W85104   6.476  29.645   1.020
12790W        W85105  25.986  34.144  13.358
12791W        W85106   7.618   2.473  10.588
12792W        W85107  16.760  24.593   4.229
12793W        W85108  37.882  42.080   4.697
12794W        W85109  18.012  10.290   1.724
12795W        W85110  41.454  37.378  13.999
12796W        W85111  14.723   5.830  13.590
12797W        W85112  11.244   1.675  11.384
12798W        W85113  42.179  27.440  14.365
12799W        W85114  25.574   2.570  14.468
12800W        W85115  42.368  12.200  13.561
12801W        W85116  37.895   4.931   4.826
12802W        W85117   4.336  17.576   3.759
12803W        W85118  28.639  25.730  11.073
12804W        W85119  37.899  31.108   4.673
12805W        W85120  30.054  43.522  14.516
12806W        W85121   4.671  43.135   2.776
12807W        W85122  35.849  40.892   3.622
12808W        W85123  17.064  10.805  11.145
12809W        W85124  28.668   9.449  12.208
12810W        W85125  36.879  20.558  12.896
12811W        W85126  44.949   4.296  11.016
12812W        W85127  40.940  13.939   4.585
12813W        W85128  10.845   4.123   4.167
12814W        W85129  32.527  32.124   4.928
12815W        W85130  43.565  10.839   2.273
12816W        W85131  22.403  37.436  10.507
12817W        W85132  42.861  15.884   0.032
12818W        W85133  12.511  12.680   4.544
12819W        W85134  18.829   9.039  10.535
12820W        W85135  39.261  27.392  11.649
12821W        W85136  44.703  16.207  10.720
12822W        W85137  42.523  33.059  12.042
12823W        W85138  36.497   5.690   0.397
12824W        W85139  31.918  21.557   3.779
12825W        W85140  28.910  41.013   4.079
12826W        W85141  28.474   5.753  12.354
12827W        W85142  19.519  25.633  11.577
12828W        W85143  22.046   3.743  11.426
12829W        W85144  24.063  28.123   4.599
12830W        W85145  14.964  13.933  12.200
12831W        W85146  27.490   3.729  13.015
12832W        W85147   1.708  38.497  13.153
12833W        W85148  24.489   4.294  12.677
12834W        W85149  10.814  21.447   0.338
12835W        W85150  37.317  21.129   4.159
12836W        W85151  29.516  39.036   2.301
12837W        W85152   8.435  32.952  11.114
12838W        W85153  25.086  20.171  11.442
12839W        W85154  26.271  27.636   0.488
12840W        W85155  21.766   5.096  11.100
12841W        W85156  12.950  25.649  14.829
12842W        W85157  43.135   9.020  14.393
12843W        W85158  35.877  27.139   0.924
12844W        W85159   2.883  26.704   3.263
12845W        W85160  29.684  43.654  12.440
12846W        W85161  23.464  25.048  11.189
12847W        W85162  35.462  43.017   3.004
12848W        W85163  12.525  40.346   2.472
12849W        W85164  24.142  43.326   3.355
12850W        W85165  22.078  39.479   2.425
12851W        W85166  36.437   3.627   1.676
12852W        W85167  43.260  40.322  10.628
12853W        W85168  19.131  14.171   4.580
12854W        W85169   7.355  25.836  14.932
12855W        W85170  11.787  33.931  12.619
12856W        W85171  21.959   3.727   1.382
12857W        W85172  42.989  44.861   2.093
12858W        W85173  28.057   2.185   4.639
12859W        W85174  28.538  38.639  14.475
12860W        W85175  17.472  10.298  10.046
12861W        W85176  44.682  36.886   1.405
12862W        W85177  11.368  43.310  11.679
12863W        W85178  10.459   7.382  11.045
12864W        W85179  22.535  25.346  12.322
12865W        W85180  23.672   9.738  11.006
12866W        W85181  41.827  16.725   1.845
12867W        W85182  25.316  13.673   0.368
12868W        W85183  36.484  18.462   2.357
12869W        W85184  36.383  11.201   4.083
12870W        W85185  41.475  11.711  12.384
12871W        W85186   0.880  41.539  14.551
12872W        W85187  39.707  32.217  11.282
12873W        W85188  12.109  10.978  11.696
12874W        W85189   8.798  39.499  14.794
12875W        W85190  11.271   1.616  13.956
12876W        W85191   7.616  26.984   0.256
12877W        W85192  15.184  26.699   3.367
12878W        W85193  31.451  32.357  10.977
12879W        W85194   8.380  11.214  14.405
12880W        W85195  14.659  26.692   3.275
12881W        W85196  12.850  10.813   2.286
12882W        W85197  20.978  44.763   0.491
12883W        W85198   2.356   9.410   4.703
12884W        W85199  30.588  24.900   0.121
12885W        W85200  16.629  23.348  12.832
12886W        W85201   2.569  17.839   0.802
12887W        W85202   8.940  12.667  14.019
12888W        W85203  16.961  44.249  10.031
12889W        W85204   9.195  31.446   3.893
12890W        W85205   7.190   6.792   0.877
12891W        W85206  21.889  14.140  12.835
12892W        W85207  16.683  11.214  14.260
12893W        W85208  41.287  32.348  13.315
12894W        W85209  30.695   8.144  11.592
12895W        W85210  40.345  43.100  12.022
12896W        W85211  29.031   0.910  12.383
12897W        W85212  12.082  15.177  12.633
12898W        W85213  14.398  14.244  14.769
12899W        W85214  22.908  31.484   1.702
12900W        W85215  44.780  31.922   2.788
12901W        W85216   7.513  18.242   1.094
12902W        W85217  44.526  10.569  11.044
12903W        W85218  34.101  41.669  13.403
12904W        W85219  27.960  25.275  10.452
12905W        W85220  43.025  21.789   4.690
12906W        W85221  35.022  10.643  14.276
12907W        W85222  41.877  17.682   1.049
12908W        W85223   0.205  29.024   0.766
12909W        W85224  26.218   3.024   2.640
12910W        W85225  31.432  42.188   1.134
12911W        W85226  34.069  26.201   2.801
12912W        W85227  13.302  44.483  13.416
12913W        W85228   0.819  44.839   3.267
12914W        W85229  43.526  28.431   2.853
12915W        W85230   2.375  36.113   1.358
12916W        W85231  42.885  21.775   1.148
12917W        W85232  31.957  36.405  12.045
12918W        W85233  23.196  27.081   1.406
12919W        W85234  44.945  41.057   3.613
12920W        W85235  21.525  41.444   0.929
12921W        W85236   1.838  14.720  11.206
12922W        W85237  23.722   9.957   0.347
12923W        W85238  36.976  29.221   1.876
12924W        W85239  15.657  23.518   1.931
12925W        W85240  35.572  37.520  13.293
12926W        W85241  31.097  36.152  11.728
12927W        W85242  38.806  20.609  13.873
12928W        W85243   7.892  38.117  14.874
12929W        W85244  19.256  39.354   5.053
12930W        W85245  17.125  22.431  10.564
12931W        W85246  20.299   6.766  14.907
12932W        W85247  10.418  13.629   0.838
12933W        W85248  11.729  15.343  11.272
12934W        W85249  20.916  22.298  13.067
12935W        W85250   1.232  28.022  14.518
12936W        W85251  14.531  42.977  11.516
12937W        W85252  44.509  28.351  13.906
12938W        W85253  40.738   0.254  12.027
12939W        W85254  43.306   2.521   2.397
12940W        W85255  24.952  10.447  13.619
12941W        W85256  29.028   3.652  10.599
12942W        W85257  28.562  27.983   4.603
12943W        W85258  19.352  27.003   2.778
12944W        W85259  28.562  35.332  11.671
12945W        W85260   9.149  12.423  12.036
12946W        W85261   7.428  44.963   3.219
12947W        W85262   7.476  36.940  10.430
12948W        W85263  28.654  36.245   3.852
12949W        W85264  33.073  34.243   5.098
12950W        W85265   8.063  21.294  13.367
12951W        W85266  30.418   1.195  14.177
12952W        W85267   5.706  14.805  12.400
12953W        W85268  32.464   8.944  13.383
12954W        W85269   0.134   8.371   3.102
12955W        W85270  19.454   6.443  11.086
12956W        W85271  29.948  26.342   3.602
12957W        W85272  34.084  42.956   0.793
12958W        W85273  24.539  29.021   1.423
12959W        W85274  30.936  16.085  12.121
12960W        W85275   0.037  35.855  11.537
12961W        W85276  25.180  27.502   3.459
12962W        W85277  22.496  13.887   0.275
12963W        W85278  17.259  32.103   1.298
12964W        W85279   7.587  15.128   2.726
12965W        W85280  33.449  21.757  10.701
12966W        W85281  36.965  19.156  11.780
12967W        W85282  38.976  19.864   1.844
12968W        W85283  35.839  36.510   2.245
12969W        W85284  32.095   1.496   2.283
12970W        W85285   8.394  15.113  13.242
12971W        W85286  41.578  17.249   4.749
12972W        W85287   4.526  30.451  10.818
12973W        W85288  31.818  27.128  10.468
12974W        W85289  11.907  26.445   1.394
12975W        W85290   3.810  18.596   3.194
12976W        W85291  38.330  40.735  12.020
12977W        W85292  22.570  25.200  11.211
12978W        W85293  28.941  32.028   0.937
12979W        W85294  31.728  33.060   3.388
12980W        W85295  42.823  15.809   0.944
12981W        W85296  10.168   1.660  14.472
12982W        W85297   7.260  44.162  10.087
12983W        W85298  34.401  42.694   4.234
12984W        W85299  26.457   1.664  11.597
12985W        W85300  30.827  44.875   4.900
12986W        W85301   0.943   5.171   3.206
12987W        W85302  12.641  34.841  11.634
12988W        W85303  14.539   8.135   0.863
12989W        W85304   5.877   8.367  14.017
12990W        W85305   6.979   1.729   2.828
12991W        W85306  19.022  26.602   2.695
12992W        W85307  22.685   3.135  13.977
12993W        W85308   4.942  13.042  12.169
12994W        W85309  37.413  30.105   3.213
12995W        W85310   1.195  18.356   4.527
12996W        W85311   2.675  13.060   3.129
12997W        W85312  12.337  12.209  12.897
12998W        W85313  26.935   4.731  12.493
12999W        W85314  41.744  26.525  12.203
13000W        W85315  27.026  44.438   0.686
13001W        W85316  28.134  30.857  10.513
13002W        W85317  37.924  18.583  12.407
13003W        W85318  27.395  26.471  12.447
13004W        W85319  14.648  20.069  13.872
13005W        W85320  41.359  25.954  11.314
13006W        W85321  26.680  24.279  12.937
13007W        W85322  12.143   7.575  12.800
13008W        W85323  16.311  21.246  12.422
13009W        W85324  25.411  21.743   9.787
13010W        W85325  21.600  21.256   3.557
13011W        W85326  21.219   3.411  14.392
13012W        W85327  32.157  28.538  12.962
13013W        W85328  34.686  18.710  13.008
13014W        W85329   5.314  14.178   4.325
13015W        W85330  33.108   3.384   1.887
13016W        W85331  32.950  43.402  14.328
13017W        W85332   0.437  32.430  13.431
13018W        W85333  32.630  39.520  11.090
13019W        W85334   3.255   1.457   0.275
13020W        W85335  35.532  29.578   3.596
13021W        W85336  12.506   8.366  13.193
13022W        W85337   6.419  33.419  10.712
13023W        W85338  14.635  17.658   4.114
13024W        W85339  14.372  28.430   2.406
13025W        W85340   3.778  23.066   3.387
13026W        W85341   8.578   6.571  13.464
13027W        W85342  20.599  30.480   0.237
13028W        W85343  39.610  36.480   0.390
13029W        W85344  28.114  25.709   1.386
13030W        W85345   1.776  13.517   2.464
13031W        W85346   8.745  16.278  12.831
13032W        W85347  13.012  36.629   3.170
13033W        W85348  27.550  16.228  11.678
13034W        W85349  16.615  23.383  14.168
13035W        W85350  11.965  18.535  13.525
13036W        W85351   9.702  34.515   4.790
13037W        W85352  23.151  14.720  12.561
13038W        W85353  27.653  41.785   0.927
13039W        W85354  24.134  32.656   1.945
13040W        W85355  33.971  14.757   2.178
13041W        W85356  20.725  19.872  11.543
13042W        W85357  11.053   0.276   2.545
13043W        W85358  22.668  40.285   2.497
13044W        W85359   5.609   9.350   4.509
13045W        W85360  29.069  25.018   2.281
13046W        W85361  11.802  31.217  13.537
13047W        W85362  18.761  20.642  10.972
13048W        W85363  14.318  13.599  11.596
13049W        W85364  30.092   8.384  12.888
13050W        W85365  13.316  43.966  12.085
13051W        W85366  13.053   3.607  12.971
13052W        W85367  32.935  31.419   3.171
13053W        W85368  12.862  39.802  13.013
13054W        W85369  19.105   7.273  11.863
13055W        W85370   4.508  44.369   1.285
13056W        W85371   4.307   9.925  12.456
13057W        W85372  29.437   1.302   1.503
13058W        W85373  28.520  27.058   1.451
13059W        W85374   5.397  12.287   0.391
13060W        W85375   7.094   3.746   3.571
13061W        W85376  33.895   3.280   3.714
13062W        W85377  21.092   0.701  12.493
13063W        W85378  44.927  14.825  13.662
13064W        W85379  17.263  27.357  10.152
13065W        W85380  26.719  35.090   4.209
13066W        W85381  26.908  18.597   1.657
13067W        W85382  39.595   5.281   2.292
13068W        W85383  36.175  39.048   5.241
13069W        W85384  19.202  38.827   3.711
13070W        W85385   5.428  39.365  11.863
13071W        W85386  21.104   5.753  12.119
13072W        W85387  30.535  11.874  11.568
13073W        W85388  43.493   1.374   3.754
13074W        W85389  29.927  20.380   1.398
13075W        W85390  26.239  21.663  10.407
13076W        W85391  22.204  18.144   3.531
13077W        W85392  44.890   4.096   4.564
13078W        W85393   4.279   6.980  10.996
13079W        W85394   5.228  19.196   0.784
13080W        W85395  44.840  33.781  14.422
13081W        W85396  17.789  27.511  13.338
13082W        W85397   4.034  10.123  13.510
13083W        W85398   8.011  30.170  14.923
13084W        W85399  35.522  24.783   0.315
13085W        W85400  26.617   3.839   9.936
13086W        W85401  21.494  44.385  12.447
13087W        W85402  27.438  23.940  14.884
13088W        W85403  16.103  33.984  12.320
13089W        W85404  17.387   9.193   9.994
13090W        W85405  36.931  31.727  14.784
13091W        W85406   6.073   1.826   3.606
13092W        W85407  43.892  23.667   1.200
13093W        W85408  27.955  15.824   0.849
13094W        W85409  35.903   6.647  12.068
13095W        W85410  34.144  34.952   2.010
13096W        W85411  27.986  41.920  14.420
13097W        W85412  24.187  25.069  10.150
13098W        W85413  25.153  37.304  14.721
13099W        W85414  24.530  43.471   0.000
13100W        W85415  25.524  38.860   3.942
13101W        W85416   7.082   3.480  14.560
13102W        W85417   1.862  38.001  13.045
13103W        W85418  12.679  32.703   4.622
13104W        W85419  12.845  44.930  14.136
13105W        W85420  10.116   4.895   2.018
13106W        W85421  26.163  28.095   1.355
13107W        W85422   8.202  14.519   1.362
13108W        W85423   8.206   8.632  13.443
13109W        W85424  26.025  16.333   2.739
13110W        W85425  28.915  18.861  12.162
13111W        W85426  36.915  11.600   3.715
13112W        W85427  21.303  26.054   1.700
13113W        W85428  43.835  43.942  12.066
13114W        W85429   2.830  32.604   1.539
13115W        W85430  17.259   5.889  12.243
13116W        W85431   2.424  11.658   3.126
13117W        W85432  43.719  17.217  11.142
13118W        W85433   5.914  16.608  14.976
13119W        W85434  34.037   8.455   1.727
13120W        W85435   4.339  37.866  13.157
13121W        W85436  10.919  22.958  14.012
13122W        W85437   3.402  40.233  13.441
13123W        W85438   7.838  26.281  13.483
13124W        W85439  43.214  13.437   0.237
13125W        W85440  33.544  41.410   2.464
13126W        W85441  26.474   9.649  14.051
13127W        W85442  30.187  40.425  12.078
13128W        W85443  33.956  34.995  13.774
13129W        W85444  36.422  43.748   3.618
13130W        W85445  11.637  44.959   3.635
13131W        W85446   9.394  32.659  10.579
13132W        W85447  40.466  19.031   4.040
13133W        W85448  17.800  31.992  11.128
13134W        W85449  21.767   5.148  14.371
13135W        W85450  29.674  11.730   1.203
13136W        W85451  25.193  34.137  11.835
13137W        W85452  20.452  10.786   3.318
13138W        W85453   9.006  14.494  10.403
13139W        W85454   3.220  14.089   2.236
13140W        W85455  44.750  40.218  11.585
13141W        W85456  43.629  41.642  11.702
13142W        W85457  10.638   3.515   0.910
13143W        W85458  11.850  35.210   3.528
13144W        W85459  42.967  26.881   4.997
13145W        W85460  33.939   5.206  12.881
13146W        W85461  21.032   3.398   4.618
13147W        W85462  13.523  36.759  14.918
13148W        W85463  10.400  43.982  10.858
13149W        W85464   7.029  34.499  11.195
13150W        W85465  12.261  21.287   1.400
13151W        W85466  44.553  41.563  12.485
13152W        W85467  23.437  17.231   3.806
13153W        W85468  30.141  23.097   3.339
13154W        W85469   5.732   9.571   1.199
13155W        W85470  39.370  41.657  14.107
13156W        W85471   1.378   8.529  14.074
13157W        W85472  44.797  10.553   0.858
13158W        W85473  26.251  38.595  10.692
13159W        W85474  18.700  37.580   2.641
13160W        W85475  32.090  27.709  11.260
13161W        W85476  24.269  16.827  11.159
13162W        W85477   1.443   3.707   1.718
13163W        W85478  29.328  13.049  14.617
13164W        W85479  24.561   8.271  12.483
13165W        W85480   8.082  33.275   3.971
13166W        W85481  37.081  25.020  12.464
13167W        W85482  21.247   8.504   4.525
13168W        W85483   0.239  36.983  12.604
13169W        W85484   8.410   6.846  11.119
13170W        W85485   9.419   7.698  13.319
13171W        W85486   0.971  40.978   1.875
13172W        W85487  13.043  28.996   4.147
13173W        W85488   8.268  42.013   3.711
13174W        W85489  44.744  17.800  11.496
13175W        W85490   4.726   8.763   0.955
13176W        W85491   7.127   0.785  12.458
13177W        W85492  35.602  15.095   3.237
13178W        W85493  28.200  34.450  11.847
13179W        W85494  16.313   4.760   3.333
13180W        W85495  13.808  24.539   2.128
13181W        W85496  11.803  13.712   2.429
13182W        W85497  13.147  43.339   2.806
13183W        W85498  27.642  16.681  12.892
13184W        W85499  22.636  12.241  12.047
13185W        W85500  12.093  24.992   1.904
13186W        W85501  41.843  16.334   3.631
13187W        W85502  40.455  22.317  10.707
13188W        W85503  36.049   1.727   4.587
13189W        W85504   1.839  18.368  13.383
13190W        W85505  33.666  18.159  13.545
13191W        W85506  32.475  29.065  12.499
13192W        W85507  43.863  18.696   0.761
13193W        W85508  19.155  29.358  13.909
13194W        W85509  42.887  35.798   0.676
13195W        W85510  42.388  13.980  10.341
13196W        W85511   9.194  27.119   2.207
13197W        W85512  42.351  19.086   4.540
13198W        W85513  33.948  34.984   0.189
13199W        W85514  11.684  28.667   3.207
13200W        W85515  18.337  27.187   4.432
13201W        W85516  23.766  15.638   3.696
13202W        W85517  31.713  16.111  11.748
13203W        W85518  36.840  11.760  13.346
13204W        W85519  38.684  13.437   3.349
13205W        W85520  42.932   1.663   1.223
13206W        W85521  11.257  39.544  14.265
13207W        W85522   5.147  28.395  11.085
13208W        W85523  14.728  26.125  13.978
13209W        W85524  39.858  34.906   3.096
13210W        W85525   4.612  32.205  10.799
13211W        W85526  32.172   0.590  14.408
13212W        W85527  40.415   5.086  11.961
13213W        W85528  10.481  32.926   4.148
13214W        W85529  28.994   0.438  10.372
13215W        W85530  20.233  40.923  14.487
13216W        W85531  41.308  12.092   4.672
13217W        W85532   5.330  32.114  14.480
13218W        W85533  37.018  20.645   4.984
13219W        W85534   8.456  43.873   0.960
13220W        W85535  26.834  15.941   2.559
13221W        W85536  18.572  19.331   2.908
13222W        W85537   5.293   8.022  11.997
13223W        W85538   2.360  29.478   2.817
13224W        W85539  24.940  13.415   0.843
13225W        W85540  20.038  23.831   2.386
13226W        W85541  26.835  41.578  13.332
13227W        W85542  18.406  33.290   2.402
13228W        W85543  20.121  18.578  10.357
13229W        W85544  18.216  11.472   2.101
13230W        W85545   0.581  13.441  12.335
13231W        W85546  20.060  29.689   3.621
13232W        W85547  32.080  23.697  13.381
13233W        W85548   9.145  18.854  13.972
13234W        W85549  24.654  18.832  14.871
13235W        W85550  20.916  14.054   4.852
13236W        W85551  13.776   7.284   4.947
13237W        W85552  33.100  14.573  13.026
13238W        W85553  12.027   8.694  11.181
13239W        W85554  29.379   0.322  10.725
13240W        W85555  17.294  35.513  10.391
13241W        W85556  15.057  42.749   2.717
13242W        W85557   9.331  20.852  14.306
13243W        W85558  28.478  10.361  14.875
13244W        W85559  43.774  28.995   0.874
13245W        W85560  36.033  25.033   3.269
13246W        W85561  33.183  31.874   3.153
13247W        W85562  29.468  12.360  11.766
13248W        W85563   4.012   3.498   0.274
13249W        W85564  19.132  29.257  12.014
13250W        W85565  25.246   1.163   4.111
13251W        W85566  31.325  26.140  14.298
13252W        W85567  20.714  34.027  12.605
13253W        W85568   2.171  37.331  10.625
13254W        W85569  26.975   6.224  10.632
13255W        W85570   2.051  33.073   4.100
13256W        W85571  13.968  24.122   4.619
13257W        W85572  25.506   6.734   0.517
13258W        W85573   7.431  42.734  12.475
13259W        W85574  24.052   6.815  11.151
13260W        W85575  10.006  25.785  12.876
13261W        W85576   9.104   9.954   0.798
13262W        W85577  19.731   2.392  12.460
13263W        W85578  34.858   0.953  10.778
13264W        W85579  12.805  22.822  13.538
13265W        W85580  31.444  27.108   2.606
13266W        W85581  29.993   8.912  11.662
13267W        W85582  24.333  19.932  11.927
13268W        W85583  42.993  28.049   0.316
13269W        W85584  10.358  39.111  13.306
13270W        W85585  39.320  10.620  12.009
13271W        W85586  31.265   1.354  11.102
13272W        W85587  35.590  28.737  14.956
13273W        W85588  30.634   1.658  14.405
13274W        W85589  43.870  28.900  12.482
13275W        W85590  44.222  42.964   0.788
13276W        W85591  32.914  33.177  13.455
13277W        W85592  30.100  43.403  11.595
13278W        W85593  35.172  29.466   1.649
13279W        W85594  24.582  26.122   3.560
13280W        W85595  31.040  12.821  13.087
13281W        W85596  34.800  43.535  14.722
13282W        W85597  32.829  22.034  12.871
13283W        W85598  44.674  25.917   1.034
13284W        W85599  22.038  20.542  12.102
13285W        W85600  25.145  25.140   1.866
13286W        W85601  24.184  13.802  12.618
13287W        W85602   2.727  24.267  11.412
13288W        W85603  18.757  13.281   2.361
13289W        W85604  25.720   6.302  13.448
13290W        W85605  38.403  35.731   0.866
13291W        W85606  23.957  22.868   4.341
13292W        W85607  31.705  19.036   1.276
13293W        W85608  32.285  31.032   2.230
13294W        W85609  13.726  40.816  14.681
13295W        W85610  44.571  10.893   2.227
13296W        W85611   9.265  13.905   2.277
13297W        W85612  37.290  35.841   1.410
13298W        W85613  19.395  13.438   4.078
13299W        W85614  14.690  23.622   0.987
13300W        W85615   2.802  33.122   3.651
13301W        W85616  16.746  29.048   1.446
13302W        W85617  19.212  21.802   3.643
13303W        W85618  23.429  38.238   3.424
13304W        W85619  19.219  22.816   0.471
13305W        W85620   5.717  19.109  14.905
13306W        W85621  36.734  12.667   4.194
13307W        W85622  44.919  38.603   2.374
13308W        W85623  32.741  11.681  12.176
13309W        W85624   3.834  10.283   1.130
13310W        W85625  10.738  30.010   4.262
13311W        W85626  12.357  21.742  14.361
13312W        W85627  21.265   8.676   5.021
13313W        W85628   5.385  41.338   1.458
13314W        W85629  11.737  38.547   0.901
13315W        W85630  34.440  14.670   1.967
13316W        W85631  37.576  42.995   3.800
13317W        W85632  16.206  32.994  12.026
13318W        W85633   7.875  26.021   3.396
13319W        W85634  22.491  19.603   4.543
13320W        W85635  39.226  39.268  11.982
13321W        W85636  30.852  14.332  10.627
13322W        W85637  28.157   9.391  11.357
13323W        W85638   7.802  37.339   4.706
13324W        W85639  44.770  27.617   4.844
13325W        W85640  39.441  32.351   0.266
13326W        W85641   2.642  41.000  10.989
13327W        W85642  18.176  19.218  14.799
13328W        W85643  28.727  28.428  13.746
13329W        W85644  10.669  21.975  13.871
13330W        W85645  17.582  43.020   3.817
13331W        W85646  40.337  42.813  14.948
13332W        W85647   0.917   1.740   1.575
13333W        W85648  40.862   5.464  13.454
13334W        W85649  32.609  39.970  14.331
13335W        W85650  11.423   0.435   3.733
13336W        W85651   3.866  42.053   1.667
13337W        W85652  41.084  21.060  11.157
13338W        W85653  42.509   7.824   3.154
13339W        W85654  25.243  31.418  11.122
13340W        W85655  10.060  36.689  13.829
13341W        W85656   4.487  24.096  13.497
13342W        W85657  34.146  20.724  12.161
13343W        W85658  17.757  31.301   5.690
13344W        W85659   4.417  37.031  14.820
13345W        W85660  37.968  43.748   1.388
13346W        W85661   8.938  25.509   0.253
13347W        W85662  36.958  28.369   3.721
13348W        W85663  17.631  33.514   4.323
13349W        W85664  14.310  21.303  14.909
13350W        W85665  18.493  30.431   4.175
13351W        W85666  30.017  19.855  12.443
13352W        W85667  26.675  29.502  10.708
13353W        W85668  24.654  38.140   4.208
13354W        W85669  36.640   7.249   2.773
13355W        W85670  24.772  41.935  12.055
13356W        W85671  18.160   4.908   0.168
13357W        W85672  28.144  33.808  10.982
13358W        W85673  26.102  20.554  13.530
13359W        W85674   8.918   5.659   4.573
13360W        W85675  17.748  17.673  13.835
13361W        W85676  18.282   7.412   3.349
13362W        W85677   7.406  37.798   3.362
13363W        W85678  19.267  43.497  10.742
13364W        W85679  27.762  21.579  10.682
13365W        W85680   0.451   5.439   3.241
13366W        W85681  39.486  25.123   0.241
13367W        W85682  12.775   0.762  14.797
13368W        W85683  19.827  20.760  14.347
13369W        W85684   9.469  40.974   1.454
13370W        W85685   0.608  28.155  10.131
13371W        W85686  12.791  33.535  12.941
13372W        W85687   6.515  19.573  14.954
13373W        W85688  17.700  37.540  13.453
13374W        W85689   2.186  16.962  11.569
13375W        W85690   0.658   6.931  12.519
13376W        W85691   7.843  16.748   0.333
13377W        W85692  40.955  21.023   1.855
13378W        W85693  28.571  18.769  14.821
13379W        W85694   3.699   6.516   0.283
13380W        W85695  35.112  16.316   2.685
13381W        W85696  24.774  40.868  14.713
13382W        W85697  23.503  13.620  13.730
13383W        W85698  31.774   0.931   3.603
13384W        W85699  17.758  23.394  14.239
13385W        W85700  41.734   3.417   0.259
13386W        W85701   0.060   0.192  13.558
13387W        W85702  23.852  19.140  12.411
13388W        W85703   1.330  36.144  11.544
13389W        W85704  36.353  22.740   1.356
13390W        W85705  31.091  13.115   0.449
13391W        W85706  22.387   8.122   4.402
13392W        W85707   1.841  30.437   4.886
13393W        W85708  34.593  39.586  14.487
13394W        W85709   3.902   9.204   1.781
13395W        W85710  16.338   1.796  10.691
13396W        W85711  30.885  33.508   1.495
13397W        W85712   0.208  42.910  10.837
13398W        W85713   3.384   3.304   4.105
13399W        W85714  15.562   3.444  10.252
13400W        W85715  18.393   7.203   1.257
13401W        W85716  28.051  11.110   0.442
13402W        W85717   9.384  10.799   3.237
13403W        W85718  35.506  28.718   2.377
13404W        W85719  33.526  10.627   2.402
13405W        W85720   7.907  14.629  12.554
13406W        W85721  23.819  19.969  10.279
13407W        W85722  12.592  29.523   3.594
13408W        W85723  16.857   3.098   4.938
13409W        W85724  35.001  15.110   3.685
13410W        W85725   5.469  21.090  11.650
13411W        W85726  33.461  20.353   3.166
13412W        W85727  18.013   6.345  12.998
13413W        W85728   1.420  18.131  14.471
13414W        W85729   7.235  38.376  12.644
13415W        W85730  39.015  28.466  10.719
13416W        W85731  37.471   3.649   1.404
13417W        W85732  29.987  40.638   1.929
13418W        W85733   4.839  43.005  10.780
13419W        W85734  31.973  23.727   3.216
13420W        W85735   3.042   3.618  10.944
13421W        W85736   5.400  33.870   4.121
13422W        W85737  33.370  38.026   4.007
13423W        W85738  42.763  16.250  13.005
13424W        W85739  30.182  25.718  14.819
13425W        W85740  29.536  31.701   0.396
13426W        W85741   4.686   7.433  11.518
13427W        W85742  42.988  21.056  11.441
13428W        W85743   6.365   4.526   4.850
13429W        W85744  32.845  43.299   1.283
13430W        W85745  20.247  36.144  10.635
13431W        W85746  30.674  38.291   1.689
13432W        W85747  18.323  40.096  14.709
13433W        W85748   6.531   6.756   4.298
13434W        W85749  21.083  43.387  12.676
13435W        W85750   7.648  36.485  10.622
13436W        W85751  40.045  20.230  13.810
13437W        W85752  18.309  28.219   1.894
13438W        W85753  35.001  27.556  11.191
13439W        W85754  35.489  41.769  13.918
13440W        W85755  17.342   9.794   2.820
13441W        W85756  32.594   7.157  13.969
13442W        W85757  10.876   0.540   0.893
13443W        W85758  17.837  17.618  12.887
13444W        W85759  33.645  19.641   2.190
13445W        W85760  37.427  30.075   0.349
13446W        W85761  18.856  26.259  12.111
13447W        W85762  15.744   5.779  13.549
13448W        W85763  12.799   2.673   0.347
13449W        W85764  26.885  20.776  12.891
13450W        W85765  19.212   8.125   9.862
13451W        W85766   3.415  36.046  10.741
13452W        W85767  42.546  29.060   3.735
13453W        W85768  44.361   2.896   1.504
13454W        W85769  20.256  24.151  12.880
13455W        W85770  26.842  17.253   0.480
13456W        W85771  25.955  32.610   2.099
13457W        W85772  20.958  40.324   4.042
13458W        W85773  25.444  36.675   2.374
13459W        W85774  28.390  33.937   3.591
13460W        W85775  33.672   9.627   2.429
13461W        W85776  22.015  16.353   1.227
13462W        W85777   9.752  25.755  14.427
13463W        W85778  31.807  31.028   4.843
13464W        W85779  21.666   5.049  10.278
13465W        W85780  10.787  23.533   4.024
13466W        W85781  27.474  27.958  11.987
13467W        W85782   1.866  29.690  13.827
13468W        W85783  24.789  29.573  10.774
13469W        W85784   3.197   7.229   4.454
13470W        W85785  10.634   6.414   1.369
13471W        W85786   7.761   9.800   4.522
13472W        W85787  29.540  16.218   4.725
13473W        W85788  22.474   2.735   2.457
13474W        W85789  24.479  36.309  13.904
13475W        W85790  34.599  31.537   1.842
13476W        W85791  44.282  38.338  11.734
13477W        W85792  13.119  28.905  12.409
13478W        W85793  38.386   4.724   2.709
13479W        W85794  13.070  42.854  11.298
13480W        W85795  25.216   9.755   0.411
13481W        W85796  41.361  41.900   1.073
13482W        W85797  21.515  37.064  11.576
13483W        W85798   7.403  15.101   1.277
13484W        W85799  19.066  25.705  12.802
13485W        W85800  38.482  38.095   4.240
13486W        W85801  20.563  28.958   3.676
13487W        W85802  29.664  26.572  11.780
13488W        W85803  23.301  29.697   4.305
13489W        W85804  30.776  12.798   3.734
13490W        W85805  35.409   0.775  12.999
13491W        W85806  41.220  19.130   3.546
13492W        W85807  35.606  24.667  10.927
13493W        W85808   4.430  26.832   0.240
13494W        W85809   6.251   6.815   2.419
13495W        W85810   2.640  26.278   1.388
13496W        W85811  20.125   4.827   4.359
13497W        W85812  33.686  26.604  14.810
13498W        W85813  29.574  40.054  14.206
13499W        W85814  33.969  21.735   2.057
13500W        W85815  18.065  38.558  11.918
13501W        W85816  13.076  39.341  11.034
13502W        W85817  30.439   2.891  12.423
13503W        W85818  30.530  37.154  13.143
13504W        W85819  26.614   0.333   3.299
13505W        W85820  18.114  19.493   4.566
13506W        W85821  36.959   3.690  13.942
13507W        W85822  10.726  35.988   4.437
13508W        W85823  10.497   2.305   3.720
13509W        W85824  37.350  35.567   2.722
13510W        W85825  36.855  16.754  11.808
13511W        W85826  14.384  44.462   1.692
13512W        W85827  38.783  11.788  14.852
13513W        W85828  43.879  27.710  13.176
13514W        W85829  36.746   6.421  12.196
13515W        W85830  43.333   5.006  12.062
13516W        W85831  16.634  23.733  13.794
13517W        W85832  11.749  19.547  10.953
13518W        W85833  12.597  40.923  11.494
13519W        W85834  39.797  36.524   0.882
13520W        W85835   1.165  11.299  10.717
13521W        W85836  39.248  23.893   1.758
13522W        W85837  13.801  43.870   1.820
13523W        W85838   5.750  26.804  12.482
13524W        W85839  44.310   9.365  13.077
13525W        W85840  14.828  13.188   1.892
13526W        W85841  34.297  33.988   1.273
13527W        W85842   0.802  29.610   3.157
13528W        W85843   1.760  15.065   3.178
13529W        W85844  28.581   7.728   0.651
13530W        W85845  44.735  39.893   1.544
13531W        W85846  24.429  23.646   0.790
13532W        W85847  13.099  36.892  13.406
13533W        W85848  40.318   0.288  10.632
13534W        W85849  44.791  19.514   4.519
13535W        W85850  37.219  20.602  14.355
13536W        W85851  43.751  19.524   1.884
13537W        W85852  12.967  18.178   3.224
13538W        W85853  20.598  39.894   2.324
13539W        W85854  25.011  25.550   4.493
13540W        W85855  35.499   1.843   2.912
13541W        W85856  39.072  12.226  14.815
13542W        W85857  36.328  16.296  12.395
13543W        W85858  25.518  19.828  10.176
13544W        W85859  19.243  44.684   0.749
13545W        W85860  40.550  12.744  11.262
13546W        W85861   7.734  10.318   4.637
13547W        W85862  30.526   4.414  13.382
13548W        W85863   8.173  20.753   2.211
13549W        W85864  22.211   0.005  12.929
13550W        W85865  15.729  39.570   3.182
13551W        W85866  20.473  21.709   3.117
13552W        W85867  44.431  28.707  14.875
13553W        W85868   5.196  13.116  13.661
13554W        W85869  11.832   1.040   1.749
13555W        W85870  14.289   1.311  11.631
13556W        W85871  13.559  10.870  12.971
13557W        W85872  25.942  29.253  14.835
13558W        W85873  13.645   6.283   4.619
13559W        W85874  26.123  29.984  11.185
13560W        W85875  30.191  12.070   3.713
13561W        W85876  27.255  23.273   3.834
13562W        W85877   3.026  11.729  14.500
13563W        W85878  28.142  26.242   0.635
13564W        W85879  34.510  27.540   0.871
13565W        W85880   0.534  38.523   4.151
13566W        W85881  28.180   6.064  13.447
13567W        W85882  44.751  30.394  14.398
13568W        W85883   2.245  35.410   4.952
13569W        W85884  25.511  35.623  12.010
13570W        W85885   2.802  36.626   0.226
13571W        W85886  17.065  27.058   4.216
13572W        W85887  40.009   8.915   3.210
13573W        W85888  33.421  12.245  12.395
13574W        W85889  44.723  27.873   3.067
13575W        W85890  35.867  41.106   1.321
13576W        W85891  38.809  13.101  13.959
13577W        W85892  42.208   5.231   0.799
13578W        W85893  28.465  24.264   4.977
13579W        W85894  33.946   5.899   0.478
13580W        W85895  40.151  27.587   0.486
13581W        W85896  39.367  19.533  12.393
13582W        W85897  36.121   1.006  14.337
13583W        W85898  38.580  32.641  11.547
13584W        W85899  22.802  10.890  13.067
13585W        W85900   3.312  43.270   2.842
13586W        W85901   5.229  13.817  14.406
13587W        W85902   8.245  12.867  10.641
13588W        W85903  13.314   1.883   2.944
13589W        W85904   1.750   5.818   3.540
13590W        W85905  36.982  28.731   2.674
13591W        W85906  13.046  25.275  14.459
13592W        W85907  33.403   7.308   1.478
13593W        W85908  27.903   5.820  10.192
13594W        W85909   3.341  29.627   4.768
13595W        W85910  26.638  20.285  14.802
13596W        W85911  26.691  18.795  10.421
13597W        W85912   4.923  26.125   4.578
13598W        W85913  41.807  14.470   0.275
13599W        W85914  24.131  40.239  13.727
13600W        W85915   7.198  38.905  11.289
13601W        W85916   8.063  41.103   1.061
13602W        W85917  11.849   3.855  14.304
13603W        W85918  43.832  32.084  13.889
13604W        W85919   5.846  13.704  10.682
13605W        W85920  38.887  34.086   1.935
13606W        W85921  28.537  18.423  14.464
13607W        W85922  19.345  30.919  12.983
13608W        W85923  19.278   7.376  12.400
13609W        W85924   4.730  29.546  13.945
13610W        W85925  29.264  31.700   1.172
13611W        W85926  27.085   7.905  12.061
13612W        W85927  21.223  39.437   3.918
13613W        W85928   2.451  14.008   4.054
13614W        W85929   9.182  12.212  11.139
13615W        W85930  11.869  44.491   3.547
13616W        W85931  43.759  35.974   1.026
13617W        W85932  38.602   4.869  12.623
13618W        W85933  17.216   6.608  13.513
13619W        W85934   5.879  11.836  14.303
13620W        W85935   3.241  14.966   2.597
13621W        W85936   1.601   2.920  11.930
13622W        W85937  32.812  36.784   0.696
13623W        W85938   1.517  33.167  11.578
13624W        W85939  21.647  33.836  10.720
13625W        W85940  29.399  25.268  11.558
13626W        W85941  10.870   0.373   4.054
13627W        W85942  30.846  17.623   1.958
13628W        W85943  33.672   6.309   4.532
13629W        W85944  28.811  40.302   2.799
13630W        W85945  27.907  33.405   4.203
13631W        W85946  29.741  25.571   2.556
13632W        W85947   6.163  28.977  12.342
13633W        W85948  14.762  27.742  14.954
13634W        W85949  10.106   8.795   3.293
13635W        W85950  43.840   7.226   4.817
13636W        W85951  35.634  22.009   1.432
13637W        W85952  27.233  27.424   2.269
13638W        W85953  10.474  39.611  12.473
13639W        W85954  31.406  27.520  13.465
13640W        W85955  20.738  27.179  11.957
13641W        W85956  22.934  20.896   3.702
13642W        W85957  24.113  29.246  12.920
13643W        W85958  23.779  25.657   1.790
13644W        W85959  12.207   3.286  12.451
13645W        W85960  10.071  33.990  10.662
13646W        W85961  11.988  17.297  12.277
13647W        W85962  14.090  25.476   3.553
13648W        W85963  42.741   3.431  10.588
13649W        W85964  31.522   5.928   3.713
13650W        W85965   4.954  20.825  12.119
13651W        W85966  23.275  33.397  12.056
13652W        W85967  14.035  20.085  12.980
13653W        W85968   7.353  16.584  11.658
13654W        W85969  32.628  25.985  12.964
13655W        W85970  26.603  27.867  10.328
13656W        W85971  11.671  21.070  10.921
13657W        W85972  43.401  29.221  12.377
13658W        W85973  21.086  19.236  14.973
13659W        W85974  30.922  39.986   3.562
13660W        W85975   3.442  29.136   2.274
13661W        W85976  25.228  35.970   2.867
13662W        W85977   0.804  10.405   4.540
13663W        W85978  12.783  30.585   0.873
13664W        W85979  11.568  24.735  10.695
13665W        W85980  16.208  34.366  10.619
13666W        W85981   2.776   9.036   0.852
13667W        W85982  44.854  13.653   2.756
13668W        W85983  34.571  26.403   2.737
13669W        W85984  11.150  22.531  11.402
13670W        W85985  33.501  44.393   5.224
13671W        W85986  11.665  20.954   2.331
13672W        W85987  15.145  19.170  13.807
13673W        W85988   2.789   2.202  10.766
13674W        W85989  28.485   5.765   4.467
13675W        W85990  26.480  25.193   2.570
13676W        W85991  23.136  43.861   2.774
13677W        W85992   1.529  18.741  11.467
13678W        W85993  36.093  30.342   3.648
13679W        W85994  35.902   6.424   4.188
13680W        W85995  21.505  23.717  11.552
13681W        W85996  18.186  15.811  13.904
13682W        W85997  32.311  34.674   1.503
13683W        W85998  38.730  30.365   0.010
13684W        W85999  36.463  31.474  12.592
13685W        W86000   0.452  27.828   2.711
13686W        W86001   3.884  17.535   3.286
13687W        W86002   1.784  31.447   1.281
13688W        W86003  33.642  14.224  13.391
13689W        W86004  26.299   5.633  13.144
13690W        W86005  33.874   3.003  11.129
13691W        W86006   5.601  16.625  12.558
13692W        W86007  40.525  27.744  13.860
13693W        W86008  11.237  32.910   3.799
13694W        W86009  37.279  31.915   4.505
13695W        W86010  44.500   3.393  10.133
13696W        W86011   1.334  15.358  14.006
13697W        W86012  17.690  29.020  11.877
13698W        W86013  19.836  35.361   2.726
13699W        W86014   7.405  10.701   0.350
13700W        W86015  15.695   9.595   2.630
13701W        W86016  31.145   8.403  10.778
13702W        W86017  27.298   8.989   0.912
13703W        W86018   0.047  35.910  10.173
13704W        W86019   4.844   3.911  12.830
13705W        W86020  14.141  16.847   0.473
13706W        W86021  21.986  29.391  11.160
13707W        W86022  36.673  25.104   1.669
13708W        W86023  31.679  25.440  14.790
13709W        W86024   0.418  38.420   0.338
13710W        W86025  24.198  12.082   3.140
13711W        W86026  33.823  43.449  12.029
13712W        W86027   2.872  28.847  13.382
13713W        W86028  41.420  33.393   1.898
13714W        W86029  19.209  44.566   3.680
13715W        W86030  44.539  12.258  12.474
13716W        W86031  28.121   0.102  14.033
13717W        W86032  25.933  19.550   0.434
13718W        W86033   8.787   1.236   1.656
13719W        W86034  23.940  30.655  12.961
13720W        W86035  24.201  10.452  11.690
13721W        W86036   1.535  21.440  14.258
13722W        W86037  15.639  33.591   0.749
13723W        W86038  40.466  29.890   1.878
13724W        W86039  35.993  27.162   2.839
13725W        W86040  13.874  31.629  14.409
13726W        W86041  35.203  21.893   3.861
13727W        W86042   2.989   6.666   1.474
13728W        W86043   1.121   3.748  14.276
13729W        W86044  30.219  40.956   0.208
13730W        W86045  42.462  14.528  13.612
13731W        W86046  24.111  13.396   4.136
13732W        W86047   2.361  16.848   3.252
13733W        W86048   8.257  36.899   1.192
13734W        W86049  37.567   5.551  12.943
13735W        W86050  13.319  39.523  11.487
13736W        W86051  12.375  37.142  12.476
13737W        W86052  23.612  24.431   3.079
13738W        W86053  31.042  12.711   5.036
13739W        W86054  10.747  34.571  12.814
13740W        W86055  18.180  36.538   4.086
13741W        W86056  22.186   2.998   0.817
13742W        W86057  28.439  14.194   0.243
13743W        W86058  34.736  27.601  14.544
13744W        W86059  12.411  31.127   2.860
13745W        W86060   0.899  14.607  10.445
13746W        W86061  30.551  24.418  11.978
13747W        W86062  39.002  40.859   1.887
13748W        W86063  41.596  14.795  11.144
13749W        W86064  39.484  33.204  11.632
13750W        W86065   8.222   4.946  10.926
13751W        W86066  15.161  39.154  14.820
13752W        W86067   6.150   8.104   0.465
13753W        W86068  36.928  13.165   4.873
13754W        W86069  38.782  20.686   9.832
13755W        W86070   1.554   9.525   4.946
13756W        W86071   2.603  26.143  14.243
13757W        W86072   1.490  16.768  14.192
13758W        W86073  27.253  34.605  10.268
13759W        W86074  42.414   8.673   1.779
13760W        W86075  42.382   6.189  12.051
13761W        W86076  13.770  15.850   2.674
13762W        W86077  29.515   6.172   0.275
13763W        W86078  27.634   5.764   5.063
13764W        W86079  35.836  35.881   3.777
13765W        W86080   9.670  30.078   4.662
13766W        W86081  24.973  32.158   3.770
13767W        W86082  11.857   8.190  11.580
13768W        W86083  30.025  30.594   4.047
13769W        W86084   2.217  17.706   1.760
13770W        W86085   4.743  11.192  10.496
13771W        W86086  12.298  41.264   2.696
13772W        W86087  13.836  14.723  12.200
13773W        W86088   7.551  17.820  12.780
13774W        W86089  21.952  27.443   2.284
13775W        W86090  41.240  32.009   2.211
13776W        W86091   6.266  21.420   2.173
13777W        W86092  20.791   5.896  11.712
13778W        W86093  32.795  41.670  11.091
13779W        W86094   2.029  27.944  12.497
13780W        W86095  14.504  22.890  11.559
13781W        W86096  37.131  28.709   4.173
13782W        W86097  31.989  14.203  13.118
13783W        W86098  23.483  34.656  14.912
13784W        W86099  39.674  22.576  11.681
13785W        W86100   8.661  44.717   4.102
13786W        W86101  20.805  44.900  11.943
13787W        W86102  35.149  18.868  12.822
13788W        W86103   9.932  17.764   4.016
13789W        W86104  43.897  27.144  11.924
13790W        W86105   6.976  41.183  10.607
13791W        W86106   8.917  32.613   1.755
13792W        W86107  30.109  42.819   1.259
13793W        W86108  34.507  22.107  12.886
13794W        W86109  23.717  44.438  10.214
13795W        W86110  23.277  43.330  11.842
13796W        W86111  22.159   7.250  11.695
13797W        W86112  16.881  39.962  11.110
13798W        W86113  11.341  42.958   1.347
13799W        W86114  42.641  25.352   2.769
13800W        W86115  29.426  27.555   4.148
13801W        W86116   9.790   6.396  13.409
13802W        W86117  19.176  32.191   3.604
13803W        W86118  43.474  27.094  11.600
13804W        W86119  36.121  36.591  11.987
13805W        W86120  20.758   6.215   0.461
13806W        W86121  16.158  22.614   3.380
13807W        W86122  12.412  26.599  12.546
13808W        W86123  27.582  10.220   4.147
13809W        W86124  26.715  26.845   1.691
13810W        W86125  12.266  14.288   1.227
13811W        W86126  31.691   5.890  13.667
13812W        W86127  11.206  23.072   2.824
13813W        W86128   8.188  20.819   0.729
13814W        W86129  44.497  26.059   2.372
13815W        W86130  25.725  34.546   0.433
13816W        W86131  39.477  42.223  11.481
13817W        W86132  33.667  18.539  12.945
13818W        W86133  12.385  24.946  13.334
13819W        W86134   7.493   4.816  11.540
13820W        W86135  30.835  36.978   3.660
13821W        W86136  11.220  32.470  13.823
13822W        W86137  24.790  31.224   4.098
13823W        W86138  31.888  15.124   4.810
13824W        W86139  31.180  16.339  11.732
13825W        W86140  22.585  25.384   0.038
13826W        W86141  44.697   9.191  12.303
13827W        W86142  35.429   8.082  12.597
13828W        W86143   7.516  19.380  14.807
13829W        W86144   7.610  13.714  12.925
13830W        W86145  14.135  30.157   4.158
13831W        W86146   5.042  17.031   2.209
13832W        W86147  21.605  15.615  10.847
13833W        W86148   9.926  13.015   4.085
13834W        W86149  36.596  32.676   3.795
13835W        W86150   0.344  12.268   2.175
13836W        W86151  12.614  17.526   2.809
13837W        W86152  20.604  26.098   2.324
13838W        W86153  22.196  41.072  12.073
13839W        W86154  28.400  24.575  10.619
13840W        W86155  34.449  15.240  12.543
13841W        W86156  29.756  23.365   3.610
13842W        W86157  30.591  20.823  11.169
13843W        W86158  13.128  23.499  13.926
13844W        W86159   8.122  40.080  14.939
13845W        W86160  18.167  28.499   2.333
13846W        W86161  35.796  42.488  12.454
13847W        W86162  36.519  35.892  13.331
13848W        W86163  36.040  28.463   1.717
13849W        W86164  33.144  23.635   2.711
13850W        W86165  31.938  25.494  11.350
13851W        W86166   0.447  29.921   4.373
13852W        W86167  12.528  11.349  12.421
13853W        W86168  23.238   7.892   2.432
13854W        W86169  38.828  20.789   1.725
13855W        W86170  13.217  10.594   0.864
13856W        W86171  19.010  38.901   5.169
13857W        W86172   6.135  13.515  13.421
13858W        W86173  25.920  32.042  12.338
13859W        W86174  19.289  10.116   2.804
13860W        W86175  43.024  39.930  12.009
13861W        W86176  32.958  37.327   1.853
13862W        W86177  36.323  43.151   2.349
13863W        W86178  11.644  27.686   1.773
13864W        W86179  14.271  44.618  14.978
13865W        W86180  31.069  37.545   0.129
13866W        W86181  39.547  11.149   0.786
13867W        W86182  15.231  29.567  12.039
13868W        W86183  23.203  20.037   3.343
13869W        W86184  38.924  16.338  14.510
13870W        W86185  12.247  40.823  11.046
13871W        W86186  16.867   6.148  12.470
13872W        W86187  40.442  13.886  14.387
13873W        W86188  29.222   3.752  11.112
13874W        W86189  23.653  27.647   2.002
13875W        W86190   6.835   4.509   3.745
13876W        W86191   4.995   8.411  14.941
13877W        W86192  20.198   1.763   3.112
13878W        W86193  12.264  19.427   4.956
13879W        W86194  40.437  38.418   3.613
13880W        W86195  42.079  35.502   2.201
13881W        W86196  42.847   6.363  10.787
13882W        W86197  12.117  42.724  11.523
13883W        W86198  40.898   6.077   2.021
13884W        W86199  22.129  40.299   0.722
13885W        W86200  38.029   4.405  10.808
13886W        W86201   1.754  24.641  12.886
13887W        W86202  35.735  27.203   4.185
13888W        W86203  23.226  18.619   1.255
13889W        W86204   4.101  33.405  11.088
13890W        W86205  16.260   1.423   0.431
13891W        W86206  22.231  12.859   1.316
13892W        W86207  39.450   6.957  14.320
13893W        W86208  40.208  10.122   0.913
13894W        W86209  21.541  34.840  10.694
13895W        W86210  21.938  25.843   4.676
13896W        W86211  41.873  32.929   3.661
13897W        W86212   4.678  24.206  11.420
13898W        W86213   2.754   3.645  11.915
13899W        W86214   3.249   6.205   1.430
13900W        W86215  31.397  17.120  12.916
13901W        W86216  16.491  38.354   0.330
13902W        W86217  36.013  28.430  11.846
13903W        W86218  28.832  18.060   4.579
13904W        W86219  12.036  37.589  11.944
13905W        W86220  31.381   8.563  11.999
13906W        W86221  16.825   9.677   4.983
13907W        W86222  31.170  25.547   4.564
13908W        W86223  13.142  19.708   4.936
13909W        W86224  32.952  12.892  10.421
13910W        W86225   6.015  34.859   0.881
13911W        W86226   2.713  42.754   3.391
13912W        W86227  29.579  42.220  12.105
13913W        W86228  14.333   2.500  14.488
13914W        W86229  37.086  35.914   3.859
13915W        W86230  31.821   6.909  13.061
13916W        W86231   8.944   7.337  14.942
13917W        W86232  24.074  23.502  12.441
13918W        W86233   2.758  25.478  11.825
13919W        W86234   5.622  21.115  14.623
13920W        W86235  21.101  36.981  13.372
13921W        W86236   8.123  21.687  10.975
13922W        W86237   8.434   1.147  13.596
13923W        W86238  25.217  12.388   4.022
13924W        W86239  37.130  32.320  11.688
13925W        W86240  20.821  36.585  14.847
13926W        W86241  32.294  26.848   0.905
13927W        W86242  44.712  35.753  12.923
13928W        W86243   3.438  17.281  11.111
13929W        W86244  20.113  34.786   0.699
13930W        W86245   0.024   8.865  11.031
13931W        W86246  20.735  43.752  12.428
13932W        W86247   2.245  31.024   2.339
13933W        W86248  37.838  10.265   3.597
13934W        W86249  21.813  21.318  13.360
13935W        W86250   7.282  12.955   1.190
13936W        W86251  25.819   8.678   5.016
13937W        W86252  30.907  40.289  13.874
13938W        W86253  20.761   8.225  12.854
13939W        W86254  39.304  31.965   3.841
13940W        W86255  37.332  21.293   2.679
13941W        W86256  22.946  39.356   2.330
13942W        W86257   9.782  33.047   4.559
13943W        W86258   2.970   4.307  13.908
13944W        W86259   4.920  20.113  11.518
13945W        W86260   0.794  12.706   1.912
13946W        W86261  12.244  18.382  14.994
13947W        W86262  37.925  23.671   4.656
13948W        W86263  10.682  18.619   9.865
13949W        W86264  24.416  37.046  14.440
13950W        W86265  16.523   5.827   4.691
13951W        W86266  36.862  28.388  12.952
13952W        W86267  43.442  21.535   4.907
13953W        W86268   3.175   3.289   3.650
13954W        W86269  21.277  25.702   1.313
13955W        W86270  16.699   7.467  14.604
13956W        W86271   7.741  42.996  13.403
13957W        W86272   7.425  27.447  12.124
13958W        W86273  14.854  44.805   1.288
13959W        W86274  29.619  19.051  14.749
13960W        W86275  41.998  26.954  11.956
13961W        W86276  16.241  15.525  10.670
13962W        W86277  24.751   2.927   0.697
13963W        W86278   4.414  10.402   2.398
13964W        W86279  28.813   0.601   4.450
13965W        W86280  16.285   6.108  10.319
13966W        W86281  13.040  42.052   1.851
13967W        W86282  38.094  43.932   0.720
13968W        W86283   6.166   3.321  10.832
13969W        W86284  24.005   4.936   4.678
13970W        W86285  33.979   8.205  12.456
13971W        W86286  38.342  30.195   0.337
13972W        W86287  17.529  41.946   9.901
13973W        W86288  17.603   8.302  11.537
13974W        W86289  44.869   1.244   3.250
13975W        W86290  18.879  24.913  12.538
13976W        W86291  13.188  16.394   1.356
13977W        W86292  10.746  17.034  13.829
13978W        W86293  16.181  16.146  11.795
13979W        W86294  14.813  41.451   0.332
13980W        W86295  23.196   6.311   4.593
13981W        W86296  33.653  42.754   1.997
13982W        W86297  20.198  23.439  14.094
13983W        W86298  16.382  10.896  12.044
13984W        W86299  37.735   7.455  14.946
13985W        W86300   9.839  41.175   2.348
13986W        W86301  21.581  17.119  11.027
13987W        W86302   4.698   0.386  12.142
13988W        W86303  13.639  19.232  14.937
13989W        W86304   0.994  19.504  12.994
13990W        W86305   7.882  21.164  13.848
13991W        W86306  15.307  13.211   2.791
13992W        W86307  25.656   2.117  12.036
13993W        W86308  42.899  20.847  14.797
13994W        W86309  17.535  33.949   4.568
13995W        W86310  34.079  32.265  11.594
13996W        W86311  37.014  28.400   2.256
13997W        W86312  23.502  12.912  12.551
13998W        W86313  23.683  20.029   3.623
13999W        W86314  11.382   0.056  14.384
14000W        W86315  34.661  27.110  13.772
14001W        W86316  43.942   2.174   0.873
14002W        W86317   5.762  40.525   1.366
14003W        W86318  38.084  16.300   4.978
14004W        W86319  22.294  33.969   1.110
14005W        W86320   4.658  10.830   1.178
14006W        W86321  17.686   2.748  12.946
14007W        W86322   8.918  28.544   0.317
14008W        W86323   3.745  36.133   1.903
14009W        W86324  11.643  40.536  10.840
14010W        W86325  38.852  30.518  12.149
14011W        W86326  37.453  37.837  14.833
14012W        W86327  22.266  10.586  12.498
14013W        W86328  17.892   5.778   1.424
14014W        W86329  32.223   4.856  14.527
14015W        W86330  10.551   0.132   2.686
14016W        W86331  22.906   7.666   4.605
14017W        W86332  41.921   9.383   4.607
14018W        W86333  17.346  13.296  13.300
14019W        W86334  34.471  13.156   2.223
14020W        W86335  15.871  37.541   2.944
14021W        W86336   9.999  30.233  14.069
14022W        W86337   2.373  23.735   0.382
14023W        W86338  26.990  33.914   0.010
14024W        W86339  31.120   3.883   4.457
14025W        W86340  39.782  16.591   0.846
14026W        W86341  11.322  31.425  11.631
14027W        W86342  24.684  39.996  10.516
14028W        W86343  21.345  27.609   0.279
14029W        W86344  25.201  17.576   4.780
14030W        W86345  23.109  23.255   0.932
14031W        W86346  24.947  37.486   1.686
14032W        W86347  35.424  13.600  13.511
14033W        W86348   2.941  35.783   3.092
14034W        W86349  10.897  18.698  12.540
14035W        W86350  32.865  23.332  13.079
14036W        W86351  15.832  36.665   1.760
14037W        W86352  44.242  32.874  13.890
14038W        W86353   9.810  26.718  11.232
14039W        W86354  19.932  38.480   2.167
14040W        W86355   8.091   0.886   1.318
14041W        W86356  19.599   7.960  13.956
14042W        W86357  32.050   7.043  14.015
14043W        W86358  12.104  25.062  14.242
14044W        W86359  17.484   9.319  10.478
14045W        W86360   2.531  22.143   1.705
14046W        W86361  24.644  44.826  13.079
14047W        W86362  41.604   1.314   1.778
14048W        W86363  42.002  26.625  13.889
14049W        W86364  11.896  28.154   1.852
14050W        W86365   7.819  40.131   0.363
14051W        W86366  42.757   5.471  11.157
14052W        W86367  41.977  40.688   4.207
14053W        W86368   3.044   5.193   2.229
14054W        W86369  24.702  25.447  12.297
14055W        W86370  35.662  20.532   2.155
14056W        W86371  43.301   3.183   3.701
14057W        W86372   9.183  31.019   3.152
14058W        W86373  38.958  24.976  14.516
14059W        W86374  26.825  36.910  13.482
14060W        W86375  38.523   0.501  11.906
14061W        W86376   1.910   2.716   4.604
14062W        W86377  31.678   4.258   2.866
14063W        W86378  10.856  44.465   4.587
14064W        W86379  42.413  41.452  11.392
14065W        W86380  36.079  23.543   4.315
14066W        W86381  18.261   7.382  12.077
14067W        W86382   6.448  43.927  10.487
14068W        W86383  15.831   6.896   2.741
14069W        W86384  22.070  20.863   4.975
14070W        W86385  42.498  23.914  11.790
14071W        W86386  37.347  28.271   3.359
14072W        W86387  41.915  42.706  14.126
14073W        W86388  36.439  38.783  11.692
14074W        W86389  27.468  27.873   3.610
14075W        W86390  38.131  10.054   2.660
14076W        W86391  29.655  19.637  13.988
14077W        W86392   5.670   3.427  13.364
14078W        W86393  38.859  21.467   0.392
14079W        W86394  34.027  38.987   0.852
14080W        W86395   0.729  26.663   5.434
14081W        W86396   8.236  26.662  14.928
14082W        W86397  36.369  43.640   1.462
14083W        W86398  37.906  15.707  11.908
14084W        W86399  42.975  12.538   4.042
14085W        W86400  11.978   6.302  12.808
14086W        W86401  12.280  31.900   4.600
14087W        W86402  24.752  42.835  12.054
14088W        W86403  26.433  31.289  12.307
14089W        W86404  13.384  12.156   4.546
14090W        W86405  15.655  21.890   2.781
14091W        W86406   6.230   3.860  11.632
14092W        W86407  16.343   5.459  14.936
14093W        W86408  16.034  42.500   5.169
14094W        W86409  15.575  17.854  12.027
14095W        W86410  26.995  19.990  10.610
14096W        W86411  10.090  44.612  13.855
14097W        W86412  28.641  21.530  10.449
14098W        W86413   1.035  20.104   1.149
14099W        W86414   1.354  43.308  14.777
14100W        W86415  31.355  15.803  11.952
14101W        W86416   3.320   6.281   4.607
14102W        W86417  25.478  28.730   1.137
14103W        W86418   7.325  15.202   2.269
14104W        W86419  43.394  24.063  11.312
14105W        W86420  17.244  19.609   0.778
14106W        W86421  18.287  39.921   4.121
14107W        W86422  10.525  13.950  14.506
14108W        W86423  11.464  31.667  12.493
14109W        W86424  16.091  40.897  11.633
14110W        W86425   5.098   9.477  11.479
14111W        W86426   6.323  28.644   4.642
14112W        W86427  25.688  13.426   4.620
14113W        W86428   8.667   3.303   1.297
14114W        W86429  43.390  13.649   4.430
14115W        W86430   6.669  40.293  14.830
14116W        W86431  43.875  32.784   3.722
14117W        W86432  27.612  38.632   3.273
14118W        W86433  10.282  24.047  12.897
14119W        W86434  37.993  19.389   2.841
14120W        W86435  14.558  42.490   0.788
14121W        W86436  42.914   9.684  14.014
14122W        W86437  37.772  32.072   3.103
14123W        W86438   5.312  28.269   1.690
14124W        W86439   8.656   3.285  10.593
14125W        W86440  29.233   7.647  13.746
14126W        W86441  44.457  17.167   2.193
14127W        W86442  41.856   8.750  10.786
14128W        W86443  44.037  16.579   3.308
14129W        W86444   3.691  21.059   0.891
14130W        W86445   8.988  29.281   9.977
14131W        W86446  18.842  25.727   1.422
14132W        W86447  33.625  19.762   0.797
14133W        W86448  15.110  39.244   1.129
14134W        W86449  22.698  32.037   1.857
14135W        W86450  36.894  32.822  11.739
14136W        W86451  19.349   1.232   0.484
14137W        W86452  27.464  39.233   1.462
14138W        W86453   0.830  12.227  11.149
14139W        W86454  35.614   0.762  12.513
14140W        W86455  17.786  11.766   3.868
14141W        W86456  25.536  36.809  13.121
14142W        W86457  15.228  15.094   1.814
14143W        W86458  18.836  39.425   1.375
14144W        W86459  30.466  32.915  14.477
14145W        W86460  15.032  39.297   4.549
14146W        W86461  40.116  13.750  14.802
14147W        W86462  25.408  35.985   1.330
14148W        W86463   9.617   0.859  14.426
14149W        W86464  28.434  21.882  14.039
14150W        W86465  42.339  19.991  11.129
14151W        W86466   8.405  15.666   0.448
14152W        W86467  28.931  41.857  11.634
14153W        W86468   7.159  43.479   3.448
14154W        W86469   2.280  25.281  11.991
14155W        W86470   6.870   0.831   0.840
14156W        W86471  26.079  12.332  14.134
14157W        W86472   1.797  18.115  12.030
14158W        W86473  21.944  10.575   1.020
14159W        W86474  23.574   7.337   3.218
14160W        W86475  34.020  32.012  13.050
14161W        W86476  13.084   0.950   3.285
14162W        W86477   0.387  18.086   2.757
14163W        W86478  39.339  29.707   2.892
14164W        W86479  11.224  33.029  12.704
14165W        W86480  12.351  31.645  10.606
14166W        W86481  41.857  28.646  13.559
14167W        W86482  39.799  30.544  13.861
14168W        W86483  39.034   1.533  14.275
14169W        W86484   3.028   8.880   4.443
14170W        W86485  11.075   0.388  13.430
14171W        W86486   6.653  34.746   4.112
14172W        W86487  42.295  32.657   4.335
14173W        W86488  40.290  27.494  12.611
14174W        W86489  12.935  15.118  12.922
14175W        W86490  26.999  29.165  14.163
14176W        W86491  12.324   0.445   0.966
14177W        W86492  20.281  32.562   2.282
14178W        W86493  37.117  31.036  13.026
14179W        W86494   5.648  24.284   3.339
14180W        W86495  40.331  21.770  11.604
14181W        W86496   0.951  11.719  14.303
14182W        W86497   2.838   5.342   1.338
14183W        W86498  23.942   0.440  11.988
14184W        W86499  40.081  31.942  13.986
14185W        W86500  22.616  38.337   4.614
14186W        W86501  44.092  23.490   1.653
14187W        W86502   5.528  41.256   3.862
14188W        W86503  33.867  26.685   4.087
14189W        W86504  37.927  18.615   0.568
14190W        W86505  23.121  21.901  13.374
14191W        W86506  34.368   5.133   0.999
14192W        W86507  27.827  19.631   0.330
14193W        W86508  15.286  29.041   3.543
14194W        W86509   5.403  26.359   4.504
14195W        W86510  34.176  39.786  13.102
14196W        W86511   2.915  24.935   4.472
14197W        W86512   9.417  37.572  13.540
14198W        W86513  28.299  23.994   1.906
14199W        W86514  12.388  26.620   1.317
14200W        W86515  33.096  25.104  14.731
14201W        W86516  41.800  10.251  12.695
14202W        W86517   5.956   2.833  14.552
14203W        W86518  32.872  37.848  11.493
14204W        W86519  38.521   0.543  14.577
14205W        W86520   9.213  11.721  13.608
14206W        W86521  38.410   1.413   2.039
14207W        W86522  32.156   0.211  12.131
14208W        W86523  35.917  36.537  10.734
14209W        W86524  18.995  13.925   1.592
14210W        W86525  33.750  12.813   3.640
14211W        W86526  14.133  12.749   3.368
14212W        W86527   3.538  44.340   3.295
14213W        W86528  44.577  34.879  10.337
14214W        W86529   4.845   8.270   0.810
14215W        W86530   6.287   8.648   1.921
14216W        W86531  19.146   2.759  14.355
14217W        W86532  42.997   4.210  11.175
14218W        W86533  38.110  31.632   3.987
14219W        W86534  39.741  21.643  13.780
14220W        W86535   3.970  12.283  11.591
14221W        W86536  21.449  22.174  13.061
14222W        W86537   3.754   4.381   3.590
14223W        W86538  20.642  19.007  12.430
14224W        W86539  29.691  21.786   1.300
14225W        W86540  42.579  18.400  12.904
14226W        W86541  15.905  22.224   3.115
14227W        W86542  17.103  39.944   4.959
14228W        W86543  11.800  28.122   2.850
14229W        W86544  13.352  18.793   1.884
14230W        W86545  36.067  29.890   1.852
14231W        W86546  41.432  25.802   2.492
14232W        W86547  26.013  25.465  12.054
14233W        W86548   5.491   7.829  14.833
14234W        W86549  22.177  36.976  10.542
14235W        W86550   0.398  14.597  13.567
14236W        W86551  19.871   7.776   0.362
14237W        W86552  23.410   7.907  10.727
14238W        W86553   1.458  40.293   3.143
14239W        W86554  36.678   1.194  13.374
14240W        W86555  28.184  29.012   1.664
14241W        W86556  42.891  26.985   1.335
14242W        W86557  35.061  12.677  11.278
14243W        W86558   6.069  36.057  13.306
14244W        W86559  44.762   9.142   3.368
14245W        W86560   0.740   0.953  13.477
14246W        W86561  31.577  40.158  10.381
14247W        W86562  16.046  17.299   3.248
14248W        W86563  21.879   6.180   1.159
14249W        W86564  42.430  25.612   2.174
14250W        W86565   8.423  12.821   0.835
14251W        W86566  30.895  31.562   2.676
14252W        W86567   8.248   7.817  12.015
14253W        W86568  39.896   1.999  12.582
14254W        W86569  25.143  30.072   1.861
14255W        W86570  27.672  12.219   3.661
14256W        W86571  18.564  28.469   4.061
14257W        W86572  30.961  44.728   2.430
14258W        W86573  33.815  32.579   3.190
14259W        W86574  25.509  30.098   4.852
14260W        W86575  11.890  40.566  13.047
14261W        W86576  21.061  26.526   3.284
14262W        W86577   7.402  27.631   1.480
14263W        W86578  22.110  20.569  12.611
14264W        W86579  22.779  18.641   4.048
14265W        W86580  32.332  44.562  10.976
14266W        W86581  29.831  19.955  10.387
14267W        W86582  14.331   6.214  14.313
14268W        W86583  30.636  37.586   3.405
14269W        W86584   1.649  16.331  13.163
14270W        W86585   6.852  34.029  11.176
14271W        W86586  37.287   7.941   2.795
14272W        W86587   8.677  25.040  10.745
14273W        W86588   1.417   6.992  13.763
14274W        W86589  15.201   4.149  13.637
14275W        W86590  21.241   7.399  11.322
14276W        W86591  23.033  27.976   0.936
14277W        W86592  32.001   8.109  11.322
14278W        W86593  10.814   1.996   3.072
14279W        W86594   1.619  38.135  14.001
14280W        W86595  35.406  36.427  10.652
14281W        W86596  39.284   3.122   4.106
14282W        W86597  11.088   7.810  12.880
14283W        W86598   3.817  18.056   3.237
14284W        W86599   6.155  27.935  14.820
14285W        W86600  16.292  20.769   3.857
14286W        W86601  21.601  33.493  11.082
14287W        W86602   3.178   7.734  14.488
14288W        W86603  35.173  26.829  12.374
14289W        W86604  30.879  21.524   0.792
14290W        W86605   7.014  12.316  13.576
14291W        W86606  20.892  15.751   2.862
14292W        W86607  13.617  26.198  13.094
14293W        W86608  43.429  39.307   4.592
14294W        W86609  31.654  33.001   4.427
14295W        W86610   6.464   6.320  14.962
14296W        W86611  13.197   5.403  14.382
14297W        W86612   9.073  35.883  13.596
14298W        W86613   0.190   6.337  11.692
14299W        W86614   6.687  12.227   4.838
14300W        W86615  23.424  22.050  12.918
14301W        W86616  25.895   7.950   3.830
14302W        W86617  32.168  27.794  12.187
14303W        W86618  33.440   0.883   2.435
14304W        W86619  39.884  12.477  13.348
14305W        W86620  21.684  36.101  10.880
14306W        W86621  32.388  32.140  10.655
14307W        W86622  44.731  32.702  13.889
14308W        W86623  19.134  31.556  10.990
14309W        W86624  40.073   2.830  13.000
14310W        W86625   1.768  16.076  13.626
14311W        W86626  39.218  33.342  12.891
14312W        W86627   8.100  23.743  14.208
14313W        W86628   2.712  10.428  11.090
14314W        W86629  36.581  16.673  13.458
14315W        W86630  14.112  12.993  12.467
14316W        W86631  14.338  26.321   0.872
14317W        W86632  28.670   0.984   0.893
14318W        W86633  35.335   7.626   4.571
14319W        W86634  22.151  12.382   2.928
14320W        W86635  15.591  40.379  11.067
14321W        W86636  28.663  21.561   2.282
14322W        W86637  23.119  33.670  12.487
14323W        W86638   0.244  10.399   1.072
14324W        W86639  10.629  20.936   1.656
14325W        W86640   9.346  34.769   0.598
14326W        W86641  41.701   8.095   4.119
14327W        W86642  28.378  40.247   3.691
14328W        W86643   9.741  26.150  13.678
14329W        W86644   4.939  27.851   4.682
14330W        W86645  11.087  31.132  13.043
14331W        W86646   1.442  36.934   2.810
14332W        W86647  42.333  35.855  13.039
14333W        W86648  19.231  11.771  10.219
14334W        W86649  26.721  21.392  11.475
14335W        W86650   6.651  30.477   4.428
14336W        W86651  40.394  44.447  13.383
14337W        W86652  17.489   2.057   2.183
14338W        W86653  42.966  38.743   1.884
14339W        W86654   4.454   5.362   1.227
14340W        W86655  28.131  24.983  10.852
14341W        W86656  38.814  29.574  13.606
14342W        W86657  34.288   2.849   0.134
14343W        W86658  24.275  10.204   3.017
14344W        W86659  12.094   2.811   4.391
14345W        W86660  43.503  28.291   5.024
14346W        W86661  20.272  12.666   4.619
14347W        W86662  18.117   6.792   1.078
14348W        W86663  12.423  12.861  11.582
14349W        W86664  22.829  26.642  14.909
14350W        W86665   1.724  29.509   0.183
14351W        W86666  35.442   7.343  13.752
14352W        W86667   1.268  11.239  13.588
14353W        W86668  21.512  35.025  12.687
14354W        W86669   9.875  33.844   0.307
14355W        W86670   9.717  34.937  11.882
14356W        W86671  27.646   8.338  14.995
14357W        W86672  29.008  35.492   0.743
14358W        W86673  20.986  28.624   3.664
14359W        W86674  22.394  39.850   4.166
14360W        W86675  41.952  13.670  10.446
14361W        W86676  17.672  12.693  12.587
14362W        W86677  15.641  33.656  10.399
14363W        W86678  18.385  20.075   3.666
14364W        W86679  36.877  18.662   3.228
14365W        W86680  22.023  31.690   4.123
14366W        W86681   0.803  28.687  12.503
14367W        W86682  14.316  15.334   3.175
14368W        W86683  40.889  33.404  14.869
14369W        W86684  27.493   1.752   0.305
14370W        W86685  17.356  35.510   3.536
14371W        W86686  32.057   7.474   0.731
14372W        W86687  21.996  22.966  10.736
14373W        W86688  23.106  26.203   4.459
14374W        W86689  19.089  22.909  14.956
14375W        W86690  42.062  17.071  14.902
14376W        W86691  42.505  39.593   1.823
14377W        W86692  10.709  25.178  10.764
14378W        W86693   6.322  19.742  11.597
14379W        W86694   6.854   1.916  13.761
14380W        W86695  41.273  40.872   0.235
14381W        W86696  18.087  26.361   1.846
14382W        W86697  29.818  30.467   5.010
14383W        W86698  23.054  40.098   1.003
14384W        W86699   5.919   6.952  10.781
14385W        W86700  23.438  20.849   4.618
14386W        W86701  25.988  16.508   1.642
14387W        W86702   2.269  24.310   4.851
14388W        W86703   2.752   7.755  10.814
14389W        W86704  42.355  28.499   3.698
14390W        W86705  40.983  18.445  11.839
14391W        W86706  27.760   9.826  12.032
14392W        W86707  16.905  42.169   0.506
14393W        W86708   0.760  16.104   4.817
14394W        W86709  33.497  12.118  14.561
14395W        W86710  12.041  18.418   3.239
14396W        W86711  10.857  12.705   3.675
14397W        W86712  19.779  11.627  12.875
14398W        W86713  31.737  36.698  11.280
14399W        W86714  10.322  42.275   4.557
14400W        W86715   4.954  37.655   4.144
14401W        W86716  35.486  30.475  14.337
14402W        W86717   8.557  41.644   0.583
14403W        W86718  33.396  26.252   0.573
14404W        W86719  20.690  29.859  13.055
14405W        W86720  12.417  20.102   3.783
14406W        W86721  25.928  18.698   4.244
14407W        W86722  24.055   2.485   0.521
14408W        W86723  33.154  19.061   1.714
14409W        W86724   8.846  36.990  12.687
14410W        W86725  17.206  35.614   3.047
14411W        W86726  34.648   5.683  11.372
14412W        W86727  40.644   2.190  11.559
14413W        W86728  19.967  41.489   1.834
14414W        W86729  33.614  25.065  11.072
14415W        W86730  12.105  15.898   0.003
14416W        W86731  44.980  43.775  11.244
14417W        W86732  35.225   6.777   4.027
14418W        W86733   8.166  18.746   3.673
14419W        W86734   2.383  32.875   2.731
14420W        W86735   3.414  42.800  12.037
14421W        W86736  32.822  15.612   2.947
14422W        W86737  18.836   9.745  14.274
14423W        W86738   8.640   5.392   3.664
14424W        W86739  10.889  43.016   4.586
14425W        W86740  36.024  15.586   1.868
14426W        W86741  39.416  14.857  13.603
14427W        W86742  44.844  40.115   3.795
14428W        W86743  38.916  44.803  12.681
14429W        W86744  16.675  12.384  12.863
14430W        W86745   2.369  32.528  11.466
14431W        W86746  15.968   9.721   3.939
14432W        W86747   8.767  35.459   3.958
14433W        W86748  18.024  40.552   3.199
14434W        W86749  42.332  42.821   0.879
14435W        W86750  22.644  20.885   1.293
14436W        W86751  17.580  28.626  10.555
14437W        W86752  22.282  27.051   2.194
14438W        W86753  38.754  17.203  11.111
14439W        W86754  35.869  19.265   0.269
14440W        W86755   2.922  40.481   3.253
14441W        W86756  12.109  44.460   1.332
14442W        W86757  40.734  17.515  12.640
14443W        W86758  37.134  39.850   0.950
14444W        W86759   5.324   4.434  14.942
14445W        W86760  22.215   3.879   0.946
14446W        W86761  41.435  36.165  10.691
14447W        W86762  21.610  40.126   0.705
14448W        W86763  37.452  26.577  14.201
14449W        W86764  36.574  37.887   2.509
14450W        W86765  28.983  12.284  13.227
14451W        W86766  43.567   4.285   1.724
14452W        W86767   9.873   8.775  13.473
14453W        W86768   4.804  41.509   1.781
14454W        W86769   1.489  16.963  13.700
14455W        W86770  13.062   2.523   1.765
14456W        W86771  30.911  23.263  11.921
14457W        W86772   3.842  28.537   0.926
14458W        W86773  27.525  42.561   1.197
14459W        W86774  31.685  43.456   4.186
14460W        W86775  44.445  30.926  11.916
14461W        W86776  24.462  12.058  11.223
14462W        W86777  43.757   0.818   2.141
14463W        W86778  24.127  43.928  14.231
14464W        W86779   4.252  40.569  14.941
14465W        W86780  20.995  41.425  12.292
14466W        W86781  17.652  12.310   4.903
14467W        W86782  14.341  31.494  10.974
14468W        W86783  17.348  10.361   1.934
14469W        W86784  10.023  19.650  11.583
14470W        W86785  20.625   4.178  10.657
14471W        W86786  14.719  11.443  14.906
14472W        W86787  25.212  33.477   3.612
14473W        W86788   4.263  37.356   0.367
14474W        W86789  30.545  35.506  12.345
14475W        W86790  20.137   9.165   4.112
14476W        W86791  30.267  31.932  14.858
14477W        W86792  34.184  25.587   0.243
14478W        W86793   1.710  10.941  11.965
14479W        W86794  30.132  11.757   3.288
14480W        W86795  16.378  17.763   2.749
14481W        W86796  33.906  14.725   4.600
14482W        W86797   4.960  19.059  13.379
14483W        W86798   1.690  18.151  13.842
14484W        W86799  32.128   0.326   1.342
14485W        W86800   3.890   8.354  11.679
14486W        W86801  36.930  21.491  12.027
14487W        W86802  30.807  39.789  11.921
14488W        W86803  25.321  43.832  12.627
14489W        W86804  10.652  18.634   1.469
14490W        W86805   0.132  10.732  11.800
14491W        W86806  38.579   9.815  14.054
14492W        W86807  12.208  39.623   1.601
14493W        W86808  44.088   6.880   5.086
14494W        W86809  32.972  38.321  13.946
14495W        W86810  42.023  17.810   3.739
14496W        W86811  29.366  31.872   2.189
14497W        W86812  19.065  11.232  12.833
14498W        W86813   4.425  34.019   4.690
14499W        W86814  37.802  43.733   0.326
14500W        W86815  10.129  10.064  13.991
14501W        W86816  19.603  12.264   4.153
14502W        W86817  29.554   8.394  14.725
14503W        W86818  10.996  28.709  12.577
14504W        W86819  12.794  33.907  14.511
14505W        W86820  42.023  20.889  11.444
14506W        W86821  34.981  34.384   4.159
14507W        W86822   0.308  27.992   3.780
14508W        W86823  21.935  36.955  11.001
14509W        W86824   9.676   5.744   0.249
14510W        W86825   9.852  31.599   2.784
14511W        W86826  24.079   3.399  14.373
14512W        W86827  43.512  32.412   0.042
14513W        W86828  31.944  40.407  10.691
14514W        W86829  11.772  29.102  10.092
14515W        W86830  16.198  34.473   4.714
14516W        W86831  27.850   4.005   4.786
14517W        W86832  17.071  12.105   3.556
14518W        W86833  23.540  21.599  13.462
14519W        W86834  20.359  21.744  11.671
14520W        W86835  37.120  42.645   5.101
14521W        W86836  12.868  35.440  13.915
14522W        W86837  21.705  17.551  13.412
14523W        W86838  36.318  13.879  14.781
14524W        W86839  10.443  18.256  13.924
14525W        W86840  22.621  15.186  13.754
14526W        W86841  37.248  12.073   3.673
14527W        W86842   7.530  14.075   2.747
14528W        W86843  16.424  35.003   3.303
14529W        W86844  35.030  29.943   1.821
14530W        W86845   0.750   3.827   2.265
14531W        W86846  22.539  38.077  12.605
14532W        W86847  23.654  14.649  10.603
14533W        W86848   0.906  19.860  12.364
14534W        W86849  43.740  34.060   0.294
14535W        W86850   0.507  36.007   2.207
14536W        W86851  38.008   8.216   4.678
14537W        W86852  39.340  32.154  13.433
14538W        W86853  13.147  37.072  14.457
14539W        W86854  23.041  23.712  12.352
14540W        W86855  10.263  25.784   0.728
14541W        W86856  40.927  42.860  11.185
14542W        W86857  21.111  31.359   2.286
14543W        W86858  13.344  14.739   4.589
14544W        W86859  32.610  14.319  12.423
14545W        W86860  25.958  31.515  12.498
14546W        W86861  36.918  23.173  13.419
14547W        W86862  31.978   4.064   0.382
14548W        W86863  17.238  19.299   0.305
14549W        W86864  22.009  43.946  14.038
14550W        W86865   3.255  27.982  12.834
14551W        W86866  11.295  42.501  14.799
14552W        W86867   0.958  43.015   3.293
14553W        W86868  15.741   4.467   1.303
14554W        W86869  29.120  13.242  10.686
14555W        W86870  39.966   8.012  11.970
14556W        W86871  29.516  12.668   1.703
14557W        W86872  30.381  41.227  13.542
14558W        W86873  28.244   5.619  13.683
14559W        W86874  29.528  18.848   3.141
14560W        W86875  28.447  21.163  10.105
14561W        W86876  14.134  41.476  11.351
14562W        W86877  20.699  41.051   0.438
14563W        W86878  15.365   9.111  14.927
14564W        W86879  42.958  30.587  11.965
14565W        W86880   0.561   5.176   3.678
14566W        W86881   5.174  20.311  11.941
14567W        W86882  27.458  36.141   0.269
14568W        W86883  10.172  30.181  10.673
14569W        W86884  27.434  13.114  14.879
14570W        W86885  44.376   7.486  13.323
14571W        W86886   4.132  42.530  14.923
14572W        W86887  16.162  35.162  13.562
14573W        W86888   4.211  21.031   0.860
14574W        W86889  10.177   7.824   4.361
14575W        W86890  18.857   5.298   3.643
14576W        W86891  16.798   2.791  12.716
14577W        W86892  42.245  32.041   2.378
14578W        W86893  23.743  14.676   0.994
14579W        W86894  15.997  26.569   4.213
14580W        W86895  28.250  20.282  11.957
14581W        W86896  28.005  36.459  12.541
14582W        W86897  20.422  21.230  13.293
14583W        W86898  16.444  18.556   4.496
14584W        W86899  10.103  27.611   1.790
14585W        W86900  12.583  38.038  11.559
14586W        W86901   4.190  24.968   3.649
14587W        W86902  18.167  21.190   3.855
14588W        W86903   4.800   0.696   1.217
14589W        W86904  11.093  34.523  14.463
14590W        W86905  13.719  13.488  12.388
14591W        W86906  38.048  22.771  12.552
14592W        W86907  34.487  23.893   1.424
14593W        W86908   5.026   9.142   4.958
14594W        W86909   7.269  12.673   4.834
14595W        W86910  39.941  28.136  11.553
14596W        W86911  42.987  34.830   2.901
14597W        W86912   7.416  32.102   0.966
14598W        W86913  24.033  42.886   1.177
14599W        W86914   2.777  19.572  14.871
14600W        W86915  21.231  43.981   4.470
14601W        W86916  10.991  32.618   1.394
14602W        W86917   7.353   7.707  14.455
14603W        W86918  16.191   7.161  14.428
14604W        W86919  40.366   8.866  12.824
14605W        W86920  31.621   0.886   0.651
14606W        W86921  27.154  19.334  12.997
14607W        W86922   6.861  28.215  14.045
14608W        W86923  39.317  17.199   1.324
14609W        W86924  30.618  10.377  14.440
14610W        W86925  18.355  33.542  11.550
14611W        W86926  11.347   5.441  11.158
14612W        W86927  34.158   4.258   4.721
14613W        W86928  10.748  32.152   3.656
14614W        W86929  17.092   5.283   4.111
14615W        W86930  33.103  32.675   2.926
14616W        W86931  15.088  11.547   3.350
14617W        W86932  13.652  32.739   0.883
14618W        W86933  16.115   6.668   1.402
14619W        W86934   0.666  41.353   3.738
14620W        W86935  35.106  11.799  12.641
14621W        W86936  43.280   2.216  14.437
14622W        W86937   3.871   9.172  11.177
14623W        W86938  25.120  32.156  12.124
14624W        W86939   1.350  39.257   3.067
14625W        W86940  41.546  29.720  14.611
14626W        W86941  39.416  14.646  10.992
14627W        W86942  44.563   8.023   1.378
14628W        W86943   9.088  34.407   1.951
14629W        W86944  37.271  13.512  10.564
14630W        W86945  21.038   8.830  13.949
14631W        W86946  10.533  27.217  14.079
14632W        W86947  36.372   7.324   1.457
14633W        W86948   1.717   0.690   4.008
14634W        W86949  12.719  18.691  10.714
14635W        W86950  40.908  41.125  14.388
14636W        W86951  14.871  17.494   1.868
14637W        W86952  21.360  31.474  14.910
14638W        W86953   5.179  28.485   3.723
14639W        W86954  22.731  35.538   4.655
14640W        W86955  17.295   8.692   3.148
14641W        W86956  36.785  13.468   0.572
14642W        W86957  39.853   4.826  14.986
14643W        W86958   6.184  43.518   2.300
14644W        W86959  19.571  29.849   3.601
14645W        W86960  30.498   0.248   2.817
14646W        W86961   5.599  39.254  12.990
14647W        W86962  39.299  29.301  13.136
14648W        W86963   0.707  23.528  14.417
14649W        W86964  10.676  30.139   0.418
14650W        W86965  30.397   6.077  12.655
14651W        W86966  16.166  29.483   4.971
14652W        W86967   2.868   7.888   0.057
14653W        W86968  39.418  32.853  12.005
14654W        W86969  23.133  13.857  14.998
14655W        W86970  13.323  21.187  13.923
14656W        W86971  41.254  43.423  10.959
14657W        W86972   7.623   3.761   3.651
14658W        W86973   1.140  25.898   3.889
14659W        W86974  40.304  17.677   2.180
14660W        W86975  20.247  35.906  13.914
14661W        W86976  40.538  26.573  12.890
14662W        W86977  12.774  14.179  14.959
14663W        W86978  21.667   4.456  11.990
14664W        W86979  37.755  10.341  14.353
14665W        W86980   2.909  10.384  12.915
14666W        W86981   5.964  36.970  10.776
14667W        W86982   7.319  26.573  11.566
14668W        W86983  24.190  14.332  12.033
14669W        W86984   0.431  39.608  11.199
14670W        W86985  24.208  20.047  12.421
14671W        W86986  13.880   7.481  11.155
14672W        W86987  28.365  26.986  13.345
14673W        W86988  27.627  24.205  11.125
14674W        W86989  33.501  27.434   2.640
14675W        W86990  13.139  32.076   4.069
14676W        W86991  17.310  36.043  10.177
14677W        W86992   0.541  15.690  12.135
14678W        W86993  15.617  33.877   4.946
14679W        W86994   2.655   5.004  10.249
14680W        W86995  14.858  20.519  12.950
14681W        W86996   2.794  27.015  14.466
14682W        W86997  42.079  13.861   0.934
14683W        W86998   6.454  33.187   2.346
14684W        W86999  11.199  22.320   1.770
14685W        W87000  26.054   6.929  12.872
14686W        W87001   5.749  27.210   0.251
14687W        W87002  41.519   9.396   1.269
14688W        W87003  25.513  22.430  12.393
14689W        W87004  33.423  12.689  10.237
14690W        W87005   3.994  42.231   0.296
14691W        W87006  36.496   7.352   2.293
14692W        W87007  33.938   3.273  11.576
14693W        W87008   4.854  33.701   4.027
14694W        W87009  19.490  18.200  13.960
14695W        W87010  33.655  43.419  13.197
14696W        W87011  37.518  17.319   3.663
14697W        W87012   0.587  19.059   3.340
14698W        W87013  15.831  35.716  14.246
14699W        W87014  35.358  21.196  11.717
14700W        W87015   3.761  29.530  12.133
14701W        W87016  25.601  25.419   2.281
14702W        W87017  34.569   2.850   1.812
14703W        W87018  33.761   4.719  10.753
14704W        W87019  36.836  27.240   4.472
14705W        W87020  23.921  44.730  13.893
14706W        W87021  25.995  14.598   3.203
14707W        W87022  26.439  19.866   2.887
14708W        W87023  35.433   0.976   2.505
14709W        W87024  25.434  42.397   0.957
14710W        W87025  43.365   3.573  14.992
14711W        W87026  18.813  14.068  14.337
14712W        W87027  19.528  16.858   4.499
14713W        W87028  21.231  36.260   4.513
14714W        W87029  33.397   2.617   4.978
14715W        W87030   3.329  15.372   3.466
14716W        W87031  20.713  38.870  10.569
14717W        W87032   9.806  24.723   0.391
14718W        W87033  16.573   6.714   4.588
14719W        W87034  27.630  27.542  14.955
14720W        W87035  13.375  29.389   4.782
14721W        W87036  40.369  18.377   1.477
14722W        W87037  33.595   4.756   2.750
14723W        W87038  12.124  40.275   2.156
14724W        W87039  36.605  30.407  11.518
14725W        W87040   2.266  13.956  11.153
14726W        W87041  38.900  22.934   0.377
14727W        W87042  43.087  40.366   5.510
14728W        W87043  44.937  33.604   0.872
14729W        W87044   9.337  32.879  11.050
14730W        W87045  31.611  38.854   2.821
14731W        W87046   0.047  19.178   1.914
14732W        W87047  33.336  24.726  12.491
14733W        W87048  14.046  33.855   3.144
14734W        W87049  36.517  11.570   1.419
14735W        W87050  10.620  41.378   5.066
14736W        W87051  11.277   9.607   1.248
14737W        W87052   6.244  30.134  11.174
14738W        W87053  40.250  38.775   2.762
14739W        W87054  29.437   0.852  14.538
14740W        W87055  36.113  36.839   3.428
14741W        W87056   8.597  31.515  14.174
14742W        W87057  30.628  29.567   1.222
14743W        W87058  42.095   5.481  13.847
14744W        W87059  29.474  42.070   4.229
14745W        W87060  12.820  38.308   2.848
14746W        W87061   0.399  39.445  10.695
14747W        W87062   1.948  29.274  12.681
14748W        W87063  30.573  34.066  12.195
14749W        W87064  39.225  36.455   1.767
14750W        W87065  40.337  16.700   1.757
14751W        W87066  30.516  14.119   2.706
14752W        W87067  13.407   2.693  10.907
14753W        W87068  16.596  25.524  11.981
14754W        W87069  44.250  11.007  14.015
14755W        W87070   3.909  12.138  14.882
14756W        W87071  31.842   4.474   2.433
14757W        W87072  21.161  21.682   4.120
14758W        W87073  23.241  35.324  13.372
14759W        W87074  41.019  43.383   0.313
14760W        W87075  28.256   1.639  13.930
14761W        W87076   4.977  23.753  10.559
14762W        W87077  29.741   0.949   1.803
14763W        W87078  39.015  39.323  11.127
14764W        W87079   6.591  31.384   4.428
14765W        W87080  22.188   4.992   2.404
14766W        W87081  20.563  37.144  10.849
14767W        W87082  14.268  32.465  10.846
14768W        W87083   3.327  35.562   2.240
14769W        W87084   6.681  31.101   1.642
14770W        W87085  32.743  24.978  10.483
14771W        W87086  26.430  19.214   4.193
14772W        W87087   0.055  37.256   0.000
14773W        W87088   7.789   3.433   4.035
14774W        W87089  30.037  34.497   3.158
14775W        W87090  18.804  41.995   1.637
14776W        W87091  30.719  18.401   4.240
14777W        W87092  39.229  39.561  11.543
14778W        W87093  26.687   0.354  13.981
14779W        W87094  23.829  39.409  11.145
14780W        W87095   5.916  35.861  11.743
14781W        W87096  18.074   4.869   1.344
14782W        W87097  15.196  20.004   3.914
14783W        W87098   1.360  35.396  14.818
14784W        W87099  33.505  26.875   2.738
14785W        W87100   3.650  23.789  11.095
14786W        W87101  39.556  38.014  13.952
14787W        W87102  31.874   0.353   1.806
14788W        W87103  10.854  32.771  13.540
14789W        W87104  32.287  24.741  10.355
14790W        W87105   9.089  40.011  12.608
14791W        W87106  18.703  32.587   4.022
14792W        W87107  41.542  43.293  10.526
14793W        W87108  41.284  39.470   2.396
14794W        W87109  44.183  11.805  10.701
14795W        W87110   1.015   2.878   3.177
14796W        W87111  25.797  16.259  12.146
14797W        W87112  11.045   1.215  11.587
14798W        W87113  26.253  26.724   3.277
14799W        W87114  10.427  12.589  11.566
14800W        W87115  24.765  17.195  11.953
14801W        W87116  24.627  18.060   3.708
14802W        W87117   3.696  44.400  11.413
14803W        W87118  37.577  19.135   3.615
14804W        W87119  22.793  32.059   0.495
14805W        W87120  38.509  23.955  11.114
14806W        W87121  37.359  27.667   4.316
14807W        W87122  39.513  41.014   2.919
14808W        W87123  41.895   9.694  11.035
14809W        W87124  22.468  24.579  10.680
14810W        W87125  35.763  34.035   1.498
14811W        W87126   7.550  27.270  14.781
14812W        W87127  13.125   4.263   1.455
14813W        W87128  18.009  34.279   3.850
14814W        W87129  33.855  14.927  12.410
14815W        W87130  44.816  12.285   2.170
14816W        W87131   5.169  12.381   2.384
14817W        W87132   8.439  34.969   0.398
14818W        W87133  44.649  38.680  11.575
14819W        W87134   2.425  23.219   2.924
14820W        W87135   1.516  43.985  13.834
14821W        W87136  10.366   1.943  11.638
14822W        W87137  43.007  32.405   3.632
14823W        W87138  28.864  12.866  13.440
14824W        W87139   4.045  36.639   0.732
14825W        W87140  17.737  19.522  12.604
14826W        W87141   8.461   6.769  14.456
14827W        W87142  38.419  26.670  13.841
14828W        W87143  42.031   8.169  14.187
14829W        W87144  29.090  32.943   0.344
14830W        W87145   6.899   7.831  11.527
14831W        W87146  14.343  31.486   3.723
14832W        W87147  22.459  42.015  13.543
14833W        W87148  42.254   2.943  11.628
14834W        W87149  27.196  22.982   0.239
14835W        W87150  33.911   0.196  11.600
14836W        W87151  14.063  13.307   2.244
14837W        W87152   7.447  26.080   3.666
14838W        W87153  20.250  26.379   3.437
14839W        W87154   2.996  31.860   4.522
14840W        W87155  32.265   1.767  14.397
14841W        W87156   6.322  16.300  13.827
14842W        W87157   5.628  15.145  10.718
14843W        W87158  34.012  32.454   3.670
14844W        W87159  30.377  11.164  13.537
14845W        W87160  16.226   4.347   1.848
14846W        W87161  43.561  18.740  14.783
14847W        W87162  37.709  31.589   2.116
14848W        W87163  15.381  23.240   1.411
14849W        W87164  37.005  22.005  11.944
14850W        W87165  31.967  43.211   4.554
14851W        W87166   5.425  33.023   1.212
14852W        W87167  33.855   0.496  12.929
14853W        W87168  11.314  44.785   1.871
14854W        W87169  11.016  36.125   3.492
14855W        W87170   8.908  42.902   4.616
14856W        W87171  42.810  37.755   0.940
14857W        W87172  41.414  30.317   1.411
14858W        W87173  24.093   3.501   4.578
14859W        W87174   9.358  43.936   3.889
14860W        W87175  37.027  10.627   3.751
14861W        W87176  37.622  29.584  10.727
14862W        W87177  38.871  16.135   4.577
14863W        W87178  17.212  25.661   3.584
14864W        W87179  15.631  33.639  10.958
14865W        W87180  27.393  23.470  12.505
14866W        W87181  37.942  17.055   3.525
14867W        W87182  31.328  18.655   1.139
14868W        W87183   6.990  26.420  13.430
14869W        W87184  43.623  34.829   4.938
14870W        W87185  19.085  36.362   2.534
14871W        W87186  31.932  11.742   0.369
14872W        W87187  44.482  13.255   1.344
14873W        W87188   0.815  16.830   1.299
14874W        W87189  39.599   9.051   2.132
14875W        W87190   9.393   5.412   0.692
14876W        W87191  26.644   6.295  14.271
14877W        W87192  29.336  17.344   3.861
14878W        W87193   7.519  28.708   3.510
14879W        W87194   6.866  21.311   1.929
14880W        W87195   4.232  16.205  13.783
14881W        W87196  16.255  43.900   2.830
14882W        W87197  32.515  15.233   2.174
14883W        W87198  29.950   1.479   0.422
14884W        W87199  42.052  30.948  10.694
14885W        W87200   6.510  20.301  10.811
14886W        W87201  27.663   6.244   5.229
14887W        W87202  34.425  31.139  14.583
14888W        W87203  29.458  13.255   3.571
14889W        W87204   3.609   1.957   4.121
14890W        W87205  26.589   8.951   1.428
14891W        W87206  13.180  34.079   0.336
14892W        W87207  33.472  28.045   1.870
14893W        W87208  33.428  28.801   3.279
14894W        W87209  21.321   5.458   1.401
14895W        W87210  13.348  35.066  12.682
14896W        W87211  43.405  20.083  14.839
14897W        W87212  43.060  42.589   3.731
14898W        W87213  26.080  12.207  13.603
14899W        W87214  25.733  12.036   0.836
14900W        W87215  17.293  42.292  10.732
14901W        W87216  28.245  11.746  13.889
14902W        W87217  12.790   8.913   3.611
14903W        W87218   5.438  30.853  14.861
14904W        W87219  22.614  33.415  14.448
14905W        W87220  23.248  34.203  12.467
14906W        W87221  18.807  32.464   0.577
14907W        W87222  30.172   2.745  12.017
14908W        W87223  42.039  17.967  13.364
14909W        W87224  21.384  35.600  11.555
14910W        W87225  19.281  33.141   0.859
14911W        W87226  29.511  18.698   0.951
14912W        W87227   5.744  13.793  12.490
14913W        W87228  21.475  36.395  12.976
14914W        W87229  36.514  43.042  10.815
14915W        W87230  31.316  35.110   3.097
14916W        W87231   7.905  22.094  13.922
14917W        W87232  21.478  22.533   4.954
14918W        W87233  17.143  32.260   2.873
14919W        W87234  16.688  30.062   3.804
14920W        W87235   8.792  26.099  12.463
14921W        W87236  19.237  41.614   4.735
14922W        W87237  17.758  13.350   1.935
14923W        W87238   4.479   2.765  14.728
14924W        W87239  37.330  38.006  12.847
14925W        W87240   3.379  38.431   4.695
14926W        W87241  30.383  17.069  12.965
14927W        W87242  16.651   1.487   2.348
14928W        W87243   8.570  13.731   3.953
14929W        W87244   7.304  28.631  12.785
14930W        W87245   2.890  37.105   0.466
14931W        W87246  19.603  16.021  14.570
14932W        W87247  31.164  27.326  11.219
14933W        W87248   5.334   0.462   0.423
14934W        W87249  34.129  39.024   2.119
14935W        W87250   8.125  10.343   0.750
14936W        W87251   2.083  44.735  14.052
14937W        W87252   8.219   2.193   1.615
14938W        W87253  19.665  15.800  11.600
14939W        W87254  31.089  20.555  12.382
14940W        W87255  33.734  30.229  12.545
14941W        W87256  38.063  20.181   0.913
14942W        W87257  15.596  41.911  10.699
14943W        W87258  13.666  22.751   3.675
14944W        W87259   2.526  30.995   0.847
14945W        W87260  23.707  44.778   0.842
14946W        W87261   7.909   6.877   4.216
14947W        W87262  22.407   0.457   1.644
14948W        W87263  27.607  44.353  11.434
14949W        W87264  43.027  28.579  13.113
14950W        W87265  15.657  27.607  13.542
14951W        W87266  23.452  31.363  11.698
14952W        W87267   4.681   5.214  11.973
14953W        W87268  41.476  33.869   0.974
14954W        W87269  11.769  16.306  14.975
14955W        W87270  42.822  39.042  10.893
14956W        W87271  13.822  36.307  14.061
14957W        W87272  33.634  26.049   3.867
14958W        W87273  32.329  43.320   1.253
14959W        W87274   7.370  34.426   2.200
14960W        W87275  37.914   4.835  11.677
14961W        W87276  43.915  38.598  11.464
14962W        W87277   5.733  36.870  12.854
14963W        W87278  36.067  30.673  11.097
14964W        W87279  43.590  27.158   4.335
14965W        W87280  13.347   8.387   3.251
14966W        W87281  32.419  15.324  13.928
14967W        W87282  12.197  32.044  12.859
14968W        W87283  12.345   1.919  12.364
14969W        W87284   9.114  32.881   0.317
14970W        W87285  43.825  26.688   2.293
14971W        W87286  22.254  44.278  13.732
14972W        W87287  12.111  42.536  13.823
14973W        W87288  41.818  27.621   4.197
14974W        W87289  30.442  15.554  11.545
14975W        W87290  11.807  20.527  10.022
14976W        W87291  25.985   8.373   2.408
14977W        W87292  14.366   7.179  14.304
14978W        W87293  22.830  32.183  11.606
14979W        W87294  18.248  30.873  11.977
14980W        W87295  24.216  18.223  10.017
14981W        W87296  19.167   8.081  13.439
14982W        W87297  39.744  10.387   3.795
14983W        W87298   2.658   7.124  14.813
14984W        W87299  27.109   0.347  14.918
14985W        W87300  30.514  10.201  13.944
14986W        W87301  31.096  37.378   1.276
14987W        W87302  39.255  24.179   2.182
14988W        W87303  17.565  24.097   4.959
14989W        W87304   9.033  26.699   1.375
14990W        W87305  16.370   9.820   0.459
14991W        W87306  17.078  25.153  14.393
14992W        W87307  40.102   8.140  14.410
14993W        W87308   5.681   7.899  12.315
14994W        W87309  26.044  14.832   2.720
14995W        W87310  27.391   9.858   0.210
14996W        W87311  42.490  36.572  13.534
14997W        W87312  16.222  13.695   1.374
14998W        W87313  32.914  19.281  14.876
14999W        W87314   3.760  15.087   2.707
15000W        W87315   2.354   8.688   3.602
15001W        W87316   2.255   1.276  11.541
15002W        W87317  32.561  33.966   0.811
15003W        W87318  34.055   1.168   3.655
15004W        W87319  13.462  37.251  11.050
15005W        W87320  39.316  36.773  13.356
15006W        W87321  30.963   6.181   2.142
15007W        W87322   0.085  28.009  13.434
15008W        W87323  16.744  22.143   4.094
15009W        W87324  27.125  36.292  11.118
15010W        W87325  18.116  40.276   2.750
15011W        W87326  17.344  29.992   1.920
15012W        W87327  41.999  21.218   1.247
15013W        W87328   5.290  35.351   4.189
15014W        W87329   0.931  24.488   0.748
15015W        W87330  40.392  11.380   1.888
15016W        W87331  24.001  37.597   3.656
15017W        W87332  11.229   1.968  14.851
15018W        W87333  16.579  26.609  10.181
15019W        W87334   1.315  38.275   3.155
15020W        W87335  23.123  12.707  11.697
15021W        W87336  19.384  14.155   5.066
15022W        W87337  14.516  22.194   0.737
15023W        W87338   8.816  28.657  12.912
15024W        W87339  39.273  26.645   3.817
15025W        W87340  14.911  16.641   2.795
15026W        W87341  12.289  41.472   3.765
15027W        W87342  31.991  38.812  13.848
15028W        W87343   7.975  39.051  12.765
15029W        W87344  33.625  42.174   0.750
15030W        W87345  17.607   8.593   5.470
15031W        W87346  31.878  21.775   1.004
15032W        W87347  30.523  38.580   4.574
15033W        W87348  15.601  13.401  11.135
15034W        W87349   4.434   0.892  10.973
15035W        W87350  40.738  28.058   0.828
15036W        W87351  31.389  14.303  12.870
15037W        W87352  42.853  40.913   3.117
15038W        W87353   3.702  43.017   3.110
15039W        W87354  28.943  20.004   2.181
15040W        W87355  18.706   0.091  10.582
15041W        W87356  27.045  24.061  13.889
15042W        W87357  20.225  15.290   1.823
15043W        W87358   9.277  39.187  10.140
15044W        W87359   4.418  42.033   2.437
15045W        W87360  41.472  23.326  10.761
15046W        W87361  43.404  18.580  12.973
15047W        W87362   9.456  18.798  11.107
15048W        W87363   1.475   4.697  10.211
15049W        W87364   0.414  11.772  12.665
15050W        W87365  42.795   6.897   1.305
15051W        W87366  30.081  37.504   1.744
15052W        W87367  25.815  26.566  13.427
15053W        W87368  22.120  27.615  14.024
15054W        W87369  13.326  43.626   1.835
15055W        W87370  36.889  38.096  11.827
15056W        W87371   8.642  42.736  13.142
15057W        W87372  38.573  42.861   3.598
15058W        W87373  10.888   9.832  11.172
15059W        W87374  12.793  33.301   1.989
15060W        W87375  35.828  33.628  12.080
15061W        W87376  25.996   0.951  14.466
15062W        W87377  17.177  38.652   3.707
15063W        W87378  32.489   8.851  10.295
15064W        W87379  23.755  18.105   1.722
15065W        W87380  18.011  10.462   0.853
15066W        W87381   9.870  15.614   2.235
15067W        W87382  29.689  15.225   1.751
15068W        W87383  27.456  24.762  13.807
15069W        W87384  40.856  14.087   3.588
15070W        W87385  44.403  34.241   2.834
15071W        W87386  13.678  40.217  11.005
15072W        W87387   8.386  12.892  11.519
15073W        W87388  31.355  11.779  12.097
15074W        W87389  41.883  44.484   3.522
15075W        W87390  26.629  44.360  10.237
15076W        W87391  43.411   4.925  10.708
15077W        W87392  24.221  29.967  14.330
15078W        W87393  15.887  44.966  14.085
15079W        W87394  34.988  38.137  10.517
15080W        W87395  18.545  24.626  14.410
15081W        W87396  43.819  38.019  12.873
15082W        W87397  31.596  12.826   4.362
15083W        W87398  20.244  15.829  11.096
15084W        W87399   0.860  18.345  11.958
15085W        W87400  37.772  30.941   2.733
15086W        W87401  22.331  29.753  14.366
15087W        W87402  30.649  11.508   1.291
15088W        W87403   9.369   2.572   1.203
15089W        W87404  27.597  44.394  14.999
15090W        W87405  12.218   7.430   1.893
15091W        W87406  33.971  30.448  13.458
15092W        W87407  31.461  42.058  13.856
15093W        W87408  16.195   0.842   4.263
15094W        W87409  35.612   5.132   1.838
15095W        W87410  31.984  15.073  12.591
15096W        W87411  31.129  30.864   3.288
15097W        W87412  42.774  14.713  14.374
15098W        W87413   6.937  15.970  13.633
15099W        W87414   4.783  17.853   3.905
15100W        W87415   0.438  35.788  11.863
15101W        W87416  19.212   4.432  14.996
15102W        W87417  24.119  12.346   1.819
15103W        W87418  29.725  28.489  11.624
15104W        W87419  19.398  42.074   2.459
15105W        W87420  34.368  10.813  13.017
15106W        W87421  41.574   9.855   1.533
15107W        W87422  10.414  25.646  13.835
15108W        W87423  11.780  38.068   0.035
15109W        W87424  32.722  23.411  12.100
15110W        W87425  18.080  20.984   1.240
15111W        W87426  40.053  11.906   0.693
15112W        W87427  15.877  20.117  14.170
15113W        W87428  36.072  42.533  13.971
15114W        W87429  14.418  42.967   3.150
15115W        W87430  15.363  32.057  12.520
15116W        W87431  43.340   4.191  12.472
15117W        W87432  14.235  17.176   0.888
15118W        W87433  16.200   9.396  11.905
15119W        W87434  42.041  44.656   2.638
15120W        W87435  36.843  24.659  14.930
15121W        W87436  42.482  32.995  13.966
15122W        W87437  16.810  11.761  12.442
15123W        W87438  40.232  43.572  11.162
15124W        W87439   6.856  10.252   4.738
15125W        W87440  33.023  28.376   4.117
15126W        W87441   3.901  39.381   3.307
15127W        W87442  23.234  13.113  10.697
15128W        W87443  36.397  29.276   2.247
15129W        W87444  20.078  24.665   0.368
15130W        W87445  44.641  10.888  11.611
15131W        W87446  12.103  29.465   4.333
15132W        W87447  44.918   0.978   3.698
15133W        W87448   7.022  37.112  12.595
15134W        W87449  29.996   6.757   0.167
15135W        W87450  13.984  41.526   3.221
15136W        W87451  25.129  42.513  13.795
15137W        W87452  37.089  23.617   5.467
15138W        W87453  23.751  18.388   2.153
15139W        W87454   1.642  39.536   4.500
15140W        W87455  34.326  31.786   2.877
15141W        W87456  44.741  41.788   2.325
15142W        W87457  18.073   9.446   2.364
15143W        W87458  37.532  10.354   2.841
15144W        W87459  21.517  26.005   2.542
15145W        W87460   3.234  42.366   3.104
15146W        W87461  39.878  21.711   2.130
15147W        W87462  21.316  16.665   4.139
15148W        W87463  15.125  12.694  10.976
15149W        W87464   9.068  36.469  11.624
15150W        W87465   2.683  40.639  13.359
15151W        W87466  41.821  41.556   0.886
15152W        W87467  38.966  30.017  11.554
15153W        W87468   3.303  10.445  14.395
15154W        W87469  22.710  25.081   0.443
15155W        W87470  10.212  10.578  14.857
15156W        W87471   4.870  25.505  12.058
15157W        W87472   5.224  17.601   3.839
15158W        W87473  40.013  32.481  11.616
15159W        W87474  28.680  42.239   1.799
15160W        W87475  21.523  14.161  14.517
15161W        W87476   6.646   3.299  11.071
15162W        W87477  40.494  39.061  11.118
15163W        W87478  30.650  34.196   2.741
15164W        W87479  19.601   9.192  13.300
15165W        W87480   9.656  24.905  13.873
15166W        W87481  38.415  44.343  13.884
15167W        W87482  40.263   5.887   0.307
15168W        W87483  36.107  19.706  10.569
15169W        W87484  15.764  28.220   3.770
15170W        W87485  15.757   2.747  12.023
15171W        W87486  10.969  32.454   1.910
15172W        W87487  31.666  31.437  14.913
15173W        W87488  14.646   2.198  12.140
15174W        W87489  42.027  40.934  14.836
15175W        W87490  30.056  22.798   0.412
15176W        W87491   3.879  29.069  11.340
15177W        W87492  16.353   6.890   3.753
15178W        W87493   5.758  20.595   1.791
15179W        W87494  43.293   8.467   4.111
15180W        W87495  19.317  12.764   0.954
15181W        W87496  21.709   3.356   4.868
15182W        W87497  34.509   9.846  14.193
15183W        W87498  12.315  10.562  14.889
15184W        W87499  21.251   3.652  12.353
15185W        W87500  41.460  43.271   4.942
15186W        W87501  32.544  16.814   3.198
15187W        W87502   4.906  38.555  14.230
15188W        W87503  44.378  13.050   3.536
15189W        W87504   8.955   6.826  14.232
15190W        W87505  43.679  12.809  14.892
15191W        W87506  21.291  43.385  11.479
15192W        W87507  23.007  24.765   2.090
15193W        W87508  17.975   3.906  11.954
15194W        W87509  35.902  33.597  13.493
15195W        W87510  26.668  36.497  11.258
15196W        W87511   1.659   4.837  10.973
15197W        W87512  38.301  28.012   4.220
15198W        W87513  11.522  27.424   0.044
15199W        W87514   6.673  41.777  14.699
15200W        W87515  30.043  23.062  14.073
15201W        W87516  14.740  31.617  12.013
15202W        W87517  20.628  41.912  14.374
15203W        W87518  20.286   8.175   3.845
15204W        W87519   5.498  34.457   1.284
15205W        W87520   0.273  32.576   1.903
15206W        W87521   0.798  25.309  11.667
15207W        W87522  41.946  23.821   0.340
15208W        W87523  42.027  25.142  12.011
15209W        W87524   2.057  32.247   0.256
15210W        W87525   2.622  41.363   4.856
15211W        W87526  26.045   4.388   0.672
15212W        W87527  28.353  36.488  10.745
15213W        W87528  26.356  33.838   3.679
15214W        W87529  38.171  23.905  11.975
15215W        W87530  29.421  19.547   1.481
15216W        W87531  26.385  44.762  11.005
15217W        W87532  38.932  37.497  13.153
15218W        W87533  14.203  38.665  13.044
15219W        W87534   8.738  19.048   3.401
15220W        W87535  14.134  35.884  14.103
15221W        W87536  25.620  21.891  13.573
15222W        W87537  38.081  21.754  13.442
15223W        W87538  19.226  21.610   4.114
15224W        W87539  35.064  33.322  13.902
15225W        W87540  35.009   5.974   0.411
15226W        W87541  21.473  21.470   2.248
15227W        W87542  10.894  16.742   0.927
15228W        W87543  22.746  26.053   3.629
15229W        W87544   2.766  13.382  10.660
15230W        W87545   7.965  13.090   0.728
15231W        W87546  16.113  22.248  12.598
15232W        W87547   0.174  26.559  10.713
15233W        W87548   9.897  43.545  14.709
15234W        W87549  43.295  19.752  11.564
15235W        W87550   4.226  23.912  11.109
15236W        W87551  26.975   1.701   2.135
15237W        W87552  13.175  10.767  13.851
15238W        W87553  42.864   9.059  13.806
15239W        W87554  16.138  32.908  13.833
15240W        W87555  18.633  29.189   4.604
15241W        W87556  38.081   0.722   0.248
15242W        W87557  13.309  13.578  11.112
15243W        W87558   8.584  37.432  11.847
15244W        W87559  27.705  35.699   1.033
15245W        W87560  33.799  10.756   2.830
15246W        W87561   3.338  40.356   1.916
15247W        W87562  12.819  24.690   4.767
15248W        W87563  10.767  21.444   1.688
15249W        W87564  28.428  12.391   4.163
15250W        W87565  41.401  15.000   2.836
15251W        W87566  38.514  19.082   1.684
15252W        W87567  15.521  36.739   3.098
15253W        W87568   1.446  36.428   3.743
15254W        W87569  27.691  29.511   4.150
15255W        W87570  40.250  38.111  14.410
15256W        W87571   5.943  44.472   4.290
15257W        W87572  11.828   7.911   1.331
15258W        W87573  18.653  27.987  13.538
15259W        W87574  20.801  38.462  12.587
15260W        W87575  35.486  35.644   2.240
15261W        W87576  13.307  22.094   2.419
15262W        W87577  19.691  30.817  12.626
15263W        W87578  14.284   5.415   0.766
15264W        W87579  28.380  44.964  13.077
15265W        W87580  25.040  26.598  11.963
15266W        W87581  10.604  17.132   0.789
15267W        W87582   2.727  10.630  13.330
15268W        W87583  35.548  23.399  10.369
15269W        W87584  18.039  42.036  14.352
15270W        W87585  33.822  36.363   3.760
15271W        W87586  24.951  34.137   0.839
15272W        W87587  16.681  27.133  13.941
15273W        W87588  14.805  31.368   3.383
15274W        W87589  38.358  34.706  11.710
15275W        W87590  29.915   1.309   1.313
15276W        W87591  31.691  23.296  12.512
15277W        W87592  27.666   3.789   2.224
15278W        W87593   9.321   5.231   1.780
15279W        W87594  17.337  18.501   1.285
15280W        W87595  24.377  11.656   0.904
15281W        W87596   9.853   8.243  12.780
15282W        W87597   7.156  27.372   2.332
15283W        W87598  10.264  36.854   1.859
15284W        W87599  11.366   3.666   2.266
15285W        W87600  30.042  39.810  11.302
15286W        W87601   0.351   3.151   3.179
15287W        W87602  26.968  33.611  10.589
15288W        W87603  41.402   4.675  13.419
15289W        W87604  44.854  33.317   2.739
15290W        W87605  15.603   9.556  10.639
15291W        W87606  18.708  19.597  13.409
15292W        W87607  30.475  42.999   3.198
15293W        W87608  31.078  18.833   2.903
15294W        W87609  17.190  11.438   9.948
15295W        W87610   7.181  15.136   0.385
15296W        W87611  23.224   2.457   2.294
15297W        W87612   5.132  29.961  13.279
15298W        W87613  44.622  10.133  10.718
15299W        W87614  29.581  43.169  14.238
15300W        W87615   2.817  32.303  14.913
15301W        W87616  13.190   4.295   0.952
15302W        W87617  16.404  44.316   1.944
15303W        W87618  12.397  17.554  13.556
15304W        W87619  29.637   3.187   4.717
15305W        W87620   0.104  23.031  11.586
15306W        W87621  42.575  39.083   1.895
15307W        W87622  20.479   8.254   2.229
15308W        W87623   6.687  25.002  12.939
15309W        W87624   1.535  20.638  11.882
15310W        W87625  42.366  17.952   0.669
15311W        W87626  35.860  40.851   4.643
15312W        W87627  42.000  27.696   2.126
15313W        W87628  15.530  37.108   4.240
15314W        W87629  41.117  22.417   3.245
15315W        W87630   2.890  36.945  10.721
15316W        W87631  23.209  30.312  13.135
15317W        W87632   5.929  30.462   2.758
15318W        W87633  20.752  24.465  11.608
15319W        W87634   3.604  35.000  12.142
15320W        W87635  21.542  37.142  12.559
15321W        W87636  26.945   0.834  14.841
15322W        W87637   6.163  29.270  12.759
15323W        W87638  26.420   7.240  11.045
15324W        W87639  31.202  22.623  13.909
15325W        W87640  33.379  37.338   3.635
15326W        W87641   6.805  37.573  10.885
15327W        W87642  31.097  24.701   0.362
15328W        W87643  11.330  31.958  13.590
15329W        W87644  28.499   4.495   3.832
15330W        W87645  12.605   8.376  12.681
15331W        W87646  16.290  30.782   1.365
15332W        W87647  37.409  39.330  13.307
15333W        W87648  37.818   6.844   3.845
15334W        W87649  41.568  31.545  11.091
15335W        W87650  31.222  16.309   2.399
15336W        W87651  38.367  37.747   0.496
15337W        W87652  12.427  25.113   0.365
15338W        W87653  11.319  29.013   1.485
15339W        W87654  40.400  14.727   4.725
15340W        W87655  38.432  28.067   2.669
15341W        W87656  16.534  26.512   1.818
15342W        W87657  21.512   8.358  10.670
15343W        W87658   2.240  31.740  14.544
15344W        W87659  35.134   3.937  14.869
15345W        W87660   7.909  44.485   1.369
15346W        W87661  33.594  37.771  12.500
15347W        W87662  10.431  37.568   1.437
15348W        W87663  16.253  34.316   4.229
15349W        W87664  40.572  44.232   4.580
15350W        W87665  39.451  44.755  14.630
15351W        W87666   6.128  26.193  12.071
15352W        W87667  29.633  20.964   0.503
15353W        W87668  32.008  16.119   4.504
15354W        W87669  34.876  18.201  12.207
15355W        W87670  39.886  33.501   3.298
15356W        W87671  44.825  13.147   5.789
15357W        W87672   5.790   6.283   1.767
15358W        W87673  16.951   9.760   0.673
15359W        W87674  18.342   4.284  12.472
15360W        W87675   8.241  21.327   3.240
15361W        W87676   9.362  38.637  10.958
15362W        W87677   9.557  22.459   3.097
15363W        W87678  12.326  40.277  14.037
15364W        W87679  36.296  16.253  13.427
15365W        W87680  37.315  22.657  13.867
15366W        W87681  43.921  36.461  13.627
15367W        W87682  44.377  28.534  10.459
15368W        W87683   2.412  41.657  11.301
15369W        W87684   7.400  42.454  10.781
15370W        W87685  21.041  27.035   3.678
15371W        W87686  36.487  29.045   3.662
15372W        W87687  11.426  22.820  13.860
15373W        W87688   0.330  41.294   3.309
15374W        W87689  17.175  28.776  14.334
15375W        W87690  16.908  40.279  10.724
15376W        W87691  33.605  42.522   3.730
15377W        W87692  30.147  42.957   2.703
15378W        W87693   1.957  24.704  13.834
15379W        W87694  37.756  33.851  12.564
15380W        W87695   9.716  26.113   1.862
15381W        W87696   6.233  15.901   1.666
15382W        W87697   7.788  42.863  12.078
15383W        W87698  25.416  42.409  12.528
15384W        W87699  31.720   1.386   3.922
15385W        W87700  38.564  35.057  11.418
15386W        W87701   0.767   1.101   2.380
15387W        W87702  38.856  16.151  13.031
15388W        W87703  43.360  31.488   3.732
15389W        W87704  32.625  25.957   2.206
15390W        W87705   4.621  36.182  14.030
15391W        W87706  23.168   1.968  10.740
15392W        W87707   3.699  22.400  11.596
15393W        W87708  32.995  26.455   3.240
15394W        W87709  10.111  35.163  11.605
15395W        W87710  24.593   7.196  12.505
15396W        W87711  12.162  33.447  14.585
15397W        W87712  41.459   8.876   1.046
15398W        W87713  32.074  31.525   2.250
15399W        W87714  39.327  32.087   1.156
15400W        W87715  33.968  36.294   1.734
15401W        W87716  35.326  39.640   3.345
15402W        W87717   1.447  20.971   1.515
15403W        W87718  36.736  32.997   2.207
15404W        W87719  42.727  22.002  13.885
15405W        W87720  25.462  25.099  14.441
15406W        W87721  26.000   0.283   2.382
15407W        W87722  18.367  30.397  12.291
15408W        W87723   0.604   4.553   4.240
15409W        W87724   9.529  13.667   4.262
15410W        W87725  36.934  36.308  14.466
15411W        W87726  40.799  36.034   4.719
15412W        W87727  27.643  35.485   2.657
15413W        W87728  38.895  26.701  12.156
15414W        W87729  23.930  38.302   1.741
15415W        W87730  34.265  25.144   2.048
15416W        W87731   7.096  29.573   4.024
15417W        W87732  43.398  21.189   1.948
15418W        W87733  20.533  31.084   2.791
15419W        W87734   3.897  41.904   1.182
15420W        W87735   5.704   4.368   4.548
15421W        W87736   4.967  29.443   0.382
15422W        W87737  11.970  17.274   4.558
15423W        W87738  20.102  33.240   0.819
15424W        W87739  11.878  30.827  10.678
15425W        W87740  11.398  18.160  12.919
15426W        W87741   5.629   5.019   4.244
15427W        W87742  20.770  40.193  12.440
15428W        W87743  31.044  43.745   2.366
15429W        W87744   2.141  42.287   1.355
15430W        W87745  32.427  33.396   3.765
15431W        W87746  22.013  40.283  12.950
15432W        W87747  11.788   5.724   9.787
15433W        W87748  44.101  15.679   3.281
15434W        W87749  30.450  30.131   1.905
15435W        W87750  34.371  26.548   0.440
15436W        W87751  16.676   1.021   3.315
15437W        W87752  35.916  40.757   1.704
15438W        W87753  15.772  36.346  11.377
15439W        W87754   7.295  19.652   2.393
15440W        W87755  42.146  41.835  10.400
15441W        W87756  22.686   5.695   4.180
15442W        W87757  19.208  22.512   0.934
15443W        W87758   0.485  21.046   0.944
15444W        W87759   7.448   7.836  10.887
15445W        W87760  43.698   0.869  12.187
15446W        W87761  26.921  24.126  13.385
15447W        W87762  32.690  25.198   4.842
15448W        W87763  29.564   4.150   3.284
15449W        W87764   1.461  10.179  11.641
15450W        W87765  36.609  23.563  13.588
15451W        W87766  34.521   8.338   3.753
15452W        W87767  28.519  38.351  12.026
15453W        W87768  43.791   3.978  12.625
15454W        W87769   1.815   4.953  10.505
15455W        W87770  40.854  25.395  14.575
15456W        W87771   4.657  18.990  11.172
15457W        W87772   2.073  27.214  14.952
15458W        W87773  25.618   9.739   3.462
15459W        W87774  22.537  31.673   0.752
15460W        W87775   8.215  12.084   4.750
15461W        W87776  32.149  15.180   0.534
15462W        W87777  25.696  32.149   1.373
15463W        W87778  26.331  14.451   4.537
15464W        W87779  12.126  26.965  10.696
15465W        W87780  14.343  35.349   4.096
15466W        W87781  27.603  32.328  12.012
15467W        W87782  36.158   8.734   4.998
15468W        W87783  22.827  38.940  13.064
15469W        W87784  43.512  33.649  14.432
15470W        W87785  11.303  26.492   3.990
15471W        W87786   2.183  36.404   3.269
15472W        W87787  10.874  18.521   2.738
15473W        W87788  37.692  42.923  13.738
15474W        W87789  11.539  36.676  14.968
15475W        W87790   9.835  38.824  11.539
15476W        W87791  42.834  37.283   1.879
15477W        W87792  32.034  41.541   3.929
15478W        W87793  10.702   8.652  13.841
15479W        W87794  19.286  40.285   5.050
15480W        W87795  25.738  25.912   4.048
15481W        W87796  22.544  31.341  11.693
15482W        W87797  26.652   7.197  14.248
15483W        W87798  30.342  12.561  13.498
15484W        W87799  19.710  32.315  13.976
15485W        W87800   3.372  22.281   2.734
15486W        W87801  33.525   2.271  13.264
15487W        W87802   2.913  16.628  14.917
15488W        W87803   4.507  14.157  12.914
15489W        W87804  37.381   8.927  14.767
15490W        W87805  10.162  38.500   0.394
15491W        W87806  31.709   3.340  11.349
15492W        W87807  14.935  12.725  12.813
15493W        W87808  14.049  23.116   1.595
15494W        W87809  37.785  33.724   3.609
15495W        W87810  44.803  13.700  10.696
15496W        W87811  24.109  44.202   3.371
15497W        W87812  20.483  12.583   1.703
15498W        W87813  12.823  22.566  12.581
15499W        W87814  39.832  34.942  12.825
15500W        W87815  23.687  11.729  11.538
15501W        W87816   0.787  34.711   1.664
15502W        W87817  24.172   6.934  12.699
15503W        W87818  44.188  10.689   1.940
15504W        W87819  37.988  13.193   3.709
15505W        W87820  37.918  34.472  14.189
15506W        W87821  44.909  30.706   2.341
15507W        W87822  36.115   6.859   1.405
15508W        W87823  32.631  22.130   2.883
15509W        W87824  34.166  41.617  10.879
15510W        W87825  25.918  40.420   0.774
15511W        W87826  43.980  38.599   2.853
15512W        W87827  41.055  34.661  11.530
15513W        W87828  21.880  17.315   2.751
15514W        W87829  19.310  38.235   2.712
15515W        W87830  19.046  43.755   0.339
15516W        W87831  43.323  38.504  11.169
15517W        W87832  44.261   3.795   1.319
15518W        W87833  31.293  25.529   1.755
15519W        W87834  37.449   1.575   4.423
15520W        W87835  24.263  35.812   4.947
15521W        W87836  22.772  17.765  14.039
15522W        W87837  19.166  12.292   3.357
15523W        W87838   4.980  37.818  14.599
15524W        W87839  28.574  11.879   4.119
15525W        W87840  26.056   0.904   1.949
15526W        W87841   9.378  44.121  13.337
15527W        W87842  26.024  23.483   2.289
15528W        W87843  35.485  42.544  10.753
15529W        W87844  30.712  11.390  14.423
15530W        W87845  12.056  36.840   1.344
15531W        W87846  43.220  13.712  14.770
15532W        W87847   8.793  41.028  11.092
15533W        W87848   5.795  27.722   0.288
15534W        W87849  13.336  42.267  11.557
15535W        W87850  29.614  10.109   2.635
15536W        W87851  16.068  25.486   1.851
15537W        W87852  40.441   7.226  13.963
15538W        W87853   3.641  37.022  13.871
15539W        W87854  25.476  42.049   3.381
15540W        W87855  22.168  31.427   2.350
15541W        W87856  14.839   1.987  11.574
15542W        W87857   7.821  28.358  14.567
15543W        W87858  16.656   4.391   3.332
15544W        W87859  19.518  39.816   9.741
15545W        W87860  16.770  19.660  12.048
15546W        W87861   1.494  24.684  12.440
15547W        W87862  37.492  40.896  10.729
15548W        W87863  21.543  34.546   2.672
15549W        W87864  32.131  18.065   4.509
15550W        W87865  34.779  37.917  13.271
15551W        W87866  15.089  37.867   4.127
15552W        W87867   9.289  15.841  11.897
15553W        W87868   4.675  24.769   2.893
15554W        W87869  43.808  41.427   2.786
15555W        W87870  42.409  29.894   4.998
15556W        W87871   1.370   5.465   3.375
15557W        W87872  20.623  39.556   1.921
15558W        W87873   0.240   9.262  12.714
15559W        W87874   9.803  42.990  14.195
15560W        W87875  23.025  43.264  11.380
15561W        W87876  34.668  15.347   0.007
15562W        W87877  28.045  26.393  14.460
15563W        W87878   8.601  11.913   2.831
15564W        W87879  14.038  24.527  12.445
15565W        W87880  37.561  44.386   1.992
15566W        W87881  28.159   0.289  11.535
15567W        W87882   5.293  24.732   3.325
15568W        W87883  14.074  33.718  12.549
15569W        W87884   0.640   7.663  12.033
15570W        W87885  27.311  26.220  14.002
15571W        W87886  39.928  14.357   3.289
15572W        W87887  32.232   6.996   0.921
15573W        W87888  19.757  38.308  12.854
15574W        W87889  26.771  21.808   2.026
15575W        W87890   1.261  25.911  11.117
15576W        W87891  41.505  13.684  14.932
15577W        W87892   8.686  18.084  11.920
15578W        W87893  25.608  23.011  14.346
15579W        W87894  27.181  42.074  11.581
15580W        W87895  23.824  35.946   2.684
15581W        W87896  31.425   6.336   3.346
15582W        W87897  10.108  44.307  11.169
15583W        W87898   4.583  16.857   2.949
15584W        W87899  20.625  44.467   4.946
15585W        W87900  20.697   8.743  12.795
15586W        W87901  35.354  29.965  14.357
15587W        W87902  26.529   4.763   4.085
15588W        W87903  42.992  20.082  14.542
15589W        W87904  24.288  26.491  13.498
15590W        W87905  18.502  12.807  11.174
15591W        W87906  31.125  35.754  12.152
15592W        W87907   3.237   8.714   2.669
15593W        W87908  31.250   3.292  14.537
15594W        W87909   7.726  17.569  11.171
15595W        W87910  11.234  14.008   0.486
15596W        W87911   5.452   4.819   3.785
15597W        W87912  15.044  25.056   4.924
15598W        W87913  41.272  40.472   0.895
15599W        W87914  40.512   9.797   0.671
15600W        W87915  19.234   6.857  13.172
15601W        W87916   1.470   5.010   3.163
15602W        W87917   4.510   5.687  10.568
15603W        W87918  35.869  22.219  10.768
15604W        W87919   3.007  23.913   4.879
15605W        W87920  37.305  44.923   1.433
15606W        W87921  22.811  28.348  10.724
15607W        W87922  24.598  22.536  11.003
15608W        W87923  35.979  13.619  12.175
15609W        W87924   1.733  21.657   0.516
15610W        W87925   7.728  22.857   0.855
15611W        W87926  16.620  40.282  12.543
15612W        W87927  43.013  14.720  11.201
15613W        W87928   0.742  24.184   1.482
15614W        W87929  39.277   7.362  11.142
15615W        W87930  36.882  25.456   0.970
15616W        W87931  16.726   7.113  14.196
15617W        W87932  18.331  19.825   4.182
15618W        W87933  34.049  10.228   4.510
15619W        W87934   9.352  41.263  12.639
15620W        W87935  15.642  30.935   3.655
15621W        W87936  34.917  11.249  10.831
15622W        W87937  10.599  32.085  10.765
15623W        W87938  23.949  30.440   4.124
15624W        W87939   4.287  26.082   0.039
15625W        W87940  31.556  36.057  10.692
15626W        W87941  44.893   9.918   3.742
15627W        W87942   5.688  21.966   4.108
15628W        W87943   5.154  13.363   1.325
15629W        W87944  38.522  40.767   0.939
15630W        W87945  29.433   0.855   3.602
15631W        W87946  17.269  31.479   3.545
15632W        W87947   0.102  11.340  14.100
15633W        W87948  22.963  11.667   4.664
15634W        W87949  13.611   6.751  10.762
15635W        W87950  16.063  24.682   2.901
15636W        W87951  22.598  26.042  10.657
15637W        W87952   3.416  10.394  12.319
15638W        W87953  42.348  11.369   1.942
15639W        W87954  33.630  35.116  13.398
15640W        W87955  27.138  18.654   3.208
15641W        W87956  24.461  35.488  10.674
15642W        W87957  28.284   9.389   0.056
15643W        W87958  34.429  42.423   1.731
15644W        W87959  42.467  20.675   3.847
15645W        W87960  15.172  25.436  10.860
15646W        W87961  34.673  24.446  11.143
15647W        W87962  34.451  14.445   4.115
15648W        W87963  11.524  35.350  12.637
15649W        W87964  10.189  40.339  10.455
15650W        W87965  34.727  44.911  14.841
15651W        W87966   1.930  23.079  12.940
15652W        W87967  15.583  28.080   2.863
15653W        W87968   1.754  37.047   2.378
15654W        W87969  21.835   6.948  11.952
15655W        W87970  19.175  29.750   0.526
15656W        W87971  29.115   1.452  14.529
15657W        W87972  29.269  23.499   3.628
15658W        W87973   7.461  10.759  11.592
15659W        W87974  16.744  14.262   2.260
15660W        W87975   1.229  10.724  13.456
15661W        W87976  13.626  33.601  10.646
15662W        W87977  44.461  12.763  10.198
15663W        W87978  10.798   8.451  12.007
15664W        W87979  42.655   8.872  14.232
15665W        W87980  31.875  20.517  14.615
15666W        W87981  30.879   3.206   3.837
15667W        W87982  20.210  31.828   4.562
15668W        W87983   5.749  43.228  13.829
15669W        W87984   1.015  34.920   4.627
15670W        W87985   1.557  25.222  13.045
15671W        W87986   0.481  34.126  12.915
15672W        W87987  23.358  20.270  12.009
15673W        W87988   9.772  39.255   3.927
15674W        W87989   9.173   3.389   2.844
15675W        W87990  15.747  19.320  13.525
15676W        W87991  20.102  36.302  12.405
15677W        W87992  25.065  20.689   0.769
15678W        W87993  44.959  25.264  13.255
15679W        W87994  14.154   4.358  14.877
15680W        W87995  36.417  13.088   5.093
15681W        W87996  37.497  34.576  13.876
15682W        W87997  33.508  26.800   0.300
15683W        W87998  35.034   5.370   2.552
15684W        W87999  23.438  22.351   2.628
15685W        W88000  34.829  41.132  11.516
15686W        W88001  17.621  21.716   3.982
15687W        W88002  41.894  12.637  12.494
15688W        W88003  24.079  43.437   0.854
15689W        W88004  13.520  21.122  12.452
15690W        W88005  14.513  22.540  13.131
15691W        W88006  43.833  41.248  13.430
15692W        W88007   3.043  24.104  13.274
15693W        W88008   2.775   3.441   1.697
15694W        W88009  23.993  27.430  10.734
15695W        W88010  16.745  31.257   5.753
15696W        W88011   5.836   4.499  10.651
15697W        W88012   2.670   6.283   1.395
15698W        W88013  18.676  17.271   2.294
15699W        W88014  20.771  35.066  12.179
15700W        W88015  29.730  29.009   2.161
15701W        W88016  37.335  20.722   0.251
15702W        W88017  22.310  21.559  10.595
15703W        W88018  18.020  42.728   3.691
15704W        W88019  34.784  30.808   2.803
15705W        W88020  42.397   6.674   0.205
15706W        W88021  38.053  30.686  13.264
15707W        W88022   5.793  11.651   1.994
15708W        W88023  28.990  15.730  11.635
15709W        W88024  27.879   8.693   3.664
15710W        W88025   5.554  13.216   3.843
15711W        W88026  15.568  13.680   1.686
15712W        W88027  19.020  34.386   3.643
15713W        W88028  35.993  26.248   1.006
15714W        W88029  16.298   1.478   3.581
15715W        W88030  21.008   8.462   2.694
15716W        W88031  38.628  41.196   1.748
15717W        W88032  26.707  21.017   4.069
15718W        W88033  26.319  24.634   0.917
15719W        W88034  25.710  28.198   4.677
15720W        W88035   4.917  35.017   3.803
15721W        W88036  26.852  44.852   3.239
15722W        W88037  20.218  13.255  11.638
15723W        W88038  38.098  33.000  13.859
15724W        W88039  14.464  37.598   3.419
15725W        W88040  33.986  24.501  10.474
15726W        W88041  21.297  28.556   1.776
15727W        W88042   0.144   0.320   4.465
15728W        W88043  38.801  39.306  10.641
15729W        W88044  14.365   4.321  13.959
15730W        W88045  43.534  39.332   1.838
15731W        W88046   2.668   9.784   4.870
15732W        W88047   3.395  33.680   4.540
15733W        W88048   7.286   7.773  11.882
15734W        W88049  12.588  18.378   4.459
15735W        W88050   5.207  24.259  12.918
15736W        W88051  18.077  11.694   3.026
15737W        W88052  23.244  35.919   1.785
15738W        W88053  35.357  36.572  13.434
15739W        W88054  42.512  24.620   4.677
15740W        W88055   3.955   3.774   1.270
15741W        W88056  42.011  41.516   2.289
15742W        W88057  26.746  20.774  14.876
15743W        W88058   1.362  20.103  10.697
15744W        W88059  10.046  44.761   2.837
15745W        W88060   8.947   4.400  10.492
15746W        W88061  31.172  43.028  13.039
15747W        W88062  30.386   6.374  14.761
15748W        W88063  30.127   6.385   1.482
15749W        W88064  29.070  31.660  10.286
15750W        W88065  43.827  19.065   2.265
15751W        W88066   7.286   9.978   3.711
15752W        W88067  21.515  43.016   2.170
15753W        W88068  32.925  12.414   2.535
15754W        W88069  26.546  15.303  11.560
15755W        W88070  38.220  18.693   1.864
15756W        W88071   1.276  15.533   1.225
15757W        W88072  17.732  14.754   4.080
15758W        W88073  29.229  35.956  12.130
15759W        W88074  20.549   8.692   2.759
15760W        W88075  33.972   0.294  10.738
15761W        W88076  42.471  22.011   1.385
15762W        W88077  20.582  38.126  14.894
15763W        W88078  41.215   4.799   4.768
15764W        W88079  16.363  39.843  12.019
15765W        W88080  39.537  14.265  14.476
15766W        W88081  39.136   2.540   4.206
15767W        W88082  31.535  23.427   3.199
15768W        W88083  42.442  25.581  13.364
15769W        W88084  22.091  26.234   4.319
15770W        W88085  28.721  28.661  10.787
15771W        W88086   3.740  16.780  14.323
15772W        W88087  12.256  34.347   4.330
15773W        W88088  10.472  11.785  12.057
15774W        W88089  17.495  44.749  10.236
15775W        W88090   6.442  19.718   0.965
15776W        W88091  37.366  31.453  11.913
15777W        W88092   9.710   7.188   0.371
15778W        W88093  41.314   5.730   4.366
15779W        W88094  31.521  24.774   3.735
15780W        W88095  29.054  24.093  11.061
15781W        W88096   0.970   9.425   3.721
15782W        W88097   0.932  39.818   0.786
15783W        W88098  40.977  36.339   4.340
15784W        W88099  29.714  16.225  13.957
15785W        W88100  17.790   4.803   1.823
15786W        W88101  44.430  22.535  12.081
15787W        W88102  37.847   7.427  12.008
15788W        W88103  28.414   3.201  13.555
15789W        W88104  22.953   7.456  11.549
15790W        W88105  40.028  22.828  12.434
15791W        W88106  31.089  37.718  12.946
15792W        W88107   4.740  28.959  12.534
15793W        W88108  32.429  23.735  12.538
15794W        W88109  18.785  27.997   1.845
15795W        W88110   6.835  37.938   1.395
15796W        W88111  38.415  16.712   1.212
15797W        W88112  26.881  25.944   2.876
15798W        W88113  35.450  13.304  13.951
15799W        W88114   1.721  24.009   2.185
15800W        W88115  18.516  25.092   4.773
15801W        W88116  18.723  37.664  10.232
15802W        W88117  21.590  13.305   4.808
15803W        W88118  12.378   9.497   2.268
15804W        W88119  40.533  34.937   0.356
15805W        W88120   3.907  23.207  13.364
15806W        W88121  18.746   1.358  10.634
15807W        W88122  15.774  16.829   1.221
15808W        W88123  10.739  14.490   4.404
15809W        W88124  25.087  11.860  13.447
15810W        W88125   8.147  22.702   2.483
15811W        W88126  10.137  18.302  10.645
15812W        W88127   0.685  29.593  12.415
15813W        W88128  20.673  22.109  12.356
15814W        W88129  41.503   5.554  11.484
15815W        W88130  33.613  30.972   0.920
15816W        W88131   5.149  29.618   1.333
15817W        W88132   6.304  21.463  14.221
15818W        W88133  31.848   0.000   2.191
15819W        W88134  14.238   9.287   3.688
15820W        W88135  16.323  38.890  11.064
15821W        W88136  42.460  23.510  12.291
15822W        W88137   8.119  11.021  13.989
15823W        W88138   5.448  12.846   2.418
15824W        W88139   4.006  42.366  11.519
15825W        W88140  40.042   2.195  10.717
15826W        W88141   4.314  13.245   4.443
15827W        W88142  22.693  16.133  11.238
15828W        W88143  37.373  13.675   3.266
15829W        W88144  43.526   6.058  12.436
15830W        W88145  15.193  25.561  12.033
15831W        W88146   4.108  33.162  12.792
15832W        W88147   3.918  14.592   1.834
15833W        W88148   1.679  40.055  10.751
15834W        W88149  12.108  16.514   5.055
15835W        W88150  24.587   6.859  11.063
15836W        W88151  12.175  34.909  14.128
15837W        W88152  32.307  12.594  12.359
15838W        W88153   6.950  32.322   0.784
15839W        W88154  27.220  18.569  12.490
15840W        W88155  39.831  25.015  13.209
15841W        W88156  20.622  39.770   1.447
15842W        W88157  27.503  25.461  10.702
15843W        W88158  19.100  25.188   4.735
15844W        W88159   7.167   6.902   2.577
15845W        W88160  18.081  29.025   2.231
15846W        W88161  44.573  30.117  11.243
15847W        W88162  28.712  41.997   0.420
15848W        W88163  29.486  26.133  10.981
15849W        W88164  17.707  36.420  11.583
15850W        W88165  38.032   2.429  12.544
15851W        W88166  43.072  21.976  14.875
15852W        W88167  33.121  25.048   3.302
15853W        W88168  16.192  10.340  10.384
15854W        W88169  38.346   6.008  14.568
15855W        W88170   8.414  25.078   1.215
15856W        W88171  16.178  29.419   1.102
15857W        W88172  20.116  41.452   2.347
15858W        W88173   1.780  20.120   4.658
15859W        W88174   2.884   5.337  11.984
15860W        W88175  18.236  20.973  13.911
15861W        W88176  41.015   0.728  10.635
15862W        W88177  23.236   1.698  14.451
15863W        W88178  39.096   4.484   3.714
15864W        W88179  37.760  35.770   0.435
15865W        W88180   9.959  42.988  13.321
15866W        W88181   2.436   3.272   4.272
15867W        W88182  23.065   8.172  13.421
15868W        W88183  29.462  32.030   0.813
15869W        W88184  19.576  12.784  12.872
15870W        W88185  30.137  39.865  10.780
15871W        W88186  43.286  15.783   9.810
15872W        W88187  10.005  42.638  10.719
15873W        W88188  44.407   0.987   1.198
15874W        W88189   9.238  19.246  13.496
15875W        W88190   1.357   6.994  11.944
15876W        W88191  38.320   6.369   3.413
15877W        W88192  22.622   6.838   9.934
15878W        W88193   2.717   5.784   0.568
15879W        W88194  11.477   5.479   0.529
15880W        W88195  35.407  31.001  12.799
15881W        W88196   9.167  37.031   4.349
15882W        W88197  35.652  29.667  11.997
15883W        W88198  23.209  32.477  14.809
15884W        W88199  30.416  38.389   3.708
15885W        W88200   7.919  32.201  14.339
15886W        W88201  31.895  18.288  13.397
15887W        W88202  34.585  24.115   0.966
15888W        W88203  37.961   9.583  14.911
15889W        W88204  21.039   9.421   2.730
15890W        W88205   8.095  38.529  11.362
15891W        W88206  26.893  23.151   3.474
15892W        W88207  11.305   6.933   3.344
15893W        W88208  42.907   6.902  11.883
15894W        W88209   0.428  20.564  13.400
15895W        W88210  21.348   0.424  11.869
15896W        W88211  23.070  41.351   4.545
15897W        W88212  42.869   0.483  11.238
15898W        W88213  35.888  38.326   3.291
15899W        W88214  26.479   4.883   1.178
15900W        W88215  25.540  10.597   3.979
15901W        W88216  15.071   7.337   0.861
15902W        W88217  12.793  22.678   2.718
15903W        W88218  33.124  29.384   1.500
15904W        W88219   8.106   9.671  13.584
15905W        W88220   8.703  29.460   4.423
15906W        W88221  33.142  22.138  13.359
15907W        W88222  24.933  17.616  13.582
15908W        W88223  32.563   5.932   3.763
15909W        W88224  44.371  12.955   1.757
15910W        W88225   9.807  26.778  14.483
15911W        W88226   0.774  19.654   1.266
15912W        W88227  33.217  40.394  11.082
15913W        W88228  16.137  42.533   3.227
15914W        W88229  44.482  11.847  10.299
15915W        W88230   3.823  30.977   3.314
15916W        W88231  38.017  25.703  14.038
15917W        W88232  38.130  44.407  12.533
15918W        W88233  20.607   9.701   2.775
15919W        W88234  17.735  10.126  14.760
15920W        W88235  25.000  29.420  13.876
15921W        W88236   9.860  10.120   1.661
15922W        W88237  34.703  12.612   3.338
15923W        W88238  21.739  41.049   3.301
15924W        W88239  25.481  10.787  11.909
15925W        W88240  28.064   3.238   3.622
15926W        W88241   9.432   5.465   4.055
15927W        W88242  21.252  25.038   2.488
15928W        W88243  34.498   1.694  11.170
15929W        W88244  12.378  44.509  14.993
15930W        W88245  43.785  41.227  11.947
15931W        W88246  35.003   1.397  10.986
15932W        W88247  33.474  21.504  14.298
15933W        W88248  11.848  22.461   5.035
15934W        W88249  17.995   2.448  10.488
15935W        W88250  44.960  27.053   1.780
15936W        W88251  15.316  43.922   0.787
15937W        W88252  17.791   3.886   1.258
15938W        W88253  24.706  42.827  13.732
15939W        W88254  31.181  38.853  10.510
15940W        W88255  35.499  12.883  12.097
15941W        W88256  25.469  19.251   3.673
15942W        W88257  24.164  37.568  14.257
15943W        W88258   4.864  33.035  11.362
15944W        W88259  29.568   5.943   3.576
15945W        W88260  36.972  17.797  14.798
15946W        W88261  43.448  22.136   1.786
15947W        W88262  43.348  19.917  12.039
15948W        W88263  15.838  26.021   4.904
15949W        W88264  39.533   8.181  13.525
15950W        W88265  41.115  35.082  12.555
15951W        W88266  34.571  14.353  12.975
15952W        W88267  12.857   2.772   2.199
15953W        W88268  25.388  34.772   2.190
15954W        W88269   0.679  24.456  14.379
15955W        W88270  30.521   0.981   4.062
15956W        W88271  21.561   1.438   1.931
15957W        W88272  41.232   3.209  12.650
15958W        W88273   0.438  15.177   0.347
15959W        W88274  42.093  12.324   4.213
15960W        W88275  14.564  19.535  11.162
15961W        W88276  41.502  37.621  10.552
15962W        W88277   4.815  24.337  14.935
15963W        W88278   1.273   3.010   2.733
15964W        W88279   0.975  14.241   0.333
15965W        W88280  18.050   7.605  13.849
15966W        W88281  14.485  26.508  13.279
15967W        W88282  12.522  12.422  11.814
15968W        W88283  35.194  30.928   1.593
15969W        W88284  36.407   8.349   1.254
15970W        W88285  14.611   3.521   3.807
15971W        W88286  25.642  14.465   1.891
15972W        W88287  16.560  15.920   3.016
15973W        W88288   1.259  44.242   4.178
15974W        W88289  33.096   7.317  11.580
15975W        W88290  35.479  20.089  12.054
15976W        W88291  43.769  10.980  11.565
15977W        W88292  33.919  41.555   0.902
15978W        W88293  17.555  24.524  10.977
15979W        W88294  40.175  28.665  13.606
15980W        W88295  30.007  11.904   2.628
15981W        W88296  40.585  36.526  12.177
15982W        W88297  12.640   3.589   0.297
15983W        W88298  29.676  37.782  14.347
15984W        W88299  25.218  22.214   0.692
15985W        W88300  31.383  17.070   4.700
15986W        W88301  37.230  43.506  13.372
15987W        W88302  24.692  17.626   1.118
15988W        W88303  31.207  14.566  14.662
15989W        W88304  32.175   3.268   4.169
15990W        W88305  26.713  38.631   3.325
15991W        W88306  27.484  30.599   2.806
15992W        W88307  17.836   3.384   2.575
15993W        W88308  44.787  10.434  12.273
15994W        W88309  14.392  24.659  11.469
15995W        W88310  22.129  35.196  10.953
15996W        W88311  33.329  12.818  11.668
15997W        W88312  25.141   6.373   0.260
15998W        W88313  20.281  10.961   5.513
15999W        W88314   7.262   7.364  10.705
16000W        W88315  34.457  25.999  13.700
16001W        W88316  39.107  14.683  14.018
16002W        W88317   7.633  32.011  14.755
16003W        W88318  34.908  19.261   4.843
16004W        W88319  19.237   4.317  10.767
16005W        W88320   6.216   6.817   4.711
16006W        W88321  25.913  25.247  13.308
16007W        W88322   1.775  12.274   0.336
16008W        W88323  33.452   1.583   2.338
16009W        W88324  16.845  22.762   1.730
16010W        W88325  33.160  43.757   0.385
16011W        W88326  10.398  15.991  10.205
16012W        W88327  26.167   0.545  10.678
16013W        W88328  39.665   2.141  13.463
16014W        W88329  37.020  16.743  13.763
16015W        W88330  15.669  42.530   2.232
16016W        W88331   6.225   1.921  13.004
16017W        W88332   0.860  14.777  12.305
16018W        W88333  12.362  30.839  12.017
16019W        W88334  18.481   2.974   2.909
16020W        W88335  33.956  34.001   2.797
16021W        W88336   1.006   8.268  11.479
16022W        W88337  33.457  34.683   4.069
16023W        W88338   6.844   0.575   2.687
16024W        W88339   6.553  13.070   0.699
16025W        W88340  26.929  23.582  11.149
16026W        W88341  43.283  39.604   2.199
16027W        W88342   0.674  30.097   3.390
16028W        W88343   2.812  23.235  11.198
16029W        W88344   8.820   7.191  10.299
16030W        W88345  32.999  30.689   1.794
16031W        W88346  23.048  27.909  13.051
16032W        W88347  25.769  23.384  10.119
16033W        W88348  14.345  29.257  12.581
16034W        W88349   7.414  12.619   1.871
16035W        W88350   3.096  21.278   3.391
16036W        W88351   3.873  32.447  10.319
16037W        W88352   2.007   2.279   0.127
16038W        W88353  34.113  22.205   0.761
16039W        W88354   1.494  10.179   0.159
16040W        W88355  32.511  22.490  14.540
16041W        W88356  28.997  29.010  11.727
16042W        W88357   6.767   5.006   3.657
16043W        W88358  14.671   6.251  13.878
16044W        W88359  39.873  44.330   3.119
16045W        W88360  44.267  18.765  14.026
16046W        W88361  32.625  20.728   1.691
16047W        W88362  31.851  44.560  10.834
16048W        W88363  43.505   7.912  14.925
16049W        W88364   5.848  12.685   0.357
16050W        W88365   9.303  38.404   3.248
16051W        W88366  38.275  25.485  12.877
16052W        W88367   6.159  27.897  12.841
16053W        W88368  28.006  37.287   3.158
16054W        W88369  26.265  40.648  11.106
16055W        W88370  29.726   7.007   2.543
16056W        W88371  25.104  31.862   2.048
16057W        W88372  19.760  34.086  10.796
16058W        W88373  43.321  13.546   2.748
16059W        W88374  28.984  36.932  13.950
16060W        W88375   8.385  12.218   1.707
16061W        W88376  28.167   9.629   0.971
16062W        W88377  21.984  23.218  12.510
16063W        W88378  39.225  30.217   3.613
16064W        W88379  24.396  42.012   4.582
16065W        W88380  43.353  25.012   4.519
16066W        W88381  39.071  14.287  12.101
16067W        W88382  35.332   6.087  12.441
16068W        W88383   6.107  13.025  13.584
16069W        W88384  26.226  26.090   2.097
16070W        W88385  10.069  39.686   3.815
16071W        W88386  13.617  22.998  10.748
16072W        W88387  36.449  34.595  14.987
16073W        W88388  30.622   3.208  13.202
16074W        W88389  14.322  38.477  10.591
16075W        W88390  22.575  10.405   0.366
16076W        W88391   1.319  37.525  10.628
16077W        W88392   9.624  12.592   2.291
16078W        W88393  24.275   9.259   4.599
16079W        W88394  25.223   9.268  14.751
16080W        W88395  44.410  30.265  14.774
16081W        W88396  27.098  33.981   4.110
16082W        W88397  10.293  25.987  10.706
16083W        W88398  33.392  22.540  11.230
16084W        W88399  30.877  18.048   0.633
16085W        W88400  44.748  29.125   1.718
16086W        W88401   0.503  43.826  11.301
16087W        W88402   5.776  17.068  13.879
16088W        W88403  12.164   6.138   1.422
16089W        W88404  23.145  22.739   0.757
16090W        W88405  23.018   3.820   1.391
16091W        W88406   8.252  39.932  11.531
16092W        W88407  11.760  33.714  13.263
16093W        W88408  38.341   2.714  12.939
16094W        W88409  20.578  37.452   0.922
16095W        W88410  40.297  11.981   3.218
16096W        W88411  31.856  10.664  12.747
16097W        W88412  12.139  39.070  14.505
16098W        W88413  40.835  44.362  10.886
16099W        W88414  31.502  28.119   4.517
16100W        W88415  27.167   8.325   4.116
16101W        W88416  37.562  43.589  10.648
16102W        W88417   2.538  30.171   3.759
16103W        W88418   9.207  12.912  12.190
16104W        W88419  38.924  26.049  13.142
16105W        W88420  39.753  19.191  13.145
16106W        W88421  24.048  32.081   3.654
16107W        W88422   2.306  34.553  10.577
16108W        W88423   0.566  32.125  13.851
16109W        W88424  44.466  23.313   4.483
16110W        W88425  40.537  42.531  12.880
16111W        W88426  26.767  40.699   4.901
16112W        W88427  13.268  41.721   0.386
16113W        W88428  25.109  30.884  12.412
16114W        W88429  41.815   9.315  13.946
16115W        W88430   1.913   2.020   1.492
16116W        W88431  37.022  16.806  14.279
16117W        W88432  17.841  40.506  14.438
16118W        W88433  30.705  30.607  10.906
16119W        W88434  15.119  38.851   4.144
16120W        W88435   0.796  25.038   0.909
16121W        W88436   5.277  32.373  10.370
16122W        W88437  25.920  17.783  13.614
16123W        W88438  28.569   0.849  13.601
16124W        W88439  39.989  27.952  14.398
16125W        W88440   4.902   7.800  14.566
16126W        W88441   9.048  23.453  14.588
16127W        W88442  42.089  15.258  12.525
16128W        W88443  32.231  13.408   4.080
16129W        W88444  10.747  29.317  14.806
16130W        W88445  15.833  19.727  13.830
16131W        W88446   5.749  26.753   4.663
16132W        W88447  35.423  35.338  11.574
16133W        W88448  32.907  22.999  14.801
16134W        W88449  37.929  18.632  11.902
16135W        W88450  40.824  39.084   9.903
16136W        W88451   2.455  28.497  14.501
16137W        W88452  42.388  40.927   3.940
16138W        W88453  23.969   8.713   2.843
16139W        W88454  13.770  16.738  12.968
16140W        W88455  32.361  34.111  12.902
16141W        W88456   8.431  15.411   4.988
16142W        W88457  31.030  20.570  12.920
16143W        W88458  24.107  28.942   0.873
16144W        W88459  19.464  32.127   2.647
16145W        W88460  31.724  40.980   2.785
16146W        W88461   1.557  33.033   2.918
16147W        W88462  16.998   7.788  13.005
16148W        W88463  38.854  24.628   4.298
16149W        W88464  18.794  15.356   1.738
16150W        W88465   9.428  25.186  14.865
16151W        W88466   1.879  17.321  12.540
16152W        W88467  18.145  10.214   0.413
16153W        W88468  15.621  31.883  10.383
16154W        W88469  18.435  30.401  10.256
16155W        W88470  23.092   8.337  11.416
16156W        W88471  23.460  36.898   1.181
16157W        W88472  21.195   8.259   0.427
16158W        W88473  37.869  13.415   3.239
16159W        W88474  43.612  19.126   0.912
16160W        W88475  31.504  18.122  14.726
16161W        W88476  35.033  13.145  11.027
16162W        W88477  36.671  19.111  14.935
16163W        W88478  26.237  31.885  14.890
16164W        W88479  40.960  28.854  13.297
16165W        W88480   7.691  13.049  12.320
16166W        W88481  34.329  41.638  12.930
16167W        W88482  14.465  25.155  11.624
16168W        W88483   0.208  18.110  10.841
16169W        W88484  38.571  28.702  10.903
16170W        W88485   1.800  35.048  11.186
16171W        W88486  15.137   4.985  12.939
16172W        W88487  40.929  15.277  13.390
16173W        W88488  44.512  19.041  11.861
16174W        W88489   4.995  20.149  10.627
16175W        W88490  23.554  15.063   0.704
16176W        W88491   7.362  14.533   3.675
16177W        W88492  42.471   0.305  14.412
16178W        W88493  10.381  32.561   1.375
16179W        W88494  18.866  41.548  10.285
16180W        W88495  27.464   5.310   3.775
16181W        W88496  10.763  42.875   5.038
16182W        W88497  32.534  26.689   4.829
16183W        W88498   6.435  17.730  11.464
16184W        W88499  14.593  16.331   4.020
16185W        W88500  28.981  24.968  11.283
16186W        W88501   3.348  37.833   0.388
16187W        W88502  15.422  20.828  10.465
16188W        W88503   5.235  11.439  13.380
16189W        W88504   7.928  18.585  13.537
16190W        W88505   8.773   0.232   4.197
16191W        W88506  31.084  19.148  14.010
16192W        W88507  12.814  20.080   0.881
16193W        W88508  30.339  24.717   3.681
16194W        W88509  13.843  38.536  10.376
16195W        W88510   7.242   9.704  13.426
16196W        W88511  38.980  23.307  13.496
16197W        W88512   0.848  23.454   4.644
16198W        W88513  19.582  44.232   4.211
16199W        W88514  30.057   5.253   0.799
16200W        W88515  30.001  12.591  14.496
16201W        W88516   1.192  30.787   3.848
16202W        W88517  40.874  42.515  14.280
16203W        W88518   7.686   7.449  12.030
16204W        W88519  11.386   5.186   1.400
16205W        W88520  40.418   7.809   2.158
16206W        W88521  36.342  18.608  11.503
16207W        W88522  42.989  39.532   4.412
16208W        W88523   0.584  42.959  14.817
16209W        W88524  31.491  44.226  10.705
16210W        W88525  11.860  26.992  11.142
16211W        W88526   0.835  31.999   0.255
16212W        W88527  13.284  39.079   5.035
16213W        W88528  26.730  18.460  12.634
16214W        W88529  25.803  43.745  14.926
16215W        W88530  15.335  21.901   2.350
16216W        W88531  41.017  33.700   3.828
16217W        W88532  22.085  27.091  14.812
16218W        W88533  33.467  34.897   1.195
16219W        W88534  40.683  15.320  11.233
16220W        W88535  17.686  32.886   0.241
16221W        W88536  30.179  11.224   4.460
16222W        W88537  31.476  17.682   0.682
16223W        W88538  13.315  24.545   1.967
16224W        W88539  38.317   2.649   1.212
16225W        W88540  28.890  44.881  13.065
16226W        W88541  14.348  29.181  11.201
16227W        W88542  17.062   8.300  11.498
16228W        W88543   6.715   9.645   2.768
16229W        W88544  39.102   3.272  13.764
16230W        W88545  17.179  22.759   2.174
16231W        W88546  40.318  26.453  14.290
16232W        W88547  15.136  30.786   3.858
16233W        W88548  12.916  35.076   3.380
16234W        W88549  24.237  44.340   0.449
16235W        W88550  41.826  37.275  14.317
16236W        W88551  44.658  26.384  14.883
16237W        W88552   1.345   8.552  10.609
16238W        W88553  11.902  36.034   4.605
16239W        W88554  41.588  31.977   1.819
16240W        W88555  37.422  41.976   1.993
16241W        W88556  13.755  15.152  10.923
16242W        W88557   4.738  39.617  13.098
16243W        W88558  24.758  34.655   4.996
16244W        W88559  41.175  37.909  12.277
16245W        W88560  17.118  36.640   2.921
16246W        W88561  43.814  19.115  10.778
16247W        W88562   9.665  17.637  14.466
16248W        W88563  30.871  12.171  11.315
16249W        W88564  30.854  44.835  12.335
16250W        W88565  24.193   7.570   0.473
16251W        W88566  18.019  42.391   0.662
16252W        W88567  16.269  18.539   1.015
16253W        W88568  16.040  12.921   3.712
16254W        W88569   0.035  38.440   4.086
16255W        W88570  25.136  14.213  14.888
16256W        W88571  35.060  24.924   2.171
16257W        W88572  36.521   3.170  10.270
16258W        W88573  37.848  18.217   0.986
16259W        W88574  28.435  18.062   4.911
16260W        W88575  32.248  37.971  10.861
16261W        W88576  35.571  34.868  13.545
16262W        W88577  22.522  29.675  11.232
16263W        W88578  21.934  35.900  12.421
16264W        W88579  13.250  26.503   2.880
16265W        W88580  34.325  16.895  13.506
16266W        W88581  13.079  44.459   0.341
16267W        W88582  39.395  42.979  13.328
16268W        W88583  34.945   1.551   1.705
16269W        W88584  15.840   4.444  14.793
16270W        W88585   3.865   4.382  10.779
16271W        W88586  38.419  10.849   4.678
16272W        W88587  14.863  43.955   2.074
16273W        W88588  31.004  43.054  14.395
16274W        W88589  36.085  16.991   0.950
16275W        W88590  26.550   0.784  14.514
16276W        W88591  11.876  40.865  13.472
16277W        W88592  26.065  42.816   5.021
16278W        W88593  26.608   4.534  14.475
16279W        W88594   3.908  11.809  14.438
16280W        W88595  13.358   4.436   2.650
16281W        W88596   6.453  11.881  12.372
16282W        W88597   1.382  25.974  11.959
16283W        W88598  30.112   5.240   1.760
16284W        W88599  31.683  23.573  14.246
16285W        W88600   9.736  33.371  12.526
16286W        W88601  20.504  34.194  14.499
16287W        W88602   9.906  40.017  13.566
16288W        W88603  33.349   3.773  10.681
16289W        W88604  28.913  26.089   1.517
16290W        W88605   4.985  16.680   0.941
16291W        W88606   3.226  15.113   4.458
16292W        W88607   6.207   4.939   2.878
16293W        W88608  43.749  35.579   2.165
16294W        W88609  29.403  41.501  11.572
16295W        W88610  13.424  25.946   4.239
16296W        W88611   2.297   1.856  14.980
16297W        W88612  36.933  31.035   3.197
16298W        W88613  21.614  44.224   3.816
16299W        W88614   2.358   5.083   1.284
16300W        W88615  35.844  37.722   1.782
16301W        W88616   4.715   4.524   4.487
16302W        W88617   6.640  44.421  14.319
16303W        W88618  43.183  12.258  11.603
16304W        W88619  19.752  33.020   1.154
16305W        W88620  19.333  22.666  11.626
16306W        W88621  30.876  38.652   4.184
16307W        W88622   3.282  36.895   1.570
16308W        W88623  10.048  42.586  11.579
16309W        W88624  38.561  30.494   1.824
16310W        W88625  44.854  16.129   4.382
16311W        W88626   5.915  39.459  11.529
16312W        W88627  37.325  33.431   1.874
16313W        W88628   9.774   4.188  10.724
16314W        W88629  11.861   2.340  11.709
16315W        W88630  31.330  14.539   3.859
16316W        W88631   9.704  35.256   0.457
16317W        W88632  11.603  42.936  10.263
16318W        W88633  23.622  26.979   4.836
16319W        W88634  25.439  33.885   0.490
16320W        W88635  14.194   1.954  12.259
16321W        W88636  17.804  22.647  11.006
16322W        W88637   3.905  24.131   1.941
16323W        W88638  10.721  32.571   2.353
16324W        W88639  32.218  16.685  10.560
16325W        W88640  30.159  25.721   4.534
16326W        W88641  29.517   2.388   3.617
16327W        W88642  26.017   6.931  10.963
16328W        W88643  23.102  18.661  11.458
16329W        W88644  27.455  35.981   2.751
16330W        W88645   6.450  35.509   2.405
16331W        W88646  33.132  33.101   3.292
16332W        W88647  16.302  32.681  14.715
16333W        W88648  14.169  21.227  10.668
16334W        W88649  36.847   7.455  12.052
16335W        W88650  43.566  17.215  12.960
16336W        W88651  40.862  10.848  11.451
16337W        W88652  34.573  27.672  11.462
16338W        W88653   6.786  38.589  11.156
16339W        W88654   7.816  39.487   1.497
16340W        W88655  39.992  28.993   3.759
16341W        W88656  21.888  44.129  14.502
16342W        W88657  17.127  30.229   3.174
16343W        W88658  40.227  34.768  12.569
16344W        W88659  23.072  25.283  14.752
16345W        W88660  12.262  17.607  14.446
16346W        W88661  17.363  27.207  13.366
16347W        W88662  37.775  14.579  14.377
16348W        W88663  36.235  12.363   1.163
16349W        W88664  24.989  32.366   2.229
16350W        W88665  44.339  21.505   0.797
16351W        W88666  38.938  10.491  13.585
16352W        W88667  26.002  38.791   2.815
16353W        W88668  27.487  20.201  13.435
16354W        W88669   5.959  20.094  11.603
16355W        W88670  41.947   1.811  10.916
16356W        W88671  26.663  44.231   0.277
16357W        W88672  26.893   0.839  12.679
16358W        W88673  19.027  43.916  13.413
16359W        W88674  17.726  35.100  13.024
16360W        W88675  23.093  19.442  11.078
16361W        W88676  36.848  24.011  12.345
16362W        W88677   7.373  44.509   1.386
16363W        W88678   0.737  33.930  13.529
16364W        W88679   8.363  20.778  14.529
16365W        W88680   0.557  32.754   0.719
16366W        W88681   7.161  21.650   2.683
16367W        W88682  13.799  22.261   3.688
16368W        W88683  33.628  19.193  14.533
16369W        W88684  32.700   5.995   4.599
16370W        W88685  41.190  11.193   1.269
16371W        W88686  24.720  17.364  13.972
16372W        W88687  18.289  24.484   1.493
16373W        W88688  29.728  34.557  12.064
16374W        W88689   4.950  43.931   3.037
16375W        W88690  30.180  44.580  14.384
16376W        W88691  38.653  16.545  11.075
16377W        W88692  18.623  29.085  12.025
16378W        W88693  40.629  26.703   0.746
16379W        W88694  25.965   9.900   3.799
16380W        W88695  28.579   2.042   0.388
16381W        W88696  12.738   9.113  12.012
16382W        W88697  16.810  12.123   3.092
16383W        W88698   7.872   9.203  12.988
16384W        W88699  26.190   6.673   3.764
16385W        W88700  15.422  16.468   4.848
16386W        W88701  12.161  39.493   4.754
16387W        W88702  11.372   1.295  12.134
16388W        W88703  22.227   7.608   3.219
16389W        W88704  12.386  27.926   3.183
16390W        W88705  21.096   0.296   3.749
16391W        W88706  32.144  23.269  11.648
16392W        W88707  23.658  26.775   2.653
16393W        W88708  42.546  10.947  13.041
16394W        W88709   6.916   1.431  13.993
16395W        W88710  12.904   8.144   4.263
16396W        W88711  30.664  29.095   1.024
16397W        W88712  38.571   1.030  14.408
16398W        W88713   0.848  44.913   0.704
16399W        W88714  41.338  14.448   3.723
16400W        W88715  10.585  14.070   3.770
16401W        W88716  22.615  32.949   2.285
16402W        W88717   4.267  37.524   2.907
16403W        W88718   1.916  31.232  13.068
16404W        W88719  44.197  40.412  13.851
16405W        W88720   7.908  15.547   1.865
16406W        W88721   7.278  38.337   0.348
16407W        W88722  29.495  24.038   0.425
16408W        W88723  40.871  42.089   1.154
16409W        W88724  19.957  29.994  13.463
16410W        W88725  43.027  15.378  12.372
16411W        W88726   9.926   5.452  14.876
16412W        W88727  15.280  18.069   3.638
16413W        W88728  16.149   8.162   3.197
16414W        W88729   6.212  43.457   4.502
16415W        W88730  41.312  10.866   3.127
16416W        W88731  22.458  27.859  11.463
16417W        W88732  35.473  19.500  12.582
16418W        W88733  33.375   1.459  13.800
16419W        W88734  40.814  32.488   0.671
16420W        W88735  36.675   3.934   4.523
16421W        W88736  42.524  12.739   2.241
16422W        W88737   9.280   7.900  12.026
16423W        W88738  33.702  19.657   0.270
16424W        W88739  44.466   0.815   1.684
16425W        W88740  26.082  16.107   2.258
16426W        W88741  25.705  22.829  10.991
16427W        W88742  12.715  18.576   5.239
16428W        W88743  25.998  17.927   2.919
16429W        W88744   0.774  15.636   4.510
16430W        W88745  39.136   6.960   5.040
16431W        W88746  27.730  32.365   3.265
16432W        W88747  16.279  32.488   0.215
16433W        W88748  32.911   0.948  12.897
16434W        W88749  36.050   9.814  10.627
16435W        W88750   4.608  17.524   4.738
16436W        W88751  35.013  18.973  14.299
16437W        W88752   7.223  10.396  12.339
16438W        W88753  33.906  26.864  13.521
16439W        W88754   0.832   5.337  13.404
16440W        W88755   1.993  11.747  14.257
16441W        W88756  21.273   3.294   2.780
16442W        W88757  42.517  10.181   2.117
16443W        W88758  44.015   9.838  13.469
16444W        W88759  29.566  28.115   1.375
16445W        W88760  40.816  33.003   4.197
16446W        W88761  36.688  34.029   3.165
16447W        W88762  44.017  16.876  12.080
16448W        W88763   3.792   0.320  10.899
16449W        W88764  44.455   4.268   3.191
16450W        W88765  18.663  30.465   3.634
16451W        W88766  16.374   5.119  12.700
16452W        W88767  14.115   5.044  12.029
16453W        W88768  31.098  11.717  11.280
16454W        W88769   3.039  27.950  11.092
16455W        W88770  19.725  43.825   3.226
16456W        W88771  28.510   7.318   2.665
16457W        W88772   4.221  16.352  12.764
16458W        W88773  20.744  12.199  14.546
16459W        W88774  10.255  28.052   2.780
16460W        W88775  22.683   3.924  12.529
16461W        W88776  18.760  25.038   3.169
16462W        W88777   2.500  40.242  14.048
16463W        W88778   0.593  38.518   1.795
16464W        W88779  32.164  18.988  11.612
16465W        W88780  40.265  14.539  14.856
16466W        W88781  41.372  11.211  12.442
16467W        W88782  28.628  39.335  11.084
16468W        W88783   7.020  33.104   1.284
16469W        W88784   0.267  20.036  11.129
16470W        W88785  23.486  22.202  10.769
16471W        W88786   6.645  21.688   2.891
16472W        W88787  43.475  24.689   3.630
16473W        W88788  18.352  28.671  11.855
16474W        W88789  17.287  36.791  13.500
16475W        W88790  18.906  18.490   3.332
16476W        W88791  16.192  39.814   3.199
16477W        W88792   2.059  42.411   4.596
16478W        W88793  14.251  35.791  11.578
16479W        W88794  21.213   2.025  12.934
16480W        W88795  10.283  14.702  14.819
16481W        W88796  19.705  27.627  14.227
16482W        W88797  21.163   4.719   0.950
16483W        W88798  19.600   1.465  10.479
16484W        W88799  23.513  29.104   2.324
16485W        W88800  42.864  35.710   3.310
16486W        W88801  19.162  27.153  12.960
16487W        W88802  40.360   3.252  14.717
16488W        W88803  25.141  29.694  11.146
16489W        W88804  19.947  32.719  13.729
16490W        W88805  21.403   0.701  10.627
16491W        W88806  33.077   4.773  12.452
16492W        W88807  15.299  29.599  11.165
16493W        W88808   9.818  23.723  14.803
16494W        W88809  23.104  39.583  14.516
16495W        W88810   7.157  31.124  12.484
16496W        W88811  18.601   5.312   0.700
16497W        W88812  13.470   1.821   4.710
16498W        W88813   7.051  43.366   0.488
16499W        W88814  14.340  16.625   0.902
16500W        W88815  39.130  25.264   5.048
16501W        W88816   4.958  14.832   4.166
16502W        W88817  41.434  26.623   3.439
16503W        W88818  14.264   0.937  13.034
16504W        W88819   6.709  34.344   2.656
16505W        W88820  44.775   0.691  11.031
16506W        W88821  27.402   8.592   1.815
16507W        W88822  24.762  44.011  13.472
16508W        W88823  19.850   0.959  13.398
16509W        W88824  27.576  41.002  10.535
16510W        W88825  23.589   7.603  11.121
16511W        W88826  33.695   7.857  11.103
16512W        W88827  12.403  24.957   4.521
16513W        W88828  22.421   1.377   3.588
16514W        W88829   7.166   7.445  13.028
16515W        W88830  33.844  34.895   0.690
16516W        W88831   9.698  43.083   3.442
16517W        W88832   8.308  41.666   4.208
16518W        W88833  23.281  25.028  13.004
16519W        W88834  20.843  40.897  14.742
16520W        W88835  42.302  12.319  12.014
16521W        W88836   7.312  31.838  13.014
16522W        W88837  12.763  10.826   0.010
16523W        W88838  38.607  10.361   1.962
16524W        W88839  35.095  25.634   0.402
16525W        W88840  43.264   7.785   0.406
16526W        W88841   9.799  11.255   1.843
16527W        W88842  34.022  34.045   2.269
16528W        W88843  33.135  30.512  10.658
16529W        W88844   8.182  23.285   3.768
16530W        W88845   8.965  39.516   2.267
16531W        W88846  31.114  22.810   3.584
16532W        W88847  32.851  27.599  12.932
16533W        W88848  35.318  15.645  10.731
16534W        W88849  11.018  44.341   1.450
16535W        W88850  37.382  27.997   5.016
16536W        W88851  23.751  16.095  12.184
16537W        W88852  34.594  36.569   0.537
16538W        W88853   2.913  42.550  11.190
16539W        W88854   6.720  15.075   4.107
16540W        W88855   7.948  24.578  12.100
16541W        W88856   9.808  28.409  11.963
16542W        W88857  13.629   3.779  13.798
16543W        W88858  19.236  36.382  11.419
16544W        W88859  30.610  43.370  11.457
16545W        W88860  14.207  34.118  12.202
16546W        W88861   9.792  39.356  11.643
16547W        W88862  43.816  13.853   1.832
16548W        W88863  32.075  30.100  11.100
16549W        W88864  27.103  30.604   4.369
16550W        W88865  17.562  28.360   0.056
16551W        W88866  16.523  18.789  12.547
16552W        W88867  30.519  36.387  11.981
16553W        W88868  35.014  24.660   3.310
16554W        W88869   5.265  18.790   3.248
16555W        W88870  12.389  42.215   3.098
16556W        W88871  27.086  18.565  14.749
16557W        W88872   6.425   8.486  14.874
16558W        W88873   6.947  20.170   1.323
16559W        W88874  44.070  31.672  12.101
16560W        W88875  28.201  35.788  11.043
16561W        W88876  40.091  14.104  10.685
16562W        W88877  27.010  30.101   4.563
16563W        W88878  11.899  38.486  11.846
16564W        W88879  24.709   9.470  13.516
16565W        W88880  26.721  24.088   2.647
16566W        W88881  40.279  35.416   4.228
16567W        W88882  14.647   3.440   1.391
16568W        W88883  21.574  23.685   4.134
16569W        W88884   7.519  12.105  13.514
16570W        W88885  21.553   1.046   0.456
16571W        W88886  36.530  41.829   0.010
16572W        W88887   5.738  20.788   0.021
16573W        W88888  28.571  11.237   0.279
16574W        W88889  27.529  36.108   2.251
16575W        W88890  38.958  29.038  14.376
16576W        W88891  28.176   0.936  10.753
16577W        W88892  31.477  18.472   4.233
16578W        W88893  22.827   4.031   3.609
16579W        W88894  35.355   7.010   1.716
16580W        W88895  38.864  43.321  14.390
16581W        W88896  42.378  16.620  13.515
16582W        W88897   6.538  36.093   0.481
16583W        W88898  24.063  14.277  13.509
16584W        W88899   2.835   3.972   3.329
16585W        W88900  31.379   9.925   0.302
16586W        W88901  42.024  38.530   0.439
16587W        W88902  16.539  35.104  10.776
16588W        W88903  39.338  28.257  11.996
16589W        W88904  15.595  10.809   4.547
16590W        W88905  41.528   0.802   3.362
16591W        W88906  33.066  34.460  14.687
16592W        W88907  25.801  24.580   0.819
16593W        W88908  25.638  43.019  10.852
16594W        W88909  11.649  20.607  13.564
16595W        W88910  38.997  25.982  11.477
16596W        W88911  26.428  42.379  12.411
16597W        W88912  29.731  41.826  12.917
16598W        W88913  11.058  16.562  12.987
16599W        W88914   9.458   0.795   2.803
16600W        W88915   7.454   0.681   4.170
16601W        W88916  44.759  15.533   3.747
16602W        W88917   6.438  22.274  12.947
16603W        W88918   6.170  30.720  14.903
16604W        W88919  31.346  31.029  12.936
16605W        W88920  14.705  23.123  14.889
16606W        W88921   2.326  33.603   4.622
16607W        W88922  20.079  32.984  11.635
16608W        W88923  12.132  32.442  12.376
16609W        W88924   0.869  33.882   2.709
16610W        W88925  44.843   1.787   4.150
16611W        W88926  35.920   2.473  10.354
16612W        W88927  36.511  14.760  12.857
16613W        W88928  13.932  39.432   2.190
16614W        W88929  15.143  31.072  11.205
16615W        W88930  42.344  17.493   4.471
16616W        W88931  37.492  18.758  12.166
16617W        W88932  21.574  23.303  14.966
16618W        W88933   1.094  15.101   1.565
16619W        W88934  14.800  30.678  12.041
16620W        W88935  42.118   7.307  12.380
16621W        W88936   0.992  35.917  10.250
16622W        W88937  40.801   0.300  10.858
16623W        W88938  37.147  37.088  11.914
16624W        W88939  33.584  32.151   2.451
16625W        W88940  30.246  36.919   2.412
16626W        W88941  25.891  35.952  11.287
16627W        W88942  21.567  28.960   0.332
16628W        W88943  22.663  44.402   2.479
16629W        W88944   8.880   8.233   2.658
16630W        W88945  31.821  22.973   2.743
16631W        W88946  36.839  24.023  14.471
16632W        W88947  20.119   2.196  12.724
16633W        W88948  39.983   8.799   4.607
16634W        W88949  21.199  18.993   2.025
16635W        W88950  19.218  13.374  13.591
16636W        W88951   6.819  14.088   4.226
16637W        W88952  27.988  21.821   4.308
16638W        W88953  32.289  12.702  11.600
16639W        W88954  15.350  24.131   4.874
16640W        W88955   2.246  15.627   2.168
16641W        W88956  42.280  37.152   2.191
16642W        W88957  16.649   6.403  14.227
16643W        W88958  35.473  30.611   1.882
16644W        W88959  11.243  36.009   1.312
16645W        W88960  28.598  26.426  12.020
16646W        W88961   1.142  15.558  10.374
16647W        W88962  31.640   3.364   2.673
16648W        W88963  20.959  35.431  12.897
16649W        W88964  32.176  31.958  14.354
16650W        W88965  22.314  43.242   0.379
16651W        W88966  13.834  27.542   2.272
16652W        W88967  40.898  16.838   0.475
16653W        W88968   8.872  37.188   2.843
16654W        W88969   5.473  23.119   3.403
16655W        W88970  37.365  12.159  13.099
16656W        W88971  17.115  10.944  13.408
16657W        W88972  33.922  17.113  11.885
16658W        W88973  21.707  38.372   4.834
16659W        W88974   8.554  41.274  11.496
16660W        W88975  17.833  17.538   1.409
16661W        W88976  30.667  31.942   2.246
16662W        W88977  29.354  27.597   2.817
16663W        W88978  34.276  20.558   3.756
16664W        W88979  22.841   1.562   2.201
16665W        W88980  33.540  24.033  10.084
16666W        W88981   5.178  10.714  13.806
16667W        W88982   9.514  20.563   4.544
16668W        W88983  15.532  40.497  14.844
16669W        W88984  24.523  39.952   2.378
16670W        W88985  26.205  10.536   4.539
16671W        W88986  34.229   7.452   2.565
16672W        W88987  32.850   6.689   3.119
16673W        W88988  39.937   8.604   0.171
16674W        W88989  30.329  40.425   5.006
16675W        W88990  27.023   6.732   0.972
16676W        W88991  21.747   0.397  12.852
16677W        W88992  30.561  42.773  14.404
16678W        W88993  20.118  13.790  12.527
16679W        W88994  25.590  30.715  12.634
16680W        W88995  14.805   8.344   2.172
16681W        W88996  20.839  10.136  10.906
16682W        W88997  37.944   5.205  12.046
16683W        W88998  23.972  27.873  13.875
16684W        W88999   9.213  41.338  13.543
16685W        W89000  27.236  14.781   4.023
16686W        W89001  36.039  22.571   3.046
16687W        W89002  12.105   0.465  13.883
16688W        W89003  25.726  44.752  14.734
16689W        W89004   7.201  15.963   1.856
16690W        W89005   7.325   1.753  13.924
16691W        W89006  23.748  12.924  11.123
16692W        W89007  37.609  10.556   4.174
16693W        W89008  38.001  40.952  10.742
16694W        W89009  26.950  20.237   0.482
16695W        W89010  32.357  27.038   2.216
16696W        W89011  18.705  24.721   1.289
16697W        W89012   0.099  43.524   3.573
16698W        W89013  15.051  27.893   4.100
16699W        W89014   0.302  23.689   0.900
16700W        W89015  42.555   4.276  14.094
16701W        W89016   6.732  32.468   3.695
16702W        W89017  37.925   6.032  14.851
16703W        W89018  15.270  34.538   4.564
16704W        W89019  43.292  31.763  12.421
16705W        W89020   3.012  31.982   2.280
16706W        W89021  20.768   1.742  12.965
16707W        W89022  14.325  40.606  11.489
16708W        W89023  37.691  19.526   3.230
16709W        W89024  20.822  32.895  14.910
16710W        W89025  36.578  28.594   3.418
16711W        W89026  21.711  26.731  13.601
16712W        W89027  38.046  39.312  11.115
16713W        W89028  38.832  43.401   4.271
16714W        W89029  23.981   9.382   4.154
16715W        W89030  19.541  13.509   0.249
16716W        W89031  13.121   3.205  14.437
16717W        W89032   4.508  34.071   3.642
16718W        W89033  12.573  43.783  10.596
16719W        W89034   2.853  13.856  13.324
16720W        W89035  27.018  38.814   4.310
16721W        W89036  25.594  14.786  12.105
16722W        W89037  10.141   5.648   2.332
16723W        W89038  33.391  11.290  14.941
16724W        W89039  35.954  21.139   4.368
16725W        W89040  29.456   9.773   2.997
16726W        W89041  17.849   4.928   4.259
16727W        W89042   2.921  41.395   3.181
16728W        W89043   4.631  42.561  14.868
16729W        W89044  13.016  31.906   2.111
16730W        W89045  17.667  21.964  11.588
16731W        W89046  34.922  13.273   0.312
16732W        W89047  10.140  10.056  14.818
16733W        W89048  32.872  22.932  12.290
16734W        W89049   8.230  35.171   4.242
16735W        W89050  12.102   7.756  10.579
16736W        W89051   1.002  36.039  13.792
16737W        W89052  14.940  30.713  14.425
16738W        W89053  36.785  13.706  10.609
16739W        W89054  43.902  16.222  12.817
16740W        W89055   1.025   0.765  14.944
16741W        W89056  38.539  33.584  12.848
16742W        W89057  23.731   6.417   0.516
16743W        W89058   2.894   9.879  13.831
16744W        W89059  44.970   7.870   0.710
16745W        W89060   3.037   9.784   3.027
16746W        W89061  22.107  16.966   3.839
16747W        W89062   1.829   2.959  12.895
16748W        W89063  41.556  12.858   1.716
16749W        W89064  30.084  41.460  12.739
16750W        W89065  10.378  36.441   2.159
16751W        W89066   3.754  34.675   0.839
16752W        W89067  17.112  43.039  12.749
16753W        W89068  12.574  30.374  11.323
16754W        W89069  14.854   0.957  11.489
16755W        W89070  12.205  10.147  13.019
16756W        W89071  42.090   6.363  12.453
16757W        W89072  35.865  41.438   2.211
16758W        W89073   8.927  28.949  13.908
16759W        W89074  42.741   4.952   3.574
16760W        W89075  27.722  37.570  12.069
16761W        W89076  19.368  38.902  11.059
16762W        W89077  44.911  11.304   2.880
16763W        W89078   0.888  37.806   3.755
16764W        W89079  25.714  15.715   0.238
16765W        W89080   7.929   0.008  13.082
16766W        W89081  38.337  33.498   1.838
16767W        W89082  27.078  26.661  14.942
16768W        W89083  43.112   0.452   3.206
16769W        W89084  34.692  44.326   3.173
16770W        W89085  34.597  40.254  13.310
16771W        W89086  31.635  26.739   2.903
16772W        W89087  33.462  17.344   4.400
16773W        W89088  17.813  40.920  13.815
16774W        W89089  40.721  29.010   4.153
16775W        W89090   4.957  19.010  14.428
16776W        W89091  12.091  30.033   4.755
16777W        W89092  26.460  16.674  12.369
16778W        W89093  28.553  38.810   4.923
16779W        W89094   9.965  27.582  13.370
16780W        W89095  17.754  42.353   0.225
16781W        W89096   1.557   1.804  12.400
16782W        W89097  17.310  44.382  12.552
16783W        W89098  43.738  26.079  14.562
16784W        W89099  25.203   8.461   2.358
16785W        W89100   0.489  38.375  14.811
16786W        W89101  43.921   5.659  11.013
16787W        W89102  39.248   4.657  12.672
16788W        W89103  17.600  18.233   3.221
16789W        W89104  22.552  14.068  11.678
16790W        W89105   3.849  39.821  14.033
16791W        W89106  40.928  42.554  12.485
16792W        W89107  37.872  27.622  12.362
16793W        W89108  26.725  26.636   1.211
16794W        W89109  38.723  32.596  12.403
16795W        W89110   1.877  26.247  12.036
16796W        W89111  23.069  36.380   4.895
16797W        W89112  15.424   7.711   0.731
16798W        W89113  28.084   2.405   2.874
16799W        W89114  25.570  36.024  13.771
16800W        W89115  14.575  14.216   1.300
16801W        W89116  42.510   4.820   2.231
16802W        W89117  42.469  20.192   4.072
16803W        W89118   0.967  32.903   0.438
16804W        W89119   6.233  27.641   3.654
16805W        W89120  19.042   6.791   2.214
16806W        W89121  42.390  13.613  10.734
16807W        W89122  31.252  30.156   2.198
16808W        W89123   9.201  12.179   3.156
16809W        W89124  35.048  10.170   3.188
16810W        W89125  40.966  29.132   3.666
16811W        W89126   9.111  25.361   1.982
16812W        W89127   1.066  22.506  11.591
16813W        W89128  31.716  12.614   0.723
16814W        W89129  12.769  42.255   3.447
16815W        W89130   8.367  31.162  14.751
16816W        W89131  20.143  17.791   1.727
16817W        W89132  18.807   5.723   2.734
16818W        W89133  34.181  32.086  12.080
16819W        W89134  22.542  41.524  14.946
16820W        W89135  23.505  15.167   2.846
16821W        W89136  44.065  14.900  13.288
16822W        W89137  19.231  18.649   4.654
16823W        W89138   5.891  41.753   4.404
16824W        W89139   6.293  44.414  10.152
16825W        W89140  33.554  11.757  13.874
16826W        W89141   5.876  42.510  14.347
16827W        W89142  20.738  40.958   1.781
16828W        W89143   9.896  28.031  10.452
16829W        W89144   4.740  20.270  13.817
16830W        W89145   5.439  21.137   3.763
16831W        W89146  27.054   5.906  13.716
16832W        W89147  25.802  44.748  13.466
16833W        W89148  17.172  32.164  13.793
16834W        W89149  34.519  28.995   4.448
16835W        W89150   1.895  13.566  11.762
16836W        W89151  22.624  41.339  14.410
16837W        W89152   7.675  16.738   2.200
16838W        W89153  25.145  25.712  12.361
16839W        W89154   1.821   9.477  10.652
16840W        W89155  32.408  22.015  14.060
16841W        W89156   2.058   7.360  12.152
16842W        W89157  32.321   6.195   2.540
16843W        W89158  29.237  44.341   4.006
16844W        W89159  24.211  43.294  13.961
16845W        W89160   6.783  32.578  12.964
16846W        W89161  19.634   1.892  14.754
16847W        W89162  19.816  17.151  13.452
16848W        W89163  10.470  23.016  14.894
16849W        W89164   6.484   0.831  12.157
16850W        W89165  20.085  22.354   0.354
16851W        W89166  15.576  41.034   3.223
16852W        W89167  15.400  10.821   1.840
16853W        W89168   6.320  41.827  14.309
16854W        W89169  44.821  17.803   1.786
16855W        W89170  43.020   5.468  14.731
16856W        W89171  25.106  26.291   2.847
16857W        W89172   6.472  25.101  11.196
16858W        W89173   5.520   1.566   3.681
16859W        W89174   9.840  28.499   1.310
16860W        W89175  36.940  17.042  10.657
16861W        W89176   7.866  41.959   3.219
16862W        W89177  14.290  26.993   1.697
16863W        W89178  19.055  17.209   4.588
16864W        W89179  27.114  14.223   0.899
16865W        W89180   1.381   9.707   2.358
16866W        W89181  22.654  33.130   4.317
16867W        W89182   2.416  19.012  14.110
16868W        W89183  34.524  30.097   2.708
16869W        W89184  44.284   4.237  14.806
16870W        W89185   8.120   1.910   3.575
16871W        W89186  21.478   4.747  14.563
16872W        W89187  38.829  37.024  14.462
16873W        W89188   4.261   1.887   3.086
16874W        W89189  21.544  22.400   1.717
16875W        W89190   7.253  37.817   0.362
16876W        W89191  34.265  25.519  12.577
16877W        W89192  42.970   7.228  13.915
16878W        W89193  35.751  20.512  11.167
16879W        W89194  28.538   8.939   4.189
16880W        W89195  36.907   2.712   0.036
16881W        W89196  17.907  21.506  14.386
16882W        W89197  28.465  31.412   9.674
16883W        W89198  17.489  22.324  13.016
16884W        W89199   9.035  13.720   4.184
16885W        W89200  22.726  43.584   2.635
16886W        W89201   2.689  37.073  14.989
16887W        W89202  13.546  42.758   1.612
16888W        W89203  25.526  43.068  10.360
16889W        W89204  34.885  18.735  14.900
16890W        W89205   7.371  44.390  13.486
16891W        W89206  34.843  24.056  12.401
16892W        W89207   2.535  10.789  13.795
16893W        W89208  20.080  25.729   0.083
16894W        W89209  29.665   3.445  11.804
16895W        W89210  34.811   7.939   3.603
16896W        W89211  41.091  36.293   0.242
16897W        W89212  43.342  10.912   1.802
16898W        W89213  26.647  25.058  14.550
16899W        W89214  28.438   0.750   0.448
16900W        W89215   6.253  22.775   2.722
16901W        W89216  41.927   4.105   4.062
16902W        W89217   4.938  19.661   2.800
16903W        W89218  36.666  23.635   0.034
16904W        W89219  32.157   4.555   4.967
16905W        W89220  13.519   8.607  10.211
16906W        W89221  39.570   4.420   3.288
16907W        W89222  38.589   7.159  11.554
16908W        W89223  42.804   1.758   2.858
16909W        W89224  14.959  30.018  12.295
16910W        W89225  32.422  15.740   1.984
16911W        W89226  15.794  44.959   2.704
16912W        W89227  29.849  13.610   0.299
16913W        W89228  18.821  11.841  13.894
16914W        W89229  39.982  10.725  11.901
16915W        W89230   7.694   3.932   0.022
16916W        W89231   9.965  33.174   4.082
16917W        W89232  37.329   5.644  11.148
16918W        W89233   9.979  26.613  13.572
16919W        W89234  24.499  27.750  11.560
16920W        W89235   4.720  17.627  11.868
16921W        W89236  33.687  20.199   4.049
16922W        W89237  39.343  32.855  12.907
16923W        W89238  23.658  35.805   3.636
16924W        W89239  33.860  42.603   2.492
16925W        W89240   5.751  32.858   4.561
16926W        W89241  34.502   9.146  12.888
16927W        W89242  44.036   5.214   2.966
16928W        W89243  39.775   5.286   3.661
16929W        W89244  36.886  41.582  13.936
16930W        W89245  36.412  23.033  10.730
16931W        W89246  21.955  20.300  11.021
16932W        W89247   7.410   7.807  11.386
16933W        W89248   2.562   2.892  12.075
16934W        W89249  33.386  18.563  13.353
16935W        W89250  19.746  22.177  11.185
16936W        W89251  41.640  26.766   0.825
16937W        W89252   4.838   1.933  10.743
16938W        W89253  35.949  42.068   0.298
16939W        W89254   8.944  30.064   2.573
16940W        W89255  27.136  20.174   4.474
16941W        W89256  27.119  31.423   2.756
16942W        W89257   7.889  25.010  10.041
16943W        W89258  41.997  34.490   0.362
16944W        W89259  26.174  32.386   3.532
16945W        W89260  17.739  11.685   2.213
16946W        W89261  35.438   9.027  11.431
16947W        W89262  37.934  44.880  14.922
16948W        W89263  21.398  21.799   5.540
16949W        W89264  18.319  35.487  10.665
16950W        W89265  41.889  39.516   1.409
16951W        W89266  35.354  40.010   1.246
16952W        W89267  38.877   9.715  14.905
16953W        W89268  41.523   4.566   3.558
16954W        W89269   3.620  18.026  13.883
16955W        W89270  18.724  13.178   1.397
16956W        W89271  23.788  22.458   1.808
16957W        W89272  41.455   7.006  13.980
16958W        W89273  13.724  16.647   4.570
16959W        W89274   2.763  32.048   4.096
16960W        W89275  38.789  33.537   2.771
16961W        W89276  17.642  16.253  14.359
16962W        W89277  39.104  32.922   1.763
16963W        W89278   1.372  42.768   4.567
16964W        W89279  24.975   2.242  10.685
16965W        W89280   8.906  25.116   2.449
16966W        W89281  32.308  12.376  11.182
16967W        W89282  17.095  19.784  14.377
16968W        W89283  43.462  14.705   4.661
16969W        W89284  18.249  10.288  11.629
16970W        W89285  28.197   1.888  10.789
16971W        W89286  22.040   2.497   0.871
16972W        W89287   2.409  42.175   2.708
16973W        W89288  19.678  39.449   4.356
16974W        W89289   4.265  29.145  12.388
16975W        W89290  34.504   1.294   1.864
16976W        W89291  22.094   1.545  11.976
16977W        W89292  24.186  18.289   5.050
16978W        W89293  36.521  30.337  14.717
16979W        W89294   7.210  40.048   0.697
16980W        W89295  41.326  13.919  11.650
16981W        W89296  26.736  22.377   3.882
16982W        W89297  27.091  26.600   2.412
16983W        W89298  31.768  19.276   3.356
16984W        W89299  42.057  21.288  14.802
16985W        W89300  13.167  13.874  13.506
16986W        W89301  17.683   7.863   1.830
16987W        W89302  20.191   6.470   2.213
16988W        W89303  32.028   6.825   3.701
16989W        W89304  14.633  10.159   4.063
16990W        W89305  20.498   0.536   3.131
16991W        W89306  27.594  17.641   0.721
16992W        W89307  16.488  29.524  12.902
16993W        W89308  32.609   2.344   3.391
16994W        W89309  41.222  18.196  14.464
16995W        W89310  38.140  16.686   2.018
16996W        W89311   8.230  13.741  11.057
16997W        W89312  34.348  27.936  14.635
16998W        W89313   6.629  42.909  10.511
16999W        W89314  39.467  29.220   4.684
17000W        W89315   3.868   6.880   2.723
17001W        W89316  44.803   9.745  11.073
17002W        W89317  21.950   6.706   1.181
17003W        W89318  31.833  19.128   0.778
17004W        W89319  21.558  31.151   4.603
17005W        W89320  42.041  10.183   4.179
17006W        W89321  21.987  18.846   4.418
17007W        W89322  33.135  13.770  14.094
17008W        W89323  30.901  19.008   3.654
17009W        W89324  32.049  14.188   0.520
17010W        W89325  43.930  24.127  10.592
17011W        W89326  33.949  28.028  11.186
17012W        W89327  25.995  30.131   2.779
17013W        W89328   2.911  13.888   3.422
17014W        W89329   2.164   1.046   3.695
17015W        W89330  17.848  12.313  10.679
17016W        W89331  36.549  24.292  11.932
17017W        W89332   7.256  23.073   0.833
17018W        W89333  29.395   4.505   2.464
17019W        W89334  33.651  27.605  11.187
17020W        W89335  24.061  20.283   3.363
17021W        W89336  28.968  10.233  12.607
17022W        W89337   9.533   3.283  11.164
17023W        W89338  20.590  41.076   3.777
17024W        W89339  26.443  20.023   4.181
17025W        W89340   5.490  13.345  10.795
17026W        W89341  13.377  29.911   1.766
17027W        W89342  44.309  44.358  14.046
17028W        W89343  35.451   1.959   0.071
17029W        W89344  36.903  13.986   3.226
17030W        W89345  15.895  41.916   3.370
17031W        W89346  12.835   3.125   1.787
17032W        W89347  36.237  12.361   1.683
17033W        W89348  43.734  30.611   1.664
17034W        W89349  10.883  41.009   0.058
17035W        W89350   2.059   6.692  10.588
17036W        W89351  35.515   8.743   3.758
17037W        W89352  30.623  26.257  11.559
17038W        W89353  29.797  35.330   0.196
17039W        W89354  35.920  27.711   4.788
17040W        W89355  39.552   1.266  12.513
17041W        W89356   2.139  28.045   4.453
17042W        W89357  14.127   7.891   1.480
17043W        W89358  33.610  31.466   0.211
17044W        W89359  20.612  44.272   2.944
17045W        W89360  39.896  11.453   0.503
17046W        W89361  32.630  43.839  14.351
17047W        W89362  11.802  34.196  13.048
17048W        W89363  13.567  41.384   4.323
17049W        W89364  19.219   3.169   0.383
17050W        W89365  30.569  33.405   2.305
17051W        W89366   0.245  44.224  11.129
17052W        W89367  38.782   6.677   4.118
17053W        W89368  25.152  17.205   2.328
17054W        W89369   2.470  10.762  10.649
17055W        W89370  10.260  42.049  11.052
17056W        W89371  18.720  27.612   1.141
17057W        W89372   9.842   0.417  10.813
17058W        W89373  34.140  18.832   1.506
17059W        W89374  35.279  31.029  13.288
17060W        W89375   9.407  16.243   0.788
17061W        W89376  26.303  17.979  13.909
17062W        W89377  23.530   1.690  12.050
17063W        W89378   5.277  29.204   1.674
17064W        W89379  31.722  41.488   2.192
17065W        W89380  35.938  21.181  10.546
17066W        W89381  12.429  43.366   0.665
17067W        W89382  44.519  41.259  12.901
17068W        W89383   2.913  33.453   0.460
17069W        W89384  15.445  15.711  10.758
17070W        W89385  36.002  27.667   2.753
17071W        W89386  37.524  18.599  14.839
17072W        W89387  20.968  31.625   4.144
17073W        W89388  33.695  43.168   0.510
17074W        W89389  31.396  36.380   1.813
17075W        W89390  31.527  23.136   3.618
17076W        W89391  32.469   6.251  13.606
17077W        W89392  14.272   5.656   2.278
17078W        W89393  17.873  43.944   2.780
17079W        W89394   1.538  18.150  14.977
17080W        W89395   1.662  32.578   0.494
17081W        W89396  30.185   0.137  14.390
17082W        W89397   1.981  15.130  11.535
17083W        W89398  37.449  31.412  12.407
17084W        W89399  17.323  21.187  11.780
17085W        W89400  28.611   3.924  10.684
17086W        W89401  12.076  38.580   1.761
17087W        W89402  36.615  12.808  11.089
17088W        W89403  16.136  14.502  13.627
17089W        W89404  20.726  29.884  10.715
17090W        W89405  26.959  26.009  13.081
17091W        W89406  41.150  30.635   4.697
17092W        W89407  31.159   1.302   0.059
17093W        W89408   6.356  36.770   2.736
17094W        W89409  28.612  31.494  12.872
17095W        W89410  31.676  10.111   4.527
17096W        W89411  27.156  27.136   3.277
17097W        W89412  34.847  38.520  10.834
17098W        W89413  29.253  26.077   3.570
17099W        W89414  28.692  12.298   1.742
17100W        W89415  14.090  16.059  13.571
17101W        W89416   4.305  33.342   1.340
17102W        W89417   7.409  17.518  10.753
17103W        W89418  26.771   5.385   2.591
17104W        W89419  30.124  44.368   3.159
17105W        W89420  44.310  24.973   1.319
17106W        W89421  14.498   1.755  11.864
17107W        W89422  37.836  31.909   1.412
17108W        W89423   7.745  39.342   4.718
17109W        W89424  16.598   0.808  10.998
17110W        W89425  36.448  40.616   2.817
17111W        W89426  33.364   6.817   2.314
17112W        W89427  38.336  42.354  13.541
17113W        W89428  35.205  12.295   1.521
17114W        W89429  35.308  36.669   2.163
17115W        W89430  12.108  34.978  10.492
17116W        W89431   5.267   6.892  13.891
17117W        W89432  10.214  18.081  11.526
17118W        W89433  40.794  25.556  12.539
17119W        W89434  28.594  42.497   2.251
17120W        W89435  13.060  31.312   0.224
17121W        W89436  44.360  32.248  11.082
17122W        W89437   1.985   7.168  14.030
17123W        W89438  22.471  43.278   1.705
17124W        W89439  10.898  28.491  11.717
17125W        W89440  19.085  30.165  14.545
17126W        W89441  13.654   3.232   0.395
17127W        W89442  28.371  22.986   4.784
17128W        W89443  16.846  44.468  13.800
17129W        W89444  43.605  11.477   5.493
17130W        W89445  26.200  44.216   4.560
17131W        W89446   7.902   7.416   2.674
17132W        W89447  39.387  34.158  12.439
17133W        W89448  44.319  33.576   2.338
17134W        W89449  15.117  37.981   2.767
17135W        W89450  27.092   3.234   4.654
17136W        W89451  25.074  30.452   2.260
17137W        W89452   5.131  39.514  13.971
17138W        W89453  35.633   6.525   2.785
17139W        W89454  23.651   6.426  13.866
17140W        W89455  35.021   9.910   3.646
17141W        W89456  20.260  18.694  14.978
17142W        W89457  27.060   6.847  12.008
17143W        W89458  43.394   9.454   4.049
17144W        W89459  15.799  13.077   2.745
17145W        W89460   7.768  37.092  14.778
17146W        W89461  24.110  25.624  10.880
17147W        W89462  12.101  33.514  11.421
17148W        W89463  28.050  44.479  10.579
17149W        W89464   3.105   4.313  12.431
17150W        W89465   1.930  19.201  14.273
17151W        W89466  44.906  14.692   2.842
17152W        W89467  28.335  21.010  11.030
17153W        W89468  31.450   1.262   2.915
17154W        W89469  42.289  33.683   4.203
17155W        W89470   0.847  43.850   2.785
17156W        W89471  43.144  18.111  14.055
17157W        W89472  36.944  35.446   3.629
17158W        W89473  36.142   6.969  10.763
17159W        W89474  37.203  42.794  11.019
17160W        W89475  26.296  29.140  13.008
17161W        W89476  10.785  41.809   1.358
17162W        W89477  21.018  20.349   0.688
17163W        W89478  42.106  31.586   1.387
17164W        W89479   3.931  26.611  11.943
17165W        W89480  35.331  35.989  11.802
17166W        W89481  14.638  17.816   2.348
17167W        W89482  17.033   0.611   4.927
17168W        W89483   7.982  40.366  12.001
17169W        W89484  14.032   6.196   3.653
17170W        W89485  13.532  14.773   2.511
17171W        W89486   2.296  22.144   4.713
17172W        W89487  20.472  19.922  13.218
17173W        W89488  23.358  21.120   1.825
17174W        W89489  26.177  35.119   4.227
17175W        W89490  39.333  27.868   2.336
17176W        W89491  35.975  43.196  13.094
17177W        W89492   1.276  40.421  10.796
17178W        W89493  26.512  10.419  12.972
17179W        W89494   0.621   5.478  12.325
17180W        W89495  23.945   8.191   2.216
17181W        W89496   2.334  29.766  10.366
17182W        W89497  25.665  41.297  13.927
17183W        W89498  36.318  36.520  13.331
17184W        W89499  19.638   6.819   3.598
17185W        W89500  41.304  16.520   2.678
17186W        W89501  27.995  23.148   0.731
17187W        W89502   4.265   9.885   0.444
17188W        W89503  34.992   6.620   4.846
17189W        W89504   6.145  29.613  11.142
17190W        W89505  28.368  22.090   3.089
17191W        W89506  35.366  32.655  12.848
17192W        W89507  10.375  44.431  14.744
17193W        W89508  15.791   4.894  11.434
17194W        W89509  16.074  15.032   2.142
17195W        W89510   2.857  41.953  12.847
17196W        W89511  32.441  19.818  12.393
17197W        W89512  15.272  29.301  13.375
17198W        W89513  39.037  23.588  13.053
17199W        W89514  12.083   3.768  10.692
17200W        W89515   0.813   9.666  11.082
17201W        W89516  33.468  34.895  12.933
17202W        W89517   1.634  25.564  12.472
17203W        W89518  10.613   1.414  12.534
17204W        W89519   6.234  24.206   3.239
17205W        W89520  31.373  40.498   4.682
17206W        W89521  27.344  10.305  12.047
17207W        W89522  28.050  21.533  14.070
17208W        W89523  12.606   2.691  10.607
17209W        W89524  14.948  10.370  11.578
17210W        W89525   2.214   9.887   4.350
17211W        W89526  31.081  43.975   1.006
17212W        W89527  24.726  34.323   2.713
17213W        W89528   4.342  39.316  11.116
17214W        W89529  22.864  29.930  13.018
17215W        W89530  16.288  25.480   1.359
17216W        W89531  44.404  35.479   1.718
17217W        W89532  21.034  12.057   1.226
17218W        W89533   0.747  42.579   2.315
17219W        W89534  22.129  14.757  11.658
17220W        W89535  28.474  18.189  12.650
17221W        W89536   5.767  40.899   3.561
17222W        W89537  11.107   6.734  12.755
17223W        W89538  40.378  16.865  13.555
17224W        W89539  43.804  30.887   2.852
17225W        W89540   1.144  42.385  12.524
17226W        W89541  20.728  16.622  11.203
17227W        W89542  35.262  43.294   4.606
17228W        W89543  39.751  26.196   2.233
17229W        W89544  11.492  41.761  12.631
17230W        W89545  18.519  16.183   1.419
17231W        W89546  27.526  23.440   2.235
17232W        W89547  28.088  24.434   3.594
17233W        W89548  11.138  40.427   3.559
17234W        W89549  29.572  41.637  13.902
17235W        W89550  21.656  24.096   4.497
17236W        W89551  11.667  19.513   0.397
17237W        W89552  43.347   9.468  13.453
17238W        W89553  16.958   8.352   1.985
17239W        W89554  12.143  23.148  12.496
17240W        W89555  31.745  38.395  13.385
17241W        W89556  30.924  27.549   3.223
17242W        W89557   2.249  20.546   4.309
17243W        W89558   9.028  43.594   1.287
17244W        W89559  13.655  13.679   4.438
17245W        W89560   8.331  24.206   4.382
17246W        W89561  15.614  32.733  14.560
17247W        W89562  42.379  36.545   0.315
17248W        W89563  34.284  41.980  14.114
17249W        W89564   3.863  31.638   1.763
17250W        W89565   9.165  18.059  14.309
17251W        W89566   1.273  21.634   0.290
17252W        W89567  44.421   7.757   1.901
17253W        W89568   2.756   9.419   3.285
17254W        W89569  19.608   4.182   4.045
17255W        W89570  36.498  43.995  12.879
17256W        W89571  28.074  10.439  14.300
17257W        W89572  39.878  14.860  12.422
17258W        W89573  34.934   9.685  13.905
17259W        W89574  38.467  43.159   3.173
17260W        W89575  42.816   7.409  13.074
17261W        W89576  14.565   6.358   2.667
17262W        W89577  39.184  35.653   0.893
17263W        W89578  26.108   1.950  14.281
17264W        W89579  36.656  27.978  13.512
17265W        W89580  25.097  42.102  13.331
17266W        W89581  16.305   4.881   1.936
17267W        W89582  16.607  28.969  11.223
17268W        W89583  14.774  22.778  10.285
17269W        W89584  20.075  15.764   4.737
17270W        W89585   1.518  24.617   1.697
17271W        W89586  25.710   4.813   3.188
17272W        W89587  43.535  17.532  14.227
17273W        W89588  16.236  43.532  12.425
17274W        W89589  27.164  16.637   4.557
17275W        W89590  24.533  36.524  14.403
17276W        W89591  29.573  34.755   3.097
17277W        W89592   3.347  32.391  10.294
17278W        W89593   7.922  42.395   3.566
17279W        W89594  44.290  25.158  14.937
17280W        W89595  13.805  35.368   1.744
17281W        W89596  26.732  42.021  13.673
17282W        W89597  25.347   3.827  11.171
17283W        W89598  30.102  23.039  10.750
17284W        W89599   0.665   9.945  14.628
17285W        W89600   0.396  20.076   2.958
17286W        W89601  36.164   4.305   2.146
17287W        W89602  41.084  20.741  13.509
17288W        W89603  35.429  25.019   0.792
17289W        W89604   8.407   8.402  12.686
17290W        W89605  36.092  36.400   0.347
17291W        W89606  37.718  18.824  14.420
17292W        W89607  41.785  10.136  13.185
17293W        W89608  29.520  40.887   2.708
17294W        W89609  36.378  20.634   1.226
17295W        W89610  25.239   8.717   3.288
17296W        W89611   8.306  12.214  10.728
17297W        W89612  36.580  33.133  13.049
17298W        W89613  27.170  11.387   0.018
17299W        W89614  27.591  36.126  10.918
17300W        W89615  15.779   0.484   4.290
17301W        W89616  25.632  39.143  12.018
17302W        W89617  19.133  10.668   5.375
17303W        W89618  23.591  38.992  11.343
17304W        W89619  38.351  13.375  13.984
17305W        W89620   3.191  29.573  13.880
17306W        W89621  33.890  30.845   4.534
17307W        W89622  42.987   5.327   3.124
17308W        W89623   4.802  25.630   3.629
17309W        W89624  11.675  39.829   4.073
17310W        W89625  20.135   7.692   4.347
17311W        W89626  17.588  16.630   2.506
17312W        W89627  11.252   7.734   1.869
17313W        W89628  12.561   7.943   2.217
17314W        W89629  18.691  23.212   4.070
17315W        W89630  41.227  25.382  13.853
17316W        W89631  11.872  21.476   2.264
17317W        W89632  10.301  31.820   1.365
17318W        W89633  42.005  13.119   4.604
17319W        W89634  20.540  33.494  13.883
17320W        W89635  19.072  14.387   2.494
17321W        W89636   8.213  11.504  13.850
17322W        W89637  16.295  14.154  12.855
17323W        W89638   8.373  15.575   2.782
17324W        W89639  29.553  35.445  12.385
17325W        W89640   3.808   6.982  13.498
17326W        W89641  11.427  38.539   4.698
17327W        W89642   0.404  15.239  10.608
17328W        W89643  32.404  30.471  12.323
17329W        W89644  17.810   9.440  12.594
17330W        W89645  10.464  23.222  13.906
17331W        W89646   5.751   3.550  10.571
17332W        W89647  42.617   0.442  13.048
17333W        W89648  41.428  36.963   1.412
17334W        W89649  38.876  18.585  12.378
17335W        W89650   9.381  41.061  11.906
17336W        W89651  15.777  23.227   0.411
17337W        W89652  42.067   0.275  11.558
17338W        W89653  44.442  22.573   3.339
17339W        W89654  41.322  10.411  12.836
17340W        W89655  35.547  22.200   3.646
17341W        W89656  15.612  42.595  14.988
17342W        W89657  41.964  10.182   1.405
17343W        W89658  42.201   9.129   3.688
17344W        W89659  36.107  19.738  11.082
17345W        W89660   8.408  21.281   5.136
17346W        W89661  15.330   9.397  13.615
17347W        W89662   3.377   1.102  11.080
17348W        W89663  44.460  12.704   0.279
17349W        W89664  13.184  25.647   1.233
17350W        W89665  39.772   5.649  14.402
17351W        W89666  27.510   2.049  10.999
17352W        W89667   8.261  26.064  12.468
17353W        W89668   4.379  19.192   2.067
17354W        W89669  14.392  23.639  12.325
17355W        W89670  38.906  13.348  11.392
17356W        W89671  41.813  44.000   3.790
17357W        W89672  33.786  15.122   2.934
17358W        W89673  23.257  41.064   4.108
17359W        W89674  29.603  35.554   1.389
17360W        W89675  16.796   4.193  10.770
17361W        W89676  44.453  17.064   5.015
17362W        W89677  33.711   2.296  11.958
17363W        W89678   3.427  42.051   1.363
17364W        W89679  31.716  29.957   3.228
17365W        W89680  29.010  44.890  12.034
17366W        W89681  43.453   6.888   4.927
17367W        W89682  38.013  25.664   1.396
17368W        W89683   4.963   9.354  10.503
17369W        W89684  18.551  31.500   0.733
17370W        W89685  36.620  16.345   2.802
17371W        W89686  22.485  21.700   3.779
17372W        W89687  18.363  29.004  10.574
17373W        W89688   5.332  36.454  11.404
17374W        W89689  13.637  28.608  13.473
17375W        W89690   5.458  26.651   1.029
17376W        W89691  37.949  17.745  11.217
17377W        W89692  11.281  23.789   4.000
17378W        W89693  24.095   8.400  12.349
17379W        W89694  32.122   2.071  12.697
17380W        W89695  43.816   4.802  13.663
17381W        W89696  36.841  29.556  13.934
17382W        W89697  38.079  20.207  12.543
17383W        W89698  25.442  10.694   0.769
17384W        W89699  23.946  29.733   1.276
17385W        W89700  17.821  12.799   0.794
17386W        W89701  42.205  43.693   3.575
17387W        W89702  39.398  36.980  12.899
17388W        W89703  42.485  31.832   3.485
17389W        W89704  22.571  44.514  13.384
17390W        W89705  32.124  20.531   1.772
17391W        W89706  15.627  14.806   1.960
17392W        W89707  41.458   3.791   4.548
17393W        W89708  42.861  25.880   1.964
17394W        W89709  23.177  13.337  13.425
17395W        W89710  11.781  13.567  12.056
17396W        W89711  36.044   0.460   3.351
17397W        W89712  12.169   3.532   1.687
17398W        W89713  40.060   9.677   4.598
17399W        W89714  25.650  24.057   1.193
17400W        W89715   4.761  19.833   4.208
17401W        W89716  11.238  33.875   2.690
17402W        W89717  11.831  41.026   2.700
17403W        W89718  36.581   2.390  13.880
17404W        W89719  23.582  42.297  14.539
17405W        W89720  31.468  35.337  12.900
17406W        W89721  12.808  39.880  13.603
17407W        W89722  28.011  17.399   0.934
17408W        W89723   6.869  38.201   4.051
17409W        W89724  26.670  32.548  13.378
17410W        W89725  15.077  19.604   1.307
17411W        W89726  12.378  18.177   1.379
17412W        W89727   3.890  20.679   0.573
17413W        W89728  28.365   5.417   3.679
17414W        W89729  43.420   1.928   4.175
17415W        W89730  18.419  12.191  10.309
17416W        W89731  27.149  31.296  13.061
17417W        W89732  40.250   2.347  11.225
17418W        W89733   0.773  25.075   1.827
17419W        W89734  44.804   2.536   2.062
17420W        W89735  15.039   4.958  11.151
17421W        W89736  39.280  43.474  14.100
17422W        W89737   4.155   4.911   4.214
17423W        W89738   2.829  31.112  11.572
17424W        W89739   0.346  37.533  14.451
17425W        W89740  32.011   2.772   2.884
17426W        W89741   7.528  34.874   0.951
17427W        W89742   9.982   4.682   3.241
17428W        W89743  42.875  29.559   1.730
17429W        W89744  25.289   6.247  12.994
17430W        W89745  26.839  44.441   5.135
17431W        W89746  43.982   2.590   3.169
17432W        W89747  34.859  27.983  12.054
17433W        W89748   1.787  35.167   4.190
17434W        W89749  13.240   5.231  11.942
17435W        W89750  29.055  15.099   2.281
17436W        W89751  20.611   7.115  13.047
17437W        W89752  29.672  34.052   4.204
17438W        W89753   9.334  31.125  11.690
17439W        W89754  26.212  30.181  12.020
17440W        W89755  21.647  23.965   1.320
17441W        W89756   2.797  29.353   1.931
17442W        W89757  43.240  23.717   0.907
17443W        W89758  10.332  38.452  10.071
17444W        W89759   7.486  43.861   2.362
17445W        W89760  34.856  41.265   1.317
17446W        W89761   3.303  19.359  11.050
17447W        W89762   3.254  34.343  13.828
17448W        W89763  25.183  44.173  11.540
17449W        W89764  33.482   0.394   3.173
17450W        W89765   9.410   7.366   2.745
17451W        W89766  44.152  39.789   2.407
17452W        W89767  25.542  31.196  12.445
17453W        W89768  42.219  22.393   5.143
17454W        W89769  41.871  21.097  10.526
17455W        W89770  29.809  33.680  12.965
17456W        W89771  27.617  10.322  13.945
17457W        W89772  35.073  14.057  10.955
17458W        W89773  11.374  44.444  14.485
17459W        W89774  10.765   4.492  13.864
17460W        W89775  10.693   2.781   2.838
17461W        W89776  13.862  21.500  14.781
17462W        W89777  16.058  38.470  12.015
17463W        W89778  44.466  41.980  13.459
17464W        W89779  14.317  27.979   1.673
17465W        W89780  33.529  11.297  10.177
17466W        W89781  38.527  15.242   3.749
17467W        W89782  44.193   1.726  11.245
17468W        W89783  17.913  19.373  11.693
17469W        W89784  10.583  40.314  10.096
17470W        W89785  40.293  35.565   1.734
17471W        W89786   3.871  15.614   2.380
17472W        W89787   7.282  19.332  12.588
17473W        W89788  18.154   8.959  13.972
17474W        W89789  25.297  25.083  13.045
17475W        W89790  15.439  39.406   1.813
17476W        W89791  14.333  19.681   4.662
17477W        W89792  15.807  28.461  14.351
17478W        W89793  27.299  36.704   3.710
17479W        W89794  37.987  16.483   1.024
17480W        W89795   1.285  43.234  13.898
17481W        W89796  44.451   4.275  14.304
17482W        W89797  33.378  29.316  14.380
17483W        W89798   1.348  20.482  13.065
17484W        W89799  22.036  21.296  14.071
17485W        W89800  25.503  25.701   3.614
17486W        W89801  24.557  35.496   1.702
17487W        W89802  43.564   8.253   2.197
17488W        W89803   7.390  14.627   2.788
17489W        W89804  27.145  18.702   0.262
17490W        W89805  31.653  26.971   1.681
17491W        W89806  22.011  34.492   1.915
17492W        W89807   8.765  17.846   4.674
17493W        W89808  37.293  28.732  14.879
17494W        W89809  16.644  39.346   0.312
17495W        W89810   2.203  28.498   3.609
17496W        W89811  44.949  18.519   4.339
17497W        W89812  23.442  34.415   0.364
17498W        W89813   5.682  13.742   0.771
17499W        W89814  39.614   2.298   0.699
17500W        W89815  33.432  34.035   3.211
17501W        W89816  31.634  30.908   3.190
17502W        W89817  30.764   0.384  14.092
17503W        W89818   1.392  40.007  12.981
17504W        W89819  34.266   3.949  11.193
17505W        W89820  12.548   1.297   2.925
17506W        W89821  21.622  24.552  13.550
17507W        W89822  35.827  21.748  12.417
17508W        W89823  19.101  26.725   0.310
17509W        W89824  26.984  39.289   4.592
17510W        W89825  23.963   5.205   3.565
17511W        W89826  32.952  17.244   4.518
17512W        W89827  10.709  37.246   1.137
17513W        W89828   8.172  27.090   2.242
17514W        W89829   1.482  34.565   2.184
17515W        W89830   5.468  22.167   1.230
17516W        W89831  27.162  14.630   3.510
17517W        W89832  38.069  44.413   2.193
17518W        W89833  24.494   2.692   0.297
17519W        W89834  17.081  29.624  10.271
17520W        W89835   3.870   0.900  13.076
17521W        W89836  43.566  27.181   3.818
17522W        W89837  38.021  13.288  11.504
17523W        W89838  20.322  15.734  14.564
17524W        W89839  24.152   5.922   1.177
17525W        W89840  20.829   7.121   0.858
17526W        W89841   6.903  16.814   0.383
17527W        W89842  15.364  32.165  13.428
17528W        W89843   9.245  33.713  11.530
17529W        W89844  15.106  40.302   2.828
17530W        W89845  37.068   7.175  12.528
17531W        W89846  40.639  16.377   3.248
17532W        W89847  15.049  21.142  10.737
17533W        W89848  23.522   1.848   4.197
17534W        W89849  36.514   4.978   4.807
17535W        W89850  17.572   1.484   1.258
17536W        W89851  10.290  27.026   3.051
17537W        W89852  20.759   9.369  13.370
17538W        W89853  44.267   2.782  12.506
17539W        W89854  18.749  29.289  10.744
17540W        W89855  30.910   8.648  10.382
17541W        W89856  12.284  21.670  10.545
17542W        W89857   0.329   3.332   4.543
17543W        W89858  12.010  41.166   1.011
17544W        W89859  18.442  36.922   1.371
17545W        W89860  19.060  35.666  13.591
17546W        W89861  33.956  12.045   0.947
17547W        W89862   3.419  19.225   4.652
17548W        W89863  11.689  40.483   1.867
17549W        W89864  20.792  39.358   3.107
17550W        W89865   3.033  14.237   3.042
17551W        W89866  37.462  30.956   3.180
17552W        W89867  11.113  24.034  12.463
17553W        W89868  30.426   2.937   3.917
17554W        W89869  38.625  31.697  14.330
17555W        W89870  42.322  22.525   0.423
17556W        W89871  23.960  33.156  11.215
17557W        W89872  15.693  32.178   1.979
17558W        W89873  26.450  21.816  11.602
17559W        W89874   7.251  14.140   1.342
17560W        W89875  43.863  28.169   2.085
17561W        W89876   3.356   7.530   3.207
17562W        W89877  33.593   6.275   3.604
17563W        W89878  42.424  33.548   0.366
17564W        W89879  35.039  28.610   0.406
17565W        W89880  32.946  23.745  12.533
17566W        W89881   4.167  43.657  14.459
17567W        W89882  36.893  32.476  12.119
17568W        W89883  40.528  28.977   1.866
17569W        W89884  33.849  22.809  14.747
17570W        W89885  31.496  10.592  10.215
17571W        W89886  12.117  10.929  14.544
17572W        W89887  25.675   0.953   2.850
17573W        W89888  32.664   1.050  13.780
17574W        W89889  25.605   7.708  10.665
17575W        W89890  26.877  18.176   3.314
17576W        W89891   6.647  23.617   1.280
17577W        W89892   5.109  30.413  14.030
17578W        W89893  19.770  24.523  12.970
17579W        W89894  41.849  27.158   3.965
17580W        W89895   1.463  27.457   0.474
17581W        W89896  35.101  11.157   4.573
17582W        W89897  21.748   7.257   1.907
17583W        W89898  31.645   4.767   0.033
17584W        W89899  16.341   4.359   4.275
17585W        W89900  19.194  28.146   0.253
17586W        W89901  36.527  19.741  13.834
17587W        W89902  15.781  31.884   3.755
17588W        W89903  34.567  42.389   4.627
17589W        W89904  43.035   7.667   3.167
17590W        W89905  30.921   4.490  12.005
17591W        W89906   3.676  27.491   0.994
17592W        W89907   0.954  29.706   3.637
17593W        W89908  25.131  41.893  14.339
17594W        W89909  23.695   5.423   1.369
17595W        W89910  22.307   8.285  13.767
17596W        W89911  24.730   4.189  10.546
17597W        W89912  41.765  43.452  11.078
17598W        W89913  31.883  29.723   3.706
17599W        W89914   9.865  14.146   1.468
17600W        W89915  30.846  14.203   4.600
17601W        W89916  34.625  20.644  13.848
17602W        W89917  13.179  21.252   1.923
17603W        W89918  43.858   7.283  11.114
17604W        W89919   0.869  40.989   1.368
17605W        W89920  32.095   2.919  13.043
17606W        W89921  13.277   9.593  14.944
17607W        W89922   1.307  40.998  14.568
17608W        W89923  18.268  33.364   3.752
17609W        W89924   7.509  35.657  14.988
17610W        W89925   3.007  14.089   0.802
17611W        W89926  22.198  15.532   3.236
17612W        W89927  12.718  42.822  10.579
17613W        W89928   2.656  31.509   3.283
17614W        W89929   8.879  32.398   0.417
17615W        W89930  42.648   7.181  10.569
17616W        W89931  23.809  32.951  14.434
17617W        W89932  43.985  39.374   4.882
17618W        W89933  38.430  35.401  14.982
17619W        W89934  13.778   8.025  13.049
17620W        W89935  36.773   3.328   3.586
17621W        W89936   9.336   8.870   1.947
17622W        W89937   5.825  33.880   0.453
17623W        W89938   0.159  37.354  13.255
17624W        W89939  29.767  35.472   4.159
17625W        W89940  34.884  13.441   2.369
17626W        W89941   3.467  44.124   1.206
17627W        W89942  41.283  23.529  11.219
17628W        W89943   8.400   9.299   1.848
17629W        W89944   6.816   6.660  11.571
17630W        W89945  43.977  10.723   5.051
17631W        W89946  17.087   1.898  13.598
17632W        W89947  29.441  39.351  12.138
17633W        W89948  42.044  30.259  13.339
17634W        W89949  23.677   2.453  13.485
17635W        W89950  34.565  12.419  12.834
17636W        W89951  15.860  15.353  14.935
17637W        W89952  19.519   8.896   0.915
17638W        W89953  37.300  38.938   1.882
17639W        W89954   9.074   5.366   0.236
17640W        W89955  12.202   3.318  10.062
17641W        W89956  36.009  38.522  14.024
17642W        W89957   3.292  25.450  11.937
17643W        W89958  16.116  33.611   0.949
17644W        W89959  24.731  11.285  12.058
17645W        W89960  31.532  11.818   1.291
17646W        W89961  21.080   6.233   4.219
17647W        W89962  13.904  13.227   4.555
17648W        W89963   4.433  31.052   4.538
17649W        W89964  39.620  22.234   2.370
17650W        W89965   0.338  37.591  11.204
17651W        W89966   0.555   5.422   0.975
17652W        W89967  20.122  28.423  14.377
17653W        W89968  29.657  19.050  12.553
17654W        W89969  33.121   8.600  11.456
17655W        W89970  39.556  25.616   0.560
17656W        W89971  22.067  32.997   0.786
17657W        W89972  22.040   3.141   4.558
17658W        W89973  28.950  10.050  13.429
17659W        W89974   6.204  44.938   0.225
17660W        W89975  17.616  29.415   1.387
17661W        W89976   5.345  38.190   2.176
17662W        W89977  15.112  13.875   4.068
17663W        W89978   3.928   1.677  12.089
17664W        W89979   5.694  13.119  13.032
17665W        W89980   5.919  25.806  11.167
17666W        W89981  38.272  44.091   4.143
17667W        W89982   1.466  15.672   2.714
17668W        W89983   6.925  17.391  12.078
17669W        W89984   5.944   1.342  12.499
17670W        W89985   3.966  33.566   0.462
17671W        W89986   3.614   2.467   2.797
17672W        W89987   8.253  12.342   2.713
17673W        W89988  37.857   2.548  13.073
17674W        W89989  13.817  42.819   2.345
17675W        W89990  39.266  41.013   1.430
17676W        W89991  41.336  19.221   0.441
17677W        W89992  43.678   1.178   4.181
17678W        W89993  15.089  19.562  12.165
17679W        W89994  17.367   3.216   5.039
17680W        W89995  23.272   9.157   4.614
17681W        W89996   7.296  20.038   0.853
17682W        W89997  13.253   8.215   4.640
17683W        W89998  44.327  15.642  14.841
17684W        W89999  32.856  17.511  12.462
17685W        W90000  33.961  37.653  10.752
17686W        W90001  36.310  25.884  11.048
17687W        W90002  10.664  27.601  10.114
17688W        W90003  29.018   1.411  12.458
17689W        W90004  11.071  38.731   3.376
17690W        W90005  16.660  36.306   3.763
17691W        W90006  17.790  41.369  10.707
17692W        W90007  40.341  10.564  11.143
17693W        W90008  23.035  17.354   2.481
17694W        W90009   1.453  35.168   4.608
17695W        W90010  10.192   0.209  13.318
17696W        W90011  23.525  37.933   2.961
17697W        W90012  30.185  24.103  12.123
17698W        W90013  10.697  32.035   1.783
17699W        W90014  12.073  10.433  14.444
17700W        W90015  12.220  39.534  14.184
17701W        W90016  43.097   5.190  10.258
17702W        W90017  12.724  19.703  14.399
17703W        W90018   5.390   5.753   0.394
17704W        W90019  27.169   2.259   4.341
17705W        W90020  14.473  22.711   4.135
17706W        W90021   1.082  22.148  14.315
17707W        W90022  35.656  39.684   4.060
17708W        W90023  27.080  18.061  14.907
17709W        W90024  41.370  34.498  13.434
17710W        W90025  34.548   1.701  12.111
17711W        W90026  30.628  37.679  13.251
17712W        W90027   9.607  13.811   2.972
17713W        W90028  24.018   7.408  14.138
17714W        W90029  11.813  32.049  12.428
17715W        W90030  25.036  39.780   4.621
17716W        W90031  20.508   5.244  13.076
17717W        W90032  43.258  34.470  14.692
17718W        W90033  32.029  19.606   0.660
17719W        W90034   4.238  10.707  14.906
17720W        W90035  32.164  21.615  10.718
17721W        W90036  14.132  10.216  12.674
17722W        W90037  14.125  32.126   1.259
17723W        W90038  21.668  29.267   4.133
17724W        W90039   1.265  26.377   3.690
17725W        W90040   5.352  16.616  10.455
17726W        W90041   1.175  40.311   4.537
17727W        W90042  38.012  42.708  14.504
17728W        W90043   2.813  12.372   0.328
17729W        W90044  40.881  20.032   4.894
17730W        W90045  16.857  33.658   4.881
17731W        W90046  23.461  23.665  11.388
17732W        W90047  43.249  37.461   0.903
17733W        W90048  28.999  27.531   1.929
17734W        W90049  44.782  34.505   4.444
17735W        W90050  43.499   2.621   1.753
17736W        W90051   9.163  21.180  14.679
17737W        W90052  26.859  25.535  14.460
17738W        W90053  40.862  25.231   0.964
17739W        W90054  37.724  41.947  13.912
17740W        W90055  31.325  19.296   3.635
17741W        W90056  34.450  39.496  12.046
17742W        W90057  44.037   3.935   2.993
17743W        W90058  38.982  38.739   4.979
17744W        W90059   7.284  15.047  14.319
17745W        W90060  11.399  25.535   4.291
17746W        W90061  37.508  21.264  13.943
17747W        W90062   3.171  17.202   2.356
17748W        W90063  30.978  42.657  13.403
17749W        W90064  29.942  24.308   0.237
17750W        W90065   6.101  22.684  11.477
17751W        W90066   0.537  22.706  12.469
17752W        W90067   0.933   7.791   4.532
17753W        W90068  38.136   8.640   0.114
17754W        W90069   8.896  41.427  12.448
17755W        W90070  15.705  30.694  13.516
17756W        W90071  20.822   7.404   3.251
17757W        W90072  31.558  14.192   2.449
17758W        W90073  13.241  44.576   1.944
17759W        W90074  39.434  38.509  14.071
17760W        W90075  32.205  18.039  13.053
17761W        W90076  26.844  15.615   2.158
17762W        W90077  14.089  17.176  11.644
17763W        W90078   2.725  23.675  12.101
17764W        W90079  25.423  41.996   2.255
17765W        W90080  21.668  41.564   0.263
17766W        W90081  19.640  22.607   3.932
17767W        W90082  30.514  18.766  13.037
17768W        W90083  18.251   6.191  10.581
17769W        W90084  13.753  18.123   3.788
17770W        W90085  15.875  22.954   3.974
17771W        W90086  33.374  32.930  13.436
17772W        W90087   1.753  27.093  14.573
17773W        W90088  21.024  17.215  14.870
17774W        W90089  28.162  28.102   4.241
17775W        W90090   7.177  44.950   0.401
17776W        W90091  44.706  32.193  13.970
17777W        W90092  32.343  26.585  13.756
17778W        W90093  40.344   3.813  14.039
17779W        W90094  40.851  34.629  14.258
17780W        W90095  35.445  31.077  14.991
17781W        W90096  18.245  34.077  14.142
17782W        W90097  28.130  20.652   3.260
17783W        W90098  20.492  41.429  13.541
17784W        W90099  25.673  42.813  13.348
17785W        W90100  40.022  25.749  13.673
17786W        W90101  12.175   1.509  12.632
17787W        W90102  11.919   1.002  13.952
17788W        W90103   6.390  15.719  12.973
17789W        W90104   7.819  13.360   4.556
17790W        W90105   2.626  24.167   3.956
17791W        W90106   9.219  24.129  13.850
17792W        W90107  35.517  24.545   2.507
17793W        W90108   2.826  41.485   0.489
17794W        W90109  34.442  10.345   0.860
17795W        W90110  36.882  27.083  14.827
17796W        W90111  22.053  38.336   3.987
17797W        W90112  16.615   8.446  10.721
17798W        W90113  41.396  44.569   1.760
17799W        W90114  40.404  32.968   3.880
17800W        W90115  26.732  15.542   4.995
17801W        W90116  29.582  32.677   3.708
17802W        W90117  35.479  19.477  12.072
17803W        W90118  23.140  37.511  10.925
17804W        W90119  24.500  12.623   0.370
17805W        W90120  23.013  34.933   1.693
17806W        W90121  25.186  14.375  14.391
17807W        W90122  23.197  41.822  12.927
17808W        W90123   2.794  17.805  14.446
17809W        W90124   5.949  40.884   1.815
17810W        W90125  26.756  35.863   1.879
17811W        W90126  26.172  25.156  10.661
17812W        W90127   7.441  15.052   3.642
17813W        W90128  12.545  27.114  12.831
17814W        W90129  25.224   6.894   2.883
17815W        W90130  13.988  15.575   4.473
17816W        W90131  25.638  14.512   2.813
17817W        W90132  19.719  34.524  14.886
17818W        W90133  17.500  27.796  14.276
17819W        W90134  34.997  15.650  11.163
17820W        W90135  24.944  29.618  13.009
17821W        W90136  27.078  44.817  13.813
17822W        W90137  27.159  40.485  10.608
17823W        W90138   7.041  17.054  12.484
17824W        W90139  21.050  33.922   2.368
17825W        W90140  15.183  33.155   1.240
17826W        W90141   6.366  25.007  13.464
17827W        W90142  30.574  14.335   2.231
17828W        W90143  43.300  29.033   0.686
17829W        W90144  34.593   4.915  11.062
17830W        W90145  42.994  38.877   3.638
17831W        W90146  36.537  12.687   1.450
17832W        W90147  32.981  44.867   0.441
17833W        W90148   4.887  41.945  11.618
17834W        W90149   5.716   1.165   3.396
17835W        W90150  43.225  17.183  11.234
17836W        W90151  16.900  39.286   1.297
17837W        W90152  33.059  40.405   2.302
17838W        W90153  39.266   1.485  14.736
17839W        W90154   7.404   7.747   2.360
17840W        W90155  11.188  26.633   3.504
17841W        W90156  16.088   4.907   0.881
17842W        W90157   9.801  27.579  10.696
17843W        W90158   6.236  37.921   2.670
17844W        W90159  36.819  12.950   3.597
17845W        W90160   3.510  43.370  13.102
17846W        W90161   4.949  41.353  11.211
17847W        W90162   9.335  27.431  10.924
17848W        W90163  13.881   7.184  10.750
17849W        W90164  43.851   8.848   3.331
17850W        W90165  36.409  11.681   2.773
17851W        W90166  11.400  28.570  11.644
17852W        W90167  26.440  36.534   4.559
17853W        W90168  23.968  16.662  10.722
17854W        W90169  35.541   3.367   1.316
17855W        W90170  39.753  29.223   0.715
17856W        W90171  23.208  18.428  10.978
17857W        W90172  27.423  38.388  11.529
17858W        W90173  25.678  26.855  10.231
17859W        W90174  17.590  39.598  11.761
17860W        W90175  32.484  21.955  14.579
17861W        W90176  14.316  11.191  10.678
17862W        W90177  36.581  39.068   3.300
17863W        W90178  23.025   2.864   1.275
17864W        W90179  44.734  22.666  12.869
17865W        W90180  19.582   4.151  14.204
17866W        W90181  34.202  28.053   0.100
17867W        W90182  37.095  30.193  11.896
17868W        W90183  35.971  38.087  11.736
17869W        W90184  19.168   3.261  10.254
17870W        W90185  26.575   3.778  13.378
17871W        W90186   5.736  19.927  11.167
17872W        W90187   7.925   0.114   2.230
17873W        W90188  37.850   8.131   3.612
17874W        W90189  14.325   9.835   4.327
17875W        W90190  10.582   1.375   4.607
17876W        W90191  15.741  17.816   4.213
17877W        W90192  10.872   3.834  13.103
17878W        W90193  23.447  40.502  14.025
17879W        W90194  22.117  10.184  11.714
17880W        W90195   8.356  35.029  10.757
17881W        W90196   4.314  13.588  13.350
17882W        W90197  10.281   5.012  14.918
17883W        W90198  22.385   2.599  13.211
17884W        W90199  19.283  33.552   4.668
17885W        W90200  31.453  36.860   4.425
17886W        W90201  15.060  25.596   2.696
17887W        W90202   5.219  41.336  10.745
17888W        W90203  15.158   1.461   4.435
17889W        W90204  34.404  17.379  13.280
17890W        W90205  32.596  18.174   0.373
17891W        W90206  37.410  42.584   0.805
17892W        W90207  26.031  21.729  11.308
17893W        W90208  32.138  36.050  12.429
17894W        W90209  40.359  33.878   0.449
17895W        W90210  34.166  35.415  14.030
17896W        W90211  23.655  44.035   2.868
17897W        W90212  33.930  37.156  11.526
17898W        W90213  36.080  39.056  10.569
17899W        W90214  32.031   6.105  13.361
17900W        W90215  17.173  16.612   3.452
17901W        W90216  32.133  40.975   3.121
17902W        W90217  21.101  40.999  12.572
17903W        W90218  26.874  28.699   1.888
17904W        W90219   1.392  26.666  14.426
17905W        W90220  26.642   0.844   3.144
17906W        W90221  38.949   9.680   2.188
17907W        W90222  41.421  43.224  13.528
17908W        W90223  44.274  19.409  14.708
17909W        W90224  20.876  43.729  13.396
17910W        W90225  25.249  35.521  12.467
17911W        W90226  28.567  44.491   2.238
17912W        W90227  34.033  20.821  11.201
17913W        W90228  18.597  10.323   3.304
17914W        W90229  42.068  34.579   4.293
17915W        W90230  10.863  21.677  10.308
17916W        W90231   9.149  22.015   2.896
17917W        W90232   8.276  42.526  12.866
17918W        W90233   0.958   3.215  14.303
17919W        W90234  14.510  18.208   3.155
17920W        W90235   6.835  12.083   0.768
17921W        W90236  22.921   3.645  12.933
17922W        W90237  29.794   7.970  12.912
17923W        W90238  17.127  43.844  10.393
17924W        W90239  20.764   0.707  13.054
17925W        W90240  13.249   6.782  11.133
17926W        W90241  11.046  42.502   4.810
17927W        W90242   9.823   4.506   0.344
17928W        W90243  17.124   5.890   0.940
17929W        W90244  40.946  43.056  12.507
17930W        W90245   4.957   4.152   1.349
17931W        W90246  33.364   4.349  11.984
17932W        W90247  30.977   2.479   4.973
17933W        W90248  42.789  31.645  13.499
17934W        W90249  35.315   7.906  12.135
17935W        W90250  27.899  25.135  12.769
17936W        W90251  34.305  40.288  11.539
17937W        W90252  19.817   2.431   3.091
17938W        W90253  13.583   1.474   3.774
17939W        W90254  40.388  10.799  11.601
17940W        W90255  42.613  23.206  13.780
17941W        W90256  37.476  26.204   0.805
17942W        W90257   9.716  42.073   3.285
17943W        W90258  23.328  30.075  13.987
17944W        W90259   2.800  43.852   3.282
17945W        W90260   2.244  20.764   4.793
17946W        W90261  44.637  27.758   3.609
17947W        W90262   4.845   2.880   0.965
17948W        W90263  19.467  27.096  14.028
17949W        W90264  33.417  14.647   4.478
17950W        W90265   0.729  24.597  12.937
17951W        W90266   1.467  40.966   2.018
17952W        W90267   8.680  22.789  13.839
17953W        W90268   5.276  26.535  12.487
17954W        W90269  27.919  14.036   1.428
17955W        W90270  27.134  25.637  14.002
17956W        W90271  26.554  38.271  13.513
17957W        W90272  37.392   4.214  10.635
17958W        W90273   8.867  42.375   4.092
17959W        W90274  43.766  33.646   1.054
17960W        W90275   1.282  25.066   1.831
17961W        W90276  23.109   5.508   2.314
17962W        W90277  43.955  16.104   2.383
17963W        W90278  22.346  13.513  10.310
17964W        W90279  25.167  12.384   2.517
17965W        W90280  27.447   7.860   4.162
17966W        W90281   6.222  13.097   4.515
17967W        W90282  11.205  28.209   2.403
17968W        W90283  28.525  31.358   1.801
17969W        W90284  42.901  44.306  12.158
17970W        W90285  32.175  32.055  12.052
17971W        W90286   1.054  30.420   0.265
17972W        W90287  35.951  39.310  13.474
17973W        W90288  37.984  11.673   1.858
17974W        W90289  14.807   8.586   2.891
17975W        W90290  13.273  15.750  12.950
17976W        W90291  11.804  33.614  14.977
17977W        W90292   3.308   0.583  11.152
17978W        W90293   3.300  10.628   3.551
17979W        W90294  23.243  24.231  10.660
17980W        W90295   1.915  25.216  11.102
17981W        W90296   3.218  19.585  12.462
17982W        W90297  23.730   6.895  13.008
17983W        W90298  10.107  28.038  12.148
17984W        W90299  19.591  15.547  11.137
17985W        W90300   5.098  26.468  14.124
17986W        W90301  32.538  25.653  14.232
17987W        W90302  40.861  21.730   4.273
17988W        W90303   0.344  28.539  13.786
17989W        W90304  13.870  16.358  12.137
17990W        W90305  19.582  19.261   4.752
17991W        W90306  28.674  40.333   1.658
17992W        W90307   4.795  41.976   0.974
17993W        W90308   6.367   0.701   2.803
17994W        W90309   2.881  33.869  14.923
17995W        W90310  42.440  17.087   2.733
17996W        W90311  25.556   4.301   1.934
17997W        W90312   2.470  15.195  13.103
17998W        W90313  44.441  18.553  12.033
17999W        W90314  28.387   3.699  14.780
18000W        W90315  41.556  38.997   0.787
18001W        W90316  32.892   3.349  12.571
18002W        W90317  42.571  14.262   2.698
18003W        W90318  22.539  20.763   4.737
18004W        W90319  20.807   4.765  11.074
18005W        W90320   9.693  40.734   1.946
18006W        W90321  18.471  34.993   4.158
18007W        W90322  26.517  31.925   9.809
18008W        W90323   6.850  34.647   4.582
18009W        W90324   1.507  18.542  14.158
18010W        W90325  15.584  28.002   0.347
18011W        W90326   4.291  13.069  14.887
18012W        W90327  31.070  18.726   0.247
18013W        W90328  35.623  11.313  11.374
18014W        W90329  20.543   1.709   2.703
18015W        W90330  42.279  40.388   4.583
18016W        W90331  15.677  29.099  10.724
18017W        W90332   7.857  36.042   4.682
18018W        W90333  24.623  36.101   4.130
18019W        W90334   3.889  27.679  14.245
18020W        W90335  22.167  38.483   0.323
18021W        W90336  35.468  17.267  11.558
18022W        W90337  36.910  30.036  12.334
18023W        W90338  27.056  30.928   2.665
18024W        W90339  29.436  31.670   3.772
18025W        W90340  36.296  28.818   2.021
18026W        W90341  20.601   1.967   2.224
18027W        W90342  29.584  22.852  10.738
18028W        W90343  20.138  11.801  10.232
18029W        W90344   3.096   1.008  10.562
18030W        W90345  44.534   1.959  14.276
18031W        W90346  15.285  26.604  10.038
18032W        W90347   8.144  14.806   3.270
18033W        W90348   0.720   4.477  11.638
18034W        W90349  31.531   9.067  12.068
18035W        W90350  19.979  15.068   2.356
18036W        W90351  13.790   5.564   0.808
18037W        W90352  30.062  11.241   3.371
18038W        W90353   3.221  32.217   0.738
18039W        W90354  38.940  10.566  10.713
18040W        W90355   9.476  28.777  12.134
18041W        W90356  27.493  43.329  12.965
18042W        W90357  28.946  30.829  11.465
18043W        W90358  19.531  23.531   3.089
18044W        W90359  12.440  17.127  10.242
18045W        W90360  40.648  27.733   3.117
18046W        W90361  36.304  14.804   2.195
18047W        W90362   9.791  39.945   4.641
18048W        W90363  42.019  39.820   3.118
18049W        W90364  19.864  28.487  14.820
18050W        W90365  20.032   4.488   5.110
18051W        W90366   8.422  17.012  14.288
18052W        W90367  13.782   1.747  13.514
18053W        W90368  35.502  40.594   2.353
18054W        W90369  19.483  13.230   4.621
18055W        W90370  31.226  38.397  13.389
18056W        W90371   9.104  11.583  14.876
18057W        W90372   4.804   1.551   0.925
18058W        W90373  42.828  11.584   1.814
18059W        W90374   0.226  14.464   4.489
18060W        W90375  37.164  35.964   3.352
18061W        W90376   8.867  32.155  11.159
18062W        W90377   6.256   6.193   3.643
18063W        W90378  19.733   6.018   4.303
18064W        W90379  17.109  13.672  10.451
18065W        W90380   2.462   0.286   1.400
18066W        W90381  23.438  36.092   0.374
18067W        W90382  43.032   9.578   1.860
18068W        W90383  22.815  31.310  13.907
18069W        W90384  35.851  21.025   3.296
18070W        W90385  41.491   9.418  11.820
18071W        W90386  40.499  14.306   3.914
18072W        W90387  29.145  10.731   3.772
18073W        W90388  42.255   9.166  14.417
18074W        W90389  37.923  12.734   2.843
18075W        W90390  10.695  32.166   1.248
18076W        W90391  27.905  11.874  11.926
18077W        W90392  35.688  42.873   4.559
18078W        W90393   7.734  40.522  10.780
18079W        W90394   1.475  43.760   4.249
18080W        W90395  42.275  32.934   1.414
18081W        W90396  20.165  30.681   3.618
18082W        W90397  11.718  42.348   1.375
18083W        W90398  27.219  35.970  12.630
18084W        W90399  27.578  26.733  13.258
18085W        W90400  11.075   0.369  12.067
18086W        W90401  39.310  44.887  13.554
18087W        W90402  24.979   5.461  10.351
18088W        W90403  12.736  44.018  14.383
18089W        W90404  27.374  15.157  11.741
18090W        W90405  32.076  10.571   3.673
18091W        W90406  23.130   6.265  14.288
18092W        W90407  29.625  15.549  10.258
18093W        W90408  38.827  29.241  12.878
18094W        W90409   2.963   3.691  14.490
18095W        W90410  14.479  19.275  10.726
18096W        W90411  29.212  28.368   2.412
18097W        W90412   5.843   3.719   1.323
18098W        W90413  41.527  12.569   3.590
18099W        W90414   9.841  38.643   3.900
18100W        W90415  15.126  24.012   0.261
18101W        W90416  42.267  19.048  11.167
18102W        W90417  43.992  27.598  12.126
18103W        W90418  29.953  42.729  11.081
18104W        W90419   1.889  20.644  13.707
18105W        W90420  32.071  12.931   4.156
18106W        W90421  29.092  43.715   2.400
18107W        W90422   4.295   2.421   1.398
18108W        W90423  20.960  41.533  14.561
18109W        W90424   7.254  44.082   1.703
18110W        W90425  33.567  31.873   0.998
18111W        W90426  24.473  37.906   1.963
18112W        W90427  43.322  37.235   1.695
18113W        W90428  23.599   2.423  14.758
18114W        W90429   8.966  23.621  11.079
18115W        W90430  12.863  31.884  13.965
18116W        W90431  20.648   0.058   1.788
18117W        W90432   0.374  21.562   0.892
18118W        W90433  17.988  40.839   1.336
18119W        W90434  25.012  24.831  14.264
18120W        W90435   5.230  39.053  13.536
18121W        W90436  32.642  32.423   1.782
18122W        W90437  19.635   3.872   1.021
18123W        W90438  33.592  36.159   4.181
18124W        W90439   8.152  38.293   0.291
18125W        W90440  20.580  41.416  14.897
18126W        W90441  36.248  28.942  11.642
18127W        W90442  23.385  42.266  12.615
18128W        W90443  30.380  19.225  12.871
18129W        W90444  34.504  38.452  11.663
18130W        W90445  10.723  11.246  11.325
18131W        W90446   4.554   6.989  14.967
18132W        W90447  24.022  35.111  14.340
18133W        W90448  27.019   1.220  12.094
18134W        W90449   0.876  15.181   4.269
18135W        W90450  24.692  33.463   4.361
18136W        W90451  25.156   4.450   1.385
18137W        W90452   5.533  24.516  13.718
18138W        W90453  24.498  16.204  14.323
18139W        W90454  18.097   6.777  13.667
18140W        W90455  33.455  30.724   3.332
18141W        W90456  23.280  39.603  12.407
18142W        W90457  23.903  26.611   5.106
18143W        W90458  11.108  29.561   3.177
18144W        W90459  39.943  37.327   3.932
18145W        W90460  41.604  22.304  13.772
18146W        W90461  32.561   3.542  10.329
18147W        W90462   6.926  37.528   3.491
18148W        W90463  21.990  42.396  14.733
18149W        W90464   0.936   2.484  13.182
18150W        W90465   7.227  32.868  13.094
18151W        W90466  37.935  12.682  14.338
18152W        W90467  35.095  22.192  14.187
18153W        W90468  36.045  18.504   4.842
18154W        W90469  21.074  19.914   0.973
18155W        W90470  36.970  17.626   3.218
18156W        W90471   9.910  38.966  12.924
18157W        W90472  27.720  22.424  14.818
18158W        W90473  21.332  35.498   3.671
18159W        W90474  18.532  20.977   2.449
18160W        W90475  43.757  34.580   4.335
18161W        W90476  44.759   8.665  14.539
18162W        W90477  38.089   1.173  13.340
18163W        W90478   0.467  35.737  10.469
18164W        W90479   9.204  27.658   4.435
18165W        W90480  32.729  37.777  11.015
18166W        W90481  37.544  27.530   3.835
18167W        W90482  39.331  24.189  14.771
18168W        W90483   0.904  14.151  11.213
18169W        W90484  19.168   3.844  14.347
18170W        W90485  27.233   6.738   1.937
18171W        W90486   6.689  22.737   2.347
18172W        W90487  40.768  22.073   1.037
18173W        W90488  18.466  10.775   2.779
18174W        W90489  22.057  34.596   2.949
18175W        W90490   4.717  24.692  10.648
18176W        W90491   4.302   2.280   0.884
18177W        W90492  33.597  32.141  12.397
18178W        W90493  42.601  14.379  12.610
18179W        W90494  23.060  10.852  11.942
18180W        W90495  25.070   2.239   4.231
18181W        W90496   9.775  41.279  10.977
18182W        W90497  25.740  26.421   0.926
18183W        W90498   6.924   0.402   0.251
18184W        W90499  37.893  30.193   1.911
18185W        W90500   2.460  40.234   4.286
18186W        W90501  34.812  15.478   0.770
18187W        W90502  12.708  22.866   0.180
18188W        W90503  11.367  32.459   2.252
18189W        W90504  23.529  30.039   3.885
18190W        W90505  20.482   1.523  14.380
18191W        W90506   2.302  23.496   1.957
18192W        W90507  32.282  39.093  13.435
18193W        W90508  39.092  41.930   1.300
18194W        W90509  15.188  33.349  10.992
18195W        W90510  34.828  27.196   2.815
18196W        W90511  17.082  38.268  10.247
18197W        W90512  30.121  21.405   2.238
18198W        W90513   5.980  18.136   1.712
18199W        W90514  14.281  11.839  11.203
18200W        W90515  39.427   7.934  12.600
18201W        W90516  19.748  23.588   4.658
18202W        W90517   8.231  10.636   1.399
18203W        W90518  40.566   8.155  13.066
18204W        W90519  38.007  27.596  13.249
18205W        W90520  18.280   4.317  13.548
18206W        W90521  41.344  42.253   2.417
18207W        W90522   0.607  22.012   0.796
18208W        W90523  39.624   9.291  11.672
18209W        W90524  37.653  13.635   0.362
18210W        W90525  23.678  10.688  10.614
18211W        W90526  19.500  38.499  10.734
18212W        W90527  34.137  37.378   0.011
18213W        W90528  23.904  38.622  11.133
18214W        W90529  29.955  22.675   4.826
18215W        W90530  31.110  21.225  10.662
18216W        W90531  23.698  21.285  11.184
18217W        W90532  38.514  41.341  12.832
18218W        W90533   1.032  35.531   1.911
18219W        W90534  32.811  19.144  12.993
18220W        W90535  10.334  28.030  10.095
18221W        W90536  40.414  13.638   0.289
18222W        W90537   7.719  13.711  13.963
18223W        W90538   6.064   0.895   1.622
18224W        W90539  14.644  36.126  13.398
18225W        W90540  10.854   8.833  13.378
18226W        W90541  42.110  20.838  10.097
18227W        W90542  22.087  33.336  11.184
18228W        W90543  23.663  33.265  11.625
18229W        W90544  18.575  26.884   0.348
18230W        W90545  28.869  14.826   2.683
18231W        W90546  42.900  42.806   4.606
18232W        W90547  16.109  13.035  12.644
18233W        W90548  20.029  39.150  14.821
18234W        W90549  42.710  36.249   4.975
18235W        W90550  22.740   2.711   3.453
18236W        W90551  31.657   5.738   0.068
18237W        W90552   5.145   7.624  11.655
18238W        W90553  13.145   4.099   0.038
18239W        W90554   8.868   5.598   2.246
18240W        W90555  13.906  31.612   1.177
18241W        W90556   0.498  32.962  13.588
18242W        W90557  13.715  23.554   1.740
18243W        W90558  28.263  28.223   1.155
18244W        W90559   9.096  28.601   4.169
18245W        W90560  35.004  38.378  13.341
18246W        W90561   3.267  24.504  14.660
18247W        W90562  39.353  42.852  14.892
18248W        W90563  11.457  26.478  13.111
18249W        W90564  40.212  19.833   1.434
18250W        W90565  35.911  34.051  12.449
18251W        W90566  28.521  27.594  12.504
18252W        W90567  39.402  29.798  11.711
18253W        W90568  22.696  41.896   0.983
18254W        W90569  10.102  19.666  12.405
18255W        W90570  44.857  23.635   2.364
18256W        W90571  32.011  30.845  11.541
18257W        W90572  17.104  14.636   4.607
18258W        W90573   8.629  14.164  11.643
18259W        W90574  15.022  10.774  14.309
18260W        W90575  11.238   8.268  12.182
18261W        W90576  14.231   6.866  11.011
18262W        W90577  26.934  40.587   4.083
18263W        W90578   4.865   2.359  12.539
18264W        W90579   8.219  40.868   0.273
18265W        W90580   5.893   2.682   0.080
18266W        W90581  18.536  17.234  12.911
18267W        W90582  12.217  11.084  14.045
18268W        W90583  30.573  24.772   2.792
18269W        W90584  29.946   3.847  14.813
18270W        W90585  20.135  14.404   4.682
18271W        W90586   3.428  43.511   2.398
18272W        W90587  28.077  27.444  11.570
18273W        W90588  35.020  15.990  11.584
18274W        W90589  21.541  13.777  12.379
18275W        W90590  35.384  40.041   4.815
18276W        W90591   9.460  37.831   1.195
18277W        W90592  11.610  41.792  10.357
18278W        W90593  30.012  39.294   3.236
18279W        W90594  19.130  11.787   3.163
18280W        W90595  34.765  19.260   0.332
18281W        W90596  19.639  25.724   0.891
18282W        W90597  43.002  11.745   1.363
18283W        W90598  33.872  33.680  14.448
18284W        W90599  42.788   4.413   1.342
18285W        W90600  18.728   3.753   1.445
18286W        W90601  28.550  13.527   0.857
18287W        W90602  13.773  17.105   4.268
18288W        W90603  42.289  14.380  14.242
18289W        W90604  42.863  35.143   2.442
18290W        W90605  14.221  37.044   0.508
18291W        W90606  34.700  32.011  12.099
18292W        W90607  16.406  14.296   4.113
18293W        W90608  42.814  20.080   3.080
18294W        W90609   3.476  26.640   1.323
18295W        W90610   1.669  22.270  11.168
18296W        W90611  14.257   9.297  12.256
18297W        W90612  37.494  18.362   2.306
18298W        W90613  10.813  19.419  11.636
18299W        W90614  14.901  30.498   3.186
18300W        W90615   5.812  14.999   3.268
18301W        W90616  16.205  39.530  10.862
18302W        W90617  17.820  29.629   4.196
18303W        W90618   7.440  11.760  12.859
18304W        W90619   4.492  34.135  12.029
18305W        W90620  22.281  12.460   4.159
18306W        W90621   4.118  18.810  14.590
18307W        W90622  11.361   4.201   0.506
18308W        W90623  15.527  19.954  11.574
18309W        W90624  14.510  16.913  10.404
18310W        W90625  28.579   7.672  13.297
18311W        W90626   8.383  10.138  12.900
18312W        W90627   3.412  18.587   2.848
18313W        W90628   5.756  35.049   2.935
18314W        W90629  41.268  29.524   0.476
18315W        W90630  10.641  24.422  12.446
18316W        W90631   5.763  29.857   4.214
18317W        W90632  15.328   0.117  14.969
18318W        W90633  31.433  31.837   0.678
18319W        W90634   1.216   9.129   0.492
18320W        W90635  44.685  18.827   1.839
18321W        W90636  32.615  37.766  13.454
18322W        W90637   4.992  33.040  12.721
18323W        W90638  42.256   3.386   2.174
18324W        W90639  39.019  33.399   0.177
18325W        W90640  34.074  41.190  13.586
18326W        W90641  15.213   6.114   2.313
18327W        W90642  32.651  32.100  11.102
18328W        W90643  10.151   9.650  11.608
18329W        W90644  17.702   3.144  11.260
18330W        W90645  13.356  22.624   1.801
18331W        W90646  42.305  10.222  12.544
18332W        W90647  30.713  33.404   0.529
18333W        W90648  29.141   0.656   1.043
18334W        W90649  27.256  41.605   0.104
18335W        W90650  36.610  40.840   2.344
18336W        W90651  42.034   4.348   2.684
18337W        W90652  35.064  14.074  12.493
18338W        W90653  12.611  43.519  14.287
18339W        W90654   0.532   5.844   4.639
18340W        W90655  40.332  10.197  11.494
18341W        W90656  18.858  10.828  13.094
18342W        W90657   6.027  24.035  10.135
18343W        W90658  15.651   5.388  10.595
18344W        W90659  24.992  15.144   2.868
18345W        W90660  38.554  36.468   0.231
18346W        W90661  36.665   1.715  13.369
18347W        W90662   7.940   2.139  10.802
18348W        W90663   1.222  39.979  14.885
18349W        W90664  35.409  30.888   0.524
18350W        W90665  18.519  16.084   4.199
18351W        W90666  39.131  42.627  11.566
18352W        W90667  32.929  38.572   1.274
18353W        W90668   1.012  14.845  14.510
18354W        W90669  18.685  38.536   1.369
18355W        W90670  39.061  14.895   0.298
18356W        W90671  10.723   4.886   2.116
18357W        W90672   4.262  35.138   2.789
18358W        W90673  21.983  21.135   1.750
18359W        W90674  29.923  38.456   3.859
18360W        W90675   5.956  43.302   4.067
18361W        W90676  23.205  40.339   2.813
18362W        W90677  21.156  26.908   0.806
18363W        W90678  40.933  26.115  11.611
18364W        W90679  28.401  24.387   4.457
18365W        W90680   9.779  16.349  12.534
18366W        W90681   5.620  33.373  11.105
18367W        W90682  35.012  15.096   4.610
18368W        W90683  19.100  16.950  11.523
18369W        W90684   2.947   6.608   4.799
18370W        W90685  22.611  28.841  10.809
18371W        W90686  25.987  32.845  13.897
18372W        W90687  11.692  10.741  11.891
18373W        W90688  13.695  41.211  11.482
18374W        W90689   8.936   7.425  12.519
18375W        W90690  20.491  42.827  12.031
18376W        W90691  14.569  41.313  12.925
18377W        W90692  39.554  28.894  11.432
18378W        W90693   6.822  43.004   5.033
18379W        W90694  34.654  43.849  14.033
18380W        W90695  30.654  26.246   1.010
18381W        W90696  24.145   3.821  11.148
18382W        W90697  18.181  41.268  12.453
18383W        W90698  25.247  27.474  14.369
18384W        W90699   4.215  43.727  11.712
18385W        W90700  16.333  39.014   5.505
18386W        W90701  40.121  19.563  11.623
18387W        W90702  32.561  44.922   4.456
18388W        W90703  44.087   5.238   3.470
18389W        W90704  16.496   9.437   0.083
18390W        W90705   7.678  12.164   2.681
18391W        W90706  11.495  17.801   2.338
18392W        W90707  33.863  11.662   1.883
18393W        W90708  42.960  23.316   5.328
18394W        W90709  36.898   2.843  11.084
18395W        W90710  16.353  42.491   4.593
18396W        W90711  20.355  15.746  12.402
18397W        W90712  26.957  15.549  13.046
18398W        W90713  36.676  29.434   0.240
18399W        W90714  25.582  23.860   4.036
18400W        W90715   4.979  28.146  11.977
18401W        W90716  34.353   0.281  14.885
18402W        W90717  43.258  43.304  14.587
18403W        W90718  36.326  22.251   2.641
18404W        W90719   5.873   3.705  14.922
18405W        W90720   1.433  27.127   3.261
18406W        W90721  13.465  34.481  11.118
18407W        W90722  16.472  24.791  13.840
18408W        W90723  43.556  15.093   1.787
18409W        W90724  28.229  37.598   0.219
18410W        W90725  40.835  17.230  14.536
18411W        W90726  32.479  37.224   1.335
18412W        W90727  43.369  36.358  13.566
18413W        W90728  14.793  26.246  14.619
18414W        W90729  28.410  19.767   1.903
18415W        W90730  38.034  41.522  12.017
18416W        W90731   4.899   0.155  14.429
18417W        W90732  11.322   3.658   1.395
18418W        W90733   2.285  15.631   0.679
18419W        W90734   2.765  33.799  11.758
18420W        W90735  28.864  22.705   1.620
18421W        W90736  25.131  14.678  13.092
18422W        W90737  20.547  38.376  11.195
18423W        W90738  42.049  44.694  10.667
18424W        W90739  21.593  20.072  14.547
18425W        W90740  35.509  11.026   1.379
18426W        W90741  27.005  30.960  13.511
18427W        W90742   0.079   0.444  13.131
18428W        W90743  38.895  42.855  14.647
18429W        W90744  13.135  40.722   5.064
18430W        W90745  35.146  31.503   4.548
18431W        W90746  11.815  34.688  14.903
18432W        W90747  15.082  34.606   0.614
18433W        W90748   0.715  12.353   4.091
18434W        W90749   9.292   8.199  12.966
18435W        W90750   8.099  35.853  11.895
18436W        W90751  37.362  22.045  11.528
18437W        W90752   3.479  40.538  11.667
18438W        W90753   5.368   6.699   3.659
18439W        W90754  10.738  12.706   5.098
18440W        W90755  25.568  39.002   0.368
18441W        W90756  23.537  37.307   1.469
18442W        W90757   2.376  21.817   3.145
18443W        W90758   7.350  41.164  12.520
18444W        W90759  18.790   3.829  14.722
18445W        W90760  43.862  12.107   1.781
18446W        W90761  17.116  22.622  12.453
18447W        W90762  41.837  35.390   2.657
18448W        W90763  13.989  13.789  11.978
18449W        W90764  29.903  44.393   2.694
18450W        W90765  40.092   7.891   3.127
18451W        W90766   0.748  15.086  14.139
18452W        W90767  19.436   4.141   1.827
18453W        W90768  21.605  16.561   1.538
18454W        W90769  27.118   3.362  12.866
18455W        W90770   3.009  19.452   1.450
18456W        W90771  44.970   3.457  12.577
18457W        W90772  14.634  19.307  11.611
18458W        W90773  38.433  10.086  12.863
18459W        W90774  14.090  13.893   0.471
18460W        W90775  37.005  43.817  13.991
18461W        W90776  42.514  29.279   1.533
18462W        W90777  42.044  43.919  14.182
18463W        W90778  24.211  22.240  11.465
18464W        W90779  42.481  27.194  14.705
18465W        W90780  17.233  15.663  11.185
18466W        W90781  24.396   8.766   0.986
18467W        W90782  41.024  40.731  11.166
18468W        W90783  18.017  24.499  14.842
18469W        W90784  18.088  29.391   4.587
18470W        W90785  29.071  39.758   0.382
18471W        W90786  33.433  33.415  14.386
18472W        W90787  39.832  32.456   0.715
18473W        W90788  36.636  24.635   3.732
18474W        W90789  25.558  10.622   1.938
18475W        W90790   0.751   9.607  12.016
18476W        W90791  32.957  29.903   4.311
18477W        W90792  14.971   6.345  10.844
18478W        W90793  24.687  41.628   3.729
18479W        W90794   7.359  14.581  13.152
18480W        W90795  10.893  10.429  12.346
18481W        W90796  40.997  12.595  10.606
18482W        W90797  34.381  17.497  10.605
18483W        W90798  25.810  41.567  13.056
18484W        W90799  21.491   4.788  14.029
18485W        W90800  16.554  35.403   2.838
18486W        W90801   2.085  23.504   4.104
18487W        W90802  20.081  11.008   4.152
18488W        W90803  30.623  14.152   4.082
18489W        W90804  22.218   6.112  14.600
18490W        W90805   3.813  14.142  11.153
18491W        W90806  28.560  16.139  14.865
18492W        W90807  25.074   3.120   1.826
18493W        W90808   4.184   6.257   3.302
18494W        W90809  25.122  36.988   3.363
18495W        W90810  33.960  38.256  14.323
18496W        W90811  30.340   6.650  13.544
18497W        W90812   6.148   9.909   2.096
18498W        W90813  29.801   3.606  12.269
18499W        W90814   0.402  20.931   0.057
18500W        W90815  43.768   3.904   3.852
18501W        W90816  20.762  17.690  12.560
18502W        W90817  35.577  17.237  14.777
18503W        W90818  27.386  11.910   4.848
18504W        W90819  10.388  37.388  12.619
18505W        W90820  21.346   7.671  14.717
18506W        W90821  32.001  27.229   0.730
18507W        W90822   4.811  12.277  12.916
18508W        W90823  40.135  41.579  11.986
18509W        W90824  37.102  18.581   2.767
18510W        W90825  19.296  35.773  12.008
18511W        W90826   9.085  27.064  10.600
18512W        W90827  37.889  24.699  11.878
18513W        W90828  12.437  24.697  13.783
18514W        W90829  28.067  32.557  10.762
18515W        W90830   3.395  17.269   3.341
18516W        W90831   5.880  40.567  13.581
18517W        W90832  13.722  24.272   2.904
18518W        W90833  11.832   3.203   4.137
18519W        W90834  35.078  36.560   4.474
18520W        W90835  16.126  37.006  14.896
18521W        W90836   6.174  19.151  13.879
18522W        W90837  10.783   9.183   3.854
18523W        W90838  14.453  17.773   0.676
18524W        W90839  19.743  39.380   4.862
18525W        W90840  25.448  17.281   0.711
18526W        W90841  16.701  22.456   0.833
18527W        W90842   0.270   6.022   1.172
18528W        W90843  31.103  23.700  11.022
18529W        W90844  25.269   3.596  13.544
18530W        W90845  41.349  44.521  13.330
18531W        W90846  13.073  24.613  10.800
18532W        W90847  27.414  42.720  12.511
18533W        W90848   4.614  21.034   5.249
18534W        W90849  16.670  13.812  11.253
18535W        W90850  33.901  36.415   2.241
18536W        W90851  24.738   0.570   1.170
18537W        W90852  20.578  36.095  12.531
18538W        W90853  16.087  21.613  13.972
18539W        W90854  31.856  39.357  11.547
18540W        W90855   3.708  42.919  11.595
18541W        W90856  10.665   4.677  13.384
18542W        W90857  36.714   9.224  13.965
18543W        W90858  34.896  31.472  12.419
18544W        W90859  26.836   8.236  14.967
18545W        W90860   4.305  44.473   2.761
18546W        W90861  18.600  39.151  14.947
18547W        W90862  33.991  13.053   0.051
18548W        W90863   5.149   4.472  14.090
18549W        W90864   1.662  43.047   4.881
18550W        W90865  28.668  31.032   2.161
18551W        W90866  30.615   5.384  11.313
18552W        W90867  25.623  34.542   3.171
18553W        W90868  28.685  17.660  10.717
18554W        W90869   6.890  37.428   1.247
18555W        W90870  29.623   5.176   0.522
18556W        W90871  30.005  33.844   0.711
18557W        W90872  14.505   6.810   4.620
18558W        W90873  37.541  41.432  12.133
18559W        W90874   0.388  42.852  10.368
18560W        W90875  31.290   0.741  13.454
18561W        W90876  17.833  24.113  10.815
18562W        W90877  31.594  38.788  14.266
18563W        W90878  18.675  28.089  10.270
18564W        W90879  41.061  44.992   2.777
18565W        W90880  44.677   1.013  13.902
18566W        W90881   1.398  14.678   2.336
18567W        W90882  16.791   0.319   1.974
18568W        W90883  10.553  39.832  11.521
18569W        W90884  26.270  31.554   3.736
18570W        W90885  19.147  38.822  12.385
18571W        W90886   3.867  26.888   2.292
18572W        W90887  44.964  10.164   1.810
18573W        W90888  17.694  11.348  12.648
18574W        W90889  24.130  25.992  13.398
18575W        W90890  22.341   7.682  14.861
18576W        W90891   8.326  11.418  11.704
18577W        W90892  34.119  42.449   3.874
18578W        W90893   5.381   1.377   2.163
18579W        W90894   4.308  39.556  11.574
18580W        W90895  36.206  12.379   4.735
18581W        W90896  17.700  39.616  13.436
18582W        W90897  42.506  44.878   1.163
18583W        W90898   7.934   6.813  13.104
18584W        W90899   8.425   0.906   2.427
18585W        W90900  27.921  21.115   4.968
18586W        W90901  24.705  41.943  11.037
18587W        W90902  27.258   0.484   3.648
18588W        W90903  41.479  18.612  11.130
18589W        W90904  28.097   0.747   3.301
18590W        W90905   1.352  31.638   0.816
18591W        W90906   0.819  13.717   2.703
18592W        W90907  20.684  29.693  11.566
18593W        W90908  36.426   8.422   3.211
18594W        W90909   6.640  10.789   4.101
18595W        W90910  19.651  10.321  13.788
18596W        W90911   0.999  27.592   4.135
18597W        W90912  17.656  44.894   2.363
18598W        W90913   6.435  36.040  11.109
18599W        W90914   0.896  36.462   2.142
18600W        W90915  27.037  42.537   1.982
18601W        W90916   6.451  39.998   1.764
18602W        W90917  33.121  37.887  14.221
18603W        W90918  34.816  40.496   3.253
18604W        W90919   0.514  10.629   1.489
18605W        W90920  30.503  39.600   3.149
18606W        W90921  35.982  14.333   3.166
18607W        W90922  18.949  22.753  13.891
18608W        W90923   5.034  32.999   3.263
18609W        W90924  38.099   3.746   2.920
18610W        W90925  23.989  12.674   0.478
18611W        W90926   3.778  22.482   0.966
18612W        W90927  17.633  37.283  12.985
18613W        W90928  25.765  36.603   2.868
18614W        W90929  35.059  33.580  12.598
18615W        W90930  30.581   6.678   1.316
18616W        W90931   1.538  44.806   0.288
18617W        W90932  20.548   2.641   0.246
18618W        W90933  15.593   4.241  14.408
18619W        W90934  24.419  33.762   3.609
18620W        W90935  12.784   1.009  12.648
18621W        W90936  40.621  37.450  11.238
18622W        W90937  42.454  13.908  14.406
18623W        W90938  43.689  34.948  11.988
18624W        W90939  26.601  11.972   2.183
18625W        W90940  27.964   3.905  14.986
18626W        W90941   1.744  43.008  13.521
18627W        W90942  18.218  19.094   3.205
18628W        W90943  10.928   1.227  13.912
18629W        W90944  41.879  31.484  12.566
18630W        W90945  44.095  40.877   0.133
18631W        W90946  12.111  28.196   2.378
18632W        W90947  27.632  18.002   3.771
18633W        W90948  20.720   6.831  13.915
18634W        W90949  36.693  13.247  14.871
18635W        W90950  24.200  29.591   1.712
18636W        W90951  43.538  24.619   0.629
18637W        W90952  39.842  11.758   4.393
18638W        W90953  33.880  29.778  11.728
18639W        W90954  17.786  14.162   0.694
18640W        W90955  25.139  16.054   2.709
18641W        W90956  43.029  24.036   3.580
18642W        W90957   2.293  24.259   0.425
18643W        W90958   5.147  24.777  13.467
18644W        W90959  39.287  36.486   0.790
18645W        W90960  19.047  42.369  14.851
18646W        W90961  37.466  28.419   0.919
18647W        W90962  18.611  18.297  11.222
18648W        W90963  29.479  38.276  14.372
18649W        W90964  42.540  40.787  14.810
18650W        W90965  38.484  37.368  12.965
18651W        W90966  33.248  10.843  13.463
18652W        W90967  43.372   8.183  14.449
18653W        W90968  39.915  12.660   4.052
18654W        W90969   4.276  39.546  10.662
18655W        W90970  11.595  26.689   1.726
18656W        W90971  16.183  18.155  13.570
18657W        W90972   4.219  13.790  14.312
18658W        W90973   0.846  30.509   2.633
18659W        W90974  10.651  12.571   1.445
18660W        W90975  35.310   9.901   0.823
18661W        W90976  10.869  43.044   1.670
18662W        W90977  20.231   6.156   3.574
18663W        W90978  38.555  42.597  12.431
18664W        W90979   7.060  28.572   3.288
18665W        W90980  22.505  16.692   3.652
18666W        W90981  26.982  20.692   2.720
18667W        W90982   0.388  30.655   0.317
18668W        W90983  35.527   4.963   4.127
18669W        W90984  22.937   6.141   4.144
18670W        W90985  26.052  34.643  12.527
18671W        W90986  33.903  18.791   3.309
18672W        W90987  30.917  25.762   0.401
18673W        W90988  44.354  30.067   4.863
18674W        W90989  27.201  14.565   0.525
18675W        W90990  19.010  30.266   3.956
18676W        W90991  18.392  38.450   9.977
18677W        W90992   0.714  24.630   1.222
18678W        W90993  10.438   8.172   4.036
18679W        W90994  43.829   8.403  12.286
18680W        W90995  29.088  17.576   4.565
18681W        W90996  38.213  12.131   1.832
18682W        W90997  22.171   2.263   0.394
18683W        W90998  38.611  11.344  11.933
18684W        W90999  10.032  32.710  11.637
18685W        W91000  28.447  24.309   3.211
18686W        W91001  31.202  24.168  11.702
18687W        W91002  33.768   8.591  14.814
18688W        W91003  17.142   5.273  11.513
18689W        W91004   1.931   2.995  12.330
18690W        W91005   2.946   9.128  14.407
18691W        W91006  19.724  30.028  12.001
18692W        W91007  22.627  44.307   0.729
18693W        W91008  28.484   0.991   2.259
18694W        W91009  40.607   6.714   3.315
18695W        W91010   5.452  14.759   2.432
18696W        W91011  16.760  17.347   1.359
18697W        W91012  30.021  25.160  13.456
18698W        W91013  41.096   3.423  14.393
18699W        W91014   9.492  17.100  12.211
18700W        W91015   3.822  20.265  13.785
18701W        W91016  34.509   0.889   3.553
18702W        W91017  30.882   5.163  14.811
18703W        W91018  22.727  43.442  14.122
18704W        W91019  21.113  19.299  13.173
18705W        W91020  37.550  31.834   2.678
18706W        W91021  24.743  41.001   2.761
18707W        W91022  10.270   5.015  11.892
18708W        W91023  31.134  38.226   0.096
18709W        W91024  35.618  11.767   3.102
18710W        W91025   8.385  26.215   0.711
18711W        W91026  31.977   5.959  11.982
18712W        W91027  10.295  21.928  10.649
18713W        W91028  29.844  19.486  12.842
18714W        W91029  29.911  18.958  12.085
18715W        W91030  39.513  36.552   1.323
18716W        W91031  21.649  32.069  13.398
18717W        W91032  15.698  31.456  10.671
18718W        W91033  26.650  17.155  11.518
18719W        W91034  42.560  41.959  14.339
18720W        W91035  34.543  19.766   0.453
18721W        W91036   0.824  17.285   4.234
18722W        W91037  38.602  20.615  12.424
18723W        W91038  40.507  32.106  10.636
18724W        W91039  13.580  39.335  11.040
18725W        W91040  41.240  34.303  12.949
18726W        W91041  10.074  25.615   3.792
18727W        W91042  19.082  31.685  13.372
18728W        W91043   0.730  39.864   2.150
18729W        W91044  18.658  26.437  11.141
18730W        W91045  20.367  23.894   0.546
18731W        W91046   2.249  17.676   3.531
18732W        W91047  19.179  19.149   4.411
18733W        W91048  14.605  28.706  13.302
18734W        W91049  18.065   3.276   3.045
18735W        W91050  12.571  27.558   2.835
18736W        W91051  24.269  15.801  12.925
18737W        W91052  30.087  24.152  10.653
18738W        W91053  32.456   0.453   4.591
18739W        W91054  13.125  20.116  11.905
18740W        W91055  33.892  14.701   2.689
18741W        W91056  13.038  42.781   1.415
18742W        W91057  28.526  17.653  11.998
18743W        W91058  35.854  16.553   2.290
18744W        W91059  22.639   7.102  11.741
18745W        W91060  30.334  19.795   3.365
18746W        W91061  12.628   4.354   2.598
18747W        W91062  19.755  43.779   2.662
18748W        W91063  21.167  33.182  11.062
18749W        W91064  27.331   7.850   2.737
18750W        W91065  29.015  28.139   0.699
18751W        W91066  14.830   2.200   1.921
18752W        W91067  28.512  41.428   4.503
18753W        W91068  19.992  28.423   3.351
18754W        W91069  17.137  30.228  12.932
18755W        W91070  10.797  23.071   0.388
18756W        W91071  30.905  31.726  14.540
18757W        W91072  30.017   6.232   2.765
18758W        W91073   0.971   2.791   4.212
18759W        W91074  33.533   6.230   3.094
18760W        W91075  25.631  28.772  10.056
18761W        W91076  36.549  35.577   3.263
18762W        W91077  43.996  44.832  14.149
18763W        W91078  35.910   0.967   0.397
18764W        W91079  41.620  17.855  12.437
18765W        W91080  31.667  44.430  12.175
18766W        W91081  15.640  22.139  13.887
18767W        W91082  15.085   8.674  14.816
18768W        W91083  44.730  42.036  13.001
18769W        W91084  30.632  18.365  13.695
18770W        W91085   6.407  16.210  11.498
18771W        W91086  20.499  29.441   1.292
18772W        W91087  32.120  24.318   1.213
18773W        W91088  24.010  13.851  14.432
18774W        W91089  33.609  43.906   4.949
18775W        W91090  23.526   1.144  13.782
18776W        W91091  29.371   9.767  11.181
18777W        W91092  10.207  42.345  14.819
18778W        W91093   8.405  41.251  12.384
18779W        W91094  11.649   4.848   1.716
18780W        W91095  21.138  21.102   4.648
18781W        W91096   8.127  23.554   2.090
18782W        W91097   9.141  35.568   4.406
18783W        W91098  29.682  27.697   1.707
18784W        W91099  29.334  22.627   0.837
18785W        W91100  13.147  19.516   0.450
18786W        W91101  31.700   4.644   1.346
18787W        W91102  32.978  40.378   3.804
18788W        W91103  12.058  30.627   0.259
18789W        W91104   9.407  33.076   2.191
18790W        W91105  11.236  38.885   1.097
18791W        W91106  36.337  24.035  11.060
18792W        W91107  39.411  10.128  14.336
18793W        W91108  24.671  44.540  12.128
18794W        W91109  17.264  27.514   3.218
18795W        W91110  27.443  41.204  11.505
18796W        W91111  41.364   6.634   4.893
18797W        W91112  19.177  32.856  14.814
18798W        W91113  44.362  13.913   4.770
18799W        W91114  38.755   3.781  12.285
18800W        W91115   7.181   6.807  11.902
18801W        W91116  21.651  12.755  12.528
18802W        W91117  16.811  13.512  14.058
18803W        W91118  35.171  36.560  11.971
18804W        W91119  44.330  36.319   0.493
18805W        W91120  15.281  37.319   0.037
18806W        W91121  31.113  26.986   4.920
18807W        W91122   4.631  13.924  12.139
18808W        W91123  13.726   0.048   2.815
18809W        W91124   1.331  31.235   1.155
18810W        W91125  44.404  22.120  11.167
18811W        W91126  37.175  14.330   0.770
18812W        W91127   3.674   1.755  13.590
18813W        W91128  35.909  12.102  11.109
18814W        W91129  37.071  15.723  14.862
18815W        W91130   5.453  16.119  12.558
18816W        W91131  24.515  33.012  11.716
18817W        W91132  19.071   9.976  13.380
18818W        W91133  26.375  35.967  11.445
18819W        W91134  23.725  10.651   4.163
18820W        W91135  27.628  27.936  13.819
18821W        W91136   2.630  42.234  14.925
18822W        W91137  37.499  36.392  10.758
18823W        W91138  12.873  12.805   0.346
18824W        W91139  10.359  34.298   3.111
18825W        W91140  16.685  13.373  10.493
18826W        W91141  39.580  13.775  11.124
18827W        W91142  11.295   1.398  14.968
18828W        W91143  23.196  14.678   2.896
18829W        W91144   0.192  23.540  14.462
18830W        W91145  24.759  20.645  14.924
18831W        W91146   9.942  13.867  14.770
18832W        W91147   3.466  34.089   2.252
18833W        W91148  10.139  14.747  12.026
18834W        W91149  41.834  27.841  11.472
18835W        W91150  13.301   1.081  12.513
18836W        W91151  23.550  43.924   0.888
18837W        W91152  25.702  13.617  13.486
18838W        W91153   8.272  34.925  12.945
18839W        W91154  22.787  43.384   3.518
18840W        W91155  16.764  24.547  12.120
18841W        W91156  34.018  35.486  13.526
18842W        W91157  14.043   2.445  14.920
18843W        W91158  33.133   8.607   1.181
18844W        W91159  23.170  29.586  13.915
18845W        W91160   0.513  39.365  14.934
18846W        W91161  36.959   2.345  11.212
18847W        W91162  37.705  41.946  11.374
18848W        W91163   0.456  11.658  13.186
18849W        W91164  28.328  33.790   9.779
18850W        W91165  18.823  43.254  11.633
18851W        W91166  22.176  44.457  11.677
18852W        W91167  19.583  37.429   0.225
18853W        W91168  17.753  22.577   1.978
18854W        W91169  33.732  10.379   1.464
18855W        W91170  41.021   7.122  11.572
18856W        W91171  33.372  12.202   2.678
18857W        W91172  15.131  12.120  14.388
18858W        W91173  29.099   5.286   3.963
18859W        W91174  28.266  43.018   5.158
18860W        W91175  22.829  29.595  14.331
18861W        W91176  40.220  33.575  12.863
18862W        W91177  21.551  11.553   3.074
18863W        W91178   6.793  39.692  13.128
18864W        W91179  18.285   6.401  11.456
18865W        W91180  35.003  17.135  14.555
18866W        W91181  30.678   6.270  13.459
18867W        W91182  43.213   0.870   0.846
18868W        W91183  43.928  42.510  14.024
18869W        W91184  15.461   3.614   2.810
18870W        W91185  28.907   1.849   4.199
18871W        W91186  12.386   4.361  14.039
18872W        W91187  10.287  43.897  11.838
18873W        W91188  15.338  27.997  13.605
18874W        W91189  28.590   9.949   4.117
18875W        W91190  25.212  22.783   5.070
18876W        W91191  22.257  33.136   1.260
18877W        W91192  37.566  37.633   2.803
18878W        W91193   0.811  28.235   1.251
18879W        W91194  17.014   8.210   3.377
18880W        W91195  36.782  23.563   3.707
18881W        W91196  23.223  18.207   5.089
18882W        W91197   2.507  31.861   2.915
18883W        W91198  11.514  39.854   0.377
18884W        W91199  43.684  11.785   3.644
18885W        W91200   3.286   1.033   1.516
18886W        W91201  36.754  21.288   2.899
18887W        W91202  29.897  20.376   2.361
18888W        W91203  10.374   2.991   1.595
18889W        W91204  18.456  27.105  13.953
18890W        W91205  15.371  23.883   0.698
18891W        W91206   1.946   4.967   3.654
18892W        W91207  26.715  21.874   3.744
18893W        W91208   8.171  21.623  11.883
18894W        W91209   5.129  43.672  12.390
18895W        W91210  10.325   0.646   5.054
18896W        W91211  31.982  20.083  11.026
18897W        W91212  36.392  12.647   2.453
18898W        W91213  41.926  14.321  11.112
18899W        W91214  19.534  35.792   2.610
18900W        W91215  19.316   2.580  13.477
18901W        W91216  13.410  27.226  12.043
18902W        W91217   4.626  33.922  13.084
18903W        W91218  16.687  41.938   2.851
18904W        W91219   1.701   3.985  10.403
18905W        W91220   1.180  14.564   4.274
18906W        W91221   1.358  30.185  11.109
18907W        W91222  18.075  34.349   2.399
18908W        W91223  24.651  18.974  11.980
18909W        W91224  26.230  14.758  14.455
18910W        W91225  33.080  20.010  10.778
18911W        W91226   4.776   9.853   0.700
18912W        W91227  13.839  37.413   1.779
18913W        W91228   5.042  39.143   1.024
18914W        W91229  15.381  36.592  13.482
18915W        W91230  11.692  36.861  11.064
18916W        W91231   4.410  19.118   0.375
18917W        W91232  13.385   6.416  12.500
18918W        W91233  18.743   0.885  10.411
18919W        W91234  22.397  36.095   0.308
18920W        W91235  37.405  38.044  11.209
18921W        W91236  13.159  29.150   2.261
18922W        W91237  35.947  28.922   0.386
18923W        W91238  18.758  24.176  10.710
18924W        W91239  43.940  32.492   0.330
18925W        W91240  42.828   9.134   1.286
18926W        W91241   7.954  44.774  12.045
18927W        W91242  43.330  26.940  14.176
18928W        W91243   9.757  25.592  12.434
18929W        W91244  33.892  21.446   2.962
18930W        W91245  33.392  10.581  11.094
18931W        W91246  26.954  30.447   1.259
18932W        W91247  36.123   3.217  14.443
18933W        W91248  15.770  18.039  13.925
18934W        W91249  15.569   9.822  11.093
18935W        W91250  12.801  10.423  14.007
18936W        W91251  21.168  44.840   3.965
18937W        W91252  16.949  20.704   1.577
18938W        W91253  32.853  14.775  12.131
18939W        W91254  18.585  31.592  12.097
18940W        W91255  15.325  35.397   3.609
18941W        W91256  37.112  15.451  14.422
18942W        W91257  27.120  37.411   3.105
18943W        W91258  12.724   6.317   3.318
18944W        W91259  25.123  32.056   1.317
18945W        W91260   9.967   2.234   2.794
18946W        W91261  35.390  22.027  14.593
18947W        W91262   9.399  16.711   9.793
18948W        W91263   6.904  22.105   2.758
18949W        W91264  24.252   9.690  13.732
18950W        W91265   6.068   3.653   3.900
18951W        W91266  11.032  36.482  14.411
18952W        W91267  34.940  32.166   2.353
18953W        W91268  36.446   5.639   3.736
18954W        W91269  17.601  27.862   0.223
18955W        W91270  33.055  30.868  11.934
18956W        W91271  37.257  24.969   4.269
18957W        W91272  32.684   1.894  13.414
18958W        W91273  23.565  34.335   3.287
18959W        W91274  44.892  29.474  14.330
18960W        W91275  31.535  14.162  14.785
18961W        W91276   6.420  37.392   3.522
18962W        W91277  44.445  44.396  11.582
18963W        W91278  34.959  32.013  13.086
18964W        W91279  27.759   7.864   4.624
18965W        W91280  15.485  41.625   0.884
18966W        W91281  23.967  37.821   1.943
18967W        W91282   8.369  28.757   3.763
18968W        W91283   1.848  18.438   2.496
18969W        W91284  32.579  30.191  11.154
18970W        W91285  42.908   1.296   0.833
18971W        W91286  39.048   5.817   3.846
18972W        W91287  29.168  10.626  14.963
18973W        W91288   1.252  27.210  10.607
18974W        W91289  31.970  42.012  11.005
18975W        W91290   2.910  29.860  12.477
18976W        W91291  10.160  22.828  14.010
18977W        W91292  10.450  41.617   2.665
18978W        W91293  31.314  27.166   1.218
18979W        W91294  35.994  33.381   4.092
18980W        W91295  40.531  32.565  12.855
18981W        W91296  40.231  30.466   2.994
18982W        W91297   5.932  30.521   0.344
18983W        W91298  26.956  31.520  13.499
18984W        W91299   6.573  36.552   1.792
18985W        W91300  32.902  26.459   1.512
18986W        W91301  14.398  22.346   3.288
18987W        W91302  25.808   9.398   4.660
18988W        W91303  35.506  24.489   0.732
18989W        W91304  41.591  17.354  12.482
18990W        W91305  33.043  18.216   1.690
18991W        W91306  23.824  34.561  11.937
18992W        W91307  10.837  40.136  13.877
18993W        W91308   0.123  37.069  14.252
18994W        W91309  32.432  20.731  11.595
18995W        W91310  25.050  13.657  11.994
18996W        W91311  34.173  44.014  14.002
18997W        W91312  15.113  42.275   3.612
18998W        W91313  12.220   1.192   4.884
18999W        W91314  21.604  20.499   4.315
19000W        W91315   6.448  11.163   2.140
19001W        W91316  41.973  37.513   1.919
19002W        W91317  44.242  31.124  10.693
19003W        W91318  11.318   2.506   1.795
19004W        W91319   6.112  41.030  13.643
19005W        W91320   3.448  15.645   1.366
19006W        W91321  17.204  36.560   1.498
19007W        W91322  11.298  33.073   1.824
19008W        W91323  14.616   7.657  13.339
19009W        W91324  37.965   3.284   4.188
19010W        W91325  41.922  15.734   3.830
19011W        W91326  13.360   5.386   2.650
19012W        W91327  19.099  20.595   4.707
19013W        W91328   1.406  11.687  10.968
19014W        W91329   5.032   5.225  11.154
19015W        W91330  31.456  42.845  13.429
19016W        W91331  32.069  40.066   4.862
19017W        W91332  17.183  19.799  13.492
19018W        W91333  26.614  44.796   3.712
19019W        W91334  13.780   9.290   1.978
19020W        W91335   9.672   6.453   1.750
19021W        W91336  38.514  23.322   9.802
19022W        W91337  43.282  20.555   4.209
19023W        W91338  39.819  37.350   0.914
19024W        W91339  21.301  19.764  10.417
19025W        W91340  44.461  17.622  12.177
19026W        W91341   7.022  38.493  14.928
19027W        W91342   2.240  33.783   1.424
19028W        W91343  17.074   4.277  12.450
19029W        W91344   4.297  12.764  14.452
19030W        W91345  37.500  38.424  14.007
19031W        W91346   0.047   8.260   0.366
19032W        W91347  29.420   2.207   2.228
19033W        W91348   5.684  41.833   1.845
19034W        W91349  32.606   9.862  13.930
19035W        W91350  11.543   9.561   0.175
19036W        W91351  36.101  37.439  13.916
19037W        W91352  36.824  29.914  14.328
19038W        W91353  41.779   2.854  13.450
19039W        W91354  18.531   7.769  10.610
19040W        W91355  24.521  22.220   5.092
19041W        W91356  27.000  23.655  14.793
19042W        W91357  14.017  36.640  13.124
19043W        W91358  43.004  21.694   4.163
19044W        W91359  15.549   6.796   2.282
19045W        W91360  33.367  28.542  13.765
19046W        W91361   2.702  17.280  10.736
19047W        W91362  38.377  30.645  11.983
19048W        W91363   2.357  41.772   4.242
19049W        W91364  17.103  40.104   4.475
19050W        W91365  17.128  10.302  13.943
19051W        W91366  10.424  13.641  11.622
19052W        W91367  10.593  40.103   0.660
19053W        W91368  20.726  40.830  13.821
19054W        W91369  12.204  39.859   2.564
19055W        W91370  21.592  32.969  13.730
19056W        W91371   1.904  13.315   0.361
19057W        W91372  31.818  29.916  13.327
19058W        W91373   3.274  34.505  12.016
19059W        W91374  22.525  36.552   3.174
19060W        W91375  41.276  37.175  10.694
19061W        W91376  40.097  14.203  13.185
19062W        W91377  42.577  33.833  14.153
19063W        W91378  41.782   4.312   0.410
19064W        W91379  37.814  11.084  11.910
19065W        W91380  11.673   0.779  14.347
19066W        W91381  19.648  10.262   3.487
19067W        W91382  33.831  21.179  13.522
19068W        W91383  32.000   3.514   0.405
19069W        W91384  28.550  12.277  12.307
19070W        W91385  11.313  41.035  14.237
19071W        W91386   8.579  23.419   2.811
19072W        W91387  38.476  38.105   3.283
19073W        W91388  36.951  31.481  12.368
19074W        W91389  26.030  41.563   3.899
19075W        W91390   8.392  42.284  13.308
19076W        W91391   5.208   1.820  14.046
19077W        W91392  10.363   2.585   1.279
19078W        W91393  21.391  13.045   2.348
19079W        W91394  17.524  28.380  12.984
19080W        W91395  10.384  23.746   0.946
19081W        W91396  10.260  10.244   3.383
19082W        W91397  39.579  39.319   0.879
19083W        W91398  17.284  38.956  11.105
19084W        W91399  10.180   4.255  14.540
19085W        W91400  27.621   9.677   4.142
19086W        W91401  25.197  17.781  14.844
19087W        W91402  42.378  31.042   3.394
19088W        W91403   7.753  28.912  12.659
19089W        W91404  39.357  15.093  10.716
19090W        W91405  21.644  24.280  11.999
19091W        W91406  15.826  32.456  11.625
19092W        W91407   7.724  25.891   2.930
19093W        W91408  44.442  21.064  11.145
19094W        W91409   5.477  19.408   2.205
19095W        W91410   8.816  40.757  10.661
19096W        W91411  24.055  17.174  10.790
19097W        W91412   0.781  16.658   0.340
19098W        W91413  10.283  17.670   4.818
19099W        W91414   5.901   4.904  12.415
19100W        W91415  40.848  25.148   2.058
19101W        W91416  37.672  14.286   0.990
19102W        W91417  36.949  39.039  12.829
19103W        W91418  14.031  42.953   1.719
19104W        W91419  30.888   2.407  12.864
19105W        W91420  12.662  31.401   0.531
19106W        W91421  30.972  31.974  14.063
19107W        W91422  16.584   7.471  13.324
19108W        W91423   1.735  23.307   4.845
19109W        W91424  10.148  35.635  12.785
19110W        W91425   6.296   7.255  10.579
19111W        W91426  18.380  32.217   0.435
19112W        W91427  18.324  37.763   0.690
19113W        W91428  32.364   4.867   4.601
19114W        W91429   7.561  17.077  12.507
19115W        W91430  18.265  44.097   0.027
19116W        W91431  22.141  27.896  13.126
19117W        W91432  17.525  33.021   4.180
19118W        W91433  20.537  34.251  11.386
19119W        W91434  16.859  31.409   2.757
19120W        W91435   6.888  12.153  12.130
19121W        W91436  19.817  43.456  14.414
19122W        W91437  11.481  39.024   0.155
19123W        W91438  34.165  22.230   0.237
19124W        W91439  28.048  19.875  12.200
19125W        W91440  15.194  26.395   0.906
19126W        W91441   1.210   4.138  12.513
19127W        W91442   4.479  17.406   0.199
19128W        W91443  25.534  10.177   3.726
19129W        W91444  20.245  10.273   1.779
19130W        W91445  18.963  35.243   1.922
19131W        W91446  19.640   0.391  14.411
19132W        W91447  42.680   9.970   2.815
19133W        W91448  28.449  17.022   3.789
19134W        W91449  26.633  13.777   2.437
19135W        W91450  39.867   1.161   4.713
19136W        W91451  21.473  31.624  14.366
19137W        W91452   9.941  29.030   2.090
19138W        W91453  24.961  22.666   0.408
19139W        W91454   2.249   6.768  14.244
19140W        W91455  31.623   1.747   2.176
19141W        W91456  15.249   4.238  12.459
19142W        W91457   1.249  23.205  12.379
19143W        W91458  31.414  44.969   0.448
19144W        W91459  43.347  34.975  12.367
19145W        W91460  39.680  38.799  12.849
19146W        W91461  33.960   3.073   4.613
19147W        W91462   3.630  31.422   4.733
19148W        W91463   1.480   2.251   1.321
19149W        W91464  25.191  42.834  11.054
19150W        W91465   3.766  44.824  10.701
19151W        W91466  12.271  44.256   4.270
19152W        W91467  32.155  44.923  10.617
19153W        W91468  18.408  37.943   9.923
19154W        W91469  35.130  27.897   2.267
19155W        W91470  14.826   0.877  13.167
19156W        W91471  29.847  11.210  13.583
19157W        W91472  15.810  36.532   2.688
19158W        W91473  41.929  40.610  11.634
19159W        W91474  41.496  26.676  13.504
19160W        W91475  18.909  19.840  13.817
19161W        W91476  14.934  22.579   4.327
19162W        W91477   5.804  16.071  12.955
19163W        W91478  15.187   8.378  13.521
19164W        W91479   5.439  29.885   2.409
19165W        W91480  30.964  24.755   3.127
19166W        W91481  27.600  34.255  14.872
19167W        W91482   3.931  18.457  11.612
19168W        W91483  19.098   7.699  10.660
19169W        W91484   0.931  38.398   2.365
19170W        W91485  32.337   5.799  10.709
19171W        W91486  37.597  44.450   0.222
19172W        W91487   0.100   2.669   4.823
19173W        W91488  12.195  37.427  10.614
19174W        W91489  19.573  18.090  12.082
19175W        W91490   6.374  39.774  10.181
19176W        W91491  39.740  32.943   0.408
19177W        W91492  24.761  29.280   3.459
19178W        W91493  23.977  29.958  12.421
19179W        W91494  37.163  27.875   3.829
19180W        W91495  20.203  25.275  12.271
19181W        W91496   8.589   1.013   3.895
19182W        W91497  10.392   6.219   0.424
19183W        W91498  21.561   1.196  10.681
19184W        W91499  10.251  33.141  12.538
19185W        W91500  33.597   1.691   1.408
19186W        W91501  15.165   6.304   3.357
19187W        W91502   8.338  35.363   3.669
19188W        W91503  31.361  22.138  11.446
19189W        W91504  30.983   2.316  13.923
19190W        W91505  38.544  11.834  12.218
19191W        W91506  25.470  32.852  11.640
19192W        W91507  35.451  24.933  13.935
19193W        W91508   5.449   5.735  11.175
19194W        W91509  10.997   7.855  13.464
19195W        W91510   2.871  16.190   0.196
19196W        W91511   7.200  26.312  14.836
19197W        W91512  15.646  41.499   3.646
19198W        W91513  36.731  12.058   3.551
19199W        W91514  29.396  44.962   2.241
19200W        W91515  25.240  28.017   3.477
19201W        W91516   6.479  33.103   1.333
19202W        W91517  39.111  29.484  10.890
19203W        W91518   8.224  43.903   0.482
19204W        W91519  21.118  31.866  12.503
19205W        W91520  25.026  36.938  13.817
19206W        W91521  37.527  36.841  10.514
19207W        W91522  15.846  32.633   4.840
19208W        W91523  10.896  41.343   2.727
19209W        W91524  13.573   2.659   4.506
19210W        W91525  41.274  20.689  13.977
19211W        W91526  21.607   4.245   3.848
19212W        W91527  30.034  40.940  12.487
19213W        W91528  25.581  30.483   0.804
19214W        W91529  38.403   0.377   2.556
19215W        W91530  27.277  33.903  10.900
19216W        W91531  34.267  29.430  12.030
19217W        W91532  31.569  15.206  13.791
19218W        W91533  28.538  33.866   1.665
19219W        W91534  19.509  36.793   3.507
19220W        W91535   1.420  38.770   0.358
19221W        W91536  17.169  22.050   2.703
19222W        W91537   9.646  18.820   2.330
19223W        W91538  32.024  41.502  14.334
19224W        W91539   9.083  33.167  14.881
19225W        W91540   0.822  31.199  10.717
19226W        W91541  27.550  37.440  13.395
19227W        W91542  12.241   5.840   2.295
19228W        W91543   7.808  24.236   1.256
19229W        W91544  23.709  29.805   1.791
19230W        W91545  19.086  11.541  12.380
19231W        W91546  25.837  11.903  13.929
19232W        W91547  36.553  19.192   4.517
19233W        W91548  28.915  33.915   3.652
19234W        W91549   3.815  35.635  14.947
19235W        W91550   4.000  26.110  11.593
19236W        W91551   4.955  18.306  10.715
19237W        W91552   3.165  28.656   3.248
19238W        W91553  15.644  14.834  10.615
19239W        W91554  17.860   6.382  12.468
19240W        W91555  27.258  36.539  11.610
19241W        W91556  20.864  26.068   3.193
19242W        W91557   1.060  32.915  14.407
19243W        W91558   1.487   8.638   3.188
19244W        W91559  12.309  22.624   3.884
19245W        W91560  41.001  35.958  12.467
19246W        W91561   2.404  22.778  10.801
19247W        W91562   8.920   1.311   3.664
19248W        W91563  26.563  41.509   3.135
19249W        W91564  39.388  14.679  12.319
19250W        W91565  40.918  37.242   4.100
19251W        W91566  10.780   4.781   1.604
19252W        W91567  42.910  24.440   1.866
19253W        W91568  34.952  23.114   2.749
19254W        W91569  20.431   0.296   2.201
19255W        W91570  43.290  11.571   0.416
19256W        W91571  30.093   6.227  11.511
19257W        W91572   1.019  21.672  11.670
19258W        W91573  13.716   3.377   3.751
19259W        W91574  32.603  33.370   4.793
19260W        W91575  13.056  22.826   4.545
19261W        W91576  13.330  20.514   3.811
19262W        W91577  40.677  31.141  13.918
19263W        W91578  18.624  22.139  14.483
19264W        W91579  32.427  16.816  11.010
19265W        W91580  11.326  30.715  14.754
19266W        W91581  26.109  14.913   0.680
19267W        W91582  28.848   5.436   3.519
19268W        W91583  31.253   4.174   2.587
19269W        W91584  41.486  25.001  11.169
19270W        W91585  16.637  14.860  12.622
19271W        W91586  14.005  29.670   4.120
19272W        W91587  18.296  28.167  11.889
19273W        W91588  41.420   0.816  14.585
19274W        W91589  29.928  23.974  13.973
19275W        W91590  27.676  35.837  14.850
19276W        W91591   5.566   9.359   3.735
19277W        W91592  19.894  31.363   2.967
19278W        W91593  13.309   4.590   3.134
19279W        W91594  43.109  17.261   0.804
19280W        W91595  21.711  27.122  12.751
19281W        W91596  22.159  39.443   3.958
19282W        W91597   1.414  36.128  12.431
19283W        W91598  27.316  26.225  11.612
19284W        W91599   6.908  33.831   2.697
19285W        W91600  18.292  42.492  14.338
19286W        W91601  17.868  32.313   2.578
19287W        W91602  15.109  44.397   1.471
19288W        W91603  28.910  42.007   2.214
19289W        W91604  12.701   2.524   4.640
19290W        W91605  40.068  27.781   1.234
19291W        W91606  21.671  22.127   3.424
19292W        W91607  19.634  36.523   0.205
19293W        W91608  26.617  38.565   0.543
19294W        W91609  33.703   7.241   2.422
19295W        W91610   3.851  44.069   0.686
19296W        W91611  17.801  24.081   0.524
19297W        W91612   9.411  12.121   3.666
19298W        W91613  26.153  11.724  14.940
19299W        W91614  33.916  38.184   1.319
19300W        W91615  28.042  19.071   3.317
19301W        W91616   4.411   8.934  11.575
19302W        W91617  25.012  40.199   2.972
19303W        W91618   5.983  24.138   0.366
19304W        W91619  23.082  36.790  14.863
19305W        W91620   0.516  27.619  14.531
19306W        W91621  27.130  22.662   2.883
19307W        W91622  37.122  25.719  12.997
19308W        W91623   2.947  30.418  12.435
19309W        W91624   1.931   8.215  14.872
19310W        W91625   8.641  13.189   4.198
19311W        W91626  30.495  11.412   2.068
19312W        W91627  34.490  18.291  12.814
19313W        W91628  42.559  10.925   4.042
19314W        W91629  15.794   1.407  13.982
19315W        W91630   7.756   5.429   1.199
19316W        W91631  16.703  35.718  12.033
19317W        W91632  42.124  43.252   1.210
19318W        W91633  43.364   7.235  14.333
19319W        W91634  24.468  38.575   0.862
19320W        W91635   6.528  25.447   1.297
19321W        W91636  22.849  21.044   0.338
19322W        W91637  13.524  23.813  12.134
19323W        W91638  37.512  39.662  14.224
19324W        W91639  37.983  39.323   4.201
19325W        W91640  15.099  28.217   1.252
19326W        W91641  20.241   2.316   1.368
19327W        W91642  39.280  11.266  14.385
19328W        W91643  16.769  12.806   2.649
19329W        W91644  21.564   8.194  13.635
19330W        W91645   5.979   6.349   4.584
19331W        W91646  24.421  38.377   3.174
19332W        W91647  44.002   5.889  12.294
19333W        W91648  39.500   5.105  12.105
19334W        W91649  38.865  31.979   0.996
19335W        W91650  27.069  34.616  14.515
19336W        W91651  11.160   1.166   2.240
19337W        W91652  38.027  15.191   0.666
19338W        W91653  27.427   5.964  10.571
19339W        W91654  17.653  14.608   3.092
19340W        W91655  35.398  38.728   4.504
19341W        W91656   5.657   8.806  12.078
19342W        W91657   8.992  43.554   3.751
19343W        W91658  11.841  20.177   0.735
19344W        W91659  10.787  25.361  11.732
19345W        W91660  37.117   6.876  14.377
19346W        W91661  20.793  42.997   0.873
19347W        W91662  11.654  23.278  12.562
19348W        W91663  19.672  32.150   1.328
19349W        W91664   8.290   3.400  14.762
19350W        W91665  28.618  37.860   4.794
19351W        W91666  35.100  14.137   4.543
19352W        W91667  25.016   9.915   4.356
19353W        W91668  44.708  12.824  14.854
19354W        W91669  11.453  36.767  14.260
19355W        W91670  43.396  30.931  13.483
19356W        W91671  23.927   2.947   3.370
19357W        W91672  32.499  23.291  14.913
19358W        W91673   1.838  44.828  12.491
19359W        W91674   8.915  38.071   3.936
19360W        W91675  35.869   1.420  11.427
19361W        W91676  16.658   0.071  10.563
19362W        W91677  40.247  24.012   1.842
19363W        W91678   2.237   8.900   4.073
19364W        W91679  12.121  23.901  11.874
19365W        W91680  28.001  19.492  13.902
19366W        W91681  15.286  26.618   0.456
19367W        W91682   2.763  34.382   4.830
19368W        W91683  34.506  28.943  12.049
19369W        W91684  30.896  25.213  13.486
19370W        W91685  38.388  11.132  11.176
19371W        W91686  18.165  14.594  10.285
19372W        W91687  15.215  27.418   0.005
19373W        W91688  10.276  26.901   0.436
19374W        W91689  12.260  26.686  11.217
19375W        W91690  16.632  29.430   4.607
19376W        W91691  26.475  26.866   4.630
19377W        W91692  42.066  17.665  12.209
19378W        W91693  20.680  10.486  10.563
19379W        W91694   8.160  35.355   1.316
19380W        W91695  34.345  36.818  12.414
19381W        W91696  10.853  20.601  11.757
19382W        W91697  18.651  26.961  11.158
19383W        W91698  44.857  21.065  11.468
19384W        W91699  17.780   5.362   1.797
19385W        W91700  18.003  11.246   1.706
19386W        W91701  30.395  32.411   0.506
19387W        W91702  24.188   0.015  11.881
19388W        W91703  16.172  20.586  11.076
19389W        W91704  10.189  27.814  10.927
19390W        W91705   8.323  37.070  12.522
19391W        W91706  37.863  15.834  10.384
19392W        W91707  28.954  36.832  13.439
19393W        W91708  44.623   2.377  12.451
19394W        W91709  27.847  41.447  12.898
19395W        W91710  29.133  25.679   4.833
19396W        W91711  27.932  22.678  14.405
19397W        W91712  40.502   3.281   2.876
19398W        W91713  21.643  30.668  13.384
19399W        W91714  21.013  13.162  12.958
19400W        W91715  42.280  38.332  10.390
19401W        W91716  11.130  20.520   3.710
19402W        W91717   5.186  41.963  12.068
19403W        W91718  43.772  17.742   2.436
19404W        W91719   9.264   1.584   4.138
19405W        W91720   4.399   9.194  12.894
19406W        W91721  30.960   1.446  10.697
19407W        W91722  21.969  25.728   2.541
19408W        W91723  24.502  37.524   3.753
19409W        W91724  44.651   7.864  12.930
19410W        W91725  20.712  34.821   3.394
19411W        W91726  29.250  33.128   3.325
19412W        W91727  37.923  42.961  13.191
19413W        W91728  23.982  16.385   2.490
19414W        W91729  43.256  20.531  14.602
19415W        W91730  43.207  33.500  13.016
19416W        W91731  12.092   7.393  12.220
19417W        W91732   7.208   9.787   2.804
19418W        W91733  11.209  24.645   1.780
19419W        W91734  18.078  37.334   0.484
19420W        W91735  12.199  37.810   4.474
19421W        W91736  33.792   6.812   4.521
19422W        W91737   2.174  40.642  14.016
19423W        W91738  37.601  37.419   3.280
19424W        W91739  14.502  11.874  12.623
19425W        W91740  19.703  28.721  12.523
19426W        W91741  11.270   0.880  13.422
19427W        W91742  23.747   9.951  11.939
19428W        W91743   4.944  43.487  10.610
19429W        W91744  42.511   2.525  10.840
19430W        W91745  42.959  27.261  13.912
19431W        W91746  23.500  14.843   4.184
19432W        W91747  39.229  28.781   4.502
19433W        W91748  35.956  33.363   2.250
19434W        W91749  42.439  24.407  11.946
19435W        W91750  22.719   0.254   2.635
19436W        W91751   3.790   3.279   3.783
19437W        W91752   5.511  36.637   1.722
19438W        W91753  11.026  20.277  10.091
19439W        W91754  19.028  34.016   2.044
19440W        W91755  41.780  15.757   0.966
19441W        W91756  28.472  24.521  12.492
19442W        W91757  17.315  29.334  12.643
19443W        W91758   0.764   1.432  10.720
19444W        W91759  19.328   3.200  11.629
19445W        W91760   6.373  13.860  12.551
19446W        W91761   8.886   0.296   1.298
19447W        W91762  34.103  43.834   1.380
19448W        W91763  37.330  19.240   0.365
19449W        W91764  25.653  16.099  11.667
19450W        W91765  31.111  22.682   2.272
19451W        W91766  11.595  39.489  13.507
19452W        W91767  39.515  43.577   3.124
19453W        W91768  13.878  40.339   3.131
19454W        W91769  11.599  18.852  11.477
19455W        W91770  39.772  44.585  11.444
19456W        W91771  13.454  27.138   1.601
19457W        W91772  43.043   9.828   4.645
19458W        W91773   6.841  23.770   4.781
19459W        W91774  12.041  32.444   3.330
19460W        W91775  42.372   7.670  14.639
19461W        W91776  12.990  11.884   4.713
19462W        W91777  23.068  14.933   0.538
19463W        W91778  15.752  33.343   1.200
19464W        W91779  34.702  32.928  13.111
19465W        W91780  20.252  42.913   4.369
19466W        W91781  32.313  31.896  10.168
19467W        W91782   8.349  15.076   4.559
19468W        W91783  27.921  11.087   3.952
19469W        W91784  21.722  42.115   1.889
19470W        W91785  15.384  35.584  11.953
19471W        W91786   6.924  43.814  12.328
19472W        W91787  17.765  39.901   4.194
19473W        W91788   2.758  18.734  12.823
19474W        W91789  35.063   9.160   1.218
19475W        W91790  18.613  35.052  10.633
19476W        W91791   8.784   6.227  13.141
19477W        W91792  32.957  14.250   4.630
19478W        W91793  18.996  34.663   4.513
19479W        W91794  15.512  19.302  11.623
19480W        W91795  18.731  15.895  13.965
19481W        W91796  14.755  37.498   4.835
19482W        W91797   5.018  18.264   0.205
19483W        W91798  36.119  42.929   3.759
19484W        W91799  26.501  41.394  12.387
19485W        W91800   4.800  33.349   3.645
19486W        W91801  28.962  20.253   4.203
19487W        W91802  30.543  12.644  11.418
19488W        W91803  33.968   0.374   1.499
19489W        W91804  29.673  32.012  10.102
19490W        W91805   9.654  19.272   1.254
19491W        W91806  27.120  18.495   4.644
19492W        W91807   7.941  17.269  14.321
19493W        W91808  31.777  28.433  13.886
19494W        W91809  39.864  10.118  13.623
19495W        W91810  28.044   0.493  10.527
19496W        W91811   3.900   4.272   1.663
19497W        W91812  41.965  35.800   5.131
19498W        W91813  41.373   7.175  14.969
19499W        W91814  13.006  36.739  14.872
19500W        W91815   4.432  10.257  13.819
19501W        W91816  44.459  23.200  14.855
19502W        W91817  44.855  41.577   4.130
19503W        W91818  25.665  28.904  14.574
19504W        W91819  41.254  33.430  12.822
19505W        W91820  32.010  23.044  12.882
19506W        W91821  29.550  29.035  13.864
19507W        W91822  20.243  42.588  11.409
19508W        W91823  29.305   1.352   4.022
19509W        W91824  18.296   4.590   1.748
19510W        W91825  44.089  22.981   3.339
19511W        W91826   7.393  24.953  13.447
19512W        W91827  14.201  23.747   0.875
19513W        W91828  28.609  40.339  12.410
19514W        W91829  13.146   0.511   1.597
19515W        W91830  26.517  15.316  12.879
19516W        W91831  44.131  30.892   1.867
19517W        W91832  18.504   8.367  12.265
19518W        W91833  41.481   2.536   1.305
19519W        W91834   3.648   8.662   0.941
19520W        W91835  30.195  23.909  14.433
19521W        W91836   0.991   0.721  10.580
19522W        W91837  20.022  41.096  11.607
19523W        W91838  23.141  37.039   3.638
19524W        W91839  26.852  21.605  11.926
19525W        W91840   0.014   4.902   0.048
19526W        W91841  33.915  19.972  10.660
19527W        W91842  42.944  21.090   2.282
19528W        W91843  12.605  18.242  13.831
19529W        W91844  24.697  19.918  12.535
19530W        W91845  15.873  14.841   3.208
19531W        W91846  15.328   0.972  11.956
19532W        W91847  22.462  37.000   4.631
19533W        W91848  36.450   9.913   2.231
19534W        W91849  24.434   1.822  14.823
19535W        W91850   3.162  33.924   3.214
19536W        W91851  29.169  33.853   0.904
19537W        W91852  20.422  25.883   3.372
19538W        W91853   3.894  28.621   0.208
19539W        W91854  30.032  42.465   3.804
19540W        W91855  16.608  11.118   0.780
19541W        W91856   3.494  14.217  12.886
19542W        W91857  14.356   4.910   5.109
19543W        W91858  12.284  40.860  13.127
19544W        W91859   2.447  34.528   5.199
19545W        W91860  26.015   1.873   2.393
19546W        W91861  35.390  21.568   1.232
19547W        W91862  42.498   0.163  13.894
19548W        W91863  17.457   7.279  11.028
19549W        W91864   7.963  34.801  11.115
19550W        W91865  20.015  24.330  11.399
19551W        W91866  30.077  39.355  13.281
19552W        W91867  26.882  11.439   2.195
19553W        W91868  35.430  17.616  13.316
19554W        W91869  16.610  31.370  13.442
19555W        W91870  36.929  23.887   0.857
19556W        W91871  29.557  22.690   2.275
19557W        W91872   4.324  11.275   2.884
19558W        W91873  12.198  28.390  14.384
19559W        W91874   7.708  22.503  14.185
19560W        W91875  25.173  30.170  11.922
19561W        W91876  11.325  33.921  12.393
19562W        W91877  29.410  32.533   4.163
19563W        W91878  30.036  40.032   1.000
19564W        W91879   4.440  44.900   2.460
19565W        W91880   9.848  16.508   0.914
19566W        W91881  30.421  23.678  12.571
19567W        W91882   7.040  39.771   4.073
19568W        W91883  22.820  14.301  12.658
19569W        W91884  20.113  35.277   0.875
19570W        W91885   3.028  14.138  12.137
19571W        W91886  42.751  33.297  11.066
19572W        W91887  22.178  34.369  11.191
19573W        W91888  11.719  31.681   3.724
19574W        W91889  41.631  35.024  12.663
19575W        W91890  31.548  20.962  14.367
19576W        W91891  17.634  12.676   1.773
19577W        W91892  33.431  14.055   0.170
19578W        W91893   3.726  15.261   4.322
19579W        W91894  31.755   3.269  14.393
19580W        W91895  15.125  28.961   4.092
19581W        W91896   0.130   5.428  12.168
19582W        W91897  42.255   4.749   4.651
19583W        W91898   2.330  38.078  11.144
19584W        W91899  30.736  24.577  11.012
19585W        W91900  18.950  18.729  14.296
19586W        W91901  19.697  34.146   3.235
19587W        W91902  37.688  20.570   2.225
19588W        W91903  19.194   6.856  14.950
19589W        W91904  19.563  39.933   2.352
19590W        W91905   5.705  37.359  12.729
19591W        W91906  14.439  38.315   0.533
19592W        W91907  39.351  37.873  11.954
19593W        W91908  20.537  40.822   4.656
19594W        W91909  41.371  23.581   2.993
19595W        W91910  32.399   5.981  14.562
19596W        W91911   8.860  37.530   0.249
19597W        W91912  30.602  32.628   0.959
19598W        W91913  37.422  10.139   1.967
19599W        W91914  22.673  12.249  10.734
19600W        W91915  29.063   8.594  11.348
19601W        W91916  15.168  24.057  12.626
19602W        W91917  24.429   1.185   3.083
19603W        W91918  33.224   5.363   0.535
19604W        W91919  11.215   5.334   0.940
19605W        W91920  28.052  42.056  11.101
19606W        W91921  44.541   0.236   3.182
19607W        W91922  25.733  33.137   1.403
19608W        W91923  10.122  21.766  12.438
19609W        W91924   3.065  41.873   3.246
19610W        W91925  33.637   5.322   3.436
19611W        W91926  29.953  43.434  13.003
19612W        W91927   3.690  30.697  12.934
19613W        W91928  27.147   0.765   3.200
19614W        W91929  11.268   2.273  12.075
19615W        W91930  33.633  24.374   2.975
19616W        W91931   8.217  41.672  11.110
19617W        W91932  34.295  29.354   1.572
19618W        W91933   4.334   8.686   4.614
19619W        W91934  24.161  24.178   1.366
19620W        W91935   9.755  18.105   3.187
19621W        W91936  44.979  13.987   2.357
19622W        W91937  32.009   1.712   3.310
19623W        W91938  25.064  14.228  13.344
19624W        W91939  30.553  26.665   0.729
19625W        W91940  28.023  14.185   3.752
19626W        W91941  25.724  41.572   2.655
19627W        W91942  10.708   6.507  12.979
19628W        W91943  35.973  14.249   2.648
19629W        W91944   7.154  44.461  14.361
19630W        W91945  15.942   9.922  14.627
19631W        W91946   9.322  27.098  14.411
19632W        W91947  22.585  11.919   0.232
19633W        W91948  43.887  21.589  13.398
19634W        W91949   9.174  14.316   0.700
19635W        W91950  30.330   0.506   4.141
19636W        W91951  31.937  25.685   4.231
19637W        W91952  18.058  12.220   1.714
19638W        W91953  44.196  29.880  13.842
19639W        W91954   2.255  14.223   3.599
19640W        W91955   5.305  41.959   0.822
19641W        W91956   2.788  29.087  12.160
19642W        W91957  14.670   7.956   0.371
19643W        W91958  26.234  36.925  11.032
19644W        W91959  42.024   3.174  11.229
19645W        W91960  15.157  43.292   0.057
19646W        W91961  29.170   9.321   0.310
19647W        W91962  35.397   2.876   1.454
19648W        W91963   1.506  33.604  11.893
19649W        W91964  16.648  41.321   0.272
19650W        W91965  16.183  20.298  14.560
19651W        W91966  19.746  20.971   1.429
19652W        W91967   7.383  15.436  12.083
19653W        W91968  42.738  17.187  13.988
19654W        W91969  24.020  26.764  13.901
19655W        W91970  44.907  43.993   1.501
19656W        W91971  30.091   5.375  11.303
19657W        W91972  24.098  12.890  11.488
19658W        W91973   4.160   2.811   2.171
19659W        W91974  12.288  26.864  14.587
19660W        W91975  43.044   3.119  11.988
19661W        W91976   3.317  37.381   1.739
19662W        W91977  17.650  38.320  13.017
19663W        W91978  11.765  21.352   3.657
19664W        W91979  44.328  38.817   0.258
19665W        W91980   5.002  31.939   2.158
19666W        W91981  27.873  23.683  12.549
19667W        W91982   7.134  20.493  13.939
19668W        W91983  28.229  36.349   3.276
19669W        W91984  28.509  34.288   1.354
19670W        W91985  27.654  27.323  10.788
19671W        W91986  18.626  41.148   0.953
19672W        W91987  39.764  23.875   2.785
19673W        W91988  39.745  22.970  10.523
19674W        W91989   0.158  39.404   2.234
19675W        W91990  30.607   2.317   3.114
19676W        W91991   2.689  33.316   0.928
19677W        W91992   3.250  11.608   4.144
19678W        W91993  25.591  13.272   4.078
19679W        W91994   2.914  35.157  11.716
19680W        W91995  25.813  24.657   4.757
19681W        W91996  40.338  34.716  10.432
19682W        W91997  40.670  25.562   2.862
19683W        W91998  25.150   7.808   3.092
19684W        W91999  28.686   1.729  10.769
19685W        W92000  21.382  19.582   0.743
19686W        W92001  32.689  21.876  13.340
19687W        W92002   7.220   3.213  12.641
19688W        W92003  31.911   1.335   0.452
19689W        W92004  11.623  23.401   2.685
19690W        W92005   4.509   0.559   3.631
19691W        W92006  10.389  13.365   0.353
19692W        W92007  10.189   9.583  10.760
19693W        W92008  34.852  40.943   0.018
19694W        W92009  26.445  37.328  12.585
19695W        W92010  22.323  35.562  13.559
19696W        W92011   8.158  28.195   1.251
19697W        W92012  38.246  22.038   3.313
19698W        W92013  43.986  28.007  12.445
19699W        W92014  42.997  41.321   4.451
19700W        W92015  36.272   0.538  14.564
19701W        W92016  13.590  37.041  11.519
19702W        W92017   0.086  19.438  12.636
19703W        W92018  36.175  39.095   3.651
19704W        W92019  23.936  33.147   3.589
19705W        W92020   4.405  33.589   3.293
19706W        W92021  18.790  39.363   2.371
19707W        W92022  43.056  22.133  12.501
19708W        W92023   0.748  30.476   0.666
19709W        W92024  10.293  20.199   0.491
19710W        W92025  39.322  24.215   0.288
19711W        W92026   0.336  35.501  14.240
19712W        W92027   0.224  31.891  12.769
19713W        W92028   7.641  43.385  14.273
19714W        W92029  38.426  33.699  11.567
19715W        W92030   0.830   0.969  14.507
19716W        W92031  12.326  28.607  10.639
19717W        W92032  25.185  41.482  13.973
19718W        W92033  12.680  22.967   2.281
19719W        W92034   4.626   5.610   4.214
19720W        W92035  37.804  36.630   0.790
19721W        W92036  15.636  15.687  13.414
19722W        W92037  29.795  20.269  12.083
19723W        W92038  15.675   7.626   3.137
19724W        W92039   0.972  10.618  12.440
19725W        W92040  34.667  36.104   1.921
19726W        W92041  12.233  20.733   0.315
19727W        W92042   9.191   2.323   1.796
19728W        W92043  38.911   4.257   0.672
19729W        W92044  30.625  38.025  14.247
19730W        W92045  29.253  26.552  13.823
19731W        W92046  21.305  33.616  12.042
19732W        W92047  13.104  18.027  11.991
19733W        W92048  32.599  14.272  14.904
19734W        W92049   1.847  11.960  10.930
19735W        W92050  12.934  17.350   4.510
19736W        W92051  35.007  20.058   3.501
19737W        W92052  22.394  25.328   1.853
19738W        W92053   1.851  11.308  11.583
19739W        W92054  44.979  38.007   2.952
19740W        W92055  20.670  40.030  14.367
19741W        W92056  13.892  42.287   4.225
19742W        W92057  39.395  41.712  14.941
19743W        W92058  14.997  25.459   1.395
19744W        W92059  22.544  21.206  12.431
19745W        W92060  37.089   5.816   1.267
19746W        W92061  31.563  22.557   3.597
19747W        W92062  21.012  15.864   0.712
19748W        W92063  38.891  14.625  11.165
19749W        W92064   3.378  42.319   1.797
19750W        W92065  19.134  13.771   1.068
19751W        W92066  39.397   3.839  11.630
19752W        W92067  13.118  33.039   0.158
19753W        W92068   1.959   3.172  13.356
19754W        W92069   7.295  30.911   2.862
19755W        W92070   7.481  13.559  14.428
19756W        W92071  23.798  28.871  12.818
19757W        W92072  35.477  27.821  12.940
19758W        W92073  31.688   6.319  11.246
19759W        W92074  15.867  35.079   4.180
19760W        W92075  39.590  19.065   4.497
19761W        W92076   9.958  40.276  11.279
19762W        W92077  34.879  18.593   4.117
19763W        W92078  42.770  43.904   3.527
19764W        W92079  20.035  12.956   2.613
19765W        W92080   4.705  10.930   1.680
19766W        W92081  15.690  39.473  13.082
19767W        W92082   1.801   3.774   4.619
19768W        W92083  36.459  19.582   4.865
19769W        W92084   3.730  22.737   1.915
19770W        W92085  36.974  38.227   4.151
19771W        W92086  11.542  25.709  11.977
19772W        W92087   9.870  41.781  10.796
19773W        W92088  32.368   2.388   1.346
19774W        W92089  40.721  42.574   5.056
19775W        W92090   7.708  12.140  12.643
19776W        W92091  14.859  42.298   2.611
19777W        W92092  36.473  37.993  12.564
19778W        W92093  23.679  11.463  13.396
19779W        W92094  42.263   8.738  11.454
19780W        W92095  41.821   6.266   0.002
19781W        W92096  36.909  22.013  12.960
19782W        W92097   5.358   1.217   4.036
19783W        W92098   8.093   3.921  10.790
19784W        W92099  21.992   9.768   1.014
19785W        W92100   1.897  22.866   2.960
19786W        W92101  19.519  36.126  14.435
19787W        W92102   5.552  17.328   0.300
19788W        W92103  37.343   3.751  10.359
19789W        W92104   5.015  34.515   2.214
19790W        W92105   7.329  28.966  14.907
19791W        W92106   9.751  11.334   3.869
19792W        W92107  28.054  22.397   4.127
19793W        W92108  13.377  26.708  11.540
19794W        W92109  23.759  43.381   4.656
19795W        W92110  20.688  44.585   3.491
19796W        W92111  19.747  40.812   1.885
19797W        W92112  20.580  27.134   3.312
19798W        W92113   8.226  29.010  13.084
19799W        W92114   5.370  10.848  11.206
19800W        W92115  41.598   6.827  12.939
19801W        W92116   4.279  31.078  13.836
19802W        W92117   2.936  16.002  11.857
19803W        W92118  13.883  43.774  11.418
19804W        W92119  14.042  41.252  12.960
19805W        W92120  25.505  14.704   2.364
19806W        W92121  24.311  12.754  12.438
19807W        W92122  42.975  17.205  13.134
19808W        W92123  19.086   1.743   2.267
19809W        W92124   2.579  22.257   1.014
19810W        W92125   2.986   3.358  14.108
19811W        W92126  24.080  25.395   3.684
19812W        W92127  26.166  41.402  10.678
19813W        W92128  19.741   7.338   4.280
19814W        W92129  34.996  32.633  12.459
19815W        W92130  44.356   3.468   0.883
19816W        W92131  43.947  33.051   1.209
19817W        W92132   2.899  39.889  13.981
19818W        W92133  10.445  29.957  11.949
19819W        W92134   3.245  34.586   0.839
19820W        W92135  30.733  27.762  10.606
19821W        W92136  28.862  22.282   3.103
19822W        W92137  28.685  43.435   3.142
19823W        W92138  34.114   6.288   2.256
19824W        W92139  43.013  32.910   0.912
19825W        W92140  41.564  39.890  11.219
19826W        W92141  18.776  19.519   1.551
19827W        W92142  33.994  33.241   4.132
19828W        W92143  26.237  40.370  10.662
19829W        W92144  22.773  17.785   3.584
19830W        W92145   5.351  42.181   1.646
19831W        W92146  40.259   0.053  12.004
19832W        W92147  32.733  35.122  11.152
19833W        W92148  29.109  28.497  13.359
19834W        W92149  37.275  33.369   2.829
19835W        W92150  41.497  11.802   1.413
19836W        W92151  35.039  33.096  10.382
19837W        W92152   8.609  39.803   2.850
19838W        W92153  42.387  42.886  14.334
19839W        W92154  44.327  14.322   0.814
19840W        W92155  21.758  13.775   4.754
19841W        W92156  18.163   9.197   2.907
19842W        W92157  38.415   3.733   1.545
19843W        W92158  20.320   1.659   0.319
19844W        W92159   5.526  21.797  12.807
19845W        W92160  42.415  16.461   0.290
19846W        W92161  20.583  42.295  14.729
19847W        W92162  43.690  38.112   3.721
19848W        W92163  31.573   1.725  10.823
19849W        W92164  37.455  14.848  10.974
19850W        W92165  36.804   0.179   0.354
19851W        W92166  25.406  10.152  10.621
19852W        W92167   8.729  43.707  12.914
19853W        W92168  21.924   3.815  13.836
19854W        W92169  43.155  25.417   4.769
19855W        W92170  37.694  42.865   5.042
19856W        W92171   4.450   6.497  10.999
19857W        W92172  27.131  18.209  13.929
19858W        W92173   4.668  23.436  11.901
19859W        W92174  18.723  14.679   0.713
19860W        W92175  42.941  34.204  13.414
19861W        W92176  34.352  32.626  12.871
19862W        W92177  11.497   6.187   1.261
19863W        W92178  36.371  33.761   2.845
19864W        W92179  37.947  28.223   2.766
19865W        W92180  20.020  13.686   0.428
19866W        W92181  42.454  25.222  11.434
19867W        W92182  10.671  17.538   5.162
19868W        W92183   5.275   5.533  12.614
19869W        W92184   5.983  34.581  12.059
19870W        W92185  23.768  20.615   0.013
19871W        W92186  23.282   3.322   3.985
19872W        W92187  24.417  25.028  10.912
19873W        W92188  13.977  20.215  11.389
19874W        W92189   5.521  35.506   2.291
19875W        W92190   0.481  19.103  12.866
19876W        W92191  10.331  40.546  12.493
19877W        W92192  33.565  43.803  10.995
19878W        W92193  18.577  28.354   4.956
19879W        W92194  26.871  32.442   1.384
19880W        W92195   7.686  28.482   0.988
19881W        W92196   0.044  44.335   3.403
19882W        W92197   7.200  31.434  14.268
19883W        W92198  31.624  28.249  11.718
19884W        W92199  37.861  28.351  13.016
19885W        W92200  28.482   9.115   1.801
19886W        W92201  33.943  19.795   1.703
19887W        W92202   5.120  33.412  11.111
19888W        W92203   3.185  16.020  10.623
19889W        W92204  28.919  43.035   3.372
19890W        W92205  16.687   7.915  14.330
19891W        W92206  42.384  11.655  11.359
19892W        W92207  32.332  28.205   0.527
19893W        W92208  17.104  42.868   3.229
19894W        W92209  35.320  11.860   4.604
19895W        W92210  27.050  32.932   0.734
19896W        W92211  23.384  37.252  13.629
19897W        W92212  31.623  34.942  13.477
19898W        W92213   6.165  12.423   1.876
19899W        W92214  42.325   6.546  11.048
19900W        W92215  33.092   4.492   2.731
19901W        W92216  31.386  40.508   2.834
19902W        W92217  38.026  18.623   0.057
19903W        W92218  32.525  11.168  11.086
19904W        W92219  27.698  20.715   0.847
19905W        W92220  21.160   8.626   0.943
19906W        W92221  43.823  10.396   2.197
19907W        W92222  37.729   3.399   2.802
19908W        W92223   0.434  33.092   0.330
19909W        W92224   4.700  28.478   3.480
19910W        W92225  28.463  30.127  10.440
19911W        W92226  41.954  43.036  11.321
19912W        W92227   4.178  39.385   2.873
19913W        W92228  24.268  23.645  13.727
19914W        W92229  35.389  41.813  14.427
19915W        W92230  18.560  26.533   0.744
19916W        W92231  10.557  29.735  11.500
19917W        W92232  29.128  17.114  13.591
19918W        W92233   3.232  29.765  13.391
19919W        W92234  24.755  22.909  13.496
19920W        W92235  40.567  40.866  10.383
19921W        W92236  30.456  30.254   4.503
19922W        W92237  34.152  20.891  13.851
19923W        W92238  38.522  18.271   4.188
19924W        W92239  31.148  10.300  10.430
19925W        W92240   8.936   4.662   2.424
19926W        W92241  39.419  23.584  12.472
19927W        W92242  34.426   3.074  11.061
19928W        W92243  36.876  20.556   2.774
19929W        W92244  43.103  25.077   1.354
19930W        W92245  33.109  21.797   1.680
19931W        W92246  14.646  15.119  10.753
19932W        W92247  27.589   3.908  11.115
19933W        W92248  20.976   5.390  14.713
19934W        W92249  12.044   6.294  11.414
19935W        W92250   6.834  12.880   0.273
19936W        W92251  32.917  11.712  13.501
19937W        W92252  39.536   5.472   4.598
19938W        W92253   3.854   9.960   4.633
19939W        W92254  25.062  28.089  13.332
19940W        W92255   8.847  40.663  13.109
19941W        W92256  26.427  14.104  13.820
19942W        W92257   8.377  24.669   3.092
19943W        W92258  21.046  33.348  14.774
19944W        W92259  17.358  39.369   1.004
19945W        W92260  17.536   4.840   1.358
19946W        W92261  10.972  34.208  11.501
19947W        W92262  11.175  31.202  14.771
19948W        W92263  15.143  14.844   0.315
19949W        W92264  21.801  38.426  12.125
19950W        W92265   7.142  21.744   4.445
19951W        W92266  37.665  37.467   4.156
19952W        W92267   5.918  22.655   0.322
19953W        W92268  33.666  15.958  11.909
19954W        W92269  15.208  38.849  13.975
19955W        W92270  28.694   0.476   0.821
19956W        W92271  25.616  44.803  12.989
19957W        W92272  43.191  12.391  14.664
19958W        W92273   9.121  15.112   0.246
19959W        W92274  32.094  33.813  11.908
19960W        W92275  38.091   7.685   3.428
19961W        W92276   3.447  21.175  11.137
19962W        W92277  25.630  25.618   0.267
19963W        W92278  38.358  14.072   0.386
19964W        W92279  28.091   4.399  13.067
19965W        W92280  33.948   5.138   4.048
19966W        W92281  24.330  28.757  12.779
19967W        W92282  32.337  20.162  13.942
19968W        W92283  28.856  11.290  12.809
19969W        W92284  18.107  25.459  14.004
19970W        W92285   9.036   8.961   2.411
19971W        W92286   6.989  20.087  10.756
19972W        W92287   0.001  26.040  12.800
19973W        W92288  27.302   5.790  13.282
19974W        W92289  30.340  10.364  12.535
19975W        W92290  18.686   2.963  14.502
19976W        W92291  22.626  25.044  10.157
19977W        W92292  32.463  28.062  10.019
19978W        W92293  30.530  15.221  12.817
19979W        W92294  27.647  38.232  14.466
19980W        W92295  37.514   8.362   3.898
19981W        W92296  11.605  20.687   1.790
19982W        W92297   4.728   7.898   0.475
19983W        W92298  26.153   5.248  10.865
19984W        W92299  10.707  18.886  11.603
19985W        W92300  24.350  13.314  11.569
19986W        W92301  22.938  32.493   0.764
19987W        W92302  10.979  32.858   0.899
19988W        W92303  35.176  35.365  10.782
19989W        W92304  15.672  31.325  11.178
19990W        W92305  40.573  17.203  13.206
19991W        W92306  17.117   8.928   4.629
19992W        W92307   1.879  21.804   4.354
19993W        W92308  11.849  34.163  13.562
19994W        W92309   9.413  10.821   2.227
19995W        W92310  17.794   4.190   3.845
19996W        W92311   7.183  15.832  11.801
19997W        W92312  11.753  43.493  12.461
19998W        W92313  13.775  41.434   0.467
19999W        W92314  37.897  17.292  14.821
20000W        W92315  25.461  39.895  11.508
20001W        W92316   1.662  40.907   3.276
20002W        W92317  37.236  32.036   4.002
20003W        W92318  40.817  34.676   3.594
20004W        W92319  24.544  14.112  10.721
20005W        W92320  42.183   9.939  12.948
20006W        W92321  35.524   4.097  10.778
20007W        W92322   2.151  39.007   4.620
20008W        W92323  35.406   2.688   1.959
20009W        W92324  41.415  16.510  14.846
20010W        W92325  15.590   1.916  14.894
20011W        W92326  17.684  21.161  10.890
20012W        W92327  33.920  18.831  10.697
20013W        W92328   9.365  26.136   3.709
20014W        W92329  30.635   9.371   1.726
20015W        W92330  40.948  19.600   1.794
20016W        W92331  19.712  21.112   3.140
20017W        W92332  42.895  25.054  14.377
20018W        W92333  39.054  37.792  14.947
20019W        W92334  44.838  29.256   3.117
20020W        W92335  20.161  25.205  14.926
20021W        W92336   6.069   9.443   3.638
20022W        W92337   1.241  35.993   5.464
20023W        W92338  36.149  24.166   2.302
20024W        W92339  40.507  15.541  13.519
20025W        W92340  18.807  29.400  12.503
20026W        W92341   3.035  12.131  12.945
20027W        W92342  12.252  34.050  10.506
20028W        W92343   5.842  19.551   1.717
20029W        W92344  40.815  15.525  12.937
20030W        W92345   4.819  23.086  12.452
20031W        W92346   6.238  39.205  13.153
20032W        W92347  19.104   3.934   3.659
20033W        W92348  44.054  22.013   0.801
20034W        W92349  12.187  17.199   0.852
20035W        W92350  30.635  42.289  11.930
20036W        W92351  13.612  41.565  13.048
20037W        W92352  33.599   1.236   0.435
20038W        W92353  13.594   5.264   1.183
20039W        W92354  14.555  22.248   1.801
20040W        W92355  30.864  40.422   4.917
20041W        W92356   7.462  42.983   1.235
20042W        W92357  41.083  39.068   1.802
20043W        W92358  15.702  10.383   2.331
20044W        W92359   9.697   3.660  12.556
20045W        W92360  20.850  17.536  14.018
20046W        W92361  27.767   3.134  14.462
20047W        W92362  31.523  39.755  13.056
20048W        W92363  16.417   4.416  13.052
20049W        W92364  14.048  20.475   2.716
20050W        W92365   3.293  31.513  12.886
20051W        W92366  33.244  44.784  12.086
20052W        W92367  37.934  22.534  12.096
20053W        W92368  16.223  35.960   3.210
20054W        W92369  12.572  44.251   1.269
20055W        W92370  31.834  39.311  12.772
20056W        W92371   2.328  11.300   5.837
20057W        W92372  32.286  28.691  11.308
20058W        W92373  12.362  23.022  11.971
20059W        W92374  16.620  43.204  12.613
20060W        W92375  27.276  21.244  12.691
20061W        W92376  39.493   2.771   1.330
20062W        W92377  37.642  36.925   2.134
20063W        W92378   8.386  31.479  13.710
20064W        W92379  33.664  35.396  12.986
20065W        W92380   9.974  27.069  14.042
20066W        W92381  18.345   3.232   1.692
20067W        W92382  16.039   5.255   4.292
20068W        W92383  44.886   9.162   0.627
20069W        W92384  28.046  34.375   4.050
20070W        W92385  23.515  29.074   3.176
20071W        W92386  32.487  20.246  11.809
20072W        W92387  19.678   7.542  12.746
20073W        W92388  21.410   9.048   0.215
20074W        W92389  21.720   2.169  11.588
20075W        W92390  27.140  24.795   1.409
20076W        W92391  12.355  11.739  11.655
20077W        W92392  20.705  37.971  10.921
20078W        W92393  16.114  36.866   3.569
20079W        W92394  16.303   0.833  13.487
20080W        W92395  15.604  13.129  12.525
20081W        W92396  41.813  39.361   4.162
20082W        W92397  26.604  30.813   5.083
20083W        W92398  23.808  39.013  13.227
20084W        W92399  25.505  41.271   4.537
20085W        W92400  43.890  36.473   4.170
20086W        W92401   5.918   8.244   1.962
20087W        W92402   2.264  17.554  13.380
20088W        W92403  34.849  32.510  11.998
20089W        W92404  18.485  14.579   0.270
20090W        W92405  33.044   1.992  10.789
20091W        W92406  32.319  29.003  14.438
20092W        W92407  12.231  13.889   2.184
20093W        W92408  22.919  40.680   0.075
20094W        W92409  23.985   3.975  12.174
20095W        W92410   3.729  44.416   2.807
20096W        W92411   6.394  28.149   5.028
20097W        W92412   7.823  42.457   4.078
20098W        W92413  25.026  44.278  12.558
20099W        W92414  31.074  41.828   2.402
20100W        W92415  43.589  28.746  14.164
20101W        W92416  11.179  20.840   3.234
20102W        W92417  29.640   2.673   0.893
20103W        W92418  40.269   5.377  11.567
20104W        W92419  20.791  36.345  11.370
20105W        W92420   2.570  22.013  12.888
20106W        W92421  44.231   0.557   4.016
20107W        W92422   0.862  16.235  13.889
20108W        W92423   8.759  19.281   1.716
20109W        W92424   9.795  10.733  13.360
20110W        W92425   5.288  40.952  14.357
20111W        W92426   1.858  18.998   1.701
20112W        W92427  15.767  31.972   2.939
20113W        W92428  41.915   3.203   3.845
20114W        W92429  30.833  43.328  13.983
20115W        W92430  22.011  16.561   4.618
20116W        W92431  10.069  28.550   1.868
20117W        W92432  43.892  25.474  11.713
20118W        W92433  43.537  16.760  11.981
20119W        W92434  13.150   4.439  10.827
20120W        W92435  44.203  32.960  11.166
20121W        W92436  17.692  33.386   1.929
20122W        W92437  42.986  27.926   3.694
20123W        W92438  16.222  32.941  12.891
20124W        W92439  14.634  26.583  13.786
20125W        W92440  18.726  38.944  12.156
20126W        W92441   6.775  33.100  12.994
20127W        W92442  20.525  19.154   2.398
20128W        W92443  19.322  30.233   1.872
20129W        W92444   6.092   6.329  13.578
20130W        W92445  43.677   6.717   3.651
20131W        W92446   6.620  21.066   2.315
20132W        W92447  35.343  18.168   0.010
20133W        W92448  32.478   3.982   3.361
20134W        W92449  26.257  41.818   2.725
20135W        W92450  39.849  12.168  14.310
20136W        W92451  12.721   3.843  12.020
20137W        W92452   8.310   7.577   2.335
20138W        W92453   0.039  30.272  14.812
20139W        W92454  20.750  16.035   1.876
20140W        W92455  23.201  39.994   1.674
20141W        W92456   2.830  25.801   1.323
20142W        W92457   2.226  38.894  10.765
20143W        W92458  16.829  26.235   0.506
20144W        W92459   2.616  17.733   2.678
20145W        W92460  20.708   6.327   2.907
20146W        W92461   1.714  31.907  11.447
20147W        W92462   3.337  28.152   2.253
20148W        W92463  35.580   2.393   1.430
20149W        W92464  31.051  10.825  14.903
20150W        W92465  28.179  44.805   0.955
20151W        W92466   6.592  26.017  11.962
20152W        W92467  23.680  24.957   3.153
20153W        W92468   7.336   8.342  14.828
20154W        W92469  14.817   0.769   0.339
20155W        W92470  16.191  36.072   0.711
20156W        W92471  18.025  35.476  14.494
20157W        W92472  32.978  32.075   4.601
20158W        W92473  19.237  17.607   1.301
20159W        W92474  36.678  32.280  10.594
20160W        W92475   5.214  37.234   4.041
20161W        W92476  10.687  38.028  11.531
20162W        W92477  22.945   7.930  13.867
20163W        W92478  36.401  13.650   1.685
20164W        W92479  12.929   2.314   5.078
20165W        W92480  12.795   4.963   3.310
20166W        W92481   9.813  29.944   3.702
20167W        W92482  31.483   3.620   4.730
20168W        W92483  44.144  41.525  11.673
20169W        W92484  28.151   8.263   4.071
20170W        W92485  35.061  16.285   0.031
20171W        W92486  31.042   3.867   2.178
20172W        W92487  18.344  12.067   4.543
20173W        W92488   1.859  21.162   3.694
20174W        W92489  26.312   9.359   1.869
20175W        W92490  16.775  35.511  11.558
20176W        W92491  15.300  43.945   1.303
20177W        W92492   2.812  33.135   2.739
20178W        W92493   3.316  44.366  12.955
20179W        W92494  22.582  13.250  13.977
20180W        W92495  43.229   2.302   0.302
20181W        W92496   5.382  33.599  12.458
20182W        W92497  33.398  29.849  14.374
20183W        W92498  31.234  40.977   4.287
20184W        W92499  43.089   3.059   1.368
20185W        W92500  44.564  14.798   3.199
20186W        W92501  19.103  13.132   3.790
20187W        W92502  19.585  29.652   2.704
20188W        W92503  31.445  43.324  14.406
20189W        W92504  25.065   6.230  14.278
20190W        W92505  18.091  39.205  12.476
20191W        W92506  10.771   7.603  10.719
20192W        W92507  28.151  35.456   1.732
20193W        W92508  35.180   1.557  14.910
20194W        W92509   3.944  18.473   2.284
20195W        W92510  18.212  24.006  12.542
20196W        W92511  41.814  16.995   4.020
20197W        W92512   7.893  15.095  11.009
20198W        W92513  22.502  43.865   2.252
20199W        W92514  31.545   5.412  11.426
20200W        W92515   8.469  39.491   3.238
20201W        W92516  32.397  12.813   2.026
20202W        W92517  21.549  18.054  13.463
20203W        W92518  42.307   0.666   0.526
20204W        W92519   8.726  27.615  14.198
20205W        W92520  18.255   2.188   1.309
20206W        W92521  43.681   6.794   2.302
20207W        W92522  26.973  16.485   0.230
20208W        W92523  32.655  25.852   3.751
20209W        W92524  41.686  21.786   4.221
20210W        W92525  33.579  31.940  13.384
20211W        W92526  18.126   4.423  11.059
20212W        W92527  11.210  16.872   4.370
20213W        W92528   0.872   6.207   2.159
20214W        W92529  42.053  11.259   2.775
20215W        W92530  16.124  31.431  10.968
20216W        W92531  20.135  37.846  12.712
20217W        W92532  34.921  21.465  13.477
20218W        W92533  29.481  35.320  14.780
20219W        W92534  10.317  44.293   2.774
20220W        W92535   6.184  38.901  14.935
20221W        W92536  19.501  25.436  12.883
20222W        W92537  34.932   0.977   0.706
20223W        W92538  39.853  16.632   2.726
20224W        W92539  22.591  15.685   2.716
20225W        W92540  26.640  37.101   3.225
20226W        W92541  32.624  16.487  11.936
20227W        W92542  40.878  42.025  11.574
20228W        W92543  21.446  12.597  11.462
20229W        W92544  30.193  37.558  13.902
20230W        W92545  13.837   9.439  11.013
20231W        W92546  36.569  11.641  14.226
20232W        W92547  25.458   4.495  11.764
20233W        W92548   4.380   8.002  13.882
20234W        W92549  32.340  40.757  10.774
20235W        W92550  21.217  28.406   4.104
20236W        W92551   8.700  15.230   0.514
20237W        W92552  19.314  42.965  13.021
20238W        W92553  33.865  22.649   0.242
20239W        W92554   7.850  22.576   0.430
20240W        W92555  14.523  16.492  11.186
20241W        W92556   5.511  40.335   0.018
20242W        W92557  37.290  24.845   5.197
20243W        W92558  29.481   5.219   4.299
20244W        W92559  42.589  20.195  12.090
20245W        W92560  24.596  22.792  13.990
20246W        W92561   4.874  22.126  11.355
20247W        W92562  23.749   1.686  14.507
20248W        W92563  26.010  23.725   0.550
20249W        W92564  13.438   8.589   1.905
20250W        W92565  15.547  25.677  11.662
20251W        W92566  31.362   3.402   3.798
20252W        W92567  39.267   1.334  12.940
20253W        W92568  38.093   6.820   3.403
20254W        W92569  17.856   8.131   5.591
20255W        W92570  33.651   0.836   3.370
20256W        W92571   9.901   4.209  12.030
20257W        W92572   7.871  44.117  12.554
20258W        W92573  13.708  43.747  12.852
20259W        W92574  28.009  22.663  13.415
20260W        W92575  37.011  16.130   0.626
20261W        W92576  34.980   1.849  11.204
20262W        W92577  28.073  15.345  12.951
20263W        W92578  13.362  26.437   3.789
20264W        W92579  40.282  18.230  14.720
20265W        W92580   4.399  40.560  14.438
20266W        W92581  32.886  43.082  10.973
20267W        W92582   4.657  27.968   4.251
20268W        W92583  25.483  37.367   0.969
20269W        W92584  19.350  10.865   3.734
20270W        W92585  28.931  14.305   0.896
20271W        W92586   9.337  21.905   0.807
20272W        W92587  22.290  40.763   0.907
20273W        W92588  35.898   9.296  10.721
20274W        W92589   3.721  12.693   0.756
20275W        W92590   0.565  28.510  14.303
20276W        W92591   1.777  12.231   4.765
20277W        W92592  42.415  33.534  13.361
20278W        W92593  17.233  12.664  14.028
20279W        W92594  11.307  20.187  12.586
20280W        W92595  32.121  30.679   3.371
20281W        W92596  36.101   5.874  10.745
20282W        W92597  22.300  11.390  14.393
20283W        W92598  25.941  10.260  12.510
20284W        W92599  14.212  42.585   2.106
20285W        W92600  33.464  24.016   2.655
20286W        W92601  33.597  24.556   2.487
20287W        W92602  37.962  23.319   1.373
20288W        W92603  11.966  17.710   0.714
20289W        W92604  18.307   7.266  10.818
20290W        W92605  31.517  42.227   3.478
20291W        W92606   4.601  40.065  12.886
20292W        W92607  25.075  17.280  14.875
20293W        W92608  37.358  18.580  11.393
20294W        W92609  37.392  23.523   3.038
20295W        W92610  37.909  22.038  12.253
20296W        W92611  27.530  10.299  14.441
20297W        W92612  11.276  33.542   0.429
20298W        W92613   1.753  24.406   4.187
20299W        W92614  32.120  37.109  10.911
20300W        W92615  43.309  19.762   3.998
20301W        W92616  27.228  22.057  12.786
20302W        W92617  13.289  11.210  14.828
20303W        W92618  15.088  14.130   3.202
20304W        W92619   8.676   1.229  12.610
20305W        W92620  14.096  31.924   3.881
20306W        W92621  41.418  19.506  12.590
20307W        W92622  33.537   0.761  12.035
20308W        W92623  25.119  10.781   1.669
20309W        W92624  20.193  13.898   4.531
20310W        W92625  25.939  21.064  13.404
20311W        W92626   6.010  36.093   4.375
20312W        W92627   8.960   1.871   2.248
20313W        W92628  40.629  22.863  14.096
20314W        W92629  22.245  39.088   4.328
20315W        W92630  26.549   7.655  11.997
20316W        W92631   9.157  38.384   2.696
20317W        W92632   2.756  28.018  13.032
20318W        W92633   0.494  10.191   3.602
20319W        W92634  27.866  36.724   1.787
20320W        W92635   2.958  26.407  13.483
20321W        W92636  42.924  25.606   3.926
20322W        W92637   2.188  31.760   0.409
20323W        W92638  40.492  24.614   1.870
20324W        W92639  12.232  19.192   2.527
20325W        W92640  32.404  27.559   3.934
20326W        W92641  10.161  24.065   2.835
20327W        W92642  31.591   2.660   2.329
20328W        W92643  36.982   9.237  14.837
20329W        W92644  36.392  21.678  14.366
20330W        W92645  44.486  18.242  14.850
20331W        W92646   3.353  23.037   2.150
20332W        W92647  15.491   4.407   3.896
20333W        W92648  43.960  15.864  12.433
20334W        W92649  14.579   6.736   3.325
20335W        W92650  16.534  33.709   1.313
20336W        W92651  38.117   8.439  12.962
20337W        W92652  34.719  21.643   3.396
20338W        W92653   6.377  19.301  10.829
20339W        W92654   1.514  35.910   2.145
20340W        W92655  17.233  42.774  10.509
20341W        W92656  13.856   5.604   2.712
20342W        W92657   2.209  35.591   3.269
20343W        W92658  25.941   0.763   4.258
20344W        W92659  32.944  32.646  13.456
20345W        W92660  19.703   5.156   0.324
20346W        W92661   7.226   3.005   3.118
20347W        W92662  40.928  44.320  11.888
20348W        W92663  25.111  39.454   3.408
20349W        W92664  42.014  30.664   2.249
20350W        W92665  18.184  38.288   0.715
20351W        W92666  27.566   4.852   3.534
20352W        W92667  43.736  24.093  12.064
20353W        W92668  13.830  18.529   0.968
20354W        W92669  42.693  23.757   0.889
20355W        W92670   7.134   2.555   4.122
20356W        W92671  10.413  29.711  14.879
20357W        W92672  42.178  22.741   2.279
20358W        W92673  34.325  17.593  14.599
20359W        W92674   6.868  11.597  12.635
20360W        W92675  40.460  16.783   0.028
20361W        W92676  19.138   7.292  14.114
20362W        W92677  11.397   0.987  13.937
20363W        W92678  14.067   8.634  12.431
20364W        W92679  26.062  41.032  12.953
20365W        W92680  22.799  44.528   0.296
20366W        W92681   9.587  21.691  12.545
20367W        W92682  19.114  19.111  13.055
20368W        W92683  18.509  20.135  13.641
20369W        W92684  40.102  13.662  14.049
20370W        W92685  19.986  13.102   4.652
20371W        W92686   1.439  36.037   3.241
20372W        W92687  11.633  18.348  11.560
20373W        W92688   8.640  17.674  14.867
20374W        W92689  17.125  15.222  14.481
20375W        W92690  23.616  21.964   5.453
20376W        W92691  30.962  39.372  13.364
20377W        W92692  28.662  39.454   4.261
20378W        W92693  33.314  33.431   2.434
20379W        W92694   8.523   2.972   4.224
20380W        W92695  29.397  22.733   4.042
20381W        W92696   4.379  21.189  10.704
20382W        W92697  22.138   8.972   3.219
20383W        W92698  39.481  12.577   4.328
20384W        W92699  17.628  17.510   3.705
20385W        W92700   3.785  42.012  14.255
20386W        W92701  29.862  15.918   0.690
20387W        W92702  31.591  33.655  13.858
20388W        W92703  42.263  21.173  13.911
20389W        W92704   3.447  36.551   2.358
20390W        W92705   2.442  10.134   1.993
20391W        W92706   6.716  31.322   1.126
20392W        W92707  17.121   1.432  11.453
20393W        W92708   4.710   4.418   2.653
20394W        W92709  43.270  13.258   2.305
20395W        W92710  11.581  40.420  14.775
20396W        W92711  23.921  13.299  13.582
20397W        W92712  40.882  27.896  14.387
20398W        W92713   0.432  19.102  10.884
20399W        W92714  17.679  19.328   0.870
20400W        W92715  16.918   5.743   2.903
20401W        W92716  28.541  37.567   1.941
20402W        W92717  31.379   1.750   4.079
20403W        W92718  28.107  13.792  11.967
20404W        W92719  42.778  19.714  11.435
20405W        W92720  24.716  35.942  10.697
20406W        W92721  30.615  17.287  12.548
20407W        W92722  14.420  17.857  11.507
20408W        W92723  10.700  11.394  13.959
20409W        W92724  42.074   9.954  14.367
20410W        W92725  19.982   4.770   2.911
20411W        W92726   6.749   5.749   1.167
20412W        W92727  10.834  42.109   1.795
20413W        W92728  12.808  33.823   1.895
20414W        W92729  30.920  40.941   2.384
20415W        W92730  33.085  38.840   4.603
20416W        W92731  28.900  11.304   3.685
20417W        W92732  43.597  34.554   0.673
20418W        W92733  33.566   2.810   4.376
20419W        W92734   9.130   5.497  12.478
20420W        W92735  18.089   0.751   2.258
20421W        W92736  17.536  31.025  14.793
20422W        W92737  21.243  30.619  10.618
20423W        W92738   3.238  30.821   0.308
20424W        W92739  37.304   6.859   3.812
20425W        W92740   2.579  21.202   3.336
20426W        W92741   2.170   5.518   3.635
20427W        W92742  21.616  42.822   1.253
20428W        W92743  18.944   8.247   5.456
20429W        W92744  35.602   3.163   4.484
20430W        W92745  22.498  43.588   4.488
20431W        W92746  33.216  23.274   0.158
20432W        W92747  10.209   0.631  12.006
20433W        W92748  16.260  38.348   5.009
20434W        W92749  34.354  37.563   1.872
20435W        W92750  43.656  28.136   1.069
20436W        W92751  34.685  31.120  11.156
20437W        W92752  15.739   0.915  13.170
20438W        W92753  23.592   5.944  14.075
20439W        W92754  41.943  30.693  14.824
20440W        W92755  36.460  18.686   4.589
20441W        W92756  15.209  29.407  10.220
20442W        W92757  40.847  13.563  11.631
20443W        W92758   3.436  32.761  10.649
20444W        W92759  11.325  26.994   1.375
20445W        W92760  19.634  37.282   4.948
20446W        W92761  12.145  36.939   4.120
20447W        W92762  32.315  17.134   1.123
20448W        W92763  13.636   5.879   3.159
20449W        W92764  25.711  37.440  10.075
20450W        W92765  15.756  41.818   0.447
20451W        W92766  32.406  21.985  10.425
20452W        W92767  36.616  18.539   5.078
20453W        W92768  12.782  27.831  11.150
20454W        W92769  21.224  39.830   0.385
20455W        W92770  34.512  12.692   1.965
20456W        W92771   1.995  31.390  12.097
20457W        W92772   7.727  19.025  12.551
20458W        W92773  18.247  17.735  10.508
20459W        W92774  27.141  30.893  12.052
20460W        W92775  18.658  17.736  11.234
20461W        W92776   6.563  29.133  11.130
20462W        W92777   4.912   1.321  13.372
20463W        W92778  44.399  25.429  10.638
20464W        W92779   9.942  19.616   0.974
20465W        W92780   7.503   0.417  12.478
20466W        W92781  30.452  24.974  11.183
20467W        W92782  11.142  15.868   1.192
20468W        W92783  30.218   9.209   4.456
20469W        W92784  39.302   2.767   3.744
20470W        W92785  40.690  29.616   0.388
20471W        W92786   7.654  26.940   4.968
20472W        W92787   7.427  42.495   3.731
20473W        W92788  42.522  24.598   2.187
20474W        W92789  25.574   6.160   1.795
20475W        W92790  38.993  28.652   1.723
20476W        W92791   0.304   3.385  14.957
20477W        W92792  26.084  23.754  14.565
20478W        W92793  43.288  23.886  12.215
20479W        W92794  44.308  31.775  11.275
20480W        W92795  34.965  25.272   0.860
20481W        W92796  32.873  13.058  12.509
20482W        W92797  13.096  28.586  12.819
20483W        W92798  30.017  38.339   3.361
20484W        W92799  17.421  23.221  10.368
20485W        W92800  41.517  18.558  12.911
20486W        W92801  22.941   8.611   2.920
20487W        W92802  28.677  30.331   4.281
20488W        W92803  10.925  12.723   2.719
20489W        W92804  38.812   4.941   5.431
20490W        W92805  32.802   6.733  12.873
20491W        W92806  40.784  26.730   1.276
20492W        W92807  26.139  40.736  14.338
20493W        W92808  44.385  16.112   4.159
20494W        W92809  38.088  24.154   4.439
20495W        W92810  33.082  25.471   4.643
20496W        W92811  17.557  35.669   0.673
20497W        W92812  10.574  17.804  13.435
20498W        W92813   9.825  14.629   0.781
20499W        W92814  19.796  21.990  13.925
20500W        W92815  33.362  35.478   2.930
20501W        W92816  31.654  23.949   4.108
20502W        W92817  35.035   3.037   1.931
20503W        W92818  17.180  36.368  11.464
20504W        W92819  38.216   7.180   1.349
20505W        W92820   5.402   7.172  12.032
20506W        W92821  35.884  33.912   0.248
20507W        W92822  17.133   3.724  12.437
20508W        W92823  23.086  20.620  14.411
20509W        W92824  32.105  27.531  10.318
20510W        W92825  29.654  29.399   1.342
20511W        W92826   1.959  26.452   4.070
20512W        W92827  23.525  26.445   3.096
20513W        W92828  36.604  32.653  14.010
20514W        W92829  27.543  17.453  13.892
20515W        W92830  44.245  44.423  11.090
20516W        W92831  16.830  33.590  14.437
20517W        W92832   3.287  30.281  13.373
20518W        W92833  16.585  25.338  14.363
20519W        W92834  28.948  40.532   4.277
20520W        W92835  34.919  32.375   3.702
20521W        W92836  30.442  20.551   1.324
20522W        W92837  11.251  39.629   4.767
20523W        W92838  27.456  40.085  10.731
20524W        W92839  43.298  17.674  12.887
20525W        W92840  36.856  22.467   2.380
20526W        W92841  44.433  24.682  11.486
20527W        W92842  13.827   1.352   3.314
20528W        W92843  23.272  24.086   0.567
20529W        W92844  19.014  26.050   1.806
20530W        W92845  18.582  11.296   1.740
20531W        W92846  30.153  11.337  13.977
20532W        W92847   5.842   6.425   0.816
20533W        W92848  17.184   9.587  14.034
20534W        W92849  26.626   2.882  14.311
20535W        W92850  26.054   7.450  12.917
20536W        W92851   1.728  15.783   4.016
20537W        W92852  31.447  35.973  13.039
20538W        W92853   5.269   5.856   4.708
20539W        W92854  31.381  24.493   3.316
20540W        W92855   3.949   6.487  14.451
20541W        W92856  19.709  14.119   4.568
20542W        W92857   9.566  26.216  11.937
20543W        W92858  14.044   2.886  13.788
20544W        W92859  27.795  28.797   5.073
20545W        W92860  12.236   3.240   3.829
20546W        W92861  17.275  38.559   2.721
20547W        W92862   5.852  27.608  11.942
20548W        W92863   4.313   2.911  11.278
20549W        W92864  30.937  14.160  12.035
20550W        W92865  40.434  17.821  13.959
20551W        W92866   3.225  38.014  13.510
20552W        W92867  33.788  28.926   2.801
20553W        W92868  17.207  34.090  13.832
20554W        W92869   6.378  30.938   4.561
20555W        W92870  18.639  24.570  11.618
20556W        W92871  17.261  17.536  11.587
20557W        W92872  38.968   9.226  12.484
20558W        W92873  11.495   6.720  14.427
20559W        W92874  41.967   7.741  10.820
20560W        W92875  30.385  41.983  14.729
20561W        W92876  15.395  27.113  13.078
20562W        W92877  10.658  36.896  11.922
20563W        W92878  13.922  27.114  13.056
20564W        W92879   3.546  40.424   0.679
20565W        W92880  32.486   0.475  12.961
20566W        W92881  40.243  31.648  11.859
20567W        W92882  23.202  18.009  12.630
20568W        W92883  25.607  26.195   3.622
20569W        W92884   4.281  36.835   0.303
20570W        W92885  13.601  17.241  12.882
20571W        W92886  20.253  36.174   3.204
20572W        W92887  22.740  25.606  10.409
20573W        W92888  18.720  27.549  11.932
20574W        W92889  19.045  31.169   3.243
20575W        W92890  38.089  26.036  12.130
20576W        W92891   9.343  42.044  11.631
20577W        W92892  33.818  13.865   3.045
20578W        W92893  19.515  26.891  12.088
20579W        W92894  10.175  41.346  13.307
20580W        W92895  16.582  37.804  13.754
20581W        W92896  21.130  23.398   2.826
20582W        W92897  30.712  16.587  10.878
20583W        W92898  18.746  14.587  14.389
20584W        W92899  19.508  36.004  13.557
20585W        W92900  38.419  25.694  10.180
20586W        W92901   2.945  24.653  12.632
20587W        W92902  30.850  35.560   0.856
20588W        W92903  19.814   2.025  11.943
20589W        W92904   3.258  28.542  11.516
20590W        W92905  18.783  41.908  14.847
20591W        W92906  19.772  40.405   3.219
20592W        W92907  33.519  27.170  12.528
20593W        W92908  22.097  35.063   3.679
20594W        W92909   1.975  13.239  13.504
20595W        W92910  24.555   4.559  11.461
20596W        W92911  34.906  20.137   0.395
20597W        W92912  25.012   1.266  11.993
20598W        W92913  27.260   3.370   0.445
20599W        W92914   0.445   0.320  14.709
20600W        W92915  41.835  16.631  12.760
20601W        W92916  38.534  12.426   0.945
20602W        W92917  26.657  12.088  14.728
20603W        W92918   4.753   6.850   3.624
20604W        W92919  27.427  39.701  11.115
20605W        W92920  20.665  30.225   0.894
20606W        W92921  29.300   7.082  10.800
20607W        W92922   7.706  38.725  11.079
20608W        W92923  26.056  30.278   0.740
20609W        W92924  14.862  14.334  14.564
20610W        W92925   3.733  28.397  13.334
20611W        W92926  41.850  36.916   2.718
20612W        W92927  23.531  22.835   0.388
20613W        W92928   3.517   3.713   3.766
20614W        W92929  12.362  25.457  13.976
20615W        W92930  39.092  38.243   3.598
20616W        W92931  24.868  28.913  13.796
20617W        W92932   9.796  20.154   3.620
20618W        W92933  42.544  22.362   3.319
20619W        W92934  29.885  29.034  11.003
20620W        W92935  25.007  20.701   3.888
20621W        W92936  25.997  23.435   0.028
20622W        W92937  35.801  16.097  12.371
20623W        W92938   7.793   1.468  14.909
20624W        W92939  10.802  29.038   2.137
20625W        W92940   9.775  23.536   2.924
20626W        W92941  17.760  34.815  11.139
20627W        W92942  31.907  42.624  13.583
20628W        W92943  15.720  36.358   4.795
20629W        W92944   3.381  24.153  12.198
20630W        W92945   6.362   4.698   3.849
20631W        W92946  17.897  32.495  13.317
20632W        W92947   5.210  42.947   0.430
20633W        W92948   9.904  29.945  11.994
20634W        W92949   5.799  20.619  12.595
20635W        W92950   4.888  17.611  14.908
20636W        W92951  18.033   9.955  13.934
20637W        W92952  39.005  17.820   2.782
20638W        W92953  35.459  11.305  10.882
20639W        W92954  13.935  40.829  14.222
20640W        W92955  36.922  44.112   0.794
20641W        W92956  35.092  25.088   0.382
20642W        W92957  42.468   7.389   2.213
20643W        W92958   2.145   5.410  12.578
20644W        W92959  34.676  15.564   3.086
20645W        W92960  35.839  14.707  10.754
20646W        W92961  30.342  10.810  11.091
20647W        W92962   5.385  42.060   4.591
20648W        W92963  30.136  11.467   2.872
20649W        W92964  38.796  33.682  14.245
20650W        W92965  39.110  10.717  12.888
20651W        W92966  35.367  40.319   0.794
20652W        W92967  35.529  36.648   3.745
20653W        W92968  13.503  35.384  10.695
20654W        W92969  21.677   7.170  11.492
20655W        W92970  29.895  18.478   3.232
20656W        W92971  24.422  28.692  13.951
20657W        W92972  44.391  32.945   0.944
20658W        W92973  25.493   5.854   1.349
20659W        W92974  26.014  13.047   4.817
20660W        W92975  41.878  25.691  12.704
20661W        W92976   6.680   0.385  14.716
20662W        W92977  33.564  34.155   4.120
20663W        W92978  11.466  18.681  13.516
20664W        W92979   0.881   3.183   4.936
20665W        W92980   5.183  33.072  12.216
20666W        W92981  14.777  34.883  10.734
20667W        W92982  34.203  20.352  13.734
20668W        W92983  24.310  24.610   1.685
20669W        W92984  44.257  44.883   2.297
20670W        W92985  36.366  25.561   2.386
20671W        W92986  26.986  14.513  13.086
20672W        W92987   0.108  30.430   1.974
20673W        W92988  16.225   3.274   3.326
20674W        W92989  30.082  28.489  12.451
20675W        W92990   6.310  33.385  12.861
20676W        W92991   3.237  11.657  12.906
20677W        W92992  25.386   8.381   1.717
20678W        W92993  38.553  26.240  11.332
20679W        W92994  39.109  15.872   2.313
20680W        W92995  19.259   8.129  11.639
20681W        W92996  26.980  20.809   2.216
20682W        W92997  14.134  16.344  14.475
20683W        W92998  15.731  12.751   1.693
20684W        W92999  39.838  34.454  12.396
20685W        W93000  19.122  44.221  12.211
20686W        W93001  26.902  30.002  10.512
20687W        W93002   4.413  34.834  13.619
20688W        W93003  28.272  24.513   2.645
20689W        W93004  42.437   8.659   0.721
20690W        W93005  28.504  42.296  14.777
20691W        W93006   1.717  34.925   1.873
20692W        W93007  44.556  44.894  11.478
20693W        W93008  22.694  20.464   4.326
20694W        W93009  14.278  11.266  13.786
20695W        W93010   2.408  12.615   3.685
20696W        W93011  23.094   9.823  12.394
20697W        W93012  24.535  22.590   0.753
20698W        W93013  12.861  10.694   0.500
20699W        W93014  25.636  33.429  10.475
20700W        W93015  17.740   9.184  12.004
20701W        W93016  11.503  18.752  14.901
20702W        W93017  13.829  44.398   1.750
20703W        W93018  44.609  13.438   1.813
20704W        W93019  12.154  15.347   2.286
20705W        W93020  16.224  32.189   2.825
20706W        W93021   8.012  41.208   4.170
20707W        W93022  32.377  20.319  12.306
20708W        W93023  36.595  35.041   3.161
20709W        W93024  30.514   0.898  12.442
20710W        W93025  19.044  29.695   2.768
20711W        W93026  15.619  37.304  11.618
20712W        W93027  27.423  18.828  11.003
20713W        W93028  14.351   0.866   4.534
20714W        W93029  27.222  35.914  14.595
20715W        W93030  13.653  14.114   1.166
20716W        W93031  38.032   0.266  11.889
20717W        W93032  19.144  24.481  12.434
20718W        W93033  40.089  26.188   0.002
20719W        W93034  14.994  34.238  12.497
20720W        W93035  26.712  11.636  14.974
20721W        W93036  30.596  27.939  13.563
20722W        W93037   1.979  25.396   4.137
20723W        W93038  40.892  10.433  11.111
20724W        W93039   0.565  37.347  14.905
20725W        W93040  12.612  10.362   1.445
20726W        W93041  36.371  24.935  13.882
20727W        W93042  22.845  30.825  12.020
20728W        W93043  27.310   7.094   4.438
20729W        W93044  36.303   6.808   4.695
20730W        W93045  43.006  26.453   1.292
20731W        W93046   4.241   7.010  14.541
20732W        W93047  19.930  32.589   1.377
20733W        W93048   1.467   9.196  11.403
20734W        W93049  15.377  27.156   2.225
20735W        W93050  16.862  34.819  11.087
20736W        W93051  27.224  44.823   4.171
20737W        W93052  19.957  42.155  13.039
20738W        W93053  36.865  28.420   0.290
20739W        W93054  11.778  19.194   0.798
20740W        W93055  33.055  21.130   3.339
20741W        W93056   6.681  23.991  11.001
20742W        W93057   4.291   8.274  12.918
20743W        W93058   3.244  11.631   0.629
20744W        W93059   6.424  21.518  11.988
20745W        W93060  27.966  34.173  12.247
20746W        W93061   2.436  28.954   2.646
20747W        W93062  38.553  33.497   2.298
20748W        W93063  43.513  37.780  14.277
20749W        W93064  14.859  16.513  12.896
20750W        W93065  28.655   0.550  12.434
20751W        W93066  41.499  29.914   0.125
20752W        W93067   7.709  44.509   0.061
20753W        W93068  17.886  40.996   5.159
20754W        W93069  42.526  23.694   4.538
20755W        W93070  16.167  29.150  10.548
20756W        W93071  24.648  18.452  13.985
20757W        W93072  16.783  26.778   4.550
20758W        W93073  12.598  39.818   1.324
20759W        W93074  19.135  34.799   1.682
20760W        W93075  28.526  22.813  11.517
20761W        W93076   3.000  44.360  10.686
20762W        W93077  18.271   4.244   2.623
20763W        W93078  21.293  20.663   1.699
20764W        W93079   4.166  18.176  10.907
20765W        W93080  15.824  31.104  12.571
20766W        W93081  23.955  22.524   2.836
20767W        W93082   0.649  34.115  14.930
20768W        W93083  39.350  37.522   2.988
20769W        W93084  29.846  32.978   0.709
20770W        W93085  39.503  15.127   2.890
20771W        W93086   0.651  19.276  11.580
20772W        W93087   9.049   8.047  13.420
20773W        W93088  24.285  43.085  13.488
20774W        W93089  20.304  23.217   1.703
20775W        W93090  42.072  10.609   0.268
20776W        W93091  12.581  29.474  10.374
20777W        W93092   1.290  36.563   4.743
20778W        W93093  16.611   5.088  10.632
20779W        W93094   6.485  37.512   4.346
20780W        W93095   9.035   3.044   4.211
20781W        W93096  12.815  14.602  12.132
20782W        W93097  37.541  32.019   4.940
20783W        W93098  33.544  22.453  12.132
20784W        W93099   5.331  23.520  11.281
20785W        W93100  22.506  37.352   2.819
20786W        W93101  44.203  21.191  13.468
20787W        W93102  41.982  28.219   1.652
20788W        W93103   7.117  30.435   2.169
20789W        W93104  12.777   1.712   0.019
20790W        W93105  26.940  27.360  13.392
20791W        W93106  40.553  19.225  14.950
20792W        W93107  14.324  32.140   1.757
20793W        W93108  19.970   3.829  11.977
20794W        W93109  30.131  30.062   4.883
20795W        W93110  10.039   4.029  14.067
20796W        W93111  28.655  24.988  13.423
20797W        W93112  26.168  42.814   1.560
20798W        W93113  31.519  25.148  11.314
20799W        W93114  20.155   1.993   2.499
20800W        W93115  37.768  14.927   3.388
20801W        W93116  34.522  25.088   2.929
20802W        W93117  42.910  16.572   0.116
20803W        W93118  11.401  13.661   0.891
20804W        W93119  16.011  11.262   1.916
20805W        W93120  26.022  22.928  14.912
20806W        W93121  37.707   7.129   4.915
20807W        W93122  40.121  44.792  10.496
20808W        W93123  23.275   4.502   4.542
20809W        W93124  39.362  24.650   4.210
20810W        W93125  23.682  38.891   4.626
20811W        W93126  44.162  12.385   4.207
20812W        W93127  36.647  36.949   2.413
20813W        W93128  38.007  22.479   3.209
20814W        W93129  19.778  34.895  14.341
20815W        W93130   0.706   6.322   4.601
20816W        W93131  28.304  32.789   4.971
20817W        W93132  15.585   6.691   4.613
20818W        W93133  19.339  11.726  14.446
20819W        W93134  11.442  35.216   3.205
20820W        W93135  31.453  34.534   4.102
20821W        W93136  21.957   1.869   2.367
20822W        W93137   1.249  23.021   0.771
20823W        W93138   8.415  40.467   4.324
20824W        W93139  43.163  43.836  14.763
20825W        W93140  27.096  27.222   1.765
20826W        W93141  10.663   6.967  14.643
20827W        W93142  30.016  43.855   0.431
20828W        W93143   6.183   3.006   0.382
20829W        W93144  26.293  23.716   1.904
20830W        W93145  12.752  36.842  11.667
20831W        W93146   1.235  21.445  12.858
20832W        W93147   1.802  17.346   0.881
20833W        W93148   6.509  28.042   2.360
20834W        W93149   9.945  44.795   2.308
20835W        W93150  23.204   3.499   4.459
20836W        W93151  16.687  23.614  10.586
20837W        W93152   3.753   4.974   2.851
20838W        W93153  34.009  19.640   1.212
20839W        W93154  38.545  26.734  13.321
20840W        W93155   6.217  36.179  12.632
20841W        W93156   6.952  24.462   2.185
20842W        W93157  38.142  26.112  11.612
20843W        W93158  25.719  13.248   3.202
20844W        W93159  36.021   4.456   4.753
20845W        W93160  14.610  33.912  12.983
20846W        W93161   5.883  23.278  14.219
20847W        W93162  39.858   9.896  14.492
20848W        W93163   8.194  44.331  12.220
20849W        W93164   7.681  29.137   1.926
20850W        W93165  24.481   0.126   1.304
20851W        W93166  32.367  35.577  12.479
20852W        W93167  18.837   6.023   3.168
20853W        W93168  32.522  22.251   1.474
20854W        W93169  24.167   1.800   1.208
20855W        W93170  43.740  29.193   1.675
20856W        W93171  22.213  27.114  12.000
20857W        W93172  27.378  40.609  13.271
20858W        W93173  28.219  15.332  13.470
20859W        W93174  26.542  43.861  11.876
20860W        W93175  33.467   4.608  12.760
20861W        W93176   8.262  44.005   3.579
20862W        W93177  22.258   1.491   2.570
20863W        W93178  35.558  43.957  10.748
20864W        W93179  29.079  21.760  10.798
20865W        W93180  42.323  24.250   1.831
20866W        W93181  27.422  21.999  14.855
20867W        W93182  10.692  36.986  12.854
20868W        W93183  41.547  40.031   3.061
20869W        W93184   1.970   4.485   3.450
20870W        W93185  22.889  15.022   9.811
20871W        W93186  25.056  23.153   3.359
20872W        W93187  39.589  24.584  13.433
20873W        W93188  27.074   4.723   3.627
20874W        W93189  15.196   6.293  14.052
20875W        W93190  38.021  17.675  13.901
20876W        W93191  38.450   0.785  11.284
20877W        W93192  32.527  31.902   4.435
20878W        W93193  29.086  34.622   3.255
20879W        W93194   5.974  19.710  10.765
20880W        W93195   2.952  11.319   2.221
20881W        W93196   0.040   8.429  11.651
20882W        W93197   4.415  32.407   4.383
20883W        W93198  41.976  38.754  14.537
20884W        W93199  34.088  43.549  12.931
20885W        W93200  36.334   0.995  12.052
20886W        W93201  20.310  15.358  13.613
20887W        W93202  34.954  21.815  11.160
20888W        W93203  44.378  35.213  14.380
20889W        W93204  39.336  22.497  12.543
20890W        W93205  38.836  34.104   3.361
20891W        W93206  44.417  38.829   2.668
20892W        W93207   7.927  26.159   3.890
20893W        W93208  32.838  16.415   0.789
20894W        W93209   6.817  18.076  11.273
20895W        W93210  12.079   1.966  13.008
20896W        W93211   2.887   2.944   2.210
20897W        W93212  21.735  10.662  12.474
20898W        W93213  25.985  22.493   4.879
20899W        W93214   3.726  19.315   2.696
20900W        W93215  12.128  14.839  13.037
20901W        W93216  44.487  37.772  11.637
20902W        W93217  42.734   5.335  12.620
20903W        W93218   2.068  22.324   0.893
20904W        W93219  32.624   3.424  11.326
20905W        W93220  12.278  43.285  12.428
20906W        W93221   3.362   1.472   4.628
20907W        W93222   7.915  23.991   3.717
20908W        W93223  13.287  13.343  10.665
20909W        W93224  24.931  19.800   9.791
20910W        W93225  17.166  29.749  13.399
20911W        W93226  38.932  42.174   0.434
20912W        W93227  33.702  35.457  12.085
20913W        W93228  32.047  33.257   1.708
20914W        W93229   7.374  39.849   0.253
20915W        W93230  42.475  30.342  13.578
20916W        W93231  20.487  11.733   2.850
20917W        W93232   1.821  27.013   0.380
20918W        W93233  33.103   0.273  14.055
20919W        W93234   4.646  12.899  12.559
20920W        W93235  35.979  21.719   1.709
20921W        W93236  37.927  10.707   2.078
20922W        W93237   2.881  34.523  11.059
20923W        W93238  27.461  42.058   1.319
20924W        W93239  42.842  13.494   4.553
20925W        W93240  15.227  37.899   0.147
20926W        W93241  26.737  29.387   0.584
20927W        W93242  26.955  30.534   1.768
20928W        W93243  10.764  33.023  12.936
20929W        W93244   4.476  13.109   0.852
20930W        W93245  29.480  38.499   3.060
20931W        W93246  37.131  43.615   0.867
20932W        W93247  33.929   9.894   1.630
20933W        W93248  38.486   8.565   0.498
20934W        W93249   9.815  27.999   0.494
20935W        W93250  16.742   7.160  13.689
20936W        W93251  12.723  42.037  12.791
20937W        W93252  15.776  35.185  14.286
20938W        W93253  26.075  25.692  13.522
20939W        W93254   1.427  43.043  12.001
20940W        W93255  37.362  23.136   4.380
20941W        W93256  18.695  13.287  11.120
20942W        W93257  27.714   9.425   4.628
20943W        W93258  22.856  15.080  11.299
20944W        W93259  27.345  36.568  10.729
20945W        W93260   0.496  23.988  14.495
20946W        W93261  44.266   8.191   2.842
20947W        W93262   5.112  19.659   0.416
20948W        W93263  17.997  24.246   4.598
20949W        W93264   1.207  26.524   1.821
20950W        W93265  14.440  24.339  12.970
20951W        W93266  19.774  36.170  13.968
20952W        W93267  11.531   2.230  11.334
20953W        W93268   0.906  31.642  14.710
20954W        W93269  39.792  35.850   1.353
20955W        W93270  19.582  11.887   0.927
20956W        W93271   8.229  14.223  11.214
20957W        W93272  23.725  34.070   2.874
20958W        W93273  27.010  15.092  11.376
20959W        W93274   4.443  30.006   1.324
20960W        W93275  23.065  20.522  13.040
20961W        W93276  29.545  30.466  10.221
20962W        W93277  18.814  35.615   0.028
20963W        W93278  44.798  25.557  11.400
20964W        W93279  36.888  43.802   1.285
20965W        W93280   5.289  21.611   2.186
20966W        W93281   4.909  29.173  12.089
20967W        W93282   1.801  42.829   3.648
20968W        W93283  36.801  34.899   1.370
20969W        W93284   5.200  34.541   0.875
20970W        W93285  18.164  34.075  10.701
20971W        W93286  17.785  39.503   3.850
20972W        W93287  29.405  27.212   0.448
20973W        W93288  19.983   7.709   3.275
20974W        W93289  25.670  22.444   4.140
20975W        W93290  38.936  26.581   2.324
20976W        W93291  34.863  37.385   1.844
20977W        W93292  37.070  33.541  11.121
20978W        W93293  27.460  13.854   0.485
20979W        W93294  24.599  39.506  14.306
20980W        W93295  33.038  10.245   2.681
20981W        W93296  30.989  39.798   1.715
20982W        W93297  37.448  40.460  13.277
20983W        W93298   8.432  39.920   1.612
20984W        W93299  19.461  40.005   3.174
20985W        W93300   0.789  27.087   0.235
20986W        W93301  42.798  27.682  11.600
20987W        W93302   1.710  26.672   3.670
20988W        W93303  29.189   0.724   2.806
20989W        W93304  41.744  14.052   0.582
20990W        W93305   6.819  13.927  12.801
20991W        W93306  40.780   9.877  11.685
20992W        W93307  36.048  35.936   4.227
20993W        W93308   2.438  39.855  12.927
20994W        W93309  17.320   4.784   4.363
20995W        W93310  17.210  34.794   2.718
20996W        W93311  19.067  30.194   2.338
20997W        W93312  31.299  32.087  12.297
20998W        W93313  39.623   6.398   3.904
20999W        W93314  25.020  36.823  12.427
21000W        W93315  28.560  11.737   0.491
21001W        W93316  19.866  16.096   1.716
21002W        W93317  39.765  44.435   4.011
21003W        W93318  25.329  30.442  12.300
21004W        W93319  35.850  43.574   1.365
21005W        W93320   3.663  29.911   0.541
21006W        W93321  36.044  11.331  12.509
21007W        W93322  23.951  35.320  12.047
21008W        W93323  22.680   6.369  14.538
21009W        W93324  22.431   4.050  11.560
21010W        W93325  36.616  10.061   1.756
21011W        W93326  14.664   6.842   2.366
21012W        W93327  36.413  34.208   0.951
21013W        W93328  44.757  34.582  11.922
21014W        W93329   6.234   8.235  14.447
21015W        W93330  12.705  18.263  14.778
21016W        W93331  20.133   1.423  14.004
21017W        W93332  12.509   4.909  10.880
21018W        W93333  31.450  16.279  12.184
21019W        W93334  10.317  25.534   2.808
21020W        W93335  13.858  39.018   0.004
21021W        W93336  12.813  36.530   3.636
21022W        W93337  25.082  26.654  12.981
21023W        W93338  42.433  22.304   1.852
21024W        W93339   0.053  43.380   0.808
21025W        W93340  17.289   3.342  13.284
21026W        W93341  32.268  40.915   1.331
21027W        W93342   8.678   2.753  13.134
21028W        W93343  35.541  39.869  12.904
21029W        W93344  29.172  37.743  12.101
21030W        W93345   0.585  13.664  13.772
21031W        W93346  32.904  21.051  14.771
21032W        W93347  34.913   7.576  12.274
21033W        W93348  20.922  37.075  11.213
21034W        W93349   5.674  32.084  14.877
21035W        W93350  36.065  44.444  14.787
21036W        W93351  41.056  33.639   1.208
21037W        W93352  29.211  16.090   1.259
21038W        W93353  40.523  24.054  12.912
21039W        W93354  22.249   3.422  13.977
21040W        W93355  42.295  11.532  14.735
21041W        W93356  32.157  15.110  10.911
21042W        W93357  31.102   2.455   2.412
21043W        W93358   2.700  12.249  11.634
21044W        W93359   4.220  36.088   3.114
21045W        W93360   1.779  23.914   3.984
21046W        W93361   5.779   1.054  10.699
21047W        W93362  41.011  24.679   2.833
21048W        W93363   0.787  44.395   0.784
21049W        W93364  42.133  38.385  11.265
21050W        W93365   9.928  36.365   1.885
21051W        W93366  12.115   3.664   0.320
21052W        W93367  42.237  25.497   3.097
21053W        W93368  35.268   9.729  13.041
21054W        W93369   0.929  19.710   3.550
21055W        W93370  37.480  10.750   0.158
21056W        W93371   0.854  34.915   2.886
21057W        W93372  29.386  32.392  10.704
21058W        W93373   0.953  42.322  13.424
21059W        W93374  11.580  26.748  14.960
21060W        W93375  33.133  41.400  13.511
21061W        W93376   3.187  24.068   2.480
21062W        W93377  31.084  16.568  14.457
21063W        W93378   0.035  21.561   4.585
21064W        W93379  10.481  28.408  11.438
21065W        W93380  23.132  30.986  12.448
21066W        W93381  38.398  23.931   1.818
21067W        W93382   6.776  20.220   4.111
21068W        W93383   1.968  42.901   4.488
21069W        W93384  10.199  28.661   3.629
21070W        W93385   0.014  19.729   0.719
21071W        W93386  29.434  23.727  10.513
21072W        W93387   3.141  15.351  11.201
21073W        W93388   9.225  16.099   4.887
21074W        W93389   4.108   5.936  12.640
21075W        W93390  18.973  12.722  11.326
21076W        W93391  32.662  14.398   3.458
21077W        W93392  12.855  36.358  12.444
21078W        W93393  24.009  44.813  10.556
21079W        W93394  26.930  39.059   2.401
21080W        W93395  20.712  41.814   1.009
21081W        W93396  42.922  12.404   0.827
21082W        W93397  40.490  24.134  10.145
21083W        W93398  17.355  14.148   0.979
21084W        W93399  15.865  39.411   2.680
21085W        W93400   0.765  32.595  13.824
21086W        W93401   8.760   6.334   2.512
21087W        W93402  41.736  16.132   4.111
21088W        W93403  42.517  32.594   2.739
21089W        W93404  12.658  14.231  11.383
21090W        W93405  32.209  29.668   3.290
21091W        W93406  11.434   3.981   2.688
21092W        W93407   9.918  38.266  14.993
21093W        W93408  21.681  13.316   1.950
21094W        W93409   9.230  12.981   1.489
21095W        W93410  15.252   2.690   3.057
21096W        W93411  16.468  16.415   1.323
21097W        W93412   3.531  42.248   3.830
21098W        W93413  17.081  37.938  12.514
21099W        W93414  22.014   1.022  12.852
21100W        W93415  16.980   9.350  12.286
21101W        W93416  22.258  28.067  11.019
21102W        W93417  19.698  31.045  11.332
21103W        W93418  35.733  21.591   3.222
21104W        W93419   6.739  20.021  13.112
21105W        W93420  42.345   7.600  13.184
21106W        W93421  42.866  15.534  11.886
21107W        W93422  34.895  14.546   9.817
21108W        W93423  42.309  16.879  13.937
21109W        W93424  32.954  37.893  14.728
21110W        W93425  34.362  10.660  11.159
21111W        W93426  17.539   9.225   5.325
21112W        W93427  23.015   5.815  11.283
21113W        W93428  16.596  18.771  11.679
21114W        W93429   5.249  17.779   1.805
21115W        W93430  34.554  41.602   1.629
21116W        W93431  23.279  19.864  14.873
21117W        W93432   7.795  18.055   2.744
21118W        W93433  14.763  36.158   4.163
21119W        W93434  19.653   0.983  11.807
21120W        W93435  37.303  40.289   2.276
21121W        W93436  24.009  34.858  12.325
21122W        W93437  16.640   1.815  12.785
21123W        W93438  23.951  28.430   0.985
21124W        W93439  44.187  36.985   2.244
21125W        W93440   4.704   3.348   0.793
21126W        W93441  41.049   4.356  11.110
21127W        W93442  39.098  22.504  11.126
21128W        W93443  37.113  21.334  14.926
21129W        W93444  15.120  27.951  11.214
21130W        W93445  35.317  44.383   3.705
21131W        W93446   6.975  12.809   2.132
21132W        W93447  11.911   1.738  14.274
21133W        W93448  19.247  28.606   1.795
21134W        W93449  18.091  32.134   3.295
21135W        W93450  41.854   9.053  11.605
21136W        W93451   6.154   1.370  14.325
21137W        W93452  18.642  24.252   4.128
21138W        W93453   8.747  21.948   4.870
21139W        W93454  15.630  24.547  10.595
21140W        W93455  36.269  17.596  11.532
21141W        W93456   4.965  34.317  12.574
21142W        W93457  20.741  31.576  11.787
21143W        W93458  23.579  34.818  12.620
21144W        W93459  24.700  36.151   2.337
21145W        W93460  24.315   7.212   0.078
21146W        W93461  31.884  34.617  14.446
21147W        W93462  42.302  13.578   4.531
21148W        W93463   7.247  43.863  13.422
21149W        W93464  20.008  23.541  14.592
21150W        W93465  15.301  13.422   0.058
21151W        W93466  13.059  44.305  13.880
21152W        W93467  11.648  44.373  12.992
21153W        W93468  16.028  18.871  10.837
21154W        W93469  17.532  34.991  11.655
21155W        W93470  40.239  40.865  13.358
21156W        W93471   4.310   9.115   4.316
21157W        W93472  22.951  43.490   1.695
21158W        W93473  41.472  20.199  13.295
21159W        W93474  15.699  42.833   3.171
21160W        W93475   2.905  12.433  13.764
21161W        W93476  14.782  11.680   2.925
21162W        W93477  42.530  20.979   3.263
21163W        W93478  36.462   5.789   2.707
21164W        W93479  33.319  11.502   3.258
21165W        W93480   9.724   7.934  10.556
21166W        W93481  14.729  27.146   0.987
21167W        W93482  29.486  10.470  14.003
21168W        W93483  35.406   1.967   3.758
21169W        W93484  26.246  18.194  13.417
21170W        W93485  27.275  43.975   4.373
21171W        W93486   8.656   2.773  10.531
21172W        W93487   7.638  26.109   4.569
21173W        W93488  27.248  14.243   4.212
21174W        W93489   5.112  19.611  10.755
21175W        W93490  41.730   9.373   3.731
21176W        W93491   9.565  33.713   4.188
21177W        W93492  16.429  23.126  10.621
21178W        W93493  28.564  38.478   4.090
21179W        W93494  32.389   8.310   1.444
21180W        W93495  44.012  37.493  11.995
21181W        W93496   2.460  28.438  13.954
21182W        W93497  16.056  15.846   3.120
21183W        W93498   6.993  32.415  11.908
21184W        W93499   4.758  26.239  13.224
21185W        W93500  13.257   6.019   2.193
21186W        W93501  24.290  26.440  10.689
21187W        W93502  18.566  32.266   2.776
21188W        W93503  29.934  15.105   2.208
21189W        W93504   2.688  17.251   4.655
21190W        W93505  36.143  38.333   0.029
21191W        W93506  16.008  19.628  12.354
21192W        W93507  20.310  41.457  10.699
21193W        W93508   9.922  18.099  13.876
21194W        W93509  30.194  33.378  12.849
21195W        W93510  29.506  25.046   1.204
21196W        W93511  37.513  35.373   0.679
21197W        W93512  20.128  32.151  14.752
21198W        W93513   2.415   2.996  13.600
21199W        W93514  24.052  24.017   5.082
21200W        W93515  11.745   4.446  10.657
21201W        W93516  25.938   0.551  13.409
21202W        W93517  20.477   8.165   1.418
21203W        W93518  12.128  24.118   1.224
21204W        W93519  28.703  29.160  12.582
21205W        W93520  35.336  44.583  13.429
21206W        W93521  34.610  13.016   1.191
21207W        W93522   4.929  30.078   1.155
21208W        W93523  18.781  29.836  14.283
21209W        W93524  10.140  41.048   0.709
21210W        W93525   3.467  44.349  11.902
21211W        W93526   0.600   2.935   0.453
21212W        W93527  19.073  34.656  14.365
21213W        W93528  18.172   8.699   2.661
21214W        W93529  34.096  32.716   4.136
21215W        W93530  35.063  28.696  12.949
21216W        W93531  41.514  22.755  14.409
21217W        W93532  42.309   2.101  11.125
21218W        W93533  25.235   8.320  14.946
21219W        W93534  12.134  11.605  14.049
21220W        W93535  22.516  27.894  13.819
21221W        W93536   6.690  35.358  10.605
21222W        W93537  28.980   4.234   4.763
21223W        W93538  24.566  36.513   1.040
21224W        W93539   7.725  28.425   0.464
21225W        W93540  26.570  26.733  11.024
21226W        W93541  38.946  11.690   4.757
21227W        W93542  17.807   4.757  11.988
21228W        W93543  27.072  24.837   4.570
21229W        W93544   8.845  17.755   0.386
21230W        W93545  30.632  23.976   2.311
21231W        W93546  25.925  22.984   4.644
21232W        W93547  40.106  32.728   1.741
21233W        W93548  31.015   6.025  12.027
21234W        W93549  30.923   2.823  11.055
21235W        W93550  17.557   5.476  10.746
21236W        W93551   5.867   7.830  13.198
21237W        W93552  28.262  42.914   2.148
21238W        W93553  22.625  23.297   0.035
21239W        W93554  41.777  39.585  11.629
21240W        W93555  11.106  17.695  11.172
21241W        W93556  42.071  26.128  12.402
21242W        W93557   8.325   1.347   1.401
21243W        W93558  37.819   7.296  13.407
21244W        W93559  20.822  15.081  11.755
21245W        W93560   0.714   6.507  11.678
21246W        W93561   1.019  20.696   3.848
21247W        W93562  39.485  13.820   0.780
21248W        W93563   0.228  40.910  11.408
21249W        W93564   4.141  17.798   4.618
21250W        W93565  25.710  28.636  13.825
21251W        W93566  42.821  36.499  11.522
21252W        W93567  13.157  38.774   4.601
21253W        W93568  15.420  13.706   3.632
21254W        W93569  18.638  27.587   4.590
21255W        W93570  12.030   0.086   3.279
21256W        W93571   5.139   6.896  14.919
21257W        W93572  11.910  16.644  13.499
21258W        W93573  36.383  11.702   3.742
21259W        W93574  24.240   3.363  10.884
21260W        W93575  27.154  10.290  13.605
21261W        W93576  29.424  38.396   4.034
21262W        W93577  29.150  24.154  10.521
21263W        W93578  35.557  23.964  12.826
21264W        W93579   7.945   6.845   1.227
21265W        W93580  13.301   7.950  13.390
21266W        W93581  14.769  16.140   4.454
21267W        W93582  22.552  27.040   0.082
21268W        W93583   5.284  12.494   0.900
21269W        W93584  37.369  17.758  10.789
21270W        W93585  29.545   5.265   2.741
21271W        W93586  17.242  23.704   3.254
21272W        W93587   9.875  29.000  14.532
21273W        W93588  28.354  29.305   2.949
21274W        W93589  44.806  12.880  13.087
21275W        W93590  21.683  22.603   2.164
21276W        W93591  16.110  25.480  10.857
21277W        W93592   2.434  29.440   0.740
21278W        W93593  24.289  22.949  13.288
21279W        W93594  39.852  22.171  11.063
21280W        W93595  28.252  12.688   1.102
21281W        W93596  15.253   8.780   2.679
21282W        W93597  15.971  32.015  13.167
21283W        W93598  26.309  30.971   4.354
21284W        W93599  38.757  22.005   3.420
21285W        W93600  38.462  36.363  14.721
21286W        W93601  34.604  29.634   1.861
21287W        W93602  16.025  17.237   0.022
21288W        W93603  37.856  11.647  13.700
21289W        W93604  30.703  32.999   3.275
21290W        W93605  36.148  29.537  11.568
21291W        W93606  33.629  35.647   0.741
21292W        W93607   8.218  32.660  13.359
21293W        W93608  18.678  41.297   3.088
21294W        W93609  25.212  27.869   0.704
21295W        W93610  12.741  31.850   3.811
21296W        W93611  36.041  26.920   4.870
21297W        W93612  13.392   5.832  10.750
21298W        W93613  21.681   4.362  12.929
21299W        W93614  28.548  36.950   1.256
21300W        W93615  14.123  33.922   0.551
21301W        W93616  36.997  13.258  14.419
21302W        W93617   5.825  44.886   3.615
21303W        W93618   8.542  18.201   4.995
21304W        W93619  23.279  25.991   0.233
21305W        W93620  36.389   3.746   3.536
21306W        W93621  37.372  18.099   2.753
21307W        W93622   3.397  43.474   4.333
21308W        W93623  20.616  40.949  12.851
21309W        W93624  12.953   7.294   3.857
21310W        W93625  18.318  33.085   4.652
21311W        W93626  41.824  39.454   0.871
21312W        W93627  18.919  13.528   1.928
21313W        W93628  18.710  33.307   1.205
21314W        W93629  11.404  19.214   4.640
21315W        W93630   9.164  17.129  10.634
21316W        W93631  27.699  40.499   0.709
21317W        W93632  32.861  33.946  14.842
21318W        W93633  28.422  43.905  11.050
21319W        W93634  24.686  24.252   1.791
21320W        W93635  37.651  27.963  13.290
21321W        W93636  25.370  32.527   1.287
21322W        W93637  32.607  33.022  12.986
21323W        W93638  16.388  35.660   1.996
21324W        W93639  19.008  25.416   0.762
21325W        W93640  26.013  32.334  13.919
21326W        W93641  44.510  20.172  11.622
21327W        W93642   4.186   2.204  14.839
21328W        W93643  16.829   8.735   0.472
21329W        W93644  10.940  30.072   1.335
21330W        W93645  10.784  32.952   1.781
21331W        W93646   0.714  39.861  14.954
21332W        W93647   6.352  27.856  10.716
21333W        W93648  15.105  14.348   0.451
21334W        W93649  18.145  33.081   0.519
21335W        W93650  17.519   8.947   2.741
21336W        W93651   0.635   8.225   4.579
21337W        W93652   3.387  16.369  12.907
21338W        W93653  21.147   3.174  13.935
21339W        W93654   1.018  13.733   0.164
21340W        W93655  36.620  41.238   1.781
21341W        W93656  29.952  42.070  13.346
21342W        W93657   6.963   5.609  12.087
21343W        W93658  21.957   9.231  10.731
21344W        W93659  28.933  17.388   1.768
21345W        W93660  17.150  43.378   3.108
21346W        W93661  20.318  38.686  14.854
21347W        W93662  24.424  22.379   0.267
21348W        W93663  15.251   3.137  14.852
21349W        W93664   0.476  40.806  12.955
21350W        W93665   7.874  18.194   2.247
21351W        W93666  37.044  12.502   0.878
21352W        W93667  39.607   9.242   4.092
21353W        W93668  40.737  35.059  11.587
21354W        W93669  20.353  26.604  14.776
21355W        W93670  26.175  40.620  11.950
21356W        W93671  37.612  10.210  13.867
21357W        W93672  18.307   0.911   2.709
21358W        W93673  42.240  35.910  13.997
21359W        W93674   8.512  33.381  10.751
21360W        W93675   8.171  11.146   1.355
21361W        W93676  17.898  33.396   2.420
21362W        W93677  32.476  32.866  13.458
21363W        W93678  41.965   2.457   0.975
21364W        W93679  39.019  26.839  13.546
21365W        W93680  41.139  30.041   0.971
21366W        W93681   7.248   6.851  14.935
21367W        W93682  38.058   9.939  13.397
21368W        W93683  34.044  36.135  11.606
21369W        W93684  32.022   5.373   1.453
21370W        W93685  21.128  32.622  11.950
21371W        W93686  43.515  13.552   3.236
21372W        W93687   9.275  10.403   1.002
21373W        W93688  23.566  16.652  11.891
21374W        W93689  13.340   0.242   0.777
21375W        W93690   6.167  40.204  13.345
21376W        W93691  15.694   4.496  12.600
21377W        W93692  14.785  20.823   1.480
21378W        W93693   5.274   9.457  13.284
21379W        W93694  31.134  16.143  12.584
21380W        W93695   1.818   1.124  11.040
21381W        W93696   6.071   5.857   4.345
21382W        W93697  15.893  19.065  12.615
21383W        W93698  11.190   7.435   4.611
21384W        W93699  37.338   6.370  13.454
21385W        W93700  21.826  40.500   3.886
21386W        W93701  12.638  21.113  12.514
21387W        W93702   2.880  33.487  14.366
21388W        W93703  21.121  25.150  12.149
21389W        W93704  13.739  41.068  11.998
21390W        W93705  27.600  25.973   3.381
21391W        W93706  18.585  29.006  14.306
21392W        W93707  32.882  37.430  12.948
21393W        W93708  40.595   6.336   2.487
21394W        W93709  27.532  25.625  13.537
21395W        W93710  25.541  23.521  13.441
21396W        W93711   9.613   0.048   3.829
21397W        W93712  13.829   2.213   3.062
21398W        W93713  29.085   3.914   0.365
21399W        W93714  17.515  11.814   0.807
21400W        W93715  30.109  16.598   1.299
21401W        W93716  35.319  44.058  11.601
21402W        W93717  24.943  17.298   4.313
21403W        W93718  14.955   6.830  10.225
21404W        W93719  25.035   4.153   0.367
21405W        W93720  23.550   5.136  11.177
21406W        W93721   1.630  11.308   4.103
21407W        W93722   9.893  14.181   4.982
21408W        W93723   5.588  38.117   2.884
21409W        W93724   5.174  10.255   2.844
21410W        W93725  44.051  16.839   2.220
21411W        W93726  17.567  32.039   3.317
21412W        W93727   2.397   5.309   3.223
21413W        W93728  11.287  42.971   3.789
21414W        W93729  16.465   9.530  11.471
21415W        W93730  29.580  27.968  13.506
21416W        W93731   4.851  40.638  13.347
21417W        W93732   9.307  16.853  13.435
21418W        W93733  26.101  26.163   2.588
21419W        W93734  43.648  16.552   2.417
21420W        W93735  10.235  10.492   3.829
21421W        W93736  37.085  18.170  11.594
21422W        W93737  36.303  27.705   0.229
21423W        W93738  15.154  35.124   0.005
21424W        W93739  33.045  21.050   4.638
21425W        W93740  14.744  14.895  13.558
21426W        W93741  36.229  32.972  12.392
21427W        W93742  35.395  32.434   0.377
21428W        W93743  34.909  14.719   1.132
21429W        W93744  30.000  43.927  13.928
21430W        W93745  30.148  43.946  10.619
21431W        W93746  20.400  31.384   3.186
21432W        W93747  19.762   8.892  14.332
21433W        W93748  13.351   6.187  11.601
21434W        W93749   1.954  14.218  13.657
21435W        W93750   5.016   8.703   4.069
21436W        W93751  37.016  36.876   5.008
21437W        W93752  15.359  31.142  11.659
21438W        W93753  29.927  24.446   3.461
21439W        W93754   1.289  44.075   1.844
21440W        W93755  25.521  36.662  12.077
21441W        W93756  29.574   0.272  11.192
21442W        W93757  16.242  30.320  12.359
21443W        W93758  19.533  44.096   3.667
21444W        W93759  11.389  44.867   2.393
21445W        W93760  18.009  44.827  11.120
21446W        W93761  12.033  26.614  12.931
21447W        W93762  24.421  11.167   4.029
21448W        W93763  13.332  26.715   3.354
21449W        W93764  39.518  13.327   2.317
21450W        W93765   5.084  33.588  10.117
21451W        W93766  35.707  30.617  10.709
21452W        W93767  21.637   5.012  13.527
21453W        W93768  24.706  11.398  14.542
21454W        W93769   2.072   3.548  11.105
21455W        W93770  23.712  12.082   1.591
21456W        W93771   9.996   5.278  11.546
21457W        W93772  17.197   2.882  12.016
21458W        W93773  25.506   9.062   4.984
21459W        W93774  13.911  43.158   4.541
21460W        W93775  30.361  44.998  12.490
21461W        W93776  11.323  31.446  13.409
21462W        W93777   8.227  34.819   4.685
21463W        W93778  15.564   7.301   9.934
21464W        W93779  26.357  22.154  11.179
21465W        W93780  41.798  32.015  10.985
21466W        W93781  43.202   6.625  11.086
21467W        W93782  28.932  19.824  13.120
21468W        W93783   0.041  17.549   3.169
21469W        W93784  19.781  17.923  12.534
21470W        W93785  33.572  14.619  14.367
21471W        W93786  35.341  36.043   3.774
21472W        W93787   8.650  33.376   0.192
21473W        W93788  43.890  38.354   3.306
21474W        W93789  27.468  44.714   0.467
21475W        W93790  40.950  30.477   1.208
21476W        W93791  15.682  29.570   1.034
21477W        W93792  37.521  15.367   3.270
21478W        W93793  34.989  38.343   3.123
21479W        W93794  37.479  26.684  10.044
21480W        W93795  29.689   1.973   2.710
21481W        W93796  40.388  32.485  13.997
21482W        W93797  18.228  38.311  10.730
21483W        W93798  28.761  41.810  12.121
21484W        W93799   1.023  11.580   4.219
21485W        W93800   3.962  22.212   3.712
21486W        W93801  22.147  19.509   3.181
21487W        W93802  41.977  26.405  14.358
21488W        W93803  12.868   6.617  13.872
21489W        W93804   4.839  25.289   0.202
21490W        W93805  35.178  26.345  11.561
21491W        W93806   2.701  24.208   2.279
21492W        W93807  44.465   0.751  12.569
21493W        W93808  10.566  33.427  11.605
21494W        W93809  28.016   9.880  12.473
21495W        W93810  15.838  43.444  13.329
21496W        W93811   8.189   8.949   0.131
21497W        W93812  16.954  26.715  12.459
21498W        W93813  21.514  15.471   1.880
21499W        W93814  17.309  13.812  14.636
21500W        W93815  12.121  35.113  14.971
21501W        W93816  35.918  26.415  11.858
21502W        W93817  15.134  13.935   2.357
21503W        W93818  42.762   4.842   3.070
21504W        W93819  36.363  34.507  13.090
21505W        W93820  23.741  23.575  10.412
21506W        W93821  24.570   9.892  11.719
21507W        W93822  16.191   3.822   1.759
21508W        W93823  35.043   9.681   1.262
21509W        W93824   7.317  10.227  13.392
21510W        W93825  19.580  22.089   4.633
21511W        W93826  30.181  26.126   1.922
21512W        W93827  30.483  24.700  14.125
21513W        W93828  23.969  27.813   2.384
21514W        W93829   0.839   0.491  14.286
21515W        W93830   2.707  16.238  13.294
21516W        W93831  33.871   0.149   0.109
21517W        W93832   2.341  26.749   4.275
21518W        W93833  13.183   6.133  12.118
21519W        W93834  43.094   8.658  10.802
21520W        W93835  43.353  20.841  13.612
21521W        W93836  23.816  44.792  14.878
21522W        W93837  14.756  32.214  14.459
21523W        W93838  29.175  31.600  12.789
21524W        W93839  24.455  38.830  11.086
21525W        W93840   5.974  21.980  12.991
21526W        W93841  35.283  37.896   2.689
21527W        W93842   2.882  26.660  10.330
21528W        W93843  38.395  19.506  11.228
21529W        W93844  13.346  13.846   4.059
21530W        W93845  27.843  15.586  12.495
21531W        W93846  32.880  19.447  13.473
21532W        W93847  33.626  37.766  14.328
21533W        W93848   6.211  39.447   2.822
21534W        W93849   8.084  30.699   4.167
21535W        W93850  20.089   9.472   2.820
21536W        W93851  30.041   5.723  13.088
21537W        W93852  38.105  19.617   2.360
21538W        W93853  24.567  37.054   2.266
21539W        W93854  42.573  21.537   4.741
21540W        W93855   7.154   1.411  13.033
21541W        W93856  30.237  41.503  14.541
21542W        W93857  23.661  27.113  14.091
21543W        W93858  27.958  41.807   2.396
21544W        W93859  10.066  36.275   4.952
21545W        W93860   7.605  41.069  11.693
21546W        W93861   2.587   4.335  12.301
21547W        W93862   2.826  32.484  11.737
21548W        W93863  17.407  20.563  10.474
21549W        W93864  14.722  23.400  13.086
21550W        W93865  12.776  16.097   3.694
21551W        W93866  38.396  40.491   4.290
21552W        W93867  28.670   3.115  10.125
21553W        W93868  22.976  40.628   1.895
21554W        W93869  26.531  33.652   2.625
21555W        W93870   1.088  29.198   4.753
21556W        W93871  27.747  35.324   4.119
21557W        W93872   7.815  24.150  13.358
21558W        W93873   9.367  14.879  11.606
21559W        W93874  41.309  13.221   2.899
21560W        W93875  34.810  15.435  10.706
21561W        W93876  13.575  28.160   5.154
21562W        W93877  19.702   6.953   4.622
21563W        W93878  19.196  11.027   9.794
21564W        W93879  21.192  37.503  11.088
21565W        W93880  12.396  17.454   3.265
21566W        W93881  42.908  32.080  14.261
21567W        W93882  27.670   7.632   1.834
21568W        W93883  27.432  30.673   1.355
21569W        W93884  41.191  35.858  12.001
21570W        W93885  24.251  34.731   0.465
21571W        W93886  15.456  40.857  13.275
21572W        W93887  35.994  41.562   0.460
21573W        W93888   7.799   8.746   3.403
21574W        W93889  20.012  13.038  12.930
21575W        W93890  41.730  22.521  12.483
21576W        W93891  18.566  10.892   4.517
21577W        W93892  27.231   2.834  12.983
21578W        W93893  33.369  38.385   0.420
21579W        W93894  16.212   9.929  13.800
21580W        W93895  15.351  38.729  14.578
21581W        W93896  21.512  34.313  14.452
21582W        W93897   7.271  13.429  14.937
21583W        W93898   9.848  23.965  12.633
21584W        W93899   6.818  33.341   0.363
21585W        W93900  21.641  28.613  14.041
21586W        W93901  26.658  19.199  13.052
21587W        W93902  10.848   0.464  11.142
21588W        W93903  34.004  40.254   3.064
21589W        W93904  32.572  16.125   1.142
21590W        W93905  43.944  36.486  14.146
21591W        W93906   2.965  12.599  14.880
21592W        W93907   0.356  39.692   4.967
21593W        W93908  12.758  27.060   0.961
21594W        W93909  41.040  31.113   4.878
21595W        W93910  26.219   9.919   0.348
21596W        W93911   8.715  42.852  14.830
21597W        W93912  35.636  38.310   0.017
21598W        W93913  19.134   4.492  12.942
21599W        W93914  12.737  26.494  14.019
21600W        W93915  19.142  41.511   3.201
21601W        W93916  12.388  32.840   0.947
21602W        W93917   1.295   3.978  11.204
21603W        W93918  34.563  38.068  11.332
21604W        W93919  27.458  33.178   2.891
21605W        W93920  18.919   2.975   3.374
21606W        W93921   4.259  26.120   2.471
21607W        W93922  32.605  19.497   2.798
21608W        W93923  37.976   4.229   3.647
21609W        W93924  14.971   2.671  12.492
21610W        W93925  33.359   3.575   0.551
21611W        W93926   6.212  33.032  10.421
21612W        W93927   0.574  26.911  13.941
21613W        W93928  42.471   9.894   4.211
21614W        W93929  38.806   3.496  11.275
21615W        W93930  10.283  22.777  11.741
21616W        W93931  15.474  21.063   2.389
21617W        W93932  18.616  30.371   2.120
21618W        W93933  10.172  20.970   2.332
21619W        W93934  20.800  11.389   2.272
21620W        W93935  20.999  21.381   1.379
21621W        W93936  17.739  20.565  14.473
21622W        W93937  37.308   6.298   1.341
21623W        W93938   4.334   3.412  14.394
21624W        W93939   3.434  40.898  10.559
21625W        W93940  16.159   6.895  14.904
21626W        W93941  41.359  33.363   4.970
21627W        W93942  28.430  38.499   0.303
21628W        W93943  33.674  10.413  14.381
21629W        W93944  11.924  26.363  13.391
21630W        W93945  16.408  41.799   3.293
21631W        W93946  42.401  34.429   2.927
21632W        W93947   4.975   9.868  10.329
21633W        W93948   8.659  10.957   1.310
21634W        W93949  28.139  44.349   2.555
21635W        W93950  36.934  28.320  12.079
21636W        W93951  18.625  10.561   4.124
21637W        W93952   8.138   7.228   0.347
21638W        W93953   9.665  43.991  14.510
21639W        W93954  21.504   9.884  13.693
21640W        W93955  16.007  19.189  12.108
21641W        W93956  27.992  19.070   4.204
21642W        W93957  24.586   6.276  14.950
21643W        W93958  29.428  40.434  13.625
21644W        W93959  11.902  40.392  14.373
21645W        W93960  19.858   6.183   0.389
21646W        W93961  19.766  11.419   4.304
21647W        W93962  26.641  23.003   0.196
21648W        W93963  43.773   4.854   4.252
21649W        W93964  10.243  18.274   3.156
21650W        W93965  16.024  43.922  12.104
21651W        W93966  29.664  33.178  12.866
21652W        W93967  33.017  36.790  10.797
21653W        W93968   4.233   2.488  13.459
21654W        W93969  13.081   4.182   2.300
21655W        W93970  32.593  13.020  14.483
21656W        W93971  12.138   8.976   0.813
21657W        W93972   0.189   3.265   2.696
21658W        W93973   8.159  34.695  13.405
21659W        W93974  42.860  22.720   2.579
21660W        W93975  21.137  28.098  13.436
21661W        W93976  23.821  19.824   0.492
21662W        W93977  36.923  15.806  11.264
21663W        W93978  29.349  15.857   0.707
21664W        W93979  36.205  14.719   2.723
21665W        W93980  14.877   4.333  14.029
21666W        W93981  32.068   6.635   4.203
21667W        W93982  23.717  32.484   3.724
21668W        W93983   6.184   0.887   2.128
21669W        W93984  12.146  40.505   1.327
21670W        W93985   8.717  41.542  11.099
21671W        W93986  43.753   4.852   3.368
21672W        W93987  37.468   3.772  14.451
21673W        W93988  37.601   6.260  14.449
21674W        W93989  11.280  11.863  10.270
21675W        W93990   9.182  23.861   1.246
21676W        W93991  43.866  40.621  14.348
21677W        W93992  20.635  34.420   1.877
21678W        W93993  41.304  15.619  13.061
21679W        W93994  26.348   8.387   0.084
21680W        W93995   2.449  31.916  13.566
21681W        W93996  35.915   1.469  10.932
21682W        W93997  13.027  14.902   2.695
21683W        W93998   2.298   6.363   4.560
21684W        W93999  39.834   0.364  11.910
21685W        W94000  26.666  36.313   1.174
21686W        W94001  25.534   4.183   2.424
21687W        W94002  16.295  31.195  14.012
21688W        W94003  33.264   8.684  14.826
21689W        W94004  18.777  35.521  10.912
21690W        W94005  24.029   0.922  12.117
21691W        W94006  34.314  11.626  11.588
21692W        W94007  32.033  17.795   4.081
21693W        W94008  16.557  39.696   1.270
21694W        W94009  41.938  44.237  14.561
21695W        W94010  33.707  42.146   4.060
21696W        W94011  34.024  18.457  12.154
21697W        W94012   2.719   8.373   3.227
21698W        W94013  31.911  43.099  14.480
21699W        W94014  44.512  44.372   3.309
21700W        W94015  35.050  12.210   4.138
21701W        W94016  42.616  43.766  11.540
21702W        W94017  18.851  32.416  14.105
21703W        W94018   3.661   3.323   1.283
21704W        W94019  26.420   0.404  13.279
21705W        W94020   4.453  32.951  14.542
21706W        W94021  39.033  12.629  14.476
21707W        W94022  12.705   5.797   4.626
21708W        W94023  11.098   3.860  10.960
21709W        W94024  24.963  23.121   2.199
21710W        W94025  27.958  44.498   4.075
21711W        W94026  10.414  36.376   1.657
21712W        W94027  30.407  41.305   4.667
21713W        W94028  19.200  12.438  10.488
21714W        W94029  41.808  24.757  12.285
21715W        W94030   8.040  32.891   1.443
21716W        W94031  39.342   7.758   2.452
21717W        W94032  31.297   3.563  11.141
21718W        W94033   7.434  16.817   3.932
21719W        W94034  42.154   0.756   0.991
21720W        W94035  32.120  26.478  11.947
21721W        W94036  43.339  11.935   1.835
21722W        W94037   9.722   6.826   2.201
21723W        W94038  31.444   7.252  13.077
21724W        W94039  16.142   8.877   2.680
21725W        W94040  32.421  23.669   3.744
21726W        W94041  23.575  39.018   1.705
21727W        W94042  31.103  25.807   2.169
21728W        W94043   0.351  22.742   3.868
21729W        W94044  14.340   5.166  11.152
21730W        W94045  39.519  26.405  13.840
21731W        W94046   2.477  27.144   0.781
21732W        W94047  25.355  37.029  11.192
21733W        W94048  22.192  42.390  11.443
21734W        W94049  19.313  13.847  14.892
21735W        W94050  19.577  38.436   0.768
21736W        W94051  31.083  13.244   0.972
21737W        W94052   5.912  30.760   9.937
21738W        W94053  36.834  31.883   1.272
21739W        W94054  40.299  10.264  12.402
21740W        W94055  15.868  43.054   4.197
21741W        W94056  44.473   2.325   1.679
21742W        W94057   5.170  33.826   1.793
21743W        W94058   8.339  34.598  13.909
21744W        W94059  15.697   6.295   2.149
21745W        W94060  21.742  28.417  10.675
21746W        W94061  14.244  20.587   4.684
21747W        W94062   5.397  13.049   1.649
21748W        W94063   5.994  41.378   3.631
21749W        W94064  21.116  33.842   4.719
21750W        W94065  11.605   6.233   3.835
21751W        W94066  12.007   9.202  13.799
21752W        W94067   0.088  13.328   0.545
21753W        W94068  14.297   3.682   0.832
21754W        W94069  41.557  22.281   1.824
21755W        W94070   0.797   0.978  11.978
21756W        W94071   3.836  24.524   3.006
21757W        W94072  21.972  36.332  11.627
21758W        W94073  41.531  20.630   2.347
21759W        W94074  15.313   1.333   1.935
21760W        W94075  40.288  31.463   4.571
21761W        W94076  18.259  13.907  12.468
21762W        W94077  21.052  40.893   3.747
21763W        W94078  43.784  12.263   3.281
21764W        W94079  26.769  22.237  11.513
21765W        W94080  32.409  30.368   2.736
21766W        W94081  42.030   3.808   2.686
21767W        W94082  21.516  42.970  10.621
21768W        W94083  36.891  40.649  11.193
21769W        W94084  18.451   8.386  14.749
21770W        W94085   9.684  42.450  14.880
21771W        W94086  27.525  12.599  14.972
21772W        W94087  43.368   6.433   4.659
21773W        W94088   1.435   8.166  11.203
21774W        W94089  33.612  24.167  14.958
21775W        W94090  36.573  43.431   4.372
21776W        W94091  28.598   2.906  11.063
21777W        W94092  36.909  15.408   1.458
21778W        W94093  40.460  36.614   3.118
21779W        W94094  10.308  30.708   1.019
21780W        W94095  19.211  18.303   0.485
21781W        W94096   2.301  21.267  11.909
21782W        W94097   1.821   2.261   3.691
21783W        W94098  39.766   8.374  13.955
21784W        W94099   6.873  20.913  13.834
21785W        W94100  42.314  28.370  13.545
21786W        W94101   3.781  31.714  12.020
21787W        W94102  14.665  18.504   2.739
21788W        W94103  14.848  10.393  14.019
21789W        W94104   2.103  10.947   0.666
21790W        W94105  16.793  19.292   2.356
21791W        W94106   1.092   4.683   3.354
21792W        W94107  29.903   7.787   4.557
21793W        W94108  29.542  40.091   2.241
21794W        W94109  25.637  26.626  10.694
21795W        W94110   7.462  37.906  12.721
21796W        W94111   5.819  29.707  14.350
21797W        W94112  28.653  31.048  13.375
21798W        W94113  19.036  27.036  10.746
21799W        W94114  14.506  37.835   1.228
21800W        W94115  11.656   4.866   2.271
21801W        W94116  44.765  36.706  13.503
21802W        W94117  17.775   5.841   3.282
21803W        W94118   3.746  25.604  12.823
21804W        W94119  41.015  31.396  13.181
21805W        W94120   1.420  42.512   3.856
21806W        W94121  44.977  26.425   4.827
21807W        W94122  26.503  44.477   3.288
21808W        W94123   5.840  20.637  14.525
21809W        W94124   9.768  16.704   3.245
21810W        W94125  16.086  30.546   4.096
21811W        W94126  12.450  34.539  11.224
21812W        W94127  21.765  43.482  13.867
21813W        W94128  16.572  20.879  14.957
21814W        W94129   7.188  30.008  10.947
21815W        W94130  16.028  22.007   0.441
21816W        W94131  33.076   8.591  12.866
21817W        W94132  40.479  44.583  12.063
21818W        W94133  41.673  30.681  10.904
21819W        W94134  34.712   2.952   0.464
21820W        W94135  19.583  42.212  14.029
21821W        W94136  27.008  14.102   0.395
21822W        W94137  18.303  32.603  11.563
21823W        W94138  21.742   8.766   1.560
21824W        W94139  44.660   6.362  13.011
21825W        W94140   9.245  16.611  14.216
21826W        W94141  44.335  23.912  14.425
21827W        W94142  13.272  20.344  14.458
21828W        W94143  44.974  28.952  13.453
21829W        W94144  38.645  37.549  14.555
21830W        W94145  13.662  16.104  10.788
21831W        W94146  40.063  22.070  12.912
21832W        W94147   5.323  31.033   1.745
21833W        W94148  37.810  11.261  14.035
21834W        W94149   9.924   1.481   3.790
21835W        W94150   1.843  22.783   1.482
21836W        W94151  36.017  41.473  13.370
21837W        W94152   3.143  12.861   3.164
21838W        W94153  32.624  26.028   3.230
21839W        W94154  29.138  40.456   0.936
21840W        W94155  33.425   9.719  12.210
21841W        W94156  13.727  27.870   1.405
21842W        W94157   5.472  17.492  10.538
21843W        W94158  38.352  20.638   1.801
21844W        W94159  16.831  36.457   0.784
21845W        W94160  18.037  38.119   4.496
21846W        W94161  28.430   0.381  14.355
21847W        W94162  33.786  11.529  13.428
21848W        W94163  41.958  17.698   0.476
21849W        W94164  17.139   1.276   1.011
21850W        W94165  44.810  41.391  13.479
21851W        W94166  26.203  20.908   4.197
21852W        W94167   8.900  15.769  10.027
21853W        W94168  13.186  26.489   2.351
21854W        W94169  32.603  10.267  13.048
21855W        W94170   8.689   1.353  12.104
21856W        W94171  33.125  13.220   2.130
21857W        W94172  32.440  14.266   4.609
21858W        W94173  44.399  11.459   3.117
21859W        W94174  12.244  38.064   1.733
21860W        W94175   4.147  20.207   1.234
21861W        W94176  36.422  26.215   3.647
21862W        W94177  13.263  28.633  11.895
21863W        W94178  44.784  10.377   2.253
21864W        W94179  33.119  35.290  12.948
21865W        W94180  24.599  18.039   0.308
21866W        W94181   9.785  12.917  14.304
21867W        W94182  22.095  20.770  14.110
21868W        W94183  23.159  21.789   9.876
21869W        W94184  10.773   0.331  10.660
21870W        W94185  28.385  39.524  12.956
21871W        W94186  21.063  26.344   2.303
21872W        W94187  33.869  22.794   1.407
21873W        W94188   0.685  14.694   4.377
21874W        W94189  37.672  19.470   1.737
21875W        W94190  27.361  24.857  14.792
21876W        W94191   0.588  20.185  13.768
21877W        W94192  39.262  43.166   0.341
21878W        W94193  42.608  26.565   4.473
21879W        W94194  30.523  22.600  10.502
21880W        W94195  29.230  14.424   3.520
21881W        W94196  18.399  43.407   3.300
21882W        W94197  29.585  25.056  14.258
21883W        W94198  20.120  21.960  10.897
21884W        W94199  33.250  15.325  13.879
21885W        W94200  41.461  36.979   4.817
21886W        W94201   9.777  27.001   0.360
21887W        W94202  12.058   1.230  14.407
21888W        W94203  29.632  24.513  13.631
21889W        W94204   3.190  17.040  11.569
21890W        W94205  42.965  11.069  10.929
21891W        W94206  44.484   9.798   4.988
21892W        W94207  15.828   8.855   3.568
21893W        W94208  14.152   8.583   4.505
21894W        W94209  34.445  29.281   2.248
21895W        W94210  18.808  39.873  13.691
21896W        W94211  39.532  38.981   0.482
21897W        W94212  40.285  34.577   3.610
21898W        W94213  36.183   7.073   2.580
21899W        W94214   9.857   5.520  13.048
21900W        W94215  43.327  16.605  12.513
21901W        W94216  11.791  27.614  11.416
21902W        W94217   3.299  19.157   1.110
21903W        W94218  13.962  24.012  14.229
21904W        W94219  44.331  25.053  14.010
21905W        W94220  25.266  27.684   0.230
21906W        W94221  12.472   5.366   0.204
21907W        W94222  12.196  37.075   2.755
21908W        W94223  14.760  43.070  13.191
21909W        W94224  30.101  42.652  10.577
21910W        W94225   5.506   0.635   3.722
21911W        W94226  24.746  18.541   0.286
21912W        W94227  23.323   5.947  11.668
21913W        W94228  31.499  26.570  14.829
21914W        W94229  26.668   2.692   1.769
21915W        W94230  31.065  39.600   2.609
21916W        W94231  15.331  29.725   2.128
21917W        W94232  12.045  38.946  12.479
21918W        W94233   3.965  39.294   4.591
21919W        W94234  35.839  42.014   5.099
21920W        W94235   2.868  20.899   5.028
21921W        W94236   1.889  20.350   0.919
21922W        W94237  37.595  31.487  14.409
21923W        W94238  27.483   3.416  14.104
21924W        W94239  42.832  19.087   3.729
21925W        W94240   6.863  44.881  11.763
21926W        W94241  38.760  33.561   4.071
21927W        W94242  38.066  30.344  10.778
21928W        W94243  24.516  27.174   1.621
21929W        W94244   3.369   7.367   2.350
21930W        W94245  29.321  26.944   2.196
21931W        W94246  22.653  31.489   3.309
21932W        W94247   3.013  13.988   1.757
21933W        W94248   9.657  17.711  13.101
21934W        W94249  33.520  44.677   1.745
21935W        W94250  40.790  23.300   4.186
21936W        W94251  12.166  31.456   0.673
21937W        W94252   3.148  40.324  12.613
21938W        W94253  19.017  38.252   4.565
21939W        W94254  32.063   4.028   3.692
21940W        W94255  22.549  17.215   9.848
21941W        W94256  36.576  43.803  12.387
21942W        W94257  27.197  14.599  11.215
21943W        W94258  41.836   5.910   1.277
21944W        W94259   7.312   4.342   0.850
21945W        W94260  44.955  12.423  13.328
21946W        W94261  10.404   4.978  14.094
21947W        W94262  21.151  44.966   1.486
21948W        W94263  24.579  24.654   2.129
21949W        W94264  15.907  30.182   2.820
21950W        W94265  14.486  35.017  10.308
21951W        W94266  15.614   4.940  13.956
21952W        W94267  35.775  41.224  11.119
21953W        W94268  21.076  12.887   1.458
21954W        W94269  23.971  17.325   4.081
21955W        W94270  31.688  28.004   3.167
21956W        W94271  12.844  34.556   4.503
21957W        W94272  14.303  14.420   4.227
21958W        W94273  28.514   0.551   4.013
21959W        W94274   0.737  39.094   4.943
21960W        W94275  36.952  37.696   4.372
21961W        W94276  17.624  42.807   3.345
21962W        W94277  44.414  32.485  13.530
21963W        W94278   6.287  11.459   4.526
21964W        W94279  14.895  29.995   1.942
21965W        W94280   9.521  26.383   1.340
21966W        W94281  40.454  10.883  12.147
21967W        W94282   2.345  25.405   3.237
21968W        W94283  24.074  23.153   1.227
21969W        W94284  34.807  21.755  11.980
21970W        W94285  16.143  40.877   0.971
21971W        W94286  22.199  31.939   5.372
21972W        W94287  14.822   1.123  13.615
21973W        W94288  25.728  10.881   0.346
21974W        W94289  41.767  18.428  13.349
21975W        W94290   6.352   2.658   4.816
21976W        W94291  10.585   9.347  10.994
21977W        W94292  41.360   8.280  14.852
21978W        W94293  43.576  33.154   1.568
21979W        W94294  43.778  19.160  14.554
21980W        W94295   0.955  39.372  12.471
21981W        W94296  35.056  38.979  10.684
21982W        W94297  33.950  13.133  12.489
21983W        W94298  29.117  18.727  11.597
21984W        W94299  29.589  43.471  11.444
21985W        W94300  21.375  41.352  10.388
21986W        W94301  41.285  27.412  14.731
21987W        W94302  25.462  24.964  12.525
21988W        W94303  33.988  30.832  14.954
21989W        W94304  33.901   5.215  12.368
21990W        W94305  25.507  40.046  14.383
21991W        W94306   2.747  22.112  12.428
21992W        W94307   8.401  37.025   2.773
21993W        W94308  34.979  21.180   3.372
21994W        W94309  31.107  28.556   3.840
21995W        W94310  21.166  38.463  13.302
21996W        W94311   1.900  36.924   3.083
21997W        W94312  13.299  33.805   3.550
21998W        W94313   3.789  20.526  12.419
21999W        W94314   2.634  29.027   0.215
22000W        W94315  42.048  23.144   2.553
22001W        W94316   5.703   5.624   2.637
22002W        W94317  35.872  34.320   2.332
22003W        W94318  33.788  43.717   1.774
22004W        W94319  32.809   2.763   3.143
22005W        W94320  25.129   1.702  13.060
22006W        W94321   3.197  22.811   2.612
22007W        W94322  38.306   7.549  13.457
22008W        W94323  22.295  14.779  12.907
22009W        W94324  41.372  33.645  13.311
22010W        W94325  43.072  11.910  14.516
22011W        W94326  27.883   5.309  13.390
22012W        W94327  17.395   3.303  12.245
22013W        W94328   3.775  42.723   4.717
22014W        W94329  13.657  10.719  13.986
22015W        W94330  40.561  16.061  13.342
22016W        W94331  13.576  13.239  11.973
22017W        W94332  27.961   3.900   5.318
22018W        W94333   4.202  34.657  12.889
22019W        W94334   2.317  32.077   0.957
22020W        W94335  38.947  28.551  12.171
22021W        W94336   9.183   8.774  12.732
22022W        W94337  10.945  18.543   1.968
22023W        W94338  25.477  24.562   2.291
22024W        W94339  18.727  40.878  14.051
22025W        W94340   1.763   0.586   1.435
22026W        W94341   5.439  35.099   3.752
22027W        W94342  21.530  26.216  13.883
22028W        W94343  27.060  20.065  15.000
22029W        W94344  24.728   0.338  10.422
22030W        W94345  29.845  19.118  11.180
22031W        W94346  27.679   5.203   1.767
22032W        W94347   1.474  34.136  10.203
22033W        W94348  42.893  38.784  11.692
22034W        W94349  32.878  20.566  14.399
22035W        W94350  36.418  13.130   3.337
22036W        W94351  32.112   0.877   0.280
22037W        W94352   9.309   9.409   0.832
22038W        W94353  35.638  43.438   0.721
22039W        W94354  10.181   3.912  14.945
22040W        W94355  42.863  34.353   4.255
22041W        W94356  13.215  43.122   1.766
22042W        W94357  29.593  10.193  13.082
22043W        W94358   5.304  35.032  12.276
22044W        W94359  15.477  32.409  11.254
22045W        W94360  15.580  42.946  13.992
22046W        W94361  21.775  22.636  12.132
22047W        W94362  12.713  11.665   4.335
22048W        W94363  19.640  36.585  14.701
22049W        W94364   1.258  16.403  14.563
22050W        W94365  33.824  39.555  10.320
22051W        W94366  40.588  19.165  13.771
22052W        W94367  14.187  30.629  12.953
22053W        W94368  19.695   5.444   3.400
22054W        W94369  11.338  30.861   0.689
22055W        W94370  28.713  15.106  12.052
22056W        W94371  30.517   2.755   4.936
22057W        W94372   1.343  12.088   2.221
22058W        W94373  29.059   4.159   9.952
22059W        W94374   7.142  20.011  13.620
22060W        W94375   5.359  12.858   0.409
22061W        W94376   9.539  22.230  12.603
22062W        W94377  25.157  20.077   0.043
22063W        W94378  44.936  33.989   4.476
22064W        W94379  18.457  19.231  11.696
22065W        W94380  27.070   4.200   3.645
22066W        W94381  19.302   4.206  11.259
22067W        W94382  44.372  42.366  11.596
22068W        W94383  33.016  26.126   0.907
22069W        W94384  15.731  33.131   4.140
22070W        W94385  22.497  18.962   4.343
22071W        W94386  27.658  11.838   1.636
22072W        W94387  14.127  20.015  11.827
22073W        W94388  42.357   0.813   2.605
22074W        W94389  27.810   4.366   0.451
22075W        W94390  35.895  13.213   3.298
22076W        W94391  16.775  34.466  12.303
22077W        W94392  25.974  11.689  13.463
22078W        W94393  19.698  23.471   1.138
22079W        W94394  35.736   5.293  11.473
22080W        W94395  38.458  37.299  12.439
22081W        W94396   8.992  11.132   2.277
22082W        W94397  25.897  43.494   0.397
22083W        W94398   3.496   1.264  13.100
22084W        W94399  41.441  43.050  11.238
22085W        W94400  12.342  10.870  13.531
22086W        W94401   2.548  25.735   3.590
22087W        W94402  13.871  11.575  14.425
22088W        W94403  15.743   2.524   4.190
22089W        W94404   8.296  15.970   4.976
22090W        W94405  41.818   0.844   1.714
22091W        W94406  21.721   4.221   1.420
22092W        W94407  36.601  17.894  12.350
22093W        W94408   3.880  18.597   1.392
22094W        W94409  31.555  20.441   2.471
22095W        W94410  22.216  31.191   3.359
22096W        W94411  15.639  10.638   4.070
22097W        W94412   4.944  40.361   4.187
22098W        W94413   3.838  35.111  11.675
22099W        W94414  29.974  38.202  14.513
22100W        W94415  26.105  28.175   2.439
22101W        W94416   7.408  28.545  11.365
22102W        W94417  20.244   2.250  10.743
22103W        W94418  38.054  34.658   0.735
22104W        W94419  17.220  34.967  12.135
22105W        W94420  33.652  31.993   4.572
22106W        W94421   6.033  25.481   2.051
22107W        W94422  13.815  41.302  14.455
22108W        W94423  26.753   4.055   3.269
22109W        W94424  37.026  22.683  12.551
22110W        W94425  30.218   7.877  13.737
22111W        W94426   6.964   1.231  11.636
22112W        W94427   8.240  16.194  13.032
22113W        W94428   5.294  29.358   2.495
22114W        W94429  19.266  33.413  11.250
22115W        W94430  40.440   5.892   2.232
22116W        W94431  42.914  17.535   2.700
22117W        W94432  12.583  24.504  14.952
22118W        W94433  32.274  29.613   1.463
22119W        W94434  11.608   4.991   0.332
22120W        W94435  28.127  18.601  13.816
22121W        W94436  39.433  30.464   4.388
22122W        W94437  24.111  16.985   2.297
22123W        W94438  38.062  24.895   3.261
22124W        W94439  23.928  35.973  13.501
22125W        W94440  39.101   2.335  12.887
22126W        W94441  10.422  34.562  12.232
22127W        W94442  14.190  42.267   4.654
22128W        W94443   3.809  43.221   4.598
22129W        W94444  33.807  41.602  14.900
22130W        W94445  44.919  18.721  12.026
22131W        W94446  34.836  42.204   1.439
22132W        W94447  37.920  34.078  14.867
22133W        W94448  23.723  35.507  13.386
22134W        W94449  25.953  35.576   3.314
22135W        W94450  28.925   5.163   4.975
22136W        W94451  17.032  44.343   0.208
22137W        W94452  41.728  16.112  14.840
22138W        W94453   6.188   6.299  14.494
22139W        W94454  19.622  12.813   4.900
22140W        W94455  21.788  17.865   0.023
22141W        W94456   6.909  15.767  12.970
22142W        W94457  41.477   4.696   2.435
22143W        W94458  21.106  42.434  11.313
22144W        W94459  39.059  24.578  10.777
22145W        W94460   0.994  37.030   4.748
22146W        W94461   3.978  19.741   2.586
22147W        W94462   2.570  38.543  13.334
22148W        W94463  19.475   7.313  14.918
22149W        W94464  25.178  19.836  12.383
22150W        W94465  24.914  26.439  11.487
22151W        W94466  29.951  42.008   4.063
22152W        W94467   1.395   8.913   1.266
22153W        W94468  31.464  30.438  14.885
22154W        W94469  24.169  37.313   4.088
22155W        W94470  19.442  27.105   0.495
22156W        W94471  39.485  42.602   1.164
22157W        W94472  14.790  11.740  11.288
22158W        W94473   5.472  13.798   1.256
22159W        W94474  10.678  32.056  10.106
22160W        W94475   5.631  17.230  11.368
22161W        W94476  28.093  13.220   2.852
22162W        W94477  39.055  23.702  11.706
22163W        W94478  35.620  27.589   0.742
22164W        W94479   8.219  14.664  14.474
22165W        W94480  19.886   4.723  12.034
22166W        W94481  43.336  14.318   3.322
22167W        W94482  40.122  23.794   0.319
22168W        W94483  41.034  14.170   4.085
22169W        W94484  33.071  25.875  10.830
22170W        W94485  26.143  39.122  10.685
22171W        W94486  24.940  33.336  13.980
22172W        W94487   6.130  18.599  12.041
22173W        W94488  30.688  25.826   2.785
22174W        W94489   0.969  29.436  14.242
22175W        W94490   2.804   1.254   1.631
22176W        W94491   4.479  36.293   0.816
22177W        W94492  43.037  40.549   2.359
22178W        W94493  29.167   3.151  12.950
22179W        W94494  44.907   0.798   1.384
22180W        W94495  27.036  11.159  12.671
22181W        W94496  13.073   1.854   3.419
22182W        W94497  35.164  42.937  13.922
22183W        W94498  16.089  44.545   0.018
22184W        W94499   0.609   6.229  14.786
22185W        W94500  41.820  26.705   2.356
22186W        W94501   7.341  10.171   0.474
22187W        W94502   7.176  30.089   0.450
22188W        W94503  23.746  30.627  14.718
22189W        W94504   0.780   7.398  11.443
22190W        W94505  35.545  42.905   2.000
22191W        W94506  40.078  18.602   3.284
22192W        W94507  23.285  15.334  13.081
22193W        W94508  14.101  38.536  14.286
22194W        W94509   7.670  31.224  14.205
22195W        W94510   4.356  44.930  13.363
22196W        W94511  11.149  35.152   1.483
22197W        W94512  40.432  20.040   2.745
22198W        W94513  11.684   4.476   4.648
22199W        W94514  35.433  16.678   0.816
22200W        W94515  32.833  15.172  13.637
22201W        W94516   7.808  30.203  14.433
22202W        W94517  43.281  18.133   3.185
22203W        W94518  24.221   5.427   1.328
22204W        W94519  10.624  35.165   0.751
22205W        W94520   0.850  43.090   2.383
22206W        W94521   3.299  28.224   5.294
22207W        W94522  23.162  33.435  10.477
22208W        W94523  42.849  20.368   4.983
22209W        W94524  35.340  38.851   2.844
22210W        W94525  26.193  17.416  11.543
22211W        W94526   5.429  42.885   1.342
22212W        W94527  13.149  34.937  11.179
22213W        W94528  34.574  10.297   1.734
22214W        W94529  38.020  22.989   3.213
22215W        W94530  41.304  13.357   3.415
22216W        W94531  29.967  11.749   1.865
22217W        W94532  16.199   9.682  12.475
22218W        W94533  14.753  13.602  14.118
22219W        W94534  32.345   2.025  10.359
22220W        W94535  31.406  12.316  13.775
22221W        W94536   1.938  34.265  11.474
22222W        W94537   5.449   0.766   3.220
22223W        W94538   1.877  33.346   4.492
22224W        W94539  34.246  18.100  11.865
22225W        W94540   7.943  10.480  14.413
22226W        W94541  21.054   7.035   3.770
22227W        W94542  40.508  28.443  12.026
22228W        W94543  34.077  12.344  11.185
22229W        W94544  34.345  28.985   2.704
22230W        W94545  31.051  19.487  13.459
22231W        W94546  22.084  27.594  12.150
22232W        W94547  34.883  26.121  13.024
22233W        W94548  26.014  32.876   3.398
22234W        W94549   5.370  37.876  13.808
22235W        W94550  40.801  32.636   1.184
22236W        W94551  15.697   2.464   3.267
22237W        W94552  19.467  31.455   0.023
22238W        W94553  44.510  19.937   3.184
22239W        W94554   1.617   9.749   3.211
22240W        W94555  43.007  39.381   1.818
22241W        W94556  25.466  33.544  10.969
22242W        W94557  26.110  40.894   1.888
22243W        W94558  41.539   4.047   3.593
22244W        W94559  16.202  30.980  14.492
22245W        W94560  35.653  17.069   2.339
22246W        W94561  15.534  28.744   1.361
22247W        W94562  18.288  23.291  13.361
22248W        W94563  28.188  31.527  14.143
22249W        W94564  39.321  41.981  12.294
22250W        W94565   8.399  39.437  11.421
22251W        W94566  13.195  35.838  14.046
22252W        W94567   5.770  36.135   0.914
22253W        W94568  44.565   3.818   4.902
22254W        W94569  16.349   5.668   1.289
22255W        W94570  23.132  41.572   4.077
22256W        W94571  14.880  22.923  13.142
22257W        W94572  43.047  21.677   1.623
22258W        W94573  40.819  38.319  13.441
22259W        W94574  40.296  10.103  13.897
22260W        W94575  14.428  23.669   0.009
22261W        W94576  11.615  22.080   1.428
22262W        W94577  39.891  18.362   4.250
22263W        W94578  18.111  44.174   1.384
22264W        W94579  24.631  20.619  10.868
22265W        W94580  26.522   3.265   5.597
22266W        W94581  27.471   2.376   1.214
22267W        W94582   4.929  39.578  11.834
22268W        W94583  28.760  20.640   1.497
22269W        W94584  23.488   7.176   0.816
22270W        W94585  10.301  13.866   4.980
22271W        W94586  32.837  22.465  10.609
22272W        W94587  39.552  11.267  10.727
22273W        W94588  25.011   4.584   0.057
22274W        W94589  40.375   1.882   4.484
22275W        W94590  15.320   2.609   2.560
22276W        W94591  31.122  12.733   4.533
22277W        W94592   0.568  28.829  11.375
22278W        W94593  44.954  26.519   2.604
22279W        W94594  12.658  22.467   4.678
22280W        W94595  44.182   6.184   2.847
22281W        W94596  27.192  28.176   1.533
22282W        W94597  17.405  21.383  10.054
22283W        W94598  39.424   6.719  10.763
22284W        W94599  21.596  10.977  12.087
22285W        W94600  28.536  26.032  13.312
22286W        W94601  23.638  28.709  14.385
22287W        W94602  25.064   9.893   2.139
22288W        W94603   4.297  19.375  11.298
22289W        W94604  44.050  31.624   4.096
22290W        W94605   1.889  32.679   0.052
22291W        W94606   0.740   7.803   3.271
22292W        W94607  39.509  32.050   2.850
22293W        W94608  35.826  11.524   0.271
22294W        W94609   0.919  44.324  13.499
22295W        W94610   7.644  42.176   1.899
22296W        W94611  37.876   7.689   9.965
22297W        W94612  40.420  28.472  14.817
22298W        W94613  37.080  13.544   2.882
22299W        W94614  31.831  27.080   3.977
22300W        W94615  20.268  40.926  13.406
22301W        W94616  11.385   9.841  14.289
22302W        W94617  20.354  40.375   9.956
22303W        W94618  16.404  14.422  12.428
22304W        W94619  34.235  37.945  10.435
22305W        W94620  20.386  32.574  11.512
22306W        W94621  36.501  26.499   4.078
22307W        W94622  40.969  36.694   1.409
22308W        W94623   5.123  14.304   1.458
22309W        W94624   4.369  28.447   0.883
22310W        W94625   4.730  23.368  14.930
22311W        W94626  21.659  37.397  10.197
22312W        W94627  16.062  27.937   9.855
22313W        W94628  28.046  38.551   2.623
22314W        W94629  38.596  33.519  11.111
22315W        W94630  28.261  18.825  14.348
22316W        W94631  19.735   8.780  10.639
22317W        W94632  44.554  13.312  12.885
22318W        W94633  35.473  24.089   3.845
22319W        W94634   8.411  37.323   3.203
22320W        W94635  22.245  24.257   3.808
22321W        W94636  13.416  24.030  14.604
22322W        W94637  17.426  20.714   3.273
22323W        W94638  17.162   3.294  14.837
22324W        W94639   7.297   5.371   4.704
22325W        W94640  38.399  33.445   0.923
22326W        W94641  12.749  33.228   4.764
22327W        W94642  17.467  41.964   0.398
22328W        W94643  29.431  29.024   3.990
22329W        W94644  17.732  39.025   1.732
22330W        W94645  36.078  14.739   4.210
22331W        W94646  39.833  24.947   2.825
22332W        W94647   7.216  12.178  11.477
22333W        W94648  35.805  41.011  13.452
22334W        W94649  33.447   8.277   4.584
22335W        W94650  32.578  31.598  13.035
22336W        W94651  11.427  36.038  11.746
22337W        W94652  14.340  38.824   3.650
22338W        W94653  32.135  25.989  11.173
22339W        W94654  26.874  43.266   3.778
22340W        W94655  40.728   1.410  14.952
22341W        W94656  20.106  25.824  13.754
22342W        W94657   3.759   6.144  11.412
22343W        W94658  26.196  35.059  11.165
22344W        W94659   9.674  24.047   1.310
22345W        W94660   3.768  19.060   1.687
22346W        W94661  14.087  28.208   1.282
22347W        W94662  18.180  22.904   2.729
22348W        W94663  40.577   3.895  11.661
22349W        W94664  25.547   4.792   5.403
22350W        W94665   1.024  16.347   1.004
22351W        W94666  18.596  20.188  11.120
22352W        W94667  19.803  32.228   3.097
22353W        W94668  16.733  21.575   3.932
22354W        W94669  14.547   3.211   0.419
22355W        W94670  22.970   9.137  10.760
22356W        W94671  18.560  21.155   0.541
22357W        W94672  34.415   8.686  13.133
22358W        W94673  11.785  21.739   4.003
22359W        W94674  17.288  11.105   1.059
22360W        W94675  43.503  27.290   0.658
22361W        W94676  22.262   6.227  12.525
22362W        W94677  10.070  39.048  11.957
22363W        W94678  19.031  17.259  13.051
22364W        W94679  40.814  16.294  11.248
22365W        W94680  13.179  30.539  14.896
22366W        W94681   2.929  27.691   2.959
22367W        W94682   9.733  30.593  11.226
22368W        W94683  25.946  39.035   0.034
22369W        W94684  24.950  41.467   0.932
22370W        W94685  11.383  22.573  14.928
22371W        W94686  32.377  10.319  14.083
22372W        W94687  10.316  44.018   1.804
22373W        W94688  31.054  25.521   2.617
22374W        W94689  25.824  15.587   1.663
22375W        W94690   3.810  11.557  10.773
22376W        W94691  12.234  38.364   0.100
22377W        W94692  36.408  43.577  11.636
22378W        W94693  22.025  32.161   1.316
22379W        W94694  32.418  21.008   2.689
22380W        W94695   7.900  30.934   4.643
22381W        W94696  38.572  36.911  13.808
22382W        W94697  14.269   4.325   2.871
22383W        W94698  44.104  19.176   3.227
22384W        W94699  32.356  43.444  13.056
22385W        W94700  12.346  10.948   2.395
22386W        W94701  11.957  19.662  14.051
22387W        W94702  14.524  12.619   0.799
22388W        W94703  37.937   2.283   3.848
22389W        W94704   2.826   5.399  10.811
22390W        W94705  22.788  39.931  13.638
22391W        W94706  19.221   9.354   4.619
22392W        W94707  27.722  40.559   1.299
22393W        W94708  24.204  32.208  12.988
22394W        W94709  42.051   8.656  15.000
22395W        W94710  34.073  38.142  10.896
22396W        W94711  24.932  44.309   4.173
22397W        W94712  16.771   2.685  12.218
22398W        W94713  25.474   2.988  11.453
22399W        W94714  36.683  10.160   2.621
22400W        W94715   1.785  15.200  11.066
22401W        W94716  26.217   8.609  12.150
22402W        W94717  18.568  32.754   2.574
22403W        W94718  29.023  40.758   1.366
22404W        W94719   4.441  39.541   4.549
22405W        W94720   6.817  21.534  10.746
22406W        W94721  40.036   4.221   1.535
22407W        W94722  30.952  22.932   2.719
22408W        W94723  43.572  13.756   2.318
22409W        W94724  29.252  17.598   0.248
22410W        W94725  21.550  18.402  10.463
22411W        W94726  34.258  38.541   0.734
22412W        W94727  11.683  37.127  13.387
22413W        W94728  26.064  21.440   3.194
22414W        W94729  23.084  24.110   4.579
22415W        W94730  11.136  33.950   1.681
22416W        W94731  24.120  39.719   4.546
22417W        W94732  19.828   0.189  12.959
22418W        W94733  13.714  21.084   2.123
22419W        W94734  31.108  39.007   4.524
22420W        W94735   9.797  24.125   5.060
22421W        W94736  21.480  27.265   3.768
22422W        W94737  35.505  33.585   1.890
22423W        W94738  28.505  23.756  13.969
22424W        W94739  38.782  12.170   4.687
22425W        W94740  40.468  31.518   1.382
22426W        W94741  38.136   2.499  14.305
22427W        W94742  15.475   8.360   0.788
22428W        W94743  17.464  10.957   2.850
22429W        W94744  17.839  33.578  11.538
22430W        W94745  33.221  30.151  12.465
22431W        W94746  31.201  44.239   1.440
22432W        W94747   3.706  15.318  10.464
22433W        W94748  10.681  41.035  13.811
22434W        W94749   5.186   9.780  12.899
22435W        W94750  25.637   9.781  10.319
22436W        W94751  35.410   0.819   3.815
22437W        W94752  12.047  12.136  13.944
22438W        W94753  34.321  30.412  13.856
22439W        W94754  19.365   5.238  12.400
22440W        W94755   0.241   5.750   0.727
22441W        W94756   6.160  22.764   2.153
22442W        W94757   1.890  29.576   3.734
22443W        W94758  11.135  10.221   1.950
22444W        W94759  18.454  40.932   0.491
22445W        W94760  33.910  44.864   1.416
22446W        W94761   9.090   5.294  10.960
22447W        W94762  44.298  37.923  12.639
22448W        W94763  24.477  22.613   2.817
22449W        W94764  12.255  40.330  11.201
22450W        W94765  22.422  10.736  14.333
22451W        W94766  42.276  14.108  12.295
22452W        W94767  18.005   4.647   2.830
22453W        W94768  35.482  14.370   3.797
22454W        W94769   7.018  36.292   0.244
22455W        W94770  13.587  27.454  10.901
22456W        W94771  41.061  39.958   4.357
22457W        W94772  19.190  19.009   0.547
22458W        W94773  19.778  43.449  10.725
22459W        W94774  10.428   9.628   2.769
22460W        W94775  16.909   6.131   3.299
22461W        W94776  12.303  10.120   4.555
22462W        W94777  19.559   1.889  14.224
22463W        W94778   3.322  25.917  12.821
22464W        W94779  40.580   1.953  11.113
22465W        W94780   1.790  13.905  12.290
22466W        W94781  28.178  42.262   1.835
22467W        W94782  40.879  10.349  12.574
22468W        W94783  41.157  23.038   4.661
22469W        W94784   0.397  43.131   3.420
22470W        W94785  12.889  43.877  12.388
22471W        W94786  18.704  41.820   3.136
22472W        W94787  18.385  32.618  13.910
22473W        W94788  26.160  32.586   2.558
22474W        W94789  23.312   1.375   2.444
22475W        W94790  34.599   7.622   3.265
22476W        W94791  26.895  41.953   3.162
22477W        W94792  20.101  33.402  12.523
22478W        W94793   6.664  35.079  11.085
22479W        W94794  31.365  29.153  12.084
22480W        W94795   7.551  27.652  14.325
22481W        W94796  13.595   0.304  13.039
22482W        W94797  29.977  11.450  13.064
22483W        W94798  10.771   2.753   3.673
22484W        W94799  19.530  40.883   1.319
22485W        W94800  40.716  18.063  14.514
22486W        W94801  11.605  11.582   3.896
22487W        W94802  13.563   3.687  12.932
22488W        W94803  14.864   5.401   1.685
22489W        W94804  14.329  16.712  13.015
22490W        W94805  36.584  15.163   0.730
22491W        W94806  34.595  37.354   1.387
22492W        W94807  24.713  42.243  13.635
22493W        W94808  11.437  37.552  14.538
22494W        W94809  10.296   2.096  13.227
22495W        W94810  14.144  23.302  11.604
22496W        W94811  41.957   9.126   1.299
22497W        W94812  26.212  33.284   3.689
22498W        W94813  21.756   0.327  10.632
22499W        W94814  31.720  21.016  13.003
22500W        W94815  12.742   0.862  14.256
22501W        W94816  32.370  26.561   2.438
22502W        W94817   6.054  22.573   4.627
22503W        W94818   9.897  18.113  14.953
22504W        W94819   4.375  11.289   4.353
22505W        W94820  20.214  41.486   0.250
22506W        W94821  26.402  22.136   5.008
22507W        W94822  42.761   7.814   1.336
22508W        W94823   3.748  23.986  14.033
22509W        W94824  19.188  12.160   2.810
22510W        W94825  20.143  43.052  14.291
22511W        W94826  13.873  40.654  12.645
22512W        W94827   5.674  19.458  13.855
22513W        W94828   6.086  39.260   5.067
22514W        W94829  26.720  31.911   1.277
22515W        W94830  33.454  19.151  10.698
22516W        W94831   7.683   8.760   2.441
22517W        W94832   7.905   0.955   2.351
22518W        W94833  19.861  40.486  14.531
22519W        W94834  23.911  12.108  11.223
22520W        W94835  31.070   2.570   2.930
22521W        W94836  39.446   2.422  13.836
22522W        W94837  22.014   3.883   3.163
22523W        W94838  32.628   4.759   4.112
22524W        W94839  39.030  38.763   1.085
22525W        W94840  17.003  43.694  11.993
22526W        W94841  17.343   7.312  10.509
22527W        W94842   9.753  41.891  12.590
22528W        W94843  32.653  19.765   0.006
22529W        W94844  27.949  15.064   1.405
22530W        W94845  41.167   3.798   0.899
22531W        W94846  36.953  17.239   2.889
22532W        W94847  31.683  38.326  14.952
22533W        W94848  20.527   9.836   3.259
22534W        W94849  23.836  16.571  14.979
22535W        W94850  40.877  39.787  12.834
22536W        W94851  40.676  38.768   4.437
22537W        W94852  40.946   6.359  12.187
22538W        W94853   6.925  23.268   1.552
22539W        W94854  38.384  29.696   0.215
22540W        W94855  30.118  12.928   2.402
22541W        W94856  38.780   9.431  12.045
22542W        W94857  12.040  29.474  11.677
22543W        W94858   9.199   7.396  12.044
22544W        W94859   4.164   4.512   0.375
22545W        W94860  32.704  29.124   4.617
22546W        W94861  39.024  38.035  13.291
22547W        W94862  39.365   9.368  11.171
22548W        W94863  38.855  42.175  12.362
22549W        W94864  30.343  27.985   5.055
22550W        W94865  34.469  44.547  10.597
22551W        W94866  17.796  33.833   1.706
22552W        W94867  18.560  32.149  11.567
22553W        W94868  44.918   1.376  14.759
22554W        W94869  40.799  16.102  13.802
22555W        W94870  38.861  42.305  13.565
22556W        W94871  32.868  44.044   1.647
22557W        W94872  10.091  18.045   3.598
22558W        W94873  39.646  15.857  12.553
22559W        W94874   2.723   3.227  14.530
22560W        W94875  40.988  15.215   2.025
22561W        W94876   8.502  33.615   4.093
22562W        W94877  23.585  17.639   2.600
22563W        W94878  43.744  41.356   4.499
22564W        W94879  20.813  43.520  11.607
22565W        W94880  23.483  13.939   2.460
22566W        W94881   4.923  23.221  11.499
22567W        W94882  10.254  31.089  14.768
22568W        W94883  21.242  26.140   3.567
22569W        W94884  18.926  11.828   4.665
22570W        W94885   7.363  35.866   3.334
22571W        W94886  29.739  24.712   1.521
22572W        W94887  41.784  19.628   2.050
22573W        W94888  18.581  24.045  14.484
22574W        W94889  27.523  27.864   0.799
22575W        W94890  35.858  38.017   2.834
22576W        W94891  29.942  33.636   4.309
22577W        W94892  19.662   9.663   4.543
22578W        W94893  44.433   9.331  11.715
22579W        W94894  23.678  37.557   4.850
22580W        W94895  15.235   9.848   4.004
22581W        W94896  11.815  44.155   2.662
22582W        W94897   6.824  18.241  13.006
22583W        W94898  23.434  39.186  13.546
22584W        W94899  27.076  34.499   2.618
22585W        W94900  14.582  41.985   0.451
22586W        W94901   0.941  40.825  10.879
22587W        W94902   4.939  11.124   2.684
22588W        W94903  34.124  38.982  11.140
22589W        W94904  26.173  38.955   1.917
22590W        W94905   5.704  44.318  14.785
22591W        W94906   4.815  14.364  11.420
22592W        W94907  35.413  21.725  14.165
22593W        W94908  27.638  19.085  11.368
22594W        W94909  29.048   3.905  13.444
22595W        W94910  31.743  13.171  13.929
22596W        W94911  42.313   0.918   0.097
22597W        W94912   0.706  21.829   1.508
22598W        W94913  29.892  32.943  13.302
22599W        W94914  23.553  13.915  14.687
22600W        W94915  20.137  30.556  12.567
22601W        W94916  36.643  34.514  11.211
22602W        W94917   3.112  42.458  10.730
22603W        W94918  16.613  17.839  11.020
22604W        W94919  41.743  44.941   1.817
22605W        W94920  19.668  35.066  14.843
22606W        W94921  44.380   3.798   0.033
22607W        W94922  37.921  14.261  13.135
22608W        W94923  35.918  26.185   2.812
22609W        W94924  20.252  26.886   1.811
22610W        W94925  22.200   4.913   3.797
22611W        W94926  16.408   0.941   2.607
22612W        W94927  24.743  34.970  12.039
22613W        W94928  15.307  30.114  12.673
22614W        W94929  32.903  40.405  11.731
22615W        W94930  15.127  25.040  12.072
22616W        W94931   4.798  13.390  13.452
22617W        W94932   6.278  26.260   3.725
22618W        W94933  19.211  34.454   4.099
22619W        W94934  24.739  14.211  14.185
22620W        W94935  20.243  22.009   4.245
22621W        W94936   0.998  41.415   4.146
22622W        W94937  32.171  24.805   0.402
22623W        W94938  35.606  37.401  11.968
22624W        W94939   7.856   7.890  14.564
22625W        W94940   6.488   9.716   1.746
22626W        W94941  35.976  34.105  13.389
22627W        W94942   7.909  11.257   2.621
22628W        W94943  42.228  16.979  14.427
22629W        W94944   4.484  27.427  11.939
22630W        W94945  25.949  20.566  13.032
22631W        W94946  16.792  10.197   4.836
22632W        W94947   5.049  23.475   9.901
22633W        W94948  40.314  41.923  10.676
22634W        W94949  24.469   5.205   0.923
22635W        W94950   1.144  12.763  11.896
22636W        W94951   3.997  44.987  12.076
22637W        W94952  25.979  13.704   3.100
22638W        W94953  16.072   1.300  13.565
22639W        W94954  32.563  17.642  13.315
22640W        W94955  23.325  42.785  13.840
22641W        W94956  15.109   6.253  11.326
22642W        W94957  23.991   2.700   1.535
22643W        W94958   7.774  43.104  12.523
22644W        W94959  30.609  12.551   2.857
22645W        W94960  12.345  13.590  12.931
22646W        W94961  40.970  37.987  13.021
22647W        W94962   9.053  38.871  12.049
22648W        W94963  12.153  14.754   4.208
22649W        W94964  33.977  25.667   1.232
22650W        W94965  23.537   3.977   2.852
22651W        W94966  19.295  42.526  13.508
22652W        W94967  11.305  20.310  11.140
22653W        W94968  18.589  24.397  11.135
22654W        W94969  39.031  22.092  14.009
22655W        W94970   9.614  17.499  11.216
22656W        W94971  37.108  23.837  10.044
22657W        W94972  33.189   4.236  12.491
22658W        W94973  11.433  14.649   0.722
22659W        W94974  20.515  36.938   1.712
22660W        W94975  17.005  11.608   4.300
22661W        W94976  40.863  42.529   2.383
22662W        W94977  32.063  38.790   1.650
22663W        W94978  20.605   9.133  11.118
22664W        W94979  22.051  32.696  13.019
22665W        W94980  37.856  38.860  13.800
22666W        W94981  24.671  39.147   4.283
22667W        W94982   9.863  27.455  11.748
22668W        W94983  17.495   2.748  11.607
22669W        W94984  24.669  14.288  14.707
22670W        W94985  33.992  36.091   1.251
22671W        W94986  18.429  34.489  13.521
22672W        W94987  19.375  38.573  13.793
22673W        W94988  23.701  26.998   1.387
22674W        W94989  28.693  24.255  10.233
22675W        W94990  15.224  41.416   1.901
22676W        W94991  10.297  43.536   0.498
22677W        W94992   5.978  41.465  11.175
22678W        W94993  37.272  13.228   3.533
22679W        W94994  27.982   0.953   0.270
22680W        W94995  25.196   2.804   2.613
22681W        W94996  15.676   9.166   1.687
22682W        W94997  25.950  21.806  11.807
22683W        W94998  27.337   4.056   4.631
22684W        W94999  13.358  24.807   3.145
22685W        W95000  14.721   5.380  11.876
22686W        W95001  32.031   2.839  14.497
22687W        W95002  33.878  20.999   0.823
22688W        W95003  31.635   7.077  12.215
22689W        W95004  10.792  37.957   4.358
22690W        W95005  21.188  34.111   3.305
22691W        W95006  30.153  32.360   1.011
22692W        W95007  18.560  17.080   1.154
22693W        W95008   5.085  14.520   2.701
22694W        W95009  41.930  17.136  12.880
22695W        W95010  25.319  16.974   2.847
22696W        W95011  19.291  14.749   2.184
22697W        W95012  27.119  13.803   4.673
22698W        W95013  43.582  38.450   1.887
22699W        W95014  17.579   8.709   4.621
22700W        W95015   3.816  33.485  14.978
22701W        W95016   0.434  10.130   0.104
22702W        W95017  24.235  35.921   1.709
22703W        W95018  33.471  34.222   2.728
22704W        W95019  16.084  41.623   2.907
22705W        W95020  35.174  35.001   2.665
22706W        W95021  44.422  33.921  13.285
22707W        W95022   5.636  17.625  11.677
22708W        W95023  44.615   9.373   1.033
22709W        W95024  34.097  16.517   2.698
22710W        W95025   0.852   0.256  11.161
22711W        W95026  40.957  26.469   0.436
22712W        W95027  37.164  17.349  14.558
22713W        W95028  29.131   9.273  11.101
22714W        W95029  37.344  25.428   4.585
22715W        W95030  39.509  39.169   2.231
22716W        W95031  19.158  35.120   3.625
22717W        W95032  26.649  30.221  11.141
22718W        W95033  15.266  31.793   1.261
22719W        W95034  19.906  36.845   4.775
22720W        W95035  44.585  10.998  10.691
22721W        W95036   9.431   3.465   1.806
22722W        W95037  27.968  34.570  13.701
22723W        W95038  42.498  31.881   0.586
22724W        W95039  28.397  39.790  13.948
22725W        W95040   5.738  33.030  13.956
22726W        W95041  37.215   9.564   0.444
22727W        W95042  29.894  16.232  14.487
22728W        W95043   8.279  29.375   0.416
22729W        W95044  43.926   0.809   1.114
22730W        W95045  42.334  28.636  10.752
22731W        W95046  24.898  38.089   2.845
22732W        W95047  22.960   5.578  11.734
22733W        W95048  11.583  15.119  14.180
22734W        W95049   9.120  28.112  13.516
22735W        W95050  40.962  34.465  14.779
22736W        W95051  13.677  42.847  11.824
22737W        W95052  26.326  25.482  14.486
22738W        W95053  24.538  31.384  12.847
22739W        W95054  42.818  14.190   9.909
22740W        W95055  22.440  23.945   1.788
22741W        W95056   6.851  34.934   0.466
22742W        W95057  30.951  18.608  12.814
22743W        W95058  39.594  28.911  13.378
22744W        W95059  10.256  25.773  12.397
22745W        W95060   5.382  34.602  12.559
22746W        W95061  12.422  12.412   2.771
22747W        W95062  16.086  44.736   3.179
22748W        W95063   5.608   8.737  11.032
22749W        W95064  14.007   1.881   4.843
22750W        W95065   0.199   3.131  12.174
22751W        W95066  35.818  16.804   0.022
22752W        W95067  37.434  41.448   3.971
22753W        W95068   1.317  37.672  12.470
22754W        W95069   0.283  41.312  10.643
22755W        W95070   3.264   1.944  13.274
22756W        W95071   9.049  26.180  12.891
22757W        W95072  38.528  24.985  12.822
22758W        W95073  33.979  15.922   4.146
22759W        W95074  36.508  37.905  10.607
22760W        W95075   4.732   1.992  14.007
22761W        W95076  28.551  15.708   3.867
22762W        W95077  27.144  38.493  13.819
22763W        W95078  26.163  27.256   4.151
22764W        W95079  37.566  30.251  14.847
22765W        W95080  44.722  36.047   9.741
22766W        W95081   1.818  21.186   2.716
22767W        W95082  26.062  22.211  12.125
22768W        W95083  10.249   0.947   0.314
22769W        W95084  22.059  13.744   3.072
22770W        W95085   6.820  14.496  11.186
22771W        W95086  30.871  13.711   4.188
22772W        W95087  22.779  22.619  10.443
22773W        W95088  35.040  10.017  14.291
22774W        W95089  35.445   2.685  13.907
22775W        W95090  44.779   1.837   0.738
22776W        W95091   0.553   3.751   1.758
22777W        W95092   5.487  39.552   4.508
22778W        W95093  41.743  42.980   4.632
22779W        W95094  42.290   3.742   1.730
22780W        W95095  37.084  39.520  12.942
22781W        W95096  11.690  31.508  12.060
22782W        W95097  13.214   8.248  11.027
22783W        W95098   4.652  38.035  12.183
22784W        W95099  15.742  16.993  14.416
22785W        W95100  16.182   0.526  14.985
22786W        W95101  19.290  41.892  14.912
22787W        W95102  12.450  12.076   0.328
22788W        W95103   6.810  16.349   3.646
22789W        W95104  33.645  17.524  12.895
22790W        W95105   8.179  39.900   2.568
22791W        W95106  44.872  27.644   0.342
22792W        W95107  15.707  33.335   3.629
22793W        W95108  33.169  35.653   1.683
22794W        W95109  18.985  21.603  14.908
22795W        W95110  36.863  29.954  10.923
22796W        W95111  14.066  37.912  12.510
22797W        W95112  20.161  33.567   3.856
22798W        W95113  33.395  40.649  12.379
22799W        W95114   4.775  25.917   1.820
22800W        W95115   8.428  14.822   1.003
22801W        W95116  39.810  21.975   0.841
22802W        W95117  18.296  23.480  14.975
22803W        W95118   6.015  44.323   1.286
22804W        W95119  10.838  38.376  11.881
22805W        W95120  44.536   2.548  13.480
22806W        W95121  31.935  41.502  10.826
22807W        W95122  16.623  10.309  13.757
22808W        W95123   0.991   3.538   1.498
22809W        W95124   6.785  27.442   1.332
22810W        W95125  26.059  35.423   2.453
22811W        W95126  19.852   9.920  12.599
22812W        W95127   4.827  31.199   1.892
22813W        W95128  33.033  42.859   0.004
22814W        W95129  32.423  35.199  12.128
22815W        W95130  12.206   9.025  12.142
22816W        W95131  13.727  14.078   1.832
22817W        W95132  12.999   5.430   0.312
22818W        W95133  15.870   9.242   4.269
22819W        W95134   2.875  14.226  14.181
22820W        W95135  19.965   8.183   0.039
22821W        W95136  21.994   7.101   4.557
22822W        W95137  34.644   0.886   2.188
22823W        W95138   9.958  38.854   1.805
22824W        W95139  31.833  33.513  13.088
22825W        W95140  44.634  33.990   2.427
22826W        W95141  11.652  40.933  12.254
22827W        W95142  39.877  13.632  11.558
22828W        W95143  41.926  22.142   3.087
22829W        W95144   7.712  20.965   2.198
22830W        W95145  24.957  17.761  13.076
22831W        W95146  19.960  15.824  14.890
22832W        W95147  22.452  24.633   4.335
22833W        W95148  42.057  20.801  14.967
22834W        W95149  22.972   6.113  10.604
22835W        W95150   8.230  21.761   3.693
22836W        W95151  42.856  31.456   1.806
22837W        W95152  36.707  38.102   4.583
22838W        W95153  16.352  42.870   0.672
22839W        W95154  13.140   0.741  12.906
22840W        W95155   5.790  17.370  10.922
22841W        W95156  21.508  21.131   2.646
22842W        W95157  42.411  36.853   1.363
22843W        W95158  26.122  39.998   2.093
22844W        W95159  10.694  12.171   0.161
22845W        W95160  23.126  29.542   1.355
22846W        W95161   8.739  21.370  12.192
22847W        W95162   8.393   7.732  14.526
22848W        W95163  39.135  15.869  13.513
22849W        W95164  15.353  39.662  14.681
22850W        W95165  41.976  37.539   2.723
22851W        W95166  26.648  38.114   1.326
22852W        W95167  28.576  26.901   0.945
22853W        W95168   4.839  23.588   2.321
22854W        W95169   6.216  27.976   1.892
22855W        W95170  25.064   3.647   1.866
22856W        W95171  31.021  37.920   4.666
22857W        W95172   8.909  17.605   4.252
22858W        W95173  43.884  42.584  12.958
22859W        W95174  32.874  10.354  11.986
22860W        W95175  15.346   7.196   0.431
22861W        W95176   5.902  42.329  14.830
22862W        W95177  25.220  21.467  14.953
22863W        W95178  33.667  35.863   1.706
22864W        W95179   3.134  35.534  13.999
22865W        W95180  29.550  24.476  11.915
22866W        W95181  19.713  23.136   3.846
22867W        W95182  13.583  16.439  12.574
22868W        W95183  19.605  40.613  14.973
22869W        W95184  35.407  34.114  14.023
22870W        W95185  30.143  29.506  12.343
22871W        W95186   8.532  32.890  14.327
22872W        W95187  14.263  25.928  14.804
22873W        W95188  42.217  31.580  14.854
22874W        W95189  28.344   5.694  14.583
22875W        W95190   7.117  11.149   3.376
22876W        W95191  39.578  29.762  10.772
22877W        W95192  33.587  32.592   2.145
22878W        W95193  17.186  19.005  13.082
22879W        W95194   1.064  12.783   4.984
22880W        W95195  44.293  34.111   0.335
22881W        W95196  24.558  38.839   0.292
22882W        W95197   0.945  35.875   3.713
22883W        W95198  23.683   0.278   3.667
22884W        W95199  44.982  18.532  14.924
22885W        W95200  29.984  31.493   0.242
22886W        W95201  36.464  35.743  12.839
22887W        W95202  26.532  38.314  14.489
22888W        W95203  12.361   6.238  14.526
22889W        W95204   0.067  41.768  11.562
22890W        W95205  32.301   4.299   4.128
22891W        W95206  28.045   6.743   9.631
22892W        W95207  29.610  10.900  10.614
22893W        W95208  14.739  37.456  14.956
22894W        W95209  41.990  24.739  14.298
22895W        W95210  27.758   6.815   1.939
22896W        W95211  18.290  34.847  11.150
22897W        W95212  39.771  14.807   2.391
22898W        W95213  14.871   2.284   0.994
22899W        W95214  18.742  42.463   1.350
22900W        W95215  33.118  20.245   0.278
22901W        W95216  34.993  41.452  10.931
22902W        W95217  20.495   0.752   4.382
22903W        W95218  37.715  33.015  12.416
22904W        W95219  39.010  39.048   0.315
22905W        W95220  25.894   8.918  14.524
22906W        W95221   2.808   8.484   3.753
22907W        W95222   1.084  26.167  11.510
22908W        W95223  15.339  22.720   0.497
22909W        W95224  37.099  13.112   2.137
22910W        W95225  34.882   6.230   4.060
22911W        W95226  37.831  34.944   2.406
22912W        W95227   2.032   8.748  12.142
22913W        W95228  17.260  27.643  10.597
22914W        W95229  26.544   6.760   0.759
22915W        W95230  40.953  21.062   2.381
22916W        W95231  41.071  17.423  11.930
22917W        W95232  27.110  11.773  12.313
22918W        W95233  23.115  13.864  12.625
22919W        W95234  10.446  38.160  13.799
22920W        W95235  28.386   6.755  12.830
22921W        W95236  43.030  11.245   2.757
22922W        W95237  35.444  32.490   0.911
22923W        W95238  40.809  13.745   1.207
22924W        W95239   9.576  20.326  14.886
22925W        W95240  20.122  37.921  14.834
22926W        W95241   9.941   3.034   2.491
22927W        W95242  43.552  41.066   1.877
22928W        W95243  34.373   3.795   4.815
22929W        W95244  22.202  22.840  13.030
22930W        W95245  21.363  13.959   3.386
22931W        W95246  44.433  34.550   5.242
22932W        W95247  31.409  31.084   1.627
22933W        W95248  36.612  33.682  14.068
22934W        W95249   6.474   1.108  11.670
22935W        W95250  27.564  36.546  11.200
22936W        W95251  23.102  22.077   3.261
22937W        W95252  23.230   4.414  11.687
22938W        W95253  42.507  27.181  13.126
22939W        W95254  44.896  17.280  11.565
22940W        W95255  36.442  42.878   0.920
22941W        W95256  32.995   5.470   1.856
22942W        W95257  39.992   6.314   0.519
22943W        W95258  11.725  38.424  13.818
22944W        W95259   0.837  29.667   1.767
22945W        W95260  42.784   2.403   0.050
22946W        W95261   0.920   0.197   4.220
22947W        W95262  40.009  11.420   2.241
22948W        W95263  37.544  43.733  14.607
22949W        W95264   5.277  24.217   1.831
22950W        W95265   1.303  10.144   3.351
22951W        W95266  20.313  14.096   3.237
22952W        W95267   8.787   6.548   4.217
22953W        W95268   2.242   2.292  14.666
22954W        W95269  13.083  12.077  11.053
22955W        W95270  19.238  30.686  13.441
22956W        W95271  25.667  40.165  12.957
22957W        W95272  35.469  44.473  10.678
22958W        W95273  11.312  13.596   2.251
22959W        W95274   6.271  21.723  13.791
22960W        W95275  40.210  42.589   3.089
22961W        W95276  20.611  21.962   1.824
22962W        W95277  44.325  16.383  14.417
22963W        W95278  22.571  20.482   0.981
22964W        W95279  17.269  43.464   4.601
22965W        W95280  35.896  40.076  13.913
22966W        W95281  18.493   9.314   3.404
22967W        W95282  32.787  38.829   0.858
22968W        W95283  36.584   7.351  12.652
22969W        W95284  25.272  11.730  12.472
22970W        W95285   4.751  30.374   2.104
22971W        W95286  42.411  17.507   1.939
22972W        W95287  31.905  14.070  14.021
22973W        W95288  29.031  43.283  12.026
22974W        W95289   0.249   9.741  12.941
22975W        W95290  24.100  41.474   1.173
22976W        W95291   2.367   4.870   2.665
22977W        W95292  37.385  11.550  13.917
22978W        W95293   4.737   2.673  13.441
22979W        W95294  25.139  17.289  13.245
22980W        W95295  20.971  18.816  11.327
22981W        W95296   7.792  26.401   3.028
22982W        W95297  17.269  18.175  14.891
22983W        W95298  41.607  34.033   2.798
22984W        W95299  18.455  15.354   4.677
22985W        W95300  30.496  15.082  13.309
22986W        W95301   9.999   8.272   4.935
22987W        W95302  13.590  19.071  10.595
22988W        W95303  24.905   2.161  12.881
22989W        W95304  10.119  33.204  11.735
22990W        W95305  39.108  38.011   2.744
22991W        W95306   6.485  29.660  12.903
22992W        W95307  19.114  41.638   2.348
22993W        W95308  15.343  17.625  14.320
22994W        W95309  41.832   4.219  14.478
22995W        W95310  21.131  38.422  14.441
22996W        W95311  22.781  14.804  14.768
22997W        W95312  35.606  18.558  11.897
22998W        W95313  14.332  21.273   0.845
22999W        W95314   6.386   1.366  11.170
23000W        W95315  25.181  41.816   3.776
23001W        W95316  34.145  35.528   3.302
23002W        W95317  37.651  35.083  12.973
23003W        W95318  36.757  18.285  14.066
23004W        W95319  14.657  17.789   1.455
23005W        W95320  16.120   2.481  14.815
23006W        W95321  40.569  43.913  14.393
23007W        W95322   5.227  12.269   1.832
23008W        W95323   7.826   8.903  10.372
23009W        W95324  30.508  19.252   3.292
23010W        W95325   8.127  22.101  14.387
23011W        W95326  28.846  33.052  11.643
23012W        W95327  21.941  21.689   2.146
23013W        W95328  21.670  10.608  11.042
23014W        W95329  10.168  39.901   2.511
23015W        W95330  28.219  12.381   2.907
23016W        W95331  30.079   1.152  11.561
23017W        W95332  13.811  36.808   3.160
23018W        W95333  26.782  26.307   2.075
23019W        W95334   4.982  36.443  14.414
23020W        W95335  37.113  18.016  12.539
23021W        W95336  42.867  43.146  11.033
23022W        W95337  43.473  35.000  11.531
23023W        W95338  35.887  39.557  13.941
23024W        W95339  26.085  10.697  10.874
23025W        W95340  30.160   2.030   3.892
23026W        W95341   0.478  19.074  14.869
23027W        W95342  14.385  31.074  12.634
23028W        W95343  40.914  31.987   4.461
23029W        W95344  28.317  18.587  10.450
23030W        W95345  43.354  33.879  13.448
23031W        W95346   3.221  10.798   1.379
23032W        W95347   1.665  44.309   4.573
23033W        W95348  11.665  13.790  11.123
23034W        W95349   7.716   2.212   3.358
23035W        W95350   1.958  40.342   4.225
23036W        W95351  43.318  16.116  11.153
23037W        W95352   8.902  34.772   0.329
23038W        W95353  36.847  37.262  14.362
23039W        W95354   8.464  15.746   2.310
23040W        W95355   9.362   5.348   1.259
23041W        W95356   1.936   8.904   2.228
23042W        W95357   0.761   1.645  12.870
23043W        W95358   7.172  26.701  13.995
23044W        W95359  20.199  44.332   0.918
23045W        W95360  22.608  13.803  13.807
23046W        W95361  39.265   1.320   2.210
23047W        W95362  33.986  20.620   4.197
23048W        W95363  12.790  27.206   4.099
23049W        W95364  39.034  25.675  10.700
23050W        W95365  37.025  15.528   3.235
23051W        W95366  23.635   5.375  13.329
23052W        W95367  24.184   9.878  11.013
23053W        W95368  31.448  42.807   2.704
23054W        W95369   7.744  12.377   3.138
23055W        W95370  28.113  22.003  11.388
23056W        W95371  10.786   5.919   4.632
23057W        W95372  22.707  27.220   1.506
23058W        W95373  23.758  29.339  10.766
23059W        W95374   0.462  32.630   3.716
23060W        W95375  13.783  33.587   0.263
23061W        W95376   7.147  34.582   4.133
23062W        W95377   2.202  18.144   1.260
23063W        W95378  40.981  22.747  11.143
23064W        W95379  14.346   2.879  13.363
23065W        W95380  25.005  31.949  14.816
23066W        W95381  33.117   6.312   3.373
23067W        W95382  15.317  37.749  12.950
23068W        W95383   3.938  44.931   0.960
23069W        W95384  13.297  36.317   3.630
23070W        W95385  18.705  37.215   3.053
23071W        W95386  38.537  37.811  13.264
23072W        W95387  13.290  30.328  12.457
23073W        W95388  19.989   7.823  13.044
23074W        W95389  30.119  35.449  13.066
23075W        W95390  37.895  14.262   0.493
23076W        W95391  43.925  42.606  11.640
23077W        W95392   5.283  14.161  14.832
23078W        W95393  38.342   7.969  13.060
23079W        W95394   3.017  43.301   2.163
23080W        W95395  22.024  36.471   3.410
23081W        W95396  37.163  41.947   3.768
23082W        W95397  30.055  29.464   3.624
23083W        W95398  25.149  23.603  13.810
23084W        W95399  13.172  41.618  14.335
23085W        W95400  28.880  29.943  11.191
23086W        W95401  22.724   4.862   0.814
23087W        W95402  16.697   6.400   4.175
23088W        W95403  23.863  33.694   1.906
23089W        W95404  21.956  14.211  11.000
23090W        W95405  43.424  43.548  12.073
23091W        W95406  20.989  10.943  10.507
23092W        W95407  18.406   6.433   3.402
23093W        W95408  10.883  32.228  13.490
23094W        W95409   4.443   6.124  11.872
23095W        W95410   6.601  34.566   3.150
23096W        W95411  39.287   6.399   1.240
23097W        W95412  38.719  10.866   1.795
23098W        W95413  15.708  11.007   3.668
23099W        W95414  36.563   6.924  10.464
23100W        W95415  11.218  36.501   1.066
23101W        W95416  14.686  36.136   5.032
23102W        W95417  22.009  33.263  13.921
23103W        W95418  19.823   4.327   2.681
23104W        W95419  28.651  39.064   2.093
23105W        W95420  18.563  13.552  11.700
23106W        W95421  37.865  44.300  12.111
23107W        W95422  27.109  12.291   0.431
23108W        W95423   9.051  14.857  14.776
23109W        W95424  30.905   7.202   0.782
23110W        W95425  39.073  33.072   2.671
23111W        W95426  38.055  13.302   1.406
23112W        W95427   5.202  18.312   2.630
23113W        W95428   5.781  37.252  14.873
23114W        W95429  10.124  12.846  11.934
23115W        W95430  17.649  19.764   2.189
23116W        W95431  42.079  14.535  12.100
23117W        W95432  25.579  12.906  13.959
23118W        W95433   9.978  20.645   4.316
23119W        W95434  44.042  31.354  11.193
23120W        W95435  43.936  33.240   0.729
23121W        W95436  11.036   6.525   2.959
23122W        W95437  31.591  26.749   4.383
23123W        W95438  34.509  16.155  14.980
23124W        W95439   7.635  39.008  12.000
23125W        W95440  24.626  22.434   4.544
23126W        W95441  31.525  20.730  13.792
23127W        W95442  44.573  18.057  11.935
23128W        W95443  24.959  39.857   2.610
23129W        W95444   9.915  28.918  11.915
23130W        W95445  42.362   3.021  10.634
23131W        W95446  24.985  25.598   0.953
23132W        W95447  35.552  10.384   4.668
23133W        W95448  37.773  29.038   0.901
23134W        W95449   5.192   7.910  12.505
23135W        W95450  33.515  10.587   3.295
23136W        W95451   5.306  30.624   4.218
23137W        W95452  24.626  39.641   3.616
23138W        W95453   0.782  24.579   0.248
23139W        W95454  39.525  24.203  11.752
23140W        W95455  37.350   8.153  13.833
23141W        W95456  40.777  32.408  12.369
23142W        W95457  28.156  24.096  10.857
23143W        W95458  22.730  37.044  10.584
23144W        W95459  25.860  10.898   1.186
23145W        W95460   1.564  40.049  13.966
23146W        W95461   6.017  12.075  11.195
23147W        W95462   9.159  31.524   4.906
23148W        W95463  44.736  25.590   2.231
23149W        W95464   0.284  31.403  13.450
23150W        W95465  36.567   4.498   2.448
23151W        W95466  24.465  30.439  11.142
23152W        W95467  24.679   2.785   2.593
23153W        W95468   2.949   7.266  14.346
23154W        W95469   8.130  30.997  10.723
23155W        W95470  37.113  20.509   3.647
23156W        W95471   4.855  37.293  12.544
23157W        W95472  42.597  35.502   1.459
23158W        W95473   5.827  38.871   4.806
23159W        W95474  27.072  44.154  12.576
23160W        W95475  33.046  17.997   0.167
23161W        W95476  33.755   2.827   2.131
23162W        W95477  16.269   3.966  11.186
23163W        W95478   8.619  29.431   1.535
23164W        W95479  17.801  31.115  13.394
23165W        W95480  13.139  35.383   4.661
23166W        W95481   1.267   4.363   4.848
23167W        W95482  24.190  27.597   1.853
23168W        W95483  29.051  22.809  10.808
23169W        W95484   0.044   0.206   3.221
23170W        W95485   0.317  16.311   4.529
23171W        W95486  11.176  20.781   2.221
23172W        W95487  32.974  25.692  14.488
23173W        W95488   6.249  18.299  10.633
23174W        W95489  23.008   7.643   1.468
23175W        W95490  16.748  31.138   4.421
23176W        W95491  31.464  38.100  13.748
23177W        W95492  20.165  33.196   3.088
23178W        W95493  30.585  11.923   4.044
23179W        W95494  25.232  28.098   4.505
23180W        W95495  37.962  41.508   3.641
23181W        W95496  23.780  42.687  10.262
23182W        W95497  39.540  33.149  13.283
23183W        W95498  40.329   2.638  10.761
23184W        W95499  35.937  42.880  12.176
23185W        W95500  20.979  43.094   3.838
23186W        W95501   7.237   1.563   4.166
23187W        W95502  23.875   7.703   1.854
23188W        W95503  17.636  43.546  14.344
23189W        W95504  17.059   6.753   1.440
23190W        W95505  33.111  27.174   1.844
23191W        W95506  35.827  15.135   2.758
23192W        W95507  33.077   8.152  14.232
23193W        W95508  43.366  15.306  12.902
23194W        W95509  42.453  39.670  13.684
23195W        W95510  41.060   1.795   0.892
23196W        W95511  29.597  42.547  10.749
23197W        W95512  40.300  34.479   2.726
23198W        W95513  22.334  42.986  14.914
23199W        W95514  21.552  15.210  11.160
23200W        W95515  12.272  12.270  14.833
23201W        W95516  32.374  30.994  13.905
23202W        W95517  40.020  23.624  12.104
23203W        W95518   5.367  33.290  11.554
23204W        W95519  18.591  35.930  10.654
23205W        W95520  34.976  26.527  11.997
23206W        W95521  34.371  17.443   0.594
23207W        W95522  28.006  44.390  13.509
23208W        W95523  19.667  10.094   4.859
23209W        W95524  42.548  44.458  12.492
23210W        W95525  32.758  29.374  12.794
23211W        W95526  43.698  21.567  12.906
23212W        W95527  30.082  32.016  13.305
23213W        W95528  25.724  35.945   1.742
23214W        W95529  10.457  14.328  12.047
23215W        W95530   5.305   8.886   2.308
23216W        W95531  18.719  17.559   1.256
23217W        W95532  35.627  14.009  14.402
23218W        W95533  16.011  26.602   2.868
23219W        W95534   3.335  14.422  12.430
23220W        W95535  19.229  44.073  11.465
23221W        W95536  29.954   7.308   1.458
23222W        W95537   9.741   2.684  14.955
23223W        W95538  35.832  22.259  12.494
23224W        W95539  32.418  34.817  12.486
23225W        W95540  14.471  29.079  14.502
23226W        W95541  19.774   2.435  10.716
23227W        W95542  35.096  37.554  13.430
23228W        W95543   4.432   7.511  14.612
23229W        W95544  27.959  38.052   2.516
23230W        W95545  16.256  27.347  12.969
23231W        W95546   0.774  22.699  11.213
23232W        W95547  16.749  44.735   0.016
23233W        W95548   1.010  18.651  10.701
23234W        W95549  44.488  17.148  12.513
23235W        W95550  35.851  25.932  12.832
23236W        W95551   4.332   0.782  14.398
23237W        W95552  32.643  10.571   2.820
23238W        W95553  25.917  42.101   2.133
23239W        W95554  44.603  19.980  12.932
23240W        W95555  44.888  11.694  14.456
23241W        W95556  18.930  14.655   1.291
23242W        W95557  14.311  29.729   1.268
23243W        W95558  18.771  39.388  13.945
23244W        W95559  11.106   4.126  14.632
23245W        W95560  22.134  28.651  12.340
23246W        W95561   9.250  38.358  11.958
23247W        W95562  34.996  17.010  13.083
23248W        W95563  21.773   9.360   0.459
23249W        W95564   9.245  30.901   4.159
23250W        W95565  41.475  29.307   2.692
23251W        W95566  24.996  41.252  11.639
23252W        W95567  16.740  42.185   4.704
23253W        W95568  10.558   6.403   3.786
23254W        W95569   6.852  30.216   3.226
23255W        W95570   1.186  38.007  10.760
23256W        W95571  28.652  30.552   1.957
23257W        W95572  20.268  19.617  13.843
23258W        W95573  39.316   3.508  10.957
23259W        W95574   6.822  26.572   4.168
23260W        W95575  15.257  30.923   4.962
23261W        W95576   9.335  44.422  14.937
23262W        W95577  31.192  23.987  14.992
23263W        W95578  32.985  11.540  14.731
23264W        W95579  15.039  28.720   1.181
23265W        W95580  39.470  21.576   0.893
23266W        W95581  25.074   7.778  12.960
23267W        W95582   5.163  22.621  14.829
23268W        W95583   4.438   4.127   4.250
23269W        W95584   2.266  10.131   4.872
23270W        W95585  33.100  29.042  11.741
23271W        W95586  27.897  38.695  12.795
23272W        W95587  44.348  32.057   2.561
23273W        W95588   7.659  18.167   4.075
23274W        W95589  12.643   6.910   3.719
23275W        W95590  22.212  35.593  14.943
23276W        W95591  37.622  31.161   3.651
23277W        W95592  12.539  18.459   3.411
23278W        W95593  29.630  42.904   2.782
23279W        W95594  38.653  30.991  13.952
23280W        W95595   8.172  17.206   4.066
23281W        W95596  31.105  30.594   4.599
23282W        W95597  31.845  23.476   2.755
23283W        W95598   9.884  37.160   3.728
23284W        W95599  27.226   5.424   5.138
23285W        W95600  36.828  39.497   3.824
23286W        W95601  39.700  22.484  12.913
23287W        W95602  29.488  38.209  10.784
23288W        W95603  19.565  34.422  14.382
23289W        W95604   6.862   5.151  14.832
23290W        W95605  21.529  25.011  12.659
23291W        W95606   6.366   1.096  13.909
23292W        W95607  44.832  27.404  14.031
23293W        W95608  20.278  14.365   5.165
23294W        W95609  11.395   2.947  14.370
23295W        W95610  23.286  29.232   1.859
23296W        W95611  43.801   5.898  13.969
23297W        W95612   6.121  16.389   2.842
23298W        W95613  39.663   9.721  12.042
23299W        W95614  20.689  44.093   2.027
23300W        W95615  44.308  15.650  13.440
23301W        W95616   9.776  23.254   1.823
23302W        W95617  44.417  12.979   4.717
23303W        W95618  21.856  26.664  12.539
23304W        W95619  17.519  23.839  13.074
23305W        W95620  40.043  32.482  12.971
23306W        W95621  39.970  38.235   0.911
23307W        W95622  25.590  20.739   2.676
23308W        W95623  39.452  35.005  11.382
23309W        W95624   7.339  37.495   2.266
23310W        W95625  25.152  17.168  13.753
23311W        W95626   3.477  25.910   3.661
23312W        W95627  38.900  33.502   4.574
23313W        W95628  26.951   7.732  14.849
23314W        W95629   0.252  13.854  12.445
23315W        W95630  34.430  25.262  13.046
23316W        W95631   5.416  27.114   4.829
23317W        W95632  13.882  10.654   2.263
23318W        W95633   1.073  16.884   1.783
23319W        W95634  28.104  33.587  11.463
23320W        W95635   1.924  37.837  11.887
23321W        W95636   7.709  23.117   3.590
23322W        W95637  31.130  41.059  11.860
23323W        W95638  33.521  12.830   3.172
23324W        W95639   4.744  12.303   2.099
23325W        W95640  15.301  15.825  12.112
23326W        W95641   6.929  27.625  12.105
23327W        W95642   2.920   8.167  13.310
23328W        W95643   6.578  24.533   4.514
23329W        W95644   0.532  39.553   2.557
23330W        W95645  21.070  32.349   1.404
23331W        W95646  27.689  21.956  12.588
23332W        W95647   8.229   4.436  10.949
23333W        W95648  15.046   2.190   2.464
23334W        W95649  30.890  38.954   2.290
23335W        W95650  21.295   7.190   0.573
23336W        W95651   3.337  26.436   2.626
23337W        W95652  41.906  19.809   3.548
23338W        W95653  37.623  40.931  11.604
23339W        W95654  33.457  41.793  12.032
23340W        W95655   2.195  42.935  10.713
23341W        W95656   8.857  26.177   2.300
23342W        W95657  40.551  14.629  13.941
23343W        W95658   1.788  39.891   1.998
23344W        W95659  26.309  44.153  12.255
23345W        W95660  32.768  23.971   2.791
23346W        W95661   9.094  39.009  11.196
23347W        W95662   3.293   1.624  11.042
23348W        W95663  22.014   0.992  11.942
23349W        W95664  30.850  12.219   0.596
23350W        W95665  25.950  16.262   4.532
23351W        W95666  35.792  35.570   2.693
23352W        W95667   0.544  17.555  14.391
23353W        W95668  32.364   6.900   3.218
23354W        W95669  29.957   2.934  13.392
23355W        W95670  32.205  16.846   2.795
23356W        W95671  25.530   7.741  11.649
23357W        W95672  23.506  24.517   4.530
23358W        W95673  26.280   0.363  11.550
23359W        W95674  27.453  25.857  13.085
23360W        W95675  20.172  30.758  12.037
23361W        W95676  33.412  16.649  12.480
23362W        W95677   7.668  37.393  10.728
23363W        W95678   3.441  13.858   0.930
23364W        W95679  33.703  34.146  14.580
23365W        W95680  37.771   2.860   2.657
23366W        W95681  28.040   3.537   4.126
23367W        W95682  43.008  30.113  13.488
23368W        W95683  35.847  14.253   4.123
23369W        W95684  14.305  24.542   3.523
23370W        W95685  33.858  15.143  13.419
23371W        W95686   2.381  10.646   1.982
23372W        W95687  32.358  25.070   3.650
23373W        W95688   6.680  34.153  10.701
23374W        W95689  19.179  18.585   2.171
23375W        W95690  44.201   5.191   0.214
23376W        W95691  18.101  24.272  11.245
23377W        W95692   8.418  43.429  13.587
23378W        W95693  32.546  13.810   1.723
23379W        W95694  37.445  35.568   3.735
23380W        W95695  13.845  27.872  11.066
23381W        W95696  21.087  17.766   0.672
23382W        W95697   4.235  11.364  11.088
23383W        W95698  44.391  27.111  14.153
23384W        W95699   0.870  15.291  12.271
23385W        W95700  39.427   1.689  13.526
23386W        W95701  22.679  16.563   2.254
23387W        W95702  10.905  42.828  14.884
23388W        W95703   9.456  35.477  14.893
23389W        W95704   1.662  26.956  13.409
23390W        W95705  44.134  13.855  13.626
23391W        W95706   6.925  12.378   1.268
23392W        W95707   1.365  32.127   2.440
23393W        W95708   4.319   7.293  11.864
23394W        W95709  10.326  38.966   4.460
23395W        W95710  34.479  23.292  13.044
23396W        W95711  15.330  14.886   1.335
23397W        W95712  25.856  16.693   2.413
23398W        W95713  39.850  38.622   0.053
23399W        W95714  32.380  35.025  10.032
23400W        W95715  35.442  25.600   0.804
23401W        W95716  15.498  30.598  14.364
23402W        W95717  42.433  34.764   0.333
23403W        W95718  33.204   6.112   4.579
23404W        W95719  24.021  27.295  13.760
23405W        W95720  43.374  19.196   2.852
23406W        W95721   3.826  38.384   4.413
23407W        W95722  28.182  26.529  10.789
23408W        W95723  25.767  14.320   4.535
23409W        W95724  41.420  15.615   5.004
23410W        W95725   3.141   6.796  11.032
23411W        W95726  28.685   9.855  13.829
23412W        W95727   4.763  27.062  13.531
23413W        W95728  33.558  15.916  10.924
23414W        W95729  35.866  39.978   3.647
23415W        W95730   8.845  18.060  12.421
23416W        W95731  16.695  35.348   0.217
23417W        W95732  42.102   3.758  14.331
23418W        W95733  37.840  22.022  11.252
23419W        W95734  44.508  11.930   3.293
23420W        W95735  17.035  19.507  13.092
23421W        W95736  14.249  17.407   2.285
23422W        W95737  43.810  25.782   4.188
23423W        W95738  33.091  39.446  14.448
23424W        W95739   2.963  43.987   1.125
23425W        W95740  19.296  25.073   1.535
23426W        W95741   1.343  11.985  12.960
23427W        W95742  17.095  15.710  14.739
23428W        W95743  16.221  35.197   1.867
23429W        W95744  38.069  31.177   2.154
23430W        W95745  21.277  35.322   0.687
23431W        W95746  13.338   8.372   2.357
23432W        W95747  19.194   1.538  10.787
23433W        W95748  39.246  40.578  12.339
23434W        W95749  19.249  38.659   4.213
23435W        W95750  33.487  13.336   4.972
23436W        W95751  11.425   5.792  11.508
23437W        W95752  22.178   5.279  10.872
23438W        W95753  42.508  19.234   1.342
23439W        W95754  20.007  19.815  12.343
23440W        W95755  12.201  42.979   2.428
23441W        W95756  30.360  23.256  11.133
23442W        W95757  20.490   9.841  10.662
23443W        W95758   9.411  24.966  14.404
23444W        W95759  28.471  33.300   0.896
23445W        W95760  19.513  21.221  14.625
23446W        W95761  11.373  39.975  13.407
23447W        W95762  43.819  23.627  14.761
23448W        W95763   9.823  21.479   1.268
23449W        W95764  11.227  13.799   4.607
23450W        W95765  12.510  17.258  12.110
23451W        W95766  44.061  39.921  11.983
23452W        W95767   1.878  43.735  11.463
23453W        W95768   0.760   1.885   4.266
23454W        W95769  23.985  32.983  10.747
23455W        W95770  14.924   0.369  10.425
23456W        W95771  22.596  10.827  12.168
23457W        W95772  39.349  28.738  13.925
23458W        W95773  20.340  40.717   0.898
23459W        W95774  20.561   1.257   4.376
23460W        W95775  12.159  38.552  13.571
23461W        W95776  15.616   8.877   4.565
23462W        W95777  10.365  43.869   3.574
23463W        W95778  41.415  24.001  11.097
23464W        W95779   9.337  39.584  10.496
23465W        W95780  16.994   7.645  12.204
23466W        W95781  25.596  11.676   2.185
23467W        W95782  25.875  30.376  13.512
23468W        W95783   5.761  11.260  11.345
23469W        W95784  15.253  38.268   1.489
23470W        W95785  40.569  10.307   4.165
23471W        W95786   5.751  43.220  10.224
23472W        W95787  18.924  12.574  13.432
23473W        W95788  37.533  16.875   0.892
23474W        W95789  17.168  35.133   0.449
23475W        W95790   1.880   4.383   1.632
23476W        W95791  32.459  14.804  12.515
23477W        W95792  44.514  43.470   0.815
23478W        W95793   9.677  32.114   2.691
23479W        W95794  37.097  34.490   4.320
23480W        W95795  40.452  11.985   5.053
23481W        W95796  39.907   7.898  13.759
23482W        W95797  31.428  40.087  12.454
23483W        W95798   0.512   8.715   0.004
23484W        W95799  22.576  31.749  11.377
23485W        W95800  18.485  29.453  10.309
23486W        W95801  23.541  36.184   4.564
23487W        W95802  43.817  33.209  13.431
23488W        W95803  27.958  38.853   4.208
23489W        W95804   0.274  14.798   0.830
23490W        W95805  32.514  43.595   3.703
23491W        W95806  21.739  33.978   0.332
23492W        W95807  38.366  15.921  14.810
23493W        W95808   5.697   8.326  13.132
23494W        W95809  20.305  32.281   3.255
23495W        W95810  44.391   4.335   1.266
23496W        W95811  41.924  15.253  11.121
23497W        W95812   7.757  38.607   4.104
23498W        W95813  27.049  41.947   4.256
23499W        W95814  41.781   1.725   4.629
23500W        W95815  24.688   9.275  14.835
23501W        W95816  15.215  30.165   5.631
23502W        W95817   7.175   1.913   0.322
23503W        W95818  35.381  21.511  14.663
23504W        W95819  11.114  42.666   3.425
23505W        W95820  31.335   9.259  11.115
23506W        W95821   4.860  17.799   2.599
23507W        W95822   3.361   4.527  10.785
23508W        W95823  26.602  15.868  10.927
23509W        W95824  29.254  33.910  10.682
23510W        W95825  28.289  25.010   2.782
23511W        W95826  35.419  25.498  11.420
23512W        W95827   9.685  43.073  14.708
23513W        W95828  26.051  17.198   1.844
23514W        W95829   3.675  28.744   1.401
23515W        W95830  43.796  19.025   3.697
23516W        W95831  22.943  36.826   4.611
23517W        W95832   6.902  12.621  12.621
23518W        W95833  44.964  23.811   3.232
23519W        W95834  40.767  36.520   1.856
23520W        W95835  40.035  36.925  14.648
23521W        W95836  34.621  22.646  10.584
23522W        W95837  32.675  38.294  11.077
23523W        W95838  37.437  17.071  14.910
23524W        W95839  14.577  10.336  12.426
23525W        W95840   2.538  30.431   0.758
23526W        W95841  21.678   2.813   4.726
23527W        W95842   1.962  16.526   3.083
23528W        W95843  13.858   7.332  14.492
23529W        W95844   9.961  21.581   3.658
23530W        W95845  22.920  21.921   2.408
23531W        W95846   2.479  27.965  11.667
23532W        W95847  17.844  10.167  10.379
23533W        W95848  28.173   7.382  13.512
23534W        W95849  40.671  43.887   0.817
23535W        W95850  32.839  13.589  10.420
23536W        W95851  33.956   1.159  14.962
23537W        W95852  26.799  36.541   2.920
23538W        W95853  39.824  27.626   3.717
23539W        W95854  41.527  12.644  14.825
23540W        W95855   7.853   5.805   3.699
23541W        W95856  42.823  42.228   4.246
23542W        W95857  24.692  21.202  14.046
23543W        W95858  10.658  10.118   2.758
23544W        W95859  14.212  19.017   3.110
23545W        W95860   4.695  40.790  14.049
23546W        W95861  26.056  13.692  10.871
23547W        W95862  42.005  35.870   0.897
23548W        W95863  24.639  19.363   0.106
23549W        W95864  16.703  39.573   3.695
23550W        W95865  17.718  43.428   0.323
23551W        W95866  30.089  30.528  11.559
23552W        W95867  31.975  35.059   1.375
23553W        W95868  17.256  39.141  13.064
23554W        W95869   3.678  40.967   0.477
23555W        W95870  13.311   2.977   1.675
23556W        W95871  35.857  36.085  14.913
23557W        W95872  24.967  21.350   4.822
23558W        W95873  42.412  11.135  11.587
23559W        W95874  11.558  37.479   3.224
23560W        W95875  21.945  36.434  13.190
23561W        W95876   1.609   1.952   4.059
23562W        W95877  33.241  29.403   2.388
23563W        W95878  39.003  17.033   0.454
23564W        W95879  16.621  19.573  14.295
23565W        W95880  41.234  36.271   2.747
23566W        W95881  20.027  33.650  13.016
23567W        W95882   0.278  10.309  12.105
23568W        W95883  33.394   8.698  10.149
23569W        W95884  13.312  37.082   3.078
23570W        W95885   6.814  33.149  14.860
23571W        W95886  42.295  44.366  12.936
23572W        W95887   9.081  40.459   2.306
23573W        W95888   4.473   1.076  11.452
23574W        W95889  13.096  28.483   4.899
23575W        W95890  23.863  23.124  13.507
23576W        W95891  37.073  22.189  13.990
23577W        W95892  39.252  38.591   4.544
23578W        W95893  21.783   7.842   2.333
23579W        W95894  40.473   8.660   3.121
23580W        W95895  42.327   1.678   2.036
23581W        W95896  30.383  24.472   4.154
23582W        W95897  40.911  33.655  12.520
23583W        W95898   1.210   6.301  10.715
23584W        W95899   9.628   0.875  10.984
23585W        W95900  31.363  44.801   0.969
23586W        W95901  40.544  22.960  14.992
23587W        W95902  33.466  17.664  10.479
23588W        W95903   6.444  20.035  12.015
23589W        W95904  25.571  16.162   0.909
23590W        W95905   6.531  17.606   0.405
23591W        W95906  31.114  15.865  13.421
23592W        W95907  27.167  17.761   3.153
23593W        W95908  15.888  19.765   2.417
23594W        W95909  38.570  18.038  12.133
23595W        W95910  20.959  44.949   2.470
23596W        W95911  39.508  43.077  12.489
23597W        W95912  24.755  16.429  13.422
23598W        W95913  41.314   1.945   0.450
23599W        W95914  43.806  37.416  14.525
23600W        W95915  22.590  20.451  10.377
23601W        W95916  24.194  44.868  12.803
23602W        W95917  34.864  22.675  11.635
23603W        W95918  32.124  26.258   3.244
23604W        W95919   2.961  20.939   0.245
23605W        W95920  38.970  38.052   4.511
23606W        W95921  39.164  32.811  14.004
23607W        W95922  22.667  34.987  12.552
23608W        W95923   2.882   3.979   0.894
23609W        W95924  16.069   4.980  13.703
23610W        W95925  10.141  40.872  13.881
23611W        W95926  19.658  36.428  13.307
23612W        W95927  14.124  25.298  12.928
23613W        W95928  19.437  38.570   2.318
23614W        W95929   5.164  21.089   2.133
23615W        W95930   4.406   9.164   0.935
23616W        W95931  27.544   0.644   2.387
23617W        W95932   4.169  12.812  12.389
23618W        W95933  33.865   4.596   3.295
23619W        W95934  14.097  33.406   1.932
23620W        W95935  24.668  24.673  14.616
23621W        W95936  14.601  27.807   3.825
23622W        W95937  28.071  34.460  14.180
23623W        W95938   7.471  10.718  13.521
23624W        W95939   0.159  10.798  12.302
23625W        W95940  40.825  12.853  14.494
23626W        W95941  27.948  35.772   9.993
23627W        W95942  26.004  23.383  13.604
23628W        W95943   9.211  44.454  10.991
23629W        W95944  15.043   7.613   0.411
23630W        W95945  18.529  43.396   0.858
23631W        W95946  26.574  37.953  11.600
23632W        W95947   1.895  35.308  10.382
23633W        W95948  34.649   9.964   0.375
23634W        W95949  29.318   8.722   4.692
23635W        W95950   9.131   1.334  12.355
23636W        W95951  34.839  13.813  11.762
23637W        W95952   5.725  30.834   4.029
23638W        W95953   5.831  12.148   2.745
23639W        W95954   3.403   3.471   0.053
23640W        W95955   2.738  15.058  11.264
23641W        W95956  36.540  21.937   1.706
23642W        W95957  32.541  41.307  14.360
23643W        W95958  37.408  26.649   4.055
23644W        W95959  16.190  30.036   3.611
23645W        W95960  15.395  17.572   1.791
23646W        W95961  15.028  34.411   3.586
23647W        W95962  38.126  18.713   4.235
23648W        W95963   9.889  15.954  10.259
23649W        W95964  44.235  20.878  13.874
23650W        W95965  34.388  23.765   0.047
23651W        W95966  36.357  24.171  12.379
23652W        W95967  24.273  28.653  11.765
23653W        W95968  15.399  23.110  14.001
23654W        W95969  27.456  38.759   4.034
23655W        W95970  32.385  15.818   4.150
23656W        W95971  19.379  15.571  14.456
23657W        W95972   2.154  27.582   0.828
23658W        W95973   8.202   2.930   2.760
23659W        W95974   0.260  41.856   1.431
23660W        W95975   5.618  18.813  11.935
23661W        W95976  13.150  23.144  14.691
23662W        W95977   4.778  35.319  12.458
23663W        W95978   4.572  27.957  13.755
23664W        W95979   0.156  20.109   3.826
23665W        W95980   5.732  40.402  10.664
23666W        W95981  17.624   4.858  14.973
23667W        W95982  29.085  14.749  13.660
23668W        W95983  21.219  32.930   4.609
23669W        W95984   4.626  21.722  11.677
23670W        W95985  35.469  35.973   2.673
23671W        W95986  18.693  22.010  13.301
23672W        W95987  37.015  44.584   3.250
23673W        W95988   6.166   3.841   3.403
23674W        W95989  35.473  17.794  13.841
23675W        W95990   5.336  28.356   0.705
23676W        W95991  18.504  23.505   3.425
23677W        W95992  34.097  14.185  13.708
23678W        W95993  29.740  31.913   2.548
23679W        W95994  15.130   4.681   2.652
23680W        W95995   3.007   1.690  10.627
23681W        W95996  24.514  26.087  14.341
23682W        W95997  13.433  20.014   3.843
23683W        W95998  28.787  32.864   0.791
23684W        W95999  37.434  23.489   9.737
23685W        W96000  36.633  11.379  12.293
23686W        W96001  12.902  28.712   2.259
23687W        W96002  30.587  13.522  13.453
23688W        W96003  16.287  15.135  11.013
23689W        W96004  19.742  14.595  14.320
23690W        W96005  15.729  30.753   0.888
23691W        W96006   4.238  28.244  13.359
23692W        W96007  21.866  33.044   2.824
23693W        W96008  42.538  17.445  11.119
23694W        W96009  39.786  10.043  13.116
23695W        W96010  29.768  29.162  14.399
23696W        W96011  36.705  15.994   4.482
23697W        W96012  14.216   0.416   2.448
23698W        W96013  24.499  23.506  12.018
23699W        W96014   7.745  12.893   4.094
23700W        W96015   4.699  11.863  13.352
23701W        W96016  22.499  21.178   1.689
23702W        W96017  14.064  31.513   2.087
23703W        W96018  40.319  13.366   0.745
23704W        W96019  31.301  29.894   0.645
23705W        W96020  30.731  21.692   1.378
23706W        W96021  30.682   5.743   2.350
23707W        W96022  20.443  12.668  13.375
23708W        W96023  19.161  16.255   0.270
23709W        W96024  11.573  38.139   3.729
23710W        W96025   3.404  40.521   2.408
23711W        W96026  15.298  14.370   4.162
23712W        W96027   0.465  10.386  14.043
23713W        W96028  23.726  27.542  11.160
23714W        W96029  31.923  30.702  13.869
23715W        W96030  27.972   1.215   1.103
23716W        W96031   2.276  16.305  13.041
23717W        W96032  24.624   6.315   0.471
23718W        W96033   0.821  28.604   1.776
23719W        W96034  35.858  41.701   4.683
23720W        W96035   9.327  17.567   0.410
23721W        W96036  30.598  34.350  10.645
23722W        W96037  31.840  44.273   3.627
23723W        W96038   7.205  10.197  14.490
23724W        W96039  14.241  32.112  10.457
23725W        W96040  24.995  26.144  12.966
23726W        W96041  22.218   4.361   3.241
23727W        W96042  42.539  11.338   4.792
23728W        W96043  38.612  22.023   2.477
23729W        W96044  28.057  22.689  10.777
23730W        W96045  17.680  43.531  13.510
23731W        W96046   8.747  29.430   0.218
23732W        W96047  30.002  26.052  12.368
23733W        W96048   6.854  24.979   4.522
23734W        W96049  29.797  13.338  12.807
23735W        W96050  11.748   9.744  13.402
23736W        W96051   6.008  37.430  11.152
23737W        W96052   7.147  22.197   0.659
23738W        W96053  43.805  16.432  12.317
23739W        W96054  22.468  11.732  12.082
23740W        W96055  33.859  41.266  11.838
23741W        W96056  28.453  27.107   0.329
23742W        W96057  18.335  32.616  10.711
23743W        W96058  36.370  15.570  10.826
23744W        W96059   2.932  15.204  12.533
23745W        W96060  32.384  41.749  10.785
23746W        W96061  24.478  31.553  11.561
23747W        W96062  37.792   7.190   1.660
23748W        W96063   4.749  38.497   2.942
23749W        W96064   7.242  11.246   1.030
23750W        W96065  21.768  44.624  14.413
23751W        W96066  14.153  30.226   1.370
23752W        W96067   2.372  13.669   4.773
23753W        W96068  11.149  35.553  12.969
23754W        W96069  24.343   7.917   1.937
23755W        W96070   0.260  28.772  10.954
23756W        W96071   6.219   8.441  12.991
23757W        W96072  22.128   6.291   2.740
23758W        W96073  36.451  10.295   3.060
23759W        W96074   5.642   1.160   2.878
23760W        W96075  30.646  35.440  10.587
23761W        W96076  21.332  16.540  10.781
23762W        W96077  13.030  39.694   0.546
23763W        W96078  27.705   6.196  13.307
23764W        W96079   6.693  35.953  12.394
23765W        W96080   2.664  41.557   2.772
23766W        W96081  28.852  14.296   2.624
23767W        W96082  16.703  28.941   4.828
23768W        W96083  12.574  30.326  10.800
23769W        W96084  36.476   5.481  14.260
23770W        W96085  19.280  40.591   5.486
23771W        W96086  10.674  42.056   0.366
23772W        W96087   4.779  33.533  13.969
23773W        W96088  40.297  38.160  12.869
23774W        W96089  11.586  21.503   2.684
23775W        W96090  22.584  36.569   4.272
23776W        W96091  44.774  15.337  14.793
23777W        W96092  20.491  30.050   4.611
23778W        W96093  23.432   5.638   0.472
23779W        W96094  15.741  38.407   1.444
23780W        W96095  33.485  22.687   3.692
23781W        W96096  25.181  12.081   0.924
23782W        W96097  28.193  14.367   4.213
23783W        W96098   7.869   5.743  11.656
23784W        W96099  40.337  32.624  13.470
23785W        W96100  32.150   2.275  14.525
23786W        W96101   7.596  38.467  11.511
23787W        W96102   7.668  20.437  11.470
23788W        W96103  18.836  16.650  14.846
23789W        W96104   0.439  21.413   3.794
23790W        W96105   0.198  38.354  11.505
23791W        W96106  27.009   9.683   2.765
23792W        W96107   5.004  25.483  11.121
23793W        W96108  40.777   8.757   0.459
23794W        W96109  28.991   9.660   4.320
23795W        W96110  27.118  11.788   0.345
23796W        W96111  17.546  19.123   3.349
23797W        W96112   2.791   6.228  12.502
23798W        W96113  41.573  39.850   1.150
23799W        W96114  40.332  42.047  12.851
23800W        W96115  25.121  25.442   2.582
23801W        W96116  32.475  31.376   2.563
23802W        W96117  31.813  43.802  12.575
23803W        W96118  39.471  26.549  13.334
23804W        W96119   1.953  44.232  13.161
23805W        W96120  13.239   6.441  13.521
23806W        W96121  17.115   9.290   3.100
23807W        W96122  40.870   5.884   1.145
23808W        W96123   9.159  43.974  11.180
23809W        W96124  40.529  36.416   1.374
23810W        W96125  31.339  32.394  13.077
23811W        W96126  13.755  15.578   0.454
23812W        W96127  30.434  27.022  13.931
23813W        W96128  19.065  44.862  10.852
23814W        W96129   7.408  43.821   4.877
23815W        W96130  17.456  42.917   2.394
23816W        W96131  33.764  20.053  12.401
23817W        W96132  41.443   3.367   0.732
23818W        W96133  43.386  38.822  14.298
23819W        W96134  34.585   6.147   3.650
23820W        W96135   0.720  35.547   2.335
23821W        W96136  25.424   9.564  12.523
23822W        W96137  34.140   3.732   2.686
23823W        W96138  23.489  14.643   1.454
23824W        W96139  26.952   6.171   3.050
23825W        W96140  38.961   2.286   0.456
23826W        W96141   2.721  40.895  11.929
23827W        W96142  33.482   7.800   0.279
23828W        W96143  39.700  28.664   4.682
23829W        W96144  40.746   3.126  12.981
23830W        W96145   7.163  20.783  11.172
23831W        W96146   9.193   4.835  10.630
23832W        W96147  30.336   5.763   1.486
23833W        W96148  26.951  12.920   2.084
23834W        W96149  26.637   5.788   0.038
23835W        W96150   7.686  11.583  10.978
23836W        W96151  14.781  25.786  14.897
23837W        W96152   5.903  30.699  14.439
23838W        W96153   6.181   1.170   2.760
23839W        W96154  36.545  22.131   0.260
23840W        W96155   0.887  30.011  11.102
23841W        W96156   4.628   9.286  14.957
23842W        W96157  22.173  27.158   4.831
23843W        W96158  35.537  17.171  10.589
23844W        W96159  12.691  12.470   4.078
23845W        W96160  21.288  19.580   4.212
23846W        W96161   9.711  12.215  12.075
23847W        W96162  43.962  18.537   3.631
23848W        W96163  22.745  10.199   4.180
23849W        W96164  20.768  39.480  14.562
23850W        W96165  21.003  41.739   3.199
23851W        W96166  31.986  12.596   1.157
23852W        W96167   9.127  16.571   0.491
23853W        W96168   6.742  12.855   1.149
23854W        W96169   0.583   8.780  11.060
23855W        W96170  30.995   5.240   1.630
23856W        W96171  39.854  40.503  13.008
23857W        W96172   9.571  15.270   1.934
23858W        W96173  29.654  44.398  14.555
23859W        W96174  32.618  34.453   2.903
23860W        W96175  27.718  42.342   4.164
23861W        W96176   3.824   5.466   0.428
23862W        W96177   4.493   2.329  13.038
23863W        W96178  22.037  11.997  11.179
23864W        W96179   1.958  26.476  13.355
23865W        W96180  24.667   8.746   1.435
23866W        W96181   7.184   5.860   3.358
23867W        W96182  21.679  34.596  11.165
23868W        W96183   7.944   0.941  12.821
23869W        W96184  31.061  25.972   1.598
23870W        W96185  10.876  43.007  13.505
23871W        W96186  10.871  19.813   2.196
23872W        W96187   4.705  29.475  12.531
23873W        W96188  27.049  23.257  11.529
23874W        W96189  40.431  19.568   1.827
23875W        W96190  12.709   0.292  12.524
23876W        W96191  12.309   6.272   3.617
23877W        W96192  33.991  15.040  11.635
23878W        W96193   5.050   6.008  11.619
23879W        W96194   4.806  25.970  11.135
23880W        W96195  43.937  14.937   1.098
23881W        W96196   3.420  10.985  12.076
23882W        W96197  42.722  27.884  10.716
23883W        W96198  36.344  10.236  10.696
23884W        W96199  32.456  10.679   3.309
23885W        W96200  12.057  35.642   2.600
23886W        W96201  37.880  11.209  12.402
23887W        W96202  10.850   1.182  14.827
23888W        W96203  36.647  18.034   3.863
23889W        W96204  21.796   3.800   3.630
23890W        W96205  10.967  13.442   3.060
23891W        W96206  11.626  10.071   0.281
23892W        W96207   3.886  19.003   2.212
23893W        W96208  12.432   4.805   2.368
23894W        W96209  22.661  13.713  14.813
23895W        W96210  32.479  26.682  14.671
23896W        W96211   3.945  21.241  10.390
23897W        W96212  38.453  31.895   3.677
23898W        W96213  19.132  26.459  11.601
23899W        W96214   2.512   1.901   0.913
23900W        W96215  26.415  37.946  14.846
23901W        W96216  29.666   9.246   0.202
23902W        W96217  34.245  18.887  11.976
23903W        W96218  29.680   7.335  11.042
23904W        W96219   9.712  24.461  10.704
23905W        W96220  14.659  24.554  14.896
23906W        W96221  33.457  20.627  11.712
23907W        W96222  18.436  37.506  14.517
23908W        W96223  36.460  28.672   0.545
23909W        W96224   3.933  31.132  11.209
23910W        W96225  10.058  21.525  14.472
23911W        W96226  34.498  14.108  12.520
23912W        W96227  25.612  17.046   2.087
23913W        W96228  44.568  35.864   0.483
23914W        W96229  40.436  43.966   3.596
23915W        W96230  11.607  24.044   1.238
23916W        W96231  17.524  27.462  12.871
23917W        W96232   0.622  17.968  11.202
23918W        W96233  34.161  21.036   2.789
23919W        W96234  32.962  13.365  14.340
23920W        W96235  13.060  10.699  14.370
23921W        W96236  11.860   4.864  14.809
23922W        W96237  31.972  38.893   3.206
23923W        W96238  32.189  38.857  10.682
23924W        W96239  24.672  29.027  10.736
23925W        W96240  34.344  37.273  14.519
23926W        W96241  24.739  20.721  13.912
23927W        W96242  18.580   6.610   2.420
23928W        W96243  44.935  20.351  13.123
23929W        W96244  30.202   8.734   0.851
23930W        W96245  39.104  24.194   4.197
23931W        W96246  18.086  11.362  11.549
23932W        W96247  17.460  24.461   0.389
23933W        W96248  14.976  28.367  13.457
23934W        W96249  28.472  41.939   4.144
23935W        W96250  21.227   8.180  13.202
23936W        W96251  29.192   1.760   2.366
23937W        W96252  23.517  41.764   0.315
23938W        W96253  26.128   3.433  10.201
23939W        W96254  19.099   4.724   0.478
23940W        W96255  13.545  37.850  13.369
23941W        W96256   4.020  18.944  11.370
23942W        W96257   9.694   0.464  12.120
23943W        W96258  36.538  41.904   2.412
23944W        W96259  12.229   3.210   1.287
23945W        W96260  18.095  41.469   5.047
23946W        W96261   6.893  25.144  13.377
23947W        W96262  40.804  36.338  14.370
23948W        W96263  18.924   9.369  11.513
23949W        W96264  23.181  12.451   3.232
23950W        W96265  38.788  22.577   3.628
23951W        W96266  15.612  29.787  14.886
23952W        W96267  21.999  24.276   0.061
23953W        W96268  34.035  18.193   0.917
23954W        W96269  32.986   2.305   3.773
23955W        W96270  29.362  41.291  13.561
23956W        W96271  10.307  40.813   3.083
23957W        W96272   3.827  44.142   3.684
23958W        W96273  16.845  27.898   3.295
23959W        W96274  27.957  16.831   4.868
23960W        W96275  40.247  26.146   1.982
23961W        W96276  26.537  43.714   3.761
23962W        W96277  35.543  15.082   4.575
23963W        W96278   0.366  36.242  11.424
23964W        W96279   0.332   2.483   2.389
23965W        W96280  30.997   6.942  12.859
23966W        W96281  34.581  16.794  14.479
23967W        W96282  24.851  28.266   2.565
23968W        W96283   6.819   5.687  11.581
23969W        W96284  18.770  20.194  12.116
23970W        W96285   3.265  24.971   2.736
23971W        W96286  36.186   3.955   4.706
23972W        W96287  11.849  26.155  13.871
23973W        W96288  27.798  11.211  13.395
23974W        W96289  38.397  14.531  11.186
23975W        W96290  15.777  36.084   4.195
23976W        W96291  24.990  31.695   0.634
23977W        W96292  14.501  25.542  13.968
23978W        W96293  41.446  40.755  11.507
23979W        W96294  11.126  37.988  13.384
23980W        W96295   9.104  42.867  10.569
23981W        W96296  17.309  23.439   2.793
23982W        W96297  27.241  33.551  12.404
23983W        W96298  18.577  34.166  12.833
23984W        W96299  38.203  18.537   3.216
23985W        W96300  13.782  13.547   1.755
23986W        W96301  31.208  21.696   1.170
23987W        W96302   3.349  10.457  11.394
23988W        W96303  16.677  23.119   3.963
23989W        W96304  15.643  17.071   0.791
23990W        W96305   4.218  13.816  13.790
23991W        W96306  40.984  36.830   4.549
23992W        W96307  31.998  24.623   1.610
23993W        W96308  24.286   6.983   1.000
23994W        W96309  41.849  22.544   2.732
23995W        W96310  38.792   2.719   2.924
23996W        W96311  24.233  44.953   0.780
23997W        W96312   1.867  42.996   1.282
23998W        W96313  24.572  14.611  10.587
23999W        W96314  20.046  11.808   1.233
24000W        W96315  17.208   5.947   0.420
24001W        W96316  37.492   4.801   3.022
24002W        W96317  13.980  20.981   2.540
24003W        W96318  18.295  15.168  12.482
24004W        W96319  15.636   0.720  10.956
24005W        W96320  31.111  27.344  12.384
24006W        W96321  11.542  36.901   1.212
24007W        W96322  21.545  40.054  12.914
24008W        W96323  18.611  26.388  12.937
24009W        W96324  30.588  28.493   2.234
24010W        W96325   9.610  38.345  14.116
24011W        W96326  12.291  33.695   3.841
24012W        W96327  14.339  30.184   0.049
24013W        W96328  14.342   8.214  11.188
24014W        W96329  15.151  39.389   4.024
24015W        W96330  17.791   2.494   2.220
24016W        W96331   3.989  23.118  12.871
24017W        W96332   6.793  21.759   1.149
24018W        W96333   6.859  23.023   3.749
24019W        W96334  16.664  39.340  10.730
24020W        W96335  12.436  20.558  14.863
24021W        W96336  21.925   0.239   2.286
24022W        W96337  26.887  42.878   3.187
24023W        W96338  20.066  42.320   0.831
24024W        W96339   7.148  44.301   0.938
24025W        W96340  13.179  26.764  12.016
24026W        W96341  18.514  28.622  13.031
24027W        W96342  23.047  28.874   3.233
24028W        W96343  23.030   3.245  13.534
24029W        W96344  19.113   0.640  14.478
24030W        W96345  23.056  37.815   0.237
24031W        W96346  32.700  35.964  14.537
24032W        W96347  32.730   8.841   3.182
24033W        W96348   4.700  43.669  14.415
24034W        W96349  35.021   4.869  14.513
24035W        W96350   5.802  13.556   3.200
24036W        W96351  21.125  36.588   3.609
24037W        W96352   0.899  34.814  13.304
24038W        W96353  42.064   2.954   4.827
24039W        W96354  13.753  23.286  11.148
24040W        W96355   6.167   4.944   1.014
24041W        W96356  40.333  40.891   0.458
24042W        W96357  11.533  33.389  12.914
24043W        W96358   8.733   1.410  11.603
24044W        W96359  22.288  31.736   1.218
24045W        W96360  37.000  24.122  11.367
24046W        W96361  26.916  38.921  13.994
24047W        W96362  10.182   6.696  12.467
24048W        W96363   6.381  20.966  13.964
24049W        W96364  43.456  22.055   4.179
24050W        W96365  39.877  34.032  11.153
24051W        W96366  40.845  31.584   0.562
24052W        W96367  25.279   1.915  12.613
24053W        W96368  23.504   1.046  11.291
24054W        W96369   3.263  30.395   0.027
24055W        W96370  10.257  23.621  11.110
24056W        W96371  29.864  20.663   3.368
24057W        W96372  37.609  32.517   3.291
24058W        W96373  26.308  20.747  12.179
24059W        W96374  30.887  36.465   3.676
24060W        W96375  16.635  35.118  13.336
24061W        W96376   1.197  42.341   0.326
24062W        W96377  41.359  21.643   0.387
24063W        W96378  23.656  19.461  11.534
24064W        W96379  32.303  39.364  12.988
24065W        W96380   5.110  40.887   0.844
24066W        W96381  17.730   8.724   0.542
24067W        W96382  25.511   2.233  10.728
24068W        W96383  22.243  30.630   2.628
24069W        W96384  30.684  11.583   5.002
24070W        W96385  30.437   8.344  11.165
24071W        W96386  35.204  24.446  11.188
24072W        W96387  15.121  27.189   1.328
24073W        W96388  31.868  40.097   2.245
24074W        W96389  31.727  41.091   1.372
24075W        W96390  30.072  16.580  14.145
24076W        W96391   1.824  43.221  11.509
24077W        W96392  31.974  24.278   2.354
24078W        W96393  37.568  27.597  11.733
24079W        W96394  41.076  25.619   1.921
24080W        W96395  36.851  19.667  13.400
24081W        W96396  41.905  28.985   2.128
24082W        W96397  12.274  43.376  11.746
24083W        W96398  39.906  31.596   3.644
24084W        W96399   2.770  19.784   0.879
24085W        W96400  33.867  30.878   2.710
24086W        W96401  10.949  26.057   3.810
24087W        W96402  40.436  20.098   1.854
24088W        W96403  19.944  12.619  13.262
24089W        W96404  10.842  21.979   0.218
24090W        W96405   9.906  41.298  11.975
24091W        W96406  21.916  31.933   2.965
24092W        W96407  42.050  33.446  12.380
24093W        W96408  28.358   5.345  12.072
24094W        W96409  17.892  28.053   3.294
24095W        W96410   2.798  39.932   3.145
24096W        W96411   0.964  23.089  14.409
24097W        W96412   0.780  13.167  11.037
24098W        W96413   7.345  41.246  13.551
24099W        W96414  33.091  36.549  12.062
24100W        W96415   6.560  14.373  12.495
24101W        W96416   3.447   8.909   3.331
24102W        W96417   7.973   5.978  12.113
24103W        W96418  44.242  37.003   0.900
24104W        W96419   3.363   5.815  13.227
24105W        W96420  40.865   0.904   1.233
24106W        W96421  32.048  23.513  11.174
24107W        W96422   2.662  26.252   3.434
24108W        W96423  14.478  44.501  12.854
24109W        W96424  21.317  28.025  11.989
24110W        W96425  15.108  29.577  14.876
24111W        W96426  30.680  16.963  13.417
24112W        W96427  22.219  44.302   2.228
24113W        W96428  29.950  23.713  10.434
24114W        W96429  33.333  39.562  13.119
24115W        W96430  13.335  28.089   4.628
24116W        W96431  11.723  38.940   4.534
24117W        W96432   5.189  23.576  14.833
24118W        W96433  15.485  44.242  12.634
24119W        W96434  21.755  31.364   3.198
24120W        W96435  43.987  35.526  14.457
24121W        W96436  37.835  12.386   3.242
24122W        W96437   1.954  14.456  11.626
24123W        W96438  20.208  38.072   1.188
24124W        W96439  35.436  41.630  11.168
24125W        W96440  41.655  42.287   1.962
24126W        W96441   4.906  28.926   3.826
24127W        W96442  11.205   6.253   4.653
24128W        W96443  41.282  22.706  13.925
24129W        W96444  39.368   5.304  11.111
24130W        W96445  14.737  27.100   4.156
24131W        W96446  42.743   6.833  10.975
24132W        W96447   6.716  30.834  12.442
24133W        W96448  20.761  18.529  14.031
24134W        W96449   0.533  14.786  12.679
24135W        W96450   1.318  18.655  13.194
24136W        W96451  40.231  26.988  14.398
24137W        W96452  12.229  43.011   1.910
24138W        W96453  29.647  40.894  11.933
24139W        W96454  35.430  23.770   1.307
24140W        W96455  33.958  16.543   3.592
24141W        W96456   0.774  24.742   4.276
24142W        W96457   3.641   8.787  13.002
24143W        W96458  26.267  40.763  13.349
24144W        W96459  29.789  33.740   3.790
24145W        W96460  18.539  30.742  10.641
24146W        W96461  26.572  26.666  14.866
24147W        W96462  33.504  27.950   1.350
24148W        W96463  41.965  31.958  11.482
24149W        W96464   5.014  13.942   4.675
24150W        W96465   4.692  28.672  11.143
24151W        W96466  14.820  27.607  12.950
24152W        W96467  13.731  33.534   3.385
24153W        W96468  41.480  36.341   4.084
24154W        W96469  36.412  38.269  12.994
24155W        W96470   6.369  13.826  13.804
24156W        W96471   3.226  19.722  13.377
24157W        W96472  32.043   0.421  10.673
24158W        W96473   3.731  36.086   3.758
24159W        W96474   4.181  16.622  14.576
24160W        W96475  30.722   2.881  12.833
24161W        W96476  18.120  18.151  14.224
24162W        W96477  22.917  30.413  11.744
24163W        W96478   8.366  29.491  11.706
24164W        W96479  23.021  29.525   4.712
24165W        W96480  23.759  23.649  13.521
24166W        W96481  42.766  40.526   2.790
24167W        W96482  37.846  17.169   4.010
24168W        W96483   2.093  10.867   2.386
24169W        W96484   1.579  19.708  11.624
24170W        W96485  16.521  10.393   3.741
24171W        W96486  31.080  22.761   1.312
24172W        W96487  41.625  42.370  14.779
24173W        W96488  14.818  18.026   2.799
24174W        W96489  30.297  24.981  10.635
24175W        W96490  20.030  20.901  13.325
24176W        W96491   2.480  26.488   2.998
24177W        W96492   1.451  30.267  14.536
24178W        W96493  30.137  28.710   2.341
24179W        W96494  29.487   0.364  13.657
24180W        W96495   0.250  28.659   2.454
24181W        W96496  35.646  29.563   3.058
24182W        W96497  15.069  33.190   0.287
24183W        W96498  35.708   0.851   2.932
24184W        W96499  10.480   4.691  14.559
24185W        W96500  31.629  24.271   3.704
24186W        W96501   0.450   1.762  11.516
24187W        W96502  44.531  31.313  13.911
24188W        W96503  17.479  12.202  12.565
24189W        W96504  19.166  40.784   9.704
24190W        W96505  30.925  33.685  14.408
24191W        W96506  21.040   3.334  10.180
24192W        W96507  15.422   8.837  14.466
24193W        W96508  26.689  32.408   3.334
24194W        W96509  11.861  19.999   2.249
24195W        W96510  23.061  28.200   0.484
24196W        W96511  15.722  41.201   1.113
24197W        W96512  37.233  21.811   3.362
24198W        W96513  34.089  13.162   2.675
24199W        W96514  39.823  43.898   3.892
24200W        W96515  23.713  43.585  11.979
24201W        W96516  29.690  44.969  13.298
24202W        W96517  22.666  39.411  14.785
24203W        W96518  32.916  26.145   2.799
24204W        W96519  21.482  42.022   3.151
24205W        W96520  13.857   6.703  13.765
24206W        W96521  39.509  18.788   1.328
24207W        W96522  42.401  22.487  12.145
24208W        W96523  30.536   7.602   0.412
24209W        W96524  22.192  22.088   3.320
24210W        W96525   3.295  22.747   5.186
24211W        W96526  11.381  28.132   1.908
24212W        W96527  30.461   4.935   2.787
24213W        W96528  39.534  33.633  11.129
24214W        W96529  29.089  35.399  12.947
24215W        W96530  14.751  40.033   3.571
24216W        W96531   5.713  11.818   0.462
24217W        W96532   5.807  36.348   0.028
24218W        W96533  17.726  40.644   4.833
24219W        W96534  14.375  40.575   2.341
24220W        W96535  39.928  12.321   2.999
24221W        W96536   2.430  11.573   4.140
24222W        W96537  25.964  35.500  11.071
24223W        W96538   7.216  40.115  12.607
24224W        W96539  24.440  23.377  11.101
24225W        W96540  21.176   4.302  13.058
24226W        W96541  42.102  34.926   2.720
24227W        W96542  13.628  31.711   0.754
24228W        W96543  22.599  44.976   4.499
24229W        W96544  36.702  27.710   3.781
24230W        W96545   5.866  27.757  14.405
24231W        W96546  16.015  32.902  10.717
24232W        W96547  22.287  41.345   1.546
24233W        W96548  26.012   9.941  12.033
24234W        W96549  29.435   9.144   4.155
24235W        W96550  28.386  17.085  11.118
24236W        W96551   8.998  30.210  14.751
24237W        W96552  36.243   2.262   0.388
24238W        W96553  41.901  11.551   1.720
24239W        W96554  36.954  12.815   1.747
24240W        W96555  30.257   1.072  12.876
24241W        W96556  39.962  29.388   4.094
24242W        W96557  36.416  30.135   1.536
24243W        W96558  21.175  29.572   2.001
24244W        W96559  34.741  30.097  12.682
24245W        W96560  13.974  17.658   2.650
24246W        W96561  24.393  19.526   1.366
24247W        W96562  24.654  32.570  10.578
24248W        W96563  43.885  22.677   0.286
24249W        W96564  16.291  39.016   4.639
24250W        W96565   5.320   9.549  10.878
24251W        W96566  27.395   0.457   4.795
24252W        W96567  30.001  33.162  10.727
24253W        W96568  25.248   2.649  13.524
24254W        W96569   6.766   7.751  12.931
24255W        W96570  16.154  21.293   1.822
24256W        W96571   7.808  44.741   4.502
24257W        W96572  34.911  27.976   1.428
24258W        W96573  29.027  10.891   1.960
24259W        W96574  11.910  21.490  10.832
24260W        W96575  35.914  43.408  13.983
24261W        W96576  32.393  35.545  14.549
24262W        W96577   0.996  41.512   3.232
24263W        W96578  22.099   9.092   1.296
24264W        W96579  21.422  39.028   4.211
24265W        W96580  10.703   7.810   2.109
24266W        W96581  20.677  28.657  14.474
24267W        W96582  30.159  19.388  13.338
24268W        W96583   8.671  43.203   1.338
24269W        W96584  39.842   0.079  12.333
24270W        W96585  33.094  38.611  11.082
24271W        W96586  10.252  29.723   0.791
24272W        W96587  39.787  29.921   4.145
24273W        W96588  34.585  11.784   0.864
24274W        W96589  16.378  22.549   9.983
24275W        W96590  11.265  43.850   0.970
24276W        W96591   5.165  21.560   0.444
24277W        W96592  33.167  29.588   0.932
24278W        W96593   7.183  15.493   3.655
24279W        W96594  43.827  44.962  12.189
24280W        W96595  12.297   7.462  14.663
24281W        W96596   5.402  13.151  14.131
24282W        W96597   4.413  41.995  13.203
24283W        W96598   6.877  40.490  10.751
24284W        W96599  23.158  15.067   0.036
24285W        W96600  36.984  26.703   0.303
24286W        W96601  23.001  42.393  13.061
24287W        W96602   9.793  44.900   3.321
24288W        W96603   7.178  14.621  10.380
24289W        W96604  24.914  24.819  12.465
24290W        W96605  16.299   6.443  10.726
24291W        W96606  44.954  28.418  12.032
24292W        W96607  11.699   0.673  13.612
24293W        W96608  32.882   6.186  13.325
24294W        W96609  28.965  40.147  12.896
24295W        W96610  32.576  43.769   1.156
24296W        W96611  12.235   0.176  11.959
24297W        W96612  40.994  29.230   1.317
24298W        W96613  35.993   1.825   2.740
24299W        W96614   3.885  11.205   4.665
24300W        W96615   9.134  29.261  13.537
24301W        W96616  14.576  36.757   3.265
24302W        W96617  23.197  33.926   1.497
24303W        W96618  38.595  39.399   3.652
24304W        W96619  21.464  44.832  14.044
24305W        W96620  11.210  35.080  11.755
24306W        W96621  14.262   1.730   4.127
24307W        W96622  29.657   5.149   3.244
24308W        W96623  18.318   2.199   0.299
24309W        W96624  32.390  43.893   4.449
24310W        W96625  30.884  17.675  13.935
24311W        W96626  11.717  38.514  10.682
24312W        W96627   6.435  36.447   2.276
24313W        W96628  12.909  30.478   4.588
24314W        W96629  31.122  41.923   0.341
24315W        W96630  42.394  31.182  11.001
24316W        W96631  32.867  17.048  14.940
24317W        W96632   8.400  31.921   1.406
24318W        W96633  30.906  22.336   4.728
24319W        W96634  37.763  26.269   3.152
24320W        W96635  12.343  40.827   4.609
24321W        W96636  10.317   9.355   1.187
24322W        W96637   4.117  11.732   4.236
24323W        W96638  16.652  20.186  10.818
24324W        W96639  12.962  13.306   0.381
24325W        W96640   9.334  28.824   0.774
24326W        W96641   6.159   3.397  10.305
24327W        W96642  24.206   0.929   0.734
24328W        W96643   9.338  44.159   4.396
24329W        W96644  44.548  12.627   5.070
24330W        W96645  20.870   2.358   3.570
24331W        W96646   5.274   9.344   2.614
24332W        W96647  33.235  15.523   5.054
24333W        W96648  39.801  35.372   3.313
24334W        W96649  29.262  42.788   0.689
24335W        W96650  35.370  25.472   2.307
24336W        W96651  35.281  19.809  14.264
24337W        W96652  28.665  21.111  12.869
24338W        W96653  33.117  33.064  12.997
24339W        W96654   2.801  15.079   3.743
24340W        W96655  12.105  42.371   2.677
24341W        W96656  14.912  26.598  11.498
24342W        W96657  10.963   6.555  10.991
24343W        W96658   4.504   3.731  10.674
24344W        W96659  40.309   6.949  14.412
24345W        W96660  39.091  32.500   3.229
24346W        W96661  43.756  25.145  13.367
24347W        W96662  36.350  12.925   2.880
24348W        W96663  32.397  42.777  14.891
24349W        W96664   1.565  43.927  12.431
24350W        W96665  13.497  18.561   3.655
24351W        W96666  44.405  17.084   2.703
24352W        W96667  25.155  33.341   2.568
24353W        W96668  33.907  14.091  14.178
24354W        W96669   6.492  23.481  12.321
24355W        W96670  24.691   0.709  11.461
24356W        W96671  30.407  20.214  13.730
24357W        W96672  13.147  23.618  14.430
24358W        W96673   4.591  14.556   2.744
24359W        W96674  19.161   1.206  13.804
24360W        W96675  34.031   7.623  14.536
24361W        W96676  38.062  31.926   2.705
24362W        W96677   2.448   6.722   3.091
24363W        W96678  31.188  39.326  14.810
24364W        W96679   0.451  26.734  11.111
24365W        W96680  41.345  31.747   0.449
24366W        W96681   0.771  44.649   2.777
24367W        W96682  21.030   9.841   3.121
24368W        W96683  14.259  37.769   4.717
24369W        W96684  44.565  26.976   2.114
24370W        W96685  18.576  41.821  10.627
24371W        W96686  24.084   6.104  13.919
24372W        W96687  21.254  44.860   4.466
24373W        W96688  23.249  22.472   1.791
24374W        W96689  18.140  37.384  14.945
24375W        W96690  16.315  25.496   2.302
24376W        W96691  22.105  44.117   0.778
24377W        W96692  39.788   0.796  13.084
24378W        W96693  18.701  22.571   5.259
24379W        W96694  10.840  42.482  13.414
24380W        W96695   4.284  27.931   2.921
24381W        W96696  35.589  42.850  12.983
24382W        W96697   6.980  11.838  13.091
24383W        W96698  21.935  20.087   3.826
24384W        W96699  20.712   3.276   4.166
24385W        W96700  16.795  18.742   4.170
24386W        W96701  14.621   0.449   2.848
24387W        W96702  22.166  37.130   1.834
24388W        W96703  26.044  37.301  14.352
24389W        W96704  41.788  20.501  14.024
24390W        W96705  27.985  24.713  12.457
24391W        W96706   4.452  20.241  10.707
24392W        W96707   2.237  34.421   2.653
24393W        W96708  20.026   4.004  12.925
24394W        W96709  21.160  17.494  12.277
24395W        W96710  27.204   0.396  13.917
24396W        W96711  13.594  29.999  11.909
24397W        W96712  21.350  39.084  10.996
24398W        W96713  26.995  44.859  11.489
24399W        W96714  42.329  23.723   1.855
24400W        W96715  22.235  36.063   1.662
24401W        W96716   6.115  30.901  11.986
24402W        W96717  11.105   3.627   0.503
24403W        W96718  25.429   9.025   9.890
24404W        W96719  19.619  40.800   2.865
24405W        W96720  39.329  27.790   3.794
24406W        W96721   2.739   8.045   4.036
24407W        W96722   7.373  35.610   2.443
24408W        W96723  21.792  21.011   0.431
24409W        W96724  34.355  37.634   2.405
24410W        W96725  16.271  38.138  12.856
24411W        W96726  15.365  30.035   1.710
24412W        W96727  41.030  41.240  13.884
24413W        W96728   1.344  15.446   0.694
24414W        W96729  31.677   9.351   1.704
24415W        W96730  39.271   6.190   3.567
24416W        W96731  22.867  22.628   4.515
24417W        W96732   0.836  38.836   2.118
24418W        W96733  20.413  29.407   4.911
24419W        W96734   2.733  18.675  11.846
24420W        W96735  36.380  41.365   2.224
24421W        W96736  29.949  14.694  12.578
24422W        W96737   2.474  38.639  11.156
24423W        W96738   5.364   8.480   3.674
24424W        W96739   3.797   6.168  14.014
24425W        W96740  43.272   3.228   4.550
24426W        W96741  30.965  39.995  10.205
24427W        W96742  16.021  17.572  12.098
24428W        W96743   6.499  16.227  14.521
24429W        W96744  24.719  31.534   2.833
24430W        W96745   7.338  17.416   2.996
24431W        W96746  24.300  22.153   2.696
24432W        W96747  43.903   1.735  11.701
24433W        W96748  20.397   4.404  13.420
24434W        W96749  24.026  39.793  13.497
24435W        W96750  39.819  31.781   2.007
24436W        W96751  19.678  23.096   2.809
24437W        W96752  41.347  41.735   2.555
24438W        W96753  33.831  17.393   0.463
24439W        W96754  30.158  32.779   2.124
24440W        W96755  38.093  31.315   0.832
24441W        W96756  31.402   5.875  11.133
24442W        W96757   3.152  38.898   4.650
24443W        W96758  40.830  32.131   1.255
24444W        W96759  12.218   4.631   3.600
24445W        W96760  11.850  13.087   2.793
24446W        W96761   5.426  34.647  13.486
24447W        W96762  23.518  41.284   2.551
24448W        W96763   7.216  32.801  14.002
24449W        W96764  42.284  27.098   3.682
24450W        W96765  16.289  22.704  14.977
24451W        W96766  13.376  23.692  10.762
24452W        W96767   3.500  40.338  14.302
24453W        W96768  43.972  34.385   1.889
24454W        W96769  11.716  41.942   1.708
24455W        W96770  35.351   5.363  13.834
24456W        W96771  14.034  41.980  12.407
24457W        W96772  27.488   2.351   3.590
24458W        W96773  24.467  24.048  12.955
24459W        W96774  20.983  25.400   2.263
24460W        W96775  42.968  37.859   2.215
24461W        W96776  33.878   4.423  11.973
24462W        W96777  28.773  19.737  14.461
24463W        W96778  12.891  36.098  13.193
24464W        W96779  44.395  38.284   0.294
24465W        W96780  14.151  12.322  12.087
24466W        W96781  16.786  11.421  11.130
24467W        W96782  17.950   9.859  11.513
24468W        W96783  15.895  15.255  13.683
24469W        W96784   3.346  23.831   3.321
24470W        W96785  23.036  34.550  13.831
24471W        W96786  10.356  16.492  11.531
24472W        W96787  15.023  18.026  14.366
24473W        W96788  13.645  38.482   0.240
24474W        W96789  34.449   1.902   4.609
24475W        W96790  27.642   0.494  13.600
24476W        W96791  26.476  19.262  10.562
24477W        W96792  44.533  11.808  11.632
24478W        W96793   8.128  36.997   4.113
24479W        W96794   9.111  12.753  10.327
24480W        W96795  13.939   2.538   4.095
24481W        W96796   7.836  40.485   4.997
24482W        W96797  36.119  19.188  12.488
24483W        W96798  23.493  31.023   2.344
24484W        W96799  29.213  15.192   3.392
24485W        W96800   1.429  17.884   4.533
24486W        W96801  19.836  19.065  13.277
24487W        W96802  22.956  35.708  12.113
24488W        W96803   0.780  20.372   1.538
24489W        W96804  24.732   9.197   3.673
24490W        W96805   8.499   4.636  11.812
24491W        W96806   6.205  18.558   1.420
24492W        W96807  25.648  16.333   3.315
24493W        W96808  20.726  14.043   0.032
24494W        W96809   9.529   3.185   4.171
24495W        W96810  30.163  12.743   0.505
24496W        W96811  37.843  35.310  11.109
24497W        W96812  16.051  39.634   1.385
24498W        W96813   9.344  12.556  12.526
24499W        W96814  13.314  41.526  12.611
24500W        W96815  16.095  21.012  12.009
24501W        W96816  21.721  36.301  12.177
24502W        W96817  32.409   3.639   3.742
24503W        W96818  19.351  28.464  14.843
24504W        W96819  37.022   0.803  10.521
24505W        W96820  36.435  39.783  12.116
24506W        W96821  37.586  41.390   4.470
24507W        W96822   3.077  15.771  14.978
24508W        W96823  35.034   4.832   3.898
24509W        W96824  36.117  40.407   4.599
24510W        W96825  39.007  14.019   0.975
24511W        W96826   8.682  22.060  12.314
24512W        W96827  17.200   2.936   3.661
24513W        W96828  11.195  31.852   2.861
24514W        W96829  38.279  40.917  11.169
24515W        W96830  17.605  17.340  10.695
24516W        W96831  34.917   5.657   3.267
24517W        W96832   9.627  36.849   2.695
24518W        W96833  24.446   9.227  12.095
24519W        W96834  30.621   9.904  11.166
24520W        W96835   3.363  22.448  13.336
24521W        W96836   4.461  39.374   1.012
24522W        W96837  13.210  17.231  11.555
24523W        W96838  31.337  28.818  14.366
24524W        W96839  41.303  15.046  12.032
24525W        W96840  34.490  16.181   4.292
24526W        W96841   7.411  43.820  14.487
24527W        W96842   6.134  21.980   3.872
24528W        W96843  32.574   1.207   0.973
24529W        W96844  39.859  22.744  13.760
24530W        W96845  18.663  13.054  14.295
24531W        W96846   5.598   0.012   1.714
24532W        W96847  44.581  32.426  12.075
24533W        W96848  10.268  38.378  10.604
24534W        W96849  44.710  23.763   0.874
24535W        W96850  17.678  24.453   3.408
24536W        W96851  17.267   9.607  13.125
24537W        W96852  43.904  20.884  12.602
24538W        W96853  22.073   6.818   0.672
24539W        W96854  13.127  29.135  10.481
24540W        W96855  41.480  40.651  13.392
24541W        W96856  10.300  13.825   4.145
24542W        W96857  26.088  36.175   4.523
24543W        W96858  27.797   0.526   1.672
24544W        W96859  30.163   8.200   0.815
24545W        W96860   4.818  33.057  13.715
24546W        W96861   1.319  38.786   4.355
24547W        W96862   2.813  26.008   0.426
24548W        W96863  36.059  29.960  13.866
24549W        W96864   6.937  42.793  12.939
24550W        W96865  18.496  44.013   5.094
24551W        W96866  12.315   4.739  14.394
24552W        W96867   4.943  34.896   3.231
24553W        W96868  23.273  17.882  13.997
24554W        W96869  36.283  16.645   3.268
24555W        W96870   7.279   4.849  14.932
24556W        W96871  20.192  43.445   0.278
24557W        W96872  21.471  30.669  11.900
24558W        W96873   9.501  32.950   4.121
24559W        W96874  19.090   4.822  10.737
24560W        W96875  30.648  12.663   1.678
24561W        W96876  20.180   3.872  11.495
24562W        W96877  20.686   2.526   3.122
24563W        W96878  13.142  13.802   0.002
24564W        W96879   8.975  43.673  12.452
24565W        W96880  11.086  12.668   0.604
24566W        W96881  44.516  34.082  10.617
24567W        W96882  29.574  30.603   2.804
24568W        W96883  22.716   7.913   2.323
24569W        W96884  23.565   5.884  14.867
24570W        W96885  15.516  36.989   1.302
24571W        W96886  23.076  21.493  11.176
24572W        W96887  16.109  26.519  12.388
24573W        W96888  23.127   4.701   1.848
24574W        W96889   5.895  25.988   2.843
24575W        W96890  17.374  20.694  12.429
24576W        W96891  26.355  27.124   2.183
24577W        W96892  10.397   7.933   3.380
24578W        W96893  41.449  30.681  14.464
24579W        W96894  23.767  38.369   4.684
24580W        W96895  19.714  29.498  13.458
24581W        W96896  25.045  10.430   4.180
24582W        W96897   3.005  15.016  13.026
24583W        W96898   1.838  13.268   0.963
24584W        W96899  41.925  34.802  12.262
24585W        W96900  27.301  13.925  10.126
24586W        W96901   8.901  12.747  14.781
24587W        W96902   3.254  18.340  11.035
24588W        W96903  31.612  29.033   0.898
24589W        W96904  22.777  25.595   3.895
24590W        W96905   8.289  12.750   4.845
24591W        W96906  41.636   8.991  12.065
24592W        W96907  37.789  24.717  11.367
24593W        W96908   5.750  12.493  11.273
24594W        W96909  12.885  25.492  13.959
24595W        W96910   0.897  41.957  13.800
24596W        W96911  19.538  25.227  13.420
24597W        W96912  44.618  35.988  13.969
24598W        W96913  17.032  34.921   0.914
24599W        W96914  28.697  10.845  14.935
24600W        W96915  19.527  17.643  10.877
24601W        W96916   7.744   9.261   3.244
24602W        W96917  11.691  38.393   0.412
24603W        W96918   2.912  29.398   0.910
24604W        W96919  41.778  20.167   2.291
24605W        W96920  10.396  41.834  14.064
24606W        W96921  24.541   1.538  11.985
24607W        W96922  34.389   7.421  12.554
24608W        W96923   3.944  31.010   0.030
24609W        W96924  43.305  12.307   2.358
24610W        W96925  43.594  41.541   0.409
24611W        W96926  28.466  17.905  11.549
24612W        W96927   6.123  39.937  11.710
24613W        W96928  13.676  11.116  12.417
24614W        W96929  31.479  42.813  14.350
24615W        W96930  27.281   1.331  13.962
24616W        W96931  19.137  16.659   1.834
24617W        W96932   0.992  11.383   0.009
24618W        W96933  16.724  29.696   5.027
24619W        W96934  37.778  32.309   0.969
24620W        W96935  29.536  33.638  10.236
24621W        W96936  42.390  19.922  13.350
24622W        W96937  18.063  28.482  13.842
24623W        W96938   4.622  11.702   3.412
24624W        W96939  39.995  38.368  12.446
24625W        W96940  38.385  15.908  12.057
24626W        W96941   2.509   8.962   4.505
24627W        W96942  35.459  21.770   1.863
24628W        W96943  26.627  40.906  14.013
24629W        W96944   6.273   4.437  12.402
24630W        W96945   9.770  12.822   2.760
24631W        W96946  24.523  14.928  13.881
24632W        W96947  35.417  15.661  12.490
24633W        W96948  17.396  12.718  14.518
24634W        W96949  21.626  25.630   2.920
24635W        W96950  14.682  12.295  11.526
24636W        W96951  36.018   3.849   0.281
24637W        W96952  42.322   3.307  14.049
24638W        W96953   2.090  21.832  12.956
24639W        W96954   5.532  27.297  11.059
24640W        W96955  34.433  39.614   3.281
24641W        W96956  24.533  24.213  14.947
24642W        W96957  11.328  11.204  14.910
24643W        W96958  12.728   1.286  13.893
24644W        W96959  10.865  31.220  13.515
24645W        W96960   7.876  25.519   2.190
24646W        W96961  23.209  24.510   3.644
24647W        W96962  32.596   2.698  10.582
24648W        W96963  27.452   4.311   0.843
24649W        W96964  17.387  32.077  10.849
24650W        W96965  34.126  43.428   0.281
24651W        W96966  31.759  32.224   4.259
24652W        W96967   5.829   2.244   1.361
24653W        W96968  34.573  41.649   4.191
24654W        W96969  21.607  20.348  10.569
24655W        W96970   8.794  33.141   2.837
24656W        W96971  22.612  15.393  10.513
24657W        W96972  32.638  18.180   0.901
24658W        W96973  27.544  11.675   5.265
24659W        W96974  39.883   7.890  12.866
24660W        W96975  21.794   5.604  11.013
24661W        W96976   6.809   3.791   0.304
24662W        W96977   3.819   5.085  11.632
24663W        W96978  11.170  13.309   4.112
24664W        W96979   7.769  41.270  11.255
24665W        W96980  37.887   5.466  14.179
24666W        W96981  14.951   1.214  12.767
24667W        W96982  16.082   0.313  13.642
24668W        W96983  31.923  13.503  12.112
24669W        W96984  17.622  43.777   4.340
24670W        W96985  21.228  43.961  14.985
24671W        W96986  28.085  13.521  14.479
24672W        W96987  10.741  20.486   1.863
24673W        W96988   7.815  28.102  12.598
24674W        W96989  40.279  30.885  11.300
24675W        W96990  30.363  34.521   0.462
24676W        W96991  14.557   4.279  14.438
24677W        W96992  17.181  14.634   3.717
24678W        W96993  35.195  37.200   0.750
24679W        W96994  23.186   0.432   2.781
24680W        W96995  41.244  22.075  11.942
24681W        W96996  29.610  18.123   1.820
24682W        W96997  38.293   8.741  11.438
24683W        W96998  31.197  14.024   3.295
24684W        W96999  12.757  39.510  14.908
24685W        W97000  15.405  13.643  12.423
24686W        W97001  36.035   4.258   3.801
24687W        W97002  21.147  38.010  11.185
24688W        W97003   3.262   1.688   3.357
24689W        W97004  29.664   5.997  12.122
24690W        W97005  38.903  22.161   4.380
24691W        W97006   0.887  24.038  12.831
24692W        W97007   2.160  20.299  12.943
24693W        W97008   2.334  27.468   1.742
24694W        W97009   0.332  19.669   4.726
24695W        W97010  35.622  19.019  11.157
24696W        W97011  35.290  43.895   2.733
24697W        W97012  30.723   7.413   3.636
24698W        W97013   6.331   6.518  11.681
24699W        W97014  15.603  34.880  14.943
24700W        W97015   2.579  10.743   5.133
24701W        W97016  28.580  25.867   4.117
24702W        W97017  29.411  43.947  11.597
24703W        W97018  36.521   3.049  12.074
24704W        W97019  42.810  41.465   2.901
24705W        W97020  35.004  37.493  13.944
24706W        W97021   8.442   6.879  12.022
24707W        W97022  34.072  32.250  12.582
24708W        W97023  30.651   5.229   3.220
24709W        W97024  26.725  21.182   1.205
24710W        W97025  43.569  18.738  11.082
24711W        W97026   2.696   7.817  13.622
24712W        W97027  31.318   9.758   2.003
24713W        W97028   5.898  15.677   2.157
24714W        W97029   4.049  22.159  11.922
24715W        W97030  32.445   3.780   0.364
24716W        W97031  16.655  37.355   0.709
24717W        W97032  35.033   7.461  14.391
24718W        W97033  16.252  24.180   0.653
24719W        W97034  40.197  14.019  12.405
24720W        W97035   5.589   1.442  11.603
24721W        W97036  22.222  31.715  12.921
24722W        W97037   9.835  35.872   4.145
24723W        W97038  28.149   9.802  13.837
24724W        W97039  44.508  18.077   3.599
24725W        W97040  21.139  24.219  12.115
24726W        W97041   5.739  14.182   0.040
24727W        W97042   0.942   9.442  14.579
24728W        W97043  29.593  14.655  13.814
24729W        W97044  31.077  12.268  10.829
24730W        W97045  29.746  44.387  11.738
24731W        W97046  38.037  42.496  12.364
24732W        W97047   8.878  38.774  10.798
24733W        W97048  16.047  29.421  13.831
24734W        W97049  41.494  33.101   4.532
24735W        W97050   3.265  16.530   4.550
24736W        W97051  16.758  12.641   4.434
24737W        W97052  42.050  17.227  13.387
24738W        W97053  18.221   8.161   9.803
24739W        W97054  36.460  16.843  10.804
24740W        W97055  16.100  15.537   2.234
24741W        W97056  31.988  27.680   3.613
24742W        W97057  16.809  31.624   4.282
24743W        W97058  18.244  21.141  12.178
24744W        W97059  18.067  39.532  12.007
24745W        W97060   0.970  39.143  14.470
24746W        W97061  12.412   8.345   4.251
24747W        W97062  36.746  32.927  12.357
24748W        W97063  29.697   5.839  10.169
24749W        W97064  18.802  35.959   4.665
24750W        W97065  31.651   2.495   3.816
24751W        W97066  35.056  31.826   0.892
24752W        W97067  12.947  20.563  14.879
24753W        W97068  25.523  37.859  12.564
24754W        W97069  31.824  17.187   2.868
24755W        W97070  21.146  21.693  13.883
24756W        W97071  37.650  13.686   2.824
24757W        W97072  19.198  31.631   3.771
24758W        W97073  10.809   8.737  12.449
24759W        W97074  34.556  24.416   1.412
24760W        W97075  11.880  10.663  13.630
24761W        W97076  42.867  23.174   3.392
24762W        W97077   0.755   9.419   0.521
24763W        W97078  17.897  19.488   3.168
24764W        W97079  13.582  37.416   4.532
24765W        W97080   7.273  22.899  13.354
24766W        W97081  28.573  14.036  13.806
24767W        W97082  42.346   0.825  14.574
24768W        W97083  44.522  40.460   2.201
24769W        W97084  11.356  16.348  10.975
24770W        W97085  18.596  30.428   5.176
24771W        W97086  43.531  43.888   0.194
24772W        W97087  14.190  28.353   4.195
24773W        W97088  12.158  38.312   1.124
24774W        W97089  35.523  13.391  12.093
24775W        W97090  17.712   2.914  12.055
24776W        W97091  16.158  11.174   0.015
24777W        W97092  18.202  41.344   0.266
24778W        W97093   1.762   1.182   4.243
24779W        W97094  18.671  18.054   2.806
24780W        W97095  20.959  28.593  11.989
24781W        W97096  33.622  34.432   4.541
24782W        W97097  31.625  17.971   4.351
24783W        W97098  44.245   7.941   2.386
24784W        W97099  18.744  23.714   4.209
24785W        W97100   2.286  35.356  11.348
24786W        W97101  18.222  35.151   1.979
24787W        W97102  11.070   8.833   0.773
24788W        W97103  10.338  12.776   2.820
24789W        W97104  41.429  11.183   2.194
24790W        W97105  10.714   3.293  12.093
24791W        W97106   1.367  21.561   0.869
24792W        W97107  18.909  20.737  14.845
24793W        W97108  11.138   0.325   5.012
24794W        W97109  21.091  24.230   1.785
24795W        W97110  13.616   9.873   3.195
24796W        W97111  27.027   2.362   3.847
24797W        W97112  17.190   1.677  14.962
24798W        W97113  26.965   1.307   4.602
24799W        W97114  17.689  35.848  10.496
24800W        W97115  37.380  15.085   1.383
24801W        W97116  38.994   3.787   0.949
24802W        W97117  39.653   4.479   4.548
24803W        W97118  37.955   1.624  13.555
24804W        W97119  34.946  36.617   3.058
24805W        W97120  13.348  35.884  10.836
24806W        W97121   2.660  39.000   4.528
24807W        W97122  30.327  12.316  11.763
24808W        W97123  33.884  41.797  11.721
24809W        W97124   3.509  24.128   2.909
24810W        W97125  29.646  40.981  11.444
24811W        W97126  34.378  20.206   4.600
24812W        W97127  27.545  32.961  11.169
24813W        W97128  41.506   1.805   3.135
24814W        W97129  27.985  27.013   2.736
24815W        W97130   2.734  23.961   3.470
24816W        W97131  14.918  23.284  14.015
24817W        W97132   9.857   2.173  14.920
24818W        W97133  14.671  34.987  13.873
24819W        W97134   6.488  21.143  10.717
24820W        W97135  16.347  26.861  13.119
24821W        W97136  17.950  22.079  12.493
24822W        W97137  27.576  35.404  12.606
24823W        W97138  30.116  30.928   1.671
24824W        W97139  31.930  28.415   1.259
24825W        W97140  22.175  38.096   4.972
24826W        W97141  42.790  22.763   3.093
24827W        W97142  11.912   7.814  11.988
24828W        W97143  11.691   7.657   0.869
24829W        W97144  39.854  37.819  12.803
24830W        W97145  11.788  13.080  10.520
24831W        W97146  42.701  12.631  13.890
24832W        W97147  35.799  30.526   0.488
24833W        W97148  37.883   7.797  13.259
24834W        W97149   0.958  43.563  12.052
24835W        W97150  21.138   9.957   5.032
24836W        W97151  11.175   2.514  14.882
24837W        W97152  12.887  33.090   4.274
24838W        W97153  25.977  43.855   2.338
24839W        W97154  35.889   0.737   0.868
24840W        W97155  21.769  33.723   0.972
24841W        W97156   2.905   8.160   4.525
24842W        W97157   7.433   1.484  13.495
24843W        W97158  25.158   3.843   2.352
24844W        W97159  15.624  35.401   0.689
24845W        W97160  39.637   0.237  13.788
24846W        W97161  41.297   3.756  12.076
24847W        W97162  13.213  40.382  11.184
24848W        W97163   3.367   6.225  13.552
24849W        W97164  28.959  15.541   0.472
24850W        W97165  42.716   9.747   0.417
24851W        W97166  27.462  33.641   2.584
24852W        W97167  36.494   1.762  11.638
24853W        W97168  10.282  40.983  14.707
24854W        W97169  28.564   5.891   1.409
24855W        W97170  22.500  35.194   4.290
24856W        W97171  25.625  41.747   4.703
24857W        W97172   4.267  27.460  14.546
24858W        W97173  43.990  10.829  13.362
24859W        W97174  16.632  37.028  13.357
24860W        W97175  26.153  42.652  12.010
24861W        W97176  40.059  25.224  13.888
24862W        W97177  37.870  35.461   2.645
24863W        W97178  32.514   9.936  14.829
24864W        W97179  24.377  39.361  14.948
24865W        W97180   8.121  15.652   3.636
24866W        W97181  33.421  40.619  14.117
24867W        W97182  14.112  41.337   1.965
24868W        W97183  22.954  42.560  12.548
24869W        W97184  32.315  16.814  14.086
24870W        W97185  24.485  32.609  12.592
24871W        W97186  39.343  20.544   2.813
24872W        W97187  33.749  22.823  13.792
24873W        W97188  20.859  24.003   0.730
24874W        W97189  21.678  21.749   5.115
24875W        W97190  39.056   3.229   4.864
24876W        W97191  20.481  16.874  11.582
24877W        W97192  27.970   1.785  13.512
24878W        W97193  10.281  28.188   0.941
24879W        W97194  31.106  31.994  11.042
24880W        W97195  23.479  23.353   0.545
24881W        W97196  25.277  38.839  13.011
24882W        W97197   9.397  27.187   3.318
24883W        W97198  38.420  28.214   4.681
24884W        W97199  25.418  25.429   0.703
24885W        W97200  34.033   5.076   3.204
24886W        W97201  10.662  20.043   4.264
24887W        W97202   4.862  20.283  12.902
24888W        W97203   4.175  10.885  11.352
24889W        W97204   8.613  35.311  14.514
24890W        W97205  37.010  32.612  11.298
24891W        W97206   2.835  43.482   1.152
24892W        W97207  32.548  11.626  10.884
24893W        W97208  16.146  25.037   1.128
24894W        W97209   9.352   5.862   1.431
24895W        W97210  26.017  14.540  12.977
24896W        W97211  19.757  14.999  11.958
24897W        W97212  21.663   4.892   0.052
24898W        W97213   5.726  12.482   4.079
24899W        W97214  30.700  43.818   2.777
24900W        W97215  16.034  28.596  12.036
24901W        W97216  20.274  42.328   2.246
24902W        W97217  41.441  20.764   1.802
24903W        W97218  37.903  22.709   2.741
24904W        W97219   9.411  18.883   1.862
24905W        W97220  22.645   8.872   1.936
24906W        W97221  28.659   7.077   3.092
24907W        W97222   5.546  20.101   4.615
24908W        W97223  41.311   3.711   3.273
24909W        W97224  19.621  30.546   0.350
24910W        W97225   8.835  34.222  12.497
24911W        W97226  33.879  12.447   3.214
24912W        W97227  43.937   9.493   0.939
24913W        W97228  36.319  22.559  12.494
24914W        W97229  38.116  37.980  13.534
24915W        W97230  16.565  14.096   3.151
24916W        W97231   5.859  22.300  13.953
24917W        W97232  22.259  14.888  14.781
24918W        W97233  43.572  22.208   3.148
24919W        W97234   0.499  43.297  14.420
24920W        W97235  17.346   6.819   2.835
24921W        W97236  35.050   9.457   0.780
24922W        W97237  14.867  16.788   1.221
24923W        W97238  15.592  30.089   5.276
24924W        W97239  32.900  42.938   0.868
24925W        W97240  40.997  28.525   4.675
24926W        W97241   6.933  19.573  10.745
24927W        W97242   5.163  22.480  11.611
24928W        W97243  30.410   3.676   5.159
24929W        W97244  24.891  13.295  13.585
24930W        W97245   8.343  33.458  13.048
24931W        W97246   1.916  17.130   1.358
24932W        W97247  18.021  25.891   1.301
24933W        W97248  39.952  18.568   3.781
24934W        W97249   5.728  29.656  13.853
24935W        W97250   2.438   5.809  14.772
24936W        W97251  21.764  42.380   3.930
24937W        W97252  27.576  29.982   2.036
24938W        W97253  42.937  32.453  12.817
24939W        W97254   9.330  17.562  14.078
24940W        W97255  27.721  18.205  11.594
24941W        W97256   5.002   1.497   3.718
24942W        W97257   9.840  13.795   4.659
24943W        W97258  34.338  13.546   1.829
24944W        W97259  19.091   1.168  14.308
24945W        W97260   1.492  11.354  12.195
24946W        W97261  39.127  44.521  14.317
24947W        W97262  37.562  43.474   4.659
24948W        W97263   2.834   3.926  11.489
24949W        W97264  38.834  20.992  12.116
24950W        W97265  22.767  25.205   2.251
24951W        W97266   0.963  32.593  11.473
24952W        W97267   5.831  24.202   1.263
24953W        W97268  25.463   2.404   2.807
24954W        W97269   0.082   8.904  10.178
24955W        W97270  13.642  23.021  13.806
24956W        W97271  24.207  18.590   3.856
24957W        W97272  18.125  43.245  13.690
24958W        W97273  16.055  34.990  14.693
24959W        W97274  29.697  30.719  12.184
24960W        W97275  40.336   6.451  13.581
24961W        W97276  43.467  10.892  10.342
24962W        W97277  23.582  35.526   2.157
24963W        W97278   4.794  22.791   1.311
24964W        W97279  29.158   3.014  13.737
24965W        W97280  34.293  34.894   4.186
24966W        W97281  31.586  15.581  13.362
24967W        W97282  29.102   9.162  13.897
24968W        W97283  37.619   9.117  11.919
24969W        W97284  22.722  10.910   1.432
24970W        W97285   3.819  34.431   3.541
24971W        W97286  34.527  14.828  12.810
24972W        W97287  42.938  16.828   1.115
24973W        W97288   0.507  22.482  14.991
24974W        W97289  34.549  32.384  12.416
24975W        W97290   9.369  33.604  14.821
24976W        W97291  25.265  15.992   3.257
24977W        W97292  13.436  12.179   3.663
24978W        W97293   7.666  42.417   4.578
24979W        W97294  22.142   7.019  14.299
24980W        W97295  41.495  30.921   4.025
24981W        W97296  12.653  23.561  14.592
24982W        W97297  35.426  35.688  13.928
24983W        W97298  10.306   4.478  14.106
24984W        W97299  37.970   3.337  10.381
24985W        W97300  44.064  22.508  11.322
24986W        W97301  39.414  13.429  14.578
24987W        W97302  35.832   1.476   0.411
24988W        W97303  21.082  21.798  13.002
24989W        W97304  24.220   9.277  12.542
24990W        W97305  36.454   1.978  12.943
24991W        W97306   3.580  11.866   2.431
24992W        W97307  44.895  32.636  11.595
24993W        W97308  43.781  10.174  12.803
24994W        W97309   0.967  40.392  11.202
24995W        W97310  24.979   1.911  11.176
24996W        W97311  20.999   6.647  11.602
24997W        W97312  13.776   8.372  14.433
24998W        W97313   4.711   6.081   1.234
24999W        W97314  18.848   4.223  12.386
25000W        W97315   2.531  18.798   2.697
25001W        W97316  36.421  28.512   0.032
25002W        W97317  37.877  43.487  12.874
25003W        W97318  37.852  33.476  12.216
25004W        W97319   2.036  20.489  10.704
25005W        W97320   5.564   6.861  11.131
25006W        W97321  38.484  25.259   2.094
25007W        W97322  33.912  31.637   1.322
25008W        W97323  24.226  40.574   2.627
25009W        W97324  44.896  25.954   0.561
25010W        W97325  31.748  36.645  13.990
25011W        W97326  12.192  43.382  13.340
25012W        W97327  20.498  19.860   4.685
25013W        W97328  23.728  28.664   3.910
25014W        W97329  31.529  22.856   4.039
25015W        W97330  43.019  29.408  12.042
25016W        W97331   4.402  33.007  14.031
25017W        W97332  29.139  24.372  12.628
25018W        W97333   8.414   4.133   1.340
25019W        W97334  28.261  38.978   0.455
25020W        W97335  12.883  31.117   0.975
25021W        W97336  16.621   9.418  10.765
25022W        W97337  12.924   6.323  14.440
25023W        W97338  23.147   6.406   2.398
25024W        W97339  30.859  15.747  12.868
25025W        W97340  42.616  22.978   2.169
25026W        W97341  30.126  28.367  10.503
25027W        W97342  44.688  15.049  11.163
25028W        W97343  40.549  19.629  14.085
25029W        W97344  32.021   9.415   3.258
25030W        W97345  18.430   1.370   0.907
25031W        W97346  23.127  20.687   1.244
25032W        W97347  38.443   8.115  13.525
25033W        W97348  16.610  30.517  10.213
25034W        W97349  26.631  17.886  10.683
25035W        W97350  23.437  14.262  11.511
25036W        W97351  14.166   7.752   0.953
25037W        W97352   7.087   0.277   0.803
25038W        W97353  32.165  20.594   0.063
25039W        W97354  10.706  30.829   3.314
25040W        W97355  42.748  22.265   0.215
25041W        W97356  25.403   7.370   2.710
25042W        W97357  31.759   6.967  13.578
25043W        W97358  22.743   4.487   4.414
25044W        W97359   8.923  11.204   0.835
25045W        W97360  39.037  22.732   1.164
25046W        W97361  40.037  21.653  13.367
25047W        W97362  21.570  37.803  12.745
25048W        W97363  44.017  40.796  12.102
25049W        W97364  34.337   2.876   4.923
25050W        W97365  32.282   0.252   0.787
25051W        W97366  12.804  37.796   2.895
25052W        W97367  12.297   1.057  11.477
25053W        W97368  14.314  11.870   1.932
25054W        W97369  33.460  23.205   3.793
25055W        W97370  22.728  21.513  11.847
25056W        W97371  41.286  40.356  14.012
25057W        W97372  35.665  41.112   0.528
25058W        W97373   3.872   8.636  14.392
25059W        W97374   5.840  26.430   0.787
25060W        W97375  15.039  20.727   3.268
25061W        W97376  34.403  26.205  14.586
25062W        W97377   9.721   4.241  14.868
25063W        W97378  39.874  41.345   3.117
25064W        W97379  22.250  19.124   1.924
25065W        W97380  25.109   1.638  11.640
25066W        W97381  38.521  41.463  14.776
25067W        W97382  11.620  10.022   2.379
25068W        W97383  16.964  10.982  10.115
25069W        W97384   0.502  36.808  13.990
25070W        W97385  34.085   6.693   4.924
25071W        W97386  40.349   4.901  13.285
25072W        W97387   6.855  43.791   3.130
25073W        W97388  32.709  16.730   1.846
25074W        W97389  39.829  31.430  10.736
25075W        W97390  16.254  37.536  12.063
25076W        W97391  38.595  12.793  12.023
25077W        W97392  13.461   9.271   0.933
25078W        W97393   2.751   8.169   1.480
25079W        W97394  25.579  21.434  13.170
25080W        W97395   2.019   5.818  12.874
25081W        W97396   0.977   1.405   0.902
25082W        W97397  31.499  26.602  11.537
25083W        W97398  34.377  12.875  13.805
25084W        W97399  36.614  13.834   3.766
25085W        W97400  28.725  39.532  14.262
25086W        W97401   3.610   9.710  13.046
25087W        W97402  22.776  15.763  14.859
25088W        W97403  31.582   3.169   2.197
25089W        W97404  43.946  28.698  13.109
25090W        W97405  35.052  24.425   2.322
25091W        W97406  15.561  39.884  13.389
25092W        W97407  19.615  30.417   2.307
25093W        W97408   5.660  26.427  12.165
25094W        W97409  18.129  20.144   0.718
25095W        W97410  40.430  33.838  12.405
25096W        W97411   9.071  22.006  12.663
25097W        W97412  33.997  25.556  13.025
25098W        W97413  26.957   3.288  14.063
25099W        W97414  25.229  17.386  12.762
25100W        W97415  41.626  31.312   0.542
25101W        W97416  38.870   3.924  14.440
25102W        W97417   3.899   1.664   4.611
25103W        W97418  24.201  37.895   1.496
25104W        W97419  24.892   3.652   0.295
25105W        W97420   9.313  43.353   1.705
25106W        W97421   0.743  13.363   4.198
25107W        W97422  16.104  41.001   0.450
25108W        W97423   7.093  18.602  13.916
25109W        W97424   6.120  31.871  11.846
25110W        W97425   7.492  23.132  10.810
25111W        W97426  38.029  28.674  12.161
25112W        W97427  30.320  14.589  14.980
25113W        W97428  26.185  44.695   1.828
25114W        W97429   7.873  22.990   4.061
25115W        W97430  32.072   9.663  14.853
25116W        W97431   5.313  25.256   0.521
25117W        W97432  24.720   7.765  11.118
25118W        W97433   3.213   2.076   1.667
25119W        W97434  13.689  15.548  14.409
25120W        W97435  11.093  21.162  14.494
25121W        W97436  11.864  30.556   4.330
25122W        W97437  36.512   0.525  11.947
25123W        W97438  28.118   6.876  13.493
25124W        W97439  11.780  17.938  14.214
25125W        W97440   7.651  31.788   0.217
25126W        W97441  17.322  16.245   2.234
25127W        W97442  18.023  30.705  10.217
25128W        W97443  18.472  30.464  11.058
25129W        W97444  37.128   7.454   2.751
25130W        W97445  26.151  31.726  12.000
25131W        W97446  17.244   9.517  11.179
25132W        W97447  18.790   6.426   1.929
25133W        W97448   6.203   8.789   0.896
25134W        W97449   3.241   9.321   3.077
25135W        W97450  11.674  15.219  13.676
25136W        W97451   8.882   6.882  14.729
25137W        W97452  13.695  34.863  14.978
25138W        W97453  15.920   4.800   2.284
25139W        W97454   9.336  14.808  13.429
25140W        W97455  15.074  25.664  12.830
25141W        W97456   4.405   1.261   0.761
25142W        W97457  18.828  11.135   1.310
25143W        W97458  10.160   2.613   5.009
25144W        W97459  25.541  25.956   3.174
25145W        W97460  28.411   4.390  11.138
25146W        W97461  42.422  29.599   4.587
25147W        W97462  35.918  11.607  12.968
25148W        W97463  35.586  16.533   2.778
25149W        W97464   0.057  34.367  12.733
25150W        W97465  37.835  37.657   0.151
25151W        W97466  18.459   6.129   2.767
25152W        W97467   2.389  10.665   3.768
25153W        W97468   0.341  41.054  14.569
25154W        W97469  33.413  14.139  14.304
25155W        W97470  11.302  12.862   3.907
25156W        W97471  42.906  12.724  14.385
25157W        W97472  25.576  43.289   0.828
25158W        W97473  38.801  36.603   0.717
25159W        W97474   6.202  16.556   2.317
25160W        W97475  14.261  25.016  14.463
25161W        W97476  24.528  15.367   2.770
25162W        W97477  36.443  34.248   3.651
25163W        W97478  41.313   4.779  12.008
25164W        W97479  43.277  29.375  14.399
25165W        W97480   5.939  41.465   2.229
25166W        W97481  17.543  27.093   3.065
25167W        W97482   3.491   7.710  12.988
25168W        W97483  21.193  32.006   3.118
25169W        W97484  16.749   4.876  11.105
25170W        W97485  10.179  25.035   2.669
25171W        W97486  11.419  36.916  11.505
25172W        W97487  30.435  33.655   0.913
25173W        W97488  30.039  10.818  14.952
25174W        W97489  25.484  30.140   2.849
25175W        W97490  26.635  34.476   3.689
25176W        W97491   0.222   7.680  14.045
25177W        W97492  27.637  20.511  11.509
25178W        W97493  29.946  39.510   0.868
25179W        W97494  27.963  26.125  11.011
25180W        W97495  21.140  39.552   1.919
25181W        W97496   3.473  27.322  14.088
25182W        W97497   9.826  15.752  12.736
25183W        W97498  36.141  36.590   2.659
25184W        W97499  35.051  33.992  11.870
25185W        W97500  34.554  24.617   2.643
25186W        W97501  19.282  28.999  12.439
25187W        W97502  43.484  32.751   1.870
25188W        W97503  44.274  18.965  12.305
25189W        W97504  17.682  17.073  12.473
25190W        W97505  33.604   3.251   1.923
25191W        W97506  34.098  25.114   0.381
25192W        W97507  31.021  13.608   0.333
25193W        W97508  40.489  15.530   0.369
25194W        W97509   9.293  21.355  14.211
25195W        W97510  27.614  42.331  14.828
25196W        W97511   6.220  40.901  14.705
25197W        W97512  28.427   8.535  14.437
25198W        W97513  12.692  21.408  10.740
25199W        W97514   9.123  39.383  12.014
25200W        W97515   2.072  25.660   2.847
25201W        W97516   3.835  40.388   0.238
25202W        W97517  42.203  30.721  11.184
25203W        W97518  16.718  10.552  10.674
25204W        W97519   1.231  35.642   0.930
25205W        W97520   6.009  21.169  10.494
25206W        W97521  32.391  28.162   2.288
25207W        W97522  23.731  10.530   3.657
25208W        W97523  27.285  12.360  13.100
25209W        W97524  32.428  16.332  11.225
25210W        W97525  34.825  23.594  11.653
25211W        W97526  27.372  20.559   1.242
25212W        W97527  25.085  22.992  14.818
25213W        W97528  13.268  32.457   1.245
25214W        W97529  27.574  39.086   0.985
25215W        W97530  12.155   9.888   3.237
25216W        W97531  37.775  34.988   0.414
25217W        W97532   3.830  25.338   5.468
25218W        W97533  36.664  21.225   0.617
25219W        W97534   7.866   9.978  14.536
25220W        W97535  26.475   3.393  10.742
25221W        W97536  14.891  28.757   3.683
25222W        W97537   3.733  24.461   0.337
25223W        W97538  13.791  29.563   0.488
25224W        W97539  29.389  43.054  11.697
25225W        W97540  33.525  29.112   4.815
25226W        W97541  16.707  16.375   4.648
25227W        W97542  15.466  43.631   2.843
25228W        W97543  12.856  35.633  12.920
25229W        W97544  44.075   2.692  11.893
25230W        W97545  18.622  15.490   3.413
25231W        W97546  16.101  34.926   2.298
25232W        W97547  29.702   2.221   4.074
25233W        W97548  14.939  16.004  13.023
25234W        W97549   6.244  32.934  10.937
25235W        W97550  26.792  30.123   3.208
25236W        W97551   7.865  38.208  14.014
25237W        W97552  19.011  24.141  13.255
25238W        W97553   0.791  41.480  12.627
25239W        W97554  14.071  44.144  12.781
25240W        W97555  34.139  37.117   1.302
25241W        W97556   4.791  12.358   2.735
25242W        W97557  23.582  33.400  14.377
25243W        W97558  41.291  39.730  11.652
25244W        W97559  17.302  38.204   1.695
25245W        W97560  13.221  17.598  14.074
25246W        W97561  39.034   2.947   2.511
25247W        W97562  31.127  32.855   2.157
25248W        W97563  36.052  22.040   4.397
25249W        W97564  16.073  33.486   3.242
25250W        W97565  11.176   5.019   1.854
25251W        W97566   2.175  36.571  14.341
25252W        W97567   3.110  18.304  12.220
25253W        W97568   6.351  10.086  13.373
25254W        W97569  24.049  34.038   3.301
25255W        W97570  40.345   6.357  11.618
25256W        W97571  25.454  11.372  14.724
25257W        W97572   9.871  13.061   2.317
25258W        W97573  12.567  43.947   0.855
25259W        W97574  20.185  16.920   5.157
25260W        W97575   3.567   5.115   2.170
25261W        W97576  21.073  26.248  14.150
25262W        W97577  31.422  14.183   1.406
25263W        W97578  41.854   0.226   4.580
25264W        W97579   2.536  14.747   0.760
25265W        W97580  12.079  41.749  10.585
25266W        W97581  32.129   9.724   4.287
25267W        W97582   8.122  15.149   2.779
25268W        W97583  31.513  41.246  14.269
25269W        W97584  27.014  26.973  11.120
25270W        W97585   8.747  40.978  12.677
25271W        W97586  13.887  39.408  10.568
25272W        W97587  24.958   1.268   1.601
25273W        W97588  18.625  17.415   4.355
25274W        W97589  41.087  22.144   2.030
25275W        W97590   1.933  16.025   0.855
25276W        W97591  11.731   4.957  11.872
25277W        W97592  14.934  34.504   2.481
25278W        W97593  36.782   7.745   1.433
25279W        W97594   0.941  39.308   0.804
25280W        W97595  11.750  29.948   3.518
25281W        W97596   4.921  43.771  13.956
25282W        W97597  16.200  44.825  10.606
25283W        W97598  10.669  16.180   3.733
25284W        W97599  39.792  20.755   4.754
25285W        W97600  40.871  37.289   0.756
25286W        W97601   8.574   5.316   0.132
25287W        W97602  31.971  18.680   2.416
25288W        W97603  24.539   9.546   4.977
25289W        W97604  43.345  34.536  10.586
25290W        W97605  13.398   3.795  12.205
25291W        W97606  11.304  44.268  12.585
25292W        W97607  42.289   2.872   1.636
25293W        W97608   7.721  11.184   0.274
25294W        W97609   7.073   0.850   1.566
25295W        W97610  40.108  26.712   0.701
25296W        W97611  27.025  30.620  11.575
25297W        W97612  38.891  43.620   0.339
25298W        W97613  42.496  33.953  13.664
25299W        W97614  16.767  14.890  11.087
25300W        W97615  21.053  34.608  10.599
25301W        W97616  13.137  37.855   1.277
25302W        W97617  31.238  24.643  11.055
25303W        W97618  31.593  16.837  13.602
25304W        W97619  30.199  31.585   4.731
25305W        W97620  11.410  21.033  13.389
25306W        W97621  14.626  39.303  11.103
25307W        W97622  34.367  20.679   1.479
25308W        W97623  35.216  38.360   4.161
25309W        W97624   4.637  10.604  12.487
25310W        W97625  41.033  31.366   3.334
25311W        W97626  15.865  14.150   2.595
25312W        W97627  44.763  28.053   4.529
25313W        W97628  11.137  44.631  11.178
25314W        W97629  21.286  20.908  14.518
25315W        W97630  43.825  38.328   4.180
25316W        W97631  35.921  44.909  10.724
25317W        W97632  39.040  11.047  13.752
25318W        W97633  20.155   8.667  14.032
25319W        W97634  13.613  40.327   0.359
25320W        W97635  16.504   3.379   0.388
25321W        W97636  19.751  32.855   3.783
25322W        W97637  17.585   7.287  11.542
25323W        W97638  31.480  21.470   2.297
25324W        W97639  31.072  44.002   0.410
25325W        W97640  16.260  10.403  12.015
25326W        W97641   6.464  40.285  11.964
25327W        W97642   8.884  42.599   2.667
25328W        W97643  20.335   1.937   4.147
25329W        W97644  30.591  32.449  11.644
25330W        W97645  16.858   4.955  11.960
25331W        W97646  11.610  13.800   9.982
25332W        W97647   6.713  29.827  12.455
25333W        W97648  21.524  42.393   0.042
25334W        W97649  25.564  19.625   1.967
25335W        W97650  36.545  16.474  14.889
25336W        W97651  31.906  24.263   3.254
25337W        W97652  17.609  10.237   0.250
25338W        W97653  27.018  26.137   3.334
25339W        W97654  32.607  21.551  10.957
25340W        W97655  34.440  12.664  14.744
25341W        W97656  31.583  23.018  13.513
25342W        W97657  36.666  32.940  14.493
25343W        W97658  16.905  32.108  10.605
25344W        W97659  28.544  13.426   2.120
25345W        W97660   0.454  20.899   3.824
25346W        W97661  22.008  38.005  12.924
25347W        W97662  14.819  15.932   1.905
25348W        W97663  23.068  32.415   1.739
25349W        W97664  41.837  14.615   3.699
25350W        W97665  34.988  24.579   1.194
25351W        W97666  39.086  42.765  13.685
25352W        W97667   8.839  34.026  13.287
25353W        W97668  31.601  43.730  10.965
25354W        W97669  30.083  23.054   0.894
25355W        W97670   2.882  16.197  11.385
25356W        W97671  13.549   9.364  14.172
25357W        W97672  34.751  25.500  12.677
25358W        W97673   2.046  44.422  14.498
25359W        W97674   5.850  18.658   0.431
25360W        W97675  12.357  40.747   0.078
25361W        W97676   0.750  40.514   1.753
25362W        W97677  39.628   6.541  12.065
25363W        W97678   1.228  39.694   0.332
25364W        W97679  14.302  44.716  13.354
25365W        W97680  18.645  34.625  13.038
25366W        W97681  14.743  28.179   1.899
25367W        W97682  19.787  39.047   3.137
25368W        W97683  39.132   1.541   0.926
25369W        W97684   8.826  25.526  14.309
25370W        W97685  35.857  28.721  14.243
25371W        W97686  36.335   9.151  10.973
25372W        W97687  15.476  27.956   4.750
25373W        W97688  32.059  41.285  11.580
25374W        W97689  19.151  32.533   0.212
25375W        W97690  14.416  25.041   3.582
25376W        W97691  41.499  19.119  14.068
25377W        W97692   4.827  12.875  13.401
25378W        W97693  36.986  22.520  14.484
25379W        W97694   3.964  35.051  13.808
25380W        W97695  35.889  19.308  10.829
25381W        W97696   9.229  40.449   1.359
25382W        W97697  17.989  33.486  13.891
25383W        W97698  21.466  39.941  11.127
25384W        W97699   6.192  17.851  14.443
25385W        W97700  21.224  28.141   4.550
25386W        W97701  41.808  28.095  11.919
25387W        W97702  26.602   1.798  11.118
25388W        W97703  15.797  29.214   3.746
25389W        W97704  34.355  11.312   3.187
25390W        W97705  43.274   3.561   1.426
25391W        W97706  24.789  20.972  14.507
25392W        W97707  41.317  37.971  14.497
25393W        W97708   8.553   3.869  12.507
25394W        W97709   5.350  39.601   1.102
25395W        W97710  43.773   8.091  11.891
25396W        W97711  13.314  16.395   0.834
25397W        W97712  32.830  28.569   0.012
25398W        W97713  43.279  38.974  13.805
25399W        W97714  11.156  39.039   3.831
25400W        W97715  28.690  27.440  12.036
25401W        W97716  17.237   0.657   3.160
25402W        W97717   8.924  25.237   1.240
25403W        W97718  24.200  22.086  13.397
25404W        W97719   2.438   1.493  11.120
25405W        W97720  16.223  32.692   2.725
25406W        W97721  14.572  17.172  12.944
25407W        W97722   0.433   3.432   2.164
25408W        W97723  12.902  25.971   0.928
25409W        W97724  17.586   0.922   2.223
25410W        W97725  22.226  44.885   4.882
25411W        W97726  40.384  27.309   2.950
25412W        W97727  38.869  11.072   4.775
25413W        W97728  29.663   6.385   1.224
25414W        W97729  21.072  11.766   4.165
25415W        W97730  24.009  18.361  14.767
25416W        W97731  27.825  16.060   4.575
25417W        W97732  25.971   2.283  13.908
25418W        W97733  38.020  33.999  11.453
25419W        W97734  10.725  26.521   2.728
25420W        W97735  36.584  44.458  10.716
25421W        W97736  44.696  33.961  14.889
25422W        W97737  32.646  22.589   1.851
25423W        W97738  18.284  42.105   3.249
25424W        W97739  36.327  24.690   1.860
25425W        W97740  20.564  20.476   0.404
25426W        W97741  40.337  24.683  10.201
25427W        W97742  27.723  38.846  12.349
25428W        W97743  19.476   1.460  14.504
25429W        W97744  16.068  28.511  14.805
25430W        W97745   6.200  30.993   0.360
25431W        W97746  40.497  41.376   4.663
25432W        W97747  16.623  22.224   2.734
25433W        W97748   6.253  32.590   4.526
25434W        W97749   6.126  10.875   1.818
25435W        W97750  22.802  19.265   9.695
25436W        W97751  40.742  29.939  14.255
25437W        W97752   3.536   3.438  12.611
25438W        W97753  41.595  16.169   3.198
25439W        W97754  17.631  23.185  10.910
25440W        W97755   9.504   4.401   2.205
25441W        W97756  37.916  11.227  12.914
25442W        W97757  26.161  33.014   4.235
25443W        W97758  32.186   1.359   0.012
25444W        W97759  24.634  39.957   0.244
25445W        W97760  13.276  16.624   3.787
25446W        W97761  34.759  29.369  12.221
25447W        W97762  33.854  35.891  12.923
25448W        W97763  37.361  25.469   1.239
25449W        W97764  14.684  19.383  14.424
25450W        W97765  16.980  39.352   4.130
25451W        W97766  16.107  41.393  14.314
25452W        W97767   4.812  31.670   3.301
25453W        W97768  26.483   2.020  12.011
25454W        W97769  17.518  44.072  13.444
25455W        W97770  20.815  33.805  14.819
25456W        W97771  21.469   1.557   3.089
25457W        W97772   3.723  14.240   2.261
25458W        W97773  35.423  37.573   3.581
25459W        W97774  38.110  11.306  13.389
25460W        W97775   4.291  35.422   0.071
25461W        W97776   9.490  26.975   3.799
25462W        W97777   0.063  34.906  12.932
25463W        W97778  26.706  30.690   0.461
25464W        W97779  29.186  30.527   1.806
25465W        W97780  28.766  38.880   0.421
25466W        W97781  24.124  43.190   4.973
25467W        W97782  36.132  18.610   0.352
25468W        W97783  43.449  11.944  14.116
25469W        W97784  25.658  23.990   3.129
25470W        W97785  37.526  42.729   2.688
25471W        W97786   3.151  20.918  13.382
25472W        W97787  34.956  29.939   1.292
25473W        W97788   0.461  30.580  13.905
25474W        W97789  37.375  44.468   2.901
25475W        W97790  15.605  27.640   1.783
25476W        W97791   3.977  27.569  11.997
25477W        W97792   4.914   8.881   0.188
25478W        W97793   3.070  41.563   1.506
25479W        W97794  13.139   3.370  12.087
25480W        W97795  26.214  17.609  12.561
25481W        W97796  34.692  12.793  10.933
25482W        W97797  37.514  37.937   3.248
25483W        W97798  25.174   6.736   0.929
25484W        W97799  25.498  24.806  11.589
25485W        W97800   4.756   6.965  13.430
25486W        W97801  28.326  27.008  13.872
25487W        W97802  23.174  40.599   0.921
25488W        W97803  31.861  37.442  13.083
25489W        W97804  27.021  36.424   4.312
25490W        W97805  39.586  16.736   3.177
25491W        W97806  16.301  26.083  12.631
25492W        W97807  10.430  44.243  12.502
25493W        W97808   7.965  32.718  14.242
25494W        W97809  44.514   9.255  10.505
25495W        W97810   6.892  30.516  13.004
25496W        W97811  39.340  23.003   4.762
25497W        W97812  16.738  19.571  10.578
25498W        W97813  39.803   0.178  10.647
25499W        W97814  35.050  36.631   3.952
25500W        W97815  33.606   8.470  11.655
25501W        W97816  11.797  19.498  11.939
25502W        W97817   8.184   2.109  13.362
25503W        W97818  24.683   7.855   3.307
25504W        W97819  13.316  16.911  14.487
25505W        W97820   2.183  15.478   4.354
25506W        W97821  32.949  32.431   5.007
25507W        W97822   6.441  37.429   4.896
25508W        W97823  18.601   9.289   0.023
25509W        W97824   9.947  16.119  11.611
25510W        W97825  11.288  15.636   4.731
25511W        W97826  14.292  37.290   3.813
25512W        W97827  36.812  35.019  10.445
25513W        W97828  22.111  26.213  11.104
25514W        W97829  18.581  10.907  10.164
25515W        W97830  23.682  38.877   3.273
25516W        W97831  40.589  24.002   1.116
25517W        W97832  35.858  23.713  14.770
25518W        W97833  18.028  10.172  12.061
25519W        W97834   4.336  37.421  12.823
25520W        W97835   2.629  44.860   1.795
25521W        W97836  35.262  10.361   4.228
25522W        W97837  20.457  10.142   0.835
25523W        W97838  19.689  11.240   3.840
25524W        W97839  27.533  19.194  14.556
25525W        W97840  16.704  13.023   4.062
25526W        W97841  19.518  14.757   0.053
25527W        W97842  40.954  37.051  14.939
25528W        W97843  23.714   6.418   3.655
25529W        W97844  31.861  15.650  12.027
25530W        W97845  14.658  12.764  13.717
25531W        W97846  18.506  32.917   3.706
25532W        W97847  32.287  21.199   4.067
25533W        W97848  22.467  32.561  10.756
25534W        W97849   2.368   9.558  13.734
25535W        W97850   6.242  18.062  12.042
25536W        W97851  34.812  43.823   3.037
25537W        W97852  40.307  26.274  10.466
25538W        W97853  29.152  41.135  13.106
25539W        W97854  40.866   1.308  13.727
25540W        W97855  21.686  28.141   1.289
25541W        W97856  33.048  21.175   0.846
25542W        W97857   7.226  14.706  13.615
25543W        W97858  30.523  10.612  14.886
25544W        W97859  30.582  36.971   0.688
25545W        W97860   5.175  18.036  12.950
25546W        W97861  31.404  25.065   4.580
25547W        W97862  21.733   7.685   0.272
25548W        W97863  15.662   4.965   3.999
25549W        W97864   8.686  19.455  12.485
25550W        W97865  41.360  41.272  12.411
25551W        W97866  18.599  15.663   1.371
25552W        W97867  42.884  21.731  11.185
25553W        W97868  12.042  18.489  12.146
25554W        W97869  42.612  37.576   0.284
25555W        W97870   6.418  12.781   2.769
25556W        W97871  32.667  31.402   0.800
25557W        W97872  34.884   1.188  13.906
25558W        W97873  24.146  19.624  14.363
25559W        W97874  24.021  27.106   2.748
25560W        W97875  12.415  23.817   2.334
25561W        W97876  39.250  30.955   4.190
25562W        W97877  30.079  17.110  11.132
25563W        W97878   5.802   9.792  10.857
25564W        W97879  40.115   8.598  14.674
25565W        W97880   8.786  36.984   1.463
25566W        W97881  38.524  11.874  10.515
25567W        W97882  11.104  23.345  10.876
25568W        W97883  32.323  37.360   3.682
25569W        W97884  35.114  20.834  14.853
25570W        W97885   1.828  44.874   0.811
25571W        W97886  25.800  13.135   0.341
25572W        W97887  35.919  25.666  10.579
25573W        W97888  26.808  19.468  12.618
25574W        W97889  22.259   8.092   3.069
25575W        W97890  30.616  15.178   3.600
25576W        W97891  44.352  33.290  11.905
25577W        W97892   5.573  11.385  12.194
25578W        W97893   4.674  11.461   1.767
25579W        W97894  33.396  38.577   1.829
25580W        W97895  33.431  43.561  10.090
25581W        W97896  11.047  16.651   0.345
25582W        W97897   9.228  34.225  11.464
25583W        W97898   8.830  38.061   2.920
25584W        W97899   5.592  29.176   5.098
25585W        W97900  17.535   9.854  12.351
25586W        W97901  22.892  41.448  11.991
25587W        W97902  31.499   8.735   4.376
25588W        W97903   5.422  21.004   1.706
25589W        W97904  41.809  17.077  13.874
25590W        W97905  42.928  27.236   0.107
25591W        W97906  16.623  32.606  12.878
25592W        W97907  41.131  24.177  11.514
25593W        W97908   7.611  33.502   4.096
25594W        W97909  16.245   9.866   1.371
25595W        W97910   6.520  38.604   2.751
25596W        W97911  37.555  24.275  11.172
25597W        W97912  30.685  38.777   2.748
25598W        W97913  11.846   4.834  10.299
25599W        W97914  40.391  25.138  14.732
25600W        W97915  22.474  38.478  13.966
25601W        W97916  33.040  13.227   0.726
25602W        W97917  40.323  14.129  13.940
25603W        W97918  16.340  28.725  10.252
25604W        W97919  18.217  37.796   2.534
25605W        W97920  44.532   0.430   0.667
25606W        W97921  30.999  29.963  12.477
25607W        W97922   6.275  24.693  13.049
25608W        W97923  38.852  19.492   4.738
25609W        W97924   7.481   1.818  12.955
25610W        W97925   4.372  18.203  13.386
25611W        W97926  21.518  35.697   3.219
25612W        W97927  16.165  39.396   4.956
25613W        W97928  38.790   5.691   0.973
25614W        W97929  39.567  17.078  10.729
25615W        W97930  20.437  42.507  13.790
25616W        W97931  39.428  11.178   1.640
25617W        W97932  43.953  16.381   4.226
25618W        W97933   6.116  36.305   2.645
25619W        W97934  40.018  12.629   1.858
25620W        W97935  30.734  32.026   3.284
25621W        W97936  23.176  41.926   0.772
25622W        W97937  37.065  19.301   4.373
25623W        W97938   6.567   0.905   1.305
25624W        W97939  36.809   1.256  10.723
25625W        W97940  40.425  19.805   3.692
25626W        W97941  28.097  29.610  11.848
25627W        W97942  43.512  15.547  12.470
25628W        W97943  41.726   0.149  12.873
25629W        W97944   2.744   6.466  10.776
25630W        W97945   1.415  32.669  12.167
25631W        W97946  36.377  24.657   3.309
25632W        W97947  35.095  22.526   1.894
25633W        W97948   0.810  10.078   3.174
25634W        W97949  29.633   0.939   4.076
25635W        W97950  44.624  40.648   2.691
25636W        W97951  16.715  43.781   1.503
25637W        W97952  15.207  16.734  11.125
25638W        W97953   9.593   3.190  14.044
25639W        W97954   9.676  34.524  12.637
25640W        W97955  16.000  24.077  11.375
25641W        W97956   9.756  34.964   3.924
25642W        W97957  14.283   5.372  14.832
25643W        W97958  30.992  43.381   1.925
25644W        W97959  44.716   0.483  12.201
25645W        W97960  13.352   0.750  11.457
25646W        W97961  29.154  31.491   0.694
25647W        W97962   0.399   6.701   1.912
25648W        W97963  17.819  39.980  14.967
25649W        W97964  25.702   3.311  12.671
25650W        W97965  38.569  19.826  14.816
25651W        W97966  10.235  14.841   3.196
25652W        W97967  19.397   8.535   3.978
25653W        W97968  33.895  22.627  14.265
25654W        W97969  40.581  20.172  11.179
25655W        W97970  38.601  33.915   4.486
25656W        W97971  23.438   3.797   4.091
25657W        W97972   6.261  26.893  12.528
25658W        W97973  35.014  10.456  13.275
25659W        W97974  32.025   8.423   0.331
25660W        W97975  40.983   7.212  13.825
25661W        W97976  26.275  41.139  11.946
25662W        W97977  19.202  40.865   4.198
25663W        W97978  29.927  23.093   2.755
25664W        W97979  19.496  13.068  11.993
25665W        W97980  15.765  29.235  11.222
25666W        W97981  31.132  32.146   0.964
25667W        W97982  11.125  35.125   4.055
25668W        W97983  16.337  27.555  12.267
25669W        W97984   9.071   9.589  13.197
25670W        W97985  16.726   6.675  11.872
25671W        W97986  22.305  38.603  11.969
25672W        W97987  34.341  11.774   4.576
25673W        W97988  43.961  15.731  14.009
25674W        W97989  33.458   1.297  10.307
25675W        W97990   2.025  36.091  13.008
25676W        W97991  36.426   8.173   3.672
25677W        W97992  20.974   6.398  13.558
25678W        W97993  24.231  14.730   3.812
25679W        W97994  24.771  15.221  11.125
25680W        W97995  35.332  38.613   2.379
25681W        W97996  42.367   6.372  13.550
25682W        W97997  20.041  40.395   1.886
25683W        W97998  14.964  22.640   5.032
25684W        W97999  44.472  42.082  12.534
25685W        W98000  12.573  17.520  11.066
25686W        W98001  15.755  43.812   4.631
25687W        W98002  37.355  16.685  11.935
25688W        W98003  36.454  29.984  12.534
25689W        W98004  13.180   3.529   0.306
25690W        W98005  16.399   8.255   1.221
25691W        W98006  24.199   2.165  11.601
25692W        W98007  37.521   2.827  12.801
25693W        W98008  36.267   4.320   3.178
25694W        W98009  15.929  35.596   4.108
25695W        W98010  32.195   9.243   1.724
25696W        W98011  43.364  36.044  13.134
25697W        W98012  43.808  26.292   4.172
25698W        W98013  41.223  41.901   3.655
25699W        W98014   3.067  32.109  14.447
25700W        W98015   1.374  31.296   4.170
25701W        W98016  15.757  11.140   4.182
25702W        W98017   0.537   3.628   2.689
25703W        W98018   9.337  28.268  12.115
25704W        W98019  12.615  11.150   0.432
25705W        W98020   3.361  44.632  11.035
25706W        W98021  27.766  36.666  12.948
25707W        W98022  44.107  24.212  14.808
25708W        W98023  14.678   6.002  11.177
25709W        W98024  15.284  31.536   3.281
25710W        W98025   1.265  28.997  14.010
25711W        W98026   6.407  22.844   0.361
25712W        W98027  17.161  21.142  14.948
25713W        W98028  28.121  41.080   4.450
25714W        W98029  13.829  38.926  11.235
25715W        W98030  22.065  35.868   2.132
25716W        W98031  25.674   7.280  11.817
25717W        W98032  11.447   3.229  11.621
25718W        W98033   9.662  16.405   5.003
25719W        W98034  31.598  33.472   4.141
25720W        W98035  25.948  13.354  14.867
25721W        W98036  14.275   0.856  10.492
25722W        W98037  39.026  16.600  11.555
25723W        W98038  35.645  19.823  10.800
25724W        W98039  42.257  25.016  13.523
25725W        W98040  37.675  39.508   4.674
25726W        W98041   7.465  34.988   1.786
25727W        W98042  17.357   5.847  14.049
25728W        W98043  23.181  43.644  14.242
25729W        W98044  44.461  17.727   0.449
25730W        W98045  11.390  16.691  12.593
25731W        W98046   2.769  40.857  14.394
25732W        W98047  10.760  10.471   1.256
25733W        W98048  18.616  27.579   2.116
25734W        W98049  24.646  37.803  14.085
25735W        W98050  36.415   9.950  10.269
25736W        W98051  22.093   1.573  11.095
25737W        W98052   7.307   7.168   3.571
25738W        W98053  36.961  18.665   4.706
25739W        W98054   0.797  17.303  12.633
25740W        W98055  19.628  21.826   2.214
25741W        W98056  32.840  24.170   1.871
25742W        W98057  39.535   2.266   1.208
25743W        W98058  13.660  35.081  13.342
25744W        W98059  40.875  25.937  11.128
25745W        W98060  38.215  22.223  11.550
25746W        W98061  25.313  43.925   4.260
25747W        W98062   9.640  33.042  11.767
25748W        W98063  15.716   8.094   2.925
25749W        W98064   4.033  22.248  11.246
25750W        W98065   7.993  28.190   0.016
25751W        W98066  39.401  37.255   2.150
25752W        W98067  34.347   6.275  10.748
25753W        W98068  41.087   4.044  11.678
25754W        W98069   2.275  21.233  13.314
25755W        W98070  35.673  41.478  14.731
25756W        W98071  26.630   5.355  14.728
25757W        W98072  33.638  44.339  13.285
25758W        W98073   0.276  12.706  12.976
25759W        W98074  10.821  21.782  13.400
25760W        W98075   6.278   7.197   4.318
25761W        W98076   5.951   5.465   4.024
25762W        W98077  33.258  15.761  14.856
25763W        W98078  38.974  34.300  11.909
25764W        W98079  15.048  11.407   4.222
25765W        W98080  40.257   5.391   0.487
25766W        W98081  22.694  20.751   1.952
25767W        W98082  30.623  44.318  14.286
25768W        W98083   9.337   7.788  14.313
25769W        W98084  24.175  36.408  11.218
25770W        W98085  42.009  19.211  14.054
25771W        W98086  14.347  38.403   1.546
25772W        W98087  11.336  12.795  14.829
25773W        W98088   6.177  38.755   2.207
25774W        W98089  17.808  19.798  11.413
25775W        W98090  19.100  24.387  13.698
25776W        W98091  37.988  34.137   0.744
25777W        W98092  10.426  12.679  12.876
25778W        W98093  27.214  43.299   4.215
25779W        W98094   6.142  42.598   4.581
25780W        W98095  15.681   7.112   3.196
25781W        W98096   6.297  22.261   4.264
25782W        W98097  26.960  36.058   2.840
25783W        W98098   3.706  21.407   4.114
25784W        W98099  18.049  27.824  12.526
25785W        W98100  36.385   3.847   4.065
25786W        W98101  16.652  22.455   3.255
25787W        W98102  31.930  20.535  12.429
25788W        W98103  33.208  38.516  12.005
25789W        W98104  29.907   8.870  12.920
25790W        W98105  10.046  17.789  13.474
25791W        W98106   2.310  13.381  13.119
25792W        W98107  21.954  19.166  13.908
25793W        W98108  18.262  25.003   1.400
25794W        W98109  37.448  11.040   4.173
25795W        W98110  22.229  33.979  13.533
25796W        W98111   1.713  33.889   1.421
25797W        W98112  10.822  41.425  12.026
25798W        W98113  11.903   6.271   4.743
25799W        W98114  15.849  10.808  13.993
25800W        W98115  20.764   2.239  10.632
25801W        W98116   8.346  40.408  14.016
25802W        W98117  23.032  22.775   2.717
25803W        W98118   1.845  14.797   0.475
25804W        W98119   0.016  30.208   3.265
25805W        W98120  44.948  31.853   1.875
25806W        W98121  37.953   8.740   0.579
25807W        W98122   3.416  11.962  13.261
25808W        W98123  34.138  22.186  14.316
25809W        W98124  43.158  38.983  11.273
25810W        W98125  42.257  41.924  11.516
25811W        W98126  10.918  25.022   0.577
25812W        W98127   0.468  21.364   1.378
25813W        W98128  28.192  39.692   4.233
25814W        W98129  22.120  40.690  13.561
25815W        W98130  32.650  21.200  12.020
25816W        W98131  15.344  37.037  14.315
25817W        W98132  22.509  19.998  14.739
25818W        W98133  27.881  13.475   4.345
25819W        W98134  11.324  35.945  11.250
25820W        W98135  38.144  40.405  13.630
25821W        W98136  41.395  34.044   3.314
25822W        W98137  20.248  34.010  11.732
25823W        W98138   3.368  33.398  13.377
25824W        W98139  35.971  22.001   3.399
25825W        W98140   0.454  25.967   1.440
25826W        W98141  28.942  43.366   0.818
25827W        W98142  18.280   4.332   4.575
25828W        W98143  25.953  23.186  12.618
25829W        W98144  19.157  25.392  14.843
25830W        W98145  44.399  37.031  11.110
25831W        W98146  44.002  13.344   3.277
25832W        W98147   6.844  34.448   0.971
25833W        W98148  17.064  38.876  10.190
25834W        W98149  37.370  36.098  12.875
25835W        W98150  25.536  17.569   4.395
25836W        W98151  44.014  30.562   4.939
25837W        W98152  15.541  24.489   2.911
25838W        W98153   2.700  43.445   0.286
25839W        W98154   9.296  31.548  10.681
25840W        W98155  24.421  19.630  12.875
25841W        W98156  27.584   6.656   4.502
25842W        W98157  33.346   3.377   3.686
25843W        W98158  12.624   9.960   1.085
25844W        W98159  15.280  11.436   0.999
25845W        W98160  26.534  15.662   2.868
25846W        W98161  39.735  43.378   0.491
25847W        W98162  18.612  18.296   2.349
25848W        W98163  32.773  34.460  10.655
25849W        W98164   3.657   9.423   2.185
25850W        W98165  43.267  36.691   3.268
25851W        W98166  21.690  29.924  12.924
25852W        W98167  28.766  25.615   2.813
25853W        W98168  11.848   4.331  14.867
25854W        W98169  30.098  19.579   4.490
25855W        W98170  31.853   1.884  11.254
25856W        W98171   9.801  11.950  11.596
25857W        W98172   7.791  41.347  13.888
25858W        W98173  24.917   2.728   4.085
25859W        W98174  27.708   0.930  13.927
25860W        W98175  20.731  22.050  11.852
25861W        W98176  30.671   2.846   3.076
25862W        W98177   5.836  36.845   0.216
25863W        W98178  24.608   9.776  10.712
25864W        W98179  35.583  38.957  10.762
25865W        W98180   7.119  14.587  14.102
25866W        W98181  29.001  32.190   4.074
25867W        W98182  17.810  37.276   2.173
25868W        W98183  29.894  39.927  13.826
25869W        W98184  13.416  26.583   0.935
25870W        W98185   0.751  13.787   1.678
25871W        W98186  28.775  42.972   2.196
25872W        W98187  11.663  15.542   1.259
25873W        W98188  14.446   1.672  14.294
25874W        W98189  32.835  26.399   2.354
25875W        W98190   8.933  14.674   2.799
25876W        W98191  17.551  15.389   2.483
25877W        W98192   0.242  15.582  12.907
25878W        W98193   3.390  35.133  12.585
25879W        W98194  37.974  24.186   1.956
25880W        W98195  12.170  33.401   0.963
25881W        W98196   7.890  39.784  14.570
25882W        W98197  32.987   7.855   3.408
25883W        W98198  21.794  11.816  13.041
25884W        W98199  25.196  11.179   0.784
25885W        W98200  31.000  28.417  14.339
25886W        W98201   4.612  43.723  10.937
25887W        W98202  35.506  27.921   2.835
25888W        W98203  24.682  10.953   3.606
25889W        W98204  30.333  32.543  13.145
25890W        W98205   5.392   7.227   4.885
25891W        W98206  36.245  32.000  14.356
25892W        W98207  21.787  39.012  13.846
25893W        W98208   9.445   1.043   3.256
25894W        W98209  31.081  15.252   2.846
25895W        W98210  13.273  33.114   1.811
25896W        W98211  34.415   2.217  11.126
25897W        W98212  13.761  32.888  12.047
25898W        W98213  11.182   2.855  12.494
25899W        W98214  22.574   4.505   3.599
25900W        W98215  10.675   9.724   0.436
25901W        W98216   3.528   0.978   0.313
25902W        W98217  29.961   1.436  12.664
25903W        W98218  17.269  12.606  12.267
25904W        W98219  24.484  29.608  12.098
25905W        W98220  33.037  37.414   2.343
25906W        W98221   6.354   6.393  13.111
25907W        W98222  11.280   5.858   0.241
25908W        W98223  30.500   1.694  13.454
25909W        W98224   1.983  21.177  14.280
25910W        W98225  21.965  28.391  13.244
25911W        W98226  20.015  39.474   0.279
25912W        W98227   9.742   7.431  12.398
25913W        W98228  38.050  12.549  13.288
25914W        W98229  34.587  22.384   1.898
25915W        W98230  41.646  11.705   0.858
25916W        W98231   4.426  44.039   0.534
25917W        W98232  40.558   7.647   3.079
25918W        W98233  33.600  19.550   2.731
25919W        W98234  43.061   6.097  10.379
25920W        W98235   3.028   6.362   0.987
25921W        W98236  36.448  38.805  13.915
25922W        W98237  25.272   6.373   2.805
25923W        W98238   7.730   6.217  10.853
25924W        W98239  22.653  21.462   9.960
25925W        W98240  43.292   4.701  12.484
25926W        W98241  18.749  10.642  12.324
25927W        W98242  25.491  28.615  10.589
25928W        W98243  18.671   0.899   1.000
25929W        W98244  16.726   5.668   3.387
25930W        W98245  13.751   4.795   4.342
25931W        W98246  34.604  29.643  11.046
25932W        W98247  36.364  15.602   4.555
25933W        W98248   6.173   8.118  11.133
25934W        W98249  27.565   3.222  13.182
25935W        W98250  40.514  41.865  12.396
25936W        W98251   7.320  26.978   0.921
25937W        W98252  14.864  14.083  10.769
25938W        W98253  32.351  36.236  14.879
25939W        W98254  22.770   5.479   2.692
25940W        W98255  23.530  27.464   1.159
25941W        W98256  17.719   8.669  11.939
25942W        W98257  18.292   4.144  14.589
25943W        W98258  16.145   8.081   2.275
25944W        W98259  39.274   1.522  11.912
25945W        W98260  35.431   0.134   3.180
25946W        W98261  22.947  12.341  11.181
25947W        W98262   0.544   8.734   1.763
25948W        W98263  42.746   6.498  11.364
25949W        W98264  32.541   9.050  14.550
25950W        W98265  20.716   4.696   2.186
25951W        W98266  12.441  28.120  13.231
25952W        W98267  27.053  34.936  14.067
25953W        W98268  37.001  40.803  13.321
25954W        W98269  37.832  27.806   4.171
25955W        W98270  38.902  18.976   4.822
25956W        W98271   5.743  34.696   4.300
25957W        W98272   1.763  29.086  11.642
25958W        W98273   6.659  20.957   3.181
25959W        W98274  12.660   5.790  13.297
25960W        W98275  34.422  39.432   0.996
25961W        W98276  35.031  21.140   2.371
25962W        W98277  35.360   4.483   0.495
25963W        W98278  31.577  39.125  13.872
25964W        W98279  15.157  14.742  13.844
25965W        W98280  11.325  19.029   3.551
25966W        W98281  31.144  38.328   1.394
25967W        W98282  26.202   2.230   0.427
25968W        W98283  42.618  38.075   1.898
25969W        W98284  25.447  18.316  12.532
25970W        W98285  39.517  15.135   0.024
25971W        W98286  24.959  18.343   0.718
25972W        W98287  16.968   5.124   4.589
25973W        W98288   2.547  11.911   9.705
25974W        W98289  44.967  36.708   0.063
25975W        W98290   1.199  11.397   3.752
25976W        W98291   9.462  32.405  13.586
25977W        W98292  31.175  18.381  10.712
25978W        W98293  25.771  20.375  13.952
25979W        W98294   8.832  36.363   3.566
25980W        W98295  16.978  43.945  13.825
25981W        W98296  25.061  43.526   0.776
25982W        W98297  44.290  28.025  13.267
25983W        W98298   9.957   6.131  11.114
25984W        W98299  36.577  31.610   2.919
25985W        W98300  35.332  28.660   3.210
25986W        W98301   7.525  27.778   2.327
25987W        W98302   9.738  27.087  12.116
25988W        W98303   1.790  14.318  12.616
25989W        W98304  20.245  33.071   2.206
25990W        W98305  13.192  15.968   2.581
25991W        W98306  25.144  27.099  11.830
25992W        W98307  32.912  20.987  12.417
25993W        W98308  12.245  26.012   3.379
25994W        W98309  37.645  37.623   1.688
25995W        W98310  28.953  43.123   1.682
25996W        W98311  30.055  34.047  12.113
25997W        W98312   9.703   7.616  11.898
25998W        W98313   9.257  41.808   3.129
25999W        W98314   7.219  40.949   3.705
26000W        W98315   7.191  41.003  12.967
26001W        W98316  21.954   5.957   1.615
26002W        W98317  17.698   0.391   2.179
26003W        W98318  11.914  40.796  14.847
26004W        W98319  22.853  39.487   3.303
26005W        W98320  15.998   5.505   3.817
26006W        W98321  18.953  20.089  12.828
26007W        W98322  20.721  36.472   3.896
26008W        W98323   7.415  29.152   4.320
26009W        W98324   9.860   5.776   4.147
26010W        W98325  31.516  34.986   1.646
26011W        W98326  38.821  37.481  10.736
26012W        W98327  26.685  21.057  12.420
26013W        W98328  44.910   0.156  14.498
26014W        W98329  22.585  36.147  13.579
26015W        W98330  23.515  37.984   1.758
26016W        W98331  17.055  34.774   4.052
26017W        W98332  41.225  28.139   0.958
26018W        W98333  42.336  31.876  13.377
26019W        W98334  17.636  14.719   4.577
26020W        W98335  20.507  37.061   2.693
26021W        W98336  28.134   8.293  11.621
26022W        W98337  39.248   2.307  11.001
26023W        W98338  15.015   4.780   3.177
26024W        W98339   5.117  40.552   1.967
26025W        W98340  10.794  28.555   2.403
26026W        W98341   8.340  29.710   2.208
26027W        W98342  37.817  16.607   0.556
26028W        W98343  40.600  17.188  12.236
26029W        W98344   0.387  42.425   2.682
26030W        W98345  37.435  25.056  14.271
26031W        W98346  38.752  36.939   0.310
26032W        W98347   4.643   9.411  11.720
26033W        W98348  14.598  28.555  12.459
26034W        W98349  36.081   1.233   0.896
26035W        W98350  31.455   7.699  11.180
26036W        W98351  37.955  32.073  14.987
26037W        W98352  32.004  28.521   2.179
26038W        W98353  15.157  21.433  13.746
26039W        W98354  31.589  12.233   1.656
26040W        W98355  38.396  33.433  13.949
26041W        W98356   0.206   4.620  13.755
26042W        W98357  43.778  22.533   2.601
26043W        W98358  13.407  40.993  14.302
26044W        W98359   0.352  26.010  10.695
26045W        W98360   7.274   6.057  11.105
26046W        W98361   7.936  21.323  10.602
26047W        W98362   8.480  33.636   2.255
26048W        W98363  38.502  13.163   0.425
26049W        W98364   9.048  17.597  14.522
26050W        W98365   3.329  21.797  14.689
26051W        W98366  29.816   5.473  13.949
26052W        W98367  24.165  32.367   2.830
26053W        W98368   7.366  30.838  14.021
26054W        W98369  20.464  34.490   4.244
26055W        W98370  14.650  14.072   0.383
26056W        W98371  34.450   1.948   0.456
26057W        W98372  25.099  11.213   4.853
26058W        W98373  36.704   2.901  11.583
26059W        W98374  14.829   5.773  12.176
26060W        W98375  26.542  24.817  10.837
26061W        W98376  25.238  19.679  13.259
26062W        W98377  31.366  33.808  14.834
26063W        W98378  15.738  17.779   3.298
26064W        W98379  37.908   0.333   2.760
26065W        W98380  16.324  27.200   2.301
26066W        W98381  14.625  21.222   3.033
26067W        W98382  16.201   6.140  14.501
26068W        W98383  11.592  33.450  11.424
26069W        W98384   8.916  22.099   1.057
26070W        W98385  14.207  14.005   5.017
26071W        W98386  22.121  27.988  14.539
26072W        W98387  20.741  36.064  14.958
26073W        W98388  30.658  43.830  10.596
26074W        W98389  28.073  42.593  14.908
26075W        W98390   3.086  39.042   9.973
26076W        W98391  44.661  43.811  12.466
26077W        W98392   6.177   2.473  13.367
26078W        W98393   6.463  14.196   3.084
26079W        W98394   9.650  15.202  14.344
26080W        W98395  21.440  34.094  12.133
26081W        W98396   4.074  31.007   4.154
26082W        W98397  29.341  27.198  11.204
26083W        W98398   2.542  13.790   1.344
26084W        W98399   8.013  34.963   3.279
26085W        W98400  42.542   7.047  12.460
26086W        W98401  26.354  33.391   2.209
26087W        W98402  35.697  38.309   4.378
26088W        W98403  39.816   2.906   3.683
26089W        W98404   0.285  22.651   2.617
26090W        W98405  13.237  40.207  10.704
26091W        W98406  37.914  26.506   4.231
26092W        W98407  40.636   8.621   3.608
26093W        W98408  41.287   7.126   0.869
26094W        W98409  22.385   9.207  14.294
26095W        W98410  25.307  26.693  13.469
26096W        W98411  36.290  12.060  14.286
26097W        W98412  38.056  29.350  14.313
26098W        W98413  33.845  42.008   1.176
26099W        W98414  34.926  19.549  13.484
26100W        W98415   1.058   9.330   1.382
26101W        W98416  20.982  38.388  10.877
26102W        W98417   7.094  39.449  11.292
26103W        W98418   4.036  34.930   3.212
26104W        W98419  14.093   2.580   1.668
26105W        W98420  25.129  23.603   4.119
26106W        W98421  21.040   2.475  11.273
26107W        W98422  11.204  12.165  14.956
26108W        W98423  14.800   6.448   3.704
26109W        W98424   8.404  12.077  14.721
26110W        W98425   2.672  23.061   4.674
26111W        W98426  21.909  31.817   1.705
26112W        W98427  12.676   6.490   2.239
26113W        W98428  18.150  38.483   1.280
26114W        W98429  43.459  10.569   5.232
26115W        W98430  26.162  18.453   1.219
26116W        W98431  19.506   7.137  11.519
26117W        W98432  22.675  35.307  14.824
26118W        W98433  11.846  20.011  11.862
26119W        W98434  27.199   3.409  12.351
26120W        W98435  23.465   7.946  13.858
26121W        W98436  12.593  22.736  13.085
26122W        W98437  38.568   7.312  12.449
26123W        W98438  16.734   1.201   0.343
26124W        W98439   2.890   2.707   1.317
26125W        W98440   2.505  15.191   1.568
26126W        W98441  43.272  30.559  14.088
26127W        W98442  17.803  24.115  14.042
26128W        W98443   1.374  40.810  11.138
26129W        W98444  24.957  20.177   4.799
26130W        W98445  36.379  39.963   4.570
26131W        W98446  16.636  32.733   1.107
26132W        W98447  39.964  30.801  14.298
26133W        W98448  36.447  21.560  11.015
26134W        W98449   6.331  29.461   2.342
26135W        W98450   1.056   6.269  12.036
26136W        W98451  28.184   6.693   0.401
26137W        W98452  14.611  42.545   3.512
26138W        W98453  13.538  14.743   4.110
26139W        W98454  16.749  17.071  13.446
26140W        W98455  29.095  26.084   4.048
26141W        W98456  12.573  27.585  12.062
26142W        W98457   0.757  34.104  14.045
26143W        W98458   4.337  26.935  11.893
26144W        W98459  37.839  13.718   1.773
26145W        W98460  12.630   4.432   1.393
26146W        W98461   0.077  41.027  12.044
26147W        W98462   3.119   4.582  11.240
26148W        W98463  32.430   6.518   0.808
26149W        W98464  17.754  39.831  12.961
26150W        W98465  23.460  17.111  12.407
26151W        W98466   2.480  43.679  12.432
26152W        W98467  14.777  14.700   9.863
26153W        W98468  17.171  27.589   0.477
26154W        W98469  28.650  35.829  14.554
26155W        W98470  12.893  27.608  11.641
26156W        W98471  37.107  10.501  11.681
26157W        W98472  16.525  39.568  13.410
26158W        W98473   9.382  34.395   0.956
26159W        W98474  19.602  41.633   2.178
26160W        W98475  37.087   9.696  12.439
26161W        W98476  37.702  12.401  10.244
26162W        W98477  23.295   6.419  12.920
26163W        W98478   1.677  23.328   2.733
26164W        W98479  42.877   3.325  11.066
26165W        W98480   4.377  31.975   4.685
26166W        W98481  41.850   8.956   2.770
26167W        W98482  37.609   0.446   3.247
26168W        W98483  13.411  21.582   3.234
26169W        W98484  17.974  10.922   2.845
26170W        W98485  35.871  22.336   0.573
26171W        W98486  10.160  43.877  10.423
26172W        W98487  43.735   9.197   3.737
26173W        W98488   2.737  12.868  10.508
26174W        W98489  36.956   3.459   4.048
26175W        W98490   4.922  36.603  13.941
26176W        W98491  38.347   9.266  11.258
26177W        W98492   3.260  36.118   3.403
26178W        W98493  24.339  40.333  10.264
26179W        W98494   5.957  19.028  11.034
26180W        W98495  25.052   0.964  13.662
26181W        W98496  21.728  25.256   0.052
26182W        W98497   8.699   0.041   3.710
26183W        W98498   4.865  23.540  11.057
26184W        W98499   9.273  10.663  13.595
26185W        W98500  12.602  37.094  10.761
26186W        W98501   8.377  24.199   3.860
26187W        W98502  36.434  16.671   2.452
26188W        W98503  18.022   3.665   0.821
26189W        W98504  31.020  28.187  14.801
26190W        W98505  17.973  26.397  12.271
26191W        W98506  15.203  18.015  12.568
26192W        W98507  30.184  22.579   3.306
26193W        W98508  15.194  28.870   0.707
26194W        W98509  28.131  29.683   4.924
26195W        W98510  24.699  36.947  10.638
26196W        W98511   2.846  25.632   0.822
26197W        W98512   7.819  33.468   3.587
26198W        W98513  31.937  24.111   0.732
26199W        W98514  24.539  20.451   1.490
26200W        W98515  36.695  26.083  13.794
26201W        W98516   7.918   4.295  12.078
26202W        W98517  44.744  29.378   2.217
26203W        W98518  29.338  42.913  14.737
26204W        W98519  44.954   0.397  14.971
26205W        W98520  30.167  39.531   2.762
26206W        W98521  10.147  29.610   3.167
26207W        W98522   9.769  28.292  12.973
26208W        W98523   1.976  13.364  10.415
26209W        W98524   6.873  31.553   1.830
26210W        W98525   9.802  28.948   4.653
26211W        W98526  11.181  23.496   3.125
26212W        W98527  35.912  40.335   3.277
26213W        W98528   2.836  41.570  13.208
26214W        W98529  33.199  32.870   3.796
26215W        W98530   5.697  34.484   0.734
26216W        W98531   6.453   0.292  13.502
26217W        W98532  20.152  44.015   2.924
26218W        W98533  20.108   3.507  13.058
26219W        W98534  24.549  31.081   2.123
26220W        W98535  17.722  15.746   4.326
26221W        W98536   5.226  19.351  12.416
26222W        W98537   8.407  13.227  11.923
26223W        W98538  21.043   4.971  14.383
26224W        W98539  22.231   0.918   1.852
26225W        W98540  19.071   7.355  14.611
26226W        W98541  22.688  23.553   4.120
26227W        W98542  31.896  32.467   3.810
26228W        W98543  10.712  38.527  10.873
26229W        W98544  34.582  42.947  11.457
26230W        W98545  17.967  30.348  12.609
26231W        W98546  10.306  23.265  11.932
26232W        W98547  13.105   9.836  10.680
26233W        W98548  11.181  33.074  13.228
26234W        W98549   0.033  15.142  14.371
26235W        W98550  30.801  34.315  10.148
26236W        W98551  24.034  42.663   0.340
26237W        W98552  28.030  22.167   3.470
26238W        W98553  13.175  32.142  11.949
26239W        W98554  15.442   3.320   5.324
26240W        W98555  34.666  28.128   2.409
26241W        W98556  33.068  11.905   3.045
26242W        W98557  28.635   7.209   0.648
26243W        W98558  42.922  24.575  13.978
26244W        W98559  38.812   6.681  11.595
26245W        W98560  24.687  32.461   0.491
26246W        W98561  37.708  10.751  13.825
26247W        W98562   3.337  15.358   1.790
26248W        W98563  34.844  33.432   2.608
26249W        W98564   0.629  38.693  12.986
26250W        W98565  35.902  43.340   3.146
26251W        W98566  15.353  36.461   1.779
26252W        W98567   6.670  19.706   4.181
26253W        W98568   4.283  31.562   3.883
26254W        W98569  11.217  27.128   3.341
26255W        W98570  26.727  18.907  14.941
26256W        W98571  43.980  19.744  13.380
26257W        W98572  28.244  10.399  11.022
26258W        W98573  23.725  25.594  10.528
26259W        W98574  38.368   8.495   4.929
26260W        W98575   8.202  26.970  12.533
26261W        W98576  10.339  19.787   3.339
26262W        W98577  22.432  11.957   2.751
26263W        W98578  20.580  29.153   0.843
26264W        W98579  25.592  12.514   0.906
26265W        W98580  28.745  19.783   5.127
26266W        W98581  33.451  36.584   1.862
26267W        W98582  11.294   5.724   4.667
26268W        W98583  25.002  43.373  12.827
26269W        W98584  33.474  21.226   0.560
26270W        W98585   6.576  15.175   1.800
26271W        W98586  18.248  42.198   0.236
26272W        W98587  40.476  42.549  11.055
26273W        W98588  14.308  14.534  12.307
26274W        W98589  32.603  23.078   0.394
26275W        W98590   2.863  28.624   3.670
26276W        W98591  16.520  15.652  13.257
26277W        W98592  19.766   9.662   2.238
26278W        W98593  25.883   8.113   4.334
26279W        W98594  41.911  31.606  13.542
26280W        W98595  38.978  33.014  12.217
26281W        W98596  29.490  43.427  13.336
26282W        W98597  26.537  27.395   0.881
26283W        W98598  24.059  36.456  10.731
26284W        W98599  39.561  20.981  12.606
26285W        W98600  36.891  26.119   2.818
26286W        W98601   1.691  20.021   1.736
26287W        W98602  36.115  15.129  10.770
26288W        W98603  36.425  40.051   3.700
26289W        W98604  31.509  28.944  10.756
26290W        W98605   0.073  39.935  13.808
26291W        W98606   8.585  44.324   2.228
26292W        W98607  17.125  41.546  14.478
26293W        W98608  33.461   3.225  13.624
26294W        W98609  38.789  14.889  11.586
26295W        W98610  15.471  20.431  14.047
26296W        W98611  39.175   2.541   0.875
26297W        W98612  32.863  22.582   3.022
26298W        W98613  21.981  11.863  13.546
26299W        W98614   7.137   0.330  11.601
26300W        W98615  21.220   6.797  13.768
26301W        W98616  27.710  32.715  10.108
26302W        W98617  36.620   7.303   4.568
26303W        W98618   5.359  38.569   1.800
26304W        W98619  21.379   2.358   4.786
26305W        W98620  20.058  22.364   2.782
26306W        W98621  33.481  25.459  12.927
26307W        W98622  11.259  37.993   2.019
26308W        W98623  32.998   6.409   3.859
26309W        W98624  14.365   0.359   1.925
26310W        W98625  24.580   6.391   1.831
26311W        W98626  16.175  21.951  10.616
26312W        W98627  33.915  31.202  12.321
26313W        W98628  41.690  33.478  11.167
26314W        W98629  42.334  10.802  11.152
26315W        W98630   3.975  22.060  10.784
26316W        W98631  40.811  22.013   3.321
26317W        W98632   9.378  10.676  12.029
26318W        W98633   5.976  26.158   3.313
26319W        W98634  22.311  37.610  12.815
26320W        W98635   4.400  35.782   0.890
26321W        W98636   4.244   7.889   2.353
26322W        W98637  33.626  35.459   3.864
26323W        W98638  21.250  25.562  12.433
26324W        W98639  40.321  32.814   0.360
26325W        W98640  36.161  26.064  13.906
26326W        W98641  12.881  24.188   4.586
26327W        W98642  27.163   1.755   1.130
26328W        W98643  28.634  10.614   1.719
26329W        W98644  21.431  29.136   1.338
26330W        W98645  44.520  36.686  13.041
26331W        W98646  21.635  23.155  12.946
26332W        W98647  37.509  40.955   4.152
26333W        W98648   0.916  21.805  14.969
26334W        W98649   7.165  25.404   4.560
26335W        W98650  44.211   9.169   3.574
26336W        W98651  22.718  26.927   4.443
26337W        W98652  29.254  11.220   4.572
26338W        W98653   5.710  27.037  11.999
26339W        W98654  37.544   5.366   3.390
26340W        W98655  31.702  20.964   3.177
26341W        W98656  15.513  24.167  13.087
26342W        W98657  29.916  35.481  14.522
26343W        W98658  34.857  37.540   0.951
26344W        W98659  28.705  13.063  13.934
26345W        W98660  39.520  19.804   2.270
26346W        W98661  14.547   6.688  13.556
26347W        W98662  31.374  12.800  14.023
26348W        W98663   5.036  32.091   3.105
26349W        W98664  28.985  44.347  13.340
26350W        W98665  44.261   5.656   1.836
26351W        W98666  13.296  21.032   3.775
26352W        W98667  17.241  22.241   3.307
26353W        W98668  22.056  22.949   3.662
26354W        W98669  38.069  30.855  10.682
26355W        W98670  27.563  32.469  13.091
26356W        W98671  35.399  26.637   0.443
26357W        W98672  24.195  39.984  14.926
26358W        W98673  14.629  38.828   1.442
26359W        W98674  40.051  12.061  11.357
26360W        W98675  26.652  26.969  11.535
26361W        W98676  20.338  17.931  12.424
26362W        W98677   8.697   1.833   0.426
26363W        W98678  27.389  32.853   0.321
26364W        W98679  40.268  17.744   2.709
26365W        W98680   3.191  30.919   1.620
26366W        W98681  43.963  24.956   3.823
26367W        W98682   8.868  39.334  12.501
26368W        W98683   1.044  41.605   2.299
26369W        W98684  13.742  27.650  13.372
26370W        W98685  35.068  10.362   0.700
26371W        W98686  13.487  10.747  10.576
26372W        W98687   7.535  13.564   3.596
26373W        W98688   0.144   6.897   1.496
26374W        W98689  27.735   7.113   4.748
26375W        W98690  29.103  30.722   1.261
26376W        W98691   8.379  13.254  12.871
26377W        W98692  24.767  14.733   0.874
26378W        W98693  20.322  42.932   0.128
26379W        W98694  22.571  41.012  14.831
26380W        W98695  22.191  29.917   3.480
26381W        W98696  31.208   5.937   4.452
26382W        W98697   1.065  21.543  14.029
26383W        W98698   7.984  14.266   4.629
26384W        W98699  35.948  12.499   0.524
26385W        W98700  12.036  27.741   4.620
26386W        W98701   4.421   9.574  13.262
26387W        W98702   1.033  11.257   4.638
26388W        W98703   0.923  17.357   1.618
26389W        W98704  21.670  24.723  11.673
26390W        W98705  28.713  31.706   0.559
26391W        W98706  15.069   2.651  14.704
26392W        W98707  15.518  12.283   0.432
26393W        W98708  38.786  42.746  10.597
26394W        W98709  20.298  30.351  14.062
26395W        W98710   2.419  26.387  11.442
26396W        W98711  20.144  12.392  14.319
26397W        W98712  10.872   8.959  14.241
26398W        W98713  16.694   5.624  10.601
26399W        W98714   3.451  21.332   4.571
26400W        W98715  36.917  18.221  13.538
26401W        W98716  29.509   5.913  13.031
26402W        W98717  22.978  23.125  10.525
26403W        W98718  38.534  32.816  14.058
26404W        W98719   8.302  29.225   4.682
26405W        W98720  38.246  17.065   2.369
26406W        W98721  24.895  42.736   1.213
26407W        W98722   3.625   7.594  14.897
26408W        W98723   2.018  10.279   2.319
26409W        W98724   0.197  11.859  14.043
26410W        W98725  43.281  13.564  12.884
26411W        W98726  16.614  32.122   1.934
26412W        W98727   1.425  24.986  14.524
26413W        W98728  11.263  42.478   1.116
26414W        W98729  40.377  15.326   0.848
26415W        W98730  15.166   6.686  12.562
26416W        W98731   9.401  17.743  11.604
26417W        W98732  35.386   5.930   0.970
26418W        W98733  15.911  10.852  11.110
26419W        W98734   3.253  32.285   1.583
26420W        W98735   0.522  36.899   3.291
26421W        W98736  31.976   0.522  11.172
26422W        W98737   7.666  41.284   1.328
26423W        W98738  29.288   4.663  11.171
26424W        W98739  44.936  28.591   1.739
26425W        W98740   4.955  27.653  11.850
26426W        W98741  30.115   5.057  13.838
26427W        W98742  26.214   0.260  13.749
26428W        W98743   2.631  36.239   0.517
26429W        W98744   8.678  38.946   3.890
26430W        W98745  24.557  27.661  14.398
26431W        W98746  33.758  18.561   4.491
26432W        W98747  11.906  38.901  11.536
26433W        W98748  19.006  16.374  12.996
26434W        W98749  29.203  41.856   4.608
26435W        W98750  19.671  12.674   1.358
26436W        W98751  41.528  44.484   1.262
26437W        W98752  21.692  41.978  13.503
26438W        W98753   0.736  43.368  11.604
26439W        W98754  32.887  37.890   3.092
26440W        W98755  26.204   9.276  12.757
26441W        W98756  22.179   5.861   0.881
26442W        W98757   9.372  33.769  12.436
26443W        W98758  15.373  29.149  14.718
26444W        W98759   6.920  20.750   0.348
26445W        W98760  31.737  17.512  13.780
26446W        W98761  24.793   9.281   4.536
26447W        W98762  22.062  20.530   0.277
26448W        W98763  37.323  19.680  14.312
26449W        W98764  12.157  12.659  12.073
26450W        W98765  26.716   6.676   3.759
26451W        W98766  41.388  19.300   1.890
26452W        W98767  37.332  11.743  11.567
26453W        W98768   1.946  43.405   0.968
26454W        W98769   1.276  10.115  10.320
26455W        W98770  33.369  25.414  14.336
26456W        W98771  25.545  43.592   2.194
26457W        W98772  18.071   4.342   1.363
26458W        W98773  38.817   2.315   1.807
26459W        W98774   1.813  10.228   3.212
26460W        W98775  27.711  18.441   1.138
26461W        W98776  28.358  15.672  12.650
26462W        W98777  17.405  36.049   4.275
26463W        W98778  18.435  36.108   3.882
26464W        W98779  13.082  32.975  12.798
26465W        W98780  25.777  44.273  11.154
26466W        W98781   6.903  31.959  14.303
26467W        W98782  24.504  16.868   4.605
26468W        W98783   0.456  33.654   2.908
26469W        W98784  11.179  14.153  11.477
26470W        W98785   7.826  16.837   4.300
26471W        W98786  29.994  20.460   4.271
26472W        W98787  25.205   7.674   0.780
26473W        W98788  33.309   5.668   1.505
26474W        W98789  43.130  18.331   2.350
26475W        W98790  24.268  39.406   4.133
26476W        W98791  24.250  13.707  11.224
26477W        W98792   1.888  19.151   1.213
26478W        W98793   9.795  44.302   2.705
26479W        W98794  37.364   3.642   3.151
26480W        W98795  23.332  23.501   3.307
26481W        W98796  32.915  18.625   0.889
26482W        W98797  14.541  30.333   1.705
26483W        W98798   6.355   5.137   4.781
26484W        W98799  36.865  19.117  14.436
26485W        W98800  38.824  35.739   4.057
26486W        W98801   4.467  24.076  14.330
26487W        W98802  33.002  41.135   3.619
26488W        W98803  33.493  19.195  12.652
26489W        W98804  24.697  30.067   2.329
26490W        W98805  17.137   2.344   0.817
26491W        W98806  37.092   1.566  13.637
26492W        W98807  18.108   2.941   2.528
26493W        W98808  34.878  32.903   0.926
26494W        W98809   4.215  39.332  13.327
26495W        W98810  31.553   3.406  13.935
26496W        W98811   0.091  32.280   3.684
26497W        W98812  44.295   6.881   4.585
26498W        W98813   0.893  13.354  14.049
26499W        W98814  38.571  10.860   3.807
26500W        W98815  40.340  12.115   3.712
26501W        W98816   1.013  43.298  11.124
26502W        W98817  36.200  15.757  13.470
26503W        W98818  43.904  28.691   1.729
26504W        W98819  29.647  20.804   1.582
26505W        W98820   3.166  42.335  12.037
26506W        W98821  30.015   0.826   2.289
26507W        W98822  36.981  44.423  14.741
26508W        W98823  17.173  30.993  13.597
26509W        W98824  40.891  38.480   4.828
26510W        W98825  30.925  29.943   1.005
26511W        W98826  40.349  36.291   2.712
26512W        W98827   2.183  18.098  12.385
26513W        W98828  39.112  22.150   2.414
26514W        W98829  25.247   4.181  14.811
26515W        W98830  24.047  31.759  13.913
26516W        W98831  28.025  39.514   0.243
26517W        W98832  19.536  40.317   2.011
26518W        W98833  10.898   2.821  12.074
26519W        W98834  35.001  30.538  13.446
26520W        W98835  21.301  11.297  13.586
26521W        W98836  21.212  40.132  11.550
26522W        W98837   3.361  41.605   0.385
26523W        W98838  30.847  26.597  13.073
26524W        W98839  21.052   9.692  12.128
26525W        W98840  37.337   7.653   2.304
26526W        W98841   5.468  35.402   1.437
26527W        W98842  42.939  26.128   3.827
26528W        W98843  35.892   3.929  12.214
26529W        W98844  28.232   9.914  12.929
26530W        W98845  10.820  34.514  14.048
26531W        W98846  38.844  36.380  11.686
26532W        W98847  22.866  23.039  14.403
26533W        W98848   1.251   1.280  11.616
26534W        W98849  18.175  11.622  13.147
26535W        W98850  37.576   5.906  13.321
26536W        W98851   5.256  43.937   4.509
26537W        W98852   3.741  30.039  10.745
26538W        W98853  27.718   6.992  14.854
26539W        W98854  11.292  23.681  14.900
26540W        W98855  28.997   5.971   1.131
26541W        W98856  35.003  14.301   5.210
26542W        W98857  20.074  43.066   1.728
26543W        W98858   9.815  15.675  14.145
26544W        W98859   1.411  34.539   0.834
26545W        W98860  35.477  38.945   1.272
26546W        W98861  12.093  30.375  10.547
26547W        W98862  29.608   9.858   3.491
26548W        W98863  38.106  35.397   0.398
26549W        W98864   6.820   7.724   1.643
26550W        W98865   0.014   7.883  13.305
26551W        W98866  14.303  21.722  10.749
26552W        W98867  26.870  36.847  14.284
26553W        W98868  11.961   5.377   0.410
26554W        W98869   5.026  16.606   3.703
26555W        W98870  20.266  23.729  10.609
26556W        W98871  40.677   9.841   1.859
26557W        W98872  24.066  38.947   0.062
26558W        W98873  31.943  31.378  11.613
26559W        W98874  19.239  37.290   3.726
26560W        W98875  25.185  15.843   2.192
26561W        W98876  39.082   6.312   4.578
26562W        W98877  33.939  33.410   2.725
26563W        W98878  41.140  37.328   4.571
26564W        W98879  20.352  28.257   9.884
26565W        W98880  39.682   4.294   1.179
26566W        W98881  26.818   2.942  11.646
26567W        W98882  35.619   5.831  14.342
26568W        W98883  10.215  14.574   3.659
26569W        W98884  35.810  40.314   1.078
26570W        W98885  20.121  41.961   3.062
26571W        W98886  27.638  25.806  14.017
26572W        W98887  31.107  20.037  12.821
26573W        W98888  27.723  40.146   9.976
26574W        W98889  17.513  36.311  10.645
26575W        W98890  12.838  29.551  14.344
26576W        W98891  40.793  29.084  12.826
26577W        W98892  41.388  41.705   4.159
26578W        W98893  33.565  43.043  10.042
26579W        W98894  22.060  13.889  11.730
26580W        W98895  27.225  35.766  10.968
26581W        W98896  39.771  41.461  12.799
26582W        W98897  23.141   1.164  14.453
26583W        W98898  44.301  40.172   0.774
26584W        W98899  39.561  23.492   4.370
26585W        W98900  34.179  20.691   4.673
26586W        W98901  40.511  39.806   2.922
26587W        W98902  11.731  36.875   2.600
26588W        W98903  19.312  44.781  14.008
26589W        W98904  37.527   5.891  10.723
26590W        W98905  14.805   7.261   1.310
26591W        W98906  41.197   5.626  11.082
26592W        W98907  34.938  35.990   2.355
26593W        W98908  25.769   5.435   2.849
26594W        W98909  11.791  10.311  10.199
26595W        W98910  16.812  30.449  11.973
26596W        W98911   3.146  40.926  10.984
26597W        W98912  14.646  28.213  12.089
26598W        W98913  37.332  38.529  12.897
26599W        W98914  11.257  39.302  14.735
26600W        W98915  34.627  32.960  12.605
26601W        W98916  44.086  10.068  10.780
26602W        W98917   8.893  34.067  11.068
26603W        W98918  15.839  29.094   5.092
26604W        W98919  15.548  37.442  12.619
26605W        W98920  36.407  26.571   0.017
26606W        W98921  14.818  37.711  12.159
26607W        W98922  18.198  33.582   2.855
26608W        W98923  10.878  43.489  12.461
26609W        W98924  27.503   5.165  14.996
26610W        W98925   2.569  19.776  11.679
26611W        W98926  41.939  28.662  14.888
26612W        W98927   2.895  10.262  11.553
26613W        W98928  38.595  18.710   4.461
26614W        W98929  27.241   6.867   3.678
26615W        W98930  27.429  25.048   2.952
26616W        W98931   9.738  39.591   1.007
26617W        W98932  26.586  42.978  11.766
26618W        W98933   2.222  12.881   0.918
26619W        W98934  28.449  22.676  14.542
26620W        W98935  15.070  14.422  11.169
26621W        W98936   7.461   3.924  14.530
26622W        W98937  27.432  18.089  12.477
26623W        W98938   1.469   7.414  14.070
26624W        W98939   0.912  22.592   4.584
26625W        W98940  36.341  25.578  14.845
26626W        W98941  43.316  31.266  12.500
26627W        W98942  33.800   2.472  11.070
26628W        W98943  40.260  11.606  14.743
26629W        W98944  42.363  37.932   1.123
26630W        W98945  13.433  15.974  10.206
26631W        W98946   3.597  11.204   2.689
26632W        W98947  16.882  15.215   1.911
26633W        W98948  32.427   7.312   1.500
26634W        W98949   1.387  26.466  12.106
26635W        W98950  11.326  43.428  12.158
26636W        W98951  36.304  15.933   2.817
26637W        W98952  32.800   5.741  12.115
26638W        W98953  13.404  12.859  10.736
26639W        W98954   6.560  13.738   3.315
26640W        W98955  28.009  37.126  12.928
26641W        W98956   8.742  24.757   2.112
26642W        W98957  21.048  35.978  11.651
26643W        W98958  26.577  27.345   1.724
26644W        W98959  29.659  32.870   2.383
26645W        W98960  14.798  24.699  12.895
26646W        W98961  26.687  43.724   0.384
26647W        W98962  34.474  24.721  13.033
26648W        W98963  26.015  28.952  12.598
26649W        W98964  41.305  15.109   5.088
26650W        W98965  25.373  24.870  10.223
26651W        W98966  28.514  10.381   9.969
26652W        W98967  10.683   1.747  13.115
26653W        W98968  36.148   8.742   1.478
26654W        W98969  28.595  20.626   0.543
26655W        W98970   6.827  22.892  13.092
26656W        W98971  27.011  19.126  13.460
26657W        W98972  10.148   8.795   4.554
26658W        W98973  10.581  41.390  11.375
26659W        W98974  42.384  18.987  13.541
26660W        W98975  33.859   3.461  13.387
26661W        W98976  24.429  38.388   2.657
26662W        W98977  35.907  43.135   0.220
26663W        W98978  12.654  25.027  14.144
26664W        W98979   3.417   3.423  13.136
26665W        W98980  37.042  25.556  11.159
26666W        W98981  28.946   5.222   2.163
26667W        W98982  34.310  19.078   2.763
26668W        W98983  20.506  21.181  14.875
26669W        W98984  33.399   0.711  11.118
26670W        W98985  42.959  32.828  11.941
26671W        W98986  14.332  43.610  14.912
26672W        W98987  29.064  13.861  13.708
26673W        W98988  41.804  11.574   5.007
26674W        W98989  36.431  26.389  10.976
26675W        W98990  13.372  44.284  14.324
26676W        W98991  32.955  20.380  13.449
26677W        W98992  41.823  38.242  14.441
26678W        W98993  25.530  37.425  11.615
26679W        W98994   4.184  10.396   2.888
26680W        W98995  44.287   9.700   0.322
26681W        W98996  19.778  25.822  14.511
26682W        W98997  43.050  31.567   4.134
26683W        W98998   3.255  24.582  13.405
26684W        W98999  36.119  11.775  13.409
26685W        W99000  36.163  29.636   3.139
26686W        W99001  29.591  12.768  11.458
26687W        W99002  34.309  24.671  14.935
26688W        W99003  28.240  42.868  10.708
26689W        W99004  31.533  16.305   1.962
26690W        W99005  11.595  21.737   0.824
26691W        W99006  36.839  43.872   2.742
26692W        W99007  38.521  22.852   9.985
26693W        W99008  20.673  34.478  10.952
26694W        W99009  43.403  21.756  12.473
26695W        W99010  13.873   8.019  11.146
26696W        W99011   5.188  14.049  12.220
26697W        W99012  28.513  24.748   1.818
26698W        W99013  20.081  14.087  12.987
26699W        W99014   2.280  19.669   2.220
26700W        W99015   0.983  43.009   0.148
26701W        W99016  19.132  24.896  13.806
26702W        W99017  31.664  12.747   3.862
26703W        W99018  23.280  26.685  13.433
26704W        W99019  34.215  10.649  14.387
26705W        W99020  36.088  33.184  11.914
26706W        W99021  10.741  44.826   1.674
26707W        W99022  26.130   4.330  11.118
26708W        W99023   6.023  29.914  14.814
26709W        W99024   8.356  29.717   0.806
26710W        W99025  18.521  37.331  10.621
26711W        W99026   1.056  44.459   0.348
26712W        W99027  43.512  29.144  13.810
26713W        W99028  41.479   4.243  11.945
26714W        W99029  38.478  26.227  12.431
26715W        W99030  22.988   6.889   3.750
26716W        W99031  12.465  29.018  12.432
26717W        W99032  36.122   6.405  11.633
26718W        W99033   6.693  37.342  10.405
26719W        W99034  44.429  44.000   4.109
26720W        W99035   3.409  29.174   1.179
26721W        W99036   0.494  37.355   1.332
26722W        W99037   4.095  42.600  13.771
26723W        W99038  41.226  18.516   4.584
26724W        W99039  13.578   0.816   3.288
26725W        W99040   6.425  30.795   5.050
26726W        W99041   3.485   8.879  11.448
26727W        W99042  21.153  35.999   2.438
26728W        W99043   3.383  43.433   3.770
26729W        W99044  44.716  34.474  14.804
26730W        W99045  24.863  19.285   3.587
26731W        W99046  33.617  14.301   1.044
26732W        W99047  36.818  17.709  13.352
26733W        W99048   7.300  24.216  13.870
26734W        W99049  17.805   1.366  12.887
26735W        W99050  22.520  43.353  12.515
26736W        W99051  31.985  13.109   1.423
26737W        W99052  27.030   4.282   1.164
26738W        W99053  23.812  34.587  13.023
26739W        W99054  20.242  21.745  14.070
26740W        W99055  37.599  15.269  11.230
26741W        W99056  38.719  38.438  11.631
26742W        W99057  25.189  32.429   0.342
26743W        W99058  29.676  14.647   0.091
26744W        W99059   6.794  42.436   2.468
26745W        W99060  39.498   6.600   3.348
26746W        W99061   0.986  33.633  14.138
26747W        W99062  16.787  40.606   2.219
26748W        W99063  22.629  30.566   3.950
26749W        W99064  32.186   8.829   1.387
26750W        W99065  24.294  26.592   4.757
26751W        W99066  37.288  34.900   0.739
26752W        W99067  26.108  13.248   2.809
26753W        W99068  41.720  10.320   0.980
26754W        W99069  16.776  23.745  12.550
26755W        W99070  34.102   6.270  11.996
26756W        W99071  20.546  18.099  12.859
26757W        W99072  28.204  34.179   3.157
26758W        W99073  35.362  22.507  12.429
26759W        W99074  42.082  35.027   4.026
26760W        W99075   3.276  14.740   3.073
26761W        W99076   8.598  28.946   0.387
26762W        W99077  30.683   8.659  10.846
26763W        W99078  29.882  29.371   0.867
26764W        W99079   7.110  22.976  12.452
26765W        W99080  43.090  31.006   0.925
26766W        W99081   8.820  26.087  13.371
26767W        W99082   7.096  14.209  13.370
26768W        W99083  14.697   2.223   3.348
26769W        W99084  31.049   9.084  13.365
26770W        W99085   3.670  39.041   2.191
26771W        W99086  40.755  21.290   4.000
26772W        W99087  33.611  16.830  10.416
26773W        W99088  22.078  11.780   2.415
26774W        W99089  21.573  14.512  14.898
26775W        W99090   0.881  32.171  13.431
26776W        W99091  10.430  43.714  12.602
26777W        W99092  23.271  21.526  10.315
26778W        W99093  16.243  35.890  14.837
26779W        W99094  39.972  39.675  13.915
26780W        W99095  33.147  34.021   1.871
26781W        W99096   3.010   0.221   3.296
26782W        W99097  40.027  15.346  11.919
26783W        W99098  11.598  18.675  11.968
26784W        W99099  32.087   6.663  11.283
26785W        W99100  39.334  19.481  13.253
26786W        W99101  35.881  35.578  11.704
26787W        W99102   9.794  23.036   1.318
26788W        W99103   9.260  43.757   4.742
26789W        W99104  40.474  24.963   0.723
26790W        W99105  23.120  38.902  11.205
26791W        W99106   3.916  39.290  12.764
26792W        W99107  30.077  33.319  11.371
26793W        W99108  22.532  40.675   2.187
26794W        W99109  32.799  42.551   5.364
26795W        W99110  43.222  13.110  11.249
26796W        W99111  27.755  19.731  14.320
26797W        W99112  18.231  40.277   3.572
26798W        W99113  18.013  41.856   4.733
26799W        W99114  30.496  36.675  11.500
26800W        W99115  19.018  21.577  12.053
26801W        W99116  32.134   0.196   3.830
26802W        W99117  27.316  34.104   2.873
26803W        W99118  44.523  36.008  10.217
26804W        W99119   5.028  30.484  10.906
26805W        W99120  19.182  15.182   2.724
26806W        W99121   2.339  37.560  10.186
26807W        W99122   6.324   2.860  10.663
26808W        W99123  38.223  44.189  14.342
26809W        W99124   9.245   7.756   4.849
26810W        W99125  17.468  43.123   5.117
26811W        W99126  43.230  12.743  12.495
26812W        W99127   4.854  29.027  13.146
26813W        W99128  35.455   0.512  14.335
26814W        W99129  41.917   9.237  10.589
26815W        W99130  13.341  22.493  12.367
26816W        W99131  12.145  24.684   0.218
26817W        W99132   7.784   8.311   3.095
26818W        W99133  23.079   3.289  14.511
26819W        W99134  30.725  30.887  14.409
26820W        W99135  43.420   2.667  12.533
26821W        W99136  13.121  38.642  13.934
26822W        W99137   6.730  25.033  11.961
26823W        W99138  25.538  10.074  13.275
26824W        W99139  24.622  21.033  12.879
26825W        W99140   5.321  23.014   3.906
26826W        W99141  17.347  11.384  13.487
26827W        W99142  11.180  34.514   2.663
26828W        W99143  27.112  18.963   4.861
26829W        W99144   4.641  15.204  12.897
26830W        W99145  31.748   9.808  14.466
26831W        W99146  27.912  24.946  13.922
26832W        W99147  33.342  31.196   2.413
26833W        W99148  35.476  30.239  12.284
26834W        W99149  17.050  30.168  10.224
26835W        W99150  37.067  28.929  14.446
26836W        W99151   8.943   2.495  11.570
26837W        W99152  34.920  35.778  11.056
26838W        W99153   8.187  37.700  13.833
26839W        W99154  34.074  16.094   1.845
26840W        W99155   5.699   4.777   3.252
26841W        W99156   2.012   9.254  12.434
26842W        W99157  36.617  35.597   0.834
26843W        W99158   1.273   5.959   3.347
26844W        W99159  24.775   5.365  10.834
26845W        W99160  16.378  19.578  14.750
26846W        W99161   5.252  36.996  13.969
26847W        W99162  16.134  31.606   0.701
26848W        W99163  10.848   1.313  12.077
26849W        W99164  19.834  21.622  14.444
26850W        W99165  23.745  31.058  13.736
26851W        W99166  30.803  44.914  13.218
26852W        W99167  36.568  19.928  11.480
26853W        W99168  28.676   0.257  11.564
26854W        W99169  41.126  44.735  12.110
26855W        W99170  29.519  42.364   3.805
26856W        W99171  25.145   1.395  14.318
26857W        W99172   0.638  42.854   1.659
26858W        W99173  11.165  21.334  10.054
26859W        W99174  26.210   2.337  13.445
26860W        W99175   7.887  12.549  10.822
26861W        W99176  22.961   4.417   0.908
26862W        W99177  30.988  17.679   3.933
26863W        W99178   8.352  20.650  12.602
26864W        W99179  33.649  20.608  14.889
26865W        W99180  11.334  14.335   1.938
26866W        W99181  12.772   5.394   1.555
26867W        W99182  12.618   6.729  10.526
26868W        W99183  34.920  32.372   1.699
26869W        W99184  29.592  27.154   2.615
26870W        W99185   5.723   8.164  14.492
26871W        W99186  29.973   7.916   2.724
26872W        W99187  20.782  19.667  14.896
26873W        W99188   7.230   5.254   3.670
26874W        W99189  41.345  27.912  13.832
26875W        W99190  29.857  27.979  11.619
26876W        W99191   5.387   9.209   1.082
26877W        W99192  34.621  12.011  12.506
26878W        W99193  16.005  37.352   4.251
26879W        W99194  12.910   9.718   2.758
26880W        W99195  29.433  23.646  12.828
26881W        W99196  30.027  33.963  13.391
26882W        W99197  22.009   2.612  11.103
26883W        W99198  13.738  38.976   2.052
26884W        W99199  40.055  33.033  14.563
26885W        W99200  29.464  36.826  13.751
26886W        W99201   7.340  22.144   2.490
26887W        W99202  18.624  44.904  14.918
26888W        W99203  21.062  27.593   3.687
26889W        W99204  25.286   3.361   0.463
26890W        W99205   3.452  20.575  13.055
26891W        W99206   4.722   1.410   4.135
26892W        W99207  23.169  11.277  13.329
26893W        W99208  26.522   2.361   0.824
26894W        W99209  33.009   7.442  12.155
26895W        W99210   6.291  43.153   2.621
26896W        W99211  39.325  39.477  14.350
26897W        W99212  35.918  36.024  13.990
26898W        W99213   2.254  26.110   3.770
26899W        W99214  10.681  43.274   2.139
26900W        W99215  42.338  13.792   2.684
26901W        W99216  13.054  33.520  14.034
26902W        W99217  34.772  10.843   2.870
26903W        W99218  28.486   4.869   3.171
26904W        W99219  18.840  20.643  12.358
26905W        W99220  31.160   0.649  12.691
26906W        W99221  42.770  17.863  11.663
26907W        W99222  20.954  40.003  11.107
26908W        W99223  29.182  17.506  10.849
26909W        W99224  41.467  37.337   1.890
26910W        W99225   8.113  33.992  14.543
26911W        W99226  23.629  16.251   2.132
26912W        W99227   7.908   2.305   0.308
26913W        W99228  22.367  31.232  13.055
26914W        W99229  26.969  17.533   1.797
26915W        W99230  13.696  32.459   2.442
26916W        W99231  43.336  37.020   1.219
26917W        W99232   5.182   8.854   2.809
26918W        W99233  21.955  41.283  11.539
26919W        W99234  16.338   0.961   1.300
26920W        W99235  39.497   0.815  14.660
26921W        W99236  16.207  31.980   2.201
26922W        W99237  18.989   4.801   2.731
26923W        W99238  10.409  41.854  14.983
26924W        W99239  26.482  31.761  10.600
26925W        W99240   6.601   2.407   4.047
26926W        W99241  43.742  37.576   3.679
26927W        W99242  14.097   2.982   0.277
26928W        W99243  31.661  23.254   1.867
26929W        W99244   6.202  27.711   1.013
26930W        W99245  13.123  41.255  10.807
26931W        W99246  35.187  15.379   0.023
26932W        W99247  31.894  27.512   4.277
26933W        W99248  19.422  23.589  10.930
26934W        W99249   1.876  39.809   0.700
26935W        W99250  37.098   3.314  10.936
26936W        W99251  21.411  37.458  10.646
26937W        W99252  30.686   3.641   0.933
26938W        W99253  41.339  25.957   0.902
26939W        W99254  44.181  33.884  12.469
26940W        W99255  43.599  24.027   2.371
26941W        W99256  26.763  13.215  12.133
26942W        W99257  36.734  10.708   1.386
26943W        W99258   5.927  25.932   0.840
26944W        W99259   8.365  38.963  10.714
26945W        W99260  25.503  35.048   4.065
26946W        W99261  13.239  31.457  10.719
26947W        W99262  13.314  36.626  12.429
26948W        W99263  23.480   3.342  14.870
26949W        W99264  12.780  27.209   0.363
26950W        W99265  31.348  12.236   0.702
26951W        W99266  43.429  15.216  12.077
26952W        W99267  17.756  21.073   3.091
26953W        W99268  12.634  30.837  11.545
26954W        W99269  16.108   1.812  12.849
26955W        W99270  17.498  28.165  11.733
26956W        W99271   2.419  42.157  12.640
26957W        W99272  37.759  17.219  13.935
26958W        W99273  14.602   8.902  12.362
26959W        W99274  39.582  23.080  10.980
26960W        W99275  23.749  33.111   4.889
26961W        W99276   6.604   0.308  10.587
26962W        W99277  33.588   4.386   0.329
26963W        W99278  15.500  17.331  12.142
26964W        W99279  13.100  35.482   5.188
26965W        W99280   0.288  41.128   0.606
26966W        W99281  38.302  29.215   1.303
26967W        W99282  27.269   6.226   4.530
26968W        W99283   6.844  37.052  11.035
26969W        W99284  11.065   5.472   3.799
26970W        W99285  34.485   4.037   2.405
26971W        W99286  37.131  13.785   3.693
26972W        W99287  26.191  24.775   2.669
26973W        W99288  12.520  10.081  11.860
26974W        W99289  23.193  15.281   3.277
26975W        W99290  30.064  17.745  12.394
26976W        W99291  42.849  24.918  11.480
26977W        W99292   6.417  10.293  11.593
26978W        W99293  34.918   3.219  11.483
26979W        W99294  29.863  17.168  13.011
26980W        W99295   2.189  39.382  13.010
26981W        W99296  29.162  30.591  11.037
26982W        W99297  20.791  41.916  12.069
26983W        W99298   7.836  42.788  12.937
26984W        W99299   9.662  42.575   3.401
26985W        W99300  39.244  14.204  11.199
26986W        W99301  34.706  43.421   4.717
26987W        W99302   4.920   2.447  10.787
26988W        W99303  32.822  34.346  12.882
26989W        W99304   7.215  41.742  13.379
26990W        W99305  22.166  21.272   0.769
26991W        W99306  12.829  26.506   3.701
26992W        W99307  43.872  33.836  10.760
26993W        W99308   1.176  32.538   1.816
26994W        W99309   7.399  32.187  11.638
26995W        W99310   5.678  43.752  14.758
26996W        W99311  43.953  34.441  14.373
26997W        W99312   7.347  28.141  14.322
26998W        W99313  16.738  13.701  11.738
26999W        W99314  30.259  12.249   1.717
27000W        W99315  13.666  13.588   1.243
27001W        W99316  40.038   1.965   4.113
27002W        W99317   5.130  24.401   2.323
27003W        W99318  42.578  22.076  14.782
27004W        W99319  12.344  21.175   4.285
27005W        W99320  43.009  37.944  13.428
27006W        W99321  24.445  36.351  13.040
27007W        W99322   2.927  42.405   0.901
27008W        W99323  27.922  34.569   0.797
27009W        W99324  16.671  38.046  14.466
27010W        W99325  28.020  41.219  10.791
27011W        W99326  41.524  33.765  14.893
27012W        W99327  22.035  25.271   2.753
27013W        W99328  23.471  17.703  13.025
27014W        W99329  16.055  38.094  12.374
27015W        W99330  30.180  23.070  13.537
27016W        W99331  34.889  21.455   0.953
27017W        W99332   7.962  10.792  11.740
27018W        W99333  29.571   7.752  13.327
27019W        W99334  40.435  17.040  10.273
27020W        W99335  18.522   8.715   0.915
27021W        W99336  43.954  31.183   0.723
27022W        W99337   6.212  30.870   1.830
27023W        W99338  44.900  12.447  11.521
27024W        W99339   9.195   0.266   0.873
27025W        W99340  28.049  43.336  13.375
27026W        W99341  41.856  21.533  11.169
27027W        W99342  12.586  20.575  11.157
27028W        W99343   6.915  14.090  10.846
27029W        W99344  31.166  11.227  11.446
27030W        W99345  40.241  18.217  10.686
27031W        W99346  38.523  42.411   0.125
27032W        W99347  34.588   2.508   3.163
27033W        W99348  28.481  27.053  12.337
27034W        W99349  39.863  23.822  12.593
27035W        W99350  31.925  43.596   4.887
27036W        W99351  31.940  28.212   3.571
27037W        W99352  18.005  32.232   4.286
27038W        W99353  10.354   2.286   0.853
27039W        W99354  39.624  24.227   4.028
27040W        W99355  19.444  36.433   5.022
27041W        W99356  26.113  29.914  13.559
27042W        W99357  39.322  16.176  14.827
27043W        W99358  31.345  14.736  11.126
27044W        W99359  22.207  15.199  13.425
27045W        W99360  35.648  44.488   4.428
27046W        W99361   4.869  43.167  12.170
27047W        W99362  38.349  27.198   2.751
27048W        W99363  10.262  14.659   4.575
27049W        W99364  17.193  35.118   1.780
27050W        W99365   9.672  24.028  12.155
27051W        W99366  36.587   6.688   0.294
27052W        W99367  19.614  10.328  14.301
27053W        W99368  15.790  41.125   2.750
27054W        W99369  25.696   5.151  10.600
27055W        W99370  38.075  32.939  12.081
27056W        W99371  25.211  16.967   1.385
27057W        W99372  18.783   6.948   4.636
27058W        W99373   3.210  42.519   4.111
27059W        W99374   9.218  35.964   2.796
27060W        W99375  23.078  28.630  14.946
27061W        W99376  34.097  42.468  14.034
27062W        W99377  32.075  30.370   1.558
27063W        W99378  34.429  32.969  11.170
27064W        W99379   5.719  21.778  13.930
27065W        W99380  10.125  15.872   0.422
27066W        W99381  37.573  20.066  12.606
27067W        W99382   6.704  35.588  11.055
27068W        W99383  29.672  20.206   2.832
27069W        W99384  12.151  29.545   0.357
27070W        W99385  18.629  37.135  14.832
27071W        W99386  26.533  15.195   0.788
27072W        W99387   9.423   1.838  11.678
27073W        W99388  13.334  41.427   1.255
27074W        W99389  17.006  13.606   1.863
27075W        W99390   5.785   8.661   2.253
27076W        W99391  22.260  17.635  14.045
27077W        W99392  10.724  20.880  12.605
27078W        W99393  14.087  44.386   2.645
27079W        W99394  43.783  12.102   0.337
27080W        W99395  26.314   3.326   5.135
27081W        W99396   1.858  44.551  14.964
27082W        W99397  10.616  31.871   3.231
27083W        W99398  39.438  35.471  11.141
27084W        W99399   2.676  40.130  12.499
27085W        W99400  19.774  10.590   0.468
27086W        W99401   9.321  37.660  11.161
27087W        W99402  32.695   3.174   0.918
27088W        W99403   9.391  19.849  14.816
27089W        W99404  30.434  25.165  13.786
27090W        W99405  31.128  18.142   3.100
27091W        W99406  39.810  39.030  14.738
27092W        W99407  15.880  20.918  14.822
27093W        W99408  38.619  27.086  11.974
27094W        W99409   3.905  20.782  11.939
27095W        W99410   7.417  36.152  12.529
27096W        W99411  43.512  39.815  12.884
27097W        W99412   0.446   5.758   1.654
27098W        W99413   8.034  32.872   2.343
27099W        W99414  13.813  40.075  13.997
27100W        W99415  34.866  20.543  14.478
27101W        W99416  22.629   6.903  13.000
27102W        W99417   2.462   8.779  14.336
27103W        W99418  34.544  31.173  13.819
27104W        W99419  44.832  28.769  10.645
27105W        W99420  28.018  26.166   1.122
27106W        W99421  25.029  33.907  12.323
27107W        W99422  16.805   2.823  11.063
27108W        W99423  24.273  40.527  14.520
27109W        W99424  22.242  17.905   0.805
27110W        W99425  39.054  13.743  11.108
27111W        W99426  38.795   0.917   4.785
27112W        W99427  14.952  15.158   4.685
27113W        W99428   3.590  20.777   1.450
27114W        W99429  21.282  25.992  11.190
27115W        W99430  30.019  41.755  10.928
27116W        W99431  36.784  28.687  13.899
27117W        W99432  42.405  30.116   1.031
27118W        W99433   1.199  41.666   2.780
27119W        W99434   4.636   8.657  12.858
27120W        W99435  17.633  17.664  12.424
27121W        W99436  32.539  28.069  11.640
27122W        W99437  38.831  11.835  13.454
27123W        W99438  44.721  33.639  11.733
27124W        W99439   1.413  37.230   0.375
27125W        W99440  25.257   0.326  10.249
27126W        W99441   8.695  18.075  13.521
27127W        W99442  12.056  10.782   2.800
27128W        W99443   2.808  10.669  14.269
27129W        W99444  22.017  19.803  12.974
27130W        W99445  26.471  16.360   1.477
27131W        W99446  23.305  25.675   1.608
27132W        W99447  38.372  12.924   0.862
27133W        W99448  12.902   3.490   5.025
27134W        W99449   1.356  34.088  14.994
27135W        W99450  35.051  17.209  11.275
27136W        W99451   8.403  32.655   1.713
27137W        W99452  13.744  27.492  11.391
27138W        W99453  15.762  28.672   1.857
27139W        W99454  14.381  26.877  12.872
27140W        W99455  21.227  31.434   0.674
27141W        W99456  31.721   3.724  11.906
27142W        W99457  39.205  37.054  12.417
27143W        W99458  42.895  27.770   1.759
27144W        W99459   9.256  16.202  12.650
27145W        W99460   9.203  43.091   3.666
27146W        W99461  12.390  18.704  13.846
27147W        W99462  14.835  10.044   3.605
27148W        W99463  33.506  25.245   2.673
27149W        W99464  37.641  11.561  10.700
27150W        W99465   7.166  39.783  14.349
27151W        W99466   2.327  38.418   0.592
27152W        W99467   5.083  30.437  13.032
27153W        W99468  17.023  32.386  11.057
27154W        W99469  34.588   6.833  10.753
27155W        W99470  27.055   5.971  14.237
27156W        W99471  24.599  39.193  13.418
27157W        W99472   6.784  20.057   4.838
27158W        W99473  39.092  43.663  10.763
27159W        W99474   6.926   8.257  11.848
27160W        W99475  35.938  18.173   1.124
27161W        W99476  41.040   1.448  12.540
27162W        W99477   7.039  17.710   3.598
27163W        W99478  19.548  21.964   1.287
27164W        W99479  42.633  40.514   0.415
27165W        W99480  34.330   5.367  13.919
27166W        W99481  30.988  33.529   2.013
27167W        W99482   2.742  32.110  12.124
27168W        W99483  29.198  12.951  11.112
27169W        W99484  32.257  10.325   5.009
27170W        W99485  28.831  29.098   2.760
27171W        W99486  30.349   4.290   4.390
27172W        W99487  37.041  29.718   1.747
27173W        W99488   2.666  41.331  14.961
27174W        W99489   8.777  35.666   2.729
27175W        W99490  29.142  28.623   3.289
27176W        W99491   7.121  19.013  14.838
27177W        W99492  18.320  18.556   0.482
27178W        W99493  19.362  32.222   2.158
27179W        W99494  36.870  29.060   0.909
27180W        W99495  32.836  44.341  14.219
27181W        W99496  20.769  24.971   0.783
27182W        W99497   9.896  37.082   0.820
27183W        W99498  22.433   5.280   4.050
27184W        W99499   3.211  17.577  11.472
27185W        W99500  43.247   4.722   1.692
27186W        W99501  36.628  23.719  10.312
27187W        W99502  15.405  32.160   2.618
27188W        W99503  27.302  26.598  11.964
27189W        W99504  18.984   2.493  14.762
27190W        W99505  28.338  15.814   1.856
27191W        W99506  38.947  30.100   4.944
27192W        W99507  27.504  42.019   4.552
27193W        W99508   7.866  21.190  14.999
27194W        W99509  29.127  19.221  12.451
27195W        W99510  17.832  16.784   2.092
27196W        W99511  26.549   6.278  12.391
27197W        W99512  38.553  37.829   0.003
27198W        W99513  24.162   1.974  13.826
27199W        W99514  25.180  30.160   0.835
27200W        W99515   8.646  36.612   3.972
27201W        W99516   6.419  29.397  11.528
27202W        W99517   4.871  37.021   2.907
27203W        W99518  13.341  43.345  14.796
27204W        W99519  34.338  16.650   0.719
27205W        W99520  35.995  29.123  10.814
27206W        W99521   3.305   0.311  12.146
27207W        W99522  22.622  29.900  13.931
27208W        W99523   3.187   3.019   1.739
27209W        W99524   7.384  30.088   4.384
27210W        W99525  21.676  42.760   2.695
27211W        W99526   8.212  44.910   3.225
27212W        W99527  17.000  44.829  11.159
27213W        W99528  19.190  11.037  12.380
27214W        W99529  39.963  41.265   4.693
27215W        W99530   0.127  29.207   1.264
27216W        W99531   2.224   9.853   1.441
27217W        W99532  24.676  37.106  13.468
27218W        W99533  31.529   4.680  13.004
27219W        W99534   7.905  32.920  11.547
27220W        W99535  17.755  33.612   1.015
27221W        W99536   4.762  40.895  14.578
27222W        W99537  22.049   2.254  13.523
27223W        W99538  35.419   1.890   1.455
27224W        W99539   7.936   5.180   3.125
27225W        W99540  19.524  44.914  12.542
27226W        W99541  43.794  10.454  11.542
27227W        W99542   9.180  21.749   1.312
27228W        W99543  19.272  39.777   2.757
27229W        W99544   8.384  38.140  14.017
27230W        W99545  22.046  31.340  11.905
27231W        W99546   9.901   6.237  11.948
27232W        W99547   6.678  31.836  12.531
27233W        W99548  30.370   4.977  11.095
27234W        W99549  38.041  19.930   2.851
27235W        W99550  23.646   1.881  12.905
27236W        W99551   9.229   6.346   0.298
27237W        W99552  42.108  42.175  14.772
27238W        W99553  39.996   5.331  12.151
27239W        W99554  13.287  10.568   4.457
27240W        W99555   0.019   9.192  10.604
27241W        W99556  16.648  33.810  13.567
27242W        W99557  30.716  29.903   4.203
27243W        W99558  10.153  43.518  12.994
27244W        W99559  22.144  24.928  11.486
27245W        W99560  20.058   8.047   5.299
27246W        W99561  23.769  42.246  11.132
27247W        W99562  30.536  42.523  12.767
27248W        W99563  15.151   9.894  11.746
27249W        W99564  19.639  36.896  10.677
27250W        W99565   0.309   9.225   2.747
27251W        W99566  25.955  21.196   4.563
27252W        W99567  42.667  15.268   4.243
27253W        W99568  38.864   8.180  11.610
27254W        W99569  14.780   9.362   2.242
27255W        W99570  40.821  16.516   3.719
27256W        W99571  43.983  16.886   4.128
27257W        W99572  10.216  29.018  13.019
27258W        W99573  14.592  17.351  12.412
27259W        W99574  37.628   8.313  14.360
27260W        W99575   2.197   7.348   0.740
27261W        W99576  29.732   6.080   1.653
27262W        W99577   6.312   8.211   4.147
27263W        W99578  29.605  40.111   3.170
27264W        W99579  38.169  36.106  13.557
27265W        W99580   1.879  43.055  14.831
27266W        W99581   6.698   3.772  11.981
27267W        W99582  14.235   7.396   3.242
27268W        W99583  34.630   9.851   2.409
27269W        W99584  38.794  39.882   3.665
27270W        W99585   5.486  19.969  10.736
27271W        W99586   9.825  32.711  14.573
27272W        W99587  18.470   8.273  12.757
27273W        W99588  22.050  30.944   3.780
27274W        W99589  27.956   0.268  14.526
27275W        W99590  20.307  22.475   2.356
27276W        W99591  35.464  34.491   3.942
27277W        W99592   0.984  30.801  13.020
27278W        W99593   3.995  37.574  12.056
27279W        W99594  30.528  38.887  12.318
27280W        W99595  13.057  13.374   2.274
27281W        W99596  43.046  10.874   2.209
27282W        W99597  38.223  10.900  12.636
27283W        W99598  44.169  29.656  13.349
27284W        W99599  12.344  44.934  12.420
27285W        W99600  21.274  41.927   2.700
27286W        W99601  43.583  40.411   3.774
27287W        W99602  35.478  37.979   3.196
27288W        W99603  37.949   7.274   4.124
27289W        W99604  43.580  22.678  11.228
27290W        W99605   6.240  40.865   3.800
27291W        W99606  13.163  27.291  14.456
27292W        W99607   2.252  44.749   3.330
27293W        W99608  27.204  30.980  10.546
27294W        W99609  44.325   1.277  12.465
27295W        W99610  31.344   7.868  12.886
27296W        W99611  33.168  22.262   3.768
27297W        W99612  20.804   9.391  11.503
27298W        W99613  31.338  12.102  14.748
27299W        W99614  33.544  17.820   4.156
27300W        W99615  44.389   1.215  10.507
27301W        W99616  32.056  26.658   3.585
27302W        W99617  30.915  32.586  14.342
27303W        W99618  21.843  16.854  12.908
27304W        W99619   1.474  27.729   3.977
27305W        W99620   3.321  13.811   3.112
27306W        W99621  13.597  43.141  11.061
27307W        W99622  40.404  16.223   1.925
27308W        W99623  29.513  41.526   5.209
27309W        W99624  19.113  39.100  14.889
27310W        W99625  36.038  23.664   0.647
27311W        W99626  36.903  37.048  12.753
27312W        W99627  44.549  27.447  10.314
27313W        W99628   8.443  42.047  14.435
27314W        W99629  20.064  16.011   2.353
27315W        W99630  10.922  29.995  11.741
27316W        W99631  24.911  32.158   0.851
27317W        W99632  30.337  18.142   4.516
27318W        W99633  41.835  32.412   0.973
27319W        W99634   3.154  29.263  13.443
27320W        W99635  35.592  42.459   3.588
27321W        W99636   9.560  40.400   0.955
27322W        W99637  43.740   1.247   1.302
27323W        W99638  20.047  29.056  13.791
27324W        W99639   0.984  25.419   0.570
27325W        W99640   8.318  27.482  12.450
27326W        W99641   6.089  26.702  12.063
27327W        W99642  35.878  31.037  14.336
27328W        W99643  26.245   9.639   0.799
27329W        W99644  18.697   2.272  11.651
27330W        W99645  37.339   5.525   3.846
27331W        W99646  36.026  40.738  11.079
27332W        W99647   9.590   4.467  11.676
27333W        W99648  25.199   5.513  13.539
27334W        W99649  12.454  17.097  14.431
27335W        W99650  23.173  11.732  14.422
27336W        W99651  10.908  13.799   0.867
27337W        W99652  43.615  21.947  14.950
27338W        W99653  24.082   9.357  10.838
27339W        W99654  33.869  42.793  14.397
27340W        W99655  25.305  39.819  13.150
27341W        W99656   9.934   8.097  11.880
27342W        W99657  42.709  29.347  11.118
27343W        W99658   2.989  38.102   3.403
27344W        W99659  25.268   5.651   0.772
27345W        W99660  32.972  11.637   0.236
27346W        W99661  24.748  27.672  11.109
27347W        W99662  35.555   8.498   1.993
27348W        W99663  16.541  27.065   4.154
27349W        W99664  13.582  24.598   0.780
27350W        W99665  39.991   4.581  13.459
27351W        W99666  12.902  40.615  12.433
27352W        W99667  10.765  33.452   0.288
27353W        W99668   5.246  28.883  12.403
27354W        W99669  42.566  15.596  10.942
27355W        W99670  11.073  38.812  12.070
27356W        W99671   0.224  26.070   2.834
27357W        W99672  42.135   8.693  14.209
27358W        W99673  21.194  15.820  14.329
27359W        W99674  41.257  21.658  12.567
27360W        W99675  19.552  23.410  12.038
27361W        W99676  18.272  32.088   4.714
27362W        W99677   9.967  26.016   1.396
27363W        W99678  10.397   7.308  14.068
27364W        W99679  24.455  21.116   0.843
27365W        W99680  19.180  13.079  12.699
27366W        W99681   6.722  26.481  14.776
27367W        W99682  27.819  31.249  14.884
27368W        W99683  10.869  17.071  12.992
27369W        W99684  25.572  14.117  13.554
27370W        W99685   6.012  23.164   0.276
27371W        W99686  27.860  27.094   0.085
27372W        W99687  24.690  43.065   3.609
27373W        W99688  44.004  14.738   0.067
27374W        W99689  36.069   9.624  12.408
27375W        W99690  24.423  36.488   0.556
27376W        W99691   5.664  27.457  13.435
27377W        W99692  26.492  41.359   0.044
27378W        W99693  44.545  16.261   3.700
27379W        W99694   3.815  24.327   4.066
27380W        W99695  33.038  38.979  12.014
27381W        W99696  17.115  15.684   0.788
27382W        W99697  11.637  31.341  12.994
27383W        W99698   1.249  24.670  11.587
27384W        W99699  36.446  24.689  12.445
27385W        W99700  44.287   4.493  11.697
27386W        W99701  13.050  38.012  13.372
27387W        W99702   4.625   7.207  14.237
27388W        W99703  28.720  35.040   3.057
27389W        W99704  16.367  24.998  14.703
27390W        W99705   8.639  36.563  14.921
27391W        W99706  10.487   2.343   0.339
27392W        W99707  26.862  40.056  14.573
27393W        W99708  37.767  42.780   4.249
27394W        W99709  34.158  12.775   0.469
27395W        W99710  27.418  32.351   0.097
27396W        W99711  16.699   6.376   0.266
27397W        W99712  44.009  42.287  13.520
27398W        W99713  22.160  29.513  13.925
27399W        W99714  21.229  22.764   2.443
27400W        W99715  10.611  19.096  10.060
27401W        W99716  10.523   4.021  13.918
27402W        W99717   6.966   5.451   3.084
27403W        W99718  12.105   9.855   0.851
27404W        W99719  43.589  40.881  14.756
27405W        W99720  12.853  35.548   2.342
27406W        W99721  43.381  42.551   1.693
27407W        W99722  19.131  34.328  10.838
27408W        W99723  32.472  36.136   2.224
27409W        W99724   7.639   4.794  13.966
27410W        W99725  40.381  39.816  11.595
27411W        W99726  21.091  37.638  11.553
27412W        W99727  19.032  19.393   2.594
27413W        W99728  11.415  36.427  10.971
27414W        W99729  23.085   7.133  14.424
27415W        W99730   3.743   6.279  10.526
27416W        W99731  21.182  25.029  11.177
27417W        W99732  26.444  24.210   4.096
27418W        W99733  41.478   2.949   0.366
27419W        W99734   0.801   1.282  12.493
27420W        W99735  21.644   3.342  13.954
27421W        W99736  31.491  11.696  11.596
27422W        W99737   0.907  40.807  13.855
27423W        W99738  16.236  14.663  12.901
27424W        W99739  40.565  33.868   0.975
27425W        W99740  16.372  15.793   3.992
27426W        W99741  40.761  10.516  10.616
27427W        W99742  21.135  20.519  12.116
27428W        W99743  44.006  29.855   3.219
27429W        W99744   7.233  19.665  11.682
27430W        W99745  30.632  36.630  13.931
27431W        W99746  20.277  34.030   1.772
27432W        W99747   2.913   1.333  11.245
27433W        W99748  16.035  11.587   4.069
27434W        W99749  28.515  22.828  11.007
27435W        W99750   5.916  43.983   3.011
27436W        W99751   5.768  18.801   4.044
27437W        W99752   7.501  33.095   3.793
27438W        W99753  39.294  30.422  13.769
27439W        W99754   2.637   3.367  12.315
27440W        W99755  21.635  34.314   3.113
27441W        W99756  16.605  37.687   3.601
27442W        W99757  17.872  15.386  12.180
27443W        W99758  13.324   1.404   3.329
27444W        W99759  15.318  18.080  11.624
27445W        W99760  12.509  22.230  14.372
27446W        W99761  36.002  12.173   4.271
27447W        W99762  11.691  24.515  14.979
27448W        W99763  39.931  36.901   3.135
27449W        W99764  44.191  24.396  11.150
27450W        W99765  29.192  35.002   4.784
27451W        W99766  27.269  29.675  14.855
27452W        W99767  17.804  20.060  10.034
27453W        W99768  27.678   4.982  14.530
27454W        W99769  22.003  14.671   1.989
27455W        W99770  17.615  18.314  12.032
27456W        W99771  13.480   0.382  14.487
27457W        W99772   0.685  12.153  14.437
27458W        W99773  34.948  34.354  13.886
27459W        W99774   8.953  19.809   3.666
27460W        W99775  21.807  33.806  14.810
27461W        W99776   7.572  25.319   4.974
27462W        W99777  25.434  31.424   0.870
27463W        W99778  18.298  43.343   1.342
27464W        W99779  29.286  21.568  12.044
27465W        W99780  42.474   6.613  12.853
27466W        W99781   8.149   9.591   4.773
27467W        W99782  44.060  12.835   2.367
27468W        W99783  23.048  38.056  10.740
27469W        W99784  29.023  30.138  14.299
27470W        W99785   6.213  42.746   1.817
27471W        W99786  27.581  20.711   2.188
27472W        W99787  38.823  32.634   2.802
27473W        W99788  43.347  38.515   3.823
27474W        W99789   3.243   0.480  11.658
27475W        W99790  28.606   3.977   2.227
27476W        W99791  37.045  32.584   2.325
27477W        W99792   3.512  27.280  10.828
27478W        W99793  11.872  31.531  11.561
27479W        W99794  15.577  42.539   0.892
27480W        W99795  23.551  20.333   1.319
27481W        W99796   3.814   7.889   4.171
27482W        W99797  32.922  11.829   1.629
27483W        W99798  28.566   9.934   0.854
27484W        W99799  10.252  34.362   3.639
27485W        W99800  24.248  21.671   2.434
27486W        W99801   0.556  19.394   4.219
27487W        W99802  40.237  14.120   0.227
27488W        W99803   9.741  36.532  11.535
27489W        W99804  35.365  39.569  14.835
27490W        W99805   1.761  26.576   0.773
27491W        W99806  32.414  41.518  12.962
27492W        W99807   9.856  26.494   4.549
27493W        W99808  22.188  12.722   3.422
27494W        W99809  42.616  31.235  13.802
27495W        W99810   5.435  32.870  14.828
27496W        W99811  15.594  27.077  14.801
27497W        W99812  13.819  43.561   2.941
27498W        W99813   5.376  21.292  11.174
27499W        W99814  34.482  27.169  14.786
27500W        W99815  42.536  19.276   2.196
27501W        W99816  15.850   7.922   0.885
27502W        W99817  13.630  11.604  11.161
27503W        W99818  14.249  30.468   0.723
27504W        W99819  36.955  14.732  13.952
27505W        W99820  23.563  29.066  13.549
27506W        W99821  15.341   5.808  10.639
27507W        W99822  30.542  10.121   3.344
27508W        W99823  33.326  19.389   0.564
27509W        W99824  25.917  30.187   4.108
27510W        W99825   2.009  11.657  10.567
27511W        W99826  36.483  30.985   0.967
27512W        W99827  21.136  37.053   1.377
27513W        W99828  38.243   2.175  10.993
27514W        W99829  28.252  25.243  13.123
27515W        W99830  37.346  12.653  11.499
27516W        W99831  26.201  19.287   0.873
27517W        W99832   8.690  23.570  13.860
27518W        W99833   7.394  20.451  13.507
27519W        W99834  26.726  40.090   0.360
27520W        W99835  36.564  17.366  12.550
27521W        W99836  17.205   9.349  13.575
27522W        W99837  43.341   8.455  13.448
27523W        W99838  42.637   2.309   2.779
27524W        W99839   3.739  25.160  13.070
27525W        W99840   2.929  18.307  14.367
27526W        W99841  44.860  19.291   2.877
27527W        W99842  28.212  42.879  12.906
27528W        W99843  37.106  17.187  12.691
27529W        W99844  40.388  42.356  14.256
27530W        W99845   8.181  27.522  11.682
27531W        W99846  17.993  16.257   1.420
27532W        W99847   8.756  10.456  13.383
27533W        W99848  17.838   5.362   3.559
27534W        W99849  25.830   5.819  12.401
27535W        W99850   4.609  18.692  10.751
27536W        W99851  31.008  27.946   4.597
27537W        W99852  40.009  41.983   0.397
27538W        W99853  36.653  40.881   0.971
27539W        W99854  36.523  30.873  10.796
27540W        W99855  16.848  20.645  13.614
27541W        W99856  12.795  17.551  11.541
27542W        W99857   0.986   9.372  11.573
27543W        W99858  33.995  22.249  12.336
27544W        W99859  28.715  36.522   1.517
27545W        W99860  25.558  16.137  12.582
27546W        W99861   5.435  44.869  12.035
27547W        W99862  24.160  22.109   1.724
27548W        W99863  32.890  13.568  12.586
27549W        W99864  32.701   8.181   2.714
27550W        W99865  24.553  11.826  13.465
27551W        W99866  17.291   2.390  13.317
27552W        W99867  33.005  30.894   3.176
27553W        W99868   3.624   4.783   4.140
27554W        W99869  27.412  14.668   1.778
27555W        W99870  38.136  30.944  13.917
27556W        W99871   0.645   3.238  11.161
27557W        W99872  36.731  32.100   4.123
27558W        W99873  38.264  34.064  12.480
27559W        W99874  36.629   2.317   3.337
27560W        W99875  36.421   9.094   1.885
27561W        W99876   7.129  26.996  13.596
27562W        W99877  12.239  18.332   2.278
27563W        W99878  31.087  40.123   2.650
27564W        W99879  14.992  17.598  14.786
27565W        W99880  23.710  13.634  13.254
27566W        W99881  28.543  25.921   2.307
27567W        W99882  40.823  35.994   1.242
27568W        W99883  18.092   7.819   3.069
27569W        W99884  25.345  41.924   5.141
27570W        W99885  20.112  14.354  13.470
27571W        W99886  11.204  42.388   2.062
27572W        W99887  27.634   6.732   5.533
27573W        W99888  11.639   4.443   2.545
27574W        W99889  26.526  11.614   1.714
27575W        W99890  19.794   1.689   4.832
27576W        W99891  10.255  38.532  11.110
27577W        W99892   7.331   6.896  10.424
27578W        W99893  21.566  16.674  13.332
27579W        W99894  25.499  25.730   4.550
27580W        W99895  29.904  21.602  12.934
27581W        W99896   6.239  18.047  13.101
27582W        W99897   0.283  24.757   3.117
27583W        W99898   1.847  20.284  14.373
27584W        W99899  22.006  21.952   3.800
27585W        W99900   7.393  31.212   0.864
27586W        W99901  24.544  40.815   2.293
27587W        W99902  16.747  12.913  10.694
27588W        W99903  35.536  22.719   2.832
27589W        W99904  24.417  19.092   3.089
27590W        W99905  31.218  43.456  10.674
27591W        W99906  28.856   0.777   0.133
27592W        W99907  23.159  12.138   2.824
27593W        W99908   9.165  34.391   3.732
27594W        W99909  17.344  32.498   4.288
27595W        W99910  27.588   9.171   3.671
27596W        W99911  24.371  13.299  13.351
27597W        W99912   1.418  13.943   3.710
27598W        W99913  28.472  10.406   0.684
27599W        W99914   0.472  23.058  14.251
27600W        W99915  32.147  35.065  14.565
27601W        W99916  27.031  39.612  10.807
27602W        W99917  17.248  22.891   5.127
27603W        W99918   8.509  19.542   4.573
27604W        W99919  41.124  17.362  10.696
27605W        W99920  22.621  43.543   1.291
27606W        W99921  44.505  20.324   4.609
27607W        W99922  43.391  16.320   0.251
27608W        W99923  26.018  12.658   4.460
27609W        W99924  16.737  33.060   2.113
27610W        W99925  24.684  24.633  11.740
27611W        W99926   0.355  29.176   2.346
27612W        W99927   8.083  22.864   3.370
27613W        W99928  28.382   6.093  14.935
27614W        W99929  12.922  43.162   5.076
27615W        W99930  36.612  19.267  13.989
27616W        W99931  24.513  36.062   0.277
27617W        W99932  44.204   9.366  14.382
27618W        W99933  25.230  19.729  11.624
27619W        W99934  27.955   1.764   2.249
27620W        W99935  43.305  13.566  10.994
27621W        W99936  23.539  28.034  11.394
27622W        W99937  16.498  11.676  14.449
27623W        W99938   6.463   9.172   1.921
27624W        W99939  36.274  34.882   0.397
27625W        W99940  28.960  26.288  13.455
27626W        W99941  21.443  33.547   0.447
27627W        W99942   4.655  16.283   0.790
27628W        W99943  10.510  13.126  10.561
27629W        W99944  29.564  35.209   3.632
27630W        W99945  15.866  25.511  13.901
27631W        W99946  36.531  38.635   2.756
27632W        W99947  22.186  40.420   3.540
27633W        W99948  11.054  41.477   0.962
27634W        W99949   7.846  36.934  10.792
27635W        W99950  15.643  13.832   2.221
27636W        W99951  26.707   2.390  13.467
27637W        W99952   2.940  19.674  11.231
27638W        W99953  41.013  24.294   0.151
27639W        W99954  28.543  42.713   3.731
27640W        W99955  21.684  44.699   2.862
27641W        W99956  39.865  32.955  12.952
27642W        W99957   7.263  32.354  13.070
27643W        W99958   7.361  38.497  13.153
27644W        W99959  10.308   7.346  13.023
27645W        W99960  41.384  35.299  13.014
27646W        W99961  10.458   0.820  11.172
27647W        W99962  33.057  39.519  12.708
27648W        W99963  15.479  17.066   4.093
27649W        W99964  12.704   6.638   0.786
27650W        W99965  43.533  32.353   3.623
27651W        W99966  26.715   5.871  11.892
27652W        W99967  16.496  14.164  13.843
27653W        W99968  30.499  17.588   3.793
27654W        W99969  25.136  40.304  12.946
27655W        W99970  23.493  10.160  12.332
27656W        W99971  30.320  22.904   4.256
27657W        W99972   4.225   3.861  11.663
27658W        W99973  32.962  18.463   2.406
27659W        W99974  39.995  14.684  11.950
27660W        W99975   0.410  27.057  10.636
27661W        W99976  41.200  43.974  11.593
27662W        W99977  30.153  15.129  12.373
27663W        W99978  43.805  39.415   0.670
27664W        W99979   0.927  26.247  11.985
27665W        W99980  38.886   4.444   0.169
27666W        W99981  14.312  17.654  10.707
27667W        W99982  18.139  36.375   3.580
27668W        W99983  39.808  32.674  13.401
27669W        W99984  37.844  20.345  10.749
27670W        W99985  19.969  27.001  11.660
27671W        W99986  17.394  17.421  14.537
27672W        W99987   6.821  11.810  14.415
27673W        W99988  31.850  39.015  12.319
27674W        W99989  24.485  35.115   1.269
27675W        W99990   2.487   8.468  14.737
27676W        W99991  40.261  39.375  12.434
27677W        W99992  24.143  12.252   0.748
27678W        W99993  13.902  19.054   0.906
27679W        W99994  17.597  38.261   4.309
27680W        W99995   8.609  16.574   0.570
27681W        W99996  37.397  24.465  13.555
27682W        W99997   5.991  17.097   2.251
27683W        W99998  44.305  43.745   1.814
27684W        W99999  39.587  14.547   4.381
27685W        W    0  37.120  12.346   4.258
27686W        W    1  15.301   2.384   3.966
27687W        W    2   6.431  37.969   3.322
27688W        W    3  10.721  11.754  12.583
27689W        W    4  29.184  15.797  11.165
27690W        W    5  10.494  27.476  13.339
27691W        W    6  14.520  10.276  10.676
27692W        W    7  15.810  25.302   0.785
27693W        W    8  10.559  29.617   3.960
27694W        W    9  13.696   7.901   0.677
27695W        W   10  32.691   7.240  13.463
27696W        W   11   8.801  30.382   4.647
27697W        W   12  14.653  21.340  10.461
27698W        W   13  11.873  32.495   0.526
27699W        W   14  38.074  13.194  14.444
27700W        W   15  38.858   9.275  11.148
27701W        W   16   3.843  15.535  12.131
27702W        W   17  14.700   5.113  12.322
27703W        W   18  34.405  18.791   3.219
27704W        W   19   0.278   8.875  11.477
27705W        W   20  42.334  16.065  10.972
27706W        W   21  41.656  30.608   4.566
27707W        W   22  35.694   3.499  11.987
27708W        W   23   0.579  32.481  12.090
27709W        W   24  10.169  30.659   3.258
27710W        W   25  25.134   4.807   5.066
27711W        W   26  26.009  30.367   5.019
27712W        W   27   0.386  22.126   1.791
27713W        W   28  26.127   6.634  13.312
27714W        W   29   5.676  25.491   1.675
27715W        W   30  16.754  13.934  13.097
27716W        W   31  42.272   4.399   1.341
27717W        W   32   5.699  15.822   4.572
27718W        W   33  40.603  10.377   2.960
27719W        W   34   4.310  12.437  14.025
27720W        W   35  34.619  39.677   4.128
27721W        W   36  25.196   8.149  14.183
27722W        W   37  29.830  12.185   4.665
27723W        W   38  16.552   8.677  11.172
27724W        W   39  19.693  28.097  14.462
27725W        W   40   3.794  39.793  12.621
27726W        W   41  43.408   4.681   0.338
27727W        W   42  19.511   6.908  12.361
27728W        W   43  10.673   4.795  12.107
27729W        W   44  38.996  13.313   0.406
27730W        W   45  35.643   3.843   2.288
27731W        W   46  35.428  23.088  13.691
27732W        W   47  31.628  18.865   0.146
27733W        W   48  34.105   0.254  13.331
27734W        W   49  22.726  15.351   1.664
27735W        W   50  19.232  16.511   2.325
27736W        W   51  34.523  41.126   4.250
27737W        W   52  40.488   0.309   4.736
27738W        W   53  36.521  42.404   3.214
27739W        W   54  25.585  43.285  14.963
27740W        W   55   8.625  29.049   1.886
27741W        W   56   3.340  39.217  13.575
27742W        W   57  32.568   9.861   1.492
27743W        W   58   9.316  32.375  11.011
27744W        W   59  28.118  13.021  13.054
27745W        W   60  37.519  30.075   3.785
27746W        W   61  42.304  15.184  10.746
27747W        W   62  18.025  12.194  13.957
27748W        W   63  21.778   9.822   0.170
27749W        W   64  11.919  21.575  13.414
27750W        W   65  26.254   4.178  11.929
27751W        W   66  14.361  23.613   2.331
27752W        W   67  36.871  24.953   2.141
27753W        W   68   3.882  17.504  11.293
27754W        W   69   8.340  16.293  12.232
27755W        W   70  26.988  36.971   4.063
27756W        W   71  35.441  33.089   1.658
27757W        W   72  13.771   7.741  11.575
27758W        W   73  34.702  12.590   3.951
27759W        W   74   4.864  22.595   2.263
27760W        W   75  12.762  29.003  13.990
27761W        W   76  25.003  41.737   1.408
27762W        W   77  16.251   6.192   0.461
27763W        W   78  27.035  10.738  10.903
27764W        W   79  32.098   5.681   2.857
27765W        W   80   8.319  14.606   3.733
27766W        W   81  12.836  42.435  11.528
27767W        W   82  26.024  30.343  11.556
27768W        W   83  27.223  42.416   4.275
27769W        W   84  20.546  29.148  14.307
27770W        W   85  34.448  40.149   3.288
27771W        W   86  18.185  30.324   3.765
27772W        W   87  20.181  32.407  12.852
27773W        W   88  12.296  34.915   2.915
27774W        W   89  23.040  25.455  14.270
27775W        W   90  20.577   6.744   3.225
27776W        W   91  18.022  41.293   3.616
27777W        W   92  36.332  40.784  10.584
27778W        W   93  25.015  33.407  14.906
27779W        W   94  44.879  16.097  12.674
27780W        W   95  13.249  19.787   0.985
27781W        W   96  42.305  11.280   3.765
27782W        W   97   3.907  39.968   2.332
27783W        W   98  32.517  20.625  11.093
27784W        W   99   6.599  36.593   0.311
27785W        W  100  38.877   3.685  13.990
27786W        W  101  43.492   4.774   3.804
27787W        W  102   8.553  28.560   1.714
27788W        W  103  10.239  29.991  14.477
27789W        W  104   8.062  39.978  14.088
27790W        W  105  25.747  30.523   4.594
27791W        W  106  30.527  41.840  12.150
27792W        W  107  22.953  20.024  12.911
27793W        W  108  26.606  24.151   3.148
27794W        W  109   4.179   5.184   2.621
27795W        W  110  28.192  20.176   2.180
27796W        W  111  21.734   5.145   1.288
27797W        W  112   9.166  11.111  14.675
27798W        W  113  26.649  14.338   1.136
27799W        W  114   6.509  42.330  11.185
27800W        W  115   9.360  31.144   1.973
27801W        W  116   3.753  38.488   2.372
27802W        W  117   8.337  28.710   4.620
27803W        W  118   6.917  25.678  11.767
27804W        W  119  23.433  35.494  12.917
27805W        W  120  31.218  29.633  13.329
27806W        W  121  23.448  23.185  10.680
27807W        W  122   9.373  33.895  11.066
27808W        W  123  44.356  12.770   0.770
27809W        W  124  16.869  29.059  12.584
27810W        W  125   8.847  40.146  13.060
27811W        W  126  36.453  21.025   4.488
27812W        W  127  20.528  13.798   0.455
27813W        W  128  21.693  33.283  11.927
27814W        W  129  37.158   5.962  14.499
27815W        W  130  32.415  42.250  10.659
27816W        W  131  38.538  20.752   1.292
27817W        W  132  27.656   3.740   9.841
27818W        W  133   2.760  21.379   0.378
27819W        W  134  41.361  44.345  10.958
27820W        W  135  27.485  26.710  13.781
27821W        W  136  43.406  33.635   1.441
27822W        W  137  34.073  35.866  11.191
27823W        W  138  25.526   4.741  14.576
27824W        W  139  30.711  39.386  10.685
27825W        W  140   6.446  36.396  13.073
27826W        W  141  21.831  21.619  10.424
27827W        W  142   9.450  20.183  11.696
27828W        W  143  35.301  34.331   0.771
27829W        W  144  43.058  22.055  11.592
27830W        W  145  31.671  20.938   4.617
27831W        W  146   3.385  23.455   3.681
27832W        W  147  21.309  36.201  11.238
27833W        W  148  14.827   6.566  11.587
27834W        W  149  13.850  39.463   0.307
27835W        W  150  15.652  31.867   0.552
27836W        W  151  19.204  28.496  12.528
27837W        W  152  25.505   3.640  10.727
27838W        W  153  12.573  32.151  14.343
27839W        W  154   4.447  19.317  10.497
27840W        W  155  14.745  37.384  11.209
27841W        W  156  11.646  16.497   1.206
27842W        W  157   8.619  26.799  14.032
27843W        W  158  23.224  27.884   3.506
27844W        W  159  11.771  42.788   2.710
27845W        W  160  23.251  21.009  11.189
27846W        W  161  20.772   3.953   2.599
27847W        W  162  24.862  20.167   0.965
27848W        W  163  25.167  19.149  12.994
27849W        W  164  31.023  25.285  10.414
27850W        W  165   0.380  16.207   3.192
27851W        W  166  26.191  25.091  12.878
27852W        W  167   5.292  26.518   3.424
27853W        W  168  36.942  27.637  11.159
27854W        W  169  15.139  16.568  11.605
27855W        W  170  27.480  17.906  11.972
27856W        W  171  39.709  18.243   2.035
27857W        W  172  20.751   8.297   0.913
27858W        W  173   5.987   7.258  13.924
27859W        W  174  35.216  14.892  14.802
27860W        W  175  38.478   4.990   1.631
27861W        W  176  27.150   6.949  13.406
27862W        W  177   2.683   1.743   0.328
27863W        W  178  26.267   2.810   0.900
27864W        W  179   5.468   7.808   4.206
27865W        W  180   1.501  30.208   0.056
27866W        W  181  43.971   0.435  10.633
27867W        W  182  40.833  10.957   3.248
27868W        W  183   7.914  29.077  10.650
27869W        W  184   7.691  37.028   1.451
27870W        W  185  15.772  34.549   4.402
27871W        W  186  43.968   0.917  12.607
27872W        W  187  10.084   8.656  13.017
27873W        W  188  13.547   7.465   0.906
27874W        W  189  34.579  13.179  10.599
27875W        W  190  29.379  41.896  14.703
27876W        W  191   6.332   2.005   4.220
27877W        W  192  43.232   9.929   1.373
27878W        W  193   9.075  43.701  13.323
27879W        W  194  40.316  11.230  14.315
27880W        W  195  37.160  11.630   2.164
27881W        W  196  16.332  42.003  14.592
27882W        W  197  29.655  43.043   2.180
27883W        W  198   5.329  18.819  12.442
27884W        W  199  37.428  19.776   2.337
27885W        W  200  24.926   2.367   2.808
27886W        W  201  18.603  10.134  13.216
27887W        W  202   1.664  37.430  12.836
27888W        W  203  42.689  37.481  14.424
27889W        W  204  44.070  11.360   5.261
27890W        W  205  13.150  18.246   0.763
27891W        W  206  14.801  42.378   1.280
27892W        W  207  14.269  33.100  10.292
27893W        W  208   4.438   3.976   1.314
27894W        W  209  19.548  44.652  10.739
27895W        W  210  17.990  33.471   3.326
27896W        W  211  41.174   5.172   2.275
27897W        W  212  24.186   1.950  12.934
27898W        W  213  39.497   9.691   1.297
27899W        W  214   6.434  41.901  11.637
27900W        W  215   9.102  11.680   2.760
27901W        W  216   1.900  37.853  11.313
27902W        W  217  24.814   1.428   2.862
27903W        W  218   7.670  35.024  11.933
27904W        W  219  21.810  19.684  12.111
27905W        W  220   0.571  41.448   1.393
27906W        W  221  25.820  20.844  12.008
27907W        W  222  31.552  10.654  10.816
27908W        W  223  16.508   2.935  11.467
27909W        W  224  20.340  20.159  13.985
27910W        W  225  20.285  33.622  12.055
27911W        W  226   9.548   0.875  12.800
27912W        W  227   1.185  36.143   4.105
27913W        W  228  31.023  37.520   1.780
27914W        W  229  20.447  29.513   2.294
27915W        W  230  17.938  26.597  13.257
27916W        W  231   8.802  13.777   2.426
27917W        W  232  35.470  19.727   1.313
27918W        W  233  23.105  11.772   3.802
27919W        W  234   6.342  36.908  13.119
27920W        W  235  40.252  40.465   4.537
27921W        W  236  13.777  12.288   4.851
27922W        W  237   2.182  31.032   3.746
27923W        W  238   1.554  28.858  13.564
27924W        W  239  39.230  11.084  12.483
27925W        W  240   4.271  17.706   1.810
27926W        W  241  31.931  28.974   3.096
27927W        W  242  18.024  42.379  14.787
27928W        W  243   8.196  19.808  11.354
27929W        W  244  13.172   0.548   3.011
27930W        W  245   2.703  42.875   0.923
27931W        W  246  27.090  44.333  13.590
27932W        W  247  24.185  35.601   2.981
27933W        W  248  13.369  37.381   5.033
27934W        W  249  28.391  25.462  10.692
27935W        W  250  20.698  15.639  11.237
27936W        W  251  24.816  34.439  12.033
27937W        W  252  28.845   4.858   4.132
27938W        W  253  22.647  21.640  13.284
27939W        W  254  17.758  43.430   2.729
27940W        W  255  27.533   6.962  10.778
27941W        W  256  39.911  13.096  12.516
27942W        W  257  12.919  42.292  13.505
27943W        W  258  12.777  38.474  10.752
27944W        W  259  35.116  16.779   1.337
27945W        W  260  13.475  42.578  14.365
27946W        W  261  32.846  15.878   1.563
27947W        W  262   9.635  12.627   0.287
27948W        W  263   9.896  15.559  12.271
27949W        W  264  41.792  41.288   4.995
27950W        W  265   1.272  14.818  12.017
27951W        W  266  21.996  17.614   0.430
27952W        W  267   4.415  36.658  13.931
27953W        W  268  33.120  32.612   1.904
27954W        W  269  26.709  34.869  13.481
27955W        W  270   0.322  34.823  12.163
27956W        W  271  30.692  34.619   0.876
27957W        W  272  44.562  23.056   3.063
27958W        W  273  42.863  29.722  11.664
27959W        W  274  40.360   7.076  12.170
27960W        W  275  21.560  39.363  11.904
27961W        W  276  40.327  30.564   4.844
27962W        W  277  22.223  15.042   0.985
27963W        W  278   9.420   1.834   0.885
27964W        W  279   6.905   8.293   1.760
27965W        W  280  37.320  24.457   4.859
27966W        W  281  35.792  33.125   4.480
27967W        W  282  33.630  32.377   0.335
27968W        W  283   8.164  16.027  10.287
27969W        W  284  39.795  35.336  14.468
27970W        W  285  41.341  34.481   2.728
27971W        W  286  41.384  42.578  11.105
27972W        W  287  33.169  24.207  14.217
27973W        W  288  36.001  39.058  13.923
27974W        W  289  33.191   0.940   3.803
27975W        W  290   5.144  29.447  11.126
27976W        W  291  20.002   1.240   3.100
27977W        W  292  29.113  41.295   2.667
27978W        W  293  37.845   6.401   4.090
27979W        W  294  30.084  13.472   4.481
27980W        W  295  21.150  19.615   2.839
27981W        W  296  25.145  14.174  13.857
27982W        W  297  40.137  13.196  12.985
27983W        W  298  42.361  24.383  14.369
27984W        W  299  25.547   3.977  13.818
27985W        W  300  18.770   7.488  12.190
27986W        W  301  17.333  39.966   1.826
27987W        W  302  19.169  26.489  13.921
27988W        W  303  14.948  34.396  14.690
27989W        W  304   8.230   6.287  10.966
27990W        W  305  27.710  42.838  12.962
27991W        W  306  31.405  20.627   3.413
27992W        W  307  18.686  38.360   0.366
27993W        W  308  33.985  33.929  11.705
27994W        W  309  29.231   0.983   4.795
27995W        W  310  35.933  17.757   1.830
27996W        W  311   1.192  22.846   3.296
27997W        W  312  24.686  24.635   3.680
27998W        W  313  15.406   6.263  12.737
27999W        W  314  21.001  35.484  11.940
28000W        W  315  18.606  11.672   3.843
28001W        W  316  25.267  13.188  12.016
28002W        W  317  37.280  44.176  12.221
28003W        W  318   5.667  17.083  12.361
28004W        W  319  31.491   2.238   1.486
28005W        W  320  21.760   6.648   2.824
28006W        W  321  14.200  16.095  10.680
28007W        W  322  39.429  25.671   5.275
28008W        W  323  35.353  41.951  11.565
28009W        W  324  42.794  11.609  14.841
28010W        W  325  20.240  35.895  14.901
28011W        W  326  42.962  36.637  13.839
28012W        W  327  19.324   9.029   4.179
28013W        W  328   0.420  12.181   5.177
28014W        W  329   2.008  32.378  10.720
28015W        W  330  43.067  24.652   3.946
28016W        W  331  41.460  22.373   2.375
28017W        W  332  20.415  14.700   4.350
28018W        W  333  11.586  23.537   3.686
28019W        W  334  23.717  13.354  12.313
28020W        W  335   3.491  37.838  12.850
28021W        W  336  15.828   8.821  14.032
28022W        W  337   5.199  16.034  14.787
28023W        W  338  20.198  24.621  10.980
28024W        W  339   7.877   7.039  14.923
28025W        W  340  33.851  21.515  11.886
28026W        W  341  27.695   9.123  11.525
28027W        W  342  19.818   3.154   1.755
28028W        W  343  38.448  25.832  14.321
28029W        W  344  16.665   3.919  13.082
28030W        W  345  35.285  33.003   4.246
28031W        W  346  42.930  28.263   1.613
28032W        W  347  37.803  15.096  13.113
28033W        W  348  28.741  26.151  12.827
28034W        W  349  41.247  12.801   1.278
28035W        W  350  41.839  10.836   3.032
28036W        W  351  15.599  28.234   1.400
28037W        W  352  28.730  10.073   0.380
28038W        W  353  23.146  26.628   0.313
28039W        W  354  20.272  37.605  12.250
28040W        W  355  19.996  38.113  13.619
28041W        W  356  43.270  26.677   3.664
28042W        W  357  31.566   2.932   0.261
28043W        W  358  19.689  29.396  10.716
28044W        W  359  35.603  12.340  14.310
28045W        W  360  10.246  11.077  11.560
28046W        W  361  16.353  34.083   1.928
28047W        W  362  44.225  32.795  12.073
28048W        W  363   7.866  31.504  13.822
28049W        W  364  17.215  22.047   4.793
28050W        W  365  43.010   6.849  12.382
28051W        W  366   9.344  36.551   0.378
28052W        W  367  44.871  32.882   1.798
28053W        W  368  40.487  19.252  11.451
28054W        W  369  14.382   2.382   5.046
28055W        W  370  28.183  36.631  14.952
28056W        W  371  18.109   8.145  13.090
28057W        W  372  26.353   1.063  14.109
28058W        W  373  43.059  24.166   1.172
28059W        W  374   0.976  20.830   1.701
28060W        W  375  43.048  26.559   2.755
28061W        W  376  11.681  16.548   3.736
28062W        W  377  35.096  22.412   0.965
28063W        W  378  33.195   9.327   1.961
28064W        W  379   6.196  34.222   3.161
28065W        W  380  26.044  37.192   4.134
28066W        W  381  24.632  25.595  13.615
28067W        W  382  39.103  39.792   4.590
28068W        W  383  25.152   1.636   4.950
28069W        W  384  33.312  30.069   0.730
28070W        W  385  25.477  17.194   3.638
28071W        W  386   4.008  43.527  12.911
28072W        W  387  11.197  18.333  14.986
28073W        W  388  38.898  35.721  10.570
28074W        W  389  43.669  31.234   1.411
28075W        W  390  44.288  21.703   3.720
28076W        W  391  44.192  38.835  13.567
28077W        W  392   5.762  40.940  11.704
28078W        W  393  28.578  21.168  11.455
28079W        W  394   9.773   8.457   0.652
28080W        W  395  14.530  43.839   4.675
28081W        W  396  38.870  25.548  11.736
28082W        W  397  19.610  10.671   1.389
28083W        W  398  27.224   9.581   4.503
28084W        W  399  17.748  17.937   0.386
28085W        W  400  31.189  12.804   4.027
28086W        W  401  16.283  42.025  11.124
28087W        W  402  26.024   3.722  11.929
28088W        W  403  34.379   8.462  11.671
28089W        W  404  23.281  10.397   4.140
28090W        W  405  38.442  28.128   0.142
28091W        W  406  17.340  32.602  12.391
28092W        W  407  11.161  29.044  12.919
28093W        W  408   8.388   2.481  11.068
28094W        W  409   2.209  39.868   0.298
28095W        W  410  15.226  24.613   5.104
28096W        W  411  13.762   1.847   1.275
28097W        W  412  44.741  19.603  13.865
28098W        W  413  12.020  11.571  12.391
28099W        W  414  32.403  13.116   3.675
28100W        W  415  41.311  42.760   2.271
28101W        W  416  38.226  21.505   4.126
28102W        W  417  41.545   8.950   1.549
28103W        W  418  37.134   3.940   4.219
28104W        W  419  34.397  10.844  12.091
28105W        W  420  38.984  35.769  12.515
28106W        W  421  36.552  42.268   3.718
28107W        W  422  21.856  40.090   1.850
28108W        W  423   3.699  11.862   0.690
28109W        W  424  20.071   1.773  10.732
28110W        W  425   7.632   1.845  12.464
28111W        W  426  21.186  21.966  11.625
28112W        W  427  17.419  14.033  10.694
28113W        W  428  36.986  22.947  11.414
28114W        W  429  18.188   2.225  12.542
28115W        W  430   0.894   9.132   0.935
28116W        W  431  33.255  44.228  12.967
28117W        W  432  18.770  35.119   3.245
28118W        W  433  12.215  23.642   0.865
28119W        W  434  38.678  43.448   1.888
28120W        W  435  34.598  13.023   3.731
28121W        W  436  22.774   6.196  12.502
28122W        W  437  42.240  41.993   2.491
28123W        W  438  39.407   5.104  14.930
28124W        W  439  21.601   9.196  12.489
28125W        W  440  11.928  35.133   4.607
28126W        W  441  34.838  38.818   2.917
28127W        W  442  27.540  34.932   0.395
28128W        W  443   4.235  12.236  14.493
28129W        W  444  32.494   2.924  11.434
28130W        W  445  18.562  22.629   4.770
28131W        W  446  15.995  39.389   4.452
28132W        W  447  19.590  35.103  12.969
28133W        W  448  29.218   9.870   3.890
28134W        W  449   2.549  23.941   4.642
28135W        W  450  44.493   2.813   5.071
28136W        W  451   8.329  16.028   4.328
28137W        W  452  38.844   0.261  14.955
28138W        W  453  17.100  26.688   0.980
28139W        W  454  44.140  27.008  13.420
28140W        W  455  10.096  35.461   2.775
28141W        W  456  23.899  41.108   2.898
28142W        W  457  37.565  44.967  13.091
28143W        W  458   2.268   3.541   4.674
28144W        W  459  25.496  20.625   1.124
28145W        W  460  34.132  12.172  12.646
28146W        W  461  32.160   0.802  13.904
28147W        W  462  34.514   4.512  11.413
28148W        W  463  42.494  39.960  14.104
28149W        W  464   8.217  19.817   3.243
28150W        W  465  29.907   2.291  12.864
28151W        W  466  12.674  23.903   0.924
28152W        W  467  22.996  26.201  13.947
28153W        W  468  24.586  24.762   3.187
28154W        W  469   9.725  17.022   1.778
28155W        W  470   4.556  22.049  12.087
28156W        W  471  23.949  38.735   1.434
28157W        W  472  21.381  14.700  12.430
28158W        W  473  36.062  39.368   3.212
28159W        W  474  29.906  14.731   1.861
28160W        W  475  29.215  31.567  14.124
28161W        W  476  38.088  39.835   4.258
28162W        W  477  42.328  21.764  11.127
28163W        W  478  34.387  37.432   4.992
28164W        W  479  16.858  36.136   4.224
28165W        W  480   6.472  43.946   2.256
28166W        W  481  22.702  25.142  13.974
28167W        W  482  21.637  42.780  14.448
28168W        W  483   3.997  32.711  11.808
28169W        W  484  15.680  29.588   5.141
28170W        W  485   9.887  35.051   3.431
28171W        W  486   4.746  44.714  13.617
28172W        W  487   0.006  11.549   1.007
28173W        W  488  23.556   0.934  12.483
28174W        W  489  30.318  11.860  12.946
28175W        W  490  28.396  41.923   4.668
28176W        W  491  43.044  36.467  10.711
28177W        W  492  42.368  18.208  11.497
28178W        W  493  10.158  17.472  14.522
28179W        W  494  17.752  19.776  12.093
28180W        W  495   6.673   5.877  14.768
28181W        W  496  16.859  31.111  13.060
28182W        W  497  27.425  40.860   0.950
28183W        W  498  40.470  31.828  11.114
28184W        W  499   8.652  12.359   4.651
28185W        W  500  35.881  14.177   1.699
28186W        W  501   9.644  20.320   4.085
28187W        W  502  41.808  22.781  13.834
28188W        W  503  35.706   0.806   2.053
28189W        W  504  38.500  17.289  11.806
28190W        W  505  22.408   1.843   2.910
28191W        W  506  29.152  44.260  14.481
28192W        W  507  20.643  19.475  13.460
28193W        W  508  33.290  14.801  14.771
28194W        W  509  23.985  10.139  12.486
28195W        W  510  25.693  44.887   4.350
28196W        W  511  31.922   7.502   3.671
28197W        W  512  30.595  15.249   3.086
28198W        W  513  44.366  16.575   2.832
28199W        W  514  27.162  38.226   1.339
28200W        W  515  16.807  14.127  12.615
28201W        W  516  28.115   8.281   4.579
28202W        W  517   0.990  41.647  13.352
28203W        W  518  33.976   7.900  12.908
28204W        W  519  13.799  25.698   3.946
28205W        W  520  36.384  20.282  12.274
28206W        W  521  41.885  37.011   0.182
28207W        W  522  40.580  11.814   1.715
28208W        W  523  30.639  36.632  13.025
28209W        W  524   5.167  41.816  11.213
28210W        W  525   1.183  23.311  13.277
28211W        W  526  22.759  40.986   0.964
28212W        W  527  33.039   2.762   4.013
28213W        W  528  10.235  17.043  10.320
28214W        W  529   1.903  23.197  13.842
28215W        W  530  42.790   6.787   0.794
28216W        W  531  43.530   6.913  10.628
28217W        W  532  29.396  44.048   2.185
28218W        W  533   1.472  40.514   4.175
28219W        W  534  10.313   5.957   4.378
28220W        W  535  16.190  24.182   2.747
28221W        W  536  42.540  25.265   3.876
28222W        W  537  38.122  34.868  11.058
28223W        W  538  27.305  16.042   4.625
28224W        W  539   0.228  22.456  10.336
28225W        W  540  40.010  31.991  12.453
28226W        W  541  13.692  20.765   2.907
28227W        W  542  22.727  40.223   3.003
28228W        W  543   0.745  32.464   4.156
28229W        W  544  10.676   1.474   3.173
28230W        W  545  28.374  18.268  13.505
28231W        W  546  21.149   8.892  12.537
28232W        W  547   2.310  44.945   4.449
28233W        W  548  10.272  33.860   2.116
28234W        W  549  16.502  42.500   3.825
28235W        W  550  31.529  42.788  11.635
28236W        W  551  21.552  13.817   0.529
28237W        W  552  42.066  27.676  12.128
28238W        W  553   9.705  36.368   4.112
28239W        W  554  14.129  17.167   2.746
28240W        W  555  14.434  35.571  14.389
28241W        W  556  40.699   8.292   0.776
28242W        W  557  29.201  28.168   2.908
28243W        W  558  14.542  42.075  11.543
28244W        W  559   7.263   9.375   3.106
28245W        W  560  19.580  11.330   0.053
28246W        W  561   3.210  24.983   1.047
28247W        W  562  37.785  18.434   1.843
28248W        W  563  22.093  44.991   2.710
28249W        W  564  13.294  40.892  12.232
28250W        W  565  27.863  27.896   5.089
28251W        W  566  31.470   2.179   4.342
28252W        W  567  17.375  12.178   2.340
28253W        W  568  42.129  34.259  13.461
28254W        W  569  22.712  19.240   0.987
28255W        W  570   5.366  16.119   3.846
28256W        W  571  15.680  37.608   3.538
28257W        W  572  31.599  18.708   4.694
28258W        W  573  36.979  28.655   1.797
28259W        W  574  39.450  40.815   0.972
28260W        W  575  29.977  37.102  11.987
28261W        W  576  17.370   4.993  11.855
28262W        W  577  39.255   0.061   1.429
28263W        W  578  28.434  34.011  12.715
28264W        W  579  21.955  12.505  11.344
28265W        W  580  24.665  41.954  12.593
28266W        W  581  23.715  12.688  13.802
28267W        W  582   0.332   8.634  13.850
28268W        W  583  22.046  30.100   3.942
28269W        W  584  28.418  23.574  14.468
28270W        W  585  13.556  20.319  11.678
28271W        W  586  11.173  15.902  13.586
28272W        W  587  26.713  38.998   2.888
28273W        W  588  24.285  23.112   0.770
28274W        W  589  19.076  31.610   0.859
28275W        W  590   1.374  13.667   3.254
28276W        W  591   7.539  17.082  13.380
28277W        W  592   3.489  30.551   2.756
28278W        W  593  31.363  42.279  10.753
28279W        W  594   8.923   2.769  14.489
28280W        W  595  43.482  37.086   3.588
28281W        W  596  38.095  42.357   0.465
28282W        W  597   4.893  21.902   3.627
28283W        W  598  10.606  22.635   4.250
28284W        W  599  20.171  32.730   1.806
28285W        W  600  21.155  17.033   3.419
28286W        W  601  12.538  37.481   3.384
28287W        W  602  34.207   5.836  14.093
28288W        W  603  20.547  28.056   2.326
28289W        W  604  43.162   7.463  11.404
28290W        W  605  26.162  16.867  14.247
28291W        W  606  30.292  42.734   0.758
28292W        W  607  22.755  23.019   4.198
28293W        W  608   4.243  41.180   0.742
28294W        W  609  41.228  28.183  12.862
28295W        W  610  28.509  42.193  13.830
28296W        W  611  39.962   4.031  14.438
28297W        W  612  13.465   9.772  11.114
28298W        W  613   7.560  11.163  14.209
28299W        W  614  19.847  36.083   4.913
28300W        W  615  10.913  40.417   0.894
28301W        W  616  11.810   0.968   2.692
28302W        W  617  24.995  36.324   3.239
28303W        W  618  24.087  22.433  10.993
28304W        W  619  28.574  42.184  11.838
28305W        W  620   8.335   7.664  10.618
28306W        W  621  43.403  15.759   4.324
28307W        W  622   0.336   2.791   2.809
28308W        W  623  24.505  24.031   2.863
28309W        W  624   2.303  14.221   2.220
28310W        W  625  29.334   3.336  12.174
28311W        W  626  41.579  20.958  13.086
28312W        W  627  26.966  41.290  13.737
28313W        W  628  37.573  21.242  11.757
28314W        W  629  36.781  26.463   3.306
28315W        W  630  29.161  21.009   2.811
28316W        W  631  26.547   2.842  13.799
28317W        W  632  10.350  38.843  11.550
28318W        W  633  41.283  28.043  11.974
28319W        W  634  22.336  30.601  12.084
28320W        W  635   4.267  24.417   3.258
28321W        W  636   3.147   4.172  14.381
28322W        W  637  17.772  18.334   0.054
28323W        W  638  36.030  16.031   0.630
28324W        W  639  22.506  31.112   2.599
28325W        W  640  32.105   4.021  11.617
28326W        W  641   9.388  34.587  14.983
28327W        W  642  16.699  39.779   4.208
28328W        W  643  29.451   8.921  11.229
28329W        W  644   6.464  41.652   0.400
28330W        W  645  38.380  28.543   1.991
28331W        W  646  21.079  40.212  13.066
28332W        W  647   6.298  25.518   3.901
28333W        W  648   4.684  15.763   1.927
28334W        W  649  29.857  18.064  11.998
28335W        W  650  22.293  38.963  13.935
28336W        W  651  18.644   2.685   3.718
28337W        W  652   2.928  23.918  13.775
28338W        W  653  20.193  28.503  13.507
28339W        W  654  18.098  19.615   0.769
28340W        W  655  15.395  25.400  12.500
28341W        W  656   6.640  25.872   3.732
28342W        W  657  44.364   0.048   4.072
28343W        W  658  23.794  11.109  14.709
28344W        W  659  15.818  37.009  12.869
28345W        W  660  22.637  17.038  14.974
28346W        W  661   2.032  35.614   5.376
28347W        W  662  11.788  22.553   1.675
28348W        W  663  37.500   8.339   1.479
28349W        W  664  42.346  19.734   4.680
28350W        W  665  20.669   9.243  13.869
28351W        W  666  20.824  35.655   2.764
28352W        W  667  33.061  34.552   2.673
28353W        W  668  10.228   3.523   1.899
28354W        W  669   0.587  41.841  11.662
28355W        W  670  38.304  38.765  10.751
28356W        W  671   4.859   6.824  14.484
28357W        W  672  21.190  23.240  14.020
28358W        W  673  14.637  12.295  14.345
28359W        W  674   5.431   1.932   1.486
28360W        W  675  10.411  10.601   0.379
28361W        W  676   0.894  12.571  13.632
28362W        W  677  17.736  11.422   4.676
28363W        W  678  41.257  38.128   4.667
28364W        W  679   6.948  15.841  14.551
28365W        W  680  14.615  33.563  13.951
28366W        W  681  26.088  27.535  10.451
28367W        W  682  34.086  31.589   0.417
28368W        W  683  13.123  24.457   2.812
28369W        W  684  39.533  35.384   1.342
28370W        W  685  38.923  14.667   2.352
28371W        W  686  26.240  31.227   5.062
28372W        W  687  11.335  14.427   3.704
28373W        W  688  44.348  38.541  11.201
28374W        W  689  38.929  41.476  13.931
28375W        W  690  31.551  16.004   1.538
28376W        W  691  33.954  26.255  11.919
28377W        W  692   8.286  15.772  14.471
28378W        W  693  23.685   6.996  11.968
28379W        W  694   7.206  41.489   4.710
28380W        W  695   1.823  29.999   0.934
28381W        W  696  36.191  16.102   1.150
28382W        W  697  30.460   9.134  11.620
28383W        W  698  20.274  39.560  12.946
28384W        W  699  42.260   4.825   3.262
28385W        W  700   3.256   5.226  14.355
28386W        W  701  18.778  25.419  11.064
28387W        W  702  17.198  42.021   2.759
28388W        W  703   7.179  34.178   0.281
28389W        W  704  10.268   8.186  14.377
28390W        W  705   7.831  41.990   1.059
28391W        W  706   5.476  16.070   2.189
28392W        W  707  24.122  16.215   0.871
28393W        W  708  27.062   9.370  12.126
28394W        W  709  39.616   4.436   3.797
28395W        W  710  19.715  24.676   1.328
28396W        W  711  27.122   0.379  12.638
28397W        W  712   3.805  40.537   1.640
28398W        W  713  29.707  30.145   0.340
28399W        W  714   9.407   2.317  11.452
28400W        W  715   8.293  24.194  13.590
28401W        W  716  30.096  22.650  14.907
28402W        W  717  32.694  32.039   3.248
28403W        W  718   4.752  37.337  13.451
28404W        W  719  43.670  35.360   4.918
28405W        W  720  20.152  17.271  12.027
28406W        W  721  14.681   6.235   3.188
28407W        W  722  17.124  13.275   0.298
28408W        W  723  30.530  43.284  14.434
28409W        W  724  34.391  14.583   0.363
28410W        W  725  43.556  39.031  14.769
28411W        W  726  16.566  26.655  10.734
28412W        W  727  37.218  36.536  13.827
28413W        W  728  20.638   8.552  11.886
28414W        W  729   5.244  10.307   4.854
28415W        W  730  39.810  37.080  11.464
28416W        W  731  26.018  30.980  12.389
28417W        W  732   0.536  44.518   4.879
28418W        W  733  25.260  18.516   0.269
28419W        W  734  40.976  26.644  13.540
28420W        W  735   8.899   1.897  13.445
28421W        W  736  13.829  36.683   3.927
28422W        W  737  40.130   6.486  12.727
28423W        W  738  10.475  19.296   0.011
28424W        W  739   4.179  15.465  11.759
28425W        W  740   7.827  39.867   4.417
28426W        W  741  31.783  39.591   0.346
28427W        W  742   7.721  43.830   0.359
28428W        W  743  33.444  11.925  12.834
28429W        W  744  36.459   6.240  13.215
28430W        W  745  27.391  19.969   0.406
28431W        W  746  40.016  23.616   3.560
28432W        W  747  11.421   3.779  12.428
28433W        W  748   5.413  16.791  13.324
28434W        W  749   4.899  27.353  12.252
28435W        W  750  27.739   4.449  10.554
28436W        W  751  18.153  13.643  12.037
28437W        W  752  33.055  15.253  14.670
28438W        W  753  25.398  37.003   2.753
28439W        W  754  34.900  18.091  14.747
28440W        W  755  13.846  11.361   1.088
28441W        W  756   0.254  21.795   2.299
28442W        W  757  37.826  41.342   1.337
28443W        W  758  14.264  31.064   4.091
28444W        W  759  12.833   5.781  14.325
28445W        W  760  34.586  10.809   2.388
28446W        W  761   4.274  22.269   0.864
28447W        W  762   8.940   9.161   4.968
28448W        W  763  42.652  30.824   4.758
28449W        W  764  24.565  34.208   2.241
28450W        W  765  18.301  35.360  11.153
28451W        W  766  41.496  32.085   0.099
28452W        W  767  29.562   6.358  10.065
28453W        W  768   5.145  30.575   4.718
28454W        W  769  17.740  30.589  13.483
28455W        W  770   6.323   2.087  13.694
28456W        W  771  15.559  25.561  12.997
28457W        W  772  36.666  40.689  11.900
28458W        W  773  22.967  38.437   3.319
28459W        W  774  24.104  31.307   2.206
28460W        W  775  17.132  11.223  12.418
28461W        W  776  38.485  16.144  14.323
28462W        W  777   8.334  14.676   0.482
28463W        W  778   5.856  29.905   1.140
28464W        W  779   0.338  22.415  11.187
28465W        W  780  37.383  30.746  14.970
28466W        W  781  29.797  13.944   2.249
28467W        W  782  12.435  16.621  13.436
28468W        W  783  16.502   3.484  12.129
28469W        W  784  27.698  32.664  13.599
28470W        W  785  13.254   3.678  11.228
28471W        W  786  36.708  20.598   2.201
28472W        W  787  30.913   3.574  13.401
28473W        W  788  12.319  18.624   2.699
28474W        W  789  30.600  29.239   3.724
28475W        W  790  26.281  32.916   4.721
28476W        W  791   0.321   1.998   1.479
28477W        W  792  43.948  30.129  13.457
28478W        W  793  19.873  40.524   3.704
28479W        W  794  27.636  27.373   0.899
28480W        W  795   0.478   9.083   9.868
28481W        W  796  23.793  11.272   2.101
28482W        W  797   2.613   2.259  14.317
28483W        W  798  31.047   9.533   2.410
28484W        W  799  13.911  43.255  13.080
28485W        W  800  29.028  12.410   1.379
28486W        W  801   4.148  37.968   4.396
28487W        W  802   9.016  21.723   1.827
28488W        W  803  16.670  26.439  13.169
28489W        W  804  31.923  24.007   4.548
28490W        W  805   8.306  32.466   3.680
28491W        W  806   3.891   5.721   1.342
28492W        W  807  26.926  11.620  10.288
28493W        W  808  31.293  27.549  12.879
28494W        W  809  39.557  27.393  14.852
28495W        W  810  22.201  36.581   0.073
28496W        W  811  13.073   8.215   1.805
28497W        W  812  17.504  22.031  14.883
28498W        W  813  18.263  24.672   0.981
28499W        W  814  44.115  34.643  12.782
28500W        W  815  36.640  43.374  12.111
28501W        W  816   2.135  23.180   0.695
28502W        W  817  13.315  39.027   1.183
28503W        W  818  17.246  29.592  11.661
28504W        W  819  28.976   8.259  14.409
28505W        W  820  23.175  27.053  11.568
28506W        W  821  43.141  42.633   0.747
28507W        W  822  17.724   0.964   0.238
28508W        W  823  17.282  24.077  10.929
28509W        W  824  14.611   7.834   1.293
28510W        W  825  19.341  38.010   1.410
28511W        W  826  27.496  19.640  13.868
28512W        W  827  41.586  35.008   4.177
28513W        W  828  21.970  27.141  14.301
28514W        W  829   3.318   3.901  12.630
28515W        W  830  22.750  38.017  11.216
28516W        W  831  30.583  19.860  14.478
28517W        W  832  12.171  19.807  11.095
28518W        W  833  21.613  30.289   4.142
28519W        W  834  35.209  15.565  13.421
28520W        W  835  23.170   1.451  14.007
28521W        W  836   1.416  30.096  12.611
28522W        W  837  42.761  44.356   3.863
28523W        W  838  43.468  20.585  12.617
28524W        W  839  24.917  15.659   1.781
28525W        W  840  10.469  19.696  12.018
28526W        W  841  24.472   1.323  10.673
28527W        W  842  14.028   0.515  13.280
28528W        W  843  32.057   2.040   2.173
28529W        W  844   7.530   6.741   3.873
28530W        W  845  41.288  31.552   1.854
28531W        W  846  10.023   3.456  11.071
28532W        W  847  17.773  39.110  11.849
28533W        W  848   1.373  19.307   2.370
28534W        W  849  30.321   6.693  10.684
28535W        W  850  34.979  20.417  11.911
28536W        W  851   0.818   2.044   2.068
28537W        W  852  15.057  24.104   4.465
28538W        W  853  33.497   0.038   4.150
28539W        W  854  24.198  11.676  11.434
28540W        W  855   7.376  28.162   4.183
28541W        W  856   5.731  17.789   0.448
28542W        W  857  21.083   0.195  14.270
28543W        W  858  17.675  37.410   1.704
28544W        W  859   7.293   8.140   3.756
28545W        W  860  37.565  28.440  11.276
28546W        W  861  39.407   9.437   1.747
28547W        W  862  22.553   4.851  11.986
28548W        W  863  16.161  36.422   1.443
28549W        W  864  35.601  40.447   3.693
28550W        W  865  20.567  39.490   0.502
28551W        W  866  19.595   9.878  13.524
28552W        W  867   2.342  25.050  12.444
28553W        W  868  34.850  14.712   4.934
28554W        W  869  35.352  41.006   3.738
28555W        W  870  12.089   9.760  11.577
28556W        W  871  15.916  14.128  12.477
28557W        W  872  35.315  29.082  11.703
28558W        W  873  29.406   5.000   2.290
28559W        W  874  10.845  14.307  12.766
28560W        W  875  35.669  13.266   4.594
28561W        W  876  14.586   8.781  12.865
28562W        W  877  15.689  15.675  13.964
28563W        W  878  39.056  28.258  13.230
28564W        W  879  39.250  18.891   3.584
28565W        W  880  21.682  21.555   1.690
28566W        W  881  12.190  36.390   4.823
28567W        W  882  39.796   7.331   1.446
28568W        W  883  21.303   6.276   0.722
28569W        W  884  29.569   7.007  14.455
28570W        W  885  16.533  44.990   4.240
28571W        W  886   1.617  41.900   0.997
28572W        W  887  23.305  26.607   1.213
28573W        W  888   0.522  12.850   4.191
28574W        W  889  36.052  23.164   1.422
28575W        W  890  10.292  42.873  11.946
28576W        W  891  17.834  16.058  12.449
28577W        W  892  40.085  31.981   0.741
28578W        W  893  19.708  33.570   4.108
28579W        W  894  17.357  37.769  10.714
28580W        W  895  42.810  33.829   4.218
28581W        W  896   5.693  22.007   3.116
28582W        W  897  31.955  13.167   0.400
28583W        W  898   0.431  21.313   4.332
28584W        W  899  25.956  23.137  12.082
28585W        W  900  18.029  43.240   3.626
28586W        W  901  21.160   1.926  10.183
28587W        W  902  24.508  20.509  13.495
28588W        W  903  16.182  21.947   2.689
28589W        W  904  44.723  18.121  11.016
28590W        W  905   2.357  30.199   0.329
28591W        W  906  32.798  12.542  12.510
28592W        W  907  35.561   5.321   2.312
28593W        W  908  43.907   8.931  14.452
28594W        W  909  16.044  24.569  14.856
28595W        W  910  38.832   5.014   2.621
28596W        W  911  34.412   6.963   4.042
28597W        W  912  39.475  31.312  11.518
28598W        W  913  11.011  19.942   9.698
28599W        W  914  14.334   6.698  14.553
28600W        W  915  12.938  40.536  11.599
28601W        W  916  42.896  14.475  13.915
28602W        W  917   6.088  19.488  11.226
28603W        W  918  15.351  43.139   1.381
28604W        W  919  12.217  21.090   3.280
28605W        W  920  11.376   3.044  13.847
28606W        W  921  16.355  41.954   2.481
28607W        W  922  26.964   3.717   4.928
28608W        W  923  10.307  23.091  13.434
28609W        W  924   0.567   3.854   0.459
28610W        W  925   8.816  27.755  13.262
28611W        W  926  38.048  10.650  10.431
28612W        W  927   2.270  14.244   1.277
28613W        W  928  17.160  29.771   1.121
28614W        W  929  33.355  43.356   1.370
28615W        W  930  43.549  36.239   1.574
28616W        W  931  29.769  22.058   1.957
28617W        W  932  21.961  23.150  11.204
28618W        W  933   0.763  19.287   3.759
28619W        W  934  19.246  39.581  13.736
28620W        W  935  39.971  26.676  13.230
28621W        W  936  11.066  31.626   3.291
28622W        W  937  18.308  12.319  11.349
28623W        W  938  29.379  26.528  10.657
28624W        W  939   9.171  29.515  11.828
28625W        W  940   0.752  36.570   4.733
28626W        W  941   6.341  41.378  13.948
28627W        W  942  36.042   6.332   3.708
28628W        W  943  32.556  27.866   2.723
28629W        W  944  24.112  14.396  10.692
28630W        W  945  17.242  17.248   1.219
28631W        W  946  33.863   0.360   3.996
28632W        W  947  36.287  41.091   2.693
28633W        W  948  40.734  38.300   2.207
28634W        W  949  38.083   0.789  14.392
28635W        W  950  41.590   3.593  14.397
28636W        W  951   0.255  26.021   1.911
28637W        W  952   1.276   0.373  10.869
28638W        W  953  26.985  27.969   2.429
28639W        W  954  18.345  35.392   2.523
28640W        W  955  36.426  20.079   4.670
28641W        W  956   6.417  23.530   4.550
28642W        W  957  14.606  41.877   2.788
28643W        W  958  17.631  42.930  12.068
28644W        W  959   0.757  42.651   0.445
28645W        W  960  34.101  37.670  12.653
28646W        W  961   8.451   1.897   4.361
28647W        W  962  31.515  38.914   0.858
28648W        W  963  31.362  25.004  13.603
28649W        W  964  36.050  21.396   3.582
28650W        W  965   7.171  37.870  13.619
28651W        W  966  13.723  36.403   1.637
28652W        W  967  31.591  41.846   3.155
28653W        W  968  20.218  34.311  14.918
28654W        W  969  36.373  31.146  14.269
28655W        W  970  12.790   1.259   1.973
28656W        W  971  44.579   5.281  10.632
28657W        W  972  29.668  31.985  12.381
28658W        W  973  38.899  36.102  10.210
28659W        W  974  44.739  42.925  11.064
28660W        W  975  40.385  20.238  14.726
28661W        W  976  25.527  19.061  13.948
28662W        W  977  44.944  17.794   2.681
28663W        W  978  13.173  28.063   4.102
28664W        W  979  42.784  44.402   4.414
28665W        W  980  14.086  41.072   4.039
28666W        W  981  28.542  15.098   4.579
28667W        W  982   6.924  44.883  10.641
28668W        W  983   7.318  32.667   4.439
28669W        W  984  19.694  21.704   1.722
28670W        W  985  40.688   0.107   1.813
28671W        W  986  13.960  19.075  13.269
28672W        W  987  10.203  39.108   2.980
28673W        W  988  12.267  39.003   4.613
28674W        W  989  25.572  23.201   3.377
28675W        W  990  40.880  44.617   1.840
28676W        W  991  35.375  29.239  14.873
28677W        W  992  29.728  38.923  12.031
28678W        W  993  24.795  26.712   0.775
28679W        W  994  28.524  21.354  13.950
28680W        W  995  30.029   1.824   1.468
28681W        W  996  16.200  37.887  14.682
28682W        W  997  26.457  27.646   1.321
28683W        W  998  32.553  37.349  13.890
28684W        W  999  16.057   1.872  13.824
28685W        W 1000  10.877   8.852   0.277
28686W        W 1001  16.748  37.435   2.572
28687W        W 1002  16.718  35.938   0.760
28688W        W 1003   6.696  34.067   3.117
28689W        W 1004  38.117  24.985   1.764
28690W        W 1005   1.908  24.019  11.633
28691W        W 1006   2.053  36.583   4.303
28692W        W 1007  42.926  37.350   4.961
28693W        W 1008  44.394  18.189  13.390
28694W        W 1009  24.949  14.868  13.524
28695W        W 1010  26.427   7.914  11.572
28696W        W 1011  17.245  20.789  13.294
28697W        W 1012   9.875  17.084  13.802
28698W        W 1013  16.569  40.073  13.431
28699W        W 1014  27.761  13.246   1.617
28700W        W 1015  42.776  26.576   3.643
28701W        W 1016  18.669  32.820  12.440
28702W        W 1017  32.492   5.351   2.704
28703W        W 1018  44.743  15.727  13.038
28704W        W 1019   0.397  22.852   1.161
28705W        W 1020  20.126   6.520  11.670
28706W        W 1021  41.421  31.066   4.527
28707W        W 1022  19.089  10.689   1.288
28708W        W 1023  21.953   7.298  13.442
28709W        W 1024   1.267  23.120   4.598
28710W        W 1025  39.290  33.603  13.341
28711W        W 1026  26.764   3.744  12.486
28712W        W 1027  22.404  36.909   0.979
28713W        W 1028   0.752  36.937  10.182
28714W        W 1029  18.805  42.898   1.623
28715W        W 1030   8.583  25.920   2.704
28716W        W 1031   1.065  30.916   0.793
28717W        W 1032  35.464  28.070   3.832
28718W        W 1033  26.242  35.525  12.730
28719W        W 1034  34.473  35.219   2.323
28720W        W 1035  41.299  36.320  11.601
28721W        W 1036   6.138  13.369   2.407
28722W        W 1037  39.115   9.974   3.048
28723W        W 1038  13.350  32.509  10.689
28724W        W 1039  42.277  19.292  14.535
28725W        W 1040  24.107  39.268  13.567
28726W        W 1041  34.965  17.656   2.782
28727W        W 1042  36.023  17.740   0.268
28728W        W 1043  14.504  11.755   2.461
28729W        W 1044  44.361   4.493  13.341
28730W        W 1045  17.144  25.859   2.312
28731W        W 1046  23.734   3.973   3.730
28732W        W 1047  22.582  26.047  10.125
28733W        W 1048   2.406  22.457  11.207
28734W        W 1049   0.504  23.959   2.827
28735W        W 1050  29.621  11.592   2.809
28736W        W 1051   4.003  43.715  13.926
28737W        W 1052  10.606   5.308  10.737
28738W        W 1053  20.190  22.848   0.478
28739W        W 1054  37.905  22.916  11.734
28740W        W 1055  24.181  13.831  13.119
28741W        W 1056  15.909  26.181  12.058
28742W        W 1057  15.744  30.606   3.076
28743W        W 1058  42.010  21.870  11.565
28744W        W 1059  12.959  29.582  11.823
28745W        W 1060  35.089  42.866  10.565
28746W        W 1061  39.599  31.048  13.002
28747W        W 1062  16.259   6.205   2.217
28748W        W 1063  37.011  31.541  13.495
28749W        W 1064  18.143  44.491  11.954
28750W        W 1065   1.325  33.494   3.051
28751W        W 1066  12.615  38.475  14.349
28752W        W 1067  14.651  35.275   3.080
28753W        W 1068  16.876   2.119   1.191
28754W        W 1069   0.918  43.085   0.689
28755W        W 1070  11.264  40.773  11.146
28756W        W 1071   9.848  44.896   0.481
28757W        W 1072  40.181  19.330   3.697
28758W        W 1073   9.167   7.911  12.517
28759W        W 1074   3.386  10.834  10.584
28760W        W 1075  33.505  17.141   2.418
28761W        W 1076  32.921  22.225   2.407
28762W        W 1077  44.049   0.291  12.974
28763W        W 1078  32.584  36.836   3.673
28764W        W 1079  38.883  34.775  11.727
28765W        W 1080  19.063  19.090  13.931
28766W        W 1081  19.470  40.898   0.366
28767W        W 1082  24.950  15.617   3.082
28768W        W 1083  20.214  41.439   1.383
28769W        W 1084  29.062   1.014  14.177
28770W        W 1085  27.194   9.957   1.063
28771W        W 1086  37.385  18.190  11.073
28772W        W 1087  27.584   6.793  10.324
28773W        W 1088  25.649  23.037   0.283
28774W        W 1089  19.141  25.984   3.853
28775W        W 1090  31.817  26.869  11.209
28776W        W 1091  34.741  20.099  11.050
28777W        W 1092  23.167  36.946   0.356
28778W        W 1093   1.366  11.171   3.294
28779W        W 1094   3.873  29.580  11.169
28780W        W 1095   7.550  34.947   5.050
28781W        W 1096   4.942  29.093  13.832
28782W        W 1097  36.566  35.950  14.367
28783W        W 1098   1.544  28.186  11.462
28784W        W 1099  35.822  10.607  13.038
28785W        W 1100  13.383  14.323   3.834
28786W        W 1101   2.425  10.283  13.071
28787W        W 1102   6.877  25.224  12.518
28788W        W 1103  23.825  41.089   3.413
28789W        W 1104   4.890  32.475   4.117
28790W        W 1105   4.903  39.608   0.853
28791W        W 1106  41.314  30.838   1.404
28792W        W 1107  43.378   5.821  14.949
28793W        W 1108  44.757  22.371  13.287
28794W        W 1109   1.849  21.731   1.018
28795W        W 1110  20.257  37.752  13.939
28796W        W 1111  10.868  21.655   4.099
28797W        W 1112   1.856  37.914  14.581
28798W        W 1113  26.696   9.839  13.070
28799W        W 1114  39.992  17.812  14.227
28800W        W 1115  30.013  43.882   2.862
28801W        W 1116  42.256  35.953  10.567
28802W        W 1117   5.822   8.620  13.545
28803W        W 1118  36.869  38.457  13.171
28804W        W 1119   9.671  16.289  10.651
28805W        W 1120  23.286  44.336   2.617
28806W        W 1121  42.285  14.692   2.780
28807W        W 1122  40.051  11.683   3.561
28808W        W 1123  43.940   1.314   4.623
28809W        W 1124  26.923   4.432  10.827
28810W        W 1125  10.810  33.348  12.067
28811W        W 1126  10.721  27.104  14.703
28812W        W 1127  33.273  19.729  11.175
28813W        W 1128  18.405  16.283  13.869
28814W        W 1129  43.339  34.487   3.100
28815W        W 1130  35.292  10.279   1.183
28816W        W 1131  12.815   4.969   0.127
28817W        W 1132  18.359  15.688  14.367
28818W        W 1133   1.399  41.910   0.530
28819W        W 1134  39.030  26.550   1.240
28820W        W 1135  43.916  13.134  10.657
28821W        W 1136  21.751  16.644  11.147
28822W        W 1137  16.695   9.445  14.379
28823W        W 1138   4.811  22.584  12.582
28824W        W 1139   9.185  18.522  10.754
28825W        W 1140  21.700  12.246  13.330
28826W        W 1141  41.773  16.718   4.788
28827W        W 1142  44.963   1.135  14.306
28828W        W 1143   9.469  39.474   2.327
28829W        W 1144  31.232  39.042   1.916
28830W        W 1145  23.718   5.806   0.899
28831W        W 1146  33.843   1.404  12.852
28832W        W 1147   6.945  19.168  12.940
28833W        W 1148   6.793  21.229  11.169
28834W        W 1149  10.767  42.277  14.842
28835W        W 1150  16.301  11.168  12.947
28836W        W 1151  21.141  41.841   4.100
28837W        W 1152   2.278   7.810  14.354
28838W        W 1153   4.807  17.526   3.513
28839W        W 1154   5.752  37.917  14.852
28840W        W 1155  40.489  42.879  11.498
28841W        W 1156   7.700  20.770  11.877
28842W        W 1157  23.580   2.761  12.960
28843W        W 1158  38.966  26.294  10.496
28844W        W 1159  40.269  40.180   4.977
28845W        W 1160  20.489  36.599  12.567
28846W        W 1161  29.597  13.826  13.391
28847W        W 1162   0.854  37.673  13.979
28848W        W 1163  24.972  42.769  11.573
28849W        W 1164  40.895  41.496  10.719
28850W        W 1165  24.012  21.210   1.210
28851W        W 1166  15.285  29.635   4.424
28852W        W 1167  41.245  40.556   4.708
28853W        W 1168   8.335   6.054   2.309
28854W        W 1169  37.335  39.555   3.715
28855W        W 1170   7.634  18.590  10.096
28856W        W 1171  25.720   2.993  14.749
28857W        W 1172  17.747  17.693   2.345
28858W        W 1173   0.404   0.456   1.212
28859W        W 1174  11.309  40.770  11.868
28860W        W 1175  14.180   6.788   1.010
28861W        W 1176  28.703  11.347   0.801
28862W        W 1177  18.237  11.247   5.516
28863W        W 1178  44.265  41.467  14.799
28864W        W 1179  25.657  28.411  14.397
28865W        W 1180  28.049  30.491   4.397
28866W        W 1181  25.734  15.328  12.030
28867W        W 1182  28.767  39.685  13.327
28868W        W 1183  43.739  25.374   0.897
28869W        W 1184  25.368   2.990  12.449
28870W        W 1185   3.247  39.387   1.636
28871W        W 1186  29.745   8.996   4.539
28872W        W 1187  44.202  30.677  12.499
28873W        W 1188  35.490  30.443  12.787
28874W        W 1189  23.230   3.856   0.886
28875W        W 1190  10.483   0.320   3.717
28876W        W 1191  44.250  10.277   5.099
28877W        W 1192  36.598  44.428   1.995
28878W        W 1193   4.348   3.811  12.679
28879W        W 1194   3.770  34.026  14.772
28880W        W 1195   2.023  30.484   0.720
28881W        W 1196  16.260  24.102   4.053
28882W        W 1197  28.624  41.000  11.817
28883W        W 1198  32.464  22.379  10.112
28884W        W 1199  26.355   5.641   1.845
28885W        W 1200  23.008   1.860  12.085
28886W        W 1201  32.457  10.880   4.354
28887W        W 1202  41.903   5.346  14.882
28888W        W 1203  22.179  34.930   0.326
28889W        W 1204  33.788   1.304   3.205
28890W        W 1205  32.850  16.564  14.806
28891W        W 1206  22.765  24.147   0.496
28892W        W 1207  33.888  21.062  14.963
28893W        W 1208  23.964  18.010  12.441
28894W        W 1209  41.015  20.116   4.393
28895W        W 1210   0.246  16.655   0.452
28896W        W 1211  29.966  15.176   1.208
28897W        W 1212  10.459  24.235  13.776
28898W        W 1213  30.741  29.625  13.918
28899W        W 1214  31.056   3.865  12.997
28900W        W 1215  39.880  13.670  13.134
28901W        W 1216  36.334  20.348  11.767
28902W        W 1217  13.229  19.600  10.119
28903W        W 1218   9.172   1.486   3.248
28904W        W 1219  22.537  38.093   3.318
28905W        W 1220  35.548   7.473   2.932
28906W        W 1221  29.723  16.043   4.269
28907W        W 1222  23.779   9.190   2.360
28908W        W 1223   2.434  41.252   4.317
28909W        W 1224  35.486  20.030  12.580
28910W        W 1225  42.951   7.203   4.199
28911W        W 1226  27.920  44.659  13.085
28912W        W 1227  19.489  21.612   0.003
28913W        W 1228  27.628  11.623   0.353
28914W        W 1229  44.724  30.638  14.977
28915W        W 1230  11.552  29.951  13.087
28916W        W 1231  31.553  11.516   4.998
28917W        W 1232  41.839  17.123   1.295
28918W        W 1233   7.058  42.405  12.579
28919W        W 1234  17.863  41.962  12.144
28920W        W 1235  39.598  17.566  14.995
28921W        W 1236  24.991   2.220   1.921
28922W        W 1237  10.897  14.519  12.270
28923W        W 1238  26.129  26.670  10.481
28924W        W 1239  41.454   8.356   3.756
28925W        W 1240  32.261  30.874   4.617
28926W        W 1241  28.533  40.027   1.235
28927W        W 1242   8.226  26.109   3.019
28928W        W 1243  15.276  31.471  14.256
28929W        W 1244  44.456  14.869  12.929
28930W        W 1245  38.993  40.539  11.886
28931W        W 1246   1.290   0.769  14.372
28932W        W 1247  28.789  19.765  11.784
28933W        W 1248   0.737  21.504  12.944
28934W        W 1249  25.168  11.203   2.886
28935W        W 1250  10.283  44.254   0.703
28936W        W 1251  11.937  23.730   2.095
28937W        W 1252  15.255  28.487   1.715
28938W        W 1253  19.680   1.793   2.369
28939W        W 1254   5.833  26.967  13.944
28940W        W 1255  33.424  12.860   4.756
28941W        W 1256  10.935  32.878  11.923
28942W        W 1257  19.875  40.441  11.633
28943W        W 1258  36.001  23.506  12.047
28944W        W 1259   3.192  43.769  12.975
28945W        W 1260   1.805  39.358  12.659
28946W        W 1261  22.131  33.627  12.523
28947W        W 1262  35.583  25.975  11.548
28948W        W 1263   8.536  38.791  12.076
28949W        W 1264  24.462   0.710   0.326
28950W        W 1265  41.040   2.793   3.849
28951W        W 1266  10.236  40.399  12.992
28952W        W 1267  10.920  40.838   4.345
28953W        W 1268  31.436  25.070   1.957
28954W        W 1269  29.344  32.558  13.920
28955W        W 1270  35.090  37.532   1.411
28956W        W 1271  30.370  31.794   1.826
28957W        W 1272  21.980   2.426  14.950
28958W        W 1273   8.416  16.108  11.222
28959W        W 1274   4.919   9.413   1.746
28960W        W 1275  24.745  15.061  12.920
28961W        W 1276   2.025  37.079   1.589
28962W        W 1277  31.892  14.699   4.401
28963W        W 1278   2.467   6.697  13.289
28964W        W 1279  42.980  34.103  14.367
28965W        W 1280  29.563  32.362   4.982
28966W        W 1281  24.130  30.137   1.862
28967W        W 1282  39.002  40.041  13.049
28968W        W 1283  32.565  36.144   4.086
28969W        W 1284  18.145   6.864  12.148
28970W        W 1285   8.355  42.510   3.870
28971W        W 1286  25.702  15.248  12.804
28972W        W 1287  19.638  42.422  12.113
28973W        W 1288  23.162  38.115  12.864
28974W        W 1289   2.424  37.916   0.486
28975W        W 1290  25.540   6.845   3.293
28976W        W 1291   6.736  14.664  13.717
28977W        W 1292  23.041  40.445  14.345
28978W        W 1293   5.689  42.433   1.334
28979W        W 1294  24.037  23.775  12.861
28980W        W 1295  14.449   7.604   3.658
28981W        W 1296   9.833  38.866  14.065
28982W        W 1297  23.621   4.281   0.503
28983W        W 1298   0.083  41.507   0.289
28984W        W 1299  21.767  35.983  12.959
28985W        W 1300  27.589  17.312   2.175
28986W        W 1301  35.960  36.069   2.871
28987W        W 1302  21.009  22.346  14.498
28988W        W 1303  29.909  10.586  10.875
28989W        W 1304  43.473   9.960  13.554
28990W        W 1305  42.023  35.262   3.550
28991W        W 1306  43.986  32.256  14.847
28992W        W 1307   5.735  29.034   4.234
28993W        W 1308  29.300  29.275   2.096
28994W        W 1309  44.351  24.615   2.244
28995W        W 1310  40.328   7.703   3.567
28996W        W 1311  18.628  42.773   4.101
28997W        W 1312  24.785   4.731  12.914
28998W        W 1313   1.755  11.751  13.798
28999W        W 1314  36.939   1.636   4.539
29000W        W 1315  21.103  30.710  11.107
29001W        W 1316   5.826  31.481   2.966
29002W        W 1317  31.649  17.494   4.566
29003W        W 1318  11.147  20.964  14.965
29004W        W 1319   7.683  12.377   4.076
29005W        W 1320  14.749  12.696  12.354
29006W        W 1321  27.637  33.582   3.618
29007W        W 1322  13.749  38.939  10.728
29008W        W 1323  17.733  25.762  12.841
29009W        W 1324  13.116  17.506  11.134
29010W        W 1325   6.662  28.621   4.192
29011W        W 1326   5.294  42.982  11.126
29012W        W 1327   6.591  32.659   3.198
29013W        W 1328  40.094  26.456  11.442
29014W        W 1329   9.222  31.852   2.640
29015W        W 1330  37.484   5.402   0.764
29016W        W 1331  35.816  37.892  12.215
29017W        W 1332  24.236  19.943   3.729
29018W        W 1333   7.914  15.655   0.331
29019W        W 1334   2.826  14.814   1.335
29020W        W 1335   6.203  22.450   0.720
29021W        W 1336  18.218  40.829   4.160
29022W        W 1337  12.612  12.095   3.233
29023W        W 1338   8.916  14.103  13.015
29024W        W 1339  31.566  36.449   3.638
29025W        W 1340  25.735   5.818  13.241
29026W        W 1341   6.922  39.427  14.923
29027W        W 1342  24.065   1.271   3.747
29028W        W 1343   9.085  24.519  11.349
29029W        W 1344  28.379  14.763  12.337
29030W        W 1345  35.713  43.984   2.201
29031W        W 1346   9.712  43.830   2.981
29032W        W 1347   1.849  40.666  12.376
29033W        W 1348  28.950  10.173  14.914
29034W        W 1349  36.092  19.446  14.797
29035W        W 1350  30.972  34.066   0.052
29036W        W 1351  34.504  18.033   4.760
29037W        W 1352  13.296   7.664   1.322
29038W        W 1353  26.216  14.237  14.292
29039W        W 1354  42.232   9.912   0.280
29040W        W 1355  44.607  26.500   5.156
29041W        W 1356  20.616   6.379  11.843
29042W        W 1357  17.070  17.604  12.136
29043W        W 1358  42.521  33.357  14.360
29044W        W 1359  39.564  33.594   2.352
29045W        W 1360   7.290  25.310  11.168
29046W        W 1361  10.178  16.467   5.068
29047W        W 1362  12.801  18.645   3.007
29048W        W 1363  10.707  31.457  12.916
29049W        W 1364  28.049  30.509  11.484
29050W        W 1365  10.681  14.001  12.407
29051W        W 1366  19.506  18.146  10.784
29052W        W 1367  35.745  23.034   1.011
29053W        W 1368  25.638  43.056   3.769
29054W        W 1369   6.729   8.644   5.066
29055W        W 1370  26.875   8.600   3.630
29056W        W 1371  36.844  28.265  11.580
29057W        W 1372  37.377  38.595  11.232
29058W        W 1373  23.891  11.895   1.045
29059W        W 1374  36.055  21.490  13.025
29060W        W 1375  35.316  28.988   1.827
29061W        W 1376  27.375  19.522   2.717
29062W        W 1377  37.582  15.640   1.322
29063W        W 1378  24.915   6.810  12.056
29064W        W 1379  20.270  16.678  13.767
29065W        W 1380  19.718  15.968   0.448
29066W        W 1381  37.412  10.373   0.478
29067W        W 1382  34.622  43.015  14.911
29068W        W 1383  41.017  18.579  10.885
29069W        W 1384  34.979  28.552  12.462
29070W        W 1385  37.907  39.293  13.522
29071W        W 1386  28.725  33.890   2.144
29072W        W 1387  29.952  29.400   1.832
29073W        W 1388   3.776  40.332  13.810
29074W        W 1389  17.285  26.107  10.733
29075W        W 1390   1.374   5.101  14.390
29076W        W 1391  31.970  15.551  10.668
29077W        W 1392  29.896  25.502   3.229
29078W        W 1393   0.247  30.533  11.626
29079W        W 1394  23.110  29.965   0.055
29080W        W 1395  25.721   7.237  13.278
29081W        W 1396  27.942  32.320  11.587
29082W        W 1397   0.233   9.127  14.805
29083W        W 1398  10.193  12.340   0.327
29084W        W 1399  17.653  31.025   4.306
29085W        W 1400   0.365  23.458  11.247
29086W        W 1401  28.608   5.679   0.937
29087W        W 1402  19.260  44.997   1.526
29088W        W 1403  14.504   3.523   2.280
29089W        W 1404  15.125  26.486   2.552
29090W        W 1405  28.559   6.347  10.742
29091W        W 1406   0.260  23.639   3.799
29092W        W 1407  29.250   0.137   2.834
29093W        W 1408   9.084  37.359  12.004
29094W        W 1409  30.416  29.430   0.711
29095W        W 1410  31.456  15.182  12.826
29096W        W 1411  20.119  25.002  14.393
29097W        W 1412  16.387  21.301  11.295
29098W        W 1413  44.460  32.984   2.891
29099W        W 1414  28.438  31.966  13.929
29100W        W 1415  23.420   9.262  12.923
29101W        W 1416   7.953   3.469  11.722
29102W        W 1417   0.866  10.887   2.770
29103W        W 1418  40.787  22.339  11.981
29104W        W 1419  22.166  24.515   0.960
29105W        W 1420  12.783  11.181   2.650
29106W        W 1421   2.959  39.335  10.399
29107W        W 1422  26.644  40.023   1.726
29108W        W 1423   7.977  10.312   4.180
29109W        W 1424  22.023  15.677  13.418
29110W        W 1425  16.585  15.697   0.774
29111W        W 1426  39.033  22.676   3.175
29112W        W 1427  13.732   5.940  11.117
29113W        W 1428  43.894  13.437   4.261
29114W        W 1429  11.038   8.266   3.557
29115W        W 1430  43.275  22.431   0.915
29116W        W 1431  31.381   2.579  11.115
29117W        W 1432  17.613  37.831   2.353
29118W        W 1433  19.516  21.103  14.123
29119W        W 1434   9.155  43.444  12.879
29120W        W 1435  24.417  22.117  10.759
29121W        W 1436  29.157  20.029   4.634
29122W        W 1437   0.568  12.274   2.669
29123W        W 1438   7.258  35.216   4.721
29124W        W 1439  19.615   5.172  14.321
29125W        W 1440  15.746  40.104   3.200
29126W        W 1441  22.030   5.230  12.836
29127W        W 1442  34.416   8.759   3.027
29128W        W 1443  38.022   7.772   4.428
29129W        W 1444  22.057  24.239   2.772
29130W        W 1445  35.396  37.552  12.417
29131W        W 1446   1.194   9.756  13.414
29132W        W 1447  33.020  15.968  12.534
29133W        W 1448  23.410  22.109   2.172
29134W        W 1449   7.548  12.806   0.722
29135W        W 1450   8.628   2.647   2.684
29136W        W 1451   1.985   2.505   2.023
29137W        W 1452   4.835   9.928   3.663
29138W        W 1453  20.305  28.961   1.922
29139W        W 1454   9.383  13.584   0.362
29140W        W 1455  32.999  35.543   0.242
29141W        W 1456  43.857   4.369   1.227
29142W        W 1457  19.267  23.308   0.252
29143W        W 1458   8.395   6.960   0.922
29144W        W 1459  13.894  25.396   4.374
29145W        W 1460  29.389  15.579   2.665
29146W        W 1461  10.540  27.291   1.568
29147W        W 1462  28.897  21.327   3.120
29148W        W 1463   5.150  18.704  10.476
29149W        W 1464  43.470   3.722  11.558
29150W        W 1465  14.415  33.001   1.937
29151W        W 1466  11.630  42.024  11.852
29152W        W 1467  19.473   3.740  12.083
29153W        W 1468   3.892  43.931   3.196
29154W        W 1469  21.720  12.381  14.297
29155W        W 1470  43.011   0.320   1.831
29156W        W 1471  21.910  21.663   3.259
29157W        W 1472  37.305  38.801  12.446
29158W        W 1473   2.421  35.479   3.732
29159W        W 1474  34.542  42.486  13.749
29160W        W 1475  14.121  16.886   2.208
29161W        W 1476  14.267   1.937   1.148
29162W        W 1477  41.314  27.186   0.637
29163W        W 1478  37.083  36.045  12.021
29164W        W 1479  27.066  14.694  11.714
29165W        W 1480  21.733  19.481   3.978
29166W        W 1481  15.314  34.011   3.844
29167W        W 1482  30.738  44.265  11.529
29168W        W 1483  26.860   4.627  11.686
29169W        W 1484  28.056  19.910   4.494
29170W        W 1485  31.977  18.540  11.493
29171W        W 1486  11.836  21.522  11.853
29172W        W 1487  34.070  27.716  11.605
29173W        W 1488  19.507   9.948   1.797
29174W        W 1489   4.972  14.350  12.885
29175W        W 1490  36.962   6.636  11.713
29176W        W 1491   3.182  27.646   0.962
29177W        W 1492  31.058  35.930  11.245
29178W        W 1493  22.951   4.870  14.407
29179W        W 1494  16.663  14.822   3.624
29180W        W 1495  38.122  12.221  11.574
29181W        W 1496  38.460  19.887   0.697
29182W        W 1497   7.607  28.822  14.498
29183W        W 1498  36.045  34.547   2.826
29184W        W 1499   7.375  29.086  10.758
29185W        W 1500   9.147   8.409   1.361
29186W        W 1501  19.279  32.636   0.705
29187W        W 1502  24.105   9.749   1.756
29188W        W 1503  34.097  40.823   1.693
29189W        W 1504  15.629  18.643   2.747
29190W        W 1505  41.360  21.509   4.615
29191W        W 1506  40.910  40.660   1.853
29192W        W 1507   5.130  28.935  11.078
29193W        W 1508  16.560  30.462  14.413
29194W        W 1509   3.483  27.235   2.212
29195W        W 1510  42.863   4.520  13.388
29196W        W 1511  43.767  33.694   4.102
29197W        W 1512  36.116   4.862   0.242
29198W        W 1513  39.614  15.661  11.946
29199W        W 1514  28.601   9.831   3.251
29200W        W 1515  25.514   5.372  13.972
29201W        W 1516   4.295  42.681  12.959
29202W        W 1517  26.900  13.845   4.176
29203W        W 1518  33.960  43.248  13.588
29204W        W 1519   1.757  27.428   1.156
29205W        W 1520  34.849  42.811  13.448
29206W        W 1521  15.185  19.144   1.052
29207W        W 1522   9.370  37.334   5.321
29208W        W 1523  43.019  28.574   2.010
29209W        W 1524   8.868  42.713   1.407
29210W        W 1525  40.772  24.725  11.531
29211W        W 1526  17.307  19.577   4.248
29212W        W 1527  21.623  34.429  13.864
29213W        W 1528  14.749  16.819  13.291
29214W        W 1529  29.069  13.454  11.158
29215W        W 1530  28.225   3.889  11.026
29216W        W 1531   1.569  26.011  13.391
29217W        W 1532  14.655  13.627  13.166
29218W        W 1533   4.505  35.384  11.882
29219W        W 1534   2.828  21.210   1.774
29220W        W 1535  40.379  32.538  11.987
29221W        W 1536   0.343  16.522  11.612
29222W        W 1537   9.734  15.817  10.775
29223W        W 1538  16.373  29.160   3.706
29224W        W 1539   8.306   1.311  12.961
29225W        W 1540  32.489  33.135   2.621
29226W        W 1541  19.341  12.315  14.362
29227W        W 1542  39.028  35.365   1.309
29228W        W 1543  20.039  12.305   1.726
29229W        W 1544   0.230  19.078  14.395
29230W        W 1545  24.211  20.039   1.389
29231W        W 1546  13.168  40.800  13.859
29232W        W 1547  34.057  12.821   2.277
29233W        W 1548   5.511  11.541  14.586
29234W        W 1549  23.080  30.466  12.643
29235W        W 1550   4.736  42.048   3.218
29236W        W 1551  23.148  41.299  14.322
29237W        W 1552   1.500  26.544   2.744
29238W        W 1553   1.295  32.748   0.807
29239W        W 1554  42.897  38.053   2.689
29240W        W 1555   5.374  36.813  10.684
29241W        W 1556  12.221   5.314  13.786
29242W        W 1557  10.329  31.999  14.299
29243W        W 1558  33.571  31.612  11.281
29244W        W 1559  21.139  36.473  10.547
29245W        W 1560  43.716  38.126  14.707
29246W        W 1561  42.440   2.799  13.944
29247W        W 1562  18.828  38.389  12.361
29248W        W 1563  44.312  23.651  13.549
29249W        W 1564  41.727  44.224  13.074
29250W        W 1565  11.873  16.787   0.731
29251W        W 1566  15.533  22.482  14.802
29252W        W 1567  29.081  21.249  10.688
29253W        W 1568  36.123  36.957   2.269
29254W        W 1569   4.937  42.113   2.458
29255W        W 1570  44.802  26.440  12.529
29256W        W 1571  44.547  28.763  12.394
29257W        W 1572  27.278   0.844  10.696
29258W        W 1573  20.270  15.820   1.864
29259W        W 1574  19.279  28.547  10.681
29260W        W 1575   9.118   7.232   3.151
29261W        W 1576  16.005  41.117  13.872
29262W        W 1577  27.969  43.202   1.803
29263W        W 1578   3.737   6.433   2.528
29264W        W 1579  40.097  21.060   5.076
29265W        W 1580  15.753  16.719   4.477
29266W        W 1581   3.375  15.778   3.142
29267W        W 1582  18.702  36.370  11.416
29268W        W 1583  39.484  17.234   2.254
29269W        W 1584  24.767  28.618   0.437
29270W        W 1585   4.616  26.569  13.979
29271W        W 1586  23.020   1.996  14.882
29272W        W 1587  15.093  10.362   0.868
29273W        W 1588   2.996  38.894   1.282
29274W        W 1589  32.614  35.651   4.035
29275W        W 1590  43.516  38.906   2.141
29276W        W 1591  37.114  39.010  11.471
29277W        W 1592  28.861  37.758   2.349
29278W        W 1593  16.503  18.785   1.458
29279W        W 1594  32.064  21.733  14.337
29280W        W 1595   1.329   3.699  11.652
29281W        W 1596  43.322  33.947   3.196
29282W        W 1597  34.921  26.279   0.925
29283W        W 1598  31.018  33.076   0.254
29284W        W 1599   3.311  21.629  10.379
29285W        W 1600  41.563  13.293  13.368
29286W        W 1601  38.330  39.785   0.214
29287W        W 1602  37.452   6.590  14.811
29288W        W 1603   8.201   1.856  14.241
29289W        W 1604  20.620  35.096   1.022
29290W        W 1605  17.828  42.664   2.861
29291W        W 1606  40.410   6.882   3.793
29292W        W 1607   2.899  44.541  12.685
29293W        W 1608  25.564  15.588  11.594
29294W        W 1609  34.228  23.667   1.796
29295W        W 1610  42.284  23.736  10.974
29296W        W 1611  41.204   3.583  13.003
29297W        W 1612   0.242  39.374   4.087
29298W        W 1613  34.798  15.887   2.686
29299W        W 1614   3.767  29.719   2.757
29300W        W 1615  31.667  32.102  14.371
29301W        W 1616  33.261  24.626  11.575
29302W        W 1617  11.531   1.301  11.653
29303W        W 1618  10.814  12.362  13.045
29304W        W 1619   8.343  10.153  14.451
29305W        W 1620  21.001  42.389   0.020
29306W        W 1621  42.475  10.288  11.195
29307W        W 1622  23.598  35.671  11.157
29308W        W 1623   1.688  12.989   2.521
29309W        W 1624  36.557   7.165  11.684
29310W        W 1625  29.949   8.193  13.374
29311W        W 1626  23.271  10.934   2.318
29312W        W 1627   7.544   6.893   1.669
29313W        W 1628  13.541  42.414  13.028
29314W        W 1629  26.927  12.725  13.800
29315W        W 1630  14.907  44.713  11.943
29316W        W 1631  21.056  15.536   4.952
29317W        W 1632   8.709   3.197   0.447
29318W        W 1633  39.855  10.319  11.099
29319W        W 1634  16.639  11.277   4.679
29320W        W 1635  17.089   6.664   4.498
29321W        W 1636  38.498   2.188  12.458
29322W        W 1637  17.614  29.284   0.340
29323W        W 1638  10.131  33.923   0.740
29324W        W 1639  27.864  27.025   3.648
29325W        W 1640  19.677   2.400   0.327
29326W        W 1641  17.927  15.140  12.871
29327W        W 1642  38.569  30.222  10.758
29328W        W 1643  18.779   6.915   1.784
29329W        W 1644  22.365  43.179  12.042
29330W        W 1645   6.043   2.988  10.000
29331W        W 1646  14.833   2.637  11.146
29332W        W 1647  15.308   1.695  12.557
29333W        W 1648  20.240   9.243  13.560
29334W        W 1649  10.828   7.711   1.577
29335W        W 1650   4.974  43.835  12.909
29336W        W 1651  38.040  25.309   0.361
29337W        W 1652  38.478  20.277  11.608
29338W        W 1653   6.212  10.809  11.561
29339W        W 1654  30.191  27.172  14.827
29340W        W 1655  24.064  33.626  14.427
29341W        W 1656   6.855  44.524  14.805
29342W        W 1657   8.420   6.638  14.956
29343W        W 1658  43.724   8.857  11.520
29344W        W 1659  40.975  25.175   4.081
29345W        W 1660  11.611  25.025   0.003
29346W        W 1661  19.692  11.789   9.958
29347W        W 1662  32.637  10.773  12.395
29348W        W 1663  43.865  43.376  12.304
29349W        W 1664  22.935   5.745   0.519
29350W        W 1665   1.611   3.776   3.099
29351W        W 1666   6.385   7.361  14.926
29352W        W 1667  24.198   8.237   2.817
29353W        W 1668  26.944  26.537  13.060
29354W        W 1669  22.461  29.154   0.189
29355W        W 1670  22.313  19.060  14.543
29356W        W 1671  31.228  34.049   3.455
29357W        W 1672   4.511  26.351   0.733
29358W        W 1673  39.358  35.171   0.894
29359W        W 1674  37.574  18.202  12.311
29360W        W 1675  11.708  26.535   0.432
29361W        W 1676  24.652  25.221  14.908
29362W        W 1677   3.795  26.079  12.603
29363W        W 1678  22.683  21.598   1.945
29364W        W 1679  23.065   7.696   1.964
29365W        W 1680   3.306  42.594  13.788
29366W        W 1681  44.845   7.410  13.127
29367W        W 1682  10.966  11.205   4.554
29368W        W 1683   0.349   3.876   4.463
29369W        W 1684  30.119  17.111   1.365
29370W        W 1685   4.250  22.100  14.897
29371W        W 1686  12.825  23.493   2.300
29372W        W 1687  32.702   4.133   2.892
29373W        W 1688  22.196  20.248   4.299
29374W        W 1689   4.134  24.158   3.701
29375W        W 1690  36.908  26.423   1.299
29376W        W 1691  10.634  16.733   4.969
29377W        W 1692  26.664   6.277   2.616
29378W        W 1693  11.861   1.352  10.889
29379W        W 1694  44.283  14.570   2.843
29380W        W 1695  16.280  43.830   0.707
29381W        W 1696   2.034  30.048   2.876
29382W        W 1697   6.920  19.677   0.759
29383W        W 1698   1.748  43.343   4.424
29384W        W 1699  29.477  26.654  14.312
29385W        W 1700   2.812   5.495  10.298
29386W        W 1701  34.281  17.145  12.262
29387W        W 1702  43.104  14.229  11.341
29388W        W 1703  22.174  42.049   1.232
29389W        W 1704  19.014  14.725   2.870
29390W        W 1705  20.757  22.513  13.548
29391W        W 1706   5.598  10.171  11.182
29392W        W 1707  25.716   2.513   1.408
29393W        W 1708  29.365  32.634   1.479
29394W        W 1709  30.434  22.777  12.449
29395W        W 1710  25.712  12.067  12.611
29396W        W 1711  32.143   2.269   0.044
29397W        W 1712   8.567  17.487  14.373
29398W        W 1713  20.527  39.698  11.173
29399W        W 1714  17.263  24.677  13.442
29400W        W 1715  36.536   6.679  11.443
29401W        W 1716   0.285   5.792  14.774
29402W        W 1717  37.391  41.025  13.941
29403W        W 1718  21.312   4.996   0.499
29404W        W 1719  30.027   4.539   4.800
29405W        W 1720  28.624  44.565  12.352
29406W        W 1721  17.343   0.775   1.170
29407W        W 1722  10.833  19.521   3.399
29408W        W 1723  28.592  28.826   3.143
29409W        W 1724  34.349  13.098  14.288
29410W        W 1725  28.041  41.879  11.599
29411W        W 1726  16.723  28.368   0.323
29412W        W 1727  33.569  35.110  14.309
29413W        W 1728  36.460  11.690   4.995
29414W        W 1729  17.774  41.825  13.934
29415W        W 1730  23.227  28.706   1.787
29416W        W 1731  20.424  19.537   0.381
29417W        W 1732  31.500   6.035  12.187
29418W        W 1733   9.206  44.312  12.495
29419W        W 1734  37.662  29.649   3.372
29420W        W 1735  33.361  22.775  12.539
29421W        W 1736  39.564   2.857  13.098
29422W        W 1737   4.363  19.195  11.785
29423W        W 1738  28.023  19.275  14.391
29424W        W 1739  37.018  18.732  14.784
29425W        W 1740  36.481  42.845   1.931
29426W        W 1741  23.734   0.553  11.038
29427W        W 1742  31.186   5.845  13.558
29428W        W 1743   7.616  12.325   4.601
29429W        W 1744  37.817   9.712  13.810
29430W        W 1745  15.592  21.644   4.618
29431W        W 1746  23.237  15.574   1.329
29432W        W 1747  36.078  27.976   1.449
29433W        W 1748  44.339  29.978   1.444
29434W        W 1749  37.094   5.743  11.619
29435W        W 1750  36.778   1.639   0.429
29436W        W 1751  16.700  23.464  11.913
29437W        W 1752  21.563  22.293   3.924
29438W        W 1753  37.154  32.733  12.999
29439W        W 1754  41.750   3.493  10.287
29440W        W 1755  29.647  29.495   3.923
29441W        W 1756  27.430   7.764  11.702
29442W        W 1757  17.111  17.880  11.196
29443W        W 1758  34.871   5.224   0.641
29444W        W 1759  16.783   1.008  13.376
29445W        W 1760  21.890  41.523  11.978
29446W        W 1761  36.148  26.250  11.415
29447W        W 1762   8.656  10.236  11.666
29448W        W 1763   5.006  41.330   4.538
29449W        W 1764  28.098  21.170  12.178
29450W        W 1765  34.346   8.361   0.370
29451W        W 1766  44.029  11.817   1.301
29452W        W 1767  12.287   5.176   3.632
29453W        W 1768  13.893   7.770   2.609
29454W        W 1769  23.414   2.383  13.952
29455W        W 1770  27.111  19.057   4.312
29456W        W 1771  28.629  39.190  13.300
29457W        W 1772   8.787  32.553  13.934
29458W        W 1773   5.424  36.654   0.925
29459W        W 1774  38.028  24.008  10.238
29460W        W 1775  32.149  26.782  10.697
29461W        W 1776  30.456  10.771  13.202
29462W        W 1777  27.724   0.511   3.832
29463W        W 1778  40.625   6.893  13.616
29464W        W 1779  14.833  27.905  13.625
29465W        W 1780  21.093  30.152  10.419
29466W        W 1781  14.365   3.436  14.010
29467W        W 1782  14.353  24.761   2.296
29468W        W 1783  37.895  34.986   4.956
29469W        W 1784   5.151  10.796   4.662
29470W        W 1785  10.002  20.921   0.040
29471W        W 1786  32.437  44.000   1.936
29472W        W 1787  34.394  10.221  14.978
29473W        W 1788  14.352   0.964   3.687
29474W        W 1789   9.443  38.930  13.725
29475W        W 1790  35.971  16.803  14.358
29476W        W 1791  40.302  10.687   2.712
29477W        W 1792   5.647  14.303  12.453
29478W        W 1793   4.162  40.770   0.411
29479W        W 1794  42.291   4.330   2.208
29480W        W 1795   1.427  32.217   1.451
29481W        W 1796  14.573  33.555   3.962
29482W        W 1797  17.901  20.513  10.347
29483W        W 1798  33.364   1.782  10.447
29484W        W 1799  18.948  12.036  12.539
29485W        W 1800   4.963  44.873   0.892
29486W        W 1801  35.108   2.996   2.436
29487W        W 1802  29.638  41.317  13.101
29488W        W 1803  15.249  13.367   4.022
29489W        W 1804  28.760  31.523   1.035
29490W        W 1805  42.559  36.704   4.774
29491W        W 1806  35.980  10.113   4.926
29492W        W 1807  12.413  42.974   0.007
29493W        W 1808   8.096  44.297  14.183
29494W        W 1809  29.735  11.231   4.777
29495W        W 1810   3.693  12.513  12.418
29496W        W 1811  28.504  39.290   4.720
29497W        W 1812  24.522  34.120  10.890
29498W        W 1813  18.768  40.708   5.367
29499W        W 1814  11.168  11.057  12.946
29500W        W 1815   3.760  39.870   3.263
29501W        W 1816  39.080  34.472   3.627
29502W        W 1817  32.913  37.558   1.124
29503W        W 1818  44.504  17.133   3.655
29504W        W 1819  39.401   5.285  14.391
29505W        W 1820  26.416   5.923  13.995
29506W        W 1821  40.682  31.810  14.571
29507W        W 1822  26.077   5.689  11.728
29508W        W 1823  35.652  15.672   2.354
29509W        W 1824  35.961   0.804   2.492
29510W        W 1825   2.791  35.342   4.440
29511W        W 1826  20.694  34.415   2.412
29512W        W 1827  36.198   1.474  12.596
29513W        W 1828  17.662   6.895  10.351
29514W        W 1829  23.968  15.269  14.417
29515W        W 1830  21.766  24.746   0.035
29516W        W 1831  21.205  18.637  11.753
29517W        W 1832  30.551  16.240   3.170
29518W        W 1833   3.351  28.220   0.796
29519W        W 1834  30.701  40.988   4.316
29520W        W 1835  21.177  19.056   3.428
29521W        W 1836  37.643  32.576  12.690
29522W        W 1837  14.093  38.281  14.811
29523W        W 1838  24.952  19.819   4.120
29524W        W 1839  41.899  34.078   0.036
29525W        W 1840  29.671  39.322   4.136
29526W        W 1841  37.553  11.181   4.670
29527W        W 1842  30.427  17.928  13.909
29528W        W 1843  16.722  24.707  13.367
29529W        W 1844  14.530   7.700   1.820
29530W        W 1845  33.162  31.605   0.749
29531W        W 1846  27.526  18.799   4.153
29532W        W 1847  38.639   3.461   5.075
29533W        W 1848  13.334  22.013  10.667
29534W        W 1849  21.013   0.548  10.939
29535W        W 1850  31.810  37.382   3.769
29536W        W 1851   4.339  24.779  11.413
29537W        W 1852  11.726  44.388  12.340
29538W        W 1853  28.866   2.619  12.032
29539W        W 1854  33.292  14.589  13.525
29540W        W 1855  18.045  42.520  12.946
29541W        W 1856  10.853  26.326   4.585
29542W        W 1857  19.185   6.162   4.533
29543W        W 1858  23.306  33.071   1.369
29544W        W 1859  42.989   9.180  12.527
29545W        W 1860   3.775  42.262   2.418
29546W        W 1861  20.632  27.667   3.371
29547W        W 1862  24.991  17.634  12.071
29548W        W 1863  39.435  34.139  11.381
29549W        W 1864  28.138   3.893  12.367
29550W        W 1865   7.451  19.089  12.995
29551W        W 1866  17.561   5.794   3.745
29552W        W 1867  38.986  27.403   9.830
29553W        W 1868   4.872   6.117   3.252
29554W        W 1869  42.668   6.415   3.727
29555W        W 1870  31.530   8.764  13.923
29556W        W 1871  43.808  36.903  14.418
29557W        W 1872  13.759  17.534  13.306
29558W        W 1873  18.152  17.797  12.506
29559W        W 1874  30.109  26.478   0.968
29560W        W 1875  16.464  18.315  12.775
29561W        W 1876   7.891   6.323   1.073
29562W        W 1877   7.442  20.506   4.613
29563W        W 1878   5.648  37.970  12.044
29564W        W 1879   2.212   2.360   0.695
29565W        W 1880  29.179  30.950   2.121
29566W        W 1881  24.751  27.227  14.609
29567W        W 1882  20.140  11.791   5.212
29568W        W 1883  17.851  10.790  14.104
29569W        W 1884  24.458  38.806   1.384
29570W        W 1885  33.001  40.801  11.394
29571W        W 1886  34.075  33.657   3.148
29572W        W 1887  44.703  27.862   2.114
29573W        W 1888  31.472  11.776   4.538
29574W        W 1889  30.155  13.678  12.657
29575W        W 1890  34.371  16.090  14.000
29576W        W 1891  24.215  11.591   3.243
29577W        W 1892  42.179  17.089   1.743
29578W        W 1893  20.853  33.738   3.199
29579W        W 1894   5.153  24.351  11.584
29580W        W 1895  36.541  22.564   3.203
29581W        W 1896  34.021  21.911   2.743
29582W        W 1897  21.358  31.411   1.198
29583W        W 1898  33.232   5.750  13.952
29584W        W 1899  15.844  20.731  13.376
29585W        W 1900  37.599  27.511   0.995
29586W        W 1901  43.469  20.710  13.128
29587W        W 1902  27.599  25.389   2.206
29588W        W 1903  14.156  29.243   1.344
29589W        W 1904  42.765   4.671   1.808
29590W        W 1905  10.085  21.628  11.942
29591W        W 1906  12.370  36.462   3.942
29592W        W 1907  31.506   8.757  14.460
29593W        W 1908  20.781  28.081   0.435
29594W        W 1909  16.019  23.175  11.637
29595W        W 1910   0.939  32.290  14.239
29596W        W 1911   9.164  43.948  14.828
29597W        W 1912   8.985  14.622   1.856
29598W        W 1913  30.882   8.861   1.692
29599W        W 1914  39.155  19.072  12.258
29600W        W 1915  17.731  10.413  13.779
29601W        W 1916  11.860  14.739  13.473
29602W        W 1917   9.380  37.498   0.289
29603W        W 1918  25.202  43.288   1.685
29604W        W 1919  32.524  40.265  10.794
29605W        W 1920   9.777  40.100  13.085
29606W        W 1921  44.486  36.124   3.044
29607W        W 1922  22.787  35.663   4.132
29608W        W 1923  25.303   8.840  11.161
29609W        W 1924  37.430   7.719  11.984
29610W        W 1925  39.031  20.830  14.798
29611W        W 1926   5.693  26.213   0.351
29612W        W 1927  38.099  28.679  13.492
29613W        W 1928  41.849  41.345  12.132
29614W        W 1929  43.297  30.440   0.997
29615W        W 1930  24.847  15.630   4.514
29616W        W 1931  33.437   2.433   4.038
29617W        W 1932   5.795  12.228   3.652
29618W        W 1933   2.173  39.372   0.466
29619W        W 1934  12.283  20.718   4.550
29620W        W 1935  33.924  28.754  11.686
29621W        W 1936  28.665  42.904   4.762
29622W        W 1937   0.326  38.928  10.732
29623W        W 1938  17.177  14.763   2.742
29624W        W 1939  16.276  37.509   0.031
29625W        W 1940  42.281  27.273   2.852
29626W        W 1941  28.848  15.699  10.790
29627W        W 1942  25.794  39.092  14.051
29628W        W 1943  33.861  33.673   1.364
29629W        W 1944  44.851  28.867   2.182
29630W        W 1945   7.367  26.683   3.245
29631W        W 1946  36.172  20.640   4.741
29632W        W 1947  42.836  36.942   1.067
29633W        W 1948  37.513  33.129  13.956
29634W        W 1949  11.277   6.748  10.642
29635W        W 1950  41.697  35.073   3.177
29636W        W 1951   0.832  38.962  14.972
29637W        W 1952  32.538  20.222   1.755
29638W        W 1953   0.903  35.508  12.020
29639W        W 1954  17.287  42.444   4.138
29640W        W 1955  32.423  29.918  10.746
29641W        W 1956  22.861  16.614  14.786
29642W        W 1957  44.302  41.468   3.209
29643W        W 1958  12.495  23.536  12.547
29644W        W 1959  18.717   7.912  12.480
29645W        W 1960   3.146   8.655  13.042
29646W        W 1961   2.698   9.430  10.542
29647W        W 1962  34.357  40.805   2.691
29648W        W 1963  28.206  38.855   1.875
29649W        W 1964  31.371  11.314   2.514
29650W        W 1965  39.903  34.413  10.357
29651W        W 1966   4.294  23.486   2.963
29652W        W 1967  12.398   9.502  12.157
29653W        W 1968  41.056  11.295  11.280
29654W        W 1969   8.855  10.758   3.368
29655W        W 1970  42.860  14.096   1.199
29656W        W 1971  13.507  37.441  12.909
29657W        W 1972  10.760  14.454  14.862
29658W        W 1973  27.177  39.243   2.824
29659W        W 1974  14.032  19.430   5.002
29660W        W 1975  43.936  39.895   0.448
29661W        W 1976  26.212  11.825   1.356
29662W        W 1977  23.530  22.648   2.209
29663W        W 1978  13.376  37.308   3.624
29664W        W 1979  43.024   0.387   0.903
29665W        W 1980  26.414  39.213  12.502
29666W        W 1981  22.616  33.407   4.998
29667W        W 1982  33.139  23.165  11.917
29668W        W 1983  17.743   3.408  13.570
29669W        W 1984   3.877  21.965   0.985
29670W        W 1985  41.734  25.054   4.688
29671W        W 1986  42.128  37.422  10.896
29672W        W 1987  27.781   1.465  13.975
29673W        W 1988  31.995  10.454  10.976
29674W        W 1989  19.770  17.109   1.650
29675W        W 1990  11.741  42.972   4.560
29676W        W 1991  28.835  30.137  12.562
29677W        W 1992   1.817  38.861   4.249
29678W        W 1993  13.637  31.587  12.499
29679W        W 1994   7.430  33.420  10.814
29680W        W 1995  10.228  31.142   2.452
29681W        W 1996  24.986  17.191   1.835
29682W        W 1997  40.582  31.997  14.079
29683W        W 1998  30.257  10.066   0.409
29684W        W 1999  17.604   3.998   3.381
29685W        W 2000  36.726  15.082   2.276
29686W        W 2001  21.939  38.031   1.861
29687W        W 2002   1.285  43.836   1.359
29688W        W 2003  14.898  32.688   0.307
29689W        W 2004  40.215   7.694   2.655
29690W        W 2005  32.654  18.871   3.769
29691W        W 2006  30.558  44.526  11.120
29692W        W 2007  18.889  10.839   4.945
29693W        W 2008  19.088  26.096   2.810
29694W        W 2009  28.081   1.501   2.679
29695W        W 2010  17.674  39.769   0.883
29696W        W 2011   4.500  34.834   0.479
29697W        W 2012  36.938   1.343   3.104
29698W        W 2013  30.497  44.469   0.879
29699W        W 2014  43.387  16.701  11.455
29700W        W 2015  32.464  12.101   3.358
29701W        W 2016  35.493  11.353   4.026
29702W        W 2017  37.725  40.570   0.603
29703W        W 2018  26.646  18.341  14.010
29704W        W 2019   9.181  32.213  13.196
29705W        W 2020  16.704   5.218  13.858
29706W        W 2021  35.559  32.861  11.042
29707W        W 2022   9.426  31.895  13.573
29708W        W 2023  38.246  18.046   3.061
29709W        W 2024   0.892  34.309  14.536
29710W        W 2025  38.323   1.267  13.774
29711W        W 2026  43.086  34.568   1.236
29712W        W 2027   4.024  20.121   2.953
29713W        W 2028  23.006  44.775   4.228
29714W        W 2029  38.320  39.635   3.242
29715W        W 2030  24.069  17.190   0.639
29716W        W 2031  18.267  21.754   1.669
29717W        W 2032  21.135  18.183   1.931
29718W        W 2033  10.187   2.898  12.612
29719W        W 2034  44.902  24.659   3.455
29720W        W 2035  38.331   1.253   4.932
29721W        W 2036  14.654  33.507  13.318
29722W        W 2037   5.407   3.483   4.614
29723W        W 2038  35.822  20.255  11.683
29724W        W 2039  13.366  39.584   4.169
29725W        W 2040   7.368  43.048  10.286
29726W        W 2041   5.722   9.748  12.111
29727W        W 2042  43.070  35.842  12.123
29728W        W 2043  33.621  29.231  14.854
29729W        W 2044  28.078  41.969   3.368
29730W        W 2045  44.974  31.857  10.474
29731W        W 2046   9.634  39.725  14.741
29732W        W 2047  24.590  20.049   4.431
29733W        W 2048  37.626  31.399  11.416
29734W        W 2049  25.584   7.881   3.407
29735W        W 2050  35.369  10.055  10.308
29736W        W 2051  19.617  25.121  13.919
29737W        W 2052  14.092  12.782   2.371
29738W        W 2053  21.761  38.265   0.547
29739W        W 2054  12.971   8.938   0.467
29740W        W 2055  39.756   1.027   0.050
29741W        W 2056  33.962  19.297   1.596
29742W        W 2057  39.076  20.761  10.930
29743W        W 2058  44.924   7.459   2.112
29744W        W 2059  12.805  22.186   0.759
29745W        W 2060  17.990   2.499  13.866
29746W        W 2061  10.708  27.926   3.719
29747W        W 2062   2.557  27.427  12.257
29748W        W 2063  14.033  30.631   0.272
29749W        W 2064  11.349  26.938  11.101
29750W        W 2065  17.762  30.238   5.487
29751W        W 2066  24.294  24.204  10.697
29752W        W 2067  36.510  31.474   4.439
29753W        W 2068  36.438  15.837  12.995
29754W        W 2069  24.431  12.914   3.373
29755W        W 2070  38.226  28.116  11.588
29756W        W 2071   3.156   7.716  13.383
29757W        W 2072  15.309  28.918  10.343
29758W        W 2073  15.540  38.068   4.278
29759W        W 2074  14.242  33.335  11.199
29760W        W 2075   2.858  32.847   1.083
29761W        W 2076  41.287  26.721  12.067
29762W        W 2077  20.200  40.103   4.605
29763W        W 2078  31.874  34.612  13.050
29764W        W 2079   9.803  21.103   2.008
29765W        W 2080  15.490   4.291   0.370
29766W        W 2081  23.725  40.933  14.824
29767W        W 2082  27.981  41.746  13.304
29768W        W 2083   0.510  13.634  12.830
29769W        W 2084   5.796  27.445   0.740
29770W        W 2085  11.719  15.869   4.813
29771W        W 2086  15.023  40.048  11.539
29772W        W 2087  21.952   1.410   0.672
29773W        W 2088   9.506  10.373   4.925
29774W        W 2089  17.709  30.193   3.637
29775W        W 2090  30.565  38.020  11.315
29776W        W 2091  28.056  30.158  14.258
29777W        W 2092  19.129  11.791   0.686
29778W        W 2093   8.838   2.720   1.809
29779W        W 2094  10.362  38.708   3.278
29780W        W 2095  35.683  18.187   3.033
29781W        W 2096  36.770  34.677   2.824
29782W        W 2097  26.931  34.994  12.225
29783W        W 2098  33.178  27.664  11.933
29784W        W 2099  29.159  22.049   2.669
29785W        W 2100  28.767  37.285   3.828
29786W        W 2101  32.611  43.379   0.829
29787W        W 2102  38.962  34.354  11.400
29788W        W 2103  38.232  24.678   1.323
29789W        W 2104  15.726  39.213  12.622
29790W        W 2105   7.375   1.764  14.848
29791W        W 2106  26.151  15.874  12.562
29792W        W 2107   4.366  28.709   4.724
29793W        W 2108  30.884   4.371  11.521
29794W        W 2109  14.788   2.374   4.735
29795W        W 2110  21.176  38.019   3.222
29796W        W 2111  12.203  26.228  11.495
29797W        W 2112  28.406   1.956  14.902
29798W        W 2113  42.469  14.854   4.536
29799W        W 2114  27.190   8.226   1.411
29800W        W 2115  35.063  11.410   3.707
29801W        W 2116  27.382   2.250   2.697
29802W        W 2117   1.247  28.973   0.258
29803W        W 2118   2.615  42.729  12.425
29804W        W 2119  10.091  17.648   0.002
29805W        W 2120  23.572   3.182  14.325
29806W        W 2121   3.478  38.075   1.292
29807W        W 2122  13.363  38.483  11.591
29808W        W 2123  43.919  20.419   2.637
29809W        W 2124  43.439  11.153  10.770
29810W        W 2125  19.679   4.068   4.549
29811W        W 2126  12.289  10.346   2.698
29812W        W 2127  41.408  20.220  13.799
29813W        W 2128  26.268   5.509   5.143
29814W        W 2129  11.553  21.183   1.435
29815W        W 2130  32.553  10.052   2.646
29816W        W 2131  27.475  39.813  13.424
29817W        W 2132   4.199   1.257  11.964
29818W        W 2133  43.259  16.826   0.405
29819W        W 2134  29.917   3.283  11.401
29820W        W 2135  21.528   3.236  12.548
29821W        W 2136  33.137  23.180  10.657
29822W        W 2137  35.654   7.042   2.684
29823W        W 2138   7.594  28.529  12.377
29824W        W 2139  20.001  16.687  13.306
29825W        W 2140  26.176   0.183   4.943
29826W        W 2141  23.898   1.915  13.367
29827W        W 2142  21.605  37.581  12.267
29828W        W 2143  21.768  27.041   3.403
29829W        W 2144  28.031   9.623   2.947
29830W        W 2145   2.437  31.268  11.188
29831W        W 2146  41.397  12.711   0.325
29832W        W 2147   5.631  21.222   2.310
29833W        W 2148   0.522  34.009   5.053
29834W        W 2149  42.207  34.877  14.830
29835W        W 2150  43.982  22.294  11.905
29836W        W 2151  33.990   8.518  12.022
29837W        W 2152  31.046  26.077  13.850
29838W        W 2153   5.543  13.700  14.804
29839W        W 2154  10.147  29.481  14.447
29840W        W 2155  44.907  24.177  12.860
29841W        W 2156  24.235   0.554  11.126
29842W        W 2157   9.147   8.237  11.616
29843W        W 2158  43.830  13.788  14.560
29844W        W 2159  19.940   3.998   1.813
29845W        W 2160  25.594  11.829  12.021
29846W        W 2161  34.971  12.765   1.486
29847W        W 2162   1.983  35.239   3.610
29848W        W 2163  11.597   0.460  10.077
29849W        W 2164  11.721   1.902   4.609
29850W        W 2165  39.651   9.890  12.536
29851W        W 2166  25.513  30.564   5.053
29852W        W 2167  41.786   1.023  11.156
29853W        W 2168  39.905  35.129  11.194
29854W        W 2169  23.746  24.306   0.608
29855W        W 2170  33.357  17.848  13.823
29856W        W 2171  29.397  19.743   3.347
29857W        W 2172  22.575  16.144  14.117
29858W        W 2173  19.047  16.629   3.566
29859W        W 2174  34.795  20.285   2.219
29860W        W 2175   3.656   0.675  13.481
29861W        W 2176  31.015  39.322   1.551
29862W        W 2177  29.070  14.582   2.250
29863W        W 2178  35.812  39.462  11.650
29864W        W 2179   6.828  21.025   1.483
29865W        W 2180  11.721  32.024  10.637
29866W        W 2181  21.002  35.424   0.228
29867W        W 2182   9.181  43.970  12.876
29868W        W 2183  21.371  20.211  10.139
29869W        W 2184  37.820  37.331   4.635
29870W        W 2185   5.435  38.974   2.646
29871W        W 2186  38.228  42.842   0.345
29872W        W 2187  29.567   4.345  12.198
29873W        W 2188   3.655  19.782  10.669
29874W        W 2189  30.502  23.350  11.617
29875W        W 2190  27.847  10.195   3.692
29876W        W 2191   3.110  31.976  13.060
29877W        W 2192   4.691  12.121  13.832
29878W        W 2193  40.986   9.925   3.402
29879W        W 2194   8.226  11.581  14.736
29880W        W 2195  20.696  44.242  13.633
29881W        W 2196   1.826  13.552   4.693
29882W        W 2197  18.360   1.022  10.765
29883W        W 2198  15.831  37.259   2.300
29884W        W 2199  18.875  14.263   0.431
29885W        W 2200  40.816  33.100   2.305
29886W        W 2201  29.871   0.394   2.025
29887W        W 2202  20.962  42.066   1.367
29888W        W 2203  11.664  11.096   2.657
29889W        W 2204  12.360  17.680   4.748
29890W        W 2205  43.912  12.908  13.539
29891W        W 2206  41.016  23.211  14.865
29892W        W 2207  32.582  22.517  12.118
29893W        W 2208   1.473   5.955   4.249
29894W        W 2209  20.170  18.119   4.217
29895W        W 2210  25.886  37.920  13.075
29896W        W 2211  42.072  31.569   2.261
29897W        W 2212  36.736  20.826  14.409
29898W        W 2213   2.776  39.577   1.800
29899W        W 2214   2.245  11.818  11.992
29900W        W 2215  36.977  34.868  14.359
29901W        W 2216   1.500   1.887   3.549
29902W        W 2217  30.997  25.025  11.266
29903W        W 2218  34.738  26.064   0.459
29904W        W 2219  43.580   9.734  12.599
29905W        W 2220   6.923  35.128   4.319
29906W        W 2221  21.608  13.527   3.204
29907W        W 2222   5.455  32.853   1.700
29908W        W 2223  22.926  21.855  12.866
29909W        W 2224  21.662  19.751   3.038
29910W        W 2225  26.694  40.968  11.111
29911W        W 2226  17.749  40.265   9.878
29912W        W 2227  24.979  38.969  11.186
29913W        W 2228  44.445   5.966  13.527
29914W        W 2229   7.627  40.293  13.431
29915W        W 2230  33.043  22.991   1.160
29916W        W 2231  26.511  38.944   4.369
29917W        W 2232  10.592  32.981  10.665
29918W        W 2233   3.617  41.047   3.431
29919W        W 2234   5.461  43.852   2.794
29920W        W 2235  34.477  34.356  12.570
29921W        W 2236   9.437  10.103  11.995
29922W        W 2237  36.341  10.813   0.770
29923W        W 2238  41.576  40.870   3.901
29924W        W 2239  31.598  27.356   0.448
29925W        W 2240  42.724  41.787   2.492
29926W        W 2241  42.849   0.367   2.342
29927W        W 2242   9.423  26.644   0.449
29928W        W 2243  16.610   6.762   2.340
29929W        W 2244  41.422  39.236   0.292
29930W        W 2245  27.193  13.690   0.939
29931W        W 2246   1.448  27.019   1.795
29932W        W 2247  13.176  38.932  13.044
29933W        W 2248  15.470  19.826  12.892
29934W        W 2249  43.277  14.194   4.537
29935W        W 2250  20.254  25.646   2.959
29936W        W 2251  30.842   5.787   4.909
29937W        W 2252   4.305   6.285   4.786
29938W        W 2253  17.063   8.383   0.041
29939W        W 2254  13.677  36.303   3.264
29940W        W 2255   3.771  10.263   3.818
29941W        W 2256  11.154  23.621  14.411
29942W        W 2257   1.017   7.713  11.123
29943W        W 2258   2.297  31.479  13.306
29944W        W 2259   3.880  31.866   4.609
29945W        W 2260   5.892  12.691  13.983
29946W        W 2261  25.204   1.551   3.206
29947W        W 2262  30.744   9.870  13.588
29948W        W 2263   9.334  26.995  12.815
29949W        W 2264   0.225  36.906   1.375
29950W        W 2265  20.442   8.087  12.023
29951W        W 2266  30.145  33.675   2.377
29952W        W 2267  26.484  17.734   4.186
29953W        W 2268   8.377   7.816   1.081
29954W        W 2269  37.791  31.964  14.496
29955W        W 2270  35.051  40.678  11.329
29956W        W 2271  43.390  22.023  12.902
29957W        W 2272  24.943  13.680   2.303
29958W        W 2273  44.498  38.530  14.846
29959W        W 2274  38.875   1.430  10.733
29960W        W 2275  17.623  21.580  13.394
29961W        W 2276   0.451  12.285  14.905
29962W        W 2277  13.795  37.540  11.374
29963W        W 2278  10.355  44.265   4.503
29964W        W 2279  38.750  34.414   2.667
29965W        W 2280  11.548   2.290  12.560
29966W        W 2281  36.426   2.158   1.621
29967W        W 2282  17.498  17.836  11.949
29968W        W 2283  31.105  17.284  11.555
29969W        W 2284   4.752  39.837   4.955
29970W        W 2285  43.230  38.899   0.138
29971W        W 2286  12.280   7.219   0.413
29972W        W 2287  27.079   5.125  10.595
29973W        W 2288  28.709  17.427   3.915
29974W        W 2289  15.770   1.821   0.917
29975W        W 2290  42.018  39.700  12.842
29976W        W 2291  16.254  34.932  13.030
29977W        W 2292  13.927  39.419   2.712
29978W        W 2293  10.609  35.666   0.820
29979W        W 2294  40.745   5.185  14.773
29980W        W 2295   4.240  32.437   1.410
29981W        W 2296  40.039  33.950   4.527
29982W        W 2297  39.981  42.415   1.215
29983W        W 2298  23.423  16.621  14.026
29984W        W 2299  11.911  22.498  14.819
29985W        W 2300  33.938  17.053   2.697
29986W        W 2301  13.504  18.739   0.623
29987W        W 2302   6.542  16.964   3.388
29988W        W 2303   9.790  18.654  14.365
29989W        W 2304  32.937  26.978   3.205
29990W        W 2305  25.788  42.222   4.726
29991W        W 2306  21.779  43.777  12.428
29992W        W 2307  27.008  44.636  12.772
29993W        W 2308  11.246  42.292  12.118
29994W        W 2309   3.850  21.145   2.822
29995W        W 2310   2.351   3.675  11.570
29996W        W 2311  24.141  31.400  13.487
29997W        W 2312  23.708   2.200   0.243
29998W        W 2313  30.345  16.499   0.844
29999W        W 2314  43.522   8.230   4.521
30000W        W 2315  31.491  24.515   2.421
30001W        W 2316  29.909  10.877  14.088
30002W        W 2317  33.575   5.653  12.380
30003W        W 2318   1.102   3.600   2.995
30004W        W 2319  22.785  28.367   1.762
30005W        W 2320  36.931  39.985   3.730
30006W        W 2321  34.871  33.914   2.473
30007W        W 2322  37.058  39.844  14.336
30008W        W 2323  23.503  43.005   2.924
30009W        W 2324  36.042  28.552  14.691
30010W        W 2325  32.117  36.055  11.564
30011W        W 2326   6.277  11.329  11.494
30012W        W 2327  22.518  19.038   3.824
30013W        W 2328   7.793   1.353   1.286
30014W        W 2329  13.179  44.937  14.545
30015W        W 2330  10.854  17.209  14.298
30016W        W 2331  19.482  13.212  10.710
30017W        W 2332  18.850  20.122   3.955
30018W        W 2333  44.785   9.307   2.861
30019W        W 2334  34.381  18.110  12.356
30020W        W 2335  31.976  41.351   1.734
30021W        W 2336   9.113  41.020   2.769
30022W        W 2337   5.457  34.824   3.305
30023W        W 2338  40.067  12.772  11.091
30024W        W 2339  24.933  38.582   2.670
30025W        W 2340  12.669  23.229  13.814
30026W        W 2341  26.483   2.185  11.531
30027W        W 2342  10.582   3.904   3.150
30028W        W 2343  29.051  23.159  12.132
30029W        W 2344  15.848  42.308   4.699
30030W        W 2345  23.212  34.791  13.393
30031W        W 2346   2.897  10.126   2.286
30032W        W 2347   8.797  38.545   3.149
30033W        W 2348  40.927  38.815  13.266
30034W        W 2349   8.741  30.913   1.319
30035W        W 2350   5.282  30.957  13.324
30036W        W 2351  19.302  27.932   2.607
30037W        W 2352  24.112  25.141  14.774
30038W        W 2353  32.382  12.320  14.960
30039W        W 2354  33.542   1.795   4.650
30040W        W 2355  27.803  24.004   1.690
30041W        W 2356   8.608  34.467  13.479
30042W        W 2357  19.556  24.029  14.806
30043W        W 2358  21.279  41.107  14.556
30044W        W 2359  30.335  12.196  11.238
30045W        W 2360  38.075  26.248   5.127
30046W        W 2361   8.468  16.667   4.983
30047W        W 2362   4.934  22.818   2.736
30048W        W 2363   4.737  20.616   0.522
30049W        W 2364  11.234  38.796   4.293
30050W        W 2365  10.912  12.651  12.477
30051W        W 2366  39.347  32.243  11.649
30052W        W 2367  15.615  21.250  11.989
30053W        W 2368  12.832   4.728  10.521
30054W        W 2369   5.146  21.178   4.192
30055W        W 2370  27.032   5.404   0.067
30056W        W 2371   2.003  35.939   4.484
30057W        W 2372  44.714  43.033   0.578
30058W        W 2373  29.552   3.972  12.562
30059W        W 2374   0.543   1.795  12.394
30060W        W 2375  24.112  34.025   3.923
30061W        W 2376  19.844   9.363   0.994
30062W        W 2377  16.393  14.154   2.629
30063W        W 2378  19.527  26.450   0.146
30064W        W 2379  33.088  11.140   0.340
30065W        W 2380  23.358  40.792   3.325
30066W        W 2381   5.290  36.523  12.388
30067W        W 2382  26.173  31.076  10.980
30068W        W 2383  33.848  27.436  10.733
30069W        W 2384  30.444  14.289  13.884
30070W        W 2385  39.485   7.947  11.585
30071W        W 2386  21.077  44.035   2.861
30072W        W 2387  24.559  26.310  11.119
30073W        W 2388  10.212  30.429  11.119
30074W        W 2389   8.664  30.076  13.479
30075W        W 2390   5.549   7.282  11.507
30076W        W 2391  39.484  34.710   3.895
30077W        W 2392  21.033  37.535   4.378
30078W        W 2393   9.574  42.309   1.672
30079W        W 2394   1.786   1.138  13.439
30080W        W 2395  17.581  26.000  11.157
30081W        W 2396  35.438  14.040  14.891
30082W        W 2397  12.819  29.025  12.823
30083W        W 2398  14.331  23.537   3.779
30084W        W 2399  32.037  20.096  14.362
30085W        W 2400  29.884  12.642   4.064
30086W        W 2401  39.100  28.267   3.901
30087W        W 2402  16.659  38.537  10.146
30088W        W 2403   8.123  41.851   0.342
30089W        W 2404  14.095  14.878   1.283
30090W        W 2405  38.349  43.890   3.648
30091W        W 2406  32.375   8.463   3.237
30092W        W 2407  17.779  28.534  12.530
30093W        W 2408  22.788   6.257   1.562
30094W        W 2409  13.321  35.586  12.599
30095W        W 2410  10.803   2.475  14.409
30096W        W 2411  29.150  30.215   4.516
30097W        W 2412   9.817  14.857  10.755
30098W        W 2413   9.213   9.677  10.735
30099W        W 2414  10.147  30.149  11.552
30100W        W 2415  39.064  19.597   3.673
30101W        W 2416  27.887  15.871  12.903
30102W        W 2417  17.072  21.917   1.847
30103W        W 2418   8.687  32.209   3.980
30104W        W 2419   2.423  43.040   3.693
30105W        W 2420  28.192  21.817  10.490
30106W        W 2421  41.890  19.133   1.928
30107W        W 2422  22.809  26.725   1.359
30108W        W 2423  27.948  25.728  10.691
30109W        W 2424  28.064  24.028  11.350
30110W        W 2425   8.350   7.368  13.797
30111W        W 2426  23.483   1.657   4.682
30112W        W 2427   7.241  25.630   0.421
30113W        W 2428  44.847  24.790   3.945
30114W        W 2429  14.727  33.107  11.204
30115W        W 2430  10.163  43.033  12.844
30116W        W 2431  12.762   3.272   2.285
30117W        W 2432  28.054   8.278  12.129
30118W        W 2433  24.458  26.498   2.289
30119W        W 2434   4.186  27.727  13.452
30120W        W 2435  14.664   9.191  11.925
30121W        W 2436  10.885  41.462  13.042
30122W        W 2437  23.693  26.041  12.169
30123W        W 2438  12.583  37.010   4.810
30124W        W 2439   4.192   0.223  11.455
30125W        W 2440  24.139  24.490   0.932
30126W        W 2441  40.391  37.042   3.857
30127W        W 2442   7.359  20.226   3.194
30128W        W 2443   0.805   3.758  11.175
30129W        W 2444  16.529  10.193   2.673
30130W        W 2445  42.815  28.622   3.921
30131W        W 2446  39.482  14.104   5.210
30132W        W 2447   0.991  39.056  12.939
30133W        W 2448   8.169   7.311  11.910
30134W        W 2449  32.588  26.192   1.221
30135W        W 2450   1.153   2.252  13.847
30136W        W 2451  34.449  38.136  14.542
30137W        W 2452  12.296  37.576  11.491
30138W        W 2453  37.777  34.837   1.454
30139W        W 2454   6.887  18.301   1.912
30140W        W 2455   7.787  36.327  13.895
30141W        W 2456  30.046  38.108   0.003
30142W        W 2457  24.655   8.316   3.054
30143W        W 2458   6.924   7.788   3.593
30144W        W 2459  30.150   6.360   3.670
30145W        W 2460  11.574  38.651  11.175
30146W        W 2461  29.221  36.898   2.196
30147W        W 2462  11.875  32.873  12.094
30148W        W 2463   0.424  37.606  11.887
30149W        W 2464  37.838   0.978  12.959
30150W        W 2465  21.987  32.410   4.627
30151W        W 2466  11.276  31.019   1.235
30152W        W 2467   6.721  33.394   4.506
30153W        W 2468  15.134  39.376  11.125
30154W        W 2469  34.254  41.193   3.278
30155W        W 2470  32.901  13.849   0.014
30156W        W 2471   1.600  32.956  13.754
30157W        W 2472  44.906  34.502   1.056
30158W        W 2473  17.077   6.610   3.237
30159W        W 2474  11.053  17.292   1.786
30160W        W 2475  30.030  23.320   4.357
30161W        W 2476  11.829  17.115   0.296
30162W        W 2477   4.287   4.248   0.869
30163W        W 2478  24.228  20.069   0.240
30164W        W 2479   9.212  31.186  13.094
30165W        W 2480   2.865   6.256  13.932
30166W        W 2481  15.189  39.714   4.870
30167W        W 2482  15.179   2.890   3.515
30168W        W 2483  32.109  44.260   4.196
30169W        W 2484   0.521  33.964   5.574
30170W        W 2485   0.419   2.750  14.021
30171W        W 2486  16.384  19.936   4.193
30172W        W 2487  26.624  11.089  13.474
30173W        W 2488  22.555  39.874   4.659
30174W        W 2489  10.569  22.142   3.248
30175W        W 2490  37.539  38.841   1.432
30176W        W 2491  26.865  28.399   3.646
30177W        W 2492  13.839  37.551   0.918
30178W        W 2493  18.609  40.492   1.758
30179W        W 2494  18.473  20.680  12.011
30180W        W 2495  41.273  38.759   2.707
30181W        W 2496  20.759  17.042   1.104
30182W        W 2497  37.058  35.362   1.472
30183W        W 2498  21.054  16.729  12.453
30184W        W 2499   8.643  19.289   0.388
30185W        W 2500  36.961  18.899  12.267
30186W        W 2501  24.954  16.173  12.559
30187W        W 2502  38.090  29.232   2.730
30188W        W 2503  36.949  24.660  10.682
30189W        W 2504  44.233  25.646   2.202
30190W        W 2505  38.504  15.331  12.949
30191W        W 2506  42.063  26.162   3.760
30192W        W 2507  26.523  27.583   0.036
30193W        W 2508  16.776  34.390   3.161
30194W        W 2509  40.425   3.736  14.560
30195W        W 2510  36.338   2.959   1.222
30196W        W 2511  40.130   8.795   1.272
30197W        W 2512  20.261  27.065  13.562
30198W        W 2513  26.583  12.635   0.003
30199W        W 2514   1.519  35.654   5.175
30200W        W 2515  38.215  25.163   4.057
30201W        W 2516  37.882  17.593   3.409
30202W        W 2517   2.235  23.561  14.912
30203W        W 2518  35.594  24.584   3.977
30204W        W 2519  17.379  16.009  13.859
30205W        W 2520   8.810  31.701   4.115
30206W        W 2521  10.752  29.649   0.279
30207W        W 2522  21.032  27.898   2.317
30208W        W 2523  29.210  42.280   0.496
30209W        W 2524  23.072   4.309   4.061
30210W        W 2525  27.101  11.313   2.675
30211W        W 2526  26.679  25.177   4.567
30212W        W 2527  40.408  28.281   5.155
30213W        W 2528  29.119  40.124  14.997
30214W        W 2529  43.517  22.756  10.724
30215W        W 2530   5.835   2.601   2.595
30216W        W 2531  28.341  19.590   0.288
30217W        W 2532  36.930  26.904  13.101
30218W        W 2533  18.715   6.615  14.873
30219W        W 2534  39.367  36.541   3.766
30220W        W 2535  30.355  13.784  13.868
30221W        W 2536  44.705  17.992   2.249
30222W        W 2537  37.402  23.981  13.853
30223W        W 2538   2.995   2.424   0.487
30224W        W 2539  17.054   0.396  10.600
30225W        W 2540  41.012   6.735  14.045
30226W        W 2541  17.487   4.206   0.947
30227W        W 2542  42.694  29.971  13.892
30228W        W 2543  25.083   5.469   2.314
30229W        W 2544  22.582  37.835   0.039
30230W        W 2545  32.895  20.237  11.198
30231W        W 2546  15.781  20.636   3.762
30232W        W 2547  20.915   0.895   3.284
30233W        W 2548  31.836   9.747  13.010
30234W        W 2549  44.012  21.663   4.505
30235W        W 2550  44.977  29.547   3.859
30236W        W 2551  13.813   9.106  12.481
30237W        W 2552  13.038  13.433   4.133
30238W        W 2553  20.210  20.434  14.983
30239W        W 2554  41.446  39.549   3.291
30240W        W 2555  15.034  20.438   4.146
30241W        W 2556  12.212   0.296  12.780
30242W        W 2557   8.369  26.436  13.698
30243W        W 2558   9.052  14.235   4.605
30244W        W 2559  18.187  26.931   0.999
30245W        W 2560  15.219  28.444  13.905
30246W        W 2561   0.550  21.441  14.987
30247W        W 2562  29.732  18.060   2.912
30248W        W 2563   8.864   0.770  10.886
30249W        W 2564  18.625  34.923   1.725
30250W        W 2565  20.614  20.602   1.205
30251W        W 2566  19.489  11.555  10.942
30252W        W 2567   1.064  27.055  13.884
30253W        W 2568  32.899  12.111   4.442
30254W        W 2569  25.215  14.083  11.079
30255W        W 2570  15.585  13.972   3.170
30256W        W 2571  28.263  10.092   2.910
30257W        W 2572  23.241  22.271  11.569
30258W        W 2573  16.340  12.173   1.461
30259W        W 2574  33.439  33.337   3.693
30260W        W 2575   2.305  42.716  14.847
30261W        W 2576   8.372  31.473   1.651
30262W        W 2577  37.334  43.734  11.611
30263W        W 2578  36.532  18.616   0.002
30264W        W 2579  31.888  11.048  13.952
30265W        W 2580  22.253  35.962   4.830
30266W        W 2581  36.481  28.969   2.656
30267W        W 2582  14.122  37.526   4.239
30268W        W 2583  12.185  25.526   3.620
30269W        W 2584   0.154  24.454   2.716
30270W        W 2585   0.425  16.687  11.072
30271W        W 2586  43.726   3.685  11.102
30272W        W 2587  14.946  27.154   3.350
30273W        W 2588  41.849   0.828  12.276
30274W        W 2589  44.388  33.152   1.451
30275W        W 2590  21.622  25.417   4.533
30276W        W 2591  37.469  22.562  14.338
30277W        W 2592  13.927   2.323   1.260
30278W        W 2593  22.083  33.052  10.758
30279W        W 2594  16.522  29.490   3.077
30280W        W 2595  42.911  15.151  11.453
30281W        W 2596  40.500  41.327   4.143
30282W        W 2597  12.854  36.515   4.151
30283W        W 2598  34.970  35.906  13.804
30284W        W 2599   7.405  14.274   3.222
30285W        W 2600  12.179   5.138   1.145
30286W        W 2601  43.810  14.699   1.967
30287W        W 2602  25.102  20.203  10.043
30288W        W 2603  29.380  44.310   2.656
30289W        W 2604  11.771  24.593   4.052
30290W        W 2605  11.913  35.141   2.632
30291W        W 2606   5.384  43.099   0.884
30292W        W 2607  42.400  41.849   4.408
30293W        W 2608  36.167  35.014  14.907
30294W        W 2609   2.260  18.061  13.497
30295W        W 2610  33.509   4.266   2.951
30296W        W 2611  15.811  15.138   0.808
30297W        W 2612  36.699  35.672   4.615
30298W        W 2613  30.296  36.897  13.538
30299W        W 2614  15.970  22.303   0.000
30300W        W 2615  13.133   2.756   0.751
30301W        W 2616  28.941  26.569   2.252
30302W        W 2617  42.518  16.575  11.730
30303W        W 2618   6.166   8.946   2.873
30304W        W 2619   2.479  34.778   4.188
30305W        W 2620  24.125  22.500   4.630
30306W        W 2621  43.591  10.240   0.598
30307W        W 2622  22.023  28.960   1.171
30308W        W 2623  19.741  21.521   0.497
30309W        W 2624  19.549  10.684   2.289
30310W        W 2625  28.084  40.189   4.111
30311W        W 2626  21.886   7.369   4.139
30312W        W 2627   1.218  36.739   0.496
30313W        W 2628  27.747   6.884   2.779
30314W        W 2629  25.027  16.268   0.888
30315W        W 2630   2.154  20.523  11.221
30316W        W 2631  43.309  10.652  11.678
30317W        W 2632   9.429   9.119  14.541
30318W        W 2633  34.387  38.991  14.784
30319W        W 2634  34.081   5.218   0.303
30320W        W 2635  20.733  23.452   3.656
30321W        W 2636   3.374   9.149   1.768
30322W        W 2637   2.428  19.700   2.740
30323W        W 2638  35.561  44.021   1.226
30324W        W 2639  10.666  41.943  11.408
30325W        W 2640  26.194   5.924  12.734
30326W        W 2641  13.722  26.237   2.809
30327W        W 2642  10.133  25.166  13.950
30328W        W 2643  16.169  20.545   0.049
30329W        W 2644  21.565  20.681   9.976
30330W        W 2645   5.365  15.590   0.042
30331W        W 2646  24.712   4.277  14.120
30332W        W 2647  18.938  37.309  14.412
30333W        W 2648  36.909   7.725  12.509
30334W        W 2649   7.567  43.835  11.075
30335W        W 2650  41.419  36.821   1.916
30336W        W 2651  23.030  44.949   3.230
30337W        W 2652  41.161  38.081   1.905
30338W        W 2653  11.338  16.251   2.542
30339W        W 2654  20.311   7.994   0.867
30340W        W 2655  30.967  41.898  11.889
30341W        W 2656  43.295  33.467   0.914
30342W        W 2657   6.404  15.797  13.824
30343W        W 2658  38.970  43.287   3.298
30344W        W 2659  44.294  43.352   4.073
30345W        W 2660  31.865  32.218  10.690
30346W        W 2661   4.277  30.693   3.202
30347W        W 2662  43.244  30.184   0.282
30348W        W 2663  41.935  27.980   1.191
30349W        W 2664  22.425  42.752   1.692
30350W        W 2665   3.495  12.650   3.695
30351W        W 2666  13.751  35.552  13.144
30352W        W 2667  30.482  38.895  12.823
30353W        W 2668   4.777  31.252  11.138
30354W        W 2669  36.259  32.512   2.822
30355W        W 2670  41.756  39.062  11.565
30356W        W 2671  19.168  29.368   0.896
30357W        W 2672  18.282   1.521  12.924
30358W        W 2673   9.042  42.523   2.148
30359W        W 2674  27.932  25.110   3.146
30360W        W 2675  12.664  37.680  13.921
30361W        W 2676  10.678  14.856   2.414
30362W        W 2677  11.345  34.954  14.583
30363W        W 2678  25.497  43.331  12.627
30364W        W 2679  35.925  20.501   3.281
30365W        W 2680  42.533   9.687   1.921
30366W        W 2681   7.377  12.684   3.287
30367W        W 2682  38.457  10.056   4.101
30368W        W 2683  20.231  12.206  13.354
30369W        W 2684  13.785  10.115   3.614
30370W        W 2685  20.751   8.643   1.323
30371W        W 2686  21.433  20.271  11.045
30372W        W 2687  39.976  21.778   3.110
30373W        W 2688   0.697  29.582   2.257
30374W        W 2689  22.089   4.860  10.523
30375W        W 2690  34.522  35.328  13.613
30376W        W 2691  27.042  43.361   2.231
30377W        W 2692  36.945  37.585  10.489
30378W        W 2693   3.118  29.533  14.921
30379W        W 2694  28.979  18.089   0.310
30380W        W 2695  28.946  31.463  13.265
30381W        W 2696   7.254  20.938   1.157
30382W        W 2697  10.061   7.807  12.980
30383W        W 2698  25.004  35.163   0.935
30384W        W 2699  40.920   7.832   0.954
30385W        W 2700  31.483   2.088   4.954
30386W        W 2701  41.742   3.762   1.743
30387W        W 2702  25.273  17.163  11.971
30388W        W 2703  17.018  42.909   2.708
30389W        W 2704  12.341  11.701  12.769
30390W        W 2705   7.553  20.835  14.795
30391W        W 2706   0.870  29.587   0.697
30392W        W 2707  35.806  25.465   3.111
30393W        W 2708  16.725  15.660   2.190
30394W        W 2709  44.841  33.257  14.435
30395W        W 2710  16.309   2.897  14.581
30396W        W 2711   0.020  35.969   4.666
30397W        W 2712  12.760  12.312  10.623
30398W        W 2713  28.727  26.578   1.473
30399W        W 2714  23.644  40.481  14.523
30400W        W 2715  11.036  24.533  11.531
30401W        W 2716  39.136  31.640  12.418
30402W        W 2717  38.740  14.247  12.501
30403W        W 2718  31.055  35.030  13.963
30404W        W 2719  40.121  26.175   9.510
30405W        W 2720  39.908  16.538  13.796
30406W        W 2721  33.009  37.929   2.075
30407W        W 2722  31.962  43.177  11.691
30408W        W 2723  22.558   5.333   0.691
30409W        W 2724   5.460  28.989   2.153
30410W        W 2725  29.169   6.892  12.129
30411W        W 2726  39.808  23.228   4.720
30412W        W 2727   5.358   7.662  14.345
30413W        W 2728  15.694  10.127  13.332
30414W        W 2729  41.025  35.950   1.956
30415W        W 2730  33.320   5.605   0.999
30416W        W 2731  33.086   7.310  14.698
30417W        W 2732  30.057  34.942   2.884
30418W        W 2733  34.702  44.812   4.681
30419W        W 2734  20.293  18.880   1.379
30420W        W 2735  22.957  17.380  14.396
30421W        W 2736  25.606  20.335  10.051
30422W        W 2737  15.526  26.766  13.468
30423W        W 2738   1.015  30.456  14.352
30424W        W 2739   5.683  21.528  12.392
30425W        W 2740  24.650  39.062   0.768
30426W        W 2741  35.131   3.397   4.555
30427W        W 2742  34.452  11.949  13.007
30428W        W 2743  35.847  25.717  14.125
30429W        W 2744  14.099  29.537  10.535
30430W        W 2745  39.025  15.243   4.044
30431W        W 2746  14.681  42.765   3.967
30432W        W 2747   2.517  18.272  11.606
30433W        W 2748  19.017  43.274  14.924
30434W        W 2749  25.099  43.742  11.210
30435W        W 2750  14.121  28.714   1.394
30436W        W 2751  11.440   7.882   4.783
30437W        W 2752  23.461   7.158   4.049
30438W        W 2753  33.456  11.525   0.421
30439W        W 2754  20.828  41.975   2.476
30440W        W 2755  30.625   9.248   3.179
30441W        W 2756  41.900   9.169  11.104
30442W        W 2757  12.514  10.149  14.454
30443W        W 2758  19.019  28.483   4.310
30444W        W 2759  42.966  10.338  13.397
30445W        W 2760   6.263  43.251  13.880
30446W        W 2761   2.947  40.330   2.285
30447W        W 2762   7.302  44.622   2.835
30448W        W 2763  34.837  19.472   1.841
30449W        W 2764  32.464  36.865   4.563
30450W        W 2765  17.004  40.295  14.759
30451W        W 2766  39.016   1.313  11.520
30452W        W 2767  26.450  16.666  11.489
30453W        W 2768   5.258  17.787   0.253
30454W        W 2769   4.721  16.216   1.668
30455W        W 2770  25.175  16.690   1.832
30456W        W 2771  20.000   6.916  13.513
30457W        W 2772  17.586  15.826  14.928
30458W        W 2773   3.388   4.759  12.480
30459W        W 2774  43.900  31.369   0.210
30460W        W 2775   9.246   8.584   3.308
30461W        W 2776  10.639  29.493   2.950
30462W        W 2777  45.000  12.664  11.074
30463W        W 2778   4.299  18.440   4.049
30464W        W 2779  28.178   4.858   0.453
30465W        W 2780  17.836  39.951   1.831
30466W        W 2781  40.700  37.835   1.972
30467W        W 2782  11.777  14.123   2.091
30468W        W 2783   6.381  15.353   4.383
30469W        W 2784  12.348  31.907   2.949
30470W        W 2785   8.261  19.104  10.745
30471W        W 2786  11.725   2.180   0.756
30472W        W 2787   9.383  40.295  13.939
30473W        W 2788  33.430   0.983   0.860
30474W        W 2789  43.986   6.954  11.496
30475W        W 2790  33.479   7.715  14.723
30476W        W 2791  23.225  43.741  12.159
30477W        W 2792   7.884   9.243   0.451
30478W        W 2793  21.334  33.744  13.047
30479W        W 2794   0.610   1.687   1.174
30480W        W 2795  36.061   1.714   1.768
30481W        W 2796  23.764   3.289  13.036
30482W        W 2797  17.741  28.134  13.420
30483W        W 2798  33.065  20.859   3.818
30484W        W 2799  18.828   9.277  14.559
30485W        W 2800   5.868   5.520  10.574
30486W        W 2801  35.424  10.241  13.003
30487W        W 2802   4.650  44.779   2.017
30488W        W 2803  44.311  22.633  13.483
30489W        W 2804   4.563  31.136   4.039
30490W        W 2805  21.899  16.199  11.430
30491W        W 2806   5.789  32.318   3.761
30492W        W 2807  33.365  24.112  10.595
30493W        W 2808  32.396  42.587   1.820
30494W        W 2809  36.974  41.447   0.125
30495W        W 2810  41.001  19.435  11.048
30496W        W 2811  40.963  33.884  12.068
30497W        W 2812  15.878  39.863   0.354
30498W        W 2813   2.437  34.084  12.567
30499W        W 2814  24.528  33.799   2.680
30500W        W 2815  12.512  29.490   0.785
30501W        W 2816   9.827  36.993  10.545
30502W        W 2817  28.162  21.215   2.779
30503W        W 2818   4.657  35.445  14.301
30504W        W 2819  44.551  35.889   4.896
30505W        W 2820   9.866  41.359  12.527
30506W        W 2821   1.242   1.234  10.754
30507W        W 2822  41.438  38.050   0.919
30508W        W 2823  33.642  41.028  10.651
30509W        W 2824   5.197  43.846  14.423
30510W        W 2825   6.478  13.593   1.513
30511W        W 2826  39.896  36.096  11.589
30512W        W 2827  22.271  42.362  10.923
30513W        W 2828  28.058  25.513  14.931
30514W        W 2829  33.956  21.138   4.199
30515W        W 2830  19.206  28.349   0.725
30516W        W 2831  12.172  28.970  11.972
30517W        W 2832  19.617  15.873  10.253
30518W        W 2833   1.063  15.335   2.669
30519W        W 2834  17.148  35.830  14.900
30520W        W 2835  25.073  44.404   3.278
30521W        W 2836  28.869  44.436  12.805
30522W        W 2837  20.803   1.730   4.235
30523W        W 2838  25.197   3.499  12.468
30524W        W 2839   7.691  34.079  12.988
30525W        W 2840  19.961  18.040   4.690
30526W        W 2841  19.272   5.742  14.218
30527W        W 2842   6.911  15.235   4.553
30528W        W 2843  20.808  20.312  13.340
30529W        W 2844  22.057  36.872   1.391
30530W        W 2845   8.934  11.943   3.692
30531W        W 2846  38.547   7.391   1.018
30532W        W 2847  29.696   4.381   3.784
30533W        W 2848  41.511  22.406   1.313
30534W        W 2849  38.043  26.053  12.650
30535W        W 2850  24.433  36.077  12.545
30536W        W 2851  35.353   9.915   4.667
30537W        W 2852  29.184  27.860  11.054
30538W        W 2853  26.221  26.389   1.240
30539W        W 2854  15.873  21.197   0.791
30540W        W 2855  15.381  43.933   1.964
30541W        W 2856  37.447  29.253  12.918
30542W        W 2857  13.396   2.846   2.659
30543W        W 2858  14.824  17.796  10.682
30544W        W 2859  37.598  36.982   4.285
30545W        W 2860  19.098   2.458  13.017
30546W        W 2861   7.869  29.691  10.534
30547W        W 2862  32.607  39.565  14.636
30548W        W 2863  34.111  30.871  13.994
30549W        W 2864   2.016  25.994   3.281
30550W        W 2865  13.432   1.059  14.092
30551W        W 2866  17.692   9.217  11.109
30552W        W 2867  41.849  18.100   3.345
30553W        W 2868  19.552   3.671  13.005
30554W        W 2869  34.942  25.634   3.759
30555W        W 2870  19.567  30.747  14.327
30556W        W 2871  38.243  24.039  10.702
30557W        W 2872  22.463  42.401  12.373
30558W        W 2873  11.635  38.950  14.636
30559W        W 2874  14.536  30.386  14.402
30560W        W 2875  21.421  41.626  12.109
30561W        W 2876  40.957  12.287  13.796
30562W        W 2877  28.263   9.729   0.468
30563W        W 2878  27.730   5.395   0.894
30564W        W 2879  31.496  41.959   2.114
30565W        W 2880   3.380  23.297   3.166
30566W        W 2881  17.962   7.306   2.964
30567W        W 2882  25.879   8.151  11.624
30568W        W 2883   7.189  27.812  13.946
30569W        W 2884  30.004  24.076   4.829
30570W        W 2885  42.468  24.923  11.859
30571W        W 2886  12.254   8.771  13.992
30572W        W 2887  10.359  25.489  14.830
30573W        W 2888  38.127  43.517  12.350
30574W        W 2889  17.758  30.562   3.126
30575W        W 2890  29.009  31.441   1.957
30576W        W 2891  16.600  15.029  13.120
30577W        W 2892  34.156  41.318   1.856
30578W        W 2893  42.019   3.864   0.452
30579W        W 2894  34.139  41.716   3.291
30580W        W 2895  32.402   6.801  11.685
30581W        W 2896  14.773  23.582   2.011
30582W        W 2897   6.676  15.324   3.665
30583W        W 2898  30.909  26.215   2.423
30584W        W 2899  40.990   4.699  13.998
30585W        W 2900  12.165   2.426  14.900
30586W        W 2901  40.599  23.125   1.732
30587W        W 2902   5.794  33.387   4.609
30588W        W 2903  34.119  10.147  14.379
30589W        W 2904  25.298   8.839  13.386
30590W        W 2905  10.746  20.773  14.657
30591W        W 2906   5.051  14.157   3.549
30592W        W 2907  18.492  40.386   4.085
30593W        W 2908  41.579   7.647   3.225
30594W        W 2909  37.856  40.574   3.380
30595W        W 2910  33.556  29.306   1.214
30596W        W 2911   0.797  18.851   2.932
30597W        W 2912  33.379  35.915   0.318
30598W        W 2913   2.840   0.109  12.021
30599W        W 2914  35.887   7.373  13.407
30600W        W 2915   1.492  15.042  14.493
30601W        W 2916  16.559  13.260   2.474
30602W        W 2917  17.653  11.707   9.886
30603W        W 2918  12.141  39.113   1.658
30604W        W 2919   4.545  14.299   3.599
30605W        W 2920   7.745   4.276   2.891
30606W        W 2921  17.780   6.330  11.511
30607W        W 2922  34.535  25.522  13.947
30608W        W 2923   6.555  13.887  14.715
30609W        W 2924  31.881  31.670  13.563
30610W        W 2925  20.777  10.884   5.129
30611W        W 2926  27.447  40.516   2.802
30612W        W 2927  38.327   0.281   2.013
30613W        W 2928  42.176  43.616   1.605
30614W        W 2929  36.830  30.148  13.371
30615W        W 2930  25.965  18.142   3.376
30616W        W 2931   2.758   9.408  14.027
30617W        W 2932  42.016  21.671   2.860
30618W        W 2933  44.050   8.678  10.135
30619W        W 2934   3.726  42.001  12.930
30620W        W 2935  17.284  39.719  13.174
30621W        W 2936   3.249  16.148  12.474
30622W        W 2937  44.125   2.260  12.669
30623W        W 2938  14.210  31.469   2.591
30624W        W 2939  30.952  40.552   4.398
30625W        W 2940   8.696   0.213  13.597
30626W        W 2941  23.023  31.060   1.430
30627W        W 2942  34.637  25.709   4.198
30628W        W 2943  30.360   4.179   0.011
30629W        W 2944  13.396  30.492   3.363
30630W        W 2945   9.744  40.631  13.062
30631W        W 2946  17.216  24.495   4.965
30632W        W 2947   9.505  19.668  11.531
30633W        W 2948   6.003   5.792   1.806
30634W        W 2949  40.540  10.748   0.525
30635W        W 2950   5.855  43.549  12.895
30636W        W 2951  29.482   4.456   1.688
30637W        W 2952   2.331   5.815  14.268
30638W        W 2953   2.269  14.368  14.872
30639W        W 2954  10.900   0.242  11.602
30640W        W 2955  19.602   2.319   3.554
30641W        W 2956   7.584  34.038  14.478
30642W        W 2957  11.012  32.231   4.114
30643W        W 2958  41.573   1.466   0.425
30644W        W 2959   8.666  40.704   0.489
30645W        W 2960  11.925  41.927   2.215
30646W        W 2961  32.456  34.134  13.732
30647W        W 2962  22.453  18.108   1.313
30648W        W 2963  44.560  21.970   0.911
30649W        W 2964  13.729  31.768  11.612
30650W        W 2965   7.198  44.168   4.274
30651W        W 2966   3.424  12.102   2.862
30652W        W 2967  38.993  20.216   4.887
30653W        W 2968  20.079   8.180  11.101
30654W        W 2969   9.465  35.386  12.090
30655W        W 2970  13.757   4.694  11.596
30656W        W 2971  34.338  30.256   2.251
30657W        W 2972  14.465  42.914   0.496
30658W        W 2973   3.933  40.353   3.279
30659W        W 2974   2.954  40.945   4.884
30660W        W 2975  22.431  26.688  14.054
30661W        W 2976  11.704  29.216   2.732
30662W        W 2977  33.494  20.032   1.731
30663W        W 2978  35.814   1.998   0.433
30664W        W 2979  25.145  10.733   2.703
30665W        W 2980   0.418  14.756   2.182
30666W        W 2981  28.501  29.746   0.436
30667W        W 2982  15.932  23.127   3.220
30668W        W 2983  21.277   9.162  11.606
30669W        W 2984  28.555  22.422  10.700
30670W        W 2985  43.503   1.090   1.737
30671W        W 2986   4.528   5.866   1.955
30672W        W 2987  23.599  28.528  11.151
30673W        W 2988  40.253  12.173   1.919
30674W        W 2989  29.551  17.409   3.409
30675W        W 2990  19.270  25.044   1.020
30676W        W 2991  10.028  16.674  14.158
30677W        W 2992   2.989  15.817  11.068
30678W        W 2993   0.831  20.663   0.073
30679W        W 2994  32.487  31.582   1.459
30680W        W 2995   4.017  30.712   2.691
30681W        W 2996  18.163  18.229  10.668
30682W        W 2997  20.125  34.968  12.943
30683W        W 2998   9.946  19.247   0.006
30684W        W 2999   6.849  39.401   0.875
30685W        W 3000  35.561  25.921   3.158
30686W        W 3001  27.570  22.127  12.102
30687W        W 3002  31.841   4.805  12.377
30688W        W 3003  39.124  31.742  11.576
30689W        W 3004  41.135  19.840  14.888
30690W        W 3005  11.508  41.095   2.248
30691W        W 3006  15.064  13.084   3.264
30692W        W 3007  33.495   6.124   1.682
30693W        W 3008   3.266  43.881   3.521
30694W        W 3009   7.183  26.472   2.018
30695W        W 3010   7.769  23.988  13.869
30696W        W 3011  30.551   8.645   3.313
30697W        W 3012  11.369  42.850  13.414
30698W        W 3013  16.608   2.267   2.799
30699W        W 3014  41.787   4.300  10.462
30700W        W 3015   7.652  20.005  13.477
30701W        W 3016  35.545  42.430  13.966
30702W        W 3017   9.436  32.579   1.734
30703W        W 3018   6.131  43.440  12.460
30704W        W 3019  42.954  24.439  10.653
30705W        W 3020  27.451  43.106   1.827
30706W        W 3021  29.872   9.280  12.574
30707W        W 3022   9.596  20.312  12.176
30708W        W 3023  21.088  19.505   1.888
30709W        W 3024  44.423  31.591   0.297
30710W        W 3025  25.694  41.882  12.167
30711W        W 3026  17.794  28.623   0.927
30712W        W 3027  14.339   8.449  13.592
30713W        W 3028  24.687  11.229   2.649
30714W        W 3029  12.755   8.583  14.060
30715W        W 3030  38.992  15.230   2.957
30716W        W 3031  43.836   8.916  12.380
30717W        W 3032   1.441  34.283   5.061
30718W        W 3033   6.922  24.046   4.340
30719W        W 3034  13.702  44.837  12.210
30720W        W 3035  27.400  27.294  13.672
30721W        W 3036  35.900   7.145  13.864
30722W        W 3037  14.156  41.555  14.784
30723W        W 3038   8.711  31.059   2.253
30724W        W 3039  22.896  19.606  13.242
30725W        W 3040  28.857  22.828  12.521
30726W        W 3041  26.640  34.650  13.009
30727W        W 3042   2.288  36.972  13.547
30728W        W 3043  36.160  43.625  11.170
30729W        W 3044  33.117   0.008   3.791
30730W        W 3045  27.530   4.193   2.872
30731W        W 3046  39.535  20.461  14.603
30732W        W 3047  32.260   2.817  12.008
30733W        W 3048  13.693  41.056   4.707
30734W        W 3049  21.109  17.775   1.178
30735W        W 3050  41.928   3.728   3.725
30736W        W 3051   8.410   3.162   1.773
30737W        W 3052  41.314  10.254   3.693
30738W        W 3053  31.179   9.593  13.392
30739W        W 3054  11.135  25.958  14.717
30740W        W 3055  34.389  32.008   0.042
30741W        W 3056  23.808  30.953   4.207
30742W        W 3057  26.745   0.047   0.846
30743W        W 3058  17.249  44.702  13.522
30744W        W 3059   9.794   7.788   2.118
30745W        W 3060  34.897  39.101  14.016
30746W        W 3061  10.763  18.124   3.091
30747W        W 3062  32.102   4.784   4.180
30748W        W 3063  43.587  43.368   4.002
30749W        W 3064  19.575  31.542  11.933
30750W        W 3065  26.948  18.862  11.213
30751W        W 3066   8.705   1.415   2.199
30752W        W 3067  32.367   1.505  13.636
30753W        W 3068  11.332  25.544  14.007
30754W        W 3069  43.336  15.738  14.829
30755W        W 3070   8.935  37.601  13.319
30756W        W 3071  19.907  35.394  14.342
30757W        W 3072  14.563  40.272  11.131
30758W        W 3073  24.693   9.983  13.459
30759W        W 3074  30.605  19.822   1.954
30760W        W 3075   3.478  18.170   3.785
30761W        W 3076  32.215  23.970  12.948
30762W        W 3077  16.764  28.435  14.357
30763W        W 3078   9.895  39.887  10.914
30764W        W 3079  23.442  40.305   3.698
30765W        W 3080  18.657   2.220   4.508
30766W        W 3081  14.865   3.325  14.031
30767W        W 3082  43.716  42.712  11.114
30768W        W 3083  11.173  13.062   2.197
30769W        W 3084  31.845  20.953   1.097
30770W        W 3085  31.328   3.951  12.583
30771W        W 3086   1.116  21.172  12.418
30772W        W 3087  39.065  20.233   0.654
30773W        W 3088   7.510  42.537   0.556
30774W        W 3089  38.998  21.689   2.677
30775W        W 3090   7.515  30.375  11.158
30776W        W 3091  19.406  43.491   2.391
30777W        W 3092   1.857  19.681  12.076
30778W        W 3093   5.235  39.980   0.681
30779W        W 3094  26.446  30.658   1.828
30780W        W 3095  10.263   2.473  14.891
30781W        W 3096  44.335  25.820  12.106
30782W        W 3097  13.234  36.643  11.531
30783W        W 3098  13.478  26.599  11.052
30784W        W 3099  43.263  33.183  11.028
30785W        W 3100  10.625   8.392   0.838
30786W        W 3101  18.109  11.857  10.562
30787W        W 3102  36.032   2.312  14.461
30788W        W 3103  14.603  10.429   1.304
30789W        W 3104  25.641   3.339   3.301
30790W        W 3105  37.003   5.899   3.678
30791W        W 3106  21.639  13.153  14.680
30792W        W 3107   1.934  38.277   0.948
30793W        W 3108  19.716   4.998   1.969
30794W        W 3109   9.203  30.922  12.599
30795W        W 3110  27.538  30.468   3.843
30796W        W 3111   5.447   4.234  11.767
30797W        W 3112  44.581  21.801  14.053
30798W        W 3113   4.483  30.391  11.676
30799W        W 3114  12.358  32.892   2.700
30800W        W 3115  25.525  17.001  14.061
30801W        W 3116  35.234  13.200  14.444
30802W        W 3117   9.712  23.232  11.568
30803W        W 3118  27.435  31.033  11.482
30804W        W 3119  28.200   3.328  10.182
30805W        W 3120  16.920  16.410  12.814
30806W        W 3121   4.688  14.428  14.402
30807W        W 3122  20.572   5.559  14.456
30808W        W 3123  12.869  39.075  14.042
30809W        W 3124  21.122  24.227  12.653
30810W        W 3125   4.708  39.974   0.565
30811W        W 3126  29.059   1.018   4.299
30812W        W 3127  28.405  11.947  14.376
30813W        W 3128  28.994  36.358  11.322
30814W        W 3129  10.678  34.227  11.935
30815W        W 3130   6.853  35.948  11.383
30816W        W 3131  29.228   5.809   5.657
30817W        W 3132  21.714  44.696   4.670
30818W        W 3133  36.845  19.242   1.336
30819W        W 3134  33.217   3.655  14.331
30820W        W 3135   9.428  42.067  10.872
30821W        W 3136  25.376   1.668   4.106
30822W        W 3137   7.402  10.117   9.900
30823W        W 3138   8.436  18.050   1.313
30824W        W 3139  23.236   4.150   1.920
30825W        W 3140   7.410  29.447  14.997
30826W        W 3141   1.430  42.315   1.715
30827W        W 3142   1.777   7.947  14.461
30828W        W 3143  44.919   4.282   1.286
30829W        W 3144  21.006  32.890   1.671
30830W        W 3145  10.174  12.821   1.332
30831W        W 3146  19.543   7.461  13.868
30832W        W 3147  33.624   4.879  11.250
30833W        W 3148  40.874   0.282   4.390
30834W        W 3149  21.996  23.094   1.994
30835W        W 3150  36.869   3.858   3.728
30836W        W 3151  12.654  10.078  11.048
30837W        W 3152   9.402   9.331   0.021
30838W        W 3153  11.612  26.142  14.848
30839W        W 3154  16.880  33.565   2.442
30840W        W 3155  36.056  44.206  14.336
30841W        W 3156   4.843   3.719   1.105
30842W        W 3157  32.025  31.149  12.639
30843W        W 3158  14.267  25.040  14.976
30844W        W 3159   4.900  12.068   3.165
30845W        W 3160  11.258  10.238  14.910
30846W        W 3161  19.870  24.094   4.565
30847W        W 3162   6.299  37.345   2.287
30848W        W 3163  25.930  39.108   3.716
30849W        W 3164   2.599   2.073  13.827
30850W        W 3165  35.128  15.151  10.972
30851W        W 3166   4.802  33.098  11.865
30852W        W 3167   2.109  41.714   1.847
30853W        W 3168  26.068  11.893   2.321
30854W        W 3169  43.951  33.673  10.112
30855W        W 3170  16.505   3.793   1.005
30856W        W 3171  10.334  13.134  11.550
30857W        W 3172  15.951  16.657  12.398
30858W        W 3173  39.947   2.768  11.068
30859W        W 3174   2.871  43.706  11.674
30860W        W 3175   7.689  34.868   2.253
30861W        W 3176  14.870  19.640   2.280
30862W        W 3177   7.837  22.295  10.578
30863W        W 3178  30.656  23.968  11.757
30864W        W 3179  36.569  36.039   3.008
30865W        W 3180  28.477  34.015  14.744
30866W        W 3181  40.629  19.786   4.530
30867W        W 3182   5.137  32.469   1.813
30868W        W 3183   0.456  10.083   4.734
30869W        W 3184  34.113  38.655  13.510
30870W        W 3185  26.225  28.209   0.682
30871W        W 3186  30.355   2.919  14.374
30872W        W 3187  30.477  44.835   2.211
30873W        W 3188   2.731   0.665  13.660
30874W        W 3189   7.807  35.468   4.155
30875W        W 3190  34.051  38.055   4.572
30876W        W 3191  10.019  32.636   4.130
30877W        W 3192  26.515  23.569  10.465
30878W        W 3193   0.720  36.033   5.448
30879W        W 3194  44.071  27.277   4.145
30880W        W 3195  39.856   0.322   3.567
30881W        W 3196   6.396  18.219   3.112
30882W        W 3197  36.048   5.405  13.374
30883W        W 3198   4.873  26.556   0.393
30884W        W 3199  13.484  18.636  13.759
30885W        W 3200   7.665  10.489  12.062
30886W        W 3201  39.944  30.963  13.461
30887W        W 3202   0.047  36.888   4.638
30888W        W 3203  10.135  35.867   4.640
30889W        W 3204  20.946  11.656  12.449
30890W        W 3205   1.087  41.902  11.724
30891W        W 3206  31.384   9.875  10.626
30892W        W 3207  27.881  44.737   3.259
30893W        W 3208  11.746  30.244   5.309
30894W        W 3209   6.240  30.420  10.747
30895W        W 3210   5.783  27.943   2.798
30896W        W 3211   3.260  30.133   4.421
30897W        W 3212  23.730  33.379   0.678
30898W        W 3213   6.870  16.338   2.220
30899W        W 3214  38.630  23.943   4.973
30900W        W 3215  43.573  28.067   0.399
30901W        W 3216  32.947   4.369   4.243
30902W        W 3217  20.310  41.860  14.839
30903W        W 3218  15.988  21.132   3.654
30904W        W 3219  14.672   8.920   3.791
30905W        W 3220  19.789  22.004  12.138
30906W        W 3221   6.537  11.793  14.853
30907W        W 3222  37.893  19.082   0.282
30908W        W 3223  26.469   1.539   4.656
30909W        W 3224   0.488  16.007   3.672
30910W        W 3225  17.481  18.260   4.568
30911W        W 3226   4.656  20.008   9.956
30912W        W 3227   1.243  15.557  12.555
30913W        W 3228  41.921  38.575  14.037
30914W        W 3229  31.239  41.536  11.178
30915W        W 3230  31.530  30.425   0.754
30916W        W 3231  37.580  34.513   0.539
30917W        W 3232  29.879  10.918   1.420
30918W        W 3233   6.318   0.325  14.317
30919W        W 3234  33.081   9.566  14.643
30920W        W 3235  18.627  11.311  13.111
30921W        W 3236  35.219  38.775   3.849
30922W        W 3237  43.793  41.719  12.183
30923W        W 3238   6.936  22.066   1.679
30924W        W 3239  25.735  36.974  10.805
30925W        W 3240  35.369   4.236  12.196
30926W        W 3241  30.112  41.972  10.445
30927W        W 3242  36.802  27.813   0.334
30928W        W 3243  33.623  11.819   1.442
30929W        W 3244  17.275   7.742  11.191
30930W        W 3245   9.061   6.027  12.435
30931W        W 3246  29.663  30.748   1.878
30932W        W 3247  38.894  15.158  13.862
30933W        W 3248   8.128  40.965  11.572
30934W        W 3249  15.987  27.654   2.898
30935W        W 3250   8.836   8.250   3.238
30936W        W 3251  27.646  17.429  11.898
30937W        W 3252  20.536  31.533   0.260
30938W        W 3253  27.630  16.380  14.619
30939W        W 3254  10.554  23.971   4.105
30940W        W 3255  15.753  11.230  14.701
30941W        W 3256  26.398  21.762   4.148
30942W        W 3257   3.751  43.754  10.996
30943W        W 3258  39.260   0.554   0.035
30944W        W 3259  23.712  44.438  11.636
30945W        W 3260   7.882  23.285  12.228
30946W        W 3261   0.952  33.243  13.165
30947W        W 3262  12.362  44.360  14.500
30948W        W 3263  23.119   1.322   2.905
30949W        W 3264  29.521  39.848  12.300
30950W        W 3265  21.671  19.032   1.412
30951W        W 3266  38.995  33.414  11.428
30952W        W 3267  27.730  16.430  12.099
30953W        W 3268  31.671   2.305  12.382
30954W        W 3269   8.225  20.064   2.621
30955W        W 3270  40.606  43.046   0.342
30956W        W 3271   4.248  37.608  14.318
30957W        W 3272  29.321  20.530   3.062
30958W        W 3273   8.639  23.916   0.848
30959W        W 3274  26.943  16.857  12.384
30960W        W 3275  26.245  25.669   4.217
30961W        W 3276   1.943  41.913  10.568
30962W        W 3277   6.728  27.150   4.658
30963W        W 3278  43.311  44.018  12.867
30964W        W 3279  41.967  34.113   4.084
30965W        W 3280  15.259   2.897  11.123
30966W        W 3281   8.524  35.023   3.346
30967W        W 3282  40.652  33.547   3.498
30968W        W 3283  21.630  36.120   2.279
30969W        W 3284  23.498  28.889  11.584
30970W        W 3285  20.006  25.064   2.359
30971W        W 3286  23.766   4.181  10.988
30972W        W 3287  32.411  18.364  12.668
30973W        W 3288  12.979  23.849   1.371
30974W        W 3289  41.411  15.508  13.585
30975W        W 3290  17.749  37.096  11.084
30976W        W 3291  43.887  24.687  13.046
30977W        W 3292  38.614  25.682  13.316
30978W        W 3293  36.497  12.327  12.625
30979W        W 3294  12.177  21.716   4.396
30980W        W 3295   7.592  31.021  13.370
30981W        W 3296  21.164  22.185  14.032
30982W        W 3297  22.748   1.124   3.970
30983W        W 3298  31.982  37.902   0.214
30984W        W 3299   3.220   0.037   2.257
30985W        W 3300  23.710  26.537   3.586
30986W        W 3301  16.191   5.765   1.924
30987W        W 3302  34.497   3.015  12.977
30988W        W 3303  37.519  35.721  14.191
30989W        W 3304  42.881  30.563   4.358
30990W        W 3305  37.409  18.439  13.468
30991W        W 3306  37.309  31.380  13.910
30992W        W 3307   7.169  37.328  10.603
30993W        W 3308  40.219  24.645   4.498
30994W        W 3309  15.414   7.848   1.674
30995W        W 3310   0.361  27.405   1.897
30996W        W 3311  29.588  24.139  10.806
30997W        W 3312  28.655  39.581   2.095
30998W        W 3313   1.182  29.829  10.716
30999W        W 3314  10.356   6.741  13.457
31000W        W 3315  20.090  23.061  13.489
31001W        W 3316  11.145  42.207   0.212
31002W        W 3317  17.765  18.535  12.914
31003W        W 3318   3.920  27.043   0.359
31004W        W 3319  16.831  32.402   3.709
31005W        W 3320   8.631   5.221   4.462
31006W        W 3321  19.635   6.232   4.805
31007W        W 3322  21.717  32.831   4.428
31008W        W 3323   8.698  21.178  14.407
31009W        W 3324  25.923  22.229  12.616
31010W        W 3325  30.785   4.196   4.135
31011W        W 3326   1.331   5.425   4.209
31012W        W 3327  24.118  14.589   2.155
31013W        W 3328  36.230  17.485   2.150
31014W        W 3329  22.775  29.115   2.608
31015W        W 3330  35.548   7.113   3.800
31016W        W 3331  23.655   5.991  12.052
31017W        W 3332  25.900  12.243  11.930
31018W        W 3333   5.480   3.544   0.287
31019W        W 3334  25.246   0.416  14.424
31020W        W 3335   7.699  33.663  11.168
31021W        W 3336  33.845  31.088   3.221
31022W        W 3337  43.999   8.084   1.963
31023W        W 3338  11.780  17.486  12.857
31024W        W 3339  20.009  42.854   2.749
31025W        W 3340   1.895  32.662  11.995
31026W        W 3341  37.552  25.020   1.453
31027W        W 3342   2.144   3.964  14.663
31028W        W 3343  37.183  34.531  11.181
31029W        W 3344   0.693   1.399   0.452
31030W        W 3345  28.296  19.524   4.235
31031W        W 3346  28.532   8.718   2.854
31032W        W 3347  30.783  27.539   5.027
31033W        W 3348  41.049  12.677  12.487
31034W        W 3349  37.869  41.020  12.089
31035W        W 3350   0.959  11.632  13.367
31036W        W 3351  35.466  16.518   0.285
31037W        W 3352  16.063  40.006  11.648
31038W        W 3353  17.689  10.831   9.753
31039W        W 3354   1.266   5.198  10.323
31040W        W 3355  43.918  36.789  12.138
31041W        W 3356  37.911   9.085  14.993
31042W        W 3357   5.763   4.964   0.189
31043W        W 3358  44.483  40.248  12.884
31044W        W 3359  35.966  44.236  12.028
31045W        W 3360  33.862  13.490   0.996
31046W        W 3361   9.552  16.555   4.490
31047W        W 3362  17.708  12.038   1.278
31048W        W 3363  12.522  38.582   2.464
31049W        W 3364  32.605   2.838  13.804
31050W        W 3365  28.586  18.455   3.753
31051W        W 3366  41.254   9.778  14.983
31052W        W 3367  38.597  35.943   3.646
31053W        W 3368  37.155   7.644  11.557
31054W        W 3369  13.430  14.735   1.977
31055W        W 3370  20.329  43.504  14.460
31056W        W 3371  29.890  18.679  14.450
31057W        W 3372   5.082   7.108  11.592
31058W        W 3373   4.160  32.647  13.110
31059W        W 3374   8.369  11.532  13.019
31060W        W 3375  26.624  43.093  13.511
31061W        W 3376  37.834  34.610  11.423
31062W        W 3377  12.465  29.303  13.090
31063W        W 3378  25.609  25.936  12.510
31064W        W 3379   2.546  33.137   3.189
31065W        W 3380   4.314  44.183  14.516
31066W        W 3381  14.096  40.895  13.381
31067W        W 3382   5.730   4.002   3.630
31068W        W 3383  42.383  17.077   1.277
31069W        W 3384  29.511  24.998  12.413
31070W        W 3385  11.588   2.834  14.980
31071W        W 3386  21.468  40.647   2.828
31072W        W 3387  16.545  17.346   3.139
31073W        W 3388  26.940  15.274  13.932
31074W        W 3389  14.709  12.254   4.462
31075W        W 3390  35.402  42.106  13.538
31076W        W 3391  44.191  40.923   3.328
31077W        W 3392  34.583   6.525   0.507
31078W        W 3393  12.255  34.826   2.416
31079W        W 3394   2.241   8.320  13.415
31080W        W 3395  11.661  40.316   1.335
31081W        W 3396  17.766  32.311  12.429
31082W        W 3397  38.567   8.194  12.152
31083W        W 3398  26.000  25.183   1.698
31084W        W 3399  36.615   0.795  14.251
31085W        W 3400  40.346   1.387  13.838
31086W        W 3401  36.596  30.974   1.482
31087W        W 3402  42.697  33.327   4.077
31088W        W 3403  16.496  34.139  12.612
31089W        W 3404  17.189  29.080  11.732
31090W        W 3405  16.170  20.634   2.772
31091W        W 3406  40.549  36.040  13.035
31092W        W 3407   3.432  19.238  13.362
31093W        W 3408  17.824  14.201  12.465
31094W        W 3409   9.645   3.328   3.646
31095W        W 3410   2.842  11.692  10.928
31096W        W 3411  14.675  25.106   0.789
31097W        W 3412   2.333  30.974  14.016
31098W        W 3413  44.049  11.173  11.962
31099W        W 3414  25.135  29.098   1.950
31100W        W 3415  30.933   0.804   3.754
31101W        W 3416  35.003   1.417  12.024
31102W        W 3417  26.995  36.089  13.126
31103W        W 3418   8.688  20.633   4.128
31104W        W 3419  39.741  26.232  13.004
31105W        W 3420  17.299  18.773   0.269
31106W        W 3421  10.189  43.039   1.386
31107W        W 3422  42.539   3.361  13.093
31108W        W 3423  27.283   8.534   4.585
31109W        W 3424  33.658  31.571  12.987
31110W        W 3425   6.251  39.699  13.326
31111W        W 3426  27.444  44.350   4.074
31112W        W 3427  30.338   8.442  12.437
31113W        W 3428   7.152  33.105  14.425
31114W        W 3429  34.862   2.650   2.741
31115W        W 3430  15.862   5.147  10.992
31116W        W 3431   7.846   5.963   4.649
31117W        W 3432  22.676  44.287   1.967
31118W        W 3433  22.408  28.243  13.448
31119W        W 3434  16.663   7.971  13.376
31120W        W 3435  32.967  11.127  11.390
31121W        W 3436  27.121  28.254  13.245
31122W        W 3437  36.790  19.632  14.312
31123W        W 3438  25.526   5.274   0.333
31124W        W 3439  24.537   6.187  14.431
31125W        W 3440  19.460  17.322  11.656
31126W        W 3441  23.489  28.009   9.868
31127W        W 3442  34.354  36.390   4.543
31128W        W 3443  37.389   1.300  11.814
31129W        W 3444  41.989  39.951   0.733
31130W        W 3445   7.648  11.007   0.782
31131W        W 3446  40.354   0.166   0.920
31132W        W 3447  27.672  12.755  13.121
31133W        W 3448  32.043  38.723   4.829
31134W        W 3449  15.593  25.658   2.663
31135W        W 3450  14.978  25.282  11.619
31136W        W 3451  31.829  24.871  11.703
31137W        W 3452  11.646   1.221   3.149
31138W        W 3453  34.551  16.614   4.027
31139W        W 3454  34.064  34.009  13.554
31140W        W 3455  10.887  22.457  10.960
31141W        W 3456   1.198   3.608  12.445
31142W        W 3457  20.716  23.441  14.044
31143W        W 3458  21.840  35.290   3.273
31144W        W 3459   0.016  11.675  11.143
31145W        W 3460  21.995  30.201  14.526
31146W        W 3461  18.096  14.655  11.856
31147W        W 3462  36.427  43.459  14.100
31148W        W 3463   7.202  36.558  13.078
31149W        W 3464  38.500   1.528  14.324
31150W        W 3465  33.801  16.729  14.841
31151W        W 3466  20.533  23.608  11.610
31152W        W 3467  13.615  43.269  12.095
31153W        W 3468  15.498  26.486   3.005
31154W        W 3469   1.927  27.669   3.759
31155W        W 3470   7.880  23.868   1.747
31156W        W 3471  14.692  35.780  11.875
31157W        W 3472   7.679  26.560   0.942
31158W        W 3473   3.210  30.457  12.889
31159W        W 3474  42.253  40.439  14.034
31160W        W 3475  18.482  33.374   1.678
31161W        W 3476  39.527  15.177  12.632
31162W        W 3477   4.274  19.647  12.638
31163W        W 3478   1.263   7.192   4.819
31164W        W 3479  12.663  30.080   3.332
31165W        W 3480  38.968  30.497  13.162
31166W        W 3481  25.325  25.602  14.250
31167W        W 3482  31.051  22.773  11.980
31168W        W 3483  36.050  18.606  12.805
31169W        W 3484  17.709  25.272  12.927
31170W        W 3485  17.764  23.192   0.437
31171W        W 3486   7.750  39.375   1.006
31172W        W 3487  37.529  39.290   2.205
31173W        W 3488  22.143  44.944   0.073
31174W        W 3489  15.366   4.768  14.404
31175W        W 3490  31.653  20.000  12.981
31176W        W 3491   6.201  25.108   2.393
31177W        W 3492   5.900  39.533  14.206
31178W        W 3493  10.609  32.489   0.849
31179W        W 3494  37.110  25.396  11.631
31180W        W 3495  19.063  36.795   3.792
31181W        W 3496  20.012  34.020   4.088
31182W        W 3497  20.117  38.092  14.341
31183W        W 3498  35.941  14.108   3.632
31184W        W 3499   4.415  43.186  12.951
31185W        W 3500  12.328  42.089   0.081
31186W        W 3501   7.133  36.694  11.344
31187W        W 3502  33.679  20.470   2.434
31188W        W 3503  38.886  25.418   4.611
31189W        W 3504   8.175  17.612   1.326
31190W        W 3505  23.643  18.186  12.815
31191W        W 3506  10.655  12.628  13.478
31192W        W 3507  11.477   2.017   3.659
31193W        W 3508  23.081  35.177  10.836
31194W        W 3509  42.362  27.652  12.553
31195W        W 3510  19.325  21.722  14.519
31196W        W 3511  10.193  14.896  13.756
31197W        W 3512  39.678  22.833   2.738
31198W        W 3513  20.684  19.532  12.919
31199W        W 3514  27.501  33.351   1.298
31200W        W 3515  26.143  13.775   2.617
31201W        W 3516  34.421  44.756   4.143
31202W        W 3517  12.305  39.227  12.859
31203W        W 3518   0.304  26.461   2.195
31204W        W 3519  19.438  32.023   4.012
31205W        W 3520  28.597  29.484   0.886
31206W        W 3521  39.359  22.746   2.330
31207W        W 3522  18.714   5.084  14.591
31208W        W 3523  39.441  42.991   2.121
31209W        W 3524  40.974  37.685   1.126
31210W        W 3525  36.364   5.294   2.826
31211W        W 3526  16.479  21.086   3.461
31212W        W 3527  11.420  34.035   0.428
31213W        W 3528  30.370  36.249   4.001
31214W        W 3529  33.680  40.522   0.848
31215W        W 3530  40.378   5.679  12.354
31216W        W 3531  11.315  27.522   1.385
31217W        W 3532  43.988  32.026   3.163
31218W        W 3533   8.646  18.371   1.662
31219W        W 3534  41.023  33.170  12.353
31220W        W 3535  23.685  41.292   2.046
31221W        W 3536  38.732  16.811  14.794
31222W        W 3537   7.710  40.583  11.620
31223W        W 3538  30.573   7.078  14.024
31224W        W 3539   7.211  41.261  11.437
31225W        W 3540   8.171   5.130   2.248
31226W        W 3541   1.203  13.829  11.903
31227W        W 3542  17.356  31.395   2.615
31228W        W 3543   9.627   7.287  13.543
31229W        W 3544  33.459  14.760  12.695
31230W        W 3545   8.656  14.877   0.135
31231W        W 3546   7.300  42.665   4.200
31232W        W 3547  32.561  36.498  10.735
31233W        W 3548  24.041  12.203  12.202
31234W        W 3549  16.741   7.031   1.069
31235W        W 3550  12.875   9.924   3.736
31236W        W 3551  18.684  40.798   2.177
31237W        W 3552  35.391   3.591  11.574
31238W        W 3553  31.077  13.694   3.685
31239W        W 3554  17.936   7.700  12.896
31240W        W 3555   8.783  36.271  11.223
31241W        W 3556   0.853  21.224  11.926
31242W        W 3557  24.319  26.903   0.746
31243W        W 3558  26.383  20.150   3.295
31244W        W 3559   9.639  27.487   4.693
31245W        W 3560   7.866  13.164   2.530
31246W        W 3561  20.047  19.095   2.237
31247W        W 3562  42.436  39.553   3.247
31248W        W 3563  39.090  40.454  14.385
31249W        W 3564  21.195  20.140   3.260
31250W        W 3565  41.395  18.613  13.907
31251W        W 3566  21.675  40.780  11.791
31252W        W 3567  16.662  10.977   1.374
31253W        W 3568  16.889   9.925  14.498
31254W        W 3569  36.963   5.956   2.844
31255W        W 3570   0.891  28.594   0.249
31256W        W 3571   6.658   9.599  11.041
31257W        W 3572  24.487  21.982  14.435
31258W        W 3573  33.719   8.335   2.631
31259W        W 3574  31.580  34.502  12.635
31260W        W 3575  27.225  19.291  11.137
31261W        W 3576   7.845  41.141   1.810
31262W        W 3577   0.155  36.174   3.981
31263W        W 3578  14.922  12.343   4.921
31264W        W 3579  31.520   4.201   2.121
31265W        W 3580  25.127   3.935   1.379
31266W        W 3581  14.830   3.223   4.201
31267W        W 3582  29.437  23.183  13.079
31268W        W 3583  17.641  16.820   3.341
31269W        W 3584  21.061   1.714   0.827
31270W        W 3585   1.444  37.041   4.984
31271W        W 3586  29.163   6.264  11.150
31272W        W 3587  10.620  43.801  14.766
31273W        W 3588  13.230  39.446   0.095
31274W        W 3589  39.807  29.488  14.377
31275W        W 3590  42.861  42.934  14.005
31276W        W 3591  33.217   2.882  11.962
31277W        W 3592  23.723  36.460   2.413
31278W        W 3593   1.515  37.354   1.194
31279W        W 3594  33.637  42.567  13.811
31280W        W 3595  14.072  38.572   2.352
31281W        W 3596  16.741  44.318  14.695
31282W        W 3597  20.139   6.677   3.523
31283W        W 3598  12.805  21.816  13.394
31284W        W 3599  30.878   9.971  10.725
31285W        W 3600  34.947  37.053   4.231
31286W        W 3601  39.048  44.385  11.944
31287W        W 3602  41.389   7.476  11.583
31288W        W 3603  13.717  37.518   2.663
31289W        W 3604   9.492  43.801   1.907
31290W        W 3605   3.324  17.798  13.080
31291W        W 3606   4.439  18.187  14.291
31292W        W 3607  10.959  28.390   3.711
31293W        W 3608   4.298  10.716  14.019
31294W        W 3609  39.953  31.819  11.033
31295W        W 3610  14.665  11.350   4.552
31296W        W 3611  13.054   2.236  11.070
31297W        W 3612  21.289  28.141   0.526
31298W        W 3613  18.602  39.009   1.174
31299W        W 3614  41.045  12.206  12.784
31300W        W 3615  33.466  43.035  12.191
31301W        W 3616  26.935   4.980   4.858
31302W        W 3617   5.393  22.173  11.004
31303W        W 3618   4.356  31.717  10.726
31304W        W 3619  20.132  21.212   1.680
31305W        W 3620  12.369   1.412  13.085
31306W        W 3621  22.184  19.622   0.273
31307W        W 3622   1.192  39.914  10.662
31308W        W 3623  36.088  11.893   0.939
31309W        W 3624  23.540  42.323   4.089
31310W        W 3625  34.159  33.505  10.980
31311W        W 3626   2.248   9.268   3.195
31312W        W 3627  11.624  25.225  11.613
31313W        W 3628   0.169  24.351  14.325
31314W        W 3629   0.759  39.091   2.555
31315W        W 3630   5.182  19.784  12.698
31316W        W 3631  18.138  18.067   2.246
31317W        W 3632  16.645  11.936   0.942
31318W        W 3633  13.140  28.774   2.991
31319W        W 3634  36.526  10.376  12.446
31320W        W 3635  27.837   7.831   2.816
31321W        W 3636   6.109  10.603   4.139
31322W        W 3637  21.950   8.489   3.163
31323W        W 3638   1.747  32.485  14.049
31324W        W 3639   8.276   4.338  13.364
31325W        W 3640  29.468  41.520   2.948
31326W        W 3641  20.781  31.140   0.675
31327W        W 3642  38.518   8.027   0.426
31328W        W 3643  39.549  31.540   2.740
31329W        W 3644  20.714  21.049  14.426
31330W        W 3645  24.760  20.343   5.246
31331W        W 3646  28.966   4.427  13.329
31332W        W 3647   6.320  34.096   1.308
31333W        W 3648  11.493  40.973   4.329
31334W        W 3649  24.234  21.923  13.883
31335W        W 3650  18.476   7.901  12.004
31336W        W 3651   2.431   7.096   0.341
31337W        W 3652  13.860  30.232   2.628
31338W        W 3653   4.527  13.805   0.029
31339W        W 3654  32.231  16.825  11.962
31340W        W 3655  25.611  32.939  12.139
31341W        W 3656  14.692  41.320   2.704
31342W        W 3657  38.928  18.558   0.482
31343W        W 3658  42.349  13.720  11.235
31344W        W 3659  22.114  26.178   1.736
31345W        W 3660   8.483  31.170  13.268
31346W        W 3661  14.641  15.590   2.270
31347W        W 3662  37.455   3.447   4.137
31348W        W 3663  35.501  41.549  13.373
31349W        W 3664  38.331   6.369   3.941
31350W        W 3665  20.512  28.611   2.713
31351W        W 3666  37.094   2.294   1.378
31352W        W 3667  29.338  22.873   4.527
31353W        W 3668  36.882  19.132  10.845
31354W        W 3669   9.211   8.690  10.756
31355W        W 3670   2.486  30.726  11.620
31356W        W 3671  31.478  23.616  14.708
31357W        W 3672   6.143  23.580  14.966
31358W        W 3673  25.557  38.281  14.739
31359W        W 3674  15.302  19.606   0.836
31360W        W 3675  26.562   6.012   9.926
31361W        W 3676  21.270  10.278   3.454
31362W        W 3677  21.520  38.358  10.640
31363W        W 3678   7.971  15.921  12.002
31364W        W 3679  10.570  19.114  12.542
31365W        W 3680  34.366   5.473  12.964
31366W        W 3681   6.310  20.032  14.961
31367W        W 3682  27.699   2.631   2.606
31368W        W 3683  30.932  43.697  13.588
31369W        W 3684  36.106  10.679  10.841
31370W        W 3685  22.607  40.530  11.058
31371W        W 3686  24.154  39.615  14.548
31372W        W 3687   2.245   8.640  11.680
31373W        W 3688   5.089  39.574   1.994
31374W        W 3689  14.814  38.305  13.659
31375W        W 3690  12.549  25.412  12.112
31376W        W 3691  41.028   3.736  12.548
31377W        W 3692  19.018  39.336   2.838
31378W        W 3693  34.413  43.475  13.770
31379W        W 3694  24.770  34.014  11.440
31380W        W 3695  25.619  37.102   3.207
31381W        W 3696  26.187   5.634   3.095
31382W        W 3697  43.433   1.661   1.451
31383W        W 3698  36.896  11.249   3.296
31384W        W 3699  27.519  38.375  12.548
31385W        W 3700  42.889  31.631  14.007
31386W        W 3701   5.371  43.354   2.717
31387W        W 3702  17.063   1.643   1.391
31388W        W 3703  44.823  25.484   0.759
31389W        W 3704   2.447  17.902  13.020
31390W        W 3705  31.973  18.548  12.924
31391W        W 3706  31.887  16.802  11.569
31392W        W 3707  28.114  43.916   3.371
31393W        W 3708  37.900  33.923   1.461
31394W        W 3709   9.964  20.639   3.781
31395W        W 3710  13.368   1.732   0.128
31396W        W 3711  31.062  28.708   2.417
31397W        W 3712  16.310  19.243  10.605
31398W        W 3713  20.686   0.563  14.359
31399W        W 3714  18.837  20.561   2.316
31400W        W 3715   5.364   7.315   4.353
31401W        W 3716  42.429   9.276   4.141
31402W        W 3717   1.130  13.285  11.938
31403W        W 3718  37.668   0.373  10.950
31404W        W 3719  19.427  30.244   4.295
31405W        W 3720  12.821  17.078  11.173
31406W        W 3721  10.596  42.369  13.864
31407W        W 3722   6.324  28.885   3.413
31408W        W 3723  38.317  28.116   1.693
31409W        W 3724  36.026   0.286   2.424
31410W        W 3725  11.617   4.470  11.976
31411W        W 3726  23.275  42.791  10.208
31412W        W 3727   7.200  29.496  14.106
31413W        W 3728  24.277   7.098   3.643
31414W        W 3729  14.719  28.663  13.820
31415W        W 3730  12.958   0.401  14.489
31416W        W 3731  15.381  20.805   4.066
31417W        W 3732  28.198  40.364   1.467
31418W        W 3733   5.875  10.786  14.271
31419W        W 3734  17.295  35.017   3.682
31420W        W 3735  29.499  21.130   2.443
31421W        W 3736  16.602  22.151  13.569
31422W        W 3737  36.475   7.412   0.959
31423W        W 3738  13.889  10.266  14.030
31424W        W 3739   7.781   1.016  11.417
31425W        W 3740   0.763  12.853  10.641
31426W        W 3741  12.129  30.602  14.373
31427W        W 3742  33.314  34.509  11.426
31428W        W 3743   2.955  14.691   4.033
31429W        W 3744  16.075   0.896   1.732
31430W        W 3745  30.020   8.212  14.551
31431W        W 3746  21.376  27.406  12.473
31432W        W 3747  35.299  14.665  12.504
31433W        W 3748  28.654  25.094  11.721
31434W        W 3749  26.238  37.182   1.176
31435W        W 3750   3.219   9.301   3.586
31436W        W 3751  28.251  37.054   3.986
31437W        W 3752  15.321  33.987   1.836
31438W        W 3753  16.313  41.066  14.934
31439W        W 3754   6.010  41.791  13.858
31440W        W 3755   3.262  10.751   4.617
31441W        W 3756  24.012  19.591  12.563
31442W        W 3757   4.293  34.931   0.949
31443W        W 3758  30.018  36.333   4.397
31444W        W 3759  37.911  12.531  13.808
31445W        W 3760  12.315  35.379  13.875
31446W        W 3761  29.629  18.186  13.630
31447W        W 3762   0.490  33.073  10.846
31448W        W 3763  37.015   6.671  11.173
31449W        W 3764  29.802   6.884   3.877
31450W        W 3765   9.667  33.550   3.263
31451W        W 3766  21.232  10.786  12.459
31452W        W 3767  38.360  43.311   4.485
31453W        W 3768  22.442  29.037  12.476
31454W        W 3769   5.955   3.139   1.712
31455W        W 3770  43.320  41.721  14.997
31456W        W 3771  15.376  42.276  14.446
31457W        W 3772  26.049  12.345   4.030
31458W        W 3773  28.116  30.599  10.964
31459W        W 3774  19.189   5.765   2.392
31460W        W 3775   7.589  38.728  12.773
31461W        W 3776  21.745  10.782  13.678
31462W        W 3777  13.032   1.491   3.829
31463W        W 3778   9.925  30.394  14.562
31464W        W 3779  14.314  39.258  11.507
31465W        W 3780  43.404  24.609  10.842
31466W        W 3781  43.524  36.539  13.102
31467W        W 3782   8.582  23.268   0.013
31468W        W 3783  12.633  40.407   2.955
31469W        W 3784  21.817  36.381  13.985
31470W        W 3785  29.632  24.881  13.269
31471W        W 3786   2.802   2.190  13.359
31472W        W 3787  13.495  15.625   0.915
31473W        W 3788  29.394  18.338   3.284
31474W        W 3789   7.572  29.327  14.487
31475W        W 3790   4.010  25.207  11.591
31476W        W 3791  24.546  37.942   1.046
31477W        W 3792  44.407  42.330   3.874
31478W        W 3793  13.672  41.081  13.872
31479W        W 3794   3.152  37.111  11.123
31480W        W 3795  21.791   0.685   2.764
31481W        W 3796  37.923   3.004   3.111
31482W        W 3797  36.256  16.236   3.740
31483W        W 3798  38.095   5.710  11.609
31484W        W 3799  41.966  28.675   0.780
31485W        W 3800  35.079  43.785  14.334
31486W        W 3801  14.165  25.228   1.847
31487W        W 3802  33.546  29.010  11.964
31488W        W 3803   3.932   6.697   1.694
31489W        W 3804  22.182  33.623  10.755
31490W        W 3805   3.862  20.818  12.865
31491W        W 3806  11.280   0.701   4.636
31492W        W 3807  36.920  25.066  11.039
31493W        W 3808  35.021  27.518   4.529
31494W        W 3809  25.066  35.832   4.261
31495W        W 3810  43.481  12.223   4.586
31496W        W 3811  34.379  36.735   2.387
31497W        W 3812  24.940   0.711  11.932
31498W        W 3813  28.229   6.624   1.309
31499W        W 3814  28.267   6.821   1.801
31500W        W 3815  10.592   2.258  12.837
31501W        W 3816  12.245  29.565  13.471
31502W        W 3817   6.178   8.783  12.012
31503W        W 3818  18.720  12.011  11.685
31504W        W 3819  41.392  21.188  10.740
31505W        W 3820  24.086  42.095  13.371
31506W        W 3821  10.708   2.482   3.234
31507W        W 3822  43.251  22.521   2.887
31508W        W 3823  38.487  22.643  12.315
31509W        W 3824   8.897  33.172  11.093
31510W        W 3825  36.305  35.631   2.744
31511W        W 3826  13.161   3.548   2.001
31512W        W 3827  30.252  18.240  14.389
31513W        W 3828   0.263   7.204   3.726
31514W        W 3829  19.303  26.859   0.944
31515W        W 3830   4.259  19.765  10.948
31516W        W 3831  31.057  44.977  13.994
31517W        W 3832  11.652  38.002  13.112
31518W        W 3833  17.178  19.228  14.343
31519W        W 3834  36.830  12.658  11.529
31520W        W 3835  16.613  29.840   2.387
31521W        W 3836  25.873  16.356  11.247
31522W        W 3837  24.293  14.923   2.919
31523W        W 3838  31.579  11.125  14.875
31524W        W 3839  26.018  21.935  13.922
31525W        W 3840  24.784  19.047   1.802
31526W        W 3841   2.011  17.242   3.344
31527W        W 3842  11.267  35.986  10.738
31528W        W 3843   6.896  35.367   2.652
31529W        W 3844  22.720  17.124   4.527
31530W        W 3845  44.850   0.962  10.605
31531W        W 3846  25.432  35.200   1.255
31532W        W 3847  22.669  42.007   3.612
31533W        W 3848  10.321   8.228  13.071
31534W        W 3849  41.766   2.439   2.407
31535W        W 3850  32.658  25.859  11.199
31536W        W 3851   6.876  21.332  12.141
31537W        W 3852  19.494  44.689   3.272
31538W        W 3853   8.811  18.533  12.209
31539W        W 3854  38.639  19.523   0.228
31540W        W 3855  36.932  12.985   0.699
31541W        W 3856  11.165  10.228  13.515
31542W        W 3857  35.282  15.011   2.833
31543W        W 3858  29.875  35.019  12.293
31544W        W 3859  35.868  22.242  14.623
31545W        W 3860  28.561  29.437   4.783
31546W        W 3861  33.179  19.358   4.103
31547W        W 3862  30.106  20.299   0.033
31548W        W 3863  16.119  28.930  11.033
31549W        W 3864  23.030  12.292   4.521
31550W        W 3865  26.099  38.769   4.699
31551W        W 3866  24.740   7.698   4.783
31552W        W 3867   3.710  13.784  13.875
31553W        W 3868  34.695   9.193  10.705
31554W        W 3869  12.152   6.735  12.634
31555W        W 3870  28.147  44.352   3.062
31556W        W 3871  35.484  20.851   4.137
31557W        W 3872   6.461  10.589  13.459
31558W        W 3873   1.104  34.477  11.058
31559W        W 3874   9.857   5.828  10.678
31560W        W 3875  37.230  14.200  12.551
31561W        W 3876  15.658  29.602  10.407
31562W        W 3877  25.619  21.412  12.613
31563W        W 3878   2.250  19.706  14.713
31564W        W 3879  25.470  32.481   4.590
31565W        W 3880  20.642   7.580  11.981
31566W        W 3881   9.188  25.745  12.599
31567W        W 3882  16.132   7.413  10.403
31568W        W 3883  12.057  27.558   3.789
31569W        W 3884   2.419  25.100   4.269
31570W        W 3885  17.712  20.954   3.628
31571W        W 3886   4.142   9.125  14.894
31572W        W 3887   0.329  26.837   4.829
31573W        W 3888  22.164  15.155  11.968
31574W        W 3889  37.123  29.217   4.095
31575W        W 3890  33.745  29.463   1.693
31576W        W 3891   8.827   3.716   0.409
31577W        W 3892  13.625   5.934  12.569
31578W        W 3893  33.807   6.675  14.041
31579W        W 3894  34.183  30.576  12.402
31580W        W 3895  18.206  44.285  12.429
31581W        W 3896  39.644  24.349   9.922
31582W        W 3897   6.047  12.692   3.730
31583W        W 3898  27.613  10.645   3.810
31584W        W 3899  22.072  11.078  14.033
31585W        W 3900  21.632  14.573  13.055
31586W        W 3901   3.548  25.929  14.443
31587W        W 3902  41.849  27.199   4.497
31588W        W 3903  13.452  30.342   4.647
31589W        W 3904  32.937   9.192   4.674
31590W        W 3905  38.522  31.649   4.377
31591W        W 3906  44.301  34.074   5.037
31592W        W 3907  13.093  30.801  14.360
31593W        W 3908  11.205  38.799  13.039
31594W        W 3909  35.754  29.031   2.895
31595W        W 3910  11.595  14.574   2.342
31596W        W 3911  43.387   6.071  11.573
31597W        W 3912  11.189  26.064  13.345
31598W        W 3913  40.736   3.232   4.471
31599W        W 3914   7.005   9.797   1.864
31600W        W 3915  17.085  41.801  11.599
31601W        W 3916  14.677   9.054  13.672
31602W        W 3917  30.863   2.971  14.388
31603W        W 3918  28.434  33.047  14.979
31604W        W 3919  19.015  36.168  13.485
31605W        W 3920   3.406  20.739   2.868
31606W        W 3921   3.496  12.267  11.408
31607W        W 3922  14.820  33.103   1.634
31608W        W 3923  27.562   5.300   4.302
31609W        W 3924  34.823  17.220   1.331
31610W        W 3925  26.423  29.891  12.399
31611W        W 3926  10.256  23.041   4.602
31612W        W 3927  25.312   6.132   4.300
31613W        W 3928  19.856  11.884  11.531
31614W        W 3929   0.274  44.324  12.063
31615W        W 3930  38.059  37.970   1.782
31616W        W 3931   2.872  39.063   0.073
31617W        W 3932  26.064   8.413   0.534
31618W        W 3933  32.526  24.604  12.992
31619W        W 3934  29.701  22.157   0.035
31620W        W 3935  44.842   3.450  13.095
31621W        W 3936  10.717  38.518  11.387
31622W        W 3937  12.399   9.428   0.857
31623W        W 3938  44.641   8.309  12.305
31624W        W 3939  23.906  14.672  14.710
31625W        W 3940  40.579  14.120  14.847
31626W        W 3941  22.784  40.157   1.981
31627W        W 3942  12.736  14.571   0.349
31628W        W 3943  26.629   1.264   2.813
31629W        W 3944  20.969  32.815   3.046
31630W        W 3945  25.731   4.256  14.403
31631W        W 3946  44.949   2.883  14.263
31632W        W 3947  23.456  13.801  12.231
31633W        W 3948   5.313   5.891   2.846
31634W        W 3949   3.136  15.643  13.853
31635W        W 3950  18.682  14.215   4.955
31636W        W 3951   4.338  25.105   0.220
31637W        W 3952  18.173  19.045   0.626
31638W        W 3953  36.498  17.209   4.574
31639W        W 3954   2.144  15.557  13.733
31640W        W 3955  36.340  25.710   3.670
31641W        W 3956  20.241  23.289   3.758
31642W        W 3957  39.693   6.448   1.552
31643W        W 3958   7.315  37.368   4.233
31644W        W 3959  36.354  18.158   0.205
31645W        W 3960  41.694  16.832   3.557
31646W        W 3961  23.553  14.523  13.820
31647W        W 3962  33.877  37.061   4.104
31648W        W 3963  38.128  33.553   3.990
31649W        W 3964  20.497  35.367   4.943
31650W        W 3965  30.908   0.716   1.329
31651W        W 3966  31.448  41.550   1.732
31652W        W 3967   3.919  37.047   1.874
31653W        W 3968  33.837  29.071  14.404
31654W        W 3969  18.605   2.807   0.954
31655W        W 3970   7.976   3.460   1.719
31656W        W 3971  39.047  42.752   2.395
31657W        W 3972  30.923   3.980  14.314
31658W        W 3973  12.834  20.864   5.011
31659W        W 3974   7.641  26.861   1.370
31660W        W 3975  18.775  28.452   1.575
31661W        W 3976  11.106  12.739  14.358
31662W        W 3977   3.635  29.566  14.965
31663W        W 3978  43.848  15.207   0.293
31664W        W 3979   3.222  12.602  11.683
31665W        W 3980  17.262  11.208  12.967
31666W        W 3981  42.958  25.516  11.528
31667W        W 3982  38.062  37.056  13.532
31668W        W 3983   6.230   4.284  10.894
31669W        W 3984   7.951  34.057   3.414
31670W        W 3985  27.946  40.432   2.896
31671W        W 3986  29.934  31.045  13.035
31672W        W 3987  15.134  12.909  13.408
31673W        W 3988   0.949  32.529   3.636
31674W        W 3989  12.768  21.353   0.277
31675W        W 3990  19.253  21.708  12.637
31676W        W 3991  31.994  31.912  11.561
31677W        W 3992  33.877  12.046  13.555
31678W        W 3993  43.856  20.024   3.913
31679W        W 3994  32.474   0.985  12.038
31680W        W 3995  38.548  32.641   4.179
31681W        W 3996  30.098   9.204  12.109
31682W        W 3997  26.794  27.499  14.610
31683W        W 3998  33.886  19.094  14.985
31684W        W 3999  17.773  44.794  11.672
31685W        W 4000  17.510  24.654  14.909
31686W        W 4001  11.433  16.295   5.583
31687W        W 4002  22.189  21.220   4.620
31688W        W 4003  39.100  31.143   0.638
31689W        W 4004  20.124  39.081   1.850
31690W        W 4005  17.171  29.248   1.196
31691W        W 4006  30.625  13.830  12.469
31692W        W 4007   9.150  17.254   3.961
31693W        W 4008   5.423  30.086   1.402
31694W        W 4009  33.478  11.335  10.683
31695W        W 4010  38.532  25.983   5.005
31696W        W 4011   8.152  25.598  12.071
31697W        W 4012  11.766   4.776  12.349
31698W        W 4013  37.843  27.315  14.766
31699W        W 4014  15.047   3.650  11.479
31700W        W 4015  27.099   5.836  14.759
31701W        W 4016  34.013  21.199   2.143
31702W        W 4017   3.221   6.423   0.062
31703W        W 4018   2.849  30.327  14.687
31704W        W 4019  30.468   2.797   4.415
31705W        W 4020  27.485  28.457  14.945
31706W        W 4021  32.632   1.922   4.218
31707W        W 4022  27.058  16.370   0.770
31708W        W 4023  10.716  18.537  12.988
31709W        W 4024   6.116   9.686  12.552
31710W        W 4025  35.874  41.038  14.897
31711W        W 4026  38.962  34.311  10.385
31712W        W 4027  12.736  13.659   4.978
31713W        W 4028  25.702  41.043   2.720
31714W        W 4029   3.526  17.664   2.382
31715W        W 4030  40.051  37.832  10.640
31716W        W 4031  31.933  12.197  12.439
31717W        W 4032  35.418   5.453  11.088
31718W        W 4033  40.628  19.281   4.452
31719W        W 4034  38.812  33.426  11.922
31720W        W 4035  38.476  13.248   2.765
31721W        W 4036  25.167   0.824   1.410
31722W        W 4037   8.177  31.096  14.219
31723W        W 4038  42.980  32.092   2.339
31724W        W 4039  22.754   3.188  13.113
31725W        W 4040  25.154  12.594  14.735
31726W        W 4041  12.351  37.419   4.008
31727W        W 4042  42.285   4.481  14.508
31728W        W 4043  26.502  38.310  12.584
31729W        W 4044  12.364   4.348  11.487
31730W        W 4045  35.440  35.307   4.260
31731W        W 4046  36.542  39.535   3.070
31732W        W 4047   5.528  23.288  13.863
31733W        W 4048   9.804  43.498  13.366
31734W        W 4049  20.036   1.513   2.658
31735W        W 4050  18.346   1.410  11.606
31736W        W 4051  34.721  22.786  14.851
31737W        W 4052  15.142  43.255   4.435
31738W        W 4053  35.359  32.920   4.750
31739W        W 4054  44.820  37.392   4.601
31740W        W 4055  15.789  16.567   0.721
31741W        W 4056   8.593  12.061  12.872
31742W        W 4057  35.093  20.488   0.774
31743W        W 4058  31.049  11.827   3.181
31744W        W 4059  14.263  43.320   2.715
31745W        W 4060  39.658  23.353   2.762
31746W        W 4061  44.916   4.664  11.628
31747W        W 4062  18.735   4.341  14.789
31748W        W 4063   0.248  31.443  11.646
31749W        W 4064  44.381  43.785  12.032
31750W        W 4065  32.396  43.407  11.962
31751W        W 4066  39.228   9.192  14.101
31752W        W 4067  28.068  40.043   4.609
31753W        W 4068  35.873  40.248   0.573
31754W        W 4069  16.694  22.730  11.111
31755W        W 4070  22.442   8.458   2.666
31756W        W 4071  23.765  12.424   4.001
31757W        W 4072  22.642  17.266  14.014
31758W        W 4073  21.519  26.393  14.447
31759W        W 4074   3.468  17.630   1.209
31760W        W 4075  18.283   1.108   4.292
31761W        W 4076  32.829  12.377   3.067
31762W        W 4077   3.950  35.555   2.814
31763W        W 4078  39.949  43.405  10.732
31764W        W 4079  28.827  16.810   2.599
31765W        W 4080  27.505   0.718   0.335
31766W        W 4081   6.458  16.250  12.402
31767W        W 4082  15.855  11.208  10.740
31768W        W 4083  41.550   5.612   0.783
31769W        W 4084   3.523  33.925  14.048
31770W        W 4085  16.076  44.989  13.158
31771W        W 4086  43.968  33.909  14.435
31772W        W 4087  36.924  10.584   0.460
31773W        W 4088  25.813  20.646  12.508
31774W        W 4089  43.077  24.572   4.504
31775W        W 4090   1.108   9.632   3.279
31776W        W 4091   8.829   3.829   1.269
31777W        W 4092  40.594  38.923   1.914
31778W        W 4093   7.493  38.263   2.629
31779W        W 4094  27.688  23.994  13.403
31780W        W 4095   9.146  17.770  11.145
31781W        W 4096  23.001   5.958   3.643
31782W        W 4097   0.921   6.773  13.802
31783W        W 4098   7.234  28.024   3.317
31784W        W 4099   8.739  17.011   3.725
31785W        W 4100  19.567  35.505  13.397
31786W        W 4101  29.619  23.211   2.357
31787W        W 4102  44.318   5.387  11.621
31788W        W 4103  23.336  42.285  14.068
31789W        W 4104  18.289   9.490   0.414
31790W        W 4105  37.817  23.244   2.327
31791W        W 4106  27.491  37.390   3.801
31792W        W 4107   3.247   5.332  11.554
31793W        W 4108  44.110  28.031  13.747
31794W        W 4109   7.431   8.294  12.434
31795W        W 4110  33.169   1.974   4.343
31796W        W 4111  44.469   6.150   1.898
31797W        W 4112  29.914  22.643  13.374
31798W        W 4113  11.178  11.859   3.808
31799W        W 4114   8.935  19.649  14.964
31800W        W 4115  41.551  44.801   2.760
31801W        W 4116  14.868  10.188   0.392
31802W        W 4117  22.115   5.473  13.749
31803W        W 4118  24.796  41.740  13.054
31804W        W 4119  42.513   5.279  11.633
31805W        W 4120   3.971  17.423   0.419
31806W        W 4121  18.116   5.774  14.728
31807W        W 4122  14.401  25.068  10.739
31808W        W 4123   5.616   6.333  13.343
31809W        W 4124   2.387   2.804  12.561
31810W        W 4125  43.909  11.392  14.202
31811W        W 4126  29.574   5.489  14.531
31812W        W 4127  23.203   2.050   0.931
31813W        W 4128  34.334   6.739  12.053
31814W        W 4129  29.070   5.639  12.977
31815W        W 4130  31.574  33.441   4.675
31816W        W 4131  18.035  32.202   0.841
31817W        W 4132  35.778   7.859  13.266
31818W        W 4133  42.674   0.041   0.239
31819W        W 4134  23.724   1.765   3.316
31820W        W 4135   1.753  21.166  13.358
31821W        W 4136  21.541   4.265  14.344
31822W        W 4137  31.845  40.553   3.028
31823W        W 4138  26.191  25.041  14.228
31824W        W 4139  25.050   3.875   3.732
31825W        W 4140  28.456  15.838  11.597
31826W        W 4141  11.920  16.864   9.677
31827W        W 4142  42.372  27.953   0.365
31828W        W 4143  32.477  31.374  12.575
31829W        W 4144   6.900  10.694   3.018
31830W        W 4145  30.429  31.103  14.043
31831W        W 4146  21.750   4.967   2.125
31832W        W 4147  17.051   0.574  11.406
31833W        W 4148  18.650   3.789  11.599
31834W        W 4149  31.415   4.104   3.287
31835W        W 4150  11.594  11.351  12.555
31836W        W 4151  34.386  23.155   4.832
31837W        W 4152  28.626  29.497   1.414
31838W        W 4153   7.379  25.028   3.699
31839W        W 4154  23.293  18.429   2.388
31840W        W 4155  31.715  40.622  11.097
31841W        W 4156  28.058   8.591  10.755
31842W        W 4157  43.388   7.889  13.102
31843W        W 4158  42.860  31.534   4.668
31844W        W 4159  12.624   7.749   1.743
31845W        W 4160  27.095   6.204   1.633
31846W        W 4161  38.931  15.304   1.310
31847W        W 4162   2.233   0.350   2.330
31848W        W 4163   6.489  12.201  10.502
31849W        W 4164  13.691  44.032   2.739
31850W        W 4165  34.961  25.783   0.895
31851W        W 4166  43.175  42.693  11.034
31852W        W 4167  27.677  40.904  13.977
31853W        W 4168  25.773   9.196  12.458
31854W        W 4169  21.798  44.101   0.165
31855W        W 4170   1.084  41.461   1.394
31856W        W 4171  40.808  35.097  14.504
31857W        W 4172  31.685  17.265  13.320
31858W        W 4173  15.823  28.851  10.287
31859W        W 4174  25.398  23.308   2.434
31860W        W 4175  37.458  20.287  13.980
31861W        W 4176   8.283  19.430  12.072
31862W        W 4177  23.142   0.645  14.507
31863W        W 4178  29.843   1.770   9.971
31864W        W 4179  44.067  15.263   3.743
31865W        W 4180   5.831  41.776   0.693
31866W        W 4181  27.449   4.640  12.505
31867W        W 4182  43.590  17.362   0.619
31868W        W 4183  30.523  33.119   0.062
31869W        W 4184  28.777   6.911  12.477
31870W        W 4185  36.801  16.931  14.742
31871W        W 4186  34.877   8.140   1.492
31872W        W 4187   9.766  10.441  11.764
31873W        W 4188  39.882  25.412   4.614
31874W        W 4189  18.537  28.654  13.921
31875W        W 4190  15.097  43.500   0.524
31876W        W 4191   6.932  42.475   3.838
31877W        W 4192  15.761  37.486  12.089
31878W        W 4193  10.468  22.484  14.870
31879W        W 4194   2.132  34.878  12.066
31880W        W 4195  26.729   1.327  12.528
31881W        W 4196  34.764  12.769  12.520
31882W        W 4197   3.336   8.313   3.665
31883W        W 4198  23.687  41.416   4.930
31884W        W 4199  34.033   8.604  14.360
31885W        W 4200  39.549  22.073  14.021
31886W        W 4201  18.634  24.767   3.975
31887W        W 4202  22.261  26.583  13.557
31888W        W 4203   5.470   7.385  13.876
31889W        W 4204  43.916  25.619   1.806
31890W        W 4205  40.301   2.481   1.896
31891W        W 4206  18.548  34.656  14.981
31892W        W 4207   2.125  23.037  13.400
31893W        W 4208  34.813   8.706   4.543
31894W        W 4209  20.528  16.061   4.157
31895W        W 4210   0.296  33.470  14.490
31896W        W 4211  32.568  11.224  12.049
31897W        W 4212  32.360  19.683  14.586
31898W        W 4213  13.410   9.604   2.801
31899W        W 4214  12.573  39.905  10.613
31900W        W 4215  19.240  10.086   0.039
31901W        W 4216  25.947   4.251  10.660
31902W        W 4217  41.840  19.296   3.657
31903W        W 4218  25.630   7.779   2.917
31904W        W 4219   0.344  43.935   4.203
31905W        W 4220  21.986  26.900   0.830
31906W        W 4221  39.409  20.141  11.989
31907W        W 4222   4.725  25.684  11.553
31908W        W 4223  10.180  30.817   1.523
31909W        W 4224  40.808  22.164   1.562
31910W        W 4225  44.969  16.760  11.335
31911W        W 4226  10.700  19.008   0.379
31912W        W 4227  21.784  40.685  10.450
31913W        W 4228   0.609  44.201   0.332
31914W        W 4229  43.243  12.636   2.742
31915W        W 4230  42.787   8.177   1.721
31916W        W 4231  35.554   4.906   1.387
31917W        W 4232  18.551  23.028  10.682
31918W        W 4233  19.660  39.601   0.661
31919W        W 4234  16.188  17.072   0.527
31920W        W 4235  28.486  14.597  14.734
31921W        W 4236  25.497  13.722  10.757
31922W        W 4237  11.172  23.461  12.449
31923W        W 4238   6.202  36.464   3.144
31924W        W 4239  38.087   7.847  11.794
31925W        W 4240   2.888   1.828  14.295
31926W        W 4241   3.821  30.544   0.280
31927W        W 4242  19.007  16.579   0.954
31928W        W 4243  13.279  37.570  14.610
31929W        W 4244  36.858   4.445  13.467
31930W        W 4245  30.373  27.433   4.156
31931W        W 4246  33.036  37.907  13.166
31932W        W 4247   7.042  21.582   0.710
31933W        W 4248  22.174  37.378  13.292
31934W        W 4249   6.435  44.520   1.492
31935W        W 4250  36.550  13.019  14.436
31936W        W 4251   4.220   5.952   2.346
31937W        W 4252   3.201   2.856  11.572
31938W        W 4253  28.262   1.358  13.447
31939W        W 4254  36.353  39.806  13.927
31940W        W 4255  23.539  43.855  12.897
31941W        W 4256   6.124  38.771   1.226
31942W        W 4257   9.824   9.589   1.961
31943W        W 4258   5.135   6.340   4.285
31944W        W 4259  40.327   8.278  12.194
31945W        W 4260   4.183   8.692   0.932
31946W        W 4261   2.476  33.204   0.320
31947W        W 4262  20.569  25.655   2.072
31948W        W 4263   7.292  43.665   4.384
31949W        W 4264  29.229  37.709  12.762
31950W        W 4265  16.435  13.378  12.439
31951W        W 4266  36.735  15.195  11.617
31952W        W 4267  23.205  10.349  14.479
31953W        W 4268  10.631  19.587   2.926
31954W        W 4269   5.337   8.641  11.448
31955W        W 4270  10.947  11.607  12.045
31956W        W 4271  16.092  34.636  13.410
31957W        W 4272  21.032  31.825   1.340
31958W        W 4273   4.499  16.662   4.630
31959W        W 4274  21.701   4.509   1.881
31960W        W 4275  33.924  30.566   4.083
31961W        W 4276   8.076  12.776  14.370
31962W        W 4277   5.187   7.225  11.095
31963W        W 4278  28.492  20.223  13.709
31964W        W 4279  13.214   6.941  13.395
31965W        W 4280  16.681  20.137   1.937
31966W        W 4281  15.089  10.675  12.289
31967W        W 4282  43.308   0.915  13.698
31968W        W 4283  31.919   4.913  14.121
31969W        W 4284  12.739  30.129  12.825
31970W        W 4285  25.796  10.306  13.986
31971W        W 4286  28.621  13.689  13.355
31972W        W 4287  35.402  36.331  14.893
31973W        W 4288  33.698   9.053   1.198
31974W        W 4289   8.926  42.227  14.450
31975W        W 4290   1.219  44.787  13.534
31976W        W 4291  21.756  31.545  11.040
31977W        W 4292   8.694  35.028  12.039
31978W        W 4293  12.525  10.416   2.254
31979W        W 4294   0.350   9.228   2.160
31980W        W 4295  21.227  23.623   3.757
31981W        W 4296   0.669  26.428  10.765
31982W        W 4297  18.722  24.178   0.381
31983W        W 4298  30.646  30.099  14.818
31984W        W 4299  30.973  33.442  10.640
31985W        W 4300  12.710   5.321  11.103
31986W        W 4301  43.542  11.684  14.530
31987W        W 4302  39.115  32.008   1.977
31988W        W 4303   7.086  35.037  10.754
31989W        W 4304  12.317  14.055   4.193
31990W        W 4305  15.550  10.049  12.534
31991W        W 4306  13.243   0.313   2.094
31992W        W 4307  37.066  29.603  12.578
31993W        W 4308  15.748  32.940   2.655
31994W        W 4309   4.885  32.462   2.766
31995W        W 4310  33.091  33.322   0.575
31996W        W 4311   2.290   0.998   0.987
31997W        W 4312  38.589  34.968  10.889
31998W        W 4313  15.790   8.531  10.888
31999W        W 4314  28.561  24.143  11.230
32000W        W 4315   4.244  22.053   1.849
32001W        W 4316  37.638  15.515  14.233
32002W        W 4317  15.591  13.201  13.367
32003W        W 4318  41.344   1.345  13.519
32004W        W 4319   8.140  40.322  12.503
32005W        W 4320  12.190  30.057  14.416
32006W        W 4321  26.851  40.481  13.825
32007W        W 4322  44.240  11.987   9.853
32008W        W 4323  39.780  33.721   1.870
32009W        W 4324  31.578  26.173  11.251
32010W        W 4325   4.158  41.704  12.850
32011W        W 4326  37.650   7.434   4.512
32012W        W 4327  25.095   1.736   1.803
32013W        W 4328  10.455  39.341  10.453
32014W        W 4329  44.459  23.068  12.041
32015W        W 4330  25.551  16.524   2.839
32016W        W 4331  42.341  22.874  11.805
32017W        W 4332  27.659  13.776   4.692
32018W        W 4333  40.004  21.198   4.543
32019W        W 4334  41.796  16.078  10.829
32020W        W 4335   4.154  34.863  11.034
32021W        W 4336  17.539  16.629   3.803
32022W        W 4337   5.979  24.402   3.739
32023W        W 4338  30.648   7.142  11.653
32024W        W 4339   0.857   4.750   3.813
32025W        W 4340  15.772  35.596   2.081
32026W        W 4341  33.301  27.442   3.641
32027W        W 4342  29.724   9.663   1.720
32028W        W 4343  25.010  39.261   4.693
32029W        W 4344  43.872   3.695   0.949
32030W        W 4345  14.288  23.520  13.386
32031W        W 4346   4.685  21.692   4.050
32032W        W 4347   2.015  40.664   3.797
32033W        W 4348  32.949  22.902  12.810
32034W        W 4349  42.085   2.909  12.135
32035W        W 4350   0.891  40.876  11.409
32036W        W 4351   6.146   5.324  14.469
32037W        W 4352  12.580  22.086   3.185
32038W        W 4353   2.525  42.115   1.919
32039W        W 4354  23.172   6.600   0.170
32040W        W 4355  15.934  16.347  12.857
32041W        W 4356  13.903  22.781   0.004
32042W        W 4357  39.913  40.276   3.782
32043W        W 4358  23.242   7.013  10.694
32044W        W 4359  42.189  40.409  11.252
32045W        W 4360  29.088   5.195  10.457
32046W        W 4361  13.338   0.895   4.549
32047W        W 4362  21.456  36.086  12.565
32048W        W 4363  13.552  15.548  14.947
32049W        W 4364   9.113  35.083   4.574
32050W        W 4365  26.538  17.186  12.428
32051W        W 4366  31.148  20.301  11.917
32052W        W 4367  18.550  13.883  13.879
32053W        W 4368  27.528   7.261  12.445
32054W        W 4369  41.295  20.434  11.727
32055W        W 4370  29.741  23.153   4.746
32056W        W 4371  38.898  17.645   4.713
32057W        W 4372  10.605   8.967  11.399
32058W        W 4373  32.505  40.500  14.008
32059W        W 4374   8.153  41.344  14.286
32060W        W 4375  10.927  34.057  14.285
32061W        W 4376   7.260   6.463  12.596
32062W        W 4377  11.922   9.251   2.299
32063W        W 4378  39.797  11.316   4.646
32064W        W 4379  43.454   9.865   4.976
32065W        W 4380  23.161  21.050   3.167
32066W        W 4381  18.326   0.966   0.165
32067W        W 4382  16.671  34.443   3.923
32068W        W 4383  26.661  31.516  11.494
32069W        W 4384  24.479  25.118  14.404
32070W        W 4385  14.585  37.013  13.384
32071W        W 4386  31.321  21.350   4.166
32072W        W 4387  36.620  21.261  14.157
32073W        W 4388   9.339  35.018  10.908
32074W        W 4389   0.406  41.159   0.074
32075W        W 4390  13.849   3.345  13.993
32076W        W 4391  34.834  37.144  14.316
32077W        W 4392  20.596  36.107   1.850
32078W        W 4393   1.382  41.933  14.071
32079W        W 4394  27.876  38.805  10.804
32080W        W 4395  43.430  28.914   3.813
32081W        W 4396  22.979  31.497   4.553
32082W        W 4397  35.442  29.993   4.566
32083W        W 4398  10.868  30.961  12.196
32084W        W 4399  12.216   7.434   2.826
32085W        W 4400  22.607   0.060  10.683
32086W        W 4401  20.815  28.775   1.784
32087W        W 4402  19.677  23.648   2.075
32088W        W 4403  43.910   9.558   4.102
32089W        W 4404  34.065  24.201  12.845
32090W        W 4405   0.324  26.516   3.573
32091W        W 4406   2.881  30.122  12.035
32092W        W 4407  29.328  30.111  10.978
32093W        W 4408  36.527  35.350   0.383
32094W        W 4409   5.450  41.522  13.464
32095W        W 4410  32.087   8.372  12.707
32096W        W 4411  34.632   6.414   1.434
32097W        W 4412  38.456  40.261   0.333
32098W        W 4413  38.997  44.544   4.352
32099W        W 4414  28.084  38.045  14.045
32100W        W 4415  40.902   2.487  13.737
32101W        W 4416  39.929  41.846  13.111
32102W        W 4417  30.154  35.038  11.854
32103W        W 4418  34.604  19.125  11.194
32104W        W 4419  15.324  26.225   1.789
32105W        W 4420  19.289  33.735  13.435
32106W        W 4421  32.602  25.170   1.274
32107W        W 4422  34.907  22.882   2.230
32108W        W 4423  11.860  31.156   2.789
32109W        W 4424  15.328  11.602   4.600
32110W        W 4425  24.213  33.266   0.569
32111W        W 4426  42.762  32.337  11.948
32112W        W 4427  11.253  43.753   3.277
32113W        W 4428   2.542  35.111  12.327
32114W        W 4429  17.627  36.786  13.909
32115W        W 4430  26.183  17.039   4.205
32116W        W 4431  29.765  16.930   4.971
32117W        W 4432  19.288  17.278  14.400
32118W        W 4433  10.738  14.089   1.313
32119W        W 4434  15.589  23.849   9.806
32120W        W 4435  21.251  22.560  13.359
32121W        W 4436  13.218  32.051  13.631
32122W        W 4437  26.938  25.465   0.791
32123W        W 4438  36.916  37.343   3.590
32124W        W 4439  36.358   8.907   2.362
32125W        W 4440  33.505  23.625   9.700
32126W        W 4441   3.536  19.104  11.416
32127W        W 4442  35.493  12.085  11.734
32128W        W 4443  20.360   6.094  11.125
32129W        W 4444  38.555  14.192  12.027
32130W        W 4445  24.311  29.137   2.744
32131W        W 4446  19.320   4.331  13.410
32132W        W 4447  43.874  42.971  12.614
32133W        W 4448   8.136  21.755   2.299
32134W        W 4449  30.459  30.028   1.400
32135W        W 4450  22.399  25.984   2.704
32136W        W 4451  23.615  41.521  13.001
32137W        W 4452   2.338  40.085   0.814
32138W        W 4453   4.281  20.940   1.784
32139W        W 4454  40.964  20.137   3.388
32140W        W 4455  24.479  12.431  12.065
32141W        W 4456  24.935  14.249   1.155
32142W        W 4457  24.570   5.206  12.681
32143W        W 4458  14.603  16.723  14.795
32144W        W 4459  30.658  40.662  14.214
32145W        W 4460   1.438  36.407   1.437
32146W        W 4461  14.070  20.718  10.739
32147W        W 4462  43.025  42.433  13.783
32148W        W 4463  32.907  18.669   1.936
32149W        W 4464  12.937  23.217   4.965
32150W        W 4465  40.057  15.839  13.479
32151W        W 4466  12.891  40.122   1.709
32152W        W 4467  30.909   7.543   1.940
32153W        W 4468   3.494  36.536  12.557
32154W        W 4469   7.769   1.178   3.303
32155W        W 4470  14.102  21.262  13.608
32156W        W 4471  17.763  10.732   1.893
32157W        W 4472  12.342  17.090   0.350
32158W        W 4473  37.077  16.330   1.480
32159W        W 4474  41.090  27.947   1.739
32160W        W 4475  22.134   5.668   4.824
32161W        W 4476  28.579  34.160  11.689
32162W        W 4477  29.861  19.493   2.587
32163W        W 4478  21.905  33.606   3.803
32164W        W 4479  35.633   9.006  12.191
32165W        W 4480  35.246  31.444  14.100
32166W        W 4481  16.782  26.152  12.762
32167W        W 4482  18.224   6.783   3.739
32168W        W 4483   2.329  12.086   0.346
32169W        W 4484  15.281  20.478   3.672
32170W        W 4485  14.410  31.705   1.096
32171W        W 4486  42.242   6.409  11.541
32172W        W 4487   7.266  23.958  11.686
32173W        W 4488   6.627   8.699  11.066
32174W        W 4489  29.881  31.543  13.482
32175W        W 4490   4.139   6.847   0.801
32176W        W 4491  14.504  27.446  10.685
32177W        W 4492   0.410   0.379   0.253
32178W        W 4493  34.497  25.454   1.154
32179W        W 4494  38.065  17.345  10.856
32180W        W 4495  22.683  10.295  14.476
32181W        W 4496  37.008   2.949   3.855
32182W        W 4497  22.963   0.657   0.364
32183W        W 4498  17.763  41.597   2.184
32184W        W 4499  35.582  22.585  11.005
32185W        W 4500  22.123  18.968   0.586
32186W        W 4501  18.822  32.592  11.587
32187W        W 4502  21.668  44.868  14.855
32188W        W 4503  25.049  12.164   4.449
32189W        W 4504  31.566  20.012  12.075
32190W        W 4505   6.175  28.066  13.310
32191W        W 4506   8.960  18.751  11.158
32192W        W 4507  17.796  35.015   1.278
32193W        W 4508  20.229   2.985  11.232
32194W        W 4509  13.067   2.135   9.964
32195W        W 4510   9.754  15.234  12.835
32196W        W 4511  31.972  33.211  13.492
32197W        W 4512   5.038  44.695  11.196
32198W        W 4513  37.806  32.075  13.500
32199W        W 4514   7.801  32.776   1.880
32200W        W 4515  11.620   4.386   0.939
32201W        W 4516   3.373   6.266   0.591
32202W        W 4517  43.251  14.962  14.891
32203W        W 4518  11.570  15.158   4.083
32204W        W 4519  36.504   0.540   4.819
32205W        W 4520  36.515  44.566   3.093
32206W        W 4521  36.631  27.073  14.039
32207W        W 4522  44.932  32.516  13.434
32208W        W 4523  32.468  32.895   0.849
32209W        W 4524  16.458  31.631   0.275
32210W        W 4525  21.178  38.403   3.629
32211W        W 4526   7.458  36.587   2.283
32212W        W 4527  40.774  44.246   3.307
32213W        W 4528  23.914  17.628  14.240
32214W        W 4529  22.776  19.134  10.633
32215W        W 4530  37.978  28.698   1.701
32216W        W 4531   2.518  27.919   2.699
32217W        W 4532  36.424  39.230   1.612
32218W        W 4533   2.931   1.071  12.205
32219W        W 4534   1.172   6.860   3.588
32220W        W 4535  29.749  30.179   3.396
32221W        W 4536  17.031  33.557   3.189
32222W        W 4537  41.126   2.761   0.814
32223W        W 4538   3.545  32.928   3.214
32224W        W 4539  23.584  30.524   2.575
32225W        W 4540  30.471  16.460   2.701
32226W        W 4541  36.940   8.492  12.069
32227W        W 4542   0.455   5.178  11.848
32228W        W 4543  36.839  12.172   3.061
32229W        W 4544  10.223  44.089  13.865
32230W        W 4545   6.772  39.717   1.361
32231W        W 4546   9.880  14.239  11.224
32232W        W 4547  40.794  16.091   0.943
32233W        W 4548   9.816  37.928   1.919
32234W        W 4549  16.556   8.438   3.334
32235W        W 4550  23.180  34.962   3.155
32236W        W 4551   8.597  13.688   1.976
32237W        W 4552  20.085   3.343  10.651
32238W        W 4553  16.832   2.421  13.087
32239W        W 4554   8.108   5.215  10.495
32240W        W 4555   9.889   7.325  13.982
32241W        W 4556  20.098  35.400   3.617
32242W        W 4557  25.647  28.250   1.256
32243W        W 4558  38.533  16.047   4.943
32244W        W 4559  31.103  29.679  14.311
32245W        W 4560   1.181  29.448   4.294
32246W        W 4561  35.318   7.864   1.413
32247W        W 4562  11.486  29.732  13.884
32248W        W 4563  10.323  39.462  10.959
32249W        W 4564  35.401  10.377  12.088
32250W        W 4565  38.393   3.913  13.527
32251W        W 4566  43.206   6.209   2.870
32252W        W 4567  38.589  43.424   3.602
32253W        W 4568   3.967  15.695  14.276
32254W        W 4569  12.625   6.293  14.965
32255W        W 4570  11.600   0.889   1.326
32256W        W 4571  25.130  16.781  14.993
32257W        W 4572   6.791  13.703  10.434
32258W        W 4573  37.783  24.595   1.678
32259W        W 4574  36.440  12.729   0.432
32260W        W 4575   1.385  23.924   0.310
32261W        W 4576   2.403  25.886  12.703
32262W        W 4577   8.409  36.048  11.538
32263W        W 4578  11.939  38.881   5.000
32264W        W 4579  20.825  16.682   4.314
32265W        W 4580  22.098  36.994   3.194
32266W        W 4581  35.786  33.209  12.350
32267W        W 4582  40.272  28.099   3.108
32268W        W 4583   1.838  32.052  13.760
32269W        W 4584  27.613  29.656   1.295
32270W        W 4585   1.921  43.349  10.996
32271W        W 4586  28.882  23.572  12.429
32272W        W 4587  39.659   0.893   3.673
32273W        W 4588   6.881   7.959  14.320
32274W        W 4589  34.981   6.236   0.900
32275W        W 4590  34.244  35.895  14.326
32276W        W 4591   4.394  44.464  14.072
32277W        W 4592  27.617  39.324  11.512
32278W        W 4593   4.757  17.817   0.401
32279W        W 4594  37.293  44.248  12.937
32280W        W 4595  28.016  20.921   1.916
32281W        W 4596  13.687  29.982   4.374
32282W        W 4597  15.284  31.571  11.375
32283W        W 4598  10.181   2.979  14.867
32284W        W 4599  40.941  25.798   5.424
32285W        W 4600  37.795  24.055   0.715
32286W        W 4601   6.018  35.957   3.863
32287W        W 4602  20.096  25.418   1.511
32288W        W 4603  28.966  43.795   2.888
32289W        W 4604  28.274  13.060  14.380
32290W        W 4605  23.215  43.253   0.496
32291W        W 4606  39.003  21.327  12.514
32292W        W 4607  30.232  25.170  12.951
32293W        W 4608  10.219  20.665  11.053
32294W        W 4609  19.455  39.438  14.713
32295W        W 4610  20.604   1.208  12.128
32296W        W 4611  39.767  19.251   1.229
32297W        W 4612  13.189  11.746  12.161
32298W        W 4613  18.133   0.955   1.763
32299W        W 4614  16.518  38.535   1.867
32300W        W 4615   3.860  17.104  13.004
32301W        W 4616  25.617   5.947   5.801
32302W        W 4617  38.916  23.236  11.532
32303W        W 4618  44.825  19.300  12.179
32304W        W 4619  30.044  33.491  12.367
32305W        W 4620   3.719  41.851   4.134
32306W        W 4621  17.667   6.778   0.756
32307W        W 4622  35.367  25.429   3.367
32308W        W 4623  38.468  43.322  14.027
32309W        W 4624  14.058  11.255   1.596
32310W        W 4625  10.889  36.094   0.955
32311W        W 4626  19.619  27.563   3.691
32312W        W 4627  35.352  27.192   0.926
32313W        W 4628   7.158  43.903   0.372
32314W        W 4629   1.458  17.680  13.778
32315W        W 4630  40.485  15.177  13.109
32316W        W 4631  23.194  38.541   3.786
32317W        W 4632   5.751  44.036  14.338
32318W        W 4633  25.527   4.943   4.081
32319W        W 4634  44.396  36.175   1.939
32320W        W 4635   2.000  34.369   0.233
32321W        W 4636  26.924   3.014  10.049
32322W        W 4637  32.005   6.695  14.936
32323W        W 4638   1.967  33.145   2.578
32324W        W 4639  34.231  40.389  13.975
32325W        W 4640  38.049  35.897   2.893
32326W        W 4641  18.147  34.575   1.146
32327W        W 4642  18.758  28.104  13.046
32328W        W 4643  13.209  23.184  11.628
32329W        W 4644   3.759  33.942  12.684
32330W        W 4645  33.115   6.144  12.056
32331W        W 4646  10.106  22.167   1.225
32332W        W 4647  39.080  43.741  14.739
32333W        W 4648   1.341   7.694  13.609
32334W        W 4649   7.788   0.318   4.392
32335W        W 4650  13.093   2.479  10.564
32336W        W 4651   9.880   0.899  12.339
32337W        W 4652  20.303  33.545   1.994
32338W        W 4653  11.940   4.565   5.079
32339W        W 4654  22.041   0.995  14.322
32340W        W 4655  10.574  33.059  14.401
32341W        W 4656  29.695  40.600   5.108
32342W        W 4657   0.391   6.457  12.469
32343W        W 4658  16.227   0.897  12.049
32344W        W 4659  27.591  44.956  13.863
32345W        W 4660  39.464  39.417   4.508
32346W        W 4661  22.201   1.342   3.110
32347W        W 4662  13.205  43.799   4.199
32348W        W 4663  23.806  39.058   2.223
32349W        W 4664  27.018  37.096  14.719
32350W        W 4665   4.899   2.186   0.254
32351W        W 4666   0.215  25.985   4.820
32352W        W 4667   7.306  30.966   2.354
32353W        W 4668   2.672  25.832  11.446
32354W        W 4669  12.268  31.150  14.327
32355W        W 4670   7.516  20.167  10.622
32356W        W 4671  23.274  12.070  13.987
32357W        W 4672   0.428  28.782   5.154
32358W        W 4673  29.120  33.115  12.953
32359W        W 4674  29.529  43.826   2.665
32360W        W 4675  20.170   6.760   4.479
32361W        W 4676  31.236  21.128   3.359
32362W        W 4677  22.444  18.107  13.837
32363W        W 4678   7.176   3.131   2.202
32364W        W 4679  30.130  17.834   4.068
32365W        W 4680  15.228  32.453  10.438
32366W        W 4681  24.475   3.166   4.641
32367W        W 4682  10.766  31.344  11.836
32368W        W 4683  27.417  28.296  14.208
32369W        W 4684   8.103  19.635  12.922
32370W        W 4685  37.783  40.699  14.272
32371W        W 4686  44.567  32.422   3.767
32372W        W 4687  42.946  23.906  11.558
32373W        W 4688  21.419   2.783  12.068
32374W        W 4689   2.329  29.970  13.800
32375W        W 4690  15.955  25.312  14.778
32376W        W 4691  29.068  43.970  12.875
32377W        W 4692  31.417  15.137   4.566
32378W        W 4693  13.205  41.310  13.922
32379W        W 4694  11.364  15.410  12.015
32380W        W 4695  17.851  33.326  14.399
32381W        W 4696  22.851   2.409  10.788
32382W        W 4697  18.696  44.260  14.272
32383W        W 4698  41.973  15.859  13.508
32384W        W 4699  43.683  43.878   2.377
32385W        W 4700  36.306  29.795   2.388
32386W        W 4701  24.211  35.898  12.999
32387W        W 4702  22.713  36.858  11.922
32388W        W 4703   2.054   9.904   0.793
32389W        W 4704  23.649   1.452  12.504
32390W        W 4705  43.772  34.131   3.290
32391W        W 4706  10.300   5.688   0.485
32392W        W 4707  11.255  44.948   2.895
32393W        W 4708   7.239  20.674  11.666
32394W        W 4709  31.445  33.646   2.257
32395W        W 4710  20.535  21.654  12.123
32396W        W 4711  32.052  10.632   4.563
32397W        W 4712  22.113  10.696  10.745
32398W        W 4713   2.652  42.372  12.039
32399W        W 4714  40.556  30.458   3.436
32400W        W 4715  22.192  31.479  12.431
32401W        W 4716  33.120  27.884   4.413
32402W        W 4717  18.138   5.521  12.939
32403W        W 4718   8.422  26.603   2.256
32404W        W 4719  40.783  11.893   3.092
32405W        W 4720  12.454   5.685   2.745
32406W        W 4721  38.122   4.142   0.860
32407W        W 4722  41.744  40.857   1.225
32408W        W 4723   8.868   1.963  11.604
32409W        W 4724   8.767   8.724   2.785
32410W        W 4725  38.472  30.569   3.413
32411W        W 4726  43.457  27.106   4.855
32412W        W 4727  39.255  10.900   0.394
32413W        W 4728  26.712  17.662  12.381
32414W        W 4729  38.573  41.266   0.845
32415W        W 4730  31.605  32.834  13.023
32416W        W 4731  34.768  22.666  13.819
32417W        W 4732  19.507  43.182   1.116
32418W        W 4733   6.898  26.894  11.022
32419W        W 4734  42.493   6.687   2.757
32420W        W 4735  35.422   7.655   2.271
32421W        W 4736  44.420  10.160  14.242
32422W        W 4737  41.814  43.946   1.793
32423W        W 4738  17.375  25.125  12.566
32424W        W 4739  27.138  41.710   0.899
32425W        W 4740  39.844  25.122   2.343
32426W        W 4741   0.488  35.574  12.359
32427W        W 4742  20.319  44.047  12.298
32428W        W 4743  44.246  39.086  14.020
32429W        W 4744   3.250  36.045   1.812
32430W        W 4745  39.848  39.257   2.656
32431W        W 4746   0.473   2.298   2.848
32432W        W 4747  24.183  13.182   2.258
32433W        W 4748  20.090  25.446   2.020
32434W        W 4749  41.274  11.078  13.810
32435W        W 4750  32.098  38.278   1.743
32436W        W 4751   1.211   8.211   2.218
32437W        W 4752  28.011  29.976   4.195
32438W        W 4753  15.810  32.582   0.955
32439W        W 4754  41.372  29.448   3.536
32440W        W 4755   6.464  12.324  13.611
32441W        W 4756   6.616  24.645   1.821
32442W        W 4757  40.812  10.366  11.603
32443W        W 4758  19.189  39.379  11.047
32444W        W 4759  20.216  12.578  12.027
32445W        W 4760  29.633  31.289  14.396
32446W        W 4761  31.496  14.886  14.385
32447W        W 4762  36.752  25.545  13.643
32448W        W 4763   4.227  23.183   0.209
32449W        W 4764   7.400  18.651  11.817
32450W        W 4765  37.495  25.584   2.322
32451W        W 4766  14.652  35.473   1.645
32452W        W 4767  23.791  42.940   3.369
32453W        W 4768  21.497  34.430   3.587
32454W        W 4769   2.778  18.624  11.018
32455W        W 4770   3.363  17.114  13.721
32456W        W 4771  41.836   7.221   3.289
32457W        W 4772  23.173  33.981   0.983
32458W        W 4773  26.817  23.592   3.764
32459W        W 4774  42.080  10.687  12.533
32460W        W 4775  24.716   6.633  13.373
32461W        W 4776  31.439  10.789  11.292
32462W        W 4777  42.565  13.873   3.205
32463W        W 4778   7.113  38.845   4.092
32464W        W 4779  24.966  34.487  11.530
32465W        W 4780  13.139  22.667   0.715
32466W        W 4781  23.413  30.974  10.761
32467W        W 4782  43.895   1.024   3.364
32468W        W 4783   9.547  11.919   5.056
32469W        W 4784  23.218  17.974  10.129
32470W        W 4785   8.623  16.653  11.582
32471W        W 4786  15.783   3.358  11.638
32472W        W 4787  19.623  31.688  10.910
32473W        W 4788  34.212  24.786   3.745
32474W        W 4789  29.934  27.168   1.897
32475W        W 4790   4.250  22.768   1.020
32476W        W 4791  20.123   0.055   1.723
32477W        W 4792  41.446  34.950  11.664
32478W        W 4793  23.732  34.545  11.121
32479W        W 4794   9.901  43.324   4.347
32480W        W 4795  33.608   6.324   0.397
32481W        W 4796   6.732  39.930   2.208
32482W        W 4797  12.498  35.471  12.305
32483W        W 4798  25.199  18.104  12.128
32484W        W 4799  23.964  37.565  10.355
32485W        W 4800   3.681  42.405   4.296
32486W        W 4801  30.519  36.307   4.493
32487W        W 4802  42.352   5.906   1.371
32488W        W 4803  24.335   8.287  11.911
32489W        W 4804  31.063   2.463  10.719
32490W        W 4805  16.066  28.559  10.653
32491W        W 4806  23.838  39.383   3.299
32492W        W 4807  22.182   0.312   4.560
32493W        W 4808  40.281   1.475  12.871
32494W        W 4809  15.517  30.193  10.283
32495W        W 4810  34.581  20.598  14.919
32496W        W 4811  22.628  15.855   3.195
32497W        W 4812   2.473  42.933  11.973
32498W        W 4813   7.641   0.995  12.389
32499W        W 4814  11.911   7.732   4.602
32500W        W 4815  35.008  43.811   4.551
32501W        W 4816   2.832  19.066  14.836
32502W        W 4817  23.904  43.839  11.503
32503W        W 4818  21.755  22.011   0.906
32504W        W 4819  10.303  42.754  14.061
32505W        W 4820  19.080  14.751  14.766
32506W        W 4821  16.967  29.749   3.294
32507W        W 4822  32.907   0.781   4.247
32508W        W 4823  24.594  12.881  11.174
32509W        W 4824  13.105  39.013  12.488
32510W        W 4825  23.437   6.153   4.164
32511W        W 4826  14.656  39.569   0.863
32512W        W 4827  40.829  31.068   1.446
32513W        W 4828  23.665  22.317  11.261
32514W        W 4829  21.957  27.449   1.352
32515W        W 4830  20.241  43.703   3.350
32516W        W 4831  19.214  38.477   1.217
32517W        W 4832  25.148   2.063   0.982
32518W        W 4833  14.307  39.290   1.829
32519W        W 4834  28.410  10.780  13.936
32520W        W 4835  26.567  26.994  14.446
32521W        W 4836  28.847  34.727   1.276
32522W        W 4837   9.830  10.945  10.473
32523W        W 4838  28.618  33.923   4.076
32524W        W 4839  27.705  15.034   3.169
32525W        W 4840  23.445  25.110  14.354
32526W        W 4841  22.938  35.518  13.013
32527W        W 4842   9.451  24.068  10.484
32528W        W 4843  33.641  38.919  11.354
32529W        W 4844  34.492  40.047  14.271
32530W        W 4845   7.270  22.377  13.417
32531W        W 4846  34.966  13.392  13.341
32532W        W 4847  18.665   3.223   0.350
32533W        W 4848   5.842  17.072  13.358
32534W        W 4849  18.516  26.709   2.661
32535W        W 4850  16.794  33.796   3.737
32536W        W 4851  32.424  33.594   2.367
32537W        W 4852  43.896  15.675  10.544
32538W        W 4853   6.205  41.409  12.957
32539W        W 4854  12.790  28.017  12.290
32540W        W 4855  11.211  13.813   4.109
32541W        W 4856  24.101  11.862  13.120
32542W        W 4857   6.884  16.084  12.141
32543W        W 4858  41.074  24.008  12.402
32544W        W 4859  25.909   4.344  11.580
32545W        W 4860  28.321  14.878  12.841
32546W        W 4861  44.985   6.529  10.786
32547W        W 4862  25.255  34.589  14.582
32548W        W 4863  20.030  18.163  10.707
32549W        W 4864  42.170  42.243   1.839
32550W        W 4865   7.788  28.485  12.939
32551W        W 4866  23.010  31.668  14.242
32552W        W 4867  22.035   4.792   4.646
32553W        W 4868   8.149   0.957  14.405
32554W        W 4869  10.841  40.018   3.319
32555W        W 4870   6.793  32.740   4.349
32556W        W 4871  10.828  38.513  13.865
32557W        W 4872  44.317   5.250  14.282
32558W        W 4873   3.079  27.089  13.064
32559W        W 4874  13.691  25.517   2.258
32560W        W 4875  37.391  41.522  14.099
32561W        W 4876  33.068  43.273  13.816
32562W        W 4877  32.892  29.344  14.962
32563W        W 4878  21.709  29.687  11.593
32564W        W 4879  10.217  24.587   3.362
32565W        W 4880   0.556  24.358  10.291
32566W        W 4881  10.722  24.719  14.967
32567W        W 4882  31.105  16.226   1.351
32568W        W 4883  16.275  42.116   4.924
32569W        W 4884   4.215   7.327  11.347
32570W        W 4885   1.284   8.242   0.911
32571W        W 4886  29.555  39.571   3.276
32572W        W 4887  15.555  33.546  14.876
32573W        W 4888  39.121   0.883  13.659
32574W        W 4889  37.389   6.734   4.827
32575W        W 4890  17.961  31.626   0.885
32576W        W 4891   8.318  38.586   2.279
32577W        W 4892   4.714  21.232  11.845
32578W        W 4893  16.316  30.392  14.867
32579W        W 4894   5.663  17.121  11.860
32580W        W 4895  33.364  41.465   4.928
32581W        W 4896   2.214  23.582   9.878
32582W        W 4897  24.786  42.991   1.655
32583W        W 4898  27.571  23.191  12.102
32584W        W 4899  18.043  43.507  11.984
32585W        W 4900  20.850  20.542  14.428
32586W        W 4901   6.647  37.278  12.948
32587W        W 4902  41.976   7.324   1.272
32588W        W 4903  27.511  14.361  10.847
32589W        W 4904  24.225   9.113  11.646
32590W        W 4905  27.588  23.975   2.177
32591W        W 4906  12.750  34.121  11.167
32592W        W 4907  39.596  18.618  10.550
32593W        W 4908   4.309  11.076  13.290
32594W        W 4909  11.173  27.071  10.630
32595W        W 4910  11.018  11.684  14.913
32596W        W 4911  39.295  24.704  13.953
32597W        W 4912  31.113  44.000  11.853
32598W        W 4913   7.737  40.709  12.635
32599W        W 4914   9.356  20.640  13.425
32600W        W 4915  44.852   6.125   0.840
32601W        W 4916  38.019  29.022  13.920
32602W        W 4917  33.783  11.205   2.219
32603W        W 4918   3.856  27.853   3.834
32604W        W 4919   6.436  23.977  11.461
32605W        W 4920  11.367   3.108   2.271
32606W        W 4921  11.293   9.517  11.141
32607W        W 4922   5.962  33.949  13.980
32608W        W 4923  39.293  27.029  13.128
32609W        W 4924   8.683  27.066   2.198
32610W        W 4925  36.576  28.050  14.922
32611W        W 4926  29.448  20.043   0.417
32612W        W 4927  43.022   7.864  12.318
32613W        W 4928  42.662   8.387  14.971
32614W        W 4929  20.793  10.391   4.293
32615W        W 4930  36.554  13.556  14.453
32616W        W 4931  28.731   9.236  10.725
32617W        W 4932  36.374  17.626   3.746
32618W        W 4933  19.234   2.307   1.343
32619W        W 4934  16.217  28.551   2.417
32620W        W 4935  30.555  29.427  10.711
32621W        W 4936  39.574  18.409  13.883
32622W        W 4937  12.423  35.958   4.692
32623W        W 4938  16.242  44.004  13.106
32624W        W 4939   0.925  40.298  12.169
32625W        W 4940   3.034   9.207   1.324
32626W        W 4941  33.394  24.899  14.377
32627W        W 4942  42.451   4.382   4.176
32628W        W 4943  33.397  18.832   3.246
32629W        W 4944   8.610  38.390   1.904
32630W        W 4945  21.811  43.152   0.333
32631W        W 4946  10.095  16.234   3.043
32632W        W 4947  27.367   4.748  11.570
32633W        W 4948  30.815  24.491  12.445
32634W        W 4949  36.377  43.506  12.940
32635W        W 4950   1.633  25.834  13.946
32636W        W 4951  22.954  33.491   2.759
32637W        W 4952  17.645   2.660   3.759
32638W        W 4953  37.932   2.477   2.966
32639W        W 4954  13.505   7.780   4.830
32640W        W 4955   4.020   1.957   2.211
32641W        W 4956  29.331  39.224  10.517
32642W        W 4957  21.655  36.551   4.607
32643W        W 4958  15.665  25.851  14.397
32644W        W 4959  24.413  15.790   1.755
32645W        W 4960  36.899   3.544   5.065
32646W        W 4961   2.914  15.078   3.244
32647W        W 4962  21.991  35.391  11.951
32648W        W 4963  33.717  41.721   4.680
32649W        W 4964  16.112  38.767  14.336
32650W        W 4965  44.266   8.543  14.672
32651W        W 4966  25.170  18.840  14.286
32652W        W 4967  35.018  17.163  14.033
32653W        W 4968  16.602  32.974   4.329
32654W        W 4969  11.909  11.472  12.932
32655W        W 4970  19.645   1.225  12.960
32656W        W 4971  41.631  30.346  11.703
32657W        W 4972   1.796  17.779   3.254
32658W        W 4973   5.019  12.253  14.722
32659W        W 4974   1.059   1.162  12.919
32660W        W 4975  26.126  35.344   0.306
32661W        W 4976  19.971  43.730  13.528
32662W        W 4977  34.569  37.622  11.063
32663W        W 4978  31.862  40.881  12.402
32664W        W 4979   6.965  27.149  13.137
32665W        W 4980  25.232  21.589  10.588
32666W        W 4981  36.023  17.192   0.422
32667W        W 4982  28.464  14.227   4.645
32668W        W 4983  32.412  24.012   2.143
32669W        W 4984  13.548  15.086  14.169
32670W        W 4985   6.833  38.332  14.021
32671W        W 4986  27.545  19.631   1.276
32672W        W 4987  23.010  24.599  12.880
32673W        W 4988  36.893  10.674  13.878
32674W        W 4989  31.712  34.451  13.539
32675W        W 4990   5.720  22.664  10.525
32676W        W 4991  30.389  43.390   3.753
32677W        W 4992  29.176  20.132   0.889
32678W        W 4993  17.088  36.332  12.476
32679W        W 4994   6.582  19.537  12.968
32680W        W 4995   9.877  38.981   0.450
32681W        W 4996  37.747  22.444  11.606
32682W        W 4997   0.705   3.173  12.044
32683W        W 4998  25.652  13.609  11.647
32684W        W 4999  36.654  38.514   2.243
32685W        W 5000  21.039  41.407  13.603
32686W        W 5001   1.019  24.132  13.332
32687W        W 5002  35.394  21.710  10.447
32688W        W 5003  44.924  16.891  12.325
32689W        W 5004   3.353   9.935  11.546
32690W        W 5005  21.405   2.697   2.152
32691W        W 5006  18.133  31.431  13.009
32692W        W 5007  30.597  17.595  14.789
32693W        W 5008  38.518  27.578   0.953
32694W        W 5009  40.030  42.562   4.150
32695W        W 5010  23.910  34.311   2.188
32696W        W 5011  39.596  32.379   3.221
32697W        W 5012  26.285  31.594  10.134
32698W        W 5013  13.399  26.645   1.456
32699W        W 5014  37.346  44.209  13.944
32700W        W 5015   2.185  26.030   1.283
32701W        W 5016  38.358  41.021   4.239
32702W        W 5017  14.100   5.450   1.259
32703W        W 5018  11.433  12.809  12.415
32704W        W 5019  27.684  39.629  10.648
32705W        W 5020  31.723  32.650  14.014
32706W        W 5021  38.083  15.044   2.156
32707W        W 5022  33.034  32.912  14.760
32708W        W 5023  21.901  22.500  11.514
32709W        W 5024  35.565  10.018   4.000
32710W        W 5025   5.354  28.915  11.911
32711W        W 5026  14.939  25.724  13.754
32712W        W 5027   0.371  44.427  14.914
32713W        W 5028  41.831  19.664   4.531
32714W        W 5029  37.111  25.934  12.361
32715W        W 5030  41.604  36.560  13.899
32716W        W 5031  35.512  39.053  11.615
32717W        W 5032   2.639   9.271   2.270
32718W        W 5033  41.033  16.054  14.251
32719W        W 5034   0.362  34.551   1.358
32720W        W 5035  32.544   6.013   9.846
32721W        W 5036  44.789   5.465  14.401
32722W        W 5037   0.942  28.434   0.760
32723W        W 5038   9.597  41.193  11.445
32724W        W 5039   6.976   4.947  12.377
32725W        W 5040  26.604   5.362  10.606
32726W        W 5041  38.870  37.017  12.863
32727W        W 5042  17.772  37.413  11.541
32728W        W 5043   5.865   8.359   3.812
32729W        W 5044   1.457   2.918   4.387
32730W        W 5045  43.408  28.401  11.557
32731W        W 5046  33.370  30.132  14.820
32732W        W 5047  39.456  29.389  11.297
32733W        W 5048  35.934   5.901   4.384
32734W        W 5049  32.936  30.655   2.711
32735W        W 5050   4.498   6.898   9.837
32736W        W 5051   6.359  16.045   3.601
32737W        W 5052   2.705  31.189  10.705
32738W        W 5053  34.781  16.257   3.667
32739W        W 5054  42.972   5.457   3.649
32740W        W 5055   6.298  22.013  11.997
32741W        W 5056   2.342  30.560   2.093
32742W        W 5057  19.625  12.877   1.955
32743W        W 5058  12.394  44.563   0.899
32744W        W 5059  13.574  19.227   2.401
32745W        W 5060  16.303   1.696   0.915
32746W        W 5061  40.414   7.962  11.709
32747W        W 5062  31.489  23.553   1.206
32748W        W 5063  42.377  25.682  12.517
32749W        W 5064  44.276   4.162  12.541
32750W        W 5065  43.294   0.042   2.896
32751W        W 5066  15.077   7.513   4.003
32752W        W 5067  27.961  32.848  11.901
32753W        W 5068   0.202  21.603  10.720
32754W        W 5069  13.405  16.705  11.848
32755W        W 5070   7.064  37.360   2.695
32756W        W 5071  20.231  27.782   3.063
32757W        W 5072  40.763  36.076  13.927
32758W        W 5073  11.265  43.377  13.403
32759W        W 5074  27.956   5.431   4.003
32760W        W 5075  28.591  25.574  11.555
32761W        W 5076  36.138   9.268  13.092
32762W        W 5077  39.295  18.173  11.266
32763W        W 5078  15.554   8.873  11.267
32764W        W 5079  39.667   7.653   3.321
32765W        W 5080   4.939   5.918   0.768
32766W        W 5081  40.453  22.253  14.267
32767W        W 5082  14.596  10.193   0.837
32768W        W 5083  40.155  10.966  13.402
32769W        W 5084  14.099  16.376   1.330
32770W        W 5085  17.680  33.402   2.910
32771W        W 5086   1.322  18.165  13.464
32772W        W 5087  20.523  18.641   1.780
32773W        W 5088  15.876  16.721  13.799
32774W        W 5089  17.675  42.997  13.494
32775W        W 5090   7.688  28.949  13.172
32776W        W 5091  35.393  29.022   0.339
32777W        W 5092  34.940  36.653  14.288
32778W        W 5093  16.014  28.088   3.195
32779W        W 5094  15.588   1.947  14.026
32780W        W 5095   8.827  14.732   0.668
32781W        W 5096  28.155   9.073  13.895
32782W        W 5097   6.345  12.408  10.954
32783W        W 5098  27.707  36.442   2.605
32784W        W 5099  25.119  17.487   1.386
32785W        W 5100  14.761  26.192  11.216
32786W        W 5101  34.361  43.542  10.499
32787W        W 5102   8.573  24.423   1.688
32788W        W 5103  20.956  22.140  10.500
32789W        W 5104  27.244  24.113   2.554
32790W        W 5105  19.553  18.620   2.794
32791W        W 5106  23.165  33.137   4.180
32792W        W 5107  39.772   8.671   2.750
32793W        W 5108   4.127  40.397  12.342
32794W        W 5109   4.875   6.741   1.405
32795W        W 5110  24.486  19.691  11.038
32796W        W 5111   8.181  18.562  13.089
32797W        W 5112  41.133  42.150  13.420
32798W        W 5113  17.756  18.783  11.938
32799W        W 5114   2.272  19.557   4.241
32800W        W 5115  44.030  43.509  10.612
32801W        W 5116  26.731   9.737   4.470
32802W        W 5117  27.546  30.594   5.147
32803W        W 5118  11.889  17.558  10.449
32804W        W 5119  25.732  33.372  14.325
32805W        W 5120  31.643  32.967   1.466
32806W        W 5121   8.389   7.269   2.748
32807W        W 5122  10.885  37.023   0.651
32808W        W 5123  41.414  28.162  11.509
32809W        W 5124  42.839  43.931   2.163
32810W        W 5125   1.018   8.306  12.348
32811W        W 5126  31.219   8.275  12.453
32812W        W 5127  25.506   9.753  12.043
32813W        W 5128  23.067  22.608   0.245
32814W        W 5129  38.550   0.522   3.501
32815W        W 5130  17.248  41.470   2.766
32816W        W 5131  36.761  29.090   3.218
32817W        W 5132   9.693  11.184  13.150
32818W        W 5133   8.813   1.703  12.513
32819W        W 5134  44.824  44.080  12.067
32820W        W 5135  23.516  26.449  12.992
32821W        W 5136  41.064  16.311  13.366
32822W        W 5137   6.753  42.857   3.557
32823W        W 5138  37.670  10.262  12.062
32824W        W 5139  26.591  34.975   2.773
32825W        W 5140   5.946   9.936   3.495
32826W        W 5141  18.199  38.999   4.559
32827W        W 5142   5.020  23.599   1.331
32828W        W 5143  12.577   8.671  11.105
32829W        W 5144  25.034  14.358   3.814
32830W        W 5145   2.692  17.065  14.767
32831W        W 5146  37.689  41.509   2.659
32832W        W 5147  28.665  27.962  12.135
32833W        W 5148  39.792  10.815   4.421
32834W        W 5149  43.417  18.240   4.884
32835W        W 5150  11.944   9.405  11.919
32836W        W 5151  42.535   3.170  11.984
32837W        W 5152  19.776  40.298  13.029
32838W        W 5153  34.595  20.996   4.545
32839W        W 5154  34.545  21.421  11.234
32840W        W 5155   3.165  33.657  11.149
32841W        W 5156  33.059  43.819   3.650
32842W        W 5157  16.753  24.131   3.929
32843W        W 5158  40.825  34.933   1.370
32844W        W 5159   2.205  26.416  13.983
32845W        W 5160   8.467   2.718   0.445
32846W        W 5161   7.716  14.904  12.176
32847W        W 5162  43.401  39.834   1.739
32848W        W 5163  30.977  38.035  12.052
32849W        W 5164  10.143  13.942  13.420
32850W        W 5165  24.577  35.524   3.289
32851W        W 5166  39.035  15.133  12.936
32852W        W 5167  30.468  16.263   1.802
32853W        W 5168  14.872   9.246   4.535
32854W        W 5169  41.567  25.136   3.776
32855W        W 5170  25.643   9.078  11.578
32856W        W 5171  30.171  31.910  12.285
32857W        W 5172  13.196  26.250  13.409
32858W        W 5173  19.266   7.180   4.461
32859W        W 5174   0.383  23.146   3.541
32860W        W 5175   2.001  29.574  10.744
32861W        W 5176  29.616  21.903   4.318
32862W        W 5177  38.832  15.687   1.914
32863W        W 5178  17.328  19.769  11.173
32864W        W 5179  22.258  29.078  12.951
32865W        W 5180   8.785  20.246   0.557
32866W        W 5181  10.026  22.472   3.753
32867W        W 5182   8.800  29.107  11.662
32868W        W 5183  43.970  35.939   0.543
32869W        W 5184   9.442  13.238   4.870
32870W        W 5185  29.990  32.066   4.055
32871W        W 5186   8.058   9.741   0.482
32872W        W 5187   7.229   7.991   3.211
32873W        W 5188  26.038  36.697  12.003
32874W        W 5189  29.813   0.323  14.051
32875W        W 5190  25.027  38.048  11.602
32876W        W 5191  37.281  13.975   2.612
32877W        W 5192   9.704  12.586  13.511
32878W        W 5193   5.415   2.819  14.903
32879W        W 5194  11.697  17.863  11.630
32880W        W 5195  34.736  20.113   4.213
32881W        W 5196  42.846  29.374   1.152
32882W        W 5197  38.935  26.751  10.703
32883W        W 5198   2.285  38.968  13.367
32884W        W 5199   0.708  40.972   4.121
32885W        W 5200  35.857  17.316  14.330
32886W        W 5201  13.069  41.106   1.981
32887W        W 5202  30.426   1.288  10.723
32888W        W 5203   3.633  19.505   1.330
32889W        W 5204  14.237  43.103   2.222
32890W        W 5205  39.933  23.189  13.416
32891W        W 5206  42.257   2.203  12.158
32892W        W 5207   2.873  12.642  11.327
32893W        W 5208  43.032  41.900  13.672
32894W        W 5209  36.001  20.682  10.670
32895W        W 5210  40.304  20.733   4.727
32896W        W 5211  12.786  29.920  10.577
32897W        W 5212   5.232   2.887   3.413
32898W        W 5213  35.837  14.705   0.931
32899W        W 5214  41.885   2.513  13.053
32900W        W 5215  30.199   9.261   0.850
32901W        W 5216   2.946  43.317   4.506
32902W        W 5217   0.416   9.183  13.878
32903W        W 5218  31.040  14.078   0.529
32904W        W 5219  24.645   0.880   2.134
32905W        W 5220  33.539   1.177   1.348
32906W        W 5221  25.930  35.373  13.107
32907W        W 5222   5.407  31.388  14.852
32908W        W 5223   8.128  16.593   0.744
32909W        W 5224  38.898  26.288   1.674
32910W        W 5225  34.920  24.081  11.437
32911W        W 5226  44.512  40.007   3.260
32912W        W 5227  28.507  32.883  14.455
32913W        W 5228  20.145  10.580  13.264
32914W        W 5229   7.955   1.379   4.613
32915W        W 5230  15.182  42.844  14.795
32916W        W 5231   9.650   8.600   1.440
32917W        W 5232  31.916  42.825   1.744
32918W        W 5233   7.539  37.847  13.253
32919W        W 5234  33.932  27.851   9.911
32920W        W 5235  20.004  36.177  10.146
32921W        W 5236  14.075  43.313  11.171
32922W        W 5237  44.516   1.298   0.730
32923W        W 5238  18.080  23.107  12.922
32924W        W 5239  22.704  21.368   2.408
32925W        W 5240   3.334  25.696   4.139
32926W        W 5241   3.310  20.116   4.576
32927W        W 5242  44.299  11.782  12.429
32928W        W 5243  11.020   6.806  12.111
32929W        W 5244  23.446  20.211  12.846
32930W        W 5245  26.412  37.384   4.696
32931W        W 5246  31.538  24.495  13.547
32932W        W 5247  33.964   9.657  14.353
32933W        W 5248  14.766   1.614  10.294
32934W        W 5249  34.160  19.726   2.346
32935W        W 5250  29.617  15.429  13.484
32936W        W 5251  44.519  32.086   3.285
32937W        W 5252  20.739  26.663  10.675
32938W        W 5253  36.236  21.575   3.117
32939W        W 5254  29.747  34.016  10.708
32940W        W 5255  32.789  10.298  12.523
32941W        W 5256  44.865  36.321  11.250
32942W        W 5257   3.466  40.027   4.157
32943W        W 5258   6.153  15.972   3.147
32944W        W 5259   2.708  10.129   2.809
32945W        W 5260  39.795  18.108  14.593
32946W        W 5261  30.321  20.728  12.582
32947W        W 5262   7.302  30.553  13.420
32948W        W 5263   5.895   4.472  11.627
32949W        W 5264  12.700  44.535   2.657
32950W        W 5265  36.688   0.355  10.765
32951W        W 5266  25.535  44.947  11.973
32952W        W 5267  17.130  43.323   1.118
32953W        W 5268  15.688  24.035  13.584
32954W        W 5269   7.291  14.011   3.656
32955W        W 5270  38.113  25.952  10.531
32956W        W 5271   4.872  36.771  14.854
32957W        W 5272  29.677  38.675   1.363
32958W        W 5273  25.208  27.180  13.330
32959W        W 5274   4.002  35.918   9.871
32960W        W 5275  29.628   6.012  14.431
32961W        W 5276  28.776  17.994  13.035
32962W        W 5277  35.118  25.717  12.403
32963W        W 5278  13.708  29.418   3.795
32964W        W 5279  39.577  43.806   4.609
32965W        W 5280   5.844  35.924   2.869
32966W        W 5281  28.181  18.298  11.831
32967W        W 5282  28.095   8.118   1.411
32968W        W 5283  13.236   3.314   3.555
32969W        W 5284  28.934   8.257  10.686
32970W        W 5285   3.685   9.222  13.575
32971W        W 5286  17.622  24.187  12.630
32972W        W 5287  26.494  35.818  13.490
32973W        W 5288  27.101  23.518  13.821
32974W        W 5289  26.666   7.698  14.035
32975W        W 5290  39.949  12.342  14.869
32976W        W 5291  42.551   8.305   5.043
32977W        W 5292  30.635  34.572  12.930
32978W        W 5293  35.297  33.088   2.175
32979W        W 5294  22.959  24.597   4.441
32980W        W 5295  14.528  20.598   4.222
32981W        W 5296  23.730  14.701   2.855
32982W        W 5297  22.321  38.244   2.744
32983W        W 5298  32.021   2.971   0.520
32984W        W 5299  19.546   0.075  13.365
32985W        W 5300  23.175   2.458   0.055
32986W        W 5301  22.042  26.627  14.453
32987W        W 5302   0.133  18.764   0.777
32988W        W 5303  11.163  42.247   4.319
32989W        W 5304  12.741  43.288   0.244
32990W        W 5305  38.004  16.563   3.737
32991W        W 5306  28.958  37.578  13.710
32992W        W 5307  33.893  31.867   1.838
32993W        W 5308   0.961  30.048  13.383
32994W        W 5309  38.052  27.838   4.654
32995W        W 5310  15.145  12.983  14.771
32996W        W 5311   3.499  28.098  11.461
32997W        W 5312  24.770  23.878  14.022
32998W        W 5313   2.734  11.717  12.913
32999W        W 5314   5.475  42.483   3.758
33000W        W 5315  24.076  12.852   1.888
33001W        W 5316   2.190  18.451  11.997
33002W        W 5317  14.647  32.609   2.862
33003W        W 5318  19.151  42.014   3.864
33004W        W 5319   6.202  40.546   3.332
33005W        W 5320   5.877  27.054  12.942
33006W        W 5321  23.678  12.155   2.657
33007W        W 5322   3.172  24.531  11.537
33008W        W 5323  38.510  37.590   3.201
33009W        W 5324  24.400  22.331   9.756
33010W        W 5325   3.469  31.191  12.471
33011W        W 5326   4.279   9.661   0.929
33012W        W 5327  43.812  44.404   1.399
33013W        W 5328   1.897  37.388  12.362
33014W        W 5329  30.594  30.687   1.725
33015W        W 5330  21.012   7.268  14.651
33016W        W 5331  16.175  19.630  13.352
33017W        W 5332  33.870   2.718   3.125
33018W        W 5333  11.745  26.675  14.455
33019W        W 5334  15.995  39.256  10.108
33020W        W 5335  42.566  42.909   3.620
33021W        W 5336  34.903  31.648   2.363
33022W        W 5337   4.613  31.082   1.428
33023W        W 5338  33.054   8.944  13.846
33024W        W 5339  17.304  15.193  13.975
33025W        W 5340  33.420   2.476   2.293
33026W        W 5341  33.024   6.412  11.263
33027W        W 5342  24.161   0.724   3.321
33028W        W 5343  37.991  10.253  12.598
33029W        W 5344  44.120  27.567   3.614
33030W        W 5345  28.715  27.375  13.405
33031W        W 5346  44.398  40.779   4.266
33032W        W 5347  34.575  21.832  11.520
33033W        W 5348  24.264  21.284   3.797
33034W        W 5349  28.493  33.244  12.498
33035W        W 5350  40.488  27.153   3.596
33036W        W 5351   2.648  43.987  10.869
33037W        W 5352  35.866  16.130  13.733
33038W        W 5353  33.096   7.291  10.669
33039W        W 5354  29.641  20.562   0.159
33040W        W 5355  37.049  38.842   2.335
33041W        W 5356   3.178  11.651   0.113
33042W        W 5357  36.062  11.685   3.336
33043W        W 5358  13.683  19.287  14.350
33044W        W 5359   9.759   2.735   4.004
33045W        W 5360  19.852  39.183  10.204
33046W        W 5361  39.261   5.391   3.621
33047W        W 5362  30.584  26.785  14.839
33048W        W 5363  20.495  15.202  11.382
33049W        W 5364   8.163  20.730  14.063
33050W        W 5365  42.424  29.430   2.036
33051W        W 5366  21.897  39.838  12.562
33052W        W 5367  34.657  33.348   0.274
33053W        W 5368  12.610  34.353  12.548
33054W        W 5369   5.481  26.142   3.105
33055W        W 5370  30.155  42.495  14.589
33056W        W 5371  28.061  23.050  12.141
33057W        W 5372  35.130  16.968  10.844
33058W        W 5373  35.599   3.493   4.099
33059W        W 5374  35.462   6.406   1.138
33060W        W 5375  21.587  37.020   4.851
33061W        W 5376   7.162  27.296  14.033
33062W        W 5377  33.447  36.516  10.908
33063W        W 5378  30.110  18.628   3.674
33064W        W 5379  13.871  26.025   2.336
33065W        W 5380  34.368  36.044  12.939
33066W        W 5381  11.110  10.012  12.533
33067W        W 5382  35.939  24.689  12.559
33068W        W 5383  31.030   6.702  12.399
33069W        W 5384   2.444   4.110  11.819
33070W        W 5385  14.763  19.474  13.554
33071W        W 5386  29.653  15.070   0.409
33072W        W 5387  16.312  28.202  10.215
33073W        W 5388   5.836  44.908   2.591
33074W        W 5389  28.130  11.556   4.097
33075W        W 5390   7.374  19.848  12.567
33076W        W 5391  17.558  34.929   4.213
33077W        W 5392  32.865  25.940  13.435
33078W        W 5393  15.123  12.730   2.862
33079W        W 5394  25.171  21.001   4.285
33080W        W 5395  30.893  12.143  14.475
33081W        W 5396  17.694  23.411   3.148
33082W        W 5397   4.252  35.177   2.278
33083W        W 5398   8.446  10.698  11.617
33084W        W 5399  26.422  18.724   1.981
33085W        W 5400  29.952  33.521  13.964
33086W        W 5401  22.284   6.382   4.780
33087W        W 5402   2.683   3.874  13.977
33088W        W 5403  39.601   6.926  11.720
33089W        W 5404  18.345  41.381  11.547
33090W        W 5405  13.125  19.154  10.385
33091W        W 5406  31.614   9.184   4.113
33092W        W 5407  39.365   9.689  14.738
33093W        W 5408   2.717  20.014   1.844
33094W        W 5409  14.611   4.635   4.753
33095W        W 5410   5.189  39.485  10.480
33096W        W 5411   0.207  35.543   2.170
33097W        W 5412  11.695   9.087   1.831
33098W        W 5413   3.332   3.902  14.789
33099W        W 5414  41.512  19.281  13.578
33100W        W 5415  14.073  12.363  11.203
33101W        W 5416   8.935   1.436  14.230
33102W        W 5417  35.340  36.976  14.443
33103W        W 5418  40.051  11.737   1.714
33104W        W 5419  26.511  40.603   1.744
33105W        W 5420   2.329   1.865   4.540
33106W        W 5421  33.822  24.687  14.127
33107W        W 5422  31.626  32.643   2.559
33108W        W 5423  29.850   4.963  11.106
33109W        W 5424  31.319   9.617   3.841
33110W        W 5425  16.686  19.275   1.447
33111W        W 5426  12.492  28.858  14.961
33112W        W 5427  10.458  36.910  12.387
33113W        W 5428  22.969   9.471  12.028
33114W        W 5429   6.219  25.951  13.413
33115W        W 5430  25.654  39.973   0.328
33116W        W 5431  44.894  44.993   1.845
33117W        W 5432  13.609  10.528   4.030
33118W        W 5433   6.203  25.889  11.632
33119W        W 5434  18.323  32.909  11.141
33120W        W 5435  40.059  10.425   2.237
33121W        W 5436  12.761  29.983  11.585
33122W        W 5437  36.102  23.235  12.487
33123W        W 5438  16.372  42.415   0.417
33124W        W 5439  35.641  23.122  11.153
33125W        W 5440  21.694  12.332   0.756
33126W        W 5441  32.562   7.649  13.786
33127W        W 5442  36.088   0.767   4.573
33128W        W 5443  26.136  24.566  13.956
33129W        W 5444  44.794  30.472  10.913
33130W        W 5445   9.716   9.340  13.513
33131W        W 5446  36.315  14.727   0.681
33132W        W 5447   3.202  12.286  14.472
33133W        W 5448  16.566  25.122   0.319
33134W        W 5449  32.861  44.217  12.549
33135W        W 5450   5.419  17.918   2.343
33136W        W 5451   5.028  39.113  11.109
33137W        W 5452  11.829   7.614  14.917
33138W        W 5453  41.936  38.924   3.670
33139W        W 5454  30.822  42.892  12.556
33140W        W 5455  43.403  35.877   1.932
33141W        W 5456  23.914  18.452  11.810
33142W        W 5457  32.091  41.901   1.380
33143W        W 5458   7.121   5.976  12.471
33144W        W 5459  23.251  14.793   4.647
33145W        W 5460  35.285  31.830  11.171
33146W        W 5461  25.920  13.116  13.466
33147W        W 5462  42.831  30.826   2.866
33148W        W 5463  25.628  27.952   4.210
33149W        W 5464  17.195  41.765   5.258
33150W        W 5465  26.345  29.678   3.790
33151W        W 5466  14.586  10.857  14.025
33152W        W 5467   3.455  40.531   4.232
33153W        W 5468  41.422  36.278  14.809
33154W        W 5469  23.006  10.325  13.746
33155W        W 5470   1.895  12.113  12.993
33156W        W 5471  40.413  37.978   3.905
33157W        W 5472  38.786  43.785   3.203
33158W        W 5473  37.978   8.791   1.860
33159W        W 5474   8.039  21.321  11.491
33160W        W 5475  38.851  11.272  14.714
33161W        W 5476  33.521   9.711  14.000
33162W        W 5477   2.244  28.676   3.120
33163W        W 5478  31.777  28.614  11.397
33164W        W 5479  23.343  17.753   3.987
33165W        W 5480  22.616  20.287   3.397
33166W        W 5481  27.378  27.265   1.333
33167W        W 5482  43.422   9.624   3.133
33168W        W 5483   9.400   4.180  12.110
33169W        W 5484  43.215  18.489   4.077
33170W        W 5485  25.980  30.626   2.057
33171W        W 5486  35.102  10.259   1.662
33172W        W 5487  33.891  43.938   0.890
33173W        W 5488   8.424  28.970  10.835
33174W        W 5489  14.322  10.442   1.953
33175W        W 5490  10.124   3.432  12.865
33176W        W 5491  33.138  43.254   3.336
33177W        W 5492  24.524  12.224   4.448
33178W        W 5493  21.450  36.276  11.738
33179W        W 5494  24.417  27.012  13.564
33180W        W 5495   7.110   1.790  12.499
33181W        W 5496  31.362  20.739   0.917
33182W        W 5497  35.608   9.407   2.507
33183W        W 5498   5.949  15.149  14.030
33184W        W 5499  34.702  41.379  14.779
33185W        W 5500   8.855  27.739  11.588
33186W        W 5501  44.300  27.199  14.651
33187W        W 5502  17.349  38.405  12.595
33188W        W 5503  14.119   3.340  13.530
33189W        W 5504   5.842  36.248  14.530
33190W        W 5505   1.492  31.930  10.531
33191W        W 5506  40.065  22.068   0.407
33192W        W 5507  17.793  11.352   2.620
33193W        W 5508   1.701   4.283  14.758
33194W        W 5509   1.765   7.383  13.617
33195W        W 5510  11.708  26.179   0.817
33196W        W 5511  21.981  44.004  11.786
33197W        W 5512   8.532  39.084  14.997
33198W        W 5513  34.533  11.275   2.699
33199W        W 5514  27.868  44.944  12.445
33200W        W 5515  12.115   3.002   1.744
33201W        W 5516  35.648  37.069   4.783
33202W        W 5517   5.343   9.072  10.722
33203W        W 5518  35.369  24.445  13.785
33204W        W 5519  38.114  30.025  13.924
33205W        W 5520   0.407  18.956   0.377
33206W        W 5521  29.505  33.779  13.361
33207W        W 5522   3.791   7.223   0.797
33208W        W 5523  20.213  16.878  11.125
33209W        W 5524  40.409  43.908  13.378
33210W        W 5525  26.646  23.036  11.731
33211W        W 5526   5.812  18.621  14.401
33212W        W 5527  23.181  39.760   2.105
33213W        W 5528   2.862  13.877   4.883
33214W        W 5529  23.978  24.169  14.356
33215W        W 5530  19.052  33.347  14.745
33216W        W 5531  17.945   5.320   4.654
33217W        W 5532   7.635  37.961  14.445
33218W        W 5533   8.103  23.036  14.968
33219W        W 5534  14.263  12.811   2.871
33220W        W 5535   6.194  27.010  13.361
33221W        W 5536  17.170  13.770  11.472
33222W        W 5537  19.295  29.543  11.584
33223W        W 5538  26.643  33.313   4.565
33224W        W 5539  30.028  30.552   0.197
33225W        W 5540  25.155  43.431  13.317
33226W        W 5541  40.890   0.618  11.260
33227W        W 5542  37.082  26.058  14.880
33228W        W 5543  42.872  20.020  12.579
33229W        W 5544  16.992   0.772  14.738
33230W        W 5545  42.105  31.569  11.170
33231W        W 5546  13.066   2.986  10.645
33232W        W 5547  20.151  38.970   0.301
33233W        W 5548  42.793  28.498  14.437
33234W        W 5549  39.757  11.122  12.618
33235W        W 5550  42.959   9.182   4.165
33236W        W 5551   0.992  25.108   3.192
33237W        W 5552  34.615   9.542   4.152
33238W        W 5553  28.008  35.031   1.484
33239W        W 5554  16.025  44.756  11.098
33240W        W 5555  44.703  26.049  11.280
33241W        W 5556  42.063  20.100  14.417
33242W        W 5557  44.586  31.113  14.842
33243W        W 5558  31.516  33.121   2.415
33244W        W 5559  10.374  37.438   0.526
33245W        W 5560   4.644  15.659  11.624
33246W        W 5561  37.583  16.044   4.154
33247W        W 5562  11.939  32.539   1.026
33248W        W 5563  36.127  23.471   0.162
33249W        W 5564  32.844  32.539   3.379
33250W        W 5565  25.529  34.568  12.409
33251W        W 5566   3.708  10.653  14.656
33252W        W 5567  39.122   8.215  14.397
33253W        W 5568  35.056  22.001  12.944
33254W        W 5569  38.178   6.312   1.231
33255W        W 5570   5.304  32.930  11.126
33256W        W 5571  30.511   9.615   0.023
33257W        W 5572  26.749  44.486  14.817
33258W        W 5573  35.639  32.894   3.897
33259W        W 5574  31.210  11.135  14.472
33260W        W 5575  14.642  15.413  13.555
33261W        W 5576  34.001  15.661  10.195
33262W        W 5577  35.391  35.131   2.204
33263W        W 5578   8.737  21.488  13.473
33264W        W 5579  39.536  19.476  14.842
33265W        W 5580  33.520  32.986   1.822
33266W        W 5581  36.188  15.094   1.777
33267W        W 5582  36.834   0.927  11.987
33268W        W 5583  13.277  33.602   1.863
33269W        W 5584  24.681  40.571   3.680
33270W        W 5585  16.594  41.103  14.310
33271W        W 5586  19.294   6.217   2.613
33272W        W 5587  18.700   7.711   4.106
33273W        W 5588  18.746  21.286   1.539
33274W        W 5589  37.401  42.746   3.378
33275W        W 5590  41.829  24.165   4.243
33276W        W 5591   7.149  13.727  13.143
33277W        W 5592  36.458   7.144   0.508
33278W        W 5593  10.343   5.279  13.247
33279W        W 5594   5.444  24.413  12.494
33280W        W 5595  40.398  37.542   3.098
33281W        W 5596  27.097  26.655  10.690
33282W        W 5597  44.769  43.561   1.756
33283W        W 5598  17.766  21.535  12.550
33284W        W 5599  41.801  32.448  14.068
33285W        W 5600  44.739  33.275   2.235
33286W        W 5601   1.994  18.192   1.723
33287W        W 5602  25.011  39.395   0.985
33288W        W 5603   4.660  27.554   3.602
33289W        W 5604  15.065  33.986   2.290
33290W        W 5605  21.268   0.790   1.972
33291W        W 5606   9.256  44.233   3.476
33292W        W 5607   1.719  13.171  13.973
33293W        W 5608  17.302  33.894   5.035
33294W        W 5609  33.392  28.843  14.612
33295W        W 5610  33.935  43.311  14.451
33296W        W 5611  40.289   1.832   0.408
33297W        W 5612  38.072  10.831  10.912
33298W        W 5613  19.743  23.001  11.670
33299W        W 5614  28.894  42.196  13.470
33300W        W 5615  15.560  44.768  12.420
33301W        W 5616   1.705  44.842  14.439
33302W        W 5617  29.362   4.789   5.033
33303W        W 5618  20.737  17.640  13.083
33304W        W 5619  31.695  27.432   1.464
33305W        W 5620  22.472  11.157  11.438
33306W        W 5621   9.737  27.622  11.227
33307W        W 5622  43.182  21.511  12.904
33308W        W 5623  16.576   0.617  10.524
33309W        W 5624  10.713   1.993   2.050
33310W        W 5625   0.066  41.419   4.567
33311W        W 5626  26.259  10.677  12.558
33312W        W 5627  23.549  37.272   2.815
33313W        W 5628  15.636  38.566  10.753
33314W        W 5629  16.654  41.590  12.114
33315W        W 5630  16.603  28.044   1.952
33316W        W 5631  28.340   7.792   2.732
33317W        W 5632   2.995   1.929   2.409
33318W        W 5633  27.372  33.088  11.627
33319W        W 5634  34.155   4.785   1.308
33320W        W 5635   7.696   2.519   4.173
33321W        W 5636  28.413   6.809  10.574
33322W        W 5637   2.750   1.182  13.529
33323W        W 5638  39.996  36.833  12.940
33324W        W 5639  35.479  23.445  14.539
33325W        W 5640  20.358   6.661  11.219
33326W        W 5641  10.875   9.198  12.768
33327W        W 5642  20.668  17.135  12.041
33328W        W 5643   3.339  32.603   4.459
33329W        W 5644  12.575  27.048  12.326
33330W        W 5645  44.298  40.370  14.482
33331W        W 5646  10.336  44.464  10.710
33332W        W 5647  11.343  13.618   3.360
33333W        W 5648  32.964  23.599   0.487
33334W        W 5649  38.583  17.313  13.397
33335W        W 5650  22.299  20.678   1.625
33336W        W 5651  26.880  25.025  11.194
33337W        W 5652  40.847   8.772   4.914
33338W        W 5653  26.035  25.977  12.145
33339W        W 5654  42.473  32.208  12.378
33340W        W 5655   4.201   5.399   4.040
33341W        W 5656   0.856  11.323   5.135
33342W        W 5657  36.067  26.720  11.170
33343W        W 5658  26.698  36.873  12.615
33344W        W 5659  12.093  44.350  12.716
33345W        W 5660  11.243  12.627   4.370
33346W        W 5661  44.865   2.869   4.375
33347W        W 5662   2.537  13.114  14.383
33348W        W 5663  13.309  17.779  12.409
33349W        W 5664  31.986  23.765   2.337
33350W        W 5665   3.386  11.419   3.157
33351W        W 5666  30.552  18.175  11.650
33352W        W 5667  22.694  12.944   2.214
33353W        W 5668  24.587  34.029   3.180
33354W        W 5669  40.760  24.891  14.487
33355W        W 5670  28.516  38.605   2.293
33356W        W 5671   4.037  41.125  12.746
33357W        W 5672  40.881  20.287  14.893
33358W        W 5673  17.305  34.468  12.368
33359W        W 5674   4.491   8.226   1.715
33360W        W 5675  36.554  22.027   4.575
33361W        W 5676  39.960  14.452   4.755
33362W        W 5677  25.909  31.220   0.807
33363W        W 5678  27.127  29.480  12.873
33364W        W 5679  10.820  10.646   3.658
33365W        W 5680   3.922  23.459   3.717
33366W        W 5681   7.428  44.956   1.707
33367W        W 5682  31.413  21.603   3.701
33368W        W 5683  32.366   8.118  14.461
33369W        W 5684  19.976  42.982  10.628
33370W        W 5685  28.982  19.822  14.946
33371W        W 5686  16.151  30.569  13.246
33372W        W 5687  30.082   2.901  13.931
33373W        W 5688  25.432  12.314  12.141
33374W        W 5689  42.755   7.796   4.378
33375W        W 5690   8.744  36.063   0.823
33376W        W 5691  14.312  36.991  14.369
33377W        W 5692  30.261  42.807  13.327
33378W        W 5693  10.038  39.817  11.493
33379W        W 5694   4.843  35.111  10.782
33380W        W 5695  41.596  20.867   1.292
33381W        W 5696   3.778   7.115  11.510
33382W        W 5697  21.952  35.436  14.514
33383W        W 5698   1.752   7.217   4.620
33384W        W 5699  30.187  37.915  13.026
33385W        W 5700   2.895  13.377  13.489
33386W        W 5701  35.394  44.798   4.099
33387W        W 5702  42.435  11.760  10.834
33388W        W 5703  17.686  13.326  10.823
33389W        W 5704   2.127  40.301  10.829
33390W        W 5705  28.115  16.862  12.924
33391W        W 5706  43.335   6.200   0.734
33392W        W 5707  19.296   3.198   3.076
33393W        W 5708  28.181  17.516   4.123
33394W        W 5709  10.329  40.005  13.868
33395W        W 5710  31.842  29.971   0.780
33396W        W 5711  28.652  40.861  12.316
33397W        W 5712  22.236   8.145   1.557
33398W        W 5713  11.542  12.627  10.280
33399W        W 5714  41.267   2.231  14.807
33400W        W 5715  11.392   5.848  13.802
33401W        W 5716  34.458   5.877   3.221
33402W        W 5717  35.227  10.770  12.455
33403W        W 5718  15.642  35.637   1.590
33404W        W 5719  35.626   4.834   0.122
33405W        W 5720  29.111  27.909   3.884
33406W        W 5721  26.495   8.802  11.542
33407W        W 5722  43.039  19.445  10.268
33408W        W 5723  25.135  31.982  11.624
33409W        W 5724   9.693  14.643   1.310
33410W        W 5725  27.573   3.962  11.984
33411W        W 5726  32.155  13.527  13.913
33412W        W 5727  25.961  26.548  12.360
33413W        W 5728  29.205  27.186  13.508
33414W        W 5729  33.444  38.227  14.472
33415W        W 5730   1.379  35.076  13.313
33416W        W 5731  31.507  38.617  13.779
33417W        W 5732   3.603  20.284   2.729
33418W        W 5733   2.251  34.815   1.009
33419W        W 5734  11.820  30.140   0.988
33420W        W 5735   2.950  16.724   2.827
33421W        W 5736   4.606   2.720  10.388
33422W        W 5737  36.386   5.133   3.734
33423W        W 5738  20.658  18.539   0.412
33424W        W 5739  16.107   4.826  11.822
33425W        W 5740  12.540  11.973   3.965
33426W        W 5741  30.567  11.635  13.817
33427W        W 5742  28.125  22.554  13.911
33428W        W 5743  36.066   8.224   1.895
33429W        W 5744  17.061  26.047  11.197
33430W        W 5745  20.580  27.151   0.271
33431W        W 5746  12.410  13.675   1.743
33432W        W 5747  31.112  31.524  10.736
33433W        W 5748  20.201  33.461  14.281
33434W        W 5749  20.150   3.228   1.321
33435W        W 5750  24.119  14.789  12.329
33436W        W 5751  14.206  42.575  13.892
33437W        W 5752  43.868  30.436  14.741
33438W        W 5753  14.204  42.394  11.264
33439W        W 5754  32.029  14.565  12.403
33440W        W 5755  41.540  21.179   3.199
33441W        W 5756  38.331  35.284  11.888
33442W        W 5757  36.614  10.247  13.729
33443W        W 5758  42.612  24.213  13.345
33444W        W 5759   1.296   3.789  10.717
33445W        W 5760  23.960  22.152   4.978
33446W        W 5761   8.677  21.998   3.569
33447W        W 5762  17.774  43.981   4.812
33448W        W 5763  40.901   0.970   0.231
33449W        W 5764  30.141  30.403   1.595
33450W        W 5765  21.552  10.828   4.739
33451W        W 5766  12.296  28.651  11.156
33452W        W 5767  26.315  13.779  14.539
33453W        W 5768  32.077  13.208  12.935
33454W        W 5769  44.307  22.119  13.382
33455W        W 5770  22.259  17.748  10.670
33456W        W 5771  36.388   7.913   3.231
33457W        W 5772  33.477  31.879   1.505
33458W        W 5773  16.990  10.728  12.496
33459W        W 5774  18.695  33.080  10.695
33460W        W 5775  32.411  28.026   3.670
33461W        W 5776  19.652  41.374  12.944
33462W        W 5777  29.351  11.580   3.726
33463W        W 5778  27.910  29.936   2.422
33464W        W 5779  37.837   9.803   0.792
33465W        W 5780  29.929  41.077   3.708
33466W        W 5781  14.205  35.907   1.425
33467W        W 5782  33.523  24.465  12.033
33468W        W 5783  20.198   7.707  14.922
33469W        W 5784   7.841  24.795   1.069
33470W        W 5785  36.630  14.288   0.694
33471W        W 5786  22.495   3.027  12.721
33472W        W 5787  11.088  14.675  11.184
33473W        W 5788  18.092   2.523  11.970
33474W        W 5789  35.930  12.073   1.950
33475W        W 5790   6.414  20.626   0.774
33476W        W 5791   7.614  42.011   3.690
33477W        W 5792  36.880  23.446  11.566
33478W        W 5793  43.883  14.653  11.546
33479W        W 5794  28.047  44.419   4.621
33480W        W 5795  32.885   4.184   1.433
33481W        W 5796  20.814   6.429  14.244
33482W        W 5797   6.268  44.099   3.729
33483W        W 5798  13.113  29.624  10.298
33484W        W 5799   7.101   4.794  13.837
33485W        W 5800  39.981  31.172   1.846
33486W        W 5801   5.974  19.806   1.257
33487W        W 5802   0.576  25.168  11.211
33488W        W 5803   8.908  17.818  13.918
33489W        W 5804  15.808  36.831  11.522
33490W        W 5805   5.431  20.681   2.936
33491W        W 5806  25.095   1.420   3.690
33492W        W 5807  22.158  35.394   1.900
33493W        W 5808  34.236   0.009   4.775
33494W        W 5809   1.538  17.610   2.272
33495W        W 5810   9.812  44.456  14.709
33496W        W 5811  24.377   5.215   3.895
33497W        W 5812  44.839  17.886  12.421
33498W        W 5813   7.878  22.682  10.908
33499W        W 5814  27.248  11.784  13.869
33500W        W 5815  19.684  44.359   1.892
33501W        W 5816  24.105  26.240   4.326
33502W        W 5817  21.249  24.054   2.250
33503W        W 5818  19.574  40.274   2.745
33504W        W 5819   8.288  24.990  12.475
33505W        W 5820  27.583  23.255  11.249
33506W        W 5821  36.575   5.965   1.294
33507W        W 5822  16.990   9.101  14.119
33508W        W 5823  44.295   3.590  11.932
33509W        W 5824  17.734  38.483  10.672
33510W        W 5825  38.932  39.998  11.716
33511W        W 5826   0.447   8.287   2.678
33512W        W 5827  37.115   0.962  11.546
33513W        W 5828   2.722  29.703  14.067
33514W        W 5829  33.196  16.034   0.683
33515W        W 5830  12.797  18.219   1.689
33516W        W 5831   4.226  11.721   1.682
33517W        W 5832  44.613  23.222   2.123
33518W        W 5833  24.463  30.088   3.888
33519W        W 5834  31.489  41.816  12.528
33520W        W 5835  29.570  13.095   1.400
33521W        W 5836  10.402  16.071   4.608
33522W        W 5837  24.062  28.476  14.613
33523W        W 5838   9.050  32.878  14.420
33524W        W 5839  11.361   9.125   1.403
33525W        W 5840  31.433  40.284  14.681
33526W        W 5841  38.564  24.008  14.653
33527W        W 5842  19.827  13.811  14.787
33528W        W 5843  36.847  40.449  10.701
33529W        W 5844  26.474  12.691  12.996
33530W        W 5845  40.038  12.721   0.237
33531W        W 5846  33.013  17.950  10.694
33532W        W 5847  41.083  37.632   2.859
33533W        W 5848  13.417  33.206  14.290
33534W        W 5849  38.982  30.989  14.397
33535W        W 5850  43.609  43.775  12.517
33536W        W 5851  10.402  33.315  10.287
33537W        W 5852  38.064  21.408   4.977
33538W        W 5853  22.768  34.181   0.714
33539W        W 5854  16.057  27.894  13.819
33540W        W 5855  41.272  32.876   3.175
33541W        W 5856  31.439   7.281   4.313
33542W        W 5857  26.420  33.461   4.122
33543W        W 5858  26.588  18.414  14.872
33544W        W 5859  44.231   0.796  12.101
33545W        W 5860  13.808  10.749  10.997
33546W        W 5861  15.019  28.510  11.899
33547W        W 5862  28.933   1.398   1.669
33548W        W 5863   4.916   3.520   4.734
33549W        W 5864  29.165  40.525   3.241
33550W        W 5865   5.419  27.900  12.694
33551W        W 5866  20.234  40.139  10.690
33552W        W 5867   1.857  38.377  12.643
33553W        W 5868  28.894  26.925  11.171
33554W        W 5869   5.695  23.716   2.174
33555W        W 5870  27.450  12.756  14.501
33556W        W 5871  32.093   8.123  13.992
33557W        W 5872   7.311   7.253   2.199
33558W        W 5873  30.052  21.197   0.250
33559W        W 5874   2.702  38.606   2.897
33560W        W 5875  24.678  12.611  12.997
33561W        W 5876  19.285  29.239   2.640
33562W        W 5877   6.177  22.140  14.732
33563W        W 5878   6.565  13.218  11.118
33564W        W 5879   6.927  33.356  10.799
33565W        W 5880  39.777  14.257  11.087
33566W        W 5881  12.260  18.984  10.756
33567W        W 5882  39.593  37.081   1.312
33568W        W 5883  27.419  38.079  12.979
33569W        W 5884  10.643  33.478  12.584
33570W        W 5885  12.401  35.754   2.205
33571W        W 5886  25.832  32.983   3.857
33572W        W 5887   6.668  19.069   4.779
33573W        W 5888  34.482  44.422  13.790
33574W        W 5889  32.067   9.840   2.922
33575W        W 5890  40.961  25.010  14.952
33576W        W 5891  10.857  17.348  11.464
33577W        W 5892  21.175  21.821  14.400
33578W        W 5893  17.181   4.361   2.638
33579W        W 5894   6.832   5.203   4.517
33580W        W 5895  10.304  42.521   4.115
33581W        W 5896  11.753  34.517   1.357
33582W        W 5897  40.078  31.529   2.801
33583W        W 5898   1.508  14.692  11.592
33584W        W 5899  21.553  22.920  12.498
33585W        W 5900  33.381  40.011  13.407
33586W        W 5901  41.247  13.234  10.757
33587W        W 5902   9.971  32.220   1.318
33588W        W 5903  25.671   0.899  13.037
33589W        W 5904  39.067  44.299   4.932
33590W        W 5905  16.529  25.009   2.948
33591W        W 5906  28.504  27.193  11.400
33592W        W 5907  43.228  31.676  14.453
33593W        W 5908  19.763  15.068   1.881
33594W        W 5909  31.206  12.317  12.952
33595W        W 5910  36.494  41.214  10.331
33596W        W 5911  22.143  25.604  14.347
33597W        W 5912  21.491   7.642   2.727
33598W        W 5913  42.968  19.167  14.206
33599W        W 5914  34.182  28.476  12.052
33600W        W 5915  33.437  40.763  14.945
33601W        W 5916  35.609   4.974  10.991
33602W        W 5917   0.904   9.911   3.665
33603W        W 5918   3.485   7.481  14.149
33604W        W 5919  13.503   4.901   1.810
33605W        W 5920  21.700  24.053   0.417
33606W        W 5921  24.206   7.706  14.953
33607W        W 5922  33.504   8.875  14.421
33608W        W 5923  15.232   6.181  14.545
33609W        W 5924  22.289  43.815  12.460
33610W        W 5925  10.797  16.553   4.075
33611W        W 5926   6.705  22.574   4.095
33612W        W 5927   9.751  20.596  14.475
33613W        W 5928  31.015  15.535  14.527
33614W        W 5929  36.901  44.162  12.591
33615W        W 5930   4.255  31.603  13.889
33616W        W 5931  19.224   0.217   0.259
33617W        W 5932  42.889  22.591   4.090
33618W        W 5933  38.570  10.661  14.382
33619W        W 5934  27.793  27.634   0.435
33620W        W 5935  29.166  34.886   2.791
33621W        W 5936  29.958  15.888  14.915
33622W        W 5937  11.520   5.712  14.282
33623W        W 5938   5.327   6.212   3.819
33624W        W 5939  21.580   4.252  10.799
33625W        W 5940  36.423   5.972  12.489
33626W        W 5941  14.176  24.005   4.151
33627W        W 5942   6.064  17.420   0.578
33628W        W 5943   3.747   7.272  13.081
33629W        W 5944   2.265  17.842   3.038
33630W        W 5945  15.817  16.180   4.651
33631W        W 5946  24.228  10.343  12.885
33632W        W 5947  38.401  12.727  13.836
33633W        W 5948  22.349   3.960  14.105
33634W        W 5949  19.113  37.978  12.581
33635W        W 5950  17.991   9.602   3.212
33636W        W 5951  31.159  41.393  12.591
33637W        W 5952   3.106  12.818   4.007
33638W        W 5953   6.001  31.666   4.252
33639W        W 5954  16.490   4.270   3.797
33640W        W 5955  21.233  26.643  13.836
33641W        W 5956   5.928  28.157   0.872
33642W        W 5957  22.787   7.145  12.541
33643W        W 5958  22.240  24.135   0.481
33644W        W 5959  15.528  32.327   3.798
33645W        W 5960  28.926  27.643  13.836
33646W        W 5961  36.390  35.005  13.579
33647W        W 5962  32.978   8.927  10.479
33648W        W 5963  44.951  20.225   3.208
33649W        W 5964  20.780  30.430  10.800
33650W        W 5965   1.774  22.566  12.904
33651W        W 5966   0.774  27.752   3.698
33652W        W 5967  41.779  22.116  14.587
33653W        W 5968  44.054   2.708  11.060
33654W        W 5969  33.918  13.912  14.669
33655W        W 5970  27.240  17.615   4.585
33656W        W 5971  44.490  29.983   4.387
33657W        W 5972  27.571  29.713  13.625
33658W        W 5973  19.293  43.397  14.464
33659W        W 5974   5.069  38.087   3.844
33660W        W 5975  17.326   7.391   3.614
33661W        W 5976  17.792  35.325   3.261
33662W        W 5977  39.245  21.065   3.771
33663W        W 5978  38.101  17.866  13.033
33664W        W 5979   0.812   5.964  12.511
33665W        W 5980   6.158   3.715  13.633
33666W        W 5981  18.884  44.103   2.906
33667W        W 5982  24.932  44.434  14.330
33668W        W 5983  22.617  38.907   4.953
33669W        W 5984   0.435  29.981   0.707
33670W        W 5985   6.736   0.231   2.341
33671W        W 5986  11.662  30.090   4.438
33672W        W 5987  25.834  26.524   4.479
33673W        W 5988  24.921  31.433  14.083
33674W        W 5989  33.315  26.507   2.393
33675W        W 5990   6.472   1.710  10.767
33676W        W 5991  19.207  24.167   0.538
33677W        W 5992   7.706   5.230   1.693
33678W        W 5993  11.748  44.442  11.354
33679W        W 5994   9.563  11.662  11.158
33680W        W 5995  42.306  21.650  12.428
33681W        W 5996  38.694  27.548   0.020
33682W        W 5997  24.465   6.441   4.004
33683W        W 5998  20.197   0.371   1.311
33684W        W 5999  12.822  19.166   3.242
33685W        W 6000  15.594  16.252  12.465
33686W        W 6001  15.295  15.428   3.328
33687W        W 6002  17.693  16.333  11.984
33688W        W 6003  26.200  12.715   1.187
33689W        W 6004   2.488  17.346   4.178
33690W        W 6005  30.336  38.721   4.092
33691W        W 6006  32.115  36.207   4.319
33692W        W 6007  28.404  37.775   2.725
33693W        W 6008  25.876   1.030  12.554
33694W        W 6009  37.459   3.668   0.387
33695W        W 6010  11.695  44.549   2.134
33696W        W 6011  20.460  30.214   3.341
33697W        W 6012  44.783  12.632   4.618
33698W        W 6013  36.910  20.994   2.489
33699W        W 6014  28.639  38.298  11.171
33700W        W 6015  21.597  32.804  11.825
33701W        W 6016  40.805  31.463  10.457
33702W        W 6017   4.749  30.362   0.747
33703W        W 6018  26.118  28.156  14.392
33704W        W 6019  12.374   9.657  14.577
33705W        W 6020  14.163  19.982   1.398
33706W        W 6021  27.127  42.980   2.745
33707W        W 6022   2.719  28.422   3.102
33708W        W 6023  44.040  25.949  12.500
33709W        W 6024  44.422  27.187   1.152
33710W        W 6025   0.312   4.978  12.365
33711W        W 6026  17.039  44.920   4.287
33712W        W 6027  24.274  20.529  14.985
33713W        W 6028  32.348  11.719   3.748
33714W        W 6029  44.493  11.370   4.915
33715W        W 6030   7.303   5.640   1.370
33716W        W 6031   1.407  36.225  10.168
33717W        W 6032  18.861   5.412  13.258
33718W        W 6033  41.458  16.254   1.716
33719W        W 6034  44.332   5.820  11.303
33720W        W 6035  38.506  30.456   2.390
33721W        W 6036  24.229   6.293  11.131
33722W        W 6037  32.914  20.159   0.915
33723W        W 6038  13.391  35.532   2.707
33724W        W 6039   7.877  22.819  14.567
33725W        W 6040  12.391   8.828   2.755
33726W        W 6041  20.395  21.713   0.896
33727W        W 6042  12.811  16.957   9.940
33728W        W 6043   5.184  19.116  14.873
33729W        W 6044  11.917  26.044  11.867
33730W        W 6045  34.398   6.694   1.793
33731W        W 6046  36.635  17.424  14.655
33732W        W 6047  40.672   3.660  12.984
33733W        W 6048  12.716  27.037  13.308
33734W        W 6049   0.751   1.853  11.911
33735W        W 6050  24.249  14.333  12.542
33736W        W 6051  25.991  28.673  10.415
33737W        W 6052  16.809  11.389  12.790
33738W        W 6053  12.269  21.633  11.619
33739W        W 6054  33.391  27.611  13.847
33740W        W 6055  18.057  32.464  11.125
33741W        W 6056   6.803   4.650  14.705
33742W        W 6057  22.715  32.419  14.659
33743W        W 6058   2.127  39.923   4.538
33744W        W 6059   0.854  15.847  13.502
33745W        W 6060  28.588  31.901   3.315
33746W        W 6061  30.512  25.255  11.594
33747W        W 6062  30.373  28.333   0.482
33748W        W 6063  44.074   5.523  13.048
33749W        W 6064   0.447  26.667  14.451
33750W        W 6065  32.992  41.587  12.063
33751W        W 6066  15.554  44.586   0.006
33752W        W 6067  26.394  20.797   1.338
33753W        W 6068   9.914  39.973  14.274
33754W        W 6069   8.879  37.514   1.177
33755W        W 6070  41.923  25.555   2.423
33756W        W 6071  27.951  30.404   3.555
33757W        W 6072  44.088   4.259   1.718
33758W        W 6073  20.180  27.409   3.494
33759W        W 6074  43.507  27.341  13.927
33760W        W 6075   1.701  24.599  14.264
33761W        W 6076  34.945  38.526   1.288
33762W        W 6077  42.995  26.316  11.983
33763W        W 6078   5.886  34.918  14.460
33764W        W 6079  38.491  28.887  14.538
33765W        W 6080   1.496  21.558  12.446
33766W        W 6081  15.777  34.082  10.670
33767W        W 6082  44.444  10.249   2.827
33768W        W 6083   7.362  41.230   2.305
33769W        W 6084  27.179  31.977   4.618
33770W        W 6085  11.785  30.139  10.170
33771W        W 6086  10.527   7.127   2.336
33772W        W 6087  34.494  15.299   3.771
33773W        W 6088  41.939  35.463  14.742
33774W        W 6089  13.342  13.796  12.570
33775W        W 6090  32.442   0.721  11.022
33776W        W 6091  15.705   3.138   1.873
33777W        W 6092  29.687   2.159   0.864
33778W        W 6093   5.530  25.623   2.155
33779W        W 6094  16.214   4.622  12.632
33780W        W 6095  44.997  35.172  12.473
33781W        W 6096  12.910   7.308  12.506
33782W        W 6097  12.053  16.334   0.922
33783W        W 6098  30.625  23.644   1.843
33784W        W 6099  24.873  10.445  11.071
33785W        W 6100  34.029  28.446   5.000
33786W        W 6101  33.554  12.877  14.865
33787W        W 6102  28.325  15.021   5.042
33788W        W 6103  42.963  36.278   0.517
33789W        W 6104  26.495  26.250  11.856
33790W        W 6105  33.590  18.546   2.879
33791W        W 6106  31.452  43.833  14.417
33792W        W 6107  37.901   8.817  12.659
33793W        W 6108   4.654   5.027  10.860
33794W        W 6109  33.442  38.832   9.982
33795W        W 6110  22.662   0.923  14.419
33796W        W 6111  40.616  12.805   2.916
33797W        W 6112  11.660   2.696  11.008
33798W        W 6113   1.801  36.717  10.543
33799W        W 6114  31.762  14.679  14.831
33800W        W 6115  16.149  21.665   0.846
33801W        W 6116  18.999  34.909  14.833
33802W        W 6117  21.634   6.304  10.679
33803W        W 6118  30.182  29.204   2.281
33804W        W 6119  33.390  38.127   0.879
33805W        W 6120  11.105  37.809   3.061
33806W        W 6121  26.259  42.740  14.415
33807W        W 6122  39.792   5.228   0.743
33808W        W 6123  34.467  16.230  10.767
33809W        W 6124   1.303  36.935   1.419
33810W        W 6125   6.899  13.725  11.868
33811W        W 6126  25.513  38.347   0.685
33812W        W 6127   4.761  26.742  13.136
33813W        W 6128  40.113  43.252   0.164
33814W        W 6129   5.767  26.418   3.709
33815W        W 6130  21.325  43.564  13.613
33816W        W 6131  18.731   1.756   1.893
33817W        W 6132  10.767  44.440   0.580
33818W        W 6133  37.999  43.672   4.433
33819W        W 6134  34.870  27.060  12.035
33820W        W 6135  32.758  39.538   2.245
33821W        W 6136  26.646  27.056   3.171
33822W        W 6137  10.172  34.124  13.879
33823W        W 6138  20.144  17.132   2.403
33824W        W 6139  24.095  12.305   1.298
33825W        W 6140  19.027  34.690  13.394
33826W        W 6141  25.010  18.084   3.333
33827W        W 6142  32.455   1.479   2.892
33828W        W 6143  26.003   7.196  12.425
33829W        W 6144  28.134  43.883  13.471
33830W        W 6145  28.962   4.169  12.019
33831W        W 6146  42.573  27.523  12.068
33832W        W 6147  26.457  21.128   3.286
33833W        W 6148  35.568  24.984   2.237
33834W        W 6149  12.775  22.451   3.713
33835W        W 6150  12.904  32.536   4.190
33836W        W 6151   6.120   5.354   0.306
33837W        W 6152  30.437  29.523   3.312
33838W        W 6153  15.686  37.096  11.087
33839W        W 6154   8.822   1.247  10.505
33840W        W 6155  35.588  19.551   2.350
33841W        W 6156   4.688  30.746  11.212
33842W        W 6157  44.813   2.050  13.836
33843W        W 6158   0.742  14.371   2.257
33844W        W 6159  43.735  40.223   1.915
33845W        W 6160   4.480  43.675   3.087
33846W        W 6161   9.884  44.973   4.274
33847W        W 6162  27.372  16.134  11.210
33848W        W 6163  18.641  15.295   3.925
33849W        W 6164  37.105  24.062  13.398
33850W        W 6165  16.310  13.646   0.444
33851W        W 6166  20.717  42.885   3.435
33852W        W 6167  38.894  18.568  13.796
33853W        W 6168  44.924  34.353   1.542
33854W        W 6169   8.815  38.699  11.633
33855W        W 6170  34.894  23.246   3.658
33856W        W 6171  21.430  34.508   4.604
33857W        W 6172   4.870  10.118   2.316
33858W        W 6173  25.042  22.649   3.648
33859W        W 6174   9.395  38.848   1.812
33860W        W 6175  35.768  14.667   0.434
33861W        W 6176  29.022  33.339  12.472
33862W        W 6177  36.230   9.071  13.874
33863W        W 6178  19.367  16.187   1.797
33864W        W 6179   5.479  10.603   3.203
33865W        W 6180  35.323  44.401  12.526
33866W        W 6181  12.146  34.886  11.522
33867W        W 6182  44.857   1.778   1.280
33868W        W 6183  27.618   3.154   2.609
33869W        W 6184   5.743  43.064  12.553
33870W        W 6185   7.718  25.019  11.633
33871W        W 6186   9.605  13.452  14.914
33872W        W 6187  10.577  20.015   9.985
33873W        W 6188  11.306  17.406   1.334
33874W        W 6189  43.870  43.081  11.456
33875W        W 6190   3.867   3.500   4.244
33876W        W 6191  42.905  37.348   2.385
33877W        W 6192  31.220  43.802   2.858
33878W        W 6193  30.840  42.881  14.886
33879W        W 6194   4.744  19.037   2.407
33880W        W 6195  20.094  19.802   3.816
33881W        W 6196  42.842  19.604   3.825
33882W        W 6197  28.176  32.614   2.226
33883W        W 6198  40.740  40.313  14.901
33884W        W 6199  26.497   9.139   0.313
33885W        W 6200  15.746  32.967   2.137
33886W        W 6201  19.657  19.129  14.512
33887W        W 6202  37.496  27.262   3.285
33888W        W 6203  40.124  15.877  14.406
33889W        W 6204  10.391   4.988   3.299
33890W        W 6205  37.995  13.330  13.530
33891W        W 6206  22.320  38.971  12.921
33892W        W 6207  23.633  33.832  12.440
33893W        W 6208   8.212  13.101   3.893
33894W        W 6209  13.639  42.551   2.760
33895W        W 6210  33.772  19.637  10.291
33896W        W 6211  31.605  21.082  12.139
33897W        W 6212  20.066  42.792  10.159
33898W        W 6213   4.403   5.814   3.799
33899W        W 6214  25.121  23.261  10.721
33900W        W 6215  26.202  26.667  11.914
33901W        W 6216   8.768  19.659   4.113
33902W        W 6217  15.336   5.688   3.670
33903W        W 6218  27.181  43.487  10.567
33904W        W 6219  39.281   2.464  12.013
33905W        W 6220  22.116  11.157   0.373
33906W        W 6221  20.603  28.144  13.511
33907W        W 6222  20.646  27.521   4.275
33908W        W 6223  19.136  21.744  13.167
33909W        W 6224  38.041  12.414  12.447
33910W        W 6225  10.834  11.614  14.429
33911W        W 6226   3.194  36.522  10.740
33912W        W 6227  20.680   5.546   0.398
33913W        W 6228   9.387   9.992  13.002
33914W        W 6229  24.571  27.283  11.424
33915W        W 6230  25.783  24.874   4.215
33916W        W 6231  30.572  39.385  12.987
33917W        W 6232   5.295  17.305  13.467
33918W        W 6233  40.046  13.152   4.155
33919W        W 6234   3.885  22.125   1.476
33920W        W 6235  22.950  27.073   3.629
33921W        W 6236   4.898  36.051  11.739
33922W        W 6237   8.735  39.968   2.382
33923W        W 6238  43.113  26.761   1.740
33924W        W 6239  10.425  30.979  13.699
33925W        W 6240  40.525  31.403   3.119
33926W        W 6241  40.646  12.835  14.002
33927W        W 6242  16.278  36.159   1.895
33928W        W 6243  35.055  42.229  14.994
33929W        W 6244  29.579  32.531   0.993
33930W        W 6245  24.262  38.263  13.492
33931W        W 6246  37.068   5.686  10.681
33932W        W 6247  35.072  30.192  13.061
33933W        W 6248  43.211  37.940   3.080
33934W        W 6249  20.797  30.186  14.866
33935W        W 6250  12.552   4.697   9.872
33936W        W 6251  44.895  28.040  10.164
33937W        W 6252  13.332   6.861  14.789
33938W        W 6253  31.403  38.107   3.414
33939W        W 6254  16.556   5.384  11.975
33940W        W 6255   3.318   7.182   3.577
33941W        W 6256  15.892   8.004   4.073
33942W        W 6257  42.239  24.463   1.140
33943W        W 6258  41.342  23.716   1.944
33944W        W 6259  29.510   9.380  11.463
33945W        W 6260  44.804  43.269  11.452
33946W        W 6261  16.127  39.011   0.735
33947W        W 6262  22.720  17.578   2.139
33948W        W 6263  41.569  21.723   3.705
33949W        W 6264  43.863   3.464   1.689
33950W        W 6265  36.026  33.636   1.249
33951W        W 6266   6.730  13.812   2.817
33952W        W 6267  38.497  38.478   2.207
33953W        W 6268  22.646  40.363  10.580
33954W        W 6269  20.513  41.844   1.523
33955W        W 6270  21.670  18.759   3.353
33956W        W 6271  17.800  38.947  14.691
33957W        W 6272  20.970   2.930   2.323
33958W        W 6273  16.677  36.534   1.291
33959W        W 6274  15.771   8.006  14.500
33960W        W 6275   8.607  33.214  12.453
33961W        W 6276  12.859  41.061   0.822
33962W        W 6277  13.107   4.733  11.969
33963W        W 6278  41.774   0.377  11.988
33964W        W 6279  18.764  19.757  12.459
33965W        W 6280  27.219  42.831   0.829
33966W        W 6281  12.101   8.866   3.194
33967W        W 6282   2.952  34.526   1.276
33968W        W 6283  43.923  22.992  14.408
33969W        W 6284  31.017   3.375   1.939
33970W        W 6285  12.197   1.600   3.948
33971W        W 6286   9.889  41.759  14.006
33972W        W 6287  14.235   7.138  12.933
33973W        W 6288  43.366  30.024   4.937
33974W        W 6289  13.849  14.677  13.444
33975W        W 6290  18.734   6.416   4.639
33976W        W 6291  38.464   2.712  12.430
33977W        W 6292  17.759  12.906   4.594
33978W        W 6293  28.470  25.256   1.953
33979W        W 6294  17.728  31.653   3.788
33980W        W 6295  32.590  36.351   4.560
33981W        W 6296   8.808  21.008  11.155
33982W        W 6297  37.926   4.978   2.823
33983W        W 6298   7.755  13.921   3.879
33984W        W 6299   3.306  35.394  12.034
33985W        W 6300   3.743  17.259  10.678
33986W        W 6301  21.543  44.729   1.254
33987W        W 6302  27.059  22.080   1.658
33988W        W 6303  15.897  32.870   0.541
33989W        W 6304   2.894  13.041   1.856
33990W        W 6305  30.631  32.890   2.365
33991W        W 6306  10.721  17.560   0.539
33992W        W 6307   2.837  37.588   1.803
33993W        W 6308  36.100  41.237   1.785
33994W        W 6309  29.352   8.888  13.121
33995W        W 6310  30.635  38.058   2.415
33996W        W 6311  32.805   8.380   4.137
33997W        W 6312  16.695  21.696   2.644
33998W        W 6313  16.208  37.734  11.098
33999W        W 6314   8.428  23.025  10.948
34000W        W 6315  17.373   4.886   3.332
34001W        W 6316  12.713  33.840  11.606
34002W        W 6317  27.590  26.428   4.132
34003W        W 6318  34.438   2.565  12.369
34004W        W 6319  29.051  22.225   1.745
34005W        W 6320  35.651  32.741  14.386
34006W        W 6321  11.415  41.451   5.052
34007W        W 6322  42.772  31.095  14.755
34008W        W 6323  15.480  41.142   4.283
34009W        W 6324  17.307  29.912   2.800
34010W        W 6325  25.190  22.205  13.478
34011W        W 6326  24.115   2.329   2.391
34012W        W 6327  33.985  31.427   4.960
34013W        W 6328  20.021   9.505  14.721
34014W        W 6329  42.310  35.381  13.903
34015W        W 6330  39.395  28.515   1.366
34016W        W 6331  15.137  21.474  11.974
34017W        W 6332  33.651  10.042   3.308
34018W        W 6333   3.500  10.154   4.266
34019W        W 6334  38.790   5.724  13.976
34020W        W 6335  20.735  41.543  14.004
34021W        W 6336  22.296  25.028   3.187
34022W        W 6337  12.280  32.448   2.317
34023W        W 6338  33.650  37.809   3.632
34024W        W 6339  21.195  40.904  13.599
34025W        W 6340  27.280  37.555  14.793
34026W        W 6341  43.874   1.920  10.756
34027W        W 6342  15.989  31.881  10.783
34028W        W 6343  10.216   1.038   1.230
34029W        W 6344  40.040  16.585  11.557
34030W        W 6345  36.745  29.181  12.565
34031W        W 6346   0.771  15.070  14.913
34032W        W 6347  34.563  17.733   2.154
34033W        W 6348  29.521  26.929  12.100
34034W        W 6349   1.014   4.500   1.883
34035W        W 6350  25.219  23.813  14.460
34036W        W 6351  16.514   3.787   2.687
34037W        W 6352  30.723   4.760  10.711
34038W        W 6353  14.758  30.540   1.266
34039W        W 6354  39.819  42.018  12.096
34040W        W 6355  20.790  29.699   1.645
34041W        W 6356  38.835  22.553   1.634
34042W        W 6357  29.593  44.795   2.683
34043W        W 6358  25.394   6.217   3.797
34044W        W 6359  22.921  36.008  12.665
34045W        W 6360  21.482   8.397   1.296
34046W        W 6361  28.282  13.869   2.116
34047W        W 6362  41.430  28.700  10.649
34048W        W 6363  44.928  12.243  13.828
34049W        W 6364   2.156  42.808   4.946
34050W        W 6365  32.716  15.680  10.272
34051W        W 6366  40.427   1.002   4.140
34052W        W 6367  36.319  10.605  12.874
34053W        W 6368  18.678  25.655  14.933
34054W        W 6369  27.126  29.661  12.377
34055W        W 6370  17.167  29.904   9.805
34056W        W 6371   3.105   0.948  11.518
34057W        W 6372   0.468  28.580   2.939
34058W        W 6373   1.772  43.878  10.925
34059W        W 6374  43.780  32.149   1.268
34060W        W 6375  23.058  32.037   2.747
34061W        W 6376   3.958  17.981   2.315
34062W        W 6377   6.982   6.364   0.437
34063W        W 6378  39.660  15.731   2.412
34064W        W 6379   5.958  37.817   0.311
34065W        W 6380  19.280  34.944   0.301
34066W        W 6381  21.581  20.897   3.913
34067W        W 6382  32.090  17.957  10.673
34068W        W 6383   2.336  31.462  12.794
34069W        W 6384   4.965  24.971  12.404
34070W        W 6385  37.271  23.897  10.996
34071W        W 6386  39.535  12.603   0.106
34072W        W 6387   4.912  31.667  12.849
34073W        W 6388  31.176   1.362   0.975
34074W        W 6389  40.709  31.802   3.375
34075W        W 6390  14.144  34.351   3.086
34076W        W 6391  30.980  29.703  10.698
34077W        W 6392  29.246   6.968  12.654
34078W        W 6393  36.328  26.519  12.133
34079W        W 6394  11.568  13.895   3.753
34080W        W 6395   6.869  39.276   2.315
34081W        W 6396  35.566   6.997   3.221
34082W        W 6397  21.979   7.763   2.800
34083W        W 6398  18.188   2.000   1.817
34084W        W 6399  29.894  29.601  13.801
34085W        W 6400  40.095  26.748  10.644
34086W        W 6401  17.503  25.880   1.242
34087W        W 6402  11.860  27.095   0.275
34088W        W 6403  11.156  44.265   3.244
34089W        W 6404  17.335   9.287   1.808
34090W        W 6405  35.668  26.208   1.426
34091W        W 6406  17.850  19.526  14.055
34092W        W 6407  20.079  18.297  12.696
34093W        W 6408   8.830  33.425  11.527
34094W        W 6409  12.263  27.961  12.285
34095W        W 6410  16.703  16.198   3.720
34096W        W 6411  17.198  37.377   0.012
34097W        W 6412  10.110   1.033   4.097
34098W        W 6413  39.906   9.354   1.365
34099W        W 6414  18.041  41.433  14.770
34100W        W 6415   5.491  42.622  11.433
34101W        W 6416  17.412  43.176   0.012
34102W        W 6417  14.043  26.475  12.987
34103W        W 6418  20.084  19.882  14.341
34104W        W 6419  11.467  35.528  11.611
34105W        W 6420  15.227  44.996   4.602
34106W        W 6421  10.842  18.945  14.864
34107W        W 6422  41.978  37.294   4.031
34108W        W 6423  21.749   4.781   2.602
34109W        W 6424  20.248  38.484  13.276
34110W        W 6425   0.302   9.263   0.306
34111W        W 6426  33.030   4.288   4.811
34112W        W 6427  19.563  19.332   0.945
34113W        W 6428  25.797  35.084  13.577
34114W        W 6429  26.677  25.615   4.810
34115W        W 6430  36.579   2.985   2.123
34116W        W 6431  13.427   7.334  12.511
34117W        W 6432  25.385   1.335   1.891
34118W        W 6433  14.220  17.670   4.840
34119W        W 6434  28.108  28.040   0.200
34120W        W 6435  26.031  38.589   2.288
34121W        W 6436  30.208   1.731  12.308
34122W        W 6437   7.897  18.626   4.175
34123W        W 6438   6.903  25.588   1.670
34124W        W 6439  33.837  10.586   0.998
34125W        W 6440   5.280  36.769   2.678
34126W        W 6441  24.011  20.786   0.910
34127W        W 6442  22.254  21.890  14.952
34128W        W 6443  41.622  40.355  14.425
34129W        W 6444   2.505   7.933  13.138
34130W        W 6445   7.350   7.250  12.598
34131W        W 6446  22.342  23.192   2.386
34132W        W 6447  25.103  10.365   1.947
34133W        W 6448  14.117  34.810   2.276
34134W        W 6449  29.940  10.224   0.820
34135W        W 6450  30.502   8.774   2.360
34136W        W 6451  31.916   4.349   3.305
34137W        W 6452  19.503  17.180   1.196
34138W        W 6453  22.912  17.097  12.454
34139W        W 6454   2.398  35.259  11.843
34140W        W 6455  43.449  15.281   4.576
34141W        W 6456  30.554   0.256   4.589
34142W        W 6457  22.287  41.367   4.004
34143W        W 6458  33.863  18.674   0.847
34144W        W 6459  30.999  37.377  10.142
34145W        W 6460  33.691   2.031   2.395
34146W        W 6461  24.484  27.600  10.664
34147W        W 6462  27.194  27.661   3.219
34148W        W 6463  20.412  13.950  12.135
34149W        W 6464  43.937   3.692  13.044
34150W        W 6465  13.315  29.973  10.632
34151W        W 6466   9.807  26.295  13.173
34152W        W 6467  12.069  23.509   4.447
34153W        W 6468  17.144  30.911   0.894
34154W        W 6469  36.062  20.841  14.792
34155W        W 6470  30.896  26.068  14.577
34156W        W 6471   7.612  28.797   2.968
34157W        W 6472  30.932   4.994   4.615
34158W        W 6473  37.580  34.605  12.009
34159W        W 6474  44.998  17.901   3.568
34160W        W 6475  27.173   8.467  11.980
34161W        W 6476   6.238   0.417   2.360
34162W        W 6477  34.359   5.385  11.080
34163W        W 6478  43.525   4.154  11.187
34164W        W 6479  13.544  34.947   4.064
34165W        W 6480   0.057  31.072   1.362
34166W        W 6481  26.205   0.669   4.698
34167W        W 6482  22.710  19.885   1.663
34168W        W 6483  11.332  39.561   2.365
34169W        W 6484  14.484  13.811   0.816
34170W        W 6485  32.784  31.544   0.290
34171W        W 6486  37.873  31.426   2.576
34172W        W 6487   0.416  42.992   0.795
34173W        W 6488  44.191  35.301  12.176
34174W        W 6489  31.379  19.139   4.504
34175W        W 6490  39.488  29.720   3.758
34176W        W 6491   1.765  38.641  13.961
34177W        W 6492  10.446  30.428   4.129
34178W        W 6493  10.688  42.856  14.404
34179W        W 6494  26.377   0.732   3.570
34180W        W 6495  26.711   1.722   1.678
34181W        W 6496  31.701  10.255  10.550
34182W        W 6497  38.103  31.143   0.341
34183W        W 6498  40.364  36.241  13.499
34184W        W 6499  16.217  22.719  12.417
34185W        W 6500  44.339  38.978  10.941
34186W        W 6501  33.756   7.773   1.359
34187W        W 6502  15.411  39.874  10.284
34188W        W 6503   7.386  40.584  13.794
34189W        W 6504  10.709  23.811   2.658
34190W        W 6505   9.832   6.854  13.732
34191W        W 6506  35.896  27.556   1.211
34192W        W 6507  23.177   1.489   1.218
34193W        W 6508  44.198  42.578   4.276
34194W        W 6509  33.238  17.870  12.086
34195W        W 6510  29.718  27.006  11.510
34196W        W 6511  24.293  39.309   2.218
34197W        W 6512  12.564   4.311  12.128
34198W        W 6513   8.410  34.581  11.000
34199W        W 6514   2.105  16.087  10.843
34200W        W 6515   6.175   6.022  11.717
34201W        W 6516  35.088  18.061   3.890
34202W        W 6517   7.732  44.287  10.853
34203W        W 6518   0.637  10.964  12.352
34204W        W 6519  42.143   8.753   2.374
34205W        W 6520  23.476  17.290  14.335
34206W        W 6521  28.172  18.025   2.366
34207W        W 6522  40.910  23.951  13.273
34208W        W 6523  39.894   8.634   2.191
34209W        W 6524  33.718   8.999   4.183
34210W        W 6525  21.149   6.263  10.526
34211W        W 6526  15.682  33.225  10.078
34212W        W 6527  44.921  21.192   4.230
34213W        W 6528  42.504  23.191   0.036
34214W        W 6529  17.712   0.496   3.301
34215W        W 6530  27.587  40.417   4.110
34216W        W 6531  29.693  38.454   0.889
34217W        W 6532  11.793  24.324   2.729
34218W        W 6533   8.914  20.056   3.216
34219W        W 6534  41.039  20.446  14.415
34220W        W 6535  17.626  40.538  11.980
34221W        W 6536  27.698  44.416  13.944
34222W        W 6537  17.762  42.485   2.365
34223W        W 6538  41.090  27.432   3.094
34224W        W 6539  11.978   0.263  14.377
34225W        W 6540  25.432  30.057   3.796
34226W        W 6541  31.518  38.115  11.962
34227W        W 6542  31.832  33.484   1.262
34228W        W 6543   5.832   0.473   4.334
34229W        W 6544  44.657  18.962   3.274
34230W        W 6545  12.286  14.311  10.724
34231W        W 6546   1.753   1.278  11.536
34232W        W 6547  21.484  16.960  10.534
34233W        W 6548  38.147  26.179  13.785
34234W        W 6549   5.903  38.055  10.837
34235W        W 6550  12.307  16.307   3.692
34236W        W 6551   9.923  16.217   4.603
34237W        W 6552  14.098  28.740  14.396
34238W        W 6553  44.465   7.690  11.133
34239W        W 6554  36.494  13.091   4.134
34240W        W 6555  27.016  33.561   2.824
34241W        W 6556  31.988   4.401   4.520
34242W        W 6557  26.654  29.513  13.161
34243W        W 6558  21.716  33.837  14.297
34244W        W 6559  44.987  17.297   3.624
34245W        W 6560   1.287  13.529   4.568
34246W        W 6561  34.181  34.233  11.239
34247W        W 6562  40.628  10.823   4.041
34248W        W 6563  43.927   4.835   0.970
34249W        W 6564  17.982  26.655   3.649
34250W        W 6565  38.068  28.028  11.095
34251W        W 6566  26.675  41.106   1.770
34252W        W 6567   6.880  14.221   2.153
34253W        W 6568  33.899  16.320   1.405
34254W        W 6569  19.300  35.420  13.995
34255W        W 6570  29.646  17.369   1.382
34256W        W 6571  39.432  17.808  12.486
34257W        W 6572   5.453   7.465  12.520
34258W        W 6573  43.099  35.553   1.311
34259W        W 6574  15.108  43.491   2.084
34260W        W 6575  37.302  37.834   2.394
34261W        W 6576  10.547  44.052   0.251
34262W        W 6577  10.803  10.848  11.632
34263W        W 6578  38.398  24.360   2.691
34264W        W 6579  23.543   5.222   3.275
34265W        W 6580  30.776  33.898  10.834
34266W        W 6581  43.018  16.065   4.569
34267W        W 6582  12.057  41.724   0.883
34268W        W 6583   7.733  10.293  11.157
34269W        W 6584  35.847   6.155  12.369
34270W        W 6585  10.245   0.417  12.845
34271W        W 6586   5.560   3.538   1.774
34272W        W 6587   4.679  37.051   1.214
34273W        W 6588  17.422  24.903   5.169
34274W        W 6589   1.414  30.508  13.979
34275W        W 6590  24.421  18.714  13.008
34276W        W 6591  17.584  27.990   1.867
34277W        W 6592   2.310  14.754   2.277
34278W        W 6593  14.612  13.238  11.841
34279W        W 6594  44.378   2.277   2.257
34280W        W 6595  25.189  12.638  10.852
34281W        W 6596  22.671   0.404  14.382
34282W        W 6597  37.121  14.120  10.600
34283W        W 6598  28.716  17.606  14.808
34284W        W 6599  34.443   3.880   3.431
34285W        W 6600  15.037   7.432   1.748
34286W        W 6601  17.800  32.414   2.088
34287W        W 6602  20.763   7.996  13.329
34288W        W 6603  26.898  28.567   4.671
34289W        W 6604  13.751  31.502   1.651
34290W        W 6605  26.982  34.444   2.076
34291W        W 6606   3.933   1.363  12.861
34292W        W 6607  42.139  22.348  11.715
34293W        W 6608   6.219  43.483   1.165
34294W        W 6609  11.786  37.293  11.565
34295W        W 6610   4.678  17.112  12.929
34296W        W 6611  12.137  27.760   1.606
34297W        W 6612  31.630   4.375  12.551
34298W        W 6613  12.334  22.987  10.956
34299W        W 6614  27.556  43.066  13.424
34300W        W 6615  16.633  33.790  12.236
34301W        W 6616  28.105  14.758  13.931
34302W        W 6617  35.782  28.020   0.983
34303W        W 6618  35.904   1.771   3.741
34304W        W 6619   2.973  43.243   0.709
34305W        W 6620   4.928  24.296  14.410
34306W        W 6621   5.463  11.343   0.513
34307W        W 6622  30.408   5.283   2.313
34308W        W 6623  44.302  41.197   0.905
34309W        W 6624   6.096  42.815  14.844
34310W        W 6625  30.651  38.889   0.787
34311W        W 6626   9.410  29.825   1.712
34312W        W 6627   4.915   1.442   1.942
34313W        W 6628  16.551   0.557  11.437
34314W        W 6629  44.204  34.753  13.299
34315W        W 6630  38.717  14.421   0.777
34316W        W 6631  22.487   3.770   1.396
34317W        W 6632  33.392  40.410   4.168
34318W        W 6633  10.341  42.579  11.131
34319W        W 6634   0.469  22.634  11.626
34320W        W 6635  26.240  41.831   0.055
34321W        W 6636  19.057  20.129   4.439
34322W        W 6637  42.541   2.938   2.091
34323W        W 6638   5.342  26.764  10.688
34324W        W 6639   3.689  30.957   3.819
34325W        W 6640  39.246  10.230   4.584
34326W        W 6641  19.283  40.345   1.228
34327W        W 6642   5.556  31.412   0.346
34328W        W 6643  31.487   6.437   2.843
34329W        W 6644  13.212  21.016  10.840
34330W        W 6645  25.811  32.828   0.557
34331W        W 6646  35.456   1.317  10.791
34332W        W 6647  22.730   9.787  13.914
34333W        W 6648  21.195  21.148   4.148
34334W        W 6649   0.731  29.983  12.009
34335W        W 6650  25.058  43.251  11.371
34336W        W 6651  15.921  11.614  11.069
34337W        W 6652   8.935  35.118   5.061
34338W        W 6653  18.275  43.769  12.400
34339W        W 6654  34.087  10.613  10.694
34340W        W 6655  31.690  19.205  14.333
34341W        W 6656  24.421   1.243  12.976
34342W        W 6657  41.859  41.619  11.657
34343W        W 6658   6.109  35.949   3.338
34344W        W 6659   5.020   9.428   9.988
34345W        W 6660  41.897   7.302  12.881
34346W        W 6661  39.039   2.726   4.994
34347W        W 6662  31.505   7.441   1.897
34348W        W 6663  38.473   8.812   2.714
34349W        W 6664   6.659  20.795  14.835
34350W        W 6665  40.062  24.384  14.985
34351W        W 6666  31.675  35.945   2.724
34352W        W 6667  37.078  40.839  11.624
34353W        W 6668  12.640  43.567  11.055
34354W        W 6669  30.160  35.454  13.594
34355W        W 6670  34.047   1.607   1.706
34356W        W 6671  24.199  34.655  14.537
34357W        W 6672  22.879   9.367  14.267
34358W        W 6673  12.759   3.005   4.816
34359W        W 6674  21.768  38.839  12.431
34360W        W 6675   6.734   2.261  11.960
34361W        W 6676  39.084   1.063  14.492
34362W        W 6677  36.710  10.753   3.248
34363W        W 6678  34.566  30.558  12.781
34364W        W 6679  14.168  14.753  13.021
34365W        W 6680  21.610  19.540  13.814
34366W        W 6681  17.114  23.278   4.822
34367W        W 6682  32.485  15.537  14.410
34368W        W 6683  20.996  41.060   4.582
34369W        W 6684  39.425   9.253   0.011
34370W        W 6685  13.367  17.829   3.181
34371W        W 6686  34.644  36.520  12.896
34372W        W 6687  41.405  42.091   1.562
34373W        W 6688  43.418  41.758   2.660
34374W        W 6689   3.265  20.730  10.369
34375W        W 6690  21.102  37.235   4.790
34376W        W 6691  42.798  25.037  10.805
34377W        W 6692  40.968  16.601  13.792
34378W        W 6693  23.985  17.675   0.506
34379W        W 6694  26.727   6.659   1.937
34380W        W 6695  25.758  40.516  12.267
34381W        W 6696   7.621  23.400   0.894
34382W        W 6697  20.048  10.500   5.504
34383W        W 6698  32.556  14.828  13.925
34384W        W 6699  35.051  39.849  13.600
34385W        W 6700  15.379  36.287   2.820
34386W        W 6701  17.262  11.671  12.680
34387W        W 6702   2.335  43.540  14.286
34388W        W 6703  26.688   7.963   1.462
34389W        W 6704  13.949  35.460  13.598
34390W        W 6705   5.146   8.774  12.839
34391W        W 6706  33.259  21.807   3.534
34392W        W 6707  44.011  29.698   4.156
34393W        W 6708   2.139   4.272  10.397
34394W        W 6709   2.398  10.586   4.285
34395W        W 6710  22.920   2.897  11.966
34396W        W 6711  10.590  23.619   0.420
34397W        W 6712  12.584  24.231  14.023
34398W        W 6713  35.325  36.264   3.057
34399W        W 6714  38.903   9.242   0.086
34400W        W 6715  28.574   6.338  13.623
34401W        W 6716   3.531  39.924   2.805
34402W        W 6717  10.839  34.934  13.311
34403W        W 6718  26.970   5.678  11.431
34404W        W 6719  13.551  31.338   4.144
34405W        W 6720   8.408  32.015  10.652
34406W        W 6721  44.235  32.127  10.602
34407W        W 6722  43.779  22.485   0.823
34408W        W 6723  41.429   1.017  12.545
34409W        W 6724  17.709  37.043  12.506
34410W        W 6725  36.043   4.275  11.574
34411W        W 6726  35.903   9.896   3.637
34412W        W 6727  25.288  12.831  11.638
34413W        W 6728  35.747  10.516   4.189
34414W        W 6729  20.272  38.813  10.297
34415W        W 6730  24.474  10.267  10.810
34416W        W 6731  17.570  25.037   1.092
34417W        W 6732  24.063  35.764   0.379
34418W        W 6733  10.702   5.656  13.347
34419W        W 6734  37.262  26.699  12.751
34420W        W 6735  10.150  19.673  13.730
34421W        W 6736  32.778   0.365   0.855
34422W        W 6737   3.912  23.562  12.486
34423W        W 6738  16.328  15.526  10.142
34424W        W 6739  16.088   3.467  11.176
34425W        W 6740  19.018   6.418  12.908
34426W        W 6741  26.981  11.431  13.622
34427W        W 6742  37.486  24.224   3.564
34428W        W 6743  23.100  40.770  13.054
34429W        W 6744   4.902  15.746   1.469
34430W        W 6745   3.862  15.665  10.801
34431W        W 6746  26.933  22.864   3.899
34432W        W 6747   3.760   6.331   2.031
34433W        W 6748  25.397   3.475  11.589
34434W        W 6749  27.908  11.805  14.287
34435W        W 6750  20.558  33.224  14.566
34436W        W 6751  33.889  40.861   3.105
34437W        W 6752  36.402  13.349  12.124
34438W        W 6753  19.811  24.168   3.800
34439W        W 6754   0.422  17.209   3.325
34440W        W 6755   8.223  37.298  13.007
34441W        W 6756  26.197   4.279  14.175
34442W        W 6757  15.070  25.434   4.039
34443W        W 6758  41.017  33.049  14.461
34444W        W 6759  40.760  18.987  12.924
34445W        W 6760  25.993  30.461   3.192
34446W        W 6761   0.102  34.929  10.442
34447W        W 6762  23.984  26.056   0.949
34448W        W 6763  43.733  40.440  10.801
34449W        W 6764   1.327  21.794   4.712
34450W        W 6765  33.967  44.866   3.901
34451W        W 6766  33.624  37.507   4.049
34452W        W 6767  43.272   0.905   0.315
34453W        W 6768   0.525  36.283  14.004
34454W        W 6769  41.855  12.217  14.788
34455W        W 6770  29.024  20.657   0.886
34456W        W 6771   8.395  40.404  12.965
34457W        W 6772  22.635   6.303   2.556
34458W        W 6773  20.925  34.977  13.563
34459W        W 6774   3.464  11.438  14.382
34460W        W 6775   4.744  26.622  11.660
34461W        W 6776  21.125  14.544  12.942
34462W        W 6777  24.909  40.417  11.957
34463W        W 6778  43.489  29.553  12.780
34464W        W 6779  15.326  12.088   4.738
34465W        W 6780  19.288  25.675   4.667
34466W        W 6781   4.617  40.762   3.233
34467W        W 6782   9.615   7.329   2.283
34468W        W 6783  28.910  14.581   0.459
34469W        W 6784  28.063  38.393   2.138
34470W        W 6785  42.793  13.357   0.579
34471W        W 6786  14.165   8.925   4.097
34472W        W 6787  16.393   7.443   3.723
34473W        W 6788   4.681   5.074   4.221
34474W        W 6789  37.889   2.041   2.672
34475W        W 6790   3.350  25.676   2.212
34476W        W 6791   3.831  36.466  11.569
34477W        W 6792   2.427  13.597   0.280
34478W        W 6793  36.790  21.861  11.491
34479W        W 6794  16.024  24.405  11.747
34480W        W 6795   6.008  21.549   0.794
34481W        W 6796  25.940   4.025  12.821
34482W        W 6797  34.505   5.947  12.797
34483W        W 6798  11.646   4.290  13.380
34484W        W 6799  19.460  38.563  14.315
34485W        W 6800  14.799  11.252   0.887
34486W        W 6801  32.812  44.562   3.719
34487W        W 6802  26.108   2.868   3.518
34488W        W 6803  11.183  44.880  13.289
34489W        W 6804  24.466  25.643  13.131
34490W        W 6805  17.479   6.347  12.935
34491W        W 6806  40.454  13.017  12.573
34492W        W 6807   9.063  19.229   2.181
34493W        W 6808  18.817   4.410  13.356
34494W        W 6809  38.653  14.887   1.545
34495W        W 6810   3.793  27.226  14.502
34496W        W 6811   1.442  19.319  11.988
34497W        W 6812  28.437   1.089   0.046
34498W        W 6813  16.208  41.310   4.612
34499W        W 6814  27.346  40.930   4.090
34500W        W 6815  30.076  27.698  13.428
34501W        W 6816  27.446  44.862  12.993
34502W        W 6817  20.647  44.938  12.497
34503W        W 6818  43.774   4.454  11.559
34504W        W 6819   5.855  43.020   3.132
34505W        W 6820  43.271  28.985  11.897
34506W        W 6821  39.598  36.089   3.974
34507W        W 6822  39.881  32.296   2.108
34508W        W 6823  34.621  35.109   1.838
34509W        W 6824  18.668  18.003  14.295
34510W        W 6825  15.235  37.025  10.819
34511W        W 6826  42.727  28.465   1.174
34512W        W 6827  19.867  22.347   4.306
34513W        W 6828  29.739   3.403   0.323
34514W        W 6829  36.816  34.432   1.910
34515W        W 6830  32.863  34.252  14.250
34516W        W 6831   9.559  38.799  11.986
34517W        W 6832  14.796  12.594   4.068
34518W        W 6833   6.968  10.650  13.447
34519W        W 6834  20.060  31.281  11.075
34520W        W 6835  41.852  16.007  12.168
34521W        W 6836  20.689  34.139  14.007
34522W        W 6837  29.428  28.160  11.952
34523W        W 6838  37.745  33.020  11.082
34524W        W 6839  32.942  26.328   3.778
34525W        W 6840  31.486  20.274  12.539
34526W        W 6841  37.140  42.077  11.722
34527W        W 6842  37.976  43.254   4.123
34528W        W 6843   4.256  16.141   4.595
34529W        W 6844   4.455  25.165  14.714
34530W        W 6845  12.278  33.852   2.483
34531W        W 6846  10.375  38.101   1.322
34532W        W 6847  41.924  23.594  14.318
34533W        W 6848  15.353  24.310  14.847
34534W        W 6849  30.870  18.981   1.053
34535W        W 6850  43.178   1.824  11.988
34536W        W 6851   7.722  19.527  14.345
34537W        W 6852  30.441   7.171  13.516
34538W        W 6853  29.236   2.409   0.694
34539W        W 6854  30.572  12.715   2.238
34540W        W 6855  36.161  10.163   4.068
34541W        W 6856  41.452  13.200   4.731
34542W        W 6857  15.004  32.366  11.449
34543W        W 6858  17.774  11.094   1.256
34544W        W 6859  23.675  31.608  11.296
34545W        W 6860  12.127  29.356   1.506
34546W        W 6861  30.514  30.208  12.692
34547W        W 6862  44.390   1.237   9.968
34548W        W 6863  11.531  17.106   3.619
34549W        W 6864  24.001  22.425   3.661
34550W        W 6865  18.505   6.305  12.833
34551W        W 6866  28.114  26.158   4.156
34552W        W 6867   0.403  14.130   0.267
34553W        W 6868  28.833  21.754  12.208
34554W        W 6869   7.059  25.742  11.295
34555W        W 6870  42.324  28.881  13.540
34556W        W 6871  42.921  35.119   5.588
34557W        W 6872  40.083  15.212   4.924
34558W        W 6873   3.266  38.812  14.812
34559W        W 6874  44.260  29.112   4.205
34560W        W 6875  24.937  33.032   3.468
34561W        W 6876  23.663  29.143   0.686
34562W        W 6877  10.700  25.942  13.062
34563W        W 6878  12.793  17.154   2.191
34564W        W 6879  10.754  31.203  14.445
34565W        W 6880  14.356   7.642   0.002
34566W        W 6881  22.624   4.732   3.130
34567W        W 6882   8.270   3.582  10.455
34568W        W 6883   2.279  11.195  13.488
34569W        W 6884  32.549  25.519  13.227
34570W        W 6885  38.453  37.520   2.392
34571W        W 6886   0.793   9.087   2.740
34572W        W 6887  19.557  43.270  14.887
34573W        W 6888  24.909  44.806   2.249
34574W        W 6889   1.844  30.469  14.288
34575W        W 6890  36.542   2.826   3.617
34576W        W 6891  32.934  43.741  13.500
34577W        W 6892  41.113   5.302  13.872
34578W        W 6893  22.977  11.939  14.869
34579W        W 6894  38.042  23.062   1.856
34580W        W 6895  17.829  30.607   2.596
34581W        W 6896  18.634  28.408   2.588
34582W        W 6897  16.849  42.393  12.437
34583W        W 6898  33.565  29.442  10.030
34584W        W 6899   9.436  34.810  12.286
34585W        W 6900  43.482  17.754  12.007
34586W        W 6901  41.989  27.749   0.715
34587W        W 6902  31.235  31.486   2.213
34588W        W 6903  28.398  10.182   3.659
34589W        W 6904  24.849  29.238  12.053
34590W        W 6905  31.121  32.195   0.451
34591W        W 6906  20.667  42.731  11.089
34592W        W 6907  18.001  21.564  11.931
34593W        W 6908  40.557  13.778  12.153
34594W        W 6909  22.149   5.125  13.364
34595W        W 6910   8.191  13.383  10.695
34596W        W 6911  34.422  18.009  14.914
34597W        W 6912  25.494   6.727   1.502
34598W        W 6913  27.510  35.433   3.631
34599W        W 6914  22.544  24.600  13.104
34600W        W 6915  18.522   7.824   2.787
34601W        W 6916  38.982   7.845   4.795
34602W        W 6917  36.944  22.217   4.252
34603W        W 6918  37.378   4.218   1.755
34604W        W 6919  36.620  19.163   3.094
34605W        W 6920  12.707   9.384   0.396
34606W        W 6921  22.445  41.402   0.930
34607W        W 6922   5.546  40.881  12.913
34608W        W 6923  43.993   7.898  13.404
34609W        W 6924   6.905  30.002  12.902
34610W        W 6925  32.427  28.257   1.402
34611W        W 6926  20.182  34.581   1.174
34612W        W 6927  22.363  38.340   1.025
34613W        W 6928  12.071   6.126  14.115
34614W        W 6929  27.496  42.829  14.752
34615W        W 6930  32.585  35.901  13.361
34616W        W 6931  19.302  36.344  10.720
34617W        W 6932  25.500  14.136   0.495
34618W        W 6933  41.586  36.056  11.229
34619W        W 6934  16.936  22.272   2.195
34620W        W 6935  14.696   5.129   4.629
34621W        W 6936  10.713  15.219  10.897
34622W        W 6937   6.562  14.172  10.462
34623W        W 6938  30.461  23.289  12.895
34624W        W 6939  21.486  41.796   4.513
34625W        W 6940  24.724  11.170   2.136
34626W        W 6941   1.826  41.239   1.705
34627W        W 6942  35.295  13.745  10.604
34628W        W 6943  24.837  22.049   3.631
34629W        W 6944  19.685  31.797  14.037
34630W        W 6945  37.327  32.311  12.344
34631W        W 6946  12.137  44.936  14.774
34632W        W 6947   6.926  26.420  11.260
34633W        W 6948   5.718  43.388   1.395
34634W        W 6949  17.717  30.393  13.965
34635W        W 6950  28.478  17.705   0.823
34636W        W 6951  27.994  40.102   3.325
34637W        W 6952  25.604  43.861   2.666
34638W        W 6953   3.894  44.356  10.495
34639W        W 6954  43.426  13.085   3.472
34640W        W 6955  23.249  37.833  12.036
34641W        W 6956  40.311  28.016   4.125
34642W        W 6957   8.560  28.204  13.411
34643W        W 6958   1.680   4.318  12.493
34644W        W 6959  26.956  21.711  14.805
34645W        W 6960  22.598  37.841   0.981
34646W        W 6961  11.928  44.955  13.940
34647W        W 6962  11.492  29.032   0.280
34648W        W 6963  14.219  10.083   0.002
34649W        W 6964  31.118  30.034  13.929
34650W        W 6965  13.786  38.794   4.191
34651W        W 6966   0.449  30.715   1.270
34652W        W 6967   8.323  19.246   3.714
34653W        W 6968  22.131  25.421   4.439
34654W        W 6969  35.354  25.119   1.780
34655W        W 6970  44.209  12.688  10.654
34656W        W 6971  14.809  40.773  11.121
34657W        W 6972  40.695  34.416  11.224
34658W        W 6973   2.690   7.718   1.762
34659W        W 6974  28.450   9.867  13.385
34660W        W 6975  14.365  36.387  10.724
34661W        W 6976  43.357  29.611  13.954
34662W        W 6977  21.489  10.292   0.792
34663W        W 6978  41.762  25.673  14.612
34664W        W 6979  42.957  39.015   4.565
34665W        W 6980   9.731  29.945   3.196
34666W        W 6981  12.686   3.954   2.898
34667W        W 6982  29.444   6.401   1.968
34668W        W 6983  38.865   8.625   1.722
34669W        W 6984  19.236  19.320   1.712
34670W        W 6985  34.206   7.858  11.086
34671W        W 6986   3.086  27.144  14.909
34672W        W 6987   9.093   9.446   2.629
34673W        W 6988   7.017  26.154   3.930
34674W        W 6989  36.462   4.909  12.810
34675W        W 6990  22.125  10.658   0.522
34676W        W 6991  32.423  20.757  12.565
34677W        W 6992   7.385  14.660   0.330
34678W        W 6993   9.235  29.119   2.747
34679W        W 6994  40.367  10.366   9.852
34680W        W 6995   5.472  26.495  13.382
34681W        W 6996  21.409   7.734  13.833
34682W        W 6997  38.353  41.612  12.403
34683W        W 6998  19.765  36.356   3.499
34684W        W 6999  24.284  36.923   1.765
34685W        W 7000   6.170  34.578   3.513
34686W        W 7001  14.839  34.022  13.428
34687W        W 7002  41.435  20.844  10.362
34688W        W 7003  20.289  35.014  14.419
34689W        W 7004  29.194  40.332  14.520
34690W        W 7005   7.382  10.736   3.224
34691W        W 7006  34.290   0.229   4.281
34692W        W 7007  11.631   9.241  13.436
34693W        W 7008  35.628   3.992  11.781
34694W        W 7009  42.057  32.834   2.748
34695W        W 7010   1.173  27.419   3.660
34696W        W 7011  18.929  26.503  13.422
34697W        W 7012  10.053   0.335   3.441
34698W        W 7013  30.646  44.394   5.062
34699W        W 7014  28.817  25.573  12.022
34700W        W 7015  34.102  21.643  11.461
34701W        W 7016  28.660  32.690   0.295
34702W        W 7017  28.362  42.874  11.570
34703W        W 7018  18.622  30.734   0.353
34704W        W 7019  30.119  25.015   4.087
34705W        W 7020   6.212  26.909   4.395
34706W        W 7021  44.558  37.608   4.200
34707W        W 7022  20.507  11.086  13.934
34708W        W 7023  41.945  28.645   4.497
34709W        W 7024   0.776   2.486  10.677
34710W        W 7025  29.006  26.979   1.226
34711W        W 7026  17.201  15.722  11.724
34712W        W 7027  25.080   7.031  13.430
34713W        W 7028  32.373   2.860   1.590
34714W        W 7029  22.300  13.902  13.391
34715W        W 7030  34.710  13.468  14.341
34716W        W 7031   2.809  35.944  14.564
34717W        W 7032  24.706  11.837   1.310
34718W        W 7033  38.088  43.782  13.474
34719W        W 7034  13.664   4.223  12.101
34720W        W 7035  44.874  40.229   0.074
34721W        W 7036  23.237   7.332   3.607
34722W        W 7037  26.565  23.445   2.263
34723W        W 7038  34.486   9.880  13.688
34724W        W 7039  17.171  24.273  12.342
34725W        W 7040  23.712  19.056   2.542
34726W        W 7041  14.287  13.166   3.625
34727W        W 7042  27.188  25.257   4.302
34728W        W 7043  34.388  30.577  11.905
34729W        W 7044  11.339  15.567   0.824
34730W        W 7045   1.453  34.798   4.972
34731W        W 7046  18.333  29.570   0.029
34732W        W 7047   9.287  11.735  10.719
34733W        W 7048  44.238  13.075  11.043
34734W        W 7049  31.614  26.502   3.366
34735W        W 7050  10.844   3.325   1.403
34736W        W 7051  29.552  26.005  12.612
34737W        W 7052  11.891  36.725  11.512
34738W        W 7053  17.755  43.457   4.811
34739W        W 7054  39.803  29.494  11.663
34740W        W 7055   2.328   4.093  13.663
34741W        W 7056   7.167  26.518   2.798
34742W        W 7057   0.429  30.601   4.774
34743W        W 7058  10.833  28.994  11.047
34744W        W 7059  31.182   8.705   1.295
34745W        W 7060  42.824  19.862  10.946
34746W        W 7061  16.272  27.640   1.930
34747W        W 7062  23.156   7.212   4.478
34748W        W 7063  22.472  22.048   2.857
34749W        W 7064   1.527   0.357  14.596
34750W        W 7065  14.614  23.875  12.930
34751W        W 7066   5.137  23.737  12.001
34752W        W 7067   0.375   5.584  13.364
34753W        W 7068  12.245  21.056   3.799
34754W        W 7069   6.610   1.648  12.479
34755W        W 7070  44.775  26.477   2.115
34756W        W 7071   5.522  16.572   3.642
34757W        W 7072  29.736  20.382   3.838
34758W        W 7073   8.538  27.719  11.995
34759W        W 7074  31.076  11.168   4.226
34760W        W 7075  40.384  32.107  13.616
34761W        W 7076   8.201  13.784   1.648
34762W        W 7077  25.208   3.341  11.078
34763W        W 7078   2.269  12.191   2.261
34764W        W 7079  38.395   9.846  10.620
34765W        W 7080  11.350   5.191  12.117
34766W        W 7081  21.335   9.448   4.095
34767W        W 7082  11.782  11.768  10.966
34768W        W 7083  43.044   6.759   0.307
34769W        W 7084  20.225  32.482  14.161
34770W        W 7085  17.525  29.647  14.406
34771W        W 7086   3.946  24.748  11.102
34772W        W 7087   7.827  25.780  12.439
34773W        W 7088  33.842  31.167   2.247
34774W        W 7089  31.456   8.743   3.855
34775W        W 7090  16.814  38.881  10.944
34776W        W 7091  39.911  10.442  10.603
34777W        W 7092  15.268  10.721   3.674
34778W        W 7093  34.271  44.797   0.080
34779W        W 7094  29.679  26.947  12.596
34780W        W 7095   3.236  15.878   1.786
34781W        W 7096  44.405  36.414  12.532
34782W        W 7097   1.323  24.243  10.883
34783W        W 7098  22.118  22.663   0.081
34784W        W 7099  12.878   6.416  12.642
34785W        W 7100  16.573   4.790   2.904
34786W        W 7101  33.801  39.123   1.322
34787W        W 7102  17.981  29.925  11.463
34788W        W 7103   6.395  39.425   3.309
34789W        W 7104  40.763  44.824  11.729
34790W        W 7105  26.143   0.421   3.918
34791W        W 7106   4.011  33.993   3.812
34792W        W 7107   7.215  22.665   2.348
34793W        W 7108  22.160  41.077  14.516
34794W        W 7109   8.897  23.451  12.466
34795W        W 7110  23.169  25.975  12.934
34796W        W 7111  39.499  23.245   5.185
34797W        W 7112   2.474  31.195   4.192
34798W        W 7113  38.295  22.071  14.662
34799W        W 7114  29.334  44.267   1.726
34800W        W 7115   6.730  13.633   2.280
34801W        W 7116  36.397  43.872   4.117
34802W        W 7117  38.282  33.545   2.741
34803W        W 7118  31.986  39.490   1.506
34804W        W 7119  44.047  33.274   3.552
34805W        W 7120  34.347  18.744   1.022
34806W        W 7121  29.523  19.768  10.792
34807W        W 7122  23.763  12.960   4.018
34808W        W 7123  35.699  32.477  10.739
34809W        W 7124  36.486  17.955   2.261
34810W        W 7125  40.047  44.413   1.335
34811W        W 7126  14.998  40.942  10.662
34812W        W 7127  20.524  11.579   3.359
34813W        W 7128  41.907  35.812   3.606
34814W        W 7129   1.261  43.262   4.301
34815W        W 7130  43.236  43.445   0.094
34816W        W 7131  28.500  41.986  11.374
34817W        W 7132  32.450  20.933  13.449
34818W        W 7133  33.551  19.671  14.748
34819W        W 7134   9.025  12.471   3.638
34820W        W 7135  34.202  28.725   3.702
34821W        W 7136  14.150  40.709  12.010
34822W        W 7137  16.295  29.046   1.688
34823W        W 7138   3.865   1.156  10.885
34824W        W 7139  33.669  41.124   1.736
34825W        W 7140   0.409  30.946  14.328
34826W        W 7141  39.890  13.198   2.710
34827W        W 7142  10.668  40.731  10.674
34828W        W 7143  40.585  26.126   9.731
34829W        W 7144  21.994   3.375  14.898
34830W        W 7145   9.450  32.014   2.203
34831W        W 7146  40.382  17.796  13.423
34832W        W 7147  11.239  24.298  12.030
34833W        W 7148   0.092  11.411  12.899
34834W        W 7149  30.154  34.049   4.066
34835W        W 7150  29.855   2.947  14.435
34836W        W 7151   6.198  38.447  12.534
34837W        W 7152  29.109  20.552   4.590
34838W        W 7153   6.787  22.111   4.343
34839W        W 7154  22.966  15.870   0.351
34840W        W 7155  27.361  44.699   3.240
34841W        W 7156   5.687  22.005   1.712
34842W        W 7157   3.836  43.767   2.245
34843W        W 7158  25.171  32.416  13.473
34844W        W 7159  10.351  17.330  12.090
34845W        W 7160  43.420  23.513   4.526
34846W        W 7161  29.207   3.960   1.490
34847W        W 7162  42.249   7.856   2.182
34848W        W 7163  31.469  26.249   2.916
34849W        W 7164  32.468  39.255   4.127
34850W        W 7165  40.637  38.976  10.473
34851W        W 7166  28.134  10.671   1.533
34852W        W 7167  25.369  28.229  11.524
34853W        W 7168  29.461   4.983  14.703
34854W        W 7169   7.227  28.473   1.198
34855W        W 7170  42.339   4.776   2.750
34856W        W 7171  33.471   3.255   4.613
34857W        W 7172   5.193   3.020   4.781
34858W        W 7173  42.535  33.683   4.659
34859W        W 7174   5.803   3.054  11.110
34860W        W 7175  27.509   2.293  11.514
34861W        W 7176  30.186  36.045  11.307
34862W        W 7177  28.131  29.669  14.428
34863W        W 7178  28.695   5.160   1.738
34864W        W 7179  41.560  17.601  12.016
34865W        W 7180  13.320  44.447  10.661
34866W        W 7181  10.582  33.670   4.291
34867W        W 7182  43.738  11.076   4.347
34868W        W 7183   7.970  22.442   4.704
34869W        W 7184  26.580  35.892  11.917
34870W        W 7185  27.486  37.053   1.887
34871W        W 7186  11.832  40.636  11.308
34872W        W 7187  24.206  36.090   3.633
34873W        W 7188  44.286  23.773   4.314
34874W        W 7189  22.463  26.576   2.280
34875W        W 7190  27.913  14.326   2.796
34876W        W 7191  26.652  42.644   1.665
34877W        W 7192  23.767  26.572   4.548
34878W        W 7193  33.607  22.083  13.636
34879W        W 7194   6.716  39.534  10.572
34880W        W 7195  15.804  30.256   0.755
34881W        W 7196  29.008  35.597   2.240
34882W        W 7197  44.780  29.616  11.193
34883W        W 7198  24.210   4.004   4.598
34884W        W 7199  40.361  15.180   3.931
34885W        W 7200   8.709  12.204   3.300
34886W        W 7201  41.393  37.936  13.321
34887W        W 7202   5.456  37.829   0.452
34888W        W 7203  32.363  36.082   0.401
34889W        W 7204  22.588   4.726   2.225
34890W        W 7205  16.644  28.744   3.493
34891W        W 7206   2.873   6.421  11.986
34892W        W 7207   5.355  18.760   4.663
34893W        W 7208  32.892  21.939  10.633
34894W        W 7209   2.300   0.941   0.474
34895W        W 7210  39.862  42.167  13.532
34896W        W 7211  33.391  24.622   3.363
34897W        W 7212  36.087  44.969  11.206
34898W        W 7213  14.781  15.078   0.739
34899W        W 7214  25.198  17.869  11.653
34900W        W 7215  18.786  27.986  11.135
34901W        W 7216  25.002  31.603  13.028
34902W        W 7217  31.695  27.675   1.905
34903W        W 7218  44.790  28.904  11.969
34904W        W 7219   9.660   7.788  13.892
34905W        W 7220  19.168  18.261  14.432
34906W        W 7221  33.648   2.971   1.116
34907W        W 7222  32.563   7.310  11.566
34908W        W 7223  17.618   1.706  12.049
34909W        W 7224  17.113  40.139  10.268
34910W        W 7225  14.428  13.151   4.569
34911W        W 7226  14.773  37.104   3.682
34912W        W 7227   1.319  41.916   1.424
34913W        W 7228  44.482  11.553   4.079
34914W        W 7229  34.338   0.716  14.313
34915W        W 7230  16.076   9.961   1.847
34916W        W 7231  18.224  39.754   3.632
34917W        W 7232  38.623   6.389   4.779
34918W        W 7233  21.737  12.800   3.164
34919W        W 7234  16.049  27.974   5.472
34920W        W 7235  29.948   9.648  10.482
34921W        W 7236  38.912  27.911   4.611
34922W        W 7237  27.703  38.710  14.650
34923W        W 7238  14.844  31.977  12.532
34924W        W 7239  38.642  11.653  13.001
34925W        W 7240  32.037  40.386   4.238
34926W        W 7241  16.994  25.139  13.438
34927W        W 7242  39.512  42.231   2.956
34928W        W 7243  21.898  37.098   0.948
34929W        W 7244  30.749   2.215   0.350
34930W        W 7245  39.063  32.590  11.386
34931W        W 7246   0.817   8.977   2.149
34932W        W 7247   5.981   9.251   1.786
34933W        W 7248  20.676  13.579   3.568
34934W        W 7249  27.758  34.627  10.213
34935W        W 7250  37.251   6.406   1.859
34936W        W 7251   2.215  10.828   1.219
34937W        W 7252   9.421  25.227  10.278
34938W        W 7253  11.365  16.858  10.908
34939W        W 7254   8.105   1.886   4.727
34940W        W 7255  30.573  41.559  13.859
34941W        W 7256  29.069  38.924  13.798
34942W        W 7257   0.087   5.891   4.083
34943W        W 7258  37.198  23.113   3.269
34944W        W 7259  16.630   9.290   3.818
34945W        W 7260  34.349  26.919  11.387
34946W        W 7261  29.173  15.288   3.909
34947W        W 7262  41.838   8.204   0.049
34948W        W 7263   4.605  24.533   0.402
34949W        W 7264   7.864  22.952  13.911
34950W        W 7265  36.133  13.824   4.030
34951W        W 7266  37.567   9.143   4.306
34952W        W 7267  39.932  23.747   4.648
34953W        W 7268  34.464  25.369   3.846
34954W        W 7269  33.059  34.958   1.508
34955W        W 7270  44.496  14.625  13.387
34956W        W 7271  26.458   1.321  12.981
34957W        W 7272  33.887   7.628   4.554
34958W        W 7273  44.189   7.470  10.662
34959W        W 7274  10.878  43.452  11.909
34960W        W 7275  44.857  33.070   3.232
34961W        W 7276  15.369   6.687  11.165
34962W        W 7277  23.865  12.186   0.207
34963W        W 7278  27.133  31.498   3.267
34964W        W 7279   0.449  12.655   3.314
34965W        W 7280  22.378  35.581   1.480
34966W        W 7281  11.728   0.103   1.786
34967W        W 7282   4.386  11.174   4.871
34968W        W 7283   4.382  10.680   0.746
34969W        W 7284  20.294  24.989   1.870
34970W        W 7285  40.013  19.166   3.215
34971W        W 7286  27.608  30.698   0.408
34972W        W 7287  18.233   4.017   0.443
34973W        W 7288  19.798  38.454   5.027
34974W        W 7289  29.583  35.131   1.651
34975W        W 7290  14.640  11.827  14.548
34976W        W 7291  36.352  19.526   3.424
34977W        W 7292  15.008  40.961   0.054
34978W        W 7293  22.121  10.140   1.667
34979W        W 7294  18.739  28.468   2.093
34980W        W 7295  16.757  44.738  13.311
34981W        W 7296   5.859   5.735  12.060
34982W        W 7297   9.366  17.976  12.458
34983W        W 7298  13.681  42.858  12.807
34984W        W 7299   1.388   4.680   3.810
34985W        W 7300  10.146  37.408   4.495
34986W        W 7301   0.665  34.161   1.202
34987W        W 7302  32.981  27.512   3.251
34988W        W 7303   4.378  13.622   2.435
34989W        W 7304  42.608  22.599   4.863
34990W        W 7305   8.733   8.193  14.226
34991W        W 7306  33.988  11.857   4.222
34992W        W 7307  17.180   8.828  13.703
34993W        W 7308   4.125  42.427   1.293
34994W        W 7309  15.730  23.137  13.592
34995W        W 7310  11.864  26.679  13.909
34996W        W 7311  10.873  14.827  12.707
34997W        W 7312   0.505  14.271   1.611
34998W        W 7313  36.537  16.678   4.563
34999W        W 7314  16.608  32.206   0.961
35000W        W 7315   0.013  36.043   1.371
35001W        W 7316  30.618  23.446   2.317
35002W        W 7317  14.866  14.675   1.443
35003W        W 7318  24.361  12.144   0.277
35004W        W 7319  35.899  36.853  14.456
35005W        W 7320  42.053  16.943  10.618
35006W        W 7321  15.934  18.679   4.489
35007W        W 7322  30.116  27.725   2.245
35008W        W 7323   7.643  10.303   3.118
35009W        W 7324   3.353  15.355  12.845
35010W        W 7325  19.091  42.798  11.624
35011W        W 7326  22.533  43.817   0.858
35012W        W 7327  25.517   4.736  12.463
35013W        W 7328  44.567  16.616   4.157
35014W        W 7329  27.764  17.899  14.342
35015W        W 7330  39.485  34.135  14.079
35016W        W 7331  20.537  32.008  14.479
35017W        W 7332  32.271  39.992  12.371
35018W        W 7333  29.297  28.784   1.941
35019W        W 7334  40.444  36.982  14.315
35020W        W 7335   1.317   0.339  12.364
35021W        W 7336  15.822  43.897   3.777
35022W        W 7337  26.493  43.726  14.444
35023W        W 7338  42.840  11.093  11.901
35024W        W 7339  30.914  43.792  11.446
35025W        W 7340   4.723  29.394   1.564
35026W        W 7341  37.848  33.387  13.639
35027W        W 7342  34.927   3.206  10.971
35028W        W 7343  38.024  12.379  10.644
35029W        W 7344  38.596  36.554   1.245
35030W        W 7345  10.823  36.357  13.950
35031W        W 7346  38.973  25.045   2.922
35032W        W 7347  25.660  27.440   4.180
35033W        W 7348  31.378  13.632   0.707
35034W        W 7349  20.556  23.959  14.740
35035W        W 7350  24.904  40.744  11.538
35036W        W 7351  24.438  10.907  13.370
35037W        W 7352   2.691   8.081   0.488
35038W        W 7353   3.886  31.697   2.752
35039W        W 7354  36.429  29.627   1.433
35040W        W 7355  19.739  11.109  11.074
35041W        W 7356  31.001  13.899  14.907
35042W        W 7357  41.193   9.604  14.512
35043W        W 7358  23.373   0.885  13.332
35044W        W 7359   6.798   9.274  14.376
35045W        W 7360   9.211  39.982   0.625
35046W        W 7361  29.097  10.518   3.295
35047W        W 7362  14.952   1.983  13.591
35048W        W 7363  23.841  17.320  12.930
35049W        W 7364  36.159  31.413  12.169
35050W        W 7365  39.505  26.894  14.907
35051W        W 7366  43.308   1.752   2.876
35052W        W 7367  23.280   2.937  11.620
35053W        W 7368  19.199  43.273  12.543
35054W        W 7369   4.069  41.257   0.238
35055W        W 7370  37.844  18.725  11.416
35056W        W 7371   1.912  18.600   1.353
35057W        W 7372  10.861  23.390  14.976
35058W        W 7373  23.494  24.674  11.973
35059W        W 7374  27.904  27.607  11.131
35060W        W 7375   7.702   8.915  10.873
35061W        W 7376  18.789  17.790   4.692
35062W        W 7377  14.783  13.251  12.816
35063W        W 7378   4.548   7.653   3.857
35064W        W 7379  21.281   2.697   4.389
35065W        W 7380  37.381  21.050   1.761
35066W        W 7381  15.577  23.085  12.474
35067W        W 7382  13.273  33.052  13.807
35068W        W 7383  42.395  28.326   4.172
35069W        W 7384   3.949  17.716  10.839
35070W        W 7385  17.190  16.224  11.930
35071W        W 7386  31.063  31.038  11.128
35072W        W 7387  29.447   8.753  12.173
35073W        W 7388  40.111  33.583  11.141
35074W        W 7389  22.502  33.469   0.426
35075W        W 7390  24.129  25.003   0.914
35076W        W 7391  14.197  14.241   1.683
35077W        W 7392  41.006   6.164   0.730
35078W        W 7393  33.601  25.911  13.134
35079W        W 7394   5.479  13.965   3.317
35080W        W 7395  10.850  44.304   2.800
35081W        W 7396   2.097  34.626  11.156
35082W        W 7397  23.491  18.368  14.054
35083W        W 7398  15.600  43.542   0.195
35084W        W 7399  24.233  41.323  13.580
35085W        W 7400   5.806   9.132   3.316
35086W        W 7401  32.919  11.214  12.428
35087W        W 7402  15.818   1.341   1.764
35088W        W 7403  23.459  33.053  11.202
35089W        W 7404  10.403  20.717   4.062
35090W        W 7405  18.313   0.971  13.680
35091W        W 7406  42.324  22.797  14.079
35092W        W 7407  30.998   8.359   3.170
35093W        W 7408  41.771   5.942   3.506
35094W        W 7409  40.877   3.300  14.894
35095W        W 7410  17.285  20.773  14.277
35096W        W 7411  40.898  32.647  14.127
35097W        W 7412  24.684  38.437   2.210
35098W        W 7413  23.328  30.733  14.398
35099W        W 7414   0.200  39.369  11.630
35100W        W 7415   0.288  25.116   0.019
35101W        W 7416  44.235  30.168  13.013
35102W        W 7417  33.993  42.004  12.595
35103W        W 7418  13.413   0.739   2.398
35104W        W 7419  43.565   5.418  10.746
35105W        W 7420  19.189  10.359   4.946
35106W        W 7421  22.752  42.033  14.898
35107W        W 7422   3.566  30.522   4.555
35108W        W 7423  22.293  24.670  14.908
35109W        W 7424   6.933   9.760  14.365
35110W        W 7425  32.676  24.411  11.225
35111W        W 7426   2.268  36.623   1.378
35112W        W 7427  20.343  22.554   4.319
35113W        W 7428  17.854   4.160  11.479
35114W        W 7429   3.837  13.052   3.567
35115W        W 7430  12.931  37.280  11.868
35116W        W 7431  14.200  12.161  13.418
35117W        W 7432  40.507  11.542  12.939
35118W        W 7433   2.245  18.593   0.443
35119W        W 7434   0.736  39.533   0.370
35120W        W 7435  36.191  30.314   2.492
35121W        W 7436  34.339  23.558  11.433
35122W        W 7437   9.899  35.392  14.542
35123W        W 7438   4.635  24.531   2.406
35124W        W 7439  27.026  35.821   0.428
35125W        W 7440  33.008  35.036   0.488
35126W        W 7441  40.356  10.097  13.391
35127W        W 7442  21.576  30.631   1.150
35128W        W 7443   2.212  40.424   4.702
35129W        W 7444   3.801  38.783  10.151
35130W        W 7445   9.179   7.302  14.390
35131W        W 7446  11.137  23.744  12.900
35132W        W 7447  10.718  10.139   3.654
35133W        W 7448   8.996   8.385  13.807
35134W        W 7449  14.824  38.019   4.716
35135W        W 7450  24.807  23.915   4.381
35136W        W 7451  37.528  11.942   1.914
35137W        W 7452  26.860  43.896   1.195
35138W        W 7453   5.742  23.953   1.717
35139W        W 7454  44.482  30.542  10.038
35140W        W 7455  44.227  31.511  14.313
35141W        W 7456  22.212   3.654   2.699
35142W        W 7457  39.928  43.745   1.869
35143W        W 7458  44.715  19.742  14.751
35144W        W 7459  29.268   5.169   0.883
35145W        W 7460  29.081  29.030   0.444
35146W        W 7461   7.838  35.973  12.305
35147W        W 7462  21.145  24.702  12.906
35148W        W 7463  40.147  21.130   4.042
35149W        W 7464  33.939  25.642  10.547
35150W        W 7465  42.828  29.484   2.796
35151W        W 7466   9.321  11.592   3.693
35152W        W 7467  12.264  20.597  10.643
35153W        W 7468  44.335  13.587   2.705
35154W        W 7469  42.257  23.005  12.307
35155W        W 7470  36.447   6.187   0.236
35156W        W 7471  31.972  14.687  14.370
35157W        W 7472  23.401  39.924   4.038
35158W        W 7473  38.687  30.858  14.826
35159W        W 7474   1.466  33.173   3.438
35160W        W 7475  29.903  24.672   1.009
35161W        W 7476  14.615  20.008   2.640
35162W        W 7477  17.870  12.628   0.310
35163W        W 7478  31.331  33.344   1.228
35164W        W 7479  39.845  19.257   1.764
35165W        W 7480  40.052  39.381   1.155
35166W        W 7481  39.988   5.217  13.060
35167W        W 7482   7.616   7.107   0.403
35168W        W 7483  43.435  24.422  13.073
35169W        W 7484  41.286  24.651   0.433
35170W        W 7485  34.499  13.808   2.260
35171W        W 7486   8.650  14.400  10.772
35172W        W 7487  19.797  31.555  11.423
35173W        W 7488  23.052   7.535  10.660
35174W        W 7489  37.263  32.270  12.850
35175W        W 7490  40.619   2.221  10.686
35176W        W 7491  27.077  27.559   0.038
35177W        W 7492   6.780   7.022  11.224
35178W        W 7493  34.534  18.489  11.995
35179W        W 7494  40.987  18.845   1.241
35180W        W 7495  44.823  35.499  14.069
35181W        W 7496  12.777  44.798  12.727
35182W        W 7497   8.445  20.281  14.345
35183W        W 7498  26.024  41.279  13.439
35184W        W 7499  27.529  17.083   3.638
35185W        W 7500   5.853  31.135   0.004
35186W        W 7501  15.235  16.770  13.147
35187W        W 7502   6.726  15.790  11.591
35188W        W 7503  42.255  41.789  13.909
35189W        W 7504  24.248  25.018   2.287
35190W        W 7505  15.627  43.501   4.245
35191W        W 7506   9.574   1.731  14.015
35192W        W 7507   7.137  36.989   2.335
35193W        W 7508  34.577   8.823   2.517
35194W        W 7509  19.714  26.168  13.628
35195W        W 7510  16.806  17.833  11.612
35196W        W 7511   0.469  38.939  14.591
35197W        W 7512  21.017  37.254  13.981
35198W        W 7513  31.035   7.447  11.009
35199W        W 7514   6.397  35.353   2.889
35200W        W 7515  14.844   0.432   0.902
35201W        W 7516  17.536  35.945  11.511
35202W        W 7517   1.547  12.060   9.714
35203W        W 7518  14.281  26.972   4.769
35204W        W 7519  29.422  27.605   3.314
35205W        W 7520   4.345  24.664   1.931
35206W        W 7521  34.676  18.702   3.647
35207W        W 7522  11.794  23.446   4.877
35208W        W 7523  21.559  44.049  12.805
35209W        W 7524  12.722  36.893  12.177
35210W        W 7525   5.175  43.953  10.657
35211W        W 7526  25.444  42.586   0.445
35212W        W 7527   1.384   5.571  14.184
35213W        W 7528  36.424  22.787  12.962
35214W        W 7529   4.929  36.301  12.724
35215W        W 7530  23.630   1.022   3.635
35216W        W 7531  17.241  31.831   4.518
35217W        W 7532  19.536   7.337   3.779
35218W        W 7533  13.204  14.249   0.281
35219W        W 7534  32.532  33.045  10.638
35220W        W 7535   8.635  37.302  10.910
35221W        W 7536   9.401  39.995  10.819
35222W        W 7537  13.764  17.378  14.927
35223W        W 7538  23.335  40.552   4.217
35224W        W 7539   1.509   0.802  10.659
35225W        W 7540   0.592  26.304  11.542
35226W        W 7541  44.981   0.285   1.433
35227W        W 7542  29.476  26.156  13.525
35228W        W 7543  11.149  17.781   3.184
35229W        W 7544  35.029  26.692  13.784
35230W        W 7545  15.930  27.421  12.552
35231W        W 7546   2.775   7.558   0.426
35232W        W 7547  35.964  40.425  10.616
35233W        W 7548  23.361  44.395   4.062
35234W        W 7549  10.865   9.829  13.408
35235W        W 7550  16.825  35.927  14.398
35236W        W 7551   8.871  26.613  13.536
35237W        W 7552   5.816  42.341   1.856
35238W        W 7553  15.786  25.369   2.302
35239W        W 7554   2.406  21.439  12.856
35240W        W 7555  34.967  12.116  13.052
35241W        W 7556  29.080  12.065  11.582
35242W        W 7557  43.256  19.679  12.872
35243W        W 7558  16.562  17.060   1.814
35244W        W 7559  30.682  15.143   1.812
35245W        W 7560  13.358  44.131   1.706
35246W        W 7561  34.477  25.677   0.689
35247W        W 7562  41.213  24.895   4.735
35248W        W 7563  36.531  23.022  11.604
35249W        W 7564  40.919  19.620   3.585
35250W        W 7565  37.066   7.149  11.679
35251W        W 7566  19.252   2.663   0.175
35252W        W 7567  18.564   5.252   0.183
35253W        W 7568  20.579  25.287   1.226
35254W        W 7569  32.032  30.994  14.299
35255W        W 7570  37.199   8.157  11.659
35256W        W 7571   2.528   5.256   2.266
35257W        W 7572   1.026  14.010  14.723
35258W        W 7573  14.926  22.220   4.716
35259W        W 7574  28.362  44.688   1.451
35260W        W 7575   1.022   4.960   1.624
35261W        W 7576  38.382  24.188   0.464
35262W        W 7577  32.892   6.576   0.024
35263W        W 7578   8.634  12.338  11.984
35264W        W 7579  26.479   9.461  10.465
35265W        W 7580  38.971  22.154   3.866
35266W        W 7581  43.904  37.209  12.451
35267W        W 7582  27.578  23.104   4.661
35268W        W 7583  36.928  26.832   4.793
35269W        W 7584  13.936  39.865   1.871
35270W        W 7585  13.831  13.397  11.563
35271W        W 7586  28.215  15.873   4.236
35272W        W 7587  29.601  44.887  13.817
35273W        W 7588  32.962   1.368   3.614
35274W        W 7589  23.159  30.816  13.277
35275W        W 7590  11.891  18.056  11.157
35276W        W 7591  43.881   2.922  10.599
35277W        W 7592   7.284  10.275   2.738
35278W        W 7593   7.716  11.197  12.195
35279W        W 7594   6.590  22.115  14.338
35280W        W 7595  23.617  32.024   1.478
35281W        W 7596  28.739  28.978   0.822
35282W        W 7597  12.680  35.546   4.494
35283W        W 7598  14.118  22.154  13.958
35284W        W 7599   8.465   0.523  11.089
35285W        W 7600  21.215  33.793  12.546
35286W        W 7601  38.469   6.306   2.383
35287W        W 7602   0.962  21.620   2.877
35288W        W 7603  14.654  14.616   0.533
35289W        W 7604  18.360   5.239  13.307
35290W        W 7605   1.466   8.186   3.690
35291W        W 7606  39.339  40.544   4.668
35292W        W 7607  28.035  15.166   4.559
35293W        W 7608  44.380  24.915  10.695
35294W        W 7609  24.979  41.550  12.599
35295W        W 7610  27.992   8.666  14.191
35296W        W 7611  25.244  23.417  11.557
35297W        W 7612  24.715   1.793  10.716
35298W        W 7613  14.225  18.266   0.576
35299W        W 7614  40.792  40.976   2.294
35300W        W 7615  30.896  17.158   0.893
35301W        W 7616  10.108  34.309   0.362
35302W        W 7617  29.161  22.536  12.949
35303W        W 7618  12.335   2.911  11.957
35304W        W 7619   9.546   5.236  10.696
35305W        W 7620  21.155  37.689  10.243
35306W        W 7621  30.430  12.639  14.819
35307W        W 7622  33.208   8.324   2.761
35308W        W 7623  36.090  12.120  13.813
35309W        W 7624  17.268  28.736  13.504
35310W        W 7625  11.879  41.373   3.472
35311W        W 7626  16.357  33.615  12.672
35312W        W 7627  14.174  17.277   3.275
35313W        W 7628  18.867   4.981   4.938
35314W        W 7629  33.666  15.581   2.275
35315W        W 7630  11.260  18.836   4.063
35316W        W 7631  35.803  19.317  13.422
35317W        W 7632  11.798  27.146   0.796
35318W        W 7633  35.925  24.420   3.249
35319W        W 7634  12.527   7.648  12.470
35320W        W 7635   3.496  35.522  10.790
35321W        W 7636   6.902  30.915   4.596
35322W        W 7637  44.981  28.671   3.187
35323W        W 7638  15.036  44.898  11.475
35324W        W 7639  44.907  23.028   4.670
35325W        W 7640  23.706   9.485  11.716
35326W        W 7641   6.492  24.645   2.325
35327W        W 7642  37.322  14.214  13.102
35328W        W 7643  12.557  40.815   3.267
35329W        W 7644  31.090  33.508  11.531
35330W        W 7645  44.485  37.938   2.679
35331W        W 7646  29.182  37.858  14.528
35332W        W 7647  43.601  11.432  12.955
35333W        W 7648  44.092   1.855   4.585
35334W        W 7649   0.954  10.845  13.884
35335W        W 7650   5.692   9.373   0.698
35336W        W 7651  16.728  27.543   1.696
35337W        W 7652   4.514  31.861  11.572
35338W        W 7653  14.098  29.942  12.033
35339W        W 7654  18.805  17.025  14.464
35340W        W 7655  11.128  13.907  13.429
35341W        W 7656  20.594  44.903  14.066
35342W        W 7657  38.386  23.424   3.227
35343W        W 7658  40.409   9.364  11.141
35344W        W 7659   9.176   3.240   3.372
35345W        W 7660   6.998   2.391  13.009
35346W        W 7661  41.923   5.339   4.695
35347W        W 7662  22.442  29.061  11.633
35348W        W 7663  35.120  23.578   4.553
35349W        W 7664  31.138   0.831   0.316
35350W        W 7665  13.594  43.832   4.975
35351W        W 7666  38.035  34.532  12.316
35352W        W 7667   4.964  44.316   3.358
35353W        W 7668  13.439  31.346  14.414
35354W        W 7669  28.089  37.096  13.904
35355W        W 7670  14.394  14.343  12.832
35356W        W 7671  13.433   7.784  11.100
35357W        W 7672  39.266  27.964   3.299
35358W        W 7673   8.934  33.359   2.187
35359W        W 7674  27.564  24.148   3.560
35360W        W 7675  29.645   1.131  11.302
35361W        W 7676  29.864  41.577   3.352
35362W        W 7677  29.108  15.895  12.147
35363W        W 7678  10.030   2.885  11.760
35364W        W 7679  42.398   4.766  10.980
35365W        W 7680  19.698  37.608   4.534
35366W        W 7681  22.584  29.443   0.660
35367W        W 7682  33.895  39.478   0.964
35368W        W 7683  35.931  36.090   1.433
35369W        W 7684  32.709   0.361   2.172
35370W        W 7685  28.195  29.724  14.982
35371W        W 7686  30.438  31.170  13.062
35372W        W 7687  41.797  40.480  14.930
35373W        W 7688   4.236  42.952   0.238
35374W        W 7689  26.741  13.277   2.578
35375W        W 7690  39.356   0.037   0.064
35376W        W 7691  21.269  23.039  13.544
35377W        W 7692   6.889  37.229  12.111
35378W        W 7693   0.324   8.000  10.689
35379W        W 7694   1.557  34.007   5.513
35380W        W 7695  39.238  35.611  13.851
35381W        W 7696  16.828  21.667  14.312
35382W        W 7697  17.539  17.172   4.635
35383W        W 7698  44.312   4.306   2.698
35384W        W 7699  19.167  17.042   2.203
35385W        W 7700  32.453  16.575   1.401
35386W        W 7701  36.040  14.858  14.470
35387W        W 7702  43.857   2.836   1.385
35388W        W 7703  31.402  18.249   0.796
35389W        W 7704  32.088  17.528  13.129
35390W        W 7705  12.711  32.043  10.662
35391W        W 7706  43.848  39.550   4.408
35392W        W 7707   5.148   4.954  11.864
35393W        W 7708  21.092  30.499   1.009
35394W        W 7709  30.039  34.124   0.250
35395W        W 7710  20.613  27.311   3.791
35396W        W 7711  26.685  13.832   0.969
35397W        W 7712  38.093  12.037  12.087
35398W        W 7713  21.296  35.352   4.975
35399W        W 7714  19.678   5.842   2.580
35400W        W 7715  23.106  24.785  13.867
35401W        W 7716   6.514  32.149   1.425
35402W        W 7717  17.142  21.343   5.121
35403W        W 7718   3.714  12.975   1.493
35404W        W 7719  25.184  24.177   2.102
35405W        W 7720  37.528  43.813  13.090
35406W        W 7721  35.499  35.588   3.131
35407W        W 7722  31.155  17.220   4.100
35408W        W 7723   7.236  41.116  14.434
35409W        W 7724  38.925  31.158  13.471
35410W        W 7725  34.787  34.562  13.138
35411W        W 7726  11.882   8.127  14.938
35412W        W 7727  32.969  43.571  14.890
35413W        W 7728  44.778  38.889  10.122
35414W        W 7729  36.428   1.503  12.086
35415W        W 7730  36.134  42.674   4.738
35416W        W 7731  22.624  19.629  10.991
35417W        W 7732  19.162  42.404  11.285
35418W        W 7733  18.608  38.025  13.422
35419W        W 7734  12.951  30.628  12.727
35420W        W 7735  30.564  22.040  11.960
35421W        W 7736   7.230  39.327   4.309
35422W        W 7737   5.901  20.574   0.909
35423W        W 7738  14.423  16.739   1.538
35424W        W 7739  25.516  34.395   0.911
35425W        W 7740   8.315  20.585   1.698
35426W        W 7741  38.311   1.225  12.862
35427W        W 7742  25.237  40.374  12.355
35428W        W 7743  34.618  21.059  13.036
35429W        W 7744  29.523  22.206   1.540
35430W        W 7745  37.113   2.062   0.911
35431W        W 7746  27.110  25.586  12.790
35432W        W 7747  40.854  42.190  13.867
35433W        W 7748   3.835  28.399  14.748
35434W        W 7749  40.034  18.283   0.568
35435W        W 7750  32.103  37.570  11.219
35436W        W 7751   7.732  33.636  12.019
35437W        W 7752  44.995  12.187   3.761
35438W        W 7753  18.610  27.311   3.099
35439W        W 7754  39.579  44.260  14.444
35440W        W 7755   0.343  41.297  12.774
35441W        W 7756  38.286  37.594   0.983
35442W        W 7757  20.044  34.506  10.620
35443W        W 7758  25.277  36.242  14.813
35444W        W 7759  38.423   9.708   1.265
35445W        W 7760  43.159   8.286  14.929
35446W        W 7761   4.000  32.138  14.561
35447W        W 7762   7.933   4.003  13.634
35448W        W 7763  35.535  14.047   1.297
35449W        W 7764  18.844  15.587   0.260
35450W        W 7765  21.474   9.313   2.401
35451W        W 7766  20.405   7.205  13.715
35452W        W 7767  40.495  42.269   4.081
35453W        W 7768  33.474  10.913   1.207
35454W        W 7769   1.273  10.884  14.434
35455W        W 7770  34.567   0.294  13.835
35456W        W 7771  27.039  30.592  10.125
35457W        W 7772   5.231  40.489   4.756
35458W        W 7773  10.602  26.033   1.982
35459W        W 7774  20.023  31.733  13.460
35460W        W 7775  32.007  19.247  13.811
35461W        W 7776  44.819  33.284   3.708
35462W        W 7777  10.857  21.134  10.452
35463W        W 7778  19.689  11.998  11.060
35464W        W 7779  27.874  26.890  12.411
35465W        W 7780  21.942   7.087   2.386
35466W        W 7781  34.892   0.003   3.289
35467W        W 7782   5.263  36.418  11.896
35468W        W 7783   8.398   0.725  14.836
35469W        W 7784  24.550   3.230  13.472
35470W        W 7785  43.547  14.022  11.140
35471W        W 7786   1.933   0.698   0.218
35472W        W 7787  27.110   6.288  12.416
35473W        W 7788   6.715  24.560   3.186
35474W        W 7789   2.226   8.391   4.007
35475W        W 7790  28.826  10.729   2.913
35476W        W 7791  42.042  32.052   3.498
35477W        W 7792  43.325  13.279   0.770
35478W        W 7793  15.601  24.753   0.081
35479W        W 7794  12.764  44.204  14.870
35480W        W 7795  42.354  12.022  14.831
35481W        W 7796   3.779   9.665  14.330
35482W        W 7797  33.090  13.825   0.552
35483W        W 7798  30.536   3.966  11.639
35484W        W 7799   7.363  16.317   3.980
35485W        W 7800  24.671  10.926   0.276
35486W        W 7801  13.335  42.586  13.478
35487W        W 7802  44.856   5.451  12.986
35488W        W 7803  24.176   0.016   4.152
35489W        W 7804  23.635  40.105  12.074
35490W        W 7805  32.464  36.051   1.325
35491W        W 7806  27.738  15.370  14.371
35492W        W 7807  14.052  12.380  12.934
35493W        W 7808  13.284  34.303   3.667
35494W        W 7809  26.525  44.251  14.403
35495W        W 7810  41.447  14.503  14.471
35496W        W 7811  32.874  18.503  13.429
35497W        W 7812  29.415   6.552  10.794
35498W        W 7813  34.840   7.856   5.071
35499W        W 7814  38.833  43.445  12.239
35500W        W 7815   3.864  32.899   3.644
35501W        W 7816   0.828   4.019  10.720
35502W        W 7817  26.684   4.401  12.101
35503W        W 7818  13.095  44.732  11.033
35504W        W 7819  22.029  22.726   4.970
35505W        W 7820  20.676  24.468  12.150
35506W        W 7821  31.463   2.816  12.410
35507W        W 7822  18.211   9.179   1.747
35508W        W 7823  43.757   9.673   5.408
35509W        W 7824   3.718   5.944   2.369
35510W        W 7825  21.127  15.087  12.161
35511W        W 7826   2.271  17.072   2.262
35512W        W 7827  39.977  39.463   1.663
35513W        W 7828  21.450  27.997  10.610
35514W        W 7829  17.699  20.615  13.509
35515W        W 7830   1.465   2.987   4.900
35516W        W 7831  27.399  26.047   4.909
35517W        W 7832  10.720  29.938   3.227
35518W        W 7833  39.150  30.460   1.824
35519W        W 7834  12.656  12.342  13.274
35520W        W 7835  44.045  21.233   0.422
35521W        W 7836  16.034  37.580   0.475
35522W        W 7837   7.162  31.641   1.136
35523W        W 7838  13.568   8.967  12.940
35524W        W 7839  22.333  22.350  14.710
35525W        W 7840  32.650  36.909   1.919
35526W        W 7841   7.231  34.594   0.626
35527W        W 7842  41.688  21.916   4.725
35528W        W 7843  20.377  13.321   0.310
35529W        W 7844  18.492   9.861  12.795
35530W        W 7845  30.400  11.325  10.975
35531W        W 7846  34.966  31.999  10.736
35532W        W 7847  36.608  24.021   2.465
35533W        W 7848  23.300  29.008  12.815
35534W        W 7849   4.514  18.372   1.630
35535W        W 7850  30.735  25.951   3.288
35536W        W 7851  23.209  29.091   4.522
35537W        W 7852   7.182  10.380  11.361
35538W        W 7853   5.883  12.971   4.150
35539W        W 7854  31.958  27.746   0.658
35540W        W 7855   6.290  25.485   4.421
35541W        W 7856  19.064  41.102  10.103
35542W        W 7857  31.928  19.040  12.105
35543W        W 7858  44.974  42.556  11.977
35544W        W 7859  22.491  11.409   2.707
35545W        W 7860   0.016   3.251  11.320
35546W        W 7861  14.276  41.927  11.954
35547W        W 7862  10.100  10.170  12.607
35548W        W 7863   6.298   0.628  11.705
35549W        W 7864   9.694  25.761  13.320
35550W        W 7865   7.901  44.733  10.664
35551W        W 7866   7.435   1.800  11.996
35552W        W 7867  27.193  21.796  12.357
35553W        W 7868   4.366   7.099  13.802
35554W        W 7869  10.225   6.661   2.330
35555W        W 7870  30.680  38.185  13.375
35556W        W 7871  24.726  19.875   0.392
35557W        W 7872  27.159  38.236   2.572
35558W        W 7873  31.549  31.506  12.969
35559W        W 7874  27.410  14.350   2.226
35560W        W 7875  21.121   6.398   5.068
35561W        W 7876  42.373  39.228  10.695
35562W        W 7877  14.523   7.178   1.734
35563W        W 7878  33.600  33.937  12.698
35564W        W 7879  27.823  16.731   2.679
35565W        W 7880  38.544  39.476   2.311
35566W        W 7881  20.606  40.319  13.844
35567W        W 7882  37.361  34.095   3.608
35568W        W 7883  42.060  37.502  13.891
35569W        W 7884  43.587  23.580  11.197
35570W        W 7885  18.091  28.551   4.515
35571W        W 7886  27.568   3.193   1.741
35572W        W 7887  26.578  39.987  13.063
35573W        W 7888  25.475  23.181  11.935
35574W        W 7889  34.967  19.976   0.895
35575W        W 7890  27.249   4.139  13.264
35576W        W 7891  38.403  24.905  11.950
35577W        W 7892   2.882  16.549  13.815
35578W        W 7893  30.089  29.711   1.217
35579W        W 7894  31.667  22.183  12.031
35580W        W 7895  34.387   8.376  13.562
35581W        W 7896  17.003  32.135   4.158
35582W        W 7897  11.748  35.050  13.477
35583W        W 7898   9.422  30.358   1.709
35584W        W 7899  26.653   3.702   5.340
35585W        W 7900  42.370  34.637  14.405
35586W        W 7901  17.550  22.761  10.576
35587W        W 7902   5.978  10.375   3.225
35588W        W 7903  43.247   7.850   2.252
35589W        W 7904  27.381  34.060   3.668
35590W        W 7905  22.216  23.432  10.806
35591W        W 7906  30.848   0.474   4.210
35592W        W 7907  34.115  12.219  13.987
35593W        W 7908  20.753  26.804  12.333
35594W        W 7909  39.886  35.639  11.316
35595W        W 7910  23.964  29.259  13.860
35596W        W 7911  22.959  18.298  14.069
35597W        W 7912  12.153   1.945   0.981
35598W        W 7913   8.113  24.614  13.327
35599W        W 7914  28.590   9.865  10.500
35600W        W 7915  28.123  36.584   1.364
35601W        W 7916  28.957  36.420   0.785
35602W        W 7917  12.740  25.454   0.888
35603W        W 7918  17.754  29.994   4.568
35604W        W 7919  18.275   4.992  14.301
35605W        W 7920  26.944  12.122   5.026
35606W        W 7921  17.713  40.722   4.310
35607W        W 7922  41.688   6.826   3.569
35608W        W 7923  30.476  36.160   3.496
35609W        W 7924  44.436  41.096  11.591
35610W        W 7925  23.612  10.270   2.232
35611W        W 7926   5.512   8.580   4.164
35612W        W 7927  31.865   5.921   2.445
35613W        W 7928  14.619  30.262   4.005
35614W        W 7929  37.396  35.807  13.304
35615W        W 7930  29.433   5.781   1.337
35616W        W 7931   6.559  11.415   2.608
35617W        W 7932  43.235  44.758  14.375
35618W        W 7933  40.995   3.294  13.888
35619W        W 7934   3.801  27.556  13.761
35620W        W 7935  17.075  22.663  12.977
35621W        W 7936  15.629   2.336  10.642
35622W        W 7937  33.198   1.226  11.165
35623W        W 7938   8.884  10.755  13.954
35624W        W 7939  33.768  16.830  10.914
35625W        W 7940  42.647   1.547  13.081
35626W        W 7941  26.920  42.878  12.570
35627W        W 7942   9.806   9.873   4.288
35628W        W 7943  26.647  20.020  12.606
35629W        W 7944  18.748  13.565  14.329
35630W        W 7945  43.165   7.133   1.808
35631W        W 7946  17.379   8.226  11.076
35632W        W 7947  43.509  30.565   0.557
35633W        W 7948   4.842  39.088  10.622
35634W        W 7949  21.973  12.284   2.446
35635W        W 7950  23.249  26.454  14.326
35636W        W 7951  14.701  15.461  11.132
35637W        W 7952  19.978  22.900   4.209
35638W        W 7953  29.738  43.532   1.336
35639W        W 7954  26.649  44.088   0.765
35640W        W 7955  31.073  42.024  14.419
35641W        W 7956   5.360  11.703  14.105
35642W        W 7957  44.726  41.588  14.451
35643W        W 7958  31.490  23.642   4.509
35644W        W 7959  23.027  26.109  11.935
35645W        W 7960  21.373  39.162   1.639
35646W        W 7961  14.747  17.315   2.366
35647W        W 7962  20.397  33.644   2.990
35648W        W 7963   4.319  20.600   2.179
35649W        W 7964  41.616   2.232   1.718
35650W        W 7965  21.528  21.157  12.622
35651W        W 7966  18.843  30.109  12.015
35652W        W 7967  29.576  36.948   0.682
35653W        W 7968  41.822  28.883  14.410
35654W        W 7969  10.786  16.793   9.735
35655W        W 7970  42.479  37.975  12.538
35656W        W 7971  42.984  29.537  14.795
35657W        W 7972   2.257  23.916   2.295
35658W        W 7973   4.796  40.082   2.128
35659W        W 7974  29.824  14.800  14.238
35660W        W 7975  39.368   4.231  11.978
35661W        W 7976   5.815   6.444   3.786
35662W        W 7977  22.765  23.669   4.605
35663W        W 7978  21.656  13.213   2.785
35664W        W 7979  21.141  26.008  12.175
35665W        W 7980   9.416   6.602  14.032
35666W        W 7981  20.386  38.821  10.977
35667W        W 7982  41.010  37.134   2.697
35668W        W 7983  11.161  30.956  11.398
35669W        W 7984   9.233  30.002   4.375
35670W        W 7985  12.270  19.649   2.217
35671W        W 7986  16.296  43.736   4.635
35672W        W 7987   0.134  34.216   2.321
35673W        W 7988  17.647  39.211   0.215
35674W        W 7989  30.729   4.021   1.766
35675W        W 7990  19.949   2.780   2.083
35676W        W 7991   4.240  13.316  12.548
35677W        W 7992   3.935  37.513   4.231
35678W        W 7993  39.943   4.401   0.713
35679W        W 7994  34.954  38.349   4.597
35680W        W 7995  27.239  31.929   2.781
35681W        W 7996  27.453  41.301   2.250
35682W        W 7997  37.329  40.459  10.465
35683W        W 7998  27.340  21.187   2.206
35684W        W 7999   2.077   1.807  12.388
35685W        W 8000   1.419   1.951   0.515
35686W        W 8001  11.535   5.281   2.934
35687W        W 8002  29.448  40.491   4.463
35688W        W 8003  42.988  40.412   3.810
35689W        W 8004  34.413  29.460   1.015
35690W        W 8005  38.470  27.650  13.478
35691W        W 8006  20.097  31.801   3.198
35692W        W 8007  13.762   7.381  12.063
35693W        W 8008  12.273  22.684  12.699
35694W        W 8009   3.301  25.429   3.662
35695W        W 8010  13.197  36.004   2.692
35696W        W 8011  29.751  35.397  10.858
35697W        W 8012  42.994  23.373   2.882
35698W        W 8013  22.176   8.633   4.501
35699W        W 8014  18.623  19.675  10.955
35700W        W 8015  19.337  40.437  14.583
35701W        W 8016  15.284   8.324  12.068
35702W        W 8017  15.013  20.244  14.253
35703W        W 8018  27.181  15.318   4.126
35704W        W 8019   9.859  29.051   3.600
35705W        W 8020  17.586   3.870   1.738
35706W        W 8021  20.624   3.190  11.498
35707W        W 8022  32.861  25.399  13.643
35708W        W 8023  42.438  35.580  14.365
35709W        W 8024  43.263  26.296   1.870
35710W        W 8025  33.377   4.217  14.762
35711W        W 8026  27.611  40.534  14.343
35712W        W 8027  27.160   7.009  14.487
35713W        W 8028   5.647  20.253   1.277
35714W        W 8029  13.276  15.787   0.356
35715W        W 8030  21.720  35.827  14.783
35716W        W 8031   2.117  28.982   4.538
35717W        W 8032  13.933   7.666   3.641
35718W        W 8033  22.942  12.477   2.308
35719W        W 8034   1.772   6.171  13.788
35720W        W 8035  39.524  44.935   1.005
35721W        W 8036  35.895  40.703   0.289
35722W        W 8037  23.521  36.933   3.249
35723W        W 8038  34.128   6.343  12.903
35724W        W 8039   4.320  30.886  11.515
35725W        W 8040  13.890   5.431  11.146
35726W        W 8041  31.107  34.574   3.723
35727W        W 8042  33.666  29.823   2.399
35728W        W 8043  23.486  13.178   1.239
35729W        W 8044  23.605  12.043  14.369
35730W        W 8045  26.116  32.121  10.701
35731W        W 8046  31.471  20.506   1.554
35732W        W 8047  12.294  44.652   3.324
35733W        W 8048  16.998  36.394  10.453
35734W        W 8049  32.336  25.597   2.411
35735W        W 8050  38.132  29.922  12.952
35736W        W 8051  11.587  33.129   2.777
35737W        W 8052  22.319  29.082   1.573
35738W        W 8053   0.367  42.127  11.258
35739W        W 8054  28.516  16.750   1.308
35740W        W 8055  12.736  30.367   1.471
35741W        W 8056  40.860   3.054  11.554
35742W        W 8057  10.804  37.794   1.194
35743W        W 8058   4.788  24.222  10.445
35744W        W 8059  43.458  36.475  12.564
35745W        W 8060   3.470  17.287   4.235
35746W        W 8061  38.826  22.105  14.748
35747W        W 8062  14.542  36.118   3.682
35748W        W 8063  18.200  40.588   2.283
35749W        W 8064  16.035  12.958  13.535
35750W        W 8065  40.813  42.707   3.748
35751W        W 8066  44.800  42.457   0.241
35752W        W 8067  20.300  38.463   2.555
35753W        W 8068   3.283  31.459   3.396
35754W        W 8069   8.393   8.466  11.110
35755W        W 8070  21.082  39.938  14.019
35756W        W 8071   8.768  43.368  11.275
35757W        W 8072   2.920  25.120   1.849
35758W        W 8073  41.356   8.834  13.507
35759W        W 8074  12.669  18.863   4.322
35760W        W 8075  10.874   0.199  14.487
35761W        W 8076  11.282   1.531   1.886
35762W        W 8077  31.458  42.002  11.185
35763W        W 8078   5.410  36.456  12.886
35764W        W 8079   5.922  11.260  11.853
35765W        W 8080  29.982  18.183  11.003
35766W        W 8081  40.886  33.051  11.144
35767W        W 8082   4.269  32.987   4.761
35768W        W 8083  42.047   2.124   4.452
35769W        W 8084   8.258  17.952   4.643
35770W        W 8085  15.327  39.916   1.861
35771W        W 8086  21.965  25.428  13.909
35772W        W 8087  20.276  24.449   3.147
35773W        W 8088  25.792  35.514  12.445
35774W        W 8089  35.990  32.928  10.763
35775W        W 8090  28.707  32.059  10.252
35776W        W 8091  16.190  26.909  13.846
35777W        W 8092  40.402  27.989   0.245
35778W        W 8093  21.274  29.075   1.842
35779W        W 8094  18.239  22.704   1.760
35780W        W 8095   6.100  37.444   1.779
35781W        W 8096   0.874   2.172   2.558
35782W        W 8097   3.510  16.617  11.523
35783W        W 8098   7.444  17.622   0.516
35784W        W 8099  38.498  16.867   1.694
35785W        W 8100   1.267  25.533   3.229
35786W        W 8101  36.553  22.614  14.935
35787W        W 8102  43.328   8.688   3.365
35788W        W 8103  34.186  26.215  14.114
35789W        W 8104  21.913  44.294  13.345
35790W        W 8105  39.868  37.344   2.336
35791W        W 8106  28.886  32.796  14.821
35792W        W 8107  36.626  32.209   5.042
35793W        W 8108  24.014   0.730   3.818
35794W        W 8109   1.435  44.269   0.067
35795W        W 8110  25.995  26.173  13.706
35796W        W 8111  24.977  27.647  14.791
35797W        W 8112   8.289  28.490   2.173
35798W        W 8113  12.989  18.240   4.102
35799W        W 8114  29.611  43.821   1.758
35800W        W 8115   5.901   8.172  12.689
35801W        W 8116  27.663   8.783   2.289
35802W        W 8117  33.022  10.900  12.933
35803W        W 8118  16.815  39.027   3.771
35804W        W 8119  11.484  11.557  11.324
35805W        W 8120  14.209  35.426   0.023
35806W        W 8121  16.623   7.406   3.275
35807W        W 8122  36.052  29.902  12.845
35808W        W 8123   8.173  38.620  14.131
35809W        W 8124  37.083   1.399  13.145
35810W        W 8125  35.029  15.632   4.474
35811W        W 8126   1.900  34.278  13.941
35812W        W 8127   6.958  43.941  10.459
35813W        W 8128   9.810  12.837   4.740
35814W        W 8129  22.121  12.119  12.096
35815W        W 8130  34.952   5.546  10.458
35816W        W 8131  37.851  13.114   5.022
35817W        W 8132   7.933  20.011   3.953
35818W        W 8133  23.858  38.540   0.936
35819W        W 8134  15.555  35.899   0.116
35820W        W 8135   3.739  40.806  13.594
35821W        W 8136  38.814  25.685   0.895
35822W        W 8137   0.419  17.459   0.250
35823W        W 8138  42.942  13.399  12.494
35824W        W 8139  17.689  21.220   5.060
35825W        W 8140  28.624   6.766  13.305
35826W        W 8141  12.953   0.391  11.415
35827W        W 8142  11.801  21.513   0.364
35828W        W 8143  16.703  34.191  11.875
35829W        W 8144  33.070  13.142  13.840
35830W        W 8145  22.025  28.557   3.715
35831W        W 8146   7.092  32.787   3.930
35832W        W 8147  43.930  10.019   0.921
35833W        W 8148  14.593   3.255   3.307
35834W        W 8149  24.039  10.856   1.850
35835W        W 8150  21.558  33.718   1.481
35836W        W 8151  39.875  37.337  10.519
35837W        W 8152  13.860  41.500   1.532
35838W        W 8153  35.991  33.521  14.866
35839W        W 8154  18.638  42.610   2.722
35840W        W 8155  10.684  32.450  13.912
35841W        W 8156  17.852   4.251  12.681
35842W        W 8157  23.171  36.482   0.584
35843W        W 8158   7.787  22.521  11.503
35844W        W 8159   6.838  14.793  12.562
35845W        W 8160  20.014  14.857   2.897
35846W        W 8161  14.503  31.595  12.460
35847W        W 8162  39.830  33.389   0.749
35848W        W 8163   3.071  38.471  13.352
35849W        W 8164  38.429  35.032   1.652
35850W        W 8165  23.920  28.769  13.805
35851W        W 8166  36.610  44.731   3.601
35852W        W 8167  37.463  42.185   3.429
35853W        W 8168   3.392  30.938   4.815
35854W        W 8169  39.606  37.571  11.473
35855W        W 8170  31.917  23.054  12.069
35856W        W 8171  27.399  37.253   4.314
35857W        W 8172  25.735  37.627   4.058
35858W        W 8173  18.123  20.443   0.267
35859W        W 8174   9.262  40.048   4.578
35860W        W 8175  17.185  27.286   2.467
35861W        W 8176  36.413  24.939  11.113
35862W        W 8177   9.134  37.971   0.301
35863W        W 8178  26.509  39.960   2.707
35864W        W 8179  31.857  35.680   3.215
35865W        W 8180  18.190  35.973   3.176
35866W        W 8181  43.294  40.083  12.450
35867W        W 8182  15.540  22.746   1.363
35868W        W 8183  17.089  34.351  13.391
35869W        W 8184  25.866  21.535   1.439
35870W        W 8185  20.970  33.399   1.786
35871W        W 8186  22.709  16.457  11.868
35872W        W 8187   2.768  19.090   1.798
35873W        W 8188  39.635  25.894  11.993
35874W        W 8189  30.154  38.953   4.535
35875W        W 8190  39.408   0.022  12.640
35876W        W 8191  42.758   6.882  14.886
35877W        W 8192  37.047  27.612  13.471
35878W        W 8193  23.033  23.188  13.936
35879W        W 8194  21.938   5.394   3.958
35880W        W 8195  32.849  11.551   2.074
35881W        W 8196  30.636   2.718  11.444
35882W        W 8197  38.446  44.565  14.839
35883W        W 8198  25.650  23.525  14.344
35884W        W 8199  12.772  11.659  14.386
35885W        W 8200  22.498  30.252  14.427
35886W        W 8201  27.672  35.420   1.468
35887W        W 8202  33.054   1.448  10.724
35888W        W 8203  31.837  26.524  13.844
35889W        W 8204  28.944  36.102   2.356
35890W        W 8205   1.128   2.971   0.382
35891W        W 8206  35.983  22.991   2.741
35892W        W 8207  15.122  17.024   0.732
35893W        W 8208   2.417  32.109  12.541
35894W        W 8209   9.397   3.867   4.021
35895W        W 8210  40.491   6.623  14.043
35896W        W 8211   6.781   0.711  11.521
35897W        W 8212  43.328   8.962  13.576
35898W        W 8213  20.509  39.988  12.042
35899W        W 8214  30.996  35.930  13.981
35900W        W 8215  20.092  13.616  11.127
35901W        W 8216  10.363  28.535   1.433
35902W        W 8217  33.232  41.977   0.478
35903W        W 8218   6.854   3.878   2.355
35904W        W 8219  39.573  38.871   1.801
35905W        W 8220  32.362  44.819   3.556
35906W        W 8221  34.659  38.530  14.821
35907W        W 8222  40.039  16.196   0.632
35908W        W 8223  41.056  20.145   0.765
35909W        W 8224  44.411   8.789   4.225
35910W        W 8225   3.756  36.835   3.218
35911W        W 8226  24.573  15.679  11.225
35912W        W 8227  30.511  40.605   3.089
35913W        W 8228   8.902   6.846   4.626
35914W        W 8229  23.525  36.517   1.947
35915W        W 8230   5.595  38.037   3.743
35916W        W 8231   1.611  42.222  10.834
35917W        W 8232  21.656  28.064  14.756
35918W        W 8233   8.157  18.606  11.476
35919W        W 8234   6.226  21.581  14.715
35920W        W 8235   2.386   7.007  12.354
35921W        W 8236  27.993  37.939   4.284
35922W        W 8237  29.723  28.585   4.161
35923W        W 8238  38.838  14.712   2.899
35924W        W 8239  38.762  21.270  12.963
35925W        W 8240  28.615  18.947  10.718
35926W        W 8241  36.276  12.798  10.707
35927W        W 8242  14.921  40.029   4.060
35928W        W 8243  43.247   5.703   4.106
35929W        W 8244   6.272  13.310   3.277
35930W        W 8245  13.327   4.234  12.519
35931W        W 8246  26.086  25.605  11.199
35932W        W 8247  40.389   3.289   9.878
35933W        W 8248  28.122  12.573  10.608
35934W        W 8249  36.850   7.145  13.764
35935W        W 8250  21.550   1.219   1.369
35936W        W 8251  17.256  32.990  14.878
35937W        W 8252  32.384   8.718   1.857
35938W        W 8253  31.515  16.984   1.372
35939W        W 8254  35.333   4.412  14.987
35940W        W 8255   2.272  14.074  12.370
35941W        W 8256  12.324  13.879  14.904
35942W        W 8257  36.311  29.495  12.568
35943W        W 8258  37.984  33.032  11.542
35944W        W 8259  35.996   4.394  10.615
35945W        W 8260  42.587  32.183   2.016
35946W        W 8261   9.271  26.206  13.872
35947W        W 8262  31.589  19.977  14.082
35948W        W 8263   3.160  44.375   0.835
35949W        W 8264   4.256  14.077   5.117
35950W        W 8265  25.009  16.873  11.570
35951W        W 8266  10.387   9.141  14.254
35952W        W 8267  40.024  19.754  12.529
35953W        W 8268  28.972   5.441  11.468
35954W        W 8269  23.107  17.354  13.350
35955W        W 8270  27.602  26.179   2.637
35956W        W 8271  17.815   0.995  14.565
35957W        W 8272  30.383  34.002   4.523
35958W        W 8273   2.959  15.912   4.026
35959W        W 8274  36.605   1.431  13.813
35960W        W 8275  22.482  43.890  14.267
35961W        W 8276  20.243   7.991  14.501
35962W        W 8277   6.993  20.042  14.879
35963W        W 8278  19.781  39.418   1.233
35964W        W 8279  30.818  43.434   0.282
35965W        W 8280   2.010  44.259   3.224
35966W        W 8281  38.754  38.406   2.648
35967W        W 8282  25.781  44.977   0.833
35968W        W 8283  30.001   7.327   4.204
35969W        W 8284  44.056  22.243   0.047
35970W        W 8285   2.950  44.614   0.395
35971W        W 8286  10.718   8.945  11.923
35972W        W 8287  31.541  12.862   0.311
35973W        W 8288  21.756  40.026  14.764
35974W        W 8289   9.877  26.988   3.434
35975W        W 8290  17.743  40.841   0.834
35976W        W 8291  21.276  30.045   1.805
35977W        W 8292  43.537  25.088  12.526
35978W        W 8293  39.367   3.022   3.295
35979W        W 8294  30.466  14.231  10.293
35980W        W 8295  30.734  26.170  10.729
35981W        W 8296  40.545  41.980  11.124
35982W        W 8297  17.778  29.566  12.724
35983W        W 8298  13.262   3.214  13.858
35984W        W 8299  18.172  24.993  10.540
35985W        W 8300   6.607  13.301  13.392
35986W        W 8301  37.949  44.243   3.708
35987W        W 8302  21.568   0.853   9.571
35988W        W 8303   0.045  24.133   0.246
35989W        W 8304  32.547  11.428   1.453
35990W        W 8305  33.470   3.053  11.498
35991W        W 8306  22.445   5.900  12.183
35992W        W 8307  26.130  13.196  10.439
35993W        W 8308   0.889  10.832   4.954
35994W        W 8309   1.671  30.965   3.792
35995W        W 8310  27.028  28.641  14.177
35996W        W 8311  13.628   9.820  10.594
35997W        W 8312  34.601  42.929   2.022
35998W        W 8313  39.910  11.981  10.831
35999W        W 8314   5.867  36.416   1.374
36000W        W 8315  27.344  25.547  12.168
36001W        W 8316  18.723  29.682   4.698
36002W        W 8317  26.729  34.226   0.347
36003W        W 8318  19.147   2.016  14.906
36004W        W 8319  14.165   8.601  11.540
36005W        W 8320  22.118  32.013  12.488
36006W        W 8321   5.498   8.328  14.967
36007W        W 8322  40.285  22.790   0.472
36008W        W 8323   7.277  14.480  11.644
36009W        W 8324  36.983  24.257   2.714
36010W        W 8325  22.123  10.428  13.383
36011W        W 8326  23.353  35.417  11.973
36012W        W 8327  43.447  36.983  12.477
36013W        W 8328   1.313  37.378  13.951
36014W        W 8329  22.561   1.377  11.870
36015W        W 8330  17.590  15.163   3.745
36016W        W 8331  20.202  20.801  12.827
36017W        W 8332  19.380   8.523   5.508
36018W        W 8333  32.840  38.752  14.185
36019W        W 8334  33.721  27.431  11.833
36020W        W 8335   6.634  36.459  12.492
36021W        W 8336  30.652  24.769   1.465
36022W        W 8337  21.327  44.488  11.981
36023W        W 8338  44.715  26.994   2.606
36024W        W 8339  34.766  25.216   1.848
36025W        W 8340  14.077   1.440   1.180
36026W        W 8341  10.597  17.968  10.622
36027W        W 8342   4.990  22.628  13.883
36028W        W 8343  24.881  38.559  11.456
36029W        W 8344  19.757  40.130  14.925
36030W        W 8345  21.066   2.287  13.648
36031W        W 8346   0.657  20.373   2.594
36032W        W 8347  23.249  30.149   0.915
36033W        W 8348  25.490  11.164  12.624
36034W        W 8349  13.551   0.173  14.028
36035W        W 8350  33.531  42.501  10.645
36036W        W 8351  37.166  22.902   1.058
36037W        W 8352   2.481  14.121   4.551
36038W        W 8353  13.891  29.192   4.296
36039W        W 8354  18.240  22.492   1.237
36040W        W 8355  18.171  40.898  11.543
36041W        W 8356  38.387   1.552   1.523
36042W        W 8357   2.085  38.496  13.542
36043W        W 8358  14.787  41.842  11.948
36044W        W 8359  21.822  31.490   2.710
36045W        W 8360  20.975  20.030   1.890
36046W        W 8361  31.398   0.888   3.962
36047W        W 8362  41.971  12.719   0.761
36048W        W 8363  34.692  22.287  11.330
36049W        W 8364  25.125  11.180  10.635
36050W        W 8365   6.883   2.729  13.423
36051W        W 8366  11.351  17.198  11.293
36052W        W 8367  11.669   1.652  14.721
36053W        W 8368  25.188  32.174  14.357
36054W        W 8369  10.883  23.491  13.985
36055W        W 8370  30.889  20.173   2.272
36056W        W 8371  17.266  35.496  11.428
36057W        W 8372  22.000   5.295  11.883
36058W        W 8373  40.402   3.863  13.411
36059W        W 8374  29.215  13.295  12.060
36060W        W 8375  21.643  41.560   3.331
36061W        W 8376   8.513  30.366   0.553
36062W        W 8377  14.098  30.436  10.716
36063W        W 8378   9.384  41.725  13.857
36064W        W 8379  39.869   0.349   0.934
36065W        W 8380  21.429  39.708   5.096
36066W        W 8381  26.136  17.146   2.388
36067W        W 8382  12.079  25.939   4.349
36068W        W 8383  39.322   3.353  11.851
36069W        W 8384  28.011  42.836   2.612
36070W        W 8385  10.087  25.459  11.969
36071W        W 8386  35.426   7.209   4.278
36072W        W 8387   3.132   5.006   4.053
36073W        W 8388  14.946   3.722   4.164
36074W        W 8389  13.821  29.049  13.224
36075W        W 8390  23.219  38.821  11.713
36076W        W 8391  42.474  42.363   2.217
36077W        W 8392  39.268   0.760   4.609
36078W        W 8393  24.496  42.773  13.011
36079W        W 8394  16.523  21.252  14.183
36080W        W 8395  10.522  31.420  13.969
36081W        W 8396   9.157   6.554  12.413
36082W        W 8397  21.658  41.557  12.972
36083W        W 8398  44.147  35.012  14.850
36084W        W 8399  42.632   4.725   5.013
36085W        W 8400  14.301   3.573   1.779
36086W        W 8401   1.782   8.919   1.716
36087W        W 8402  30.968  23.706   4.549
36088W        W 8403  28.586  43.707  10.607
36089W        W 8404  33.529  12.624  14.424
36090W        W 8405  23.382   2.462  10.773
36091W        W 8406   3.064  14.516  12.873
36092W        W 8407  32.471   6.945  12.513
36093W        W 8408  44.859  28.740  13.007
36094W        W 8409  34.510  39.490   0.475
36095W        W 8410  22.720   9.918  12.058
36096W        W 8411  10.367   0.759  12.468
36097W        W 8412  32.577  14.291  13.829
36098W        W 8413  34.339   4.918   2.245
36099W        W 8414  42.018  19.088   1.424
36100W        W 8415  13.062   0.532   0.402
36101W        W 8416  30.427  33.492   4.287
36102W        W 8417   6.979  40.003   1.740
36103W        W 8418  27.596  25.936   0.886
36104W        W 8419  11.683  42.016  11.333
36105W        W 8420  10.098   6.753   2.824
36106W        W 8421  32.186  36.558  11.535
36107W        W 8422  13.081   8.376  12.391
36108W        W 8423  20.309  38.509   5.052
36109W        W 8424   5.137  36.049  14.007
36110W        W 8425  17.646   7.716   4.821
36111W        W 8426  20.616  30.167  13.479
36112W        W 8427  37.698  25.956  13.621
36113W        W 8428  32.161   9.418  14.391
36114W        W 8429  14.576   0.746  11.066
36115W        W 8430  39.458  28.523  13.029
36116W        W 8431  37.650  25.880   5.190
36117W        W 8432  10.605  19.567  10.249
36118W        W 8433   5.435   0.782  12.943
36119W        W 8434   8.665  11.255  14.858
36120W        W 8435  27.951  14.009   0.395
36121W        W 8436  43.409  24.561  14.740
36122W        W 8437  25.258  25.014   2.356
36123W        W 8438  15.787  44.521   2.288
36124W        W 8439   4.424  17.562  12.599
36125W        W 8440  15.870  41.373  11.694
36126W        W 8441  23.021  32.054  11.143
36127W        W 8442  24.292  16.316   1.709
36128W        W 8443   1.545  25.625   2.797
36129W        W 8444   3.924  41.732   4.647
36130W        W 8445  40.332  28.109   4.645
36131W        W 8446  21.387   1.473  14.296
36132W        W 8447  20.701  27.155  13.310
36133W        W 8448  19.833  42.833   0.854
36134W        W 8449   6.693  27.159   0.326
36135W        W 8450  40.044  31.107   3.768
36136W        W 8451  16.250  28.196  11.571
36137W        W 8452  17.035  17.620  13.562
36138W        W 8453   3.027  31.983   0.298
36139W        W 8454  41.484  44.792   2.242
36140W        W 8455  42.405  11.878  12.332
36141W        W 8456  28.053  10.760   5.263
36142W        W 8457  20.118   0.765  10.625
36143W        W 8458   0.961  33.899   0.864
36144W        W 8459  25.539  29.007   0.111
36145W        W 8460  30.926  23.607   4.061
36146W        W 8461   4.216  32.029  11.126
36147W        W 8462  10.799   0.023   3.353
36148W        W 8463   2.654  15.040  12.123
36149W        W 8464  39.894  15.166   0.834
36150W        W 8465  20.543  24.884   0.051
36151W        W 8466  33.467  27.051  11.154
36152W        W 8467  13.712   7.154   0.008
36153W        W 8468  33.442  35.941  10.790
36154W        W 8469  17.668  43.239  13.953
36155W        W 8470  17.506  39.504   1.989
36156W        W 8471   0.701  10.140  11.287
36157W        W 8472  30.484  29.731   4.630
36158W        W 8473  20.496  11.214  11.805
36159W        W 8474  13.787  42.412  12.569
36160W        W 8475  24.157   0.854  10.709
36161W        W 8476  18.164  21.579   2.160
36162W        W 8477  42.210  23.501   2.870
36163W        W 8478   5.876  40.353   0.886
36164W        W 8479  20.216  36.945  12.894
36165W        W 8480  39.274  44.294   3.909
36166W        W 8481   5.392  30.517   0.465
36167W        W 8482  32.912  31.411  11.479
36168W        W 8483  29.443  42.424   2.862
36169W        W 8484  33.061  44.684  13.906
36170W        W 8485  36.859  38.465   3.120
36171W        W 8486   0.828  11.243  14.506
36172W        W 8487  26.333  33.493   5.445
36173W        W 8488  44.229  15.843  12.928
36174W        W 8489  32.546  35.092   0.732
36175W        W 8490   4.341  35.453   1.851
36176W        W 8491  24.172  35.601  12.481
36177W        W 8492  39.425  37.070   3.756
36178W        W 8493   0.424  20.668  14.270
36179W        W 8494  23.628  28.578   2.977
36180W        W 8495  41.580  25.390  11.978
36181W        W 8496  29.499   4.488  10.732
36182W        W 8497  45.000  39.892   3.362
36183W        W 8498   8.449  36.821  12.959
36184W        W 8499   7.386  20.780   4.140
36185W        W 8500  40.516  31.041  14.853
36186W        W 8501  11.239  44.925   4.687
36187W        W 8502  41.459   2.946   3.588
36188W        W 8503  39.853  39.399  14.372
36189W        W 8504  24.917  32.140  10.734
36190W        W 8505  38.403   9.641   4.493
36191W        W 8506   7.356   0.427   1.224
36192W        W 8507   4.011   8.896   3.331
36193W        W 8508  11.395   4.659   3.816
36194W        W 8509  20.593   4.023  14.318
36195W        W 8510  14.806  13.913   3.661
36196W        W 8511  38.881  16.162   3.108
36197W        W 8512  25.000  21.222   0.893
36198W        W 8513   2.357   6.447   2.640
36199W        W 8514  12.114  43.346  14.192
36200W        W 8515  24.970  27.263   0.154
36201W        W 8516   8.186   4.823   3.552
36202W        W 8517  13.592  19.258   1.299
36203W        W 8518  18.613  44.477   4.891
36204W        W 8519  18.232   9.464  13.875
36205W        W 8520  25.111  37.781  10.503
36206W        W 8521  39.657  37.987  12.354
36207W        W 8522  28.908  21.386   4.093
36208W        W 8523   3.128   5.962   3.200
36209W        W 8524  11.670  44.055  13.561
36210W        W 8525   6.490  36.898  10.641
36211W        W 8526   5.680  25.238   1.231
36212W        W 8527  21.109  24.169   1.225
36213W        W 8528   1.296  42.977   2.867
36214W        W 8529  25.700  20.979   1.779
36215W        W 8530  35.990  30.626   3.261
36216W        W 8531   3.657  32.996   0.312
36217W        W 8532  29.214  36.481   3.280
36218W        W 8533  42.327  43.718   2.092
36219W        W 8534  28.736  16.676  11.174
36220W        W 8535   2.595  35.164   2.341
36221W        W 8536  21.715  14.272   1.035
36222W        W 8537  22.598  31.949   3.510
36223W        W 8538  14.109   6.295  11.106
36224W        W 8539  30.605  27.702   3.744
36225W        W 8540   3.440   3.389  11.324
36226W        W 8541  13.400   9.396  10.754
36227W        W 8542  14.063   5.445   4.756
36228W        W 8543  17.115  36.590  13.959
36229W        W 8544   2.749  21.159  13.618
36230W        W 8545   3.967   3.533  13.922
36231W        W 8546   0.450  34.621   0.328
36232W        W 8547  19.321  13.744  11.523
36233W        W 8548  16.157   6.759   4.252
36234W        W 8549   6.791  10.668  12.383
36235W        W 8550  35.631  32.946   3.372
36236W        W 8551  41.328   8.423   4.276
36237W        W 8552  42.124  37.563   4.724
36238W        W 8553  17.223  20.142   0.765
36239W        W 8554  16.938  28.117   2.834
36240W        W 8555  13.137  41.893  13.859
36241W        W 8556  29.062  24.872   0.927
36242W        W 8557  27.525  44.990   4.555
36243W        W 8558  20.130  11.952  13.790
36244W        W 8559  14.919  41.341  11.937
36245W        W 8560  30.643   1.881   1.770
36246W        W 8561  32.039   4.798   0.976
36247W        W 8562  29.138  34.884   4.297
36248W        W 8563   7.751   7.621  14.113
36249W        W 8564  27.657  12.448   0.986
36250W        W 8565  17.046  40.622  11.992
36251W        W 8566  36.448   0.093   4.528
36252W        W 8567  25.155  12.830   2.763
36253W        W 8568  19.751  12.208  13.542
36254W        W 8569  11.574  18.077   3.294
36255W        W 8570  10.694  38.989   3.616
36256W        W 8571   5.314  12.186   3.829
36257W        W 8572  43.569  35.990   4.683
36258W        W 8573   3.984  25.612  10.980
36259W        W 8574   6.516  14.337   1.783
36260W        W 8575  29.559  17.747  12.282
36261W        W 8576  17.287  16.237  14.774
36262W        W 8577  18.070  14.145  12.010
36263W        W 8578   4.416  43.318  11.426
36264W        W 8579  35.760  37.962   0.518
36265W        W 8580  31.579  33.247   1.925
36266W        W 8581  11.143  23.091  11.361
36267W        W 8582  39.883   4.303  12.015
36268W        W 8583  13.625  19.329  11.899
36269W        W 8584  26.022  21.073   0.187
36270W        W 8585  33.561  43.923  12.026
36271W        W 8586   0.985  14.243   1.822
36272W        W 8587  26.030  41.774  14.386
36273W        W 8588  43.243  35.991  10.742
36274W        W 8589  26.796  31.028   1.757
36275W        W 8590  17.185  38.891  12.582
36276W        W 8591   7.494   9.184   1.231
36277W        W 8592  23.025  16.517  11.148
36278W        W 8593  27.073  43.447  11.945
36279W        W 8594  39.170  26.218   5.023
36280W        W 8595  37.161  26.451  11.505
36281W        W 8596  24.297  32.767  11.149
36282W        W 8597  11.181  19.695   1.329
36283W        W 8598   7.989  19.072  12.980
36284W        W 8599   4.065  27.940  14.664
36285W        W 8600  18.029  15.705   4.749
36286W        W 8601  44.243   9.712   4.524
36287W        W 8602  36.905   6.419  14.483
36288W        W 8603  28.526   3.339   4.500
36289W        W 8604  38.156   2.238   3.373
36290W        W 8605  13.171  41.348   3.632
36291W        W 8606   7.847  42.820  10.344
36292W        W 8607  34.084  39.915  10.069
36293W        W 8608  13.593  16.184   3.774
36294W        W 8609  40.844  36.710   4.011
36295W        W 8610  36.054   0.213  13.033
36296W        W 8611  13.264  25.995  11.348
36297W        W 8612  18.656   2.527   3.210
36298W        W 8613  22.354  44.349   3.735
36299W        W 8614  16.618  15.851   4.649
36300W        W 8615   0.977   4.233   3.661
36301W        W 8616   1.245  11.043   5.394
36302W        W 8617  24.513  18.462   3.397
36303W        W 8618   0.946  17.644  13.988
36304W        W 8619  41.562  34.526  12.555
36305W        W 8620  32.456  33.785   4.530
36306W        W 8621  17.045  37.183  12.059
36307W        W 8622  38.912  42.836   4.205
36308W        W 8623   5.908   9.362  12.963
36309W        W 8624   2.929  15.733  13.385
36310W        W 8625  29.405  22.042  14.129
36311W        W 8626   9.260  35.798   3.388
36312W        W 8627   6.728  10.156  12.109
36313W        W 8628  15.635   2.993   3.237
36314W        W 8629  35.911  27.099   1.833
36315W        W 8630  17.100  40.865  12.454
36316W        W 8631  18.595  13.108   0.224
36317W        W 8632   3.652  41.550   5.036
36318W        W 8633   8.880  18.261   1.203
36319W        W 8634   4.705  36.809  12.086
36320W        W 8635  38.950  16.256   4.103
36321W        W 8636  16.771   0.676   0.376
36322W        W 8637  24.745  33.375   2.867
36323W        W 8638  11.126  31.125   3.285
36324W        W 8639  10.952  18.777  13.380
36325W        W 8640  42.835  11.342   0.285
36326W        W 8641  30.577  37.555  11.035
36327W        W 8642  41.837  11.831   4.053
36328W        W 8643  44.539   0.851   0.313
36329W        W 8644  28.672  29.708   2.275
36330W        W 8645   1.265  34.507   1.727
36331W        W 8646  15.164   7.288  14.941
36332W        W 8647  17.831  31.542   2.716
36333W        W 8648  43.258  12.103   1.066
36334W        W 8649  38.930  33.470  12.465
36335W        W 8650  44.843   4.316   2.715
36336W        W 8651  31.580   4.375   3.694
36337W        W 8652  32.003  18.549  12.407
36338W        W 8653   7.153  33.516   3.864
36339W        W 8654  23.585  37.864   0.815
36340W        W 8655  37.042  21.061  13.359
36341W        W 8656  34.577  11.274   0.905
36342W        W 8657  18.668   0.038   0.768
36343W        W 8658  26.618  38.778  13.504
36344W        W 8659  16.818  37.900   2.787
36345W        W 8660  41.346  34.631   4.495
36346W        W 8661  42.527  21.052   0.504
36347W        W 8662  19.215  14.208  13.555
36348W        W 8663  30.220  37.468  10.684
36349W        W 8664  22.520  20.819   3.403
36350W        W 8665  34.859  32.602   3.259
36351W        W 8666  25.622  29.660   3.034
36352W        W 8667  41.746  31.633  14.575
36353W        W 8668  36.030  26.451   4.640
36354W        W 8669  27.304  34.505   1.669
36355W        W 8670  44.306  23.958  10.909
36356W        W 8671  38.881  39.633  12.082
36357W        W 8672  17.045  34.442   2.213
36358W        W 8673  23.462  29.608   2.214
36359W        W 8674  41.011  24.666   0.878
36360W        W 8675   6.374  31.917  14.268
36361W        W 8676   1.163  43.884   3.249
36362W        W 8677  18.128  21.558  13.002
36363W        W 8678  19.101  17.302   0.373
36364W        W 8679  39.816  28.394  10.716
36365W        W 8680  44.801  33.605   4.137
36366W        W 8681  10.763  27.892  10.580
36367W        W 8682   4.957   8.651  14.160
36368W        W 8683   6.597  20.359   3.631
36369W        W 8684  22.576  19.226   3.341
36370W        W 8685  16.947  20.307   2.432
36371W        W 8686  25.248  43.086   9.908
36372W        W 8687  25.646  10.367   0.316
36373W        W 8688  21.173  21.315  14.243
36374W        W 8689  36.883  14.851   1.413
36375W        W 8690  16.582  28.050   9.816
36376W        W 8691  34.339  42.590  12.419
36377W        W 8692   6.148  23.916  11.028
36378W        W 8693  26.649  10.752  10.559
36379W        W 8694  12.237  29.979   4.257
36380W        W 8695  42.235  38.366  13.287
36381W        W 8696  10.218  40.033   4.208
36382W        W 8697  24.135  19.081  14.237
36383W        W 8698   5.756  37.352   0.401
36384W        W 8699  22.531  39.198   1.190
36385W        W 8700  32.123  18.090  14.493
36386W        W 8701  16.039  42.595  12.861
36387W        W 8702  37.630  21.551  12.475
36388W        W 8703  36.047  11.080   0.376
36389W        W 8704  35.578   8.863  10.942
36390W        W 8705  42.294   9.663   2.927
36391W        W 8706   5.250   3.923   4.867
36392W        W 8707  36.305  27.122  10.798
36393W        W 8708  30.309  42.861  12.386
36394W        W 8709  15.802  28.423  11.578
36395W        W 8710  22.051  28.522  13.742
36396W        W 8711  38.893  15.381   2.318
36397W        W 8712   7.566   7.484   4.526
36398W        W 8713  34.499  24.620   3.171
36399W        W 8714  42.992  21.668  12.116
36400W        W 8715   5.453   7.804  12.926
36401W        W 8716  20.955  31.562  10.604
36402W        W 8717  18.792   7.880  11.038
36403W        W 8718  23.735  17.461   0.928
36404W        W 8719  28.826  18.805   1.657
36405W        W 8720  17.788  10.629  10.592
36406W        W 8721  14.228   4.875  11.564
36407W        W 8722  18.229   0.343  12.236
36408W        W 8723  43.544  30.672   3.244
36409W        W 8724  40.934  30.478  14.311
36410W        W 8725  28.353  23.193   2.750
36411W        W 8726  14.981   9.855   0.837
36412W        W 8727   3.990   4.376   3.143
36413W        W 8728  30.106  10.727  13.626
36414W        W 8729  28.376  41.091  11.380
36415W        W 8730  28.136  28.912  10.652
36416W        W 8731   2.720   4.217   3.769
36417W        W 8732  26.487  22.576  10.591
36418W        W 8733   5.147  34.860  11.819
36419W        W 8734  14.310  33.248   1.482
36420W        W 8735  37.660  31.176  14.828
36421W        W 8736  38.906  29.392   3.170
36422W        W 8737  37.413  17.888   3.230
36423W        W 8738  36.130   4.743  11.784
36424W        W 8739  20.101  22.490  13.434
36425W        W 8740   4.703  34.923   2.230
36426W        W 8741   9.901  25.272  11.040
36427W        W 8742  35.953   7.259   3.531
36428W        W 8743  41.823  41.896  12.090
36429W        W 8744  26.423  32.957  12.515
36430W        W 8745   4.437  13.385   0.364
36431W        W 8746   5.733  14.091  11.464
36432W        W 8747  43.217  25.463   0.793
36433W        W 8748  15.217  17.673   4.599
36434W        W 8749  26.202   7.756  10.591
36435W        W 8750  13.245  15.874   1.323
36436W        W 8751   8.380   8.702   4.565
36437W        W 8752  18.164  43.205   0.370
36438W        W 8753   5.976   0.450   1.881
36439W        W 8754  32.404  29.443  11.561
36440W        W 8755  15.521  42.304   1.783
36441W        W 8756  18.624   1.784  11.395
36442W        W 8757  35.732  18.089  12.584
36443W        W 8758  30.901  10.693   3.115
36444W        W 8759  20.049   1.299   3.621
36445W        W 8760   4.000  13.620  12.922
36446W        W 8761  13.075  12.855   2.324
36447W        W 8762  40.090   3.904  14.945
36448W        W 8763   6.860  13.573   4.221
36449W        W 8764  39.515  44.764  13.067
36450W        W 8765  27.487   0.385  13.071
36451W        W 8766  41.224  31.836   3.271
36452W        W 8767  17.131   7.809  11.687
36453W        W 8768  39.834   6.761   2.402
36454W        W 8769  27.282  18.160  13.432
36455W        W 8770   3.028  36.125   2.251
36456W        W 8771  10.425  41.767   4.470
36457W        W 8772   1.841  36.602   1.716
36458W        W 8773  44.878  28.715  13.903
36459W        W 8774   1.619  27.717  11.768
36460W        W 8775  23.443  41.436  14.917
36461W        W 8776   6.837   4.388   2.305
36462W        W 8777   3.624  15.785  12.536
36463W        W 8778  36.940   1.845  12.931
36464W        W 8779  20.688  30.382   2.246
36465W        W 8780  34.925  41.976  14.201
36466W        W 8781  30.952   0.378  14.997
36467W        W 8782  13.681   7.882   0.165
36468W        W 8783  16.629  25.463   2.724
36469W        W 8784   2.817  31.248  12.909
36470W        W 8785  28.263  30.670   2.247
36471W        W 8786   4.935  40.461  12.852
36472W        W 8787   9.157  27.977   2.868
36473W        W 8788  44.877  10.581  12.769
36474W        W 8789   7.164   6.424   2.775
36475W        W 8790   7.223  28.906   1.828
36476W        W 8791  12.280  22.183   3.625
36477W        W 8792  23.884  19.438   5.582
36478W        W 8793  21.664  43.758  14.779
36479W        W 8794  15.431  15.193  13.977
36480W        W 8795  21.301  23.764   4.675
36481W        W 8796   3.175  13.675   2.608
36482W        W 8797  23.365  12.152  11.449
36483W        W 8798   6.644  15.318  10.621
36484W        W 8799  44.026  44.389  10.596
36485W        W 8800  21.133  24.241   4.527
36486W        W 8801   0.684  24.198  11.085
36487W        W 8802  17.607  41.223   4.154
36488W        W 8803  22.114   1.791  13.252
36489W        W 8804   0.840   9.204  10.237
36490W        W 8805  21.066  17.506   3.214
36491W        W 8806  15.948  17.327   4.101
36492W        W 8807   0.911  14.848   2.379
36493W        W 8808   7.239   1.253  12.151
36494W        W 8809  10.346  29.347   2.166
36495W        W 8810  18.255  31.697  10.711
36496W        W 8811  32.071  19.104   1.620
36497W        W 8812  37.810  26.992   4.102
36498W        W 8813  42.987   2.665  12.211
36499W        W 8814   3.747  33.657   1.703
36500W        W 8815   5.043  26.316  10.819
36501W        W 8816  15.322   1.683  10.760
36502W        W 8817  27.606   9.929   4.582
36503W        W 8818  44.449   3.768  12.893
36504W        W 8819  11.426  25.764  12.988
36505W        W 8820  15.095   2.402  13.354
36506W        W 8821  11.188  23.023   1.167
36507W        W 8822  16.540  12.169   4.309
36508W        W 8823   1.543  16.650   4.030
36509W        W 8824   0.314  39.870  11.621
36510W        W 8825  26.204  33.889   2.155
36511W        W 8826  24.197  19.543   2.427
36512W        W 8827  44.318  30.465   4.544
36513W        W 8828  17.740   7.781  14.792
36514W        W 8829   9.669   6.318  10.693
36515W        W 8830  28.368   1.722  14.435
36516W        W 8831   3.316  16.438   0.955
36517W        W 8832  44.156   9.628   2.762
36518W        W 8833  25.970   8.297   1.024
36519W        W 8834   3.412  15.759   0.383
36520W        W 8835  26.986  19.818  12.963
36521W        W 8836  35.063  36.143  14.256
36522W        W 8837  14.143  28.684  13.538
36523W        W 8838  24.959  44.264   2.406
36524W        W 8839  19.900  30.510   4.095
36525W        W 8840  44.886   9.677  10.561
36526W        W 8841  21.700  37.244   0.490
36527W        W 8842  35.086  32.050  14.075
36528W        W 8843  22.063  15.793  14.286
36529W        W 8844  35.667  39.530   2.595
36530W        W 8845  15.343   8.319  14.455
36531W        W 8846  11.145   8.389   1.746
36532W        W 8847   2.487  24.894   3.275
36533W        W 8848  44.574   1.768   2.164
36534W        W 8849  18.521  10.182   3.786
36535W        W 8850  33.988  38.369  13.060
36536W        W 8851  42.861   8.630   1.431
36537W        W 8852  42.019  17.124   2.251
36538W        W 8853  21.689  23.175  12.061
36539W        W 8854  19.160  23.264  14.571
36540W        W 8855  36.265   4.436  14.962
36541W        W 8856  16.173  13.851  14.772
36542W        W 8857  34.803  28.124  14.813
36543W        W 8858  43.389  15.735  10.352
36544W        W 8859  37.641  43.695   0.833
36545W        W 8860  19.122  33.901  13.906
36546W        W 8861  17.541  41.828  10.736
36547W        W 8862  17.253  28.996  14.811
36548W        W 8863  35.331  19.063   2.779
36549W        W 8864  26.943  11.384   3.687
36550W        W 8865  29.252  31.902  14.936
36551W        W 8866   8.815  25.069  12.530
36552W        W 8867  37.673  39.533   2.671
36553W        W 8868  28.821  41.565  13.097
36554W        W 8869   2.954   8.850   2.253
36555W        W 8870  29.441  17.736   2.622
36556W        W 8871  20.651  23.990   1.887
36557W        W 8872   3.397   8.874  14.428
36558W        W 8873  23.122  21.753   0.685
36559W        W 8874   0.289  38.950   2.668
36560W        W 8875  15.880   7.009  12.208
36561W        W 8876  24.230  23.955   2.390
36562W        W 8877  22.203  43.074   4.095
36563W        W 8878  10.764  37.125   3.761
36564W        W 8879  37.269  27.114  13.453
36565W        W 8880  41.296   5.836   0.380
36566W        W 8881   1.911   0.596  11.963
36567W        W 8882  11.386   8.199   3.209
36568W        W 8883  10.122   0.431   1.899
36569W        W 8884   4.136  38.088  11.100
36570W        W 8885  14.689  18.020  14.773
36571W        W 8886  21.839  42.614   4.991
36572W        W 8887   6.264  24.671   4.116
36573W        W 8888  26.983  20.116  13.441
36574W        W 8889  25.193   5.255  11.125
36575W        W 8890  40.855  30.916  13.371
36576W        W 8891  19.538  33.336   0.436
36577W        W 8892  40.314  10.148  14.406
36578W        W 8893   6.829  38.886  12.147
36579W        W 8894   2.025  27.170   4.607
36580W        W 8895   6.883  23.099   0.031
36581W        W 8896  44.082  32.258  12.007
36582W        W 8897  21.219  42.511   1.329
36583W        W 8898   3.473  42.420  12.448
36584W        W 8899   6.896  16.076   4.092
36585W        W 8900   7.446   2.403   3.737
36586W        W 8901  15.332  39.249  14.316
36587W        W 8902   2.791  32.878   4.482
36588W        W 8903   4.721  31.776  11.092
36589W        W 8904  33.967   7.688  12.415
36590W        W 8905  33.091  36.885   1.619
36591W        W 8906  22.598  39.338  13.260
36592W        W 8907  12.395   9.349  11.661
36593W        W 8908  21.200  20.213  13.667
36594W        W 8909  44.930  39.474   0.739
36595W        W 8910  44.738  43.603  14.000
36596W        W 8911  43.425  37.403  12.788
36597W        W 8912  15.100  32.074  14.828
36598W        W 8913  24.499  34.036  13.842
36599W        W 8914  16.009  30.493  14.455
36600W        W 8915  30.653  27.487  11.919
36601W        W 8916  39.394  40.727  13.191
36602W        W 8917  24.112  18.670   1.520
36603W        W 8918  12.330  23.329   2.175
36604W        W 8919  42.058  13.631   2.247
36605W        W 8920   5.962  12.695  12.935
36606W        W 8921   9.244  44.826  12.511
36607W        W 8922   6.795   2.048  11.507
36608W        W 8923  36.062  44.375  10.700
36609W        W 8924   0.225  23.637  13.552
36610W        W 8925  26.807  21.123   0.398
36611W        W 8926   9.759  35.539  11.690
36612W        W 8927  21.190  22.789  11.023
36613W        W 8928  36.446  20.761  12.109
36614W        W 8929  13.618  34.922  11.357
36615W        W 8930   0.464  41.945  10.641
36616W        W 8931   8.428  21.691  14.562
36617W        W 8932  34.702   7.461  11.757
36618W        W 8933   1.937   0.587   1.954
36619W        W 8934  27.875  12.771  14.192
36620W        W 8935  42.025  26.068   0.388
36621W        W 8936  16.255   0.441   3.523
36622W        W 8937  30.926  15.321   4.553
36623W        W 8938  30.153  26.950  12.410
36624W        W 8939  41.811  18.968  10.933
36625W        W 8940  18.684  24.227   2.726
36626W        W 8941  30.206  33.524  14.987
36627W        W 8942  32.341  18.393   3.186
36628W        W 8943  21.620  21.188   4.892
36629W        W 8944   7.971  19.078  14.157
36630W        W 8945  36.490  13.681   2.255
36631W        W 8946  20.723   3.785   0.189
36632W        W 8947  24.549  39.010  12.043
36633W        W 8948  16.099  17.600   4.541
36634W        W 8949   7.142  43.918  11.422
36635W        W 8950  26.248   8.750   0.995
36636W        W 8951  35.396  24.073   4.752
36637W        W 8952  14.664  11.094   4.087
36638W        W 8953  38.355  19.773  10.799
36639W        W 8954  27.756  27.388   4.975
36640W        W 8955   1.281  33.261   0.742
36641W        W 8956  34.984  33.986  12.910
36642W        W 8957   9.331  23.186   4.572
36643W        W 8958   5.074   4.419   0.474
36644W        W 8959  43.083  26.896  12.681
36645W        W 8960   4.885  43.866   2.134
36646W        W 8961  17.783  19.234  12.185
36647W        W 8962  41.838  16.159   2.236
36648W        W 8963  23.984  25.034  11.186
36649W        W 8964   0.520  13.595   1.165
36650W        W 8965  37.220   3.977   0.749
36651W        W 8966  23.496  20.569   0.867
36652W        W 8967  40.133   1.510  10.244
36653W        W 8968  13.705   2.957   0.902
36654W        W 8969  35.917  12.127  12.914
36655W        W 8970  11.305   4.405   4.295
36656W        W 8971  28.495  25.945  12.423
36657W        W 8972   1.488  29.984  13.126
36658W        W 8973  25.496  33.904  10.309
36659W        W 8974   3.692  41.391   2.249
36660W        W 8975  35.394   6.811  13.947
36661W        W 8976  27.661  34.158   3.252
36662W        W 8977  26.959  27.893   3.673
36663W        W 8978   5.963  39.414   0.783
36664W        W 8979  21.258  29.894   2.423
36665W        W 8980  14.535  44.987  12.167
36666W        W 8981   1.747   9.769  13.434
36667W        W 8982  29.585  39.613  10.768
36668W        W 8983  35.836  13.712  14.803
36669W        W 8984  22.924  14.688  12.109
36670W        W 8985  43.415   3.185  13.587
36671W        W 8986  17.156  19.570  14.852
36672W        W 8987   6.417  37.924   0.114
36673W        W 8988  12.998  27.005   1.831
36674W        W 8989  30.803  26.993  14.390
36675W        W 8990  33.569  40.012   0.909
36676W        W 8991  16.236  30.182  14.111
36677W        W 8992  16.641  30.958  14.794
36678W        W 8993  33.852   9.895   2.847
36679W        W 8994   9.842   7.517   3.600
36680W        W 8995  43.558   3.529   4.193
36681W        W 8996  23.295  15.681  13.916
36682W        W 8997  24.924  21.948  12.548
36683W        W 8998  15.333   8.595  14.007
36684W        W 8999  39.297  12.868  13.904
36685W        W 9000  36.908  27.989   3.377
36686W        W 9001  36.907  20.156   2.429
36687W        W 9002  31.137   7.827  13.872
36688W        W 9003  30.166   7.376  13.901
36689W        W 9004  19.501  13.537   0.776
36690W        W 9005  21.027  43.925  13.852
36691W        W 9006   4.297   7.422   1.407
36692W        W 9007  11.106  22.751  11.864
36693W        W 9008   4.762  23.865  14.747
36694W        W 9009  20.302  36.155  11.969
36695W        W 9010   5.749  17.800   4.652
36696W        W 9011  10.532  21.663  14.266
36697W        W 9012  19.743  23.221   1.624
36698W        W 9013   5.799  15.628   3.273
36699W        W 9014  40.155  42.270   1.673
36700W        W 9015  18.148  35.911  14.831
36701W        W 9016  33.547  31.683  10.768
36702W        W 9017  20.790   9.614  11.009
36703W        W 9018   1.317  32.142   0.944
36704W        W 9019  34.786   0.530   1.836
36705W        W 9020  20.017  21.535  12.025
36706W        W 9021   2.945  31.307  14.977
36707W        W 9022  37.669  30.658   4.453
36708W        W 9023   4.943  42.415   1.855
36709W        W 9024   3.025  35.043  14.893
36710W        W 9025  22.465  10.654   0.928
36711W        W 9026  22.792  10.932   3.589
36712W        W 9027  30.711  21.689  13.491
36713W        W 9028  32.080  19.605   4.779
36714W        W 9029  40.556   2.234   3.321
36715W        W 9030  44.267  25.319  12.051
36716W        W 9031  34.434  43.021   0.417
36717W        W 9032   3.857   7.127   3.804
36718W        W 9033  11.323  16.867   1.910
36719W        W 9034  29.381   3.852  12.037
36720W        W 9035   7.610  32.139  11.166
36721W        W 9036  39.998  23.994  13.076
36722W        W 9037  37.273  23.714   3.526
36723W        W 9038  42.857  36.240  12.420
36724W        W 9039  35.651   6.708   0.354
36725W        W 9040   2.849  17.701  10.478
36726W        W 9041   9.078  31.402   2.841
36727W        W 9042  29.720  25.177  12.855
36728W        W 9043  11.124   3.010   2.711
36729W        W 9044  31.358   1.297   4.279
36730W        W 9045  30.360   8.274  11.953
36731W        W 9046   8.776  44.214   3.216
36732W        W 9047  44.493  27.268   3.802
36733W        W 9048  28.765   2.769  14.970
36734W        W 9049  32.934  22.468  12.511
36735W        W 9050   0.092  44.245  14.443
36736W        W 9051  34.683  27.615   2.267
36737W        W 9052  31.297   0.899   3.349
36738W        W 9053  32.054  36.653   0.481
36739W        W 9054  15.818  34.727  11.950
36740W        W 9055  22.520  30.996  14.866
36741W        W 9056  15.090  36.529  12.089
36742W        W 9057   5.496  38.363  14.780
36743W        W 9058  35.131  11.457  11.258
36744W        W 9059   1.417  26.506  13.413
36745W        W 9060  16.331  12.584  10.754
36746W        W 9061  25.117  24.426  11.530
36747W        W 9062  23.249   6.030   0.809
36748W        W 9063  33.931  29.063  13.524
36749W        W 9064  15.155   9.397  11.883
36750W        W 9065  41.315   8.279   0.379
36751W        W 9066  36.907  17.334   4.202
36752W        W 9067  13.811  30.905   3.902
36753W        W 9068  23.623  30.632  13.394
36754W        W 9069  26.012  10.355  14.475
36755W        W 9070  35.222  15.518   2.730
36756W        W 9071  23.581   5.866  10.737
36757W        W 9072   3.812  13.803   3.274
36758W        W 9073   0.741  36.625  12.005
36759W        W 9074  11.420  14.326  11.029
36760W        W 9075  24.142  31.246  14.001
36761W        W 9076  42.973  17.529  12.500
36762W        W 9077   0.516   4.702  12.849
36763W        W 9078  20.038  17.111  13.940
36764W        W 9079  21.310   2.093   1.606
36765W        W 9080  31.327  38.350  14.188
36766W        W 9081  37.020  10.420   1.727
36767W        W 9082  13.710  42.212  11.189
36768W        W 9083  39.826  32.567   3.785
36769W        W 9084  32.380  24.083   0.339
36770W        W 9085  21.608   9.820  14.208
36771W        W 9086  20.162   0.489  11.567
36772W        W 9087  27.641  33.275  12.005
36773W        W 9088  44.274  11.681   2.646
36774W        W 9089   9.665  10.830  10.968
36775W        W 9090   3.824  37.087  14.359
36776W        W 9091  13.490  25.546  13.162
36777W        W 9092  31.570   4.404  10.669
36778W        W 9093  14.327  37.382   5.077
36779W        W 9094  14.725  18.545  14.882
36780W        W 9095  39.794   3.911   0.412
36781W        W 9096  30.021  33.294  11.884
36782W        W 9097   4.924  14.070  14.017
36783W        W 9098  20.478   2.726   3.559
36784W        W 9099  42.719  30.434  11.138
36785W        W 9100  12.664  19.787  11.595
36786W        W 9101  30.467   3.920  14.569
36787W        W 9102  40.286  12.881   1.489
36788W        W 9103  26.808  37.878  11.066
36789W        W 9104  24.009   0.486   1.941
36790W        W 9105  44.282  11.368  10.437
36791W        W 9106  36.982   8.104  10.677
36792W        W 9107  38.846  25.495   1.372
36793W        W 9108  18.859   1.359  11.576
36794W        W 9109  42.955  23.578   0.487
36795W        W 9110   3.349  34.762  14.625
36796W        W 9111  41.517  34.636   0.491
36797W        W 9112   3.754  36.112  13.975
36798W        W 9113  11.659  22.122   1.951
36799W        W 9114  12.252  24.398  11.943
36800W        W 9115  30.954  22.010  13.145
36801W        W 9116   0.413  27.414   3.573
36802W        W 9117  14.207   2.330  10.444
36803W        W 9118  18.196  44.263   4.680
36804W        W 9119  24.608  17.095   3.373
36805W        W 9120  40.147  28.112  11.021
36806W        W 9121  34.037  39.804  11.049
36807W        W 9122   7.432  35.127   4.244
36808W        W 9123   7.607  10.494   0.820
36809W        W 9124  21.946  33.166   1.683
36810W        W 9125   1.993  43.104  13.988
36811W        W 9126  11.427  34.995   2.706
36812W        W 9127  22.430  14.661   3.370
36813W        W 9128  36.591  19.044  11.371
36814W        W 9129  28.993  31.420  11.923
36815W        W 9130  19.589  15.110  14.301
36816W        W 9131  36.769  26.685  11.242
36817W        W 9132   3.440  44.399   0.389
36818W        W 9133  41.991  19.598  12.909
36819W        W 9134  27.874  22.412  11.656
36820W        W 9135  30.986  36.329  12.202
36821W        W 9136  37.154  13.111  13.956
36822W        W 9137   1.917  19.510   3.073
36823W        W 9138  33.646  18.186  14.090
36824W        W 9139   9.707  18.074   1.872
36825W        W 9140  32.584  23.622   1.787
36826W        W 9141   5.307   3.732  11.032
36827W        W 9142  20.072  42.133  13.926
36828W        W 9143  33.547  41.329   1.192
36829W        W 9144  32.867  35.381   2.504
36830W        W 9145   1.813  44.756   3.595
36831W        W 9146  34.110   3.391   4.987
36832W        W 9147  42.888  12.547  12.876
36833W        W 9148   2.889  15.096   0.880
36834W        W 9149  43.336  34.304   3.599
36835W        W 9150  23.230   9.469  14.719
36836W        W 9151  34.029  13.645  11.583
36837W        W 9152   5.959  22.403   9.856
36838W        W 9153  25.444  14.290   4.128
36839W        W 9154   1.174  33.969  12.071
36840W        W 9155  23.729   7.721   2.352
36841W        W 9156   0.753  12.736   2.834
36842W        W 9157  42.594  19.728  12.897
36843W        W 9158  31.509  21.726   2.925
36844W        W 9159   7.440  16.108   4.452
36845W        W 9160   0.494  10.178   1.800
36846W        W 9161   4.812  19.386  11.979
36847W        W 9162  22.798  15.386   0.232
36848W        W 9163  17.521   3.997   2.866
36849W        W 9164  43.385  43.146  11.139
36850W        W 9165  32.623  17.095  10.190
36851W        W 9166  10.370  18.646   2.815
36852W        W 9167  20.595   3.426   2.433
36853W        W 9168   3.328  26.959  14.470
36854W        W 9169   0.206   2.114   3.969
36855W        W 9170   1.330  42.352  11.680
36856W        W 9171   6.206  32.375  14.062
36857W        W 9172  20.523   3.229  10.909
36858W        W 9173  19.313  38.210  11.649
36859W        W 9174  13.087  27.141  12.420
36860W        W 9175  41.796  40.848   2.184
36861W        W 9176  34.143  34.417  14.432
36862W        W 9177  15.462  27.337  12.391
36863W        W 9178   7.191  11.932  13.915
36864W        W 9179  24.192  34.846   3.755
36865W        W 9180  27.228  43.784  12.938
36866W        W 9181  36.372  20.798  14.037
36867W        W 9182  10.561  10.157  14.251
36868W        W 9183  36.354  31.588   2.010
36869W        W 9184   5.184  43.845  11.667
36870W        W 9185  28.185  28.038  11.167
36871W        W 9186  15.015  13.610   3.296
36872W        W 9187  25.621  37.646   0.514
36873W        W 9188  24.118  16.549   3.288
36874W        W 9189   0.773  15.236   3.073
36875W        W 9190  37.603  28.575  12.569
36876W        W 9191  15.415  27.085   3.124
36877W        W 9192  38.359  29.958  12.481
36878W        W 9193  17.326   6.394  12.440
36879W        W 9194  15.719  29.297   0.485
36880W        W 9195  18.537  32.484  12.028
36881W        W 9196   6.968  31.865  11.664
36882W        W 9197  23.596  19.567  10.619
36883W        W 9198  16.164  39.593  13.832
36884W        W 9199  11.637   7.696   2.221
36885W        W 9200  16.247  18.203  14.987
36886W        W 9201  39.795   5.130   1.849
36887W        W 9202  14.104  39.312  11.033
36888W        W 9203   6.392  28.436  11.538
36889W        W 9204  23.936  20.265   0.952
36890W        W 9205  35.553  19.833   1.859
36891W        W 9206  25.617  39.557   3.246
36892W        W 9207  15.226   5.707   2.680
36893W        W 9208   8.365  33.368   4.732
36894W        W 9209  40.916  27.150   3.924
36895W        W 9210   3.969  26.622   1.471
36896W        W 9211  38.570  25.182  11.508
36897W        W 9212  21.100  39.526  11.027
36898W        W 9213  35.605  17.104   2.858
36899W        W 9214  25.376  31.355   1.933
36900W        W 9215  32.440  21.596   3.803
36901W        W 9216  21.858  34.117   1.324
36902W        W 9217   4.423  35.840   0.376
36903W        W 9218  25.419   1.719  14.967
36904W        W 9219  35.342   0.848   1.089
36905W        W 9220  32.519  39.590   4.526
36906W        W 9221  19.310  36.502   1.596
36907W        W 9222  17.650  27.688   1.242
36908W        W 9223  33.940  28.243  11.647
36909W        W 9224   7.901   9.419   1.795
36910W        W 9225  26.776  15.416  10.151
36911W        W 9226  23.513  43.451  12.496
36912W        W 9227   4.940  41.545   0.721
36913W        W 9228  35.603  18.545   2.281
36914W        W 9229  16.561  20.040  11.713
36915W        W 9230   6.650   9.238   2.426
36916W        W 9231  10.201   5.724  13.508
36917W        W 9232  19.019  33.354   4.272
36918W        W 9233  28.858  17.354   0.800
36919W        W 9234  17.106  12.402   2.739
36920W        W 9235  37.009   9.582  14.261
36921W        W 9236   7.197  33.085  11.140
36922W        W 9237  23.991  44.365  12.564
36923W        W 9238  40.865  36.060  11.620
36924W        W 9239  18.226  44.852   3.653
36925W        W 9240  24.509  44.801   0.365
36926W        W 9241  13.880   3.921  10.718
36927W        W 9242  16.875  26.529  11.133
36928W        W 9243   7.317   6.698  14.061
36929W        W 9244  24.004  25.971  14.336
36930W        W 9245   9.525  15.832   2.534
36931W        W 9246  36.544  39.154  10.310
36932W        W 9247  35.121   0.918  12.594
36933W        W 9248   6.314   3.973   0.092
36934W        W 9249  29.402   9.833  14.522
36935W        W 9250  26.609  11.188  10.261
36936W        W 9251  37.082  24.024   4.634
36937W        W 9252  23.197  38.838   3.028
36938W        W 9253  30.583  21.818   4.243
36939W        W 9254   1.523  40.588   1.276
36940W        W 9255  41.953  24.253  12.131
36941W        W 9256  12.665  35.090   3.842
36942W        W 9257  42.302  31.087  14.989
36943W        W 9258  26.877   7.609  11.055
36944W        W 9259  36.295  35.668   3.721
36945W        W 9260  30.069  39.071   1.817
36946W        W 9261  29.009  42.274  12.137
36947W        W 9262  18.787   0.997   4.235
36948W        W 9263  32.473  23.302   4.105
36949W        W 9264  29.857  42.554  13.535
36950W        W 9265  27.093  41.966   3.720
36951W        W 9266  18.936  41.539  14.488
36952W        W 9267  22.133  32.783   2.468
36953W        W 9268  23.100   5.608  10.829
36954W        W 9269   8.210   8.445   0.326
36955W        W 9270  25.244  29.171  12.952
36956W        W 9271   0.267  29.804  14.914
36957W        W 9272  36.797  16.381   1.056
36958W        W 9273   8.103  33.901  10.943
36959W        W 9274  41.922  20.228  10.658
36960W        W 9275  21.916  44.603   0.865
36961W        W 9276  43.813  10.137  11.981
36962W        W 9277   7.125  27.660  13.038
36963W        W 9278  21.341  18.691  10.838
36964W        W 9279  20.659  40.434  12.889
36965W        W 9280  36.872  27.046   0.808
36966W        W 9281  34.621   3.291   0.860
36967W        W 9282  27.482   5.514  12.080
36968W        W 9283  43.023  44.753   1.252
36969W        W 9284  29.679  34.597   1.682
36970W        W 9285  39.023  42.794   0.924
36971W        W 9286  18.120   1.983   3.728
36972W        W 9287   2.477  23.999   0.814
36973W        W 9288   8.167  42.435   1.180
36974W        W 9289  28.823  37.385   0.945
36975W        W 9290   0.233   7.919  11.849
36976W        W 9291  14.187  35.577  12.394
36977W        W 9292  14.528  20.677  12.560
36978W        W 9293  23.661  12.319   3.156
36979W        W 9294  20.616   2.309  13.906
36980W        W 9295   5.965  35.751  11.248
36981W        W 9296  34.520  20.589   4.237
36982W        W 9297   1.412   3.655  13.851
36983W        W 9298   5.952  20.025   0.331
36984W        W 9299  28.132  31.413  10.486
36985W        W 9300  38.420   4.690  10.970
36986W        W 9301  23.170   0.863   3.114
36987W        W 9302   5.141  23.980   0.149
36988W        W 9303  31.415  15.255  14.765
36989W        W 9304   4.997  25.578   2.178
36990W        W 9305  24.865  38.646  14.084
36991W        W 9306  25.195  40.960   0.049
36992W        W 9307  15.385  23.558   0.288
36993W        W 9308  16.164   3.896  12.090
36994W        W 9309   5.748   1.668   2.771
36995W        W 9310  12.595  44.480  14.049
36996W        W 9311  28.371  41.697   3.677
36997W        W 9312  41.065  11.712  10.939
36998W        W 9313  37.454  24.642   0.073
36999W        W 9314   6.366  18.559   4.115
37000W        W 9315  41.213  26.133  13.028
37001W        W 9316  20.096  35.111  10.596
37002W        W 9317  11.284  25.895   1.237
37003W        W 9318   2.277   6.349  12.630
37004W        W 9319  28.531  31.160   1.324
37005W        W 9320  19.571  21.194   4.131
37006W        W 9321   5.647  15.708  11.474
37007W        W 9322  39.601  25.094   4.100
37008W        W 9323  29.948  16.599  13.658
37009W        W 9324  10.680   5.691   1.328
37010W        W 9325  10.090  39.948  12.366
37011W        W 9326  39.883  21.043   1.728
37012W        W 9327   6.231  15.519   3.517
37013W        W 9328  26.487   9.249   3.304
37014W        W 9329   3.706  39.748   4.521
37015W        W 9330   6.936  42.080  14.362
37016W        W 9331  42.754  26.996   2.768
37017W        W 9332  32.952  38.350  10.648
37018W        W 9333  27.916  37.344  11.630
37019W        W 9334  40.222   6.366   1.519
37020W        W 9335   8.262   8.161   4.590
37021W        W 9336   5.054  13.177   3.767
37022W        W 9337  10.283  39.539  11.989
37023W        W 9338  22.675   9.283  11.616
37024W        W 9339  22.579  24.452   1.812
37025W        W 9340  29.444  35.307   0.977
37026W        W 9341  15.589   1.278  14.462
37027W        W 9342  12.120   7.724   3.247
37028W        W 9343  28.948  37.017  11.086
37029W        W 9344  25.947  14.025   3.711
37030W        W 9345   8.406  28.979  13.995
37031W        W 9346  28.616  35.651   1.899
37032W        W 9347  19.173   8.431   3.098
37033W        W 9348  23.611  11.031   3.733
37034W        W 9349  13.079  24.675   0.702
37035W        W 9350   8.709  14.590  13.277
37036W        W 9351  33.322   7.774   3.784
37037W        W 9352  43.420  19.639   0.840
37038W        W 9353  41.727  41.290   1.892
37039W        W 9354  37.116  38.564   4.583
37040W        W 9355  43.827   6.958  14.820
37041W        W 9356  25.848   4.653   1.051
37042W        W 9357  19.102  27.998  11.546
37043W        W 9358  28.478  34.150  12.212
37044W        W 9359  10.589  29.496   3.462
37045W        W 9360  14.980  13.440  12.142
37046W        W 9361  36.051   7.675  13.789
37047W        W 9362  37.388  37.519   0.748
37048W        W 9363  31.837  17.721   1.788
37049W        W 9364  24.303  20.945  14.312
37050W        W 9365  42.669  42.312  13.396
37051W        W 9366  29.215  44.934  11.087
37052W        W 9367  16.237  40.753  12.980
37053W        W 9368  13.656   6.929   1.091
37054W        W 9369   2.419  15.851  12.772
37055W        W 9370  19.719  34.494   0.880
37056W        W 9371  22.671  43.274  13.028
37057W        W 9372  22.515   6.378   3.062
37058W        W 9373  16.074  35.917   2.331
37059W        W 9374   3.854  11.310  13.369
37060W        W 9375   2.784  25.562  14.462
37061W        W 9376  19.020  26.473   4.052
37062W        W 9377  33.834  25.168   9.988
37063W        W 9378  22.997  10.312  12.280
37064W        W 9379   1.890   7.714  14.014
37065W        W 9380   3.732  13.663  14.378
37066W        W 9381  43.058  42.329  11.394
37067W        W 9382   5.901  38.166   4.210
37068W        W 9383  22.774  37.106   4.210
37069W        W 9384  40.702  10.892  13.459
37070W        W 9385  15.765  37.492  13.073
37071W        W 9386  44.160  26.132  11.393
37072W        W 9387   6.822  12.659   4.525
37073W        W 9388  20.175  17.237   1.301
37074W        W 9389  34.555  38.996   0.729
37075W        W 9390  24.609   8.948   0.211
37076W        W 9391  13.707  31.840   3.273
37077W        W 9392  19.338  23.996  13.982
37078W        W 9393  42.881  15.393  13.098
37079W        W 9394   0.928  13.052  12.369
37080W        W 9395   5.906   6.648  13.022
37081W        W 9396  12.048  31.956   9.893
37082W        W 9397  38.054   1.924   1.177
37083W        W 9398  15.258  38.037   2.204
37084W        W 9399  19.123   6.154   1.612
37085W        W 9400  24.866  37.895   3.803
37086W        W 9401  12.953  40.288  12.846
37087W        W 9402  44.375  12.250   2.446
37088W        W 9403   8.056  28.344   1.736
37089W        W 9404  24.515   5.652  10.483
37090W        W 9405  12.693  26.177   0.479
37091W        W 9406  16.300  21.277   4.034
37092W        W 9407   9.230  36.320   1.791
37093W        W 9408  26.171  12.834   3.995
37094W        W 9409  21.234  36.430   2.165
37095W        W 9410  15.121  16.169   2.749
37096W        W 9411  26.030  21.171   2.152
37097W        W 9412  37.347  39.138   2.697
37098W        W 9413  21.693  15.604  12.378
37099W        W 9414  36.550  37.772  13.949
37100W        W 9415  42.064  21.711   1.316
37101W        W 9416  30.191  31.475  12.539
37102W        W 9417  23.010  13.292   1.404
37103W        W 9418   2.830  40.824   1.396
37104W        W 9419  31.844  12.168  13.475
37105W        W 9420  29.418  39.962   3.628
37106W        W 9421  34.768  43.168  13.049
37107W        W 9422  17.821  14.696  14.248
37108W        W 9423  18.781  19.293  12.711
37109W        W 9424   7.739  33.908  13.535
37110W        W 9425  36.907  34.404  11.618
37111W        W 9426  10.920  28.506  11.178
37112W        W 9427  29.151  15.289  11.053
37113W        W 9428  31.899  10.943  11.863
37114W        W 9429  36.426   3.433  14.820
37115W        W 9430  12.306  42.380  10.776
37116W        W 9431  25.976  31.347   4.534
37117W        W 9432  21.772  42.031  11.955
37118W        W 9433  28.432  31.921   0.940
37119W        W 9434  27.503  41.345   4.719
37120W        W 9435  21.038  16.629   3.709
37121W        W 9436  43.884  18.397  13.353
37122W        W 9437   8.337  15.327   3.248
37123W        W 9438  42.401  23.743  12.759
37124W        W 9439  25.891   1.267  14.002
37125W        W 9440   8.892  44.538   3.678
37126W        W 9441   4.466  40.958   4.514
37127W        W 9442  32.452   6.320  13.082
37128W        W 9443  39.233  27.192  14.485
37129W        W 9444  43.450  28.604  10.575
37130W        W 9445   5.125  16.861  12.565
37131W        W 9446  33.926  42.326   2.017
37132W        W 9447  18.366  28.654  11.010
37133W        W 9448  35.830  44.982   1.295
37134W        W 9449  34.023  12.532   0.001
37135W        W 9450   9.063  21.488   2.609
37136W        W 9451  25.186   5.956   2.100
37137W        W 9452  34.888  23.576  13.866
37138W        W 9453   1.236   5.416  13.069
37139W        W 9454   7.955  20.794  10.514
37140W        W 9455  18.875  42.390   2.294
37141W        W 9456  14.628  36.593  14.421
37142W        W 9457  42.794  42.420  12.617
37143W        W 9458  27.738   9.399   0.057
37144W        W 9459  10.243   9.598   0.050
37145W        W 9460  33.111  15.566  11.188
37146W        W 9461  11.328  24.793  13.752
37147W        W 9462   2.032   0.836  11.438
37148W        W 9463  29.421  35.963  14.000
37149W        W 9464  13.573  22.734   0.401
37150W        W 9465  39.853  34.680   0.471
37151W        W 9466  11.608  18.231   4.637
37152W        W 9467  44.951  27.122  10.423
37153W        W 9468   3.707   1.244  11.868
37154W        W 9469  28.014  35.573  12.853
37155W        W 9470  44.809   1.482  12.552
37156W        W 9471  44.489  14.132  11.116
37157W        W 9472  15.010  35.829   3.742
37158W        W 9473  38.625   6.852   1.718
37159W        W 9474   6.842   7.345  12.616
37160W        W 9475  37.260  39.884   3.346
37161W        W 9476  11.819   7.350  13.119
37162W        W 9477  23.918  10.857  11.041
37163W        W 9478  22.080   6.262  12.024
37164W        W 9479  36.267   4.323   4.317
37165W        W 9480  35.443   5.749  12.924
37166W        W 9481  21.558  18.195  13.971
37167W        W 9482  40.778   1.586  11.625
37168W        W 9483  36.040   6.780  14.727
37169W        W 9484   7.474  35.995   2.774
37170W        W 9485  44.429   7.206   1.859
37171W        W 9486  17.090  18.150   0.996
37172W        W 9487  26.759   4.111   4.612
37173W        W 9488  20.521  19.072   2.904
37174W        W 9489  10.980   8.143  13.900
37175W        W 9490  29.909  25.736   0.261
37176W        W 9491  14.780  38.281  11.316
37177W        W 9492   6.304  26.962   2.872
37178W        W 9493  43.172  18.120  11.101
37179W        W 9494  42.861   0.863   3.357
37180W        W 9495  17.193  24.665  14.256
37181W        W 9496  13.199  41.107   4.093
37182W        W 9497  19.567  26.037   2.569
37183W        W 9498  44.971  26.666   3.913
37184W        W 9499  40.045  38.613  11.976
37185W        W 9500  38.594  31.887  13.842
37186W        W 9501  23.042  15.231  10.809
37187W        W 9502  18.716   4.335   3.654
37188W        W 9503  26.022   7.214   1.934
37189W        W 9504  20.163  30.257  12.125
37190W        W 9505  43.211   9.586   0.493
37191W        W 9506  15.259  41.863  12.798
37192W        W 9507  23.590  36.821  14.756
37193W        W 9508  10.482  22.651  13.647
37194W        W 9509  29.713  21.299   1.452
37195W        W 9510   4.391  41.994   1.289
37196W        W 9511  22.531   3.692   2.267
37197W        W 9512  43.269  35.766  13.980
37198W        W 9513  23.621  31.484  14.031
37199W        W 9514  44.793  34.982  14.204
37200W        W 9515  12.016  27.691   2.125
37201W        W 9516  20.077   2.482  11.210
37202W        W 9517  40.737  26.225  10.729
37203W        W 9518   5.903  28.197  12.009
37204W        W 9519  26.286  20.963  13.776
37205W        W 9520   5.806  33.878  11.654
37206W        W 9521   6.402  20.496   3.157
37207W        W 9522   6.881  22.190   4.835
37208W        W 9523  43.086  16.821   3.228
37209W        W 9524  37.968   7.401  12.912
37210W        W 9525  10.812  39.875   0.254
37211W        W 9526  40.300   7.119  11.124
37212W        W 9527  34.069  14.155  12.166
37213W        W 9528  39.189   0.258   2.325
37214W        W 9529  25.647  36.849   3.658
37215W        W 9530   7.137  35.733  12.588
37216W        W 9531  32.071  21.206  14.367
37217W        W 9532  42.731   5.824   1.726
37218W        W 9533  43.969  38.843   2.393
37219W        W 9534  22.921  20.514  12.053
37220W        W 9535  20.849  27.579   0.422
37221W        W 9536  14.712  25.716   2.281
37222W        W 9537  39.054  36.533  12.975
37223W        W 9538   8.651  36.418  10.760
37224W        W 9539  32.885  36.090  12.032
37225W        W 9540  27.988  23.690   0.378
37226W        W 9541  34.113   7.880   0.447
37227W        W 9542   6.024  10.280   1.378
37228W        W 9543  24.731  19.669  14.711
37229W        W 9544  32.075   0.350  10.145
37230W        W 9545  26.568   8.858  13.361
37231W        W 9546  41.108  37.388   0.316
37232W        W 9547  42.503  27.479   3.324
37233W        W 9548  31.624  14.563   3.435
37234W        W 9549  44.875  44.902  10.611
37235W        W 9550  32.861  11.226  14.313
37236W        W 9551  27.440  33.055   1.739
37237W        W 9552  31.470  19.777  11.621
37238W        W 9553  26.229   4.121   3.203
37239W        W 9554  44.290  12.385   3.358
37240W        W 9555   9.683  23.592  10.423
37241W        W 9556  30.612   0.037  11.174
37242W        W 9557   2.904   5.005   1.733
37243W        W 9558  37.783   9.223  10.717
37244W        W 9559  41.466   6.328   3.225
37245W        W 9560  39.182   4.124  14.855
37246W        W 9561  27.589  20.497   0.390
37247W        W 9562   1.433  41.931   0.019
37248W        W 9563  38.305  41.782   4.645
37249W        W 9564  27.981  26.182  10.456
37250W        W 9565  40.240  39.621   3.320
37251W        W 9566  15.373   5.320  11.026
37252W        W 9567  40.735   9.851   2.901
37253W        W 9568   4.177   6.407  12.783
37254W        W 9569   1.896  33.531  10.747
37255W        W 9570  21.533  42.815  12.370
37256W        W 9571  39.792  40.255   4.679
37257W        W 9572  29.903  22.000  12.405
37258W        W 9573  29.563  41.779  12.434
37259W        W 9574   2.853  43.576   3.743
37260W        W 9575  17.991   2.229   2.684
37261W        W 9576  17.048   7.220   2.709
37262W        W 9577  30.632  39.523   4.009
37263W        W 9578   0.289  31.935   4.080
37264W        W 9579   5.260  28.701   2.628
37265W        W 9580  15.579  19.420   1.295
37266W        W 9581   2.191   6.248  13.131
37267W        W 9582  13.742   4.905   0.157
37268W        W 9583  32.071  24.262   4.091
37269W        W 9584  22.181  43.881  14.869
37270W        W 9585  34.617  37.956  11.857
37271W        W 9586  18.521  25.093  10.111
37272W        W 9587   4.771   3.225   3.389
37273W        W 9588   1.737  23.554  12.960
37274W        W 9589  28.145  32.656   4.515
37275W        W 9590  40.422  25.629   9.901
37276W        W 9591  26.223   0.855   0.943
37277W        W 9592   6.107  10.830   0.666
37278W        W 9593  16.669   0.044  11.485
37279W        W 9594   8.728  15.652   0.857
37280W        W 9595  22.601   3.895  12.023
37281W        W 9596  39.819  38.510  11.519
37282W        W 9597   9.941  12.835   1.811
37283W        W 9598  32.073  37.190   4.913
37284W        W 9599   0.212  32.619   0.358
37285W        W 9600  37.021  42.592   4.566
37286W        W 9601  38.962  16.368  12.359
37287W        W 9602  25.100  13.898   0.795
37288W        W 9603  31.109   8.731  11.614
37289W        W 9604  23.401  40.837   2.783
37290W        W 9605  32.446   5.523  11.116
37291W        W 9606  36.660  42.544  12.885
37292W        W 9607  33.351  12.783  10.737
37293W        W 9608  28.283  23.078   3.608
37294W        W 9609  33.110   6.668   1.344
37295W        W 9610  38.535   0.662   3.010
37296W        W 9611  37.367  12.547  10.622
37297W        W 9612  25.685  42.367   3.032
37298W        W 9613  35.611  13.736  12.532
37299W        W 9614  11.069  16.225   3.419
37300W        W 9615   0.958   4.693   4.593
37301W        W 9616  24.262  30.002   0.769
37302W        W 9617   3.422  11.504  12.469
37303W        W 9618  19.109  10.166  12.082
37304W        W 9619  24.497  37.418   4.696
37305W        W 9620  27.589  20.718  13.322
37306W        W 9621   4.323   6.880  12.656
37307W        W 9622  40.129   1.035  12.170
37308W        W 9623  39.976  38.243   3.773
37309W        W 9624  44.650  14.107  14.005
37310W        W 9625  31.888  31.141   1.884
37311W        W 9626   4.769  39.494  11.361
37312W        W 9627  12.403  23.199  12.944
37313W        W 9628  39.069  29.105  10.010
37314W        W 9629  14.511   0.263  14.482
37315W        W 9630  28.943   4.894   0.002
37316W        W 9631  13.124  40.090   4.144
37317W        W 9632  11.538  20.536   2.943
37318W        W 9633   7.865   7.400  13.457
37319W        W 9634  14.901  11.466   1.350
37320W        W 9635  36.501  29.523  13.540
37321W        W 9636  29.986  20.694  12.993
37322W        W 9637  24.497  42.400   1.053
37323W        W 9638   4.702   6.422  13.503
37324W        W 9639  15.541  39.716   1.404
37325W        W 9640   6.844  38.071  11.104
37326W        W 9641  13.373   9.176  14.650
37327W        W 9642  22.526  26.462   3.188
37328W        W 9643  25.619  12.889  13.012
37329W        W 9644  42.429  37.921   2.913
37330W        W 9645  32.805  28.851   4.127
37331W        W 9646  20.355  32.677  10.707
37332W        W 9647  37.978  29.341  11.009
37333W        W 9648  18.138   3.818  13.408
37334W        W 9649  18.976  10.974  10.671
37335W        W 9650  16.571   5.349   0.401
37336W        W 9651   2.076  34.255   1.370
37337W        W 9652  22.712  21.265   4.682
37338W        W 9653  10.266  30.667  11.582
37339W        W 9654  22.485  27.504  11.832
37340W        W 9655  12.497  28.083   2.718
37341W        W 9656   7.718  38.377   3.093
37342W        W 9657  18.599  13.086   1.902
37343W        W 9658  42.037  40.903  13.922
37344W        W 9659  35.497  39.574  13.474
37345W        W 9660   3.047  15.224   4.939
37346W        W 9661  26.353  28.928  14.847
37347W        W 9662  42.971   2.904   4.258
37348W        W 9663  24.969   1.194   1.087
37349W        W 9664  38.423  10.413  10.720
37350W        W 9665  34.987  33.832  13.880
37351W        W 9666  14.890  26.084  13.049
37352W        W 9667  43.291  39.318   1.376
37353W        W 9668   0.728  39.093  13.410
37354W        W 9669  44.334  19.753   0.103
37355W        W 9670  20.592  29.211  12.425
37356W        W 9671  11.294  24.614  14.240
37357W        W 9672  43.517  39.430  13.813
37358W        W 9673   7.307  32.593  13.531
37359W        W 9674  12.529  12.863  14.035
37360W        W 9675  24.680  10.062  12.930
37361W        W 9676   6.522  42.124   3.757
37362W        W 9677  16.252  21.282  14.814
37363W        W 9678   8.870  15.279  13.926
37364W        W 9679  43.399  10.117   2.401
37365W        W 9680  43.050   4.980   2.141
37366W        W 9681  14.187  35.382   1.396
37367W        W 9682  36.546  36.680   4.520
37368W        W 9683   3.708  17.337  14.446
37369W        W 9684  24.072   3.334   2.649
37370W        W 9685  44.609  25.743  14.297
37371W        W 9686  31.905  10.274  12.376
37372W        W 9687   4.773  39.512  13.595
37373W        W 9688  21.737   0.777   3.709
37374W        W 9689  20.439   0.216  12.133
37375W        W 9690  22.349  39.982   1.748
37376W        W 9691  22.515  11.639   3.158
37377W        W 9692   5.378  19.809  12.207
37378W        W 9693  28.509  15.041  11.222
37379W        W 9694  44.290  43.085  14.861
37380W        W 9695  32.059  19.205  13.260
37381W        W 9696  23.972   4.305   0.913
37382W        W 9697  26.605  17.378  10.584
37383W        W 9698   3.839  23.013  12.400
37384W        W 9699  11.616  16.604  13.046
37385W        W 9700  25.798  44.307  13.070
37386W        W 9701   0.417  12.071   1.265
37387W        W 9702   9.359  12.832   1.017
37388W        W 9703  29.412  25.388   1.606
37389W        W 9704   1.722  33.996  13.548
37390W        W 9705  40.474  12.965   1.017
37391W        W 9706  13.756  33.813   1.942
37392W        W 9707  44.487  29.219  14.704
37393W        W 9708   7.784   0.322  13.493
37394W        W 9709   5.180  44.971  10.744
37395W        W 9710  13.730  33.628  14.361
37396W        W 9711  26.995   6.694   1.483
37397W        W 9712  21.216  20.310   2.284
37398W        W 9713   4.964  29.416   3.212
37399W        W 9714  38.418   8.821  13.906
37400W        W 9715   8.246  37.859  11.135
37401W        W 9716  29.581  41.554   2.438
37402W        W 9717  19.338  38.373  14.784
37403W        W 9718  43.269  18.242   1.318
37404W        W 9719  27.685  21.648   4.706
37405W        W 9720  42.031  38.826  10.618
37406W        W 9721  18.808   5.005  11.156
37407W        W 9722  34.472  43.716   4.329
37408W        W 9723  29.043  35.549   1.617
37409W        W 9724   9.126  42.530  14.901
37410W        W 9725  26.896  42.881   4.111
37411W        W 9726   9.099  27.221  11.349
37412W        W 9727  35.882  30.466  12.034
37413W        W 9728  39.654   1.135  10.648
37414W        W 9729  29.366   6.809  11.651
37415W        W 9730  24.157  19.162  12.850
37416W        W 9731  23.550  23.292   1.211
37417W        W 9732  29.990  43.616  13.491
37418W        W 9733  38.331  23.974   2.332
37419W        W 9734  33.449   4.589   0.809
37420W        W 9735  11.202  41.412  13.430
37421W        W 9736  22.008  23.188   0.883
37422W        W 9737   3.860  43.217   3.560
37423W        W 9738  16.844   2.416   0.374
37424W        W 9739   0.127  42.831   1.759
37425W        W 9740  17.111   3.646   1.829
37426W        W 9741  33.250  14.962   1.445
37427W        W 9742   8.641  30.962  10.700
37428W        W 9743  21.285  12.410   0.016
37429W        W 9744  13.899  23.667  14.943
37430W        W 9745   5.078  44.804   3.208
37431W        W 9746  40.708  24.341   3.135
37432W        W 9747   2.030  14.346   4.392
37433W        W 9748  16.884  12.402   3.993
37434W        W 9749  26.922  32.990  13.524
37435W        W 9750   6.793  42.397  12.125
37436W        W 9751  26.688  24.522  11.264
37437W        W 9752   6.952  26.326   3.437
37438W        W 9753  36.430   9.222   3.822
37439W        W 9754  13.167  23.993   9.922
37440W        W 9755  10.804   3.976   0.735
37441W        W 9756  28.591  23.965   0.880
37442W        W 9757  22.103  28.604  14.310
37443W        W 9758  37.047   3.206   2.346
37444W        W 9759  23.673  28.843   1.145
37445W        W 9760  18.631  21.796  11.542
37446W        W 9761  43.073  19.297   4.173
37447W        W 9762  15.620  44.955   0.851
37448W        W 9763  36.493  44.810   0.184
37449W        W 9764   9.625   2.819  11.451
37450W        W 9765  21.569  20.719  11.882
37451W        W 9766   0.897  34.283  13.185
37452W        W 9767  38.865   2.867  11.186
37453W        W 9768   4.581  27.121   1.901
37454W        W 9769   6.684  23.748  10.542
37455W        W 9770  12.724  17.771   1.422
37456W        W 9771   0.774   7.767  10.678
37457W        W 9772   8.037  38.096  13.479
37458W        W 9773  29.631  27.399   0.883
37459W        W 9774  12.094  17.995  10.654
37460W        W 9775  43.575  27.129   2.435
37461W        W 9776   8.050  42.894   1.909
37462W        W 9777   0.521   0.150   1.623
37463W        W 9778   9.191  36.299   3.199
37464W        W 9779  10.856  42.284  12.470
37465W        W 9780  13.527  30.517  14.513
37466W        W 9781   5.750  24.996  12.965
37467W        W 9782  43.008  22.714   4.568
37468W        W 9783  14.198   6.107  12.859
37469W        W 9784  22.479  34.448  10.770
37470W        W 9785  11.789  38.253   1.489
37471W        W 9786  23.974  43.276   2.859
37472W        W 9787  42.437  19.084   2.682
37473W        W 9788  22.129  15.289  14.448
37474W        W 9789  41.985  43.618  13.770
37475W        W 9790  16.677  18.172   4.154
37476W        W 9791   2.690  42.908  13.306
37477W        W 9792  13.837   9.447   2.531
37478W        W 9793  20.460  38.944  13.391
37479W        W 9794  11.679   8.885  13.042
37480W        W 9795   9.265  42.224   0.319
37481W        W 9796  14.626  37.688   4.358
37482W        W 9797   7.206  38.809  11.794
37483W        W 9798  44.704  42.505   4.333
37484W        W 9799  23.533  16.772   0.356
37485W        W 9800  40.624  19.776  14.979
37486W        W 9801  16.558  26.633  13.636
37487W        W 9802  35.693  44.285   3.376
37488W        W 9803  35.884  20.965  13.866
37489W        W 9804  28.990  33.226  10.121
37490W        W 9805   4.237  12.085   3.488
37491W        W 9806  17.651  27.764   0.730
37492W        W 9807  34.457  17.657   2.652
37493W        W 9808   5.556  32.113   3.050
37494W        W 9809  35.459  38.719   0.777
37495W        W 9810  39.465  39.825  13.030
37496W        W 9811   5.141   7.907   2.303
37497W        W 9812  15.023   9.005  12.728
37498W        W 9813  15.384   7.155  12.575
37499W        W 9814  29.199  16.883   2.962
37500W        W 9815   3.076  17.748   0.820
37501W        W 9816  17.930  25.315  14.468
37502W        W 9817  16.125  32.777   4.056
37503W        W 9818  20.716  17.879  11.586
37504W        W 9819  23.962  33.139   1.874
37505W        W 9820  41.772   8.132  11.959
37506W        W 9821   8.366  11.174  13.485
37507W        W 9822  23.796  12.165  13.866
37508W        W 9823  29.548   7.247  13.276
37509W        W 9824  28.470  42.456  13.295
37510W        W 9825  37.103  28.046  14.986
37511W        W 9826  33.158  14.547   1.121
37512W        W 9827   8.257  19.772  12.438
37513W        W 9828   9.563   5.250  11.212
37514W        W 9829  12.966   7.802  12.683
37515W        W 9830  16.862   4.846   3.343
37516W        W 9831  24.879  35.047   4.646
37517W        W 9832   1.528  37.573  14.804
37518W        W 9833  16.658  17.004  14.474
37519W        W 9834  10.165  12.069   0.775
37520W        W 9835  32.923   8.204   1.437
37521W        W 9836  27.620  36.784   1.289
37522W        W 9837  27.182  14.148   3.285
37523W        W 9838   3.436  30.663  12.474
37524W        W 9839  41.788   6.983   2.613
37525W        W 9840  43.240  37.992  12.095
37526W        W 9841  15.058  23.129  12.693
37527W        W 9842  34.989  37.560   0.439
37528W        W 9843  22.660   9.696   4.199
37529W        W 9844  25.268   7.145   3.649
37530W        W 9845  29.914  19.199  13.799
37531W        W 9846  16.123  38.016   0.173
37532W        W 9847  24.397   4.713   2.374
37533W        W 9848  24.570  21.033   5.527
37534W        W 9849   5.193  35.339   0.979
37535W        W 9850   3.379   5.597   2.241
37536W        W 9851  28.502  36.455   1.051
37537W        W 9852  22.709  37.323   0.999
37538W        W 9853  28.600  30.870  14.583
37539W        W 9854  35.432  29.254   4.943
37540W        W 9855  35.811  28.922   1.905
37541W        W 9856  40.870  26.467   2.799
37542W        W 9857  41.121   6.442  12.695
37543W        W 9858  24.061  19.148   1.260
37544W        W 9859   1.269  14.096   0.891
37545W        W 9860  17.136  16.416   4.334
37546W        W 9861  38.501   6.844   4.571
37547W        W 9862  11.852  15.680   3.445
37548W        W 9863  19.036  41.447  14.985
37549W        W 9864   1.064   2.959   2.249
37550W        W 9865  16.524  37.312  11.135
37551W        W 9866   9.725  11.593   0.480
37552W        W 9867  22.319  33.461  13.484
37553W        W 9868  38.488  16.211   1.346
37554W        W 9869  12.795  24.559   1.855
37555W        W 9870   9.921  29.926   1.576
37556W        W 9871  37.263  26.687  11.057
37557W        W 9872  10.350  44.537   0.255
37558W        W 9873  23.371  26.659  14.808
37559W        W 9874  19.504  24.579   1.802
37560W        W 9875  19.542  27.048  12.589
37561W        W 9876  17.297  17.795   3.164
37562W        W 9877  26.563  24.487  12.479
37563W        W 9878  44.959   0.909  12.403
37564W        W 9879  26.042  29.142   1.590
37565W        W 9880  10.133  15.814   1.356
37566W        W 9881   9.574  21.748  14.414
37567W        W 9882   3.962  35.176   4.165
37568W        W 9883  35.036  20.219  12.370
37569W        W 9884  10.424  13.295  11.053
37570W        W 9885  17.246  36.411   2.485
37571W        W 9886  26.621  41.504   0.945
37572W        W 9887   0.330   9.312   5.045
37573W        W 9888   8.635  26.459   2.703
37574W        W 9889  25.842  33.390  12.998
37575W        W 9890  34.544   7.656  14.420
37576W        W 9891  17.485  31.688   0.583
37577W        W 9892  40.111  23.097   3.628
37578W        W 9893   6.449  36.401  13.965
37579W        W 9894  38.030   6.745   1.507
37580W        W 9895  42.496  29.336  12.136
37581W        W 9896  10.297  33.437   1.442
37582W        W 9897  39.819   5.770  13.913
37583W        W 9898  31.502  25.659  12.837
37584W        W 9899  17.092  27.672   3.690
37585W        W 9900   9.191  19.540   1.253
37586W        W 9901   0.710  25.630  10.729
37587W        W 9902  18.335  29.502  14.105
37588W        W 9903  34.421   1.414  14.952
37589W        W 9904   0.566  36.957   2.724
37590W        W 9905  23.257  11.745  12.556
37591W        W 9906  15.154  21.867  12.308
37592W        W 9907   4.558   4.830  13.247
37593W        W 9908  25.059   0.014   3.709
37594W        W 9909  17.905   6.281   3.611
37595W        W 9910   2.959  12.428   3.694
37596W        W 9911  43.282   5.834  11.999
37597W        W 9912  29.223  26.113  13.022
37598W        W 9913  36.290  42.732   0.286
37599W        W 9914  41.835  26.229   1.804
37600W        W 9915  40.580  22.824  10.811
37601W        W 9916  37.455   2.937  11.016
37602W        W 9917   0.700  29.378  13.308
37603W        W 9918  36.117   1.235   4.749
37604W        W 9919  28.034  25.672   2.386
37605W        W 9920  23.186  25.240   1.212
37606W        W 9921  42.940  33.586   0.272
37607W        W 9922  32.172  26.133   4.230
37608W        W 9923   6.753   1.952  12.884
37609W        W 9924  35.178  13.719  14.439
37610W        W 9925  10.845  44.043   1.891
37611W        W 9926  10.907  27.939  12.371
37612W        W 9927   1.041   2.734   4.746
37613W        W 9928   3.298  25.153   0.356
37614W        W 9929  17.395  11.008  11.948
37615W        W 9930  23.135  43.586   3.921
37616W        W 9931  41.525  29.596  12.977
37617W        W 9932   3.301  21.940  13.263
37618W        W 9933  13.154  36.983  13.929
37619W        W 9934  33.487   7.895   2.871
37620W        W 9935  15.151  30.158   9.816
37621W        W 9936  10.078  43.823   4.481
37622W        W 9937   2.979  12.017   0.883
37623W        W 9938  41.910   9.837  13.830
37624W        W 9939  40.597  23.173   0.783
37625W        W 9940  43.749  12.391  12.100
37626W        W 9941  40.921  41.560   4.348
37627W        W 9942   7.413  29.014  14.037
37628W        W 9943   7.114   3.759  11.617
37629W        W 9944  17.086   5.951   2.452
37630W        W 9945  44.780   9.729   4.595
37631W        W 9946  12.792  34.589  12.962
37632W        W 9947  37.743   9.232  14.040
37633W        W 9948  19.480  15.225   2.293
37634W        W 9949  10.309  35.237  11.118
37635W        W 9950  41.943   6.780   4.564
37636W        W 9951  36.015  21.999  12.907
37637W        W 9952  24.572  29.956  14.731
37638W        W 9953  24.446  15.247  12.523
37639W        W 9954   2.971   6.786  13.050
37640W        W 9955  25.985  12.549  12.837
37641W        W 9956   7.115  18.300  12.066
37642W        W 9957  12.828  32.396   1.516
37643W        W 9958  40.938  41.713   0.789
37644W        W 9959  28.792  19.813  13.612
37645W        W 9960  10.360   0.298  14.575
37646W        W 9961  22.175  19.655  13.872
37647W        W 9962   0.770  25.992   1.916
37648W        W 9963   3.872  26.029   1.943
37649W        W 9964  39.160   0.906   5.162
37650W        W 9965  11.650  14.814   3.402
37651W        W 9966  17.034  26.003  14.276
37652W        W 9967  14.273  34.660  12.921
37653W        W 9968  33.468  29.606  13.922
37654W        W 9969   8.387  41.909  11.527
37655W        W 9970  33.122  16.847  14.440
37656W        W 9971  21.443  32.658   0.282
37657W        W 9972  21.967  11.252   3.681
37658W        W 9973  11.089   0.659   2.202
37659W        W 9974  28.837   7.892   4.632
37660W        W 9975  31.993  42.320   1.659
37661W        W 9976  18.195  42.469   4.139
37662W        W 9977  43.539  18.232  14.906
37663W        W 9978  37.539   3.395  11.204
37664W        W 9979   8.138  20.828  13.551
37665W        W 9980   6.864  29.201  10.727
37666W        W 9981  23.711  27.271   2.360
37667W        W 9982  30.197   1.286   0.861
37668W        W 9983  33.570  20.127  10.994
37669W        W 9984  34.798  35.027   1.174
37670W        W 9985  43.845  21.038  14.671
37671W        W 9986   6.297  23.727  13.241
37672W        W 9987  28.366  38.960   1.276
37673W        W 9988   5.317  23.439  10.769
37674W        W 9989  36.253  18.249  14.274
37675W        W 9990  26.882  16.778   3.619
37676W        W 9991  15.809  37.343   1.047
37677W        W 9992  10.071  28.674   3.117
37678W        W 9993  13.574  22.074   1.933
37679W        W 9994  23.144  14.786  10.561
37680W        W 9995  44.066  28.510  12.170
37681W        W 9996  22.100   5.919  13.495
37682W        W 9997  27.485  29.123   3.648
37683W        W 9998  35.156  30.796   2.306
37684W        W 9999  22.078  40.928   3.749
37685W        W10000  35.621   2.803   4.010
37686W        W10001  44.236  33.978   4.059
37687W        W10002  37.475  25.185  10.196
37688W        W10003  40.786   5.279   3.923
37689W        W10004  12.170  13.616   0.328
37690W        W10005  40.469  44.469   3.751
37691W        W10006  22.852   2.441  14.626
37692W        W10007  19.578  15.795   0.930
37693W        W10008  27.261  26.303   1.174
37694W        W10009  23.957  35.419  13.878
37695W        W10010  44.856  18.528  12.890
37696W        W10011   7.722  38.300   0.910
37697W        W10012  25.066   2.860  11.160
37698W        W10013  29.632  14.917   3.250
37699W        W10014   8.751  13.748  12.191
37700W        W10015  10.081   5.243   0.311
37701W        W10016  10.845   5.162  13.355
37702W        W10017   6.442  30.233  12.961
37703W        W10018  37.607   9.831  14.268
37704W        W10019  35.035  32.437  14.959
37705W        W10020  35.256   8.205  11.719
37706W        W10021  23.546  31.295  12.571
37707W        W10022   6.838  42.361   3.338
37708W        W10023  14.489  42.719   2.575
37709W        W10024  23.654   3.854  14.920
37710W        W10025  40.576   4.836  10.779
37711W        W10026  32.563  41.061   2.852
37712W        W10027  29.899   0.757   1.326
37713W        W10028  41.930  33.335  14.455
37714W        W10029  43.570   2.164  12.571
37715W        W10030  28.943  33.902  11.946
37716W        W10031  21.406  36.610  14.244
37717W        W10032  30.164  29.020   3.880
37718W        W10033  43.009  43.139   2.840
37719W        W10034  15.121  39.981  10.701
37720W        W10035  43.013  23.681   4.814
37721W        W10036  14.598  31.491  12.949
37722W        W10037  12.633  43.550   4.142
37723W        W10038  28.648  21.266  13.385
37724W        W10039  42.334  24.956  11.027
37725W        W10040   4.327  17.694  13.499
37726W        W10041   9.761  24.728  14.836
37727W        W10042   6.165  29.616   1.454
37728W        W10043  38.280  15.432  12.108
37729W        W10044  44.449  37.277  13.793
37730W        W10045  26.251  38.920  11.525
37731W        W10046  39.166  30.998  13.903
37732W        W10047  41.160  15.884  10.376
37733W        W10048  41.573  26.830   4.254
37734W        W10049  28.145   7.615   3.226
37735W        W10050  34.277   8.736   3.526
37736W        W10051   6.196   5.487  13.535
37737W        W10052  10.242  36.054  10.638
37738W        W10053  23.282  23.057   2.365
37739W        W10054  25.751  30.037  13.131
37740W        W10055   5.129  38.018   4.465
37741W        W10056   6.957  41.930   4.539
37742W        W10057   4.466   2.111   4.359
37743W        W10058   8.794  37.755  10.706
37744W        W10059   5.695  16.517   2.362
37745W        W10060  26.849  21.310   2.124
37746W        W10061  32.405  38.454  11.594
37747W        W10062  17.974   8.203  10.282
37748W        W10063  17.193  38.846  13.505
37749W        W10064  13.984  38.596   3.348
37750W        W10065  36.531   3.708  10.914
37751W        W10066   3.295  24.463   1.140
37752W        W10067  16.150  14.118  12.005
37753W        W10068  38.685  18.346   3.131
37754W        W10069  30.577  13.290  10.688
37755W        W10070   3.287  39.836  12.442
37756W        W10071   3.631   2.619  12.935
37757W        W10072  10.959  29.840  14.830
37758W        W10073  21.228  27.079  12.080
37759W        W10074  15.500  42.516   3.864
37760W        W10075  11.272  21.304   1.871
37761W        W10076   7.621  34.358   4.044
37762W        W10077   5.240  21.135   0.795
37763W        W10078  14.365   0.871   2.680
37764W        W10079  34.438  32.965   1.234
37765W        W10080  12.879  40.822   1.346
37766W        W10081  14.308  21.029   1.303
37767W        W10082  29.681   8.299   2.914
37768W        W10083  43.658  32.806   4.195
37769W        W10084   4.253   6.680  13.531
37770W        W10085  43.012  33.847   0.722
37771W        W10086  18.732  24.191   4.651
37772W        W10087   8.432  27.666   2.810
37773W        W10088  26.630  11.286  11.959
37774W        W10089  16.796   9.879  13.010
37775W        W10090  20.793   0.792   2.817
37776W        W10091  24.223  35.642  11.727
37777W        W10092  24.503  13.796   0.551
37778W        W10093  44.636  15.501  14.325
37779W        W10094  17.412   0.006   0.517
37780W        W10095  26.903   5.507   0.561
37781W        W10096   2.847  26.145   2.814
37782W        W10097  17.208  34.126   0.411
37783W        W10098  17.299   0.275   1.859
37784W        W10099  30.706  21.101   3.395
37785W        W10100  38.957   2.403   1.321
37786W        W10101  19.206  12.622  14.807
37787W        W10102  29.570  22.300  13.159
37788W        W10103   7.748  19.604   3.154
37789W        W10104   7.690   3.602  13.387
37790W        W10105   4.346   1.426   1.242
37791W        W10106  14.585  10.760   0.888
37792W        W10107   7.962   1.920  11.926
37793W        W10108  39.139  37.892   0.880
37794W        W10109  20.298  40.363  12.514
37795W        W10110  17.198  22.530  13.903
37796W        W10111   2.073   2.250   2.797
37797W        W10112  15.035   4.425   3.645
37798W        W10113  33.664  44.402   3.175
37799W        W10114  36.284   9.456  11.389
37800W        W10115  37.036   3.363   1.480
37801W        W10116  31.123  17.582  14.388
37802W        W10117  13.766  43.213   3.737
37803W        W10118  19.141  26.009  10.483
37804W        W10119  36.308   3.829   3.031
37805W        W10120  23.009  29.563  11.148
37806W        W10121   5.900  39.036   3.923
37807W        W10122  14.095  17.837   0.286
37808W        W10123  34.044  33.448  11.487
37809W        W10124  16.665  35.251  13.819
37810W        W10125  18.343  29.900   1.966
37811W        W10126  35.512  43.756  11.976
37812W        W10127  38.840  23.988   3.794
37813W        W10128  17.551  35.466   0.211
37814W        W10129  44.565  30.584   1.926
37815W        W10130  24.665  33.951  11.953
37816W        W10131  12.726  16.167  11.059
37817W        W10132  40.989  30.927  10.702
37818W        W10133  36.858  20.562  13.971
37819W        W10134  26.411  21.946  14.256
37820W        W10135  33.668  35.352   3.370
37821W        W10136  25.101  26.147  13.507
37822W        W10137  36.948   4.790  12.657
37823W        W10138  17.947  44.276  13.152
37824W        W10139  23.612  32.625  10.745
37825W        W10140  39.591  23.495  13.962
37826W        W10141  26.236  13.214   3.312
37827W        W10142  40.621   7.174   1.971
37828W        W10143  13.906   3.767  12.112
37829W        W10144   1.876   8.668   4.894
37830W        W10145  14.495  25.345   1.343
37831W        W10146  31.048  40.875   0.655
37832W        W10147  38.369  16.066  11.124
37833W        W10148  31.690  36.855   1.773
37834W        W10149   9.613  17.074  10.922
37835W        W10150  35.905  29.408   3.944
37836W        W10151  21.192  15.765  11.183
37837W        W10152  40.012  20.988   0.930
37838W        W10153   5.922  40.060   1.790
37839W        W10154  29.131   4.653  12.017
37840W        W10155   5.219  26.657   2.423
37841W        W10156   6.286   1.200   0.792
37842W        W10157  10.960   7.915   0.152
37843W        W10158  13.313  14.531   2.916
37844W        W10159  43.398  12.770  13.483
37845W        W10160  18.016  31.389  11.070
37846W        W10161  36.050  28.893  12.098
37847W        W10162  13.644   0.548   2.828
37848W        W10163  40.153  41.801   2.367
37849W        W10164  34.774  44.387   2.222
37850W        W10165  32.766  32.987  11.360
37851W        W10166   7.676   3.216  14.593
37852W        W10167  41.536  24.707   1.806
37853W        W10168   0.789  39.915   4.114
37854W        W10169  13.135  20.532  10.548
37855W        W10170   6.407  31.578  12.962
37856W        W10171  20.516  36.974   0.674
37857W        W10172  16.984  33.036   3.574
37858W        W10173   1.247  41.082  13.579
37859W        W10174  29.518  25.008   0.680
37860W        W10175  41.088  23.565  12.108
37861W        W10176  23.762  10.953   4.612
37862W        W10177  10.646  31.921  14.746
37863W        W10178  17.295  42.001   4.403
37864W        W10179  40.336  43.506  13.044
37865W        W10180  12.937  23.732  12.115
37866W        W10181  11.834  25.643  12.682
37867W        W10182   1.095   4.396   4.158
37868W        W10183  38.250  35.410  13.925
37869W        W10184  34.810  15.802  14.751
37870W        W10185  27.127  23.506  12.057
37871W        W10186  15.352   8.148   1.236
37872W        W10187  43.482  37.573  10.259
37873W        W10188  26.650  12.090  10.673
37874W        W10189   8.611  22.765   2.776
37875W        W10190  34.952  24.729   1.689
37876W        W10191   1.328  30.565   3.416
37877W        W10192  31.815  21.216  10.531
37878W        W10193  44.863  18.854   3.947
37879W        W10194  18.698  10.299  11.010
37880W        W10195   5.237  36.755   3.217
37881W        W10196  12.420   6.369  11.801
37882W        W10197  11.333  41.863  13.652
37883W        W10198  11.273   5.697  12.901
37884W        W10199  16.808  21.149  13.750
37885W        W10200  14.741  39.108   3.843
37886W        W10201  43.305  24.176  11.787
37887W        W10202  18.393  23.417   4.468
37888W        W10203  25.465  24.114   1.671
37889W        W10204  16.323  15.983   2.048
37890W        W10205  33.103  13.258  10.754
37891W        W10206  37.348  16.141  11.220
37892W        W10207   0.405  32.807  13.088
37893W        W10208  36.263  20.671  11.134
37894W        W10209   2.235   7.988   4.967
37895W        W10210  14.726  11.153  14.479
37896W        W10211  32.402  16.341   4.198
37897W        W10212  13.653  24.285  13.404
37898W        W10213  22.290  19.286   9.762
37899W        W10214  15.324  14.556  12.944
37900W        W10215  26.092  13.651  11.939
37901W        W10216  33.401  33.488  12.938
37902W        W10217   1.440  10.388   0.627
37903W        W10218  41.383   7.916   1.218
37904W        W10219  39.395  37.516  13.902
37905W        W10220  35.973  12.596  12.007
37906W        W10221  28.245  23.574   3.516
37907W        W10222  31.069  13.879   1.672
37908W        W10223  23.466  13.429   4.977
37909W        W10224  16.507   9.128  10.352
37910W        W10225  43.057  28.604  14.873
37911W        W10226  44.902  23.155  12.939
37912W        W10227   7.543   0.807   3.670
37913W        W10228  13.625  14.104   4.823
37914W        W10229  38.311  13.270  10.757
37915W        W10230  39.254  18.987  13.125
37916W        W10231  14.231  11.969  14.263
37917W        W10232  26.086  31.503   3.114
37918W        W10233   0.252   1.781  14.768
37919W        W10234  37.418  16.568  14.525
37920W        W10235  15.627   7.270   0.895
37921W        W10236  43.565  21.637  13.818
37922W        W10237  41.486   6.578   4.360
37923W        W10238  38.540  21.716  14.940
37924W        W10239  28.652  21.681  14.522
37925W        W10240   0.463  38.162  13.366
37926W        W10241   1.720  35.448  13.412
37927W        W10242  15.655  36.007  10.037
37928W        W10243  33.014  23.728  14.981
37929W        W10244  38.451   9.833   2.128
37930W        W10245  14.828  21.813   2.344
37931W        W10246  42.256  17.463  14.583
37932W        W10247  11.591  29.957   2.363
37933W        W10248  21.649  21.528  14.354
37934W        W10249  43.939  20.585  11.154
37935W        W10250   8.190   2.538  10.589
37936W        W10251  33.523  25.635  11.411
37937W        W10252   8.890  10.653  10.740
37938W        W10253  40.303  27.118  11.964
37939W        W10254  26.613  17.338   2.567
37940W        W10255  26.005   3.476   0.993
37941W        W10256  39.748  23.998   0.875
37942W        W10257  44.728  44.257  11.157
37943W        W10258  12.186  43.821   0.527
37944W        W10259  23.701  24.246   1.116
37945W        W10260  27.638  10.755  12.691
37946W        W10261   1.327   3.729   1.172
37947W        W10262   4.927  25.749  10.674
37948W        W10263  28.745  39.838  11.070
37949W        W10264  14.540  17.058   1.956
37950W        W10265  34.840  26.770  10.251
37951W        W10266  43.440  14.389  11.702
37952W        W10267  41.466  41.931   4.638
37953W        W10268  43.074  10.865   1.364
37954W        W10269   9.625   7.393  10.564
37955W        W10270  18.559  33.584  13.854
37956W        W10271  17.969  35.375   0.515
37957W        W10272  44.490  36.526   2.328
37958W        W10273   2.020   0.889  12.549
37959W        W10274  17.642   7.214   4.077
37960W        W10275  42.820  37.534  11.480
37961W        W10276   6.755  42.021   1.864
37962W        W10277  26.084  20.707   4.734
37963W        W10278  19.079  32.429  11.143
37964W        W10279   7.184  30.604  12.529
37965W        W10280  27.972  17.629   1.521
37966W        W10281   3.892  17.617   4.154
37967W        W10282  41.937   1.336   3.186
37968W        W10283  22.047  39.388   1.402
37969W        W10284  28.276  21.997   3.893
37970W        W10285  15.279  30.527  13.909
37971W        W10286  15.099  10.071   3.157
37972W        W10287   8.313  17.287   3.572
37973W        W10288   5.310  24.855  11.616
37974W        W10289  27.601  42.271   0.770
37975W        W10290  25.182  18.518   1.172
37976W        W10291   0.672  29.018  14.400
37977W        W10292  22.043  43.247   3.332
37978W        W10293  29.535  42.831  10.274
37979W        W10294  37.081  43.980  13.500
37980W        W10295   5.094  34.136  14.014
37981W        W10296   8.305  20.312   0.754
37982W        W10297  35.024  37.639   2.279
37983W        W10298  37.447  14.637  12.405
37984W        W10299  15.817  30.048  12.559
37985W        W10300  19.939  44.776  11.132
37986W        W10301   3.334   2.317  11.761
37987W        W10302   8.204   0.543   2.123
37988W        W10303  34.702   6.677   3.687
37989W        W10304  16.213   0.188  11.303
37990W        W10305  14.222  40.795   2.783
37991W        W10306  37.958  12.667   3.738
37992W        W10307  16.749  29.114  14.937
37993W        W10308  41.307  27.061   4.668
37994W        W10309  12.558  31.882   2.351
37995W        W10310  12.706   0.328  10.940
37996W        W10311  28.521  20.567   4.985
37997W        W10312  32.126  22.209   2.979
37998W        W10313  31.589  16.475   1.335
37999W        W10314  10.261  24.970   0.452
38000W        W10315  35.439   0.390   1.336
38001W        W10316  14.858   4.885   1.243
38002W        W10317   1.400  25.578   4.750
38003W        W10318  30.107  39.964   4.589
38004W        W10319  12.465  36.448   3.255
38005W        W10320  12.486  10.905  10.770
38006W        W10321  29.468  10.189  14.905
38007W        W10322  26.716  33.412   1.357
38008W        W10323  36.534  28.624   1.042
38009W        W10324  30.380  28.834   0.362
38010W        W10325   3.698  16.565   2.200
38011W        W10326  34.101   5.594  10.667
38012W        W10327   9.729  16.600  12.066
38013W        W10328  21.870  15.021  13.030
38014W        W10329  35.633  42.064   0.948
38015W        W10330   0.849   5.478   4.029
38016W        W10331  44.644   8.147   3.185
38017W        W10332  15.275  35.503   0.317
38018W        W10333  25.237   0.393   1.151
38019W        W10334   8.266  25.620  13.065
38020W        W10335  38.629   8.804   0.070
38021W        W10336  33.305  43.235  14.674
38022W        W10337  18.138  33.360  12.860
38023W        W10338   5.330   0.892  10.982
38024W        W10339  44.444  13.157  10.550
38025W        W10340  33.007   3.644   1.447
38026W        W10341  29.648  25.943   2.186
38027W        W10342  31.008   0.356   0.523
38028W        W10343  12.053  26.077   2.777
38029W        W10344   0.320  34.731   4.380
38030W        W10345   0.043   3.356   1.207
38031W        W10346   6.979  18.691   2.761
38032W        W10347  44.500  14.153  14.982
38033W        W10348   3.546   6.415  11.038
38034W        W10349  34.363  25.499   2.579
38035W        W10350  44.267  37.552   2.920
38036W        W10351  25.200  13.254   3.091
38037W        W10352  28.614  36.806  14.713
38038W        W10353  15.146  39.117  10.448
38039W        W10354  24.674  22.828   1.689
38040W        W10355   3.382  34.145  11.054
38041W        W10356  23.597  27.016   4.307
38042W        W10357  23.423  19.543  13.119
38043W        W10358  21.428  32.499  10.618
38044W        W10359  39.331  23.211   0.456
38045W        W10360  40.318   9.712  14.694
38046W        W10361  10.350  11.023   2.919
38047W        W10362   3.593  10.293  11.839
38048W        W10363  25.207   4.030  11.631
38049W        W10364  20.785   3.498   2.924
38050W        W10365   4.374  34.075   0.989
38051W        W10366   8.717  21.032   3.354
38052W        W10367   6.212  14.255   5.342
38053W        W10368  23.244  12.895   4.089
38054W        W10369  23.083  13.703  14.511
38055W        W10370  18.082  18.733  10.599
38056W        W10371  43.232  21.761  14.199
38057W        W10372  28.895  22.739  13.561
38058W        W10373  24.064  32.000   1.211
38059W        W10374  22.713   0.787   1.885
38060W        W10375  10.095  36.138  12.929
38061W        W10376  23.295  34.530  12.942
38062W        W10377   4.262  40.796   4.069
38063W        W10378  23.947   3.925   0.350
38064W        W10379  33.855   3.400   2.364
38065W        W10380   8.605   7.778   2.830
38066W        W10381  26.513  13.161   4.557
38067W        W10382   0.551   0.231   3.513
38068W        W10383   2.809  22.688   1.185
38069W        W10384  39.881   8.829  13.035
38070W        W10385  23.655  18.738  12.165
38071W        W10386  14.747   7.901  11.261
38072W        W10387  41.771   1.014   1.223
38073W        W10388  29.992   9.639   0.281
38074W        W10389   5.796  25.705  14.392
38075W        W10390  33.586  44.959  12.463
38076W        W10391  42.405   0.427  14.952
38077W        W10392   8.416  39.062  12.503
38078W        W10393  10.734  29.958   4.813
38079W        W10394  13.157  35.295   1.364
38080W        W10395  14.744  43.274   4.100
38081W        W10396  25.652  37.884  10.416
38082W        W10397  33.803  41.121   4.465
38083W        W10398  30.791  25.570   1.795
38084W        W10399  25.070   3.732  13.060
38085W        W10400  23.981  24.535  13.968
38086W        W10401  40.248  37.296  12.971
38087W        W10402   6.685  27.082   4.144
38088W        W10403  31.358   5.576   4.105
38089W        W10404  35.228  13.598  11.100
38090W        W10405   1.272  29.361   2.268
38091W        W10406   7.821  34.785  10.200
38092W        W10407   7.312  23.732   4.157
38093W        W10408  25.511  33.797   5.302
38094W        W10409  26.590  39.586   3.121
38095W        W10410  10.700   0.356  13.071
38096W        W10411  37.891   0.021  13.960
38097W        W10412  18.182  13.568   3.688
38098W        W10413  19.506  43.041   3.734
38099W        W10414   9.134  32.471   1.301
38100W        W10415  23.438   1.340   3.287
38101W        W10416  26.966  38.566   2.228
38102W        W10417  16.053   4.479  11.240
38103W        W10418   4.217  21.667   0.223
38104W        W10419  39.264  35.523   1.776
38105W        W10420  33.582  32.844  10.818
38106W        W10421  28.314  17.285  10.657
38107W        W10422  40.434  15.247  10.756
38108W        W10423  12.662   8.746   0.852
38109W        W10424  30.296   0.333  13.891
38110W        W10425  26.372   5.275   4.043
38111W        W10426  13.149  43.836   2.644
38112W        W10427   6.282  22.514  10.652
38113W        W10428  40.993  33.863  13.048
38114W        W10429  18.768  15.398  13.117
38115W        W10430  25.739  28.038   0.740
38116W        W10431   8.252  17.279  14.739
38117W        W10432  40.489  26.071   2.809
38118W        W10433  10.764   9.465  11.955
38119W        W10434   2.285  27.997   3.652
38120W        W10435  20.603   9.286  12.825
38121W        W10436  20.612   5.271   3.929
38122W        W10437  40.956  22.508  14.302
38123W        W10438  36.479  32.832   1.512
38124W        W10439   1.893  35.294  11.704
38125W        W10440  18.841  14.018   4.143
38126W        W10441  44.924  34.329   2.792
38127W        W10442   0.771  17.641  14.896
38128W        W10443   2.006  36.050   2.192
38129W        W10444  21.196   8.235   3.110
38130W        W10445  23.548   1.282  14.774
38131W        W10446  29.532  13.467   4.332
38132W        W10447  35.915   7.628   1.986
38133W        W10448  19.570  12.113  11.881
38134W        W10449  40.616  33.673   2.248
38135W        W10450  31.056  38.824   1.450
38136W        W10451   7.159  34.998  11.261
38137W        W10452  20.091  37.144  13.485
38138W        W10453  25.954  41.867   0.478
38139W        W10454  11.076  35.353   2.870
38140W        W10455  18.250  16.071   0.189
38141W        W10456  41.462  38.804  13.945
38142W        W10457  22.991  36.319  11.672
38143W        W10458  30.101  15.140   3.648
38144W        W10459  31.126  19.609   4.521
38145W        W10460  39.063  33.534   2.341
38146W        W10461  40.105  24.246   4.790
38147W        W10462  44.838  42.765  13.686
38148W        W10463  10.979  25.594  12.784
38149W        W10464  25.071  21.630  11.111
38150W        W10465  30.034  15.204  10.910
38151W        W10466  13.151   6.404   0.005
38152W        W10467  34.083  33.646   4.608
38153W        W10468  20.891  42.805  13.850
38154W        W10469  32.532   6.612   3.966
38155W        W10470  43.143  10.911   3.536
38156W        W10471   5.398  25.595   4.395
38157W        W10472  29.890  25.622  12.107
38158W        W10473   3.458  15.701  13.416
38159W        W10474   5.189   4.099   0.894
38160W        W10475  41.489  13.409  12.883
38161W        W10476  25.041  37.615  13.286
38162W        W10477  37.419   3.929  12.391
38163W        W10478  10.226  13.098  13.102
38164W        W10479  26.280  39.892   3.402
38165W        W10480  37.495   2.122   0.247
38166W        W10481  24.071  34.647  11.494
38167W        W10482  13.880  13.784   3.974
38168W        W10483  11.312  18.101  10.301
38169W        W10484  12.532  15.084  11.418
38170W        W10485  23.299   0.767  12.024
38171W        W10486  11.840   6.984  14.062
38172W        W10487  13.721   2.844   2.270
38173W        W10488  41.886  30.247   1.927
38174W        W10489  39.562  18.042   2.858
38175W        W10490  22.035  15.430  11.124
38176W        W10491  30.586  35.886  14.907
38177W        W10492  27.612  30.875  11.018
38178W        W10493  43.502  43.419  10.668
38179W        W10494  18.315  11.770  13.954
38180W        W10495  20.262  22.229  13.864
38181W        W10496  15.263  40.443  13.035
38182W        W10497  14.023  14.596   2.491
38183W        W10498  18.723   1.062   5.120
38184W        W10499  21.889  25.371  11.182
38185W        W10500  32.006  23.472   4.585
38186W        W10501  37.031   8.576  14.566
38187W        W10502  40.740  41.151   3.323
38188W        W10503  13.886   8.480   4.067
38189W        W10504  37.921   3.760  13.702
38190W        W10505  32.386  37.998   3.239
38191W        W10506   4.214  38.529  13.782
38192W        W10507  32.049  31.289   4.319
38193W        W10508  25.718   8.884   3.155
38194W        W10509  44.886  16.675   4.576
38195W        W10510  12.230  11.928   2.750
38196W        W10511  39.840  36.331  12.537
38197W        W10512  25.077  31.399  12.527
38198W        W10513  37.335  24.126  14.350
38199W        W10514  43.818   2.431   2.224
38200W        W10515  33.173  10.336  14.395
38201W        W10516   4.681  34.313  10.313
38202W        W10517  25.393  43.089   0.389
38203W        W10518  35.175  17.208   2.589
38204W        W10519   7.385  31.285  13.783
38205W        W10520  31.167  18.096  14.303
38206W        W10521  28.885  43.025  13.883
38207W        W10522  28.940  28.592  12.037
38208W        W10523  11.401   7.329   2.503
38209W        W10524  12.655   2.385  14.722
38210W        W10525   9.182  14.195  14.323
38211W        W10526   3.846  29.344  12.611
38212W        W10527  15.838   2.227   1.739
38213W        W10528  24.649  12.634   0.880
38214W        W10529   4.362  27.025   1.398
38215W        W10530  14.060  21.144  14.457
38216W        W10531  34.620  28.770  14.384
38217W        W10532  38.445  27.180   0.378
38218W        W10533  11.304  33.034   0.464
38219W        W10534  41.942  42.269  13.005
38220W        W10535  42.682  18.617   0.116
38221W        W10536   7.288  26.801   4.213
38222W        W10537  13.022  41.358  12.221
38223W        W10538  34.360   7.437   0.325
38224W        W10539   4.429  36.482  14.931
38225W        W10540  38.027  19.103   3.889
38226W        W10541   5.347   4.362  13.596
38227W        W10542  41.613  38.011  11.926
38228W        W10543  38.557  36.702  10.992
38229W        W10544  44.373  13.356  11.465
38230W        W10545   0.225   6.262   2.850
38231W        W10546   6.150   7.184   1.897
38232W        W10547  27.104   7.209  10.432
38233W        W10548   2.353  33.497  14.235
38234W        W10549   8.021  35.323  11.070
38235W        W10550  18.501  27.962  12.342
38236W        W10551  39.085  38.907   1.969
38237W        W10552  25.575  11.222   4.603
38238W        W10553  24.759   5.457  11.350
38239W        W10554  20.226  27.208  11.172
38240W        W10555  22.143  17.848  13.418
38241W        W10556  20.114  41.587   4.614
38242W        W10557  10.771  13.110  11.867
38243W        W10558   6.187   8.353   4.638
38244W        W10559  29.544  22.405   2.731
38245W        W10560   8.497   1.916  11.999
38246W        W10561  34.392   2.904   2.902
38247W        W10562  18.716  22.051  14.997
38248W        W10563  17.244  38.281  11.615
38249W        W10564   7.785  15.617  14.370
38250W        W10565   1.289  21.003  14.360
38251W        W10566  29.453  34.163  10.276
38252W        W10567   9.263   4.686   4.583
38253W        W10568   8.670  20.994   2.450
38254W        W10569  24.561  35.130  13.366
38255W        W10570  44.279   8.833   4.711
38256W        W10571  34.804  37.105   3.099
38257W        W10572  14.414   9.834  14.466
38258W        W10573  42.966  35.220  13.277
38259W        W10574  16.356   1.865   2.600
38260W        W10575  22.584   8.396   1.176
38261W        W10576  21.020  44.208  10.766
38262W        W10577  33.953  23.926  11.366
38263W        W10578   6.687  37.090  13.456
38264W        W10579  25.287  31.039  12.901
38265W        W10580  18.663  36.629  14.917
38266W        W10581   0.837   4.160   4.561
38267W        W10582  19.721  34.880   2.257
38268W        W10583  13.045  41.828  11.508
38269W        W10584  42.562  28.574  12.209
38270W        W10585  14.607  44.910   1.768
38271W        W10586  21.419  20.060   0.550
38272W        W10587  21.169  22.190   4.277
38273W        W10588  28.878  33.535   9.735
38274W        W10589  27.556  35.419  10.697
38275W        W10590  26.239  38.423   1.441
38276W        W10591  39.436   7.497   0.962
38277W        W10592  13.494  42.827   3.152
38278W        W10593  16.621  32.111  14.012
38279W        W10594  23.790  42.191   0.254
38280W        W10595  22.115  31.903   0.076
38281W        W10596  34.471   7.146  12.984
38282W        W10597  27.622   6.463  12.409
38283W        W10598  11.881  34.604  13.833
38284W        W10599  16.764  28.132  13.040
38285W        W10600  18.148  38.535   4.762
38286W        W10601  16.610  20.028   3.662
38287W        W10602   1.086  11.691   2.429
38288W        W10603  15.274  33.176   3.892
38289W        W10604  29.505   9.468   4.583
38290W        W10605  11.104  32.016  14.046
38291W        W10606   1.958  39.645  13.962
38292W        W10607  27.196  29.574   4.534
38293W        W10608  20.472  32.007   2.845
38294W        W10609  15.555  10.402   4.899
38295W        W10610  14.602  16.556  14.286
38296W        W10611  44.294  28.638   3.990
38297W        W10612   2.443  28.440   1.855
38298W        W10613  21.209  13.649   4.694
38299W        W10614   4.323  34.968  11.575
38300W        W10615  29.948  12.179   1.318
38301W        W10616  35.961  24.005   1.266
38302W        W10617  25.420  17.569   0.275
38303W        W10618  33.933  18.218   4.134
38304W        W10619  35.815  14.640  12.470
38305W        W10620  37.736  42.727   0.429
38306W        W10621  22.082  31.592  13.899
38307W        W10622   2.436  38.730   1.899
38308W        W10623  40.361  36.050   2.199
38309W        W10624  17.472  25.533   4.014
38310W        W10625   3.398  39.419  14.509
38311W        W10626  18.210   5.250  14.774
38312W        W10627  16.436  21.520   3.055
38313W        W10628  29.618  16.336   2.358
38314W        W10629  16.711  40.655   4.054
38315W        W10630   2.668  36.400  14.336
38316W        W10631   3.234  28.263   3.659
38317W        W10632  27.172  39.427   3.311
38318W        W10633  19.720  37.994  12.446
38319W        W10634   7.834  21.119  11.060
38320W        W10635  36.046  22.255  13.752
38321W        W10636  24.221  39.215   0.487
38322W        W10637  41.529  30.604   3.181
38323W        W10638  34.105  24.748   1.318
38324W        W10639  29.107  28.096  13.691
38325W        W10640   8.314  39.809   0.346
38326W        W10641   7.664  15.562  13.493
38327W        W10642  30.452  39.652   0.422
38328W        W10643  11.397  21.781  12.220
38329W        W10644  35.352  32.492   3.121
38330W        W10645  24.564  16.351   0.659
38331W        W10646  29.591   2.287  11.596
38332W        W10647   2.649   5.208   4.157
38333W        W10648  11.710  36.483   0.940
38334W        W10649   6.479  17.593   4.174
38335W        W10650  38.140   3.482  12.870
38336W        W10651   2.194  42.963   0.831
38337W        W10652  27.105  14.750   2.217
38338W        W10653  25.100   3.393  14.344
38339W        W10654  36.565   8.646  13.871
38340W        W10655  25.493  31.111   2.769
38341W        W10656   3.520  12.635   4.251
38342W        W10657  44.418  20.743  12.502
38343W        W10658  16.739  26.999  14.478
38344W        W10659  33.395  32.517  11.212
38345W        W10660  28.055  34.865  10.578
38346W        W10661   5.948   3.814  14.219
38347W        W10662  36.818  23.047   3.640
38348W        W10663   1.861  16.558   3.589
38349W        W10664  16.695  11.316   3.349
38350W        W10665  33.855  26.433   0.416
38351W        W10666  10.120  32.973   2.657
38352W        W10667  25.736  24.021   0.205
38353W        W10668  12.902   6.249   0.434
38354W        W10669  31.602  10.144  11.062
38355W        W10670  28.699   0.848  11.993
38356W        W10671  18.832  16.117  11.219
38357W        W10672  11.133  23.519   2.569
38358W        W10673  29.171   8.306   1.718
38359W        W10674  12.805  12.675  14.479
38360W        W10675  11.806  20.761   4.358
38361W        W10676  14.914   6.945   0.534
38362W        W10677  21.150   6.313   2.637
38363W        W10678  42.784  33.357   0.730
38364W        W10679   3.432  33.002   1.353
38365W        W10680   5.707   0.348   2.331
38366W        W10681  23.462   3.246   3.261
38367W        W10682  29.398  34.359   4.986
38368W        W10683   0.201  23.129  13.401
38369W        W10684   0.483  18.569  10.841
38370W        W10685  42.586  21.548  11.820
38371W        W10686   6.157  33.393  11.160
38372W        W10687   2.046   5.242  14.984
38373W        W10688  33.515  10.744  13.957
38374W        W10689   1.577  12.274   0.815
38375W        W10690  34.390  18.561   1.884
38376W        W10691  17.272   8.192   1.607
38377W        W10692  27.183  33.909   0.893
38378W        W10693   1.953  13.521  14.858
38379W        W10694   3.724  19.034  10.948
38380W        W10695  27.489  20.976  14.919
38381W        W10696   3.503   8.015   3.262
38382W        W10697  11.583  18.454   0.326
38383W        W10698  14.784   1.436  14.999
38384W        W10699   8.920  18.600   4.163
38385W        W10700  18.600   2.284  10.723
38386W        W10701  40.474  40.331   1.271
38387W        W10702  13.643  43.016  10.552
38388W        W10703   3.132  32.442  12.134
38389W        W10704  31.496  13.391   0.251
38390W        W10705  38.993  10.655  14.081
38391W        W10706   0.440  38.274   3.179
38392W        W10707   1.322  12.712  12.377
38393W        W10708  38.530   1.051   1.683
38394W        W10709   8.019  27.137  14.865
38395W        W10710  25.560  35.020  14.523
38396W        W10711  14.570  37.765  13.856
38397W        W10712  23.084   8.869   4.219
38398W        W10713  13.432  30.910   2.173
38399W        W10714  33.642  13.657  14.291
38400W        W10715  25.665  24.626  11.151
38401W        W10716  43.623  13.059  13.101
38402W        W10717  13.639  24.041   4.201
38403W        W10718  36.449  32.214   0.819
38404W        W10719  24.704  10.640   1.361
38405W        W10720  37.939  40.821   1.085
38406W        W10721  13.143  38.078  10.735
38407W        W10722  39.485   5.064  12.945
38408W        W10723  16.572  17.573   3.678
38409W        W10724  37.010  16.880   0.779
38410W        W10725  41.548  21.252  12.652
38411W        W10726  32.436  16.122   3.728
38412W        W10727   1.308  18.703   1.780
38413W        W10728  25.420   4.926  11.477
38414W        W10729  18.686  26.223   2.507
38415W        W10730  18.750   6.166   1.259
38416W        W10731  39.598  35.156  13.970
38417W        W10732  14.260  15.170   1.864
38418W        W10733   2.702   2.974  11.524
38419W        W10734  10.059  26.559  12.608
38420W        W10735  43.356  29.047  12.905
38421W        W10736  37.742  10.869  14.344
38422W        W10737   5.831   9.762   3.961
38423W        W10738  35.925  31.654  12.571
38424W        W10739   7.302  10.406  12.875
38425W        W10740  12.855  42.303  10.648
38426W        W10741  10.558  31.005  13.173
38427W        W10742  24.018   5.445   0.207
38428W        W10743  14.863  36.518  14.947
38429W        W10744   5.925  33.604  14.999
38430W        W10745  39.851  17.643   2.982
38431W        W10746   5.174  10.290   1.924
38432W        W10747  25.210   9.362  11.625
38433W        W10748   0.606  38.316  12.379
38434W        W10749  24.717   9.304   2.732
38435W        W10750   3.781  39.747  11.640
38436W        W10751  17.778  40.373   1.108
38437W        W10752  26.055  28.593   4.653
38438W        W10753  17.218  28.050   0.705
38439W        W10754  18.150  14.645   4.387
38440W        W10755  21.336  12.434   1.503
38441W        W10756  31.438  28.683   2.805
38442W        W10757   4.524  10.351   3.281
38443W        W10758  44.440   9.661  12.120
38444W        W10759   2.582   6.696  11.460
38445W        W10760  13.717  24.434  14.412
38446W        W10761  37.935  42.972   1.862
38447W        W10762  25.165  32.828   4.327
38448W        W10763  25.192  44.317   4.605
38449W        W10764  10.414   9.926  13.601
38450W        W10765  29.889  32.542   1.432
38451W        W10766   8.175  17.827  11.113
38452W        W10767  21.174  41.631   2.255
38453W        W10768  15.798  11.604  11.561
38454W        W10769  27.428   0.815  12.811
38455W        W10770  34.028  43.863   4.634
38456W        W10771  28.521   0.175   4.389
38457W        W10772   0.678  22.370   2.186
38458W        W10773  27.507  19.656  14.871
38459W        W10774  24.338  28.588  10.407
38460W        W10775  30.768  17.482  13.462
38461W        W10776  38.293  30.527  14.762
38462W        W10777  27.757   8.234  14.444
38463W        W10778  17.148   3.314   4.544
38464W        W10779  34.432  22.612  14.261
38465W        W10780  14.758  29.633   5.167
38466W        W10781  31.503  23.889  10.760
38467W        W10782   7.639  30.352  12.451
38468W        W10783  15.388   3.095   2.744
38469W        W10784   1.234  36.638  11.545
38470W        W10785  38.021  37.370  12.728
38471W        W10786  44.519  20.064  13.917
38472W        W10787   2.272  28.873  12.138
38473W        W10788   0.815   5.422  12.789
38474W        W10789  29.059  14.709   3.143
38475W        W10790  30.260  28.162  11.333
38476W        W10791  16.295  11.062   3.152
38477W        W10792   3.408  10.249  14.889
38478W        W10793  29.295  33.899   2.330
38479W        W10794  14.366  13.626   3.851
38480W        W10795  35.061  12.359   2.421
38481W        W10796  30.126  27.014   4.899
38482W        W10797   3.334  21.431   1.756
38483W        W10798  16.123  25.162   2.666
38484W        W10799  32.464  32.979  14.904
38485W        W10800  33.054   3.670  11.480
38486W        W10801   4.977  40.821   4.451
38487W        W10802  30.762  28.874  14.352
38488W        W10803   3.702  40.257   4.594
38489W        W10804   2.592  16.624  11.564
38490W        W10805   9.889   9.119  13.083
38491W        W10806  36.243   8.910   3.259
38492W        W10807  25.465  30.346  14.447
38493W        W10808  21.967  40.981   1.328
38494W        W10809  21.537  25.691  13.922
38495W        W10810  34.838   9.366  12.033
38496W        W10811  19.762  17.535   4.305
38497W        W10812  25.875  37.773   1.910
38498W        W10813  32.407  18.889   3.327
38499W        W10814   1.824  41.582  14.987
38500W        W10815  24.021  22.033  10.067
38501W        W10816   8.412  14.938  11.617
38502W        W10817  34.655  13.445  12.916
38503W        W10818  30.623  40.809   1.942
38504W        W10819  18.752  41.083   3.547
38505W        W10820  21.231  32.054   2.225
38506W        W10821  34.526  41.281   0.358
38507W        W10822   2.380  38.890  14.858
38508W        W10823  17.698  14.719  13.370
38509W        W10824  25.150  39.445  12.775
38510W        W10825   7.361   0.136   2.721
38511W        W10826  27.979  12.723   0.674
38512W        W10827  27.987   8.616  14.701
38513W        W10828  44.744  11.738  13.820
38514W        W10829   1.715   6.259   4.716
38515W        W10830  10.779  13.716   4.853
38516W        W10831  33.568  31.134  14.830
38517W        W10832  28.081   3.133  10.668
38518W        W10833  12.419   8.566   3.745
38519W        W10834  28.408  33.298   4.978
38520W        W10835  44.489  32.121  14.836
38521W        W10836  43.213  39.991  14.723
38522W        W10837  19.791  22.375   2.227
38523W        W10838   5.635  14.323   1.451
38524W        W10839  27.208  32.068   1.336
38525W        W10840  27.765  15.527   3.274
38526W        W10841   6.642   5.800  13.857
38527W        W10842  44.951  28.154   0.393
38528W        W10843  10.167  39.327   1.857
38529W        W10844   4.412   8.107   3.678
38530W        W10845  36.084   6.891  13.400
38531W        W10846  25.100   0.251   4.933
38532W        W10847  37.975  36.436   2.123
38533W        W10848  28.485  25.036   3.795
38534W        W10849  18.597  38.864   0.373
38535W        W10850  38.806  42.552   4.621
38536W        W10851   1.989  34.337  12.407
38537W        W10852   7.193  22.579  14.340
38538W        W10853  23.149  41.260  11.567
38539W        W10854  41.404  44.706   4.829
38540W        W10855   2.211   9.203   0.495
38541W        W10856  36.635   1.798   4.063
38542W        W10857   2.872   1.460  12.574
38543W        W10858  24.767  34.589   0.399
38544W        W10859   8.673  14.184  14.358
38545W        W10860   4.895  27.226  13.025
38546W        W10861  21.486  29.419   0.019
38547W        W10862  27.575  41.008   3.640
38548W        W10863   6.283  26.172   2.554
38549W        W10864  19.787  39.776  12.883
38550W        W10865  42.472  25.865   4.020
38551W        W10866  43.445  24.575   1.181
38552W        W10867  22.805  21.114  14.440
38553W        W10868  37.772   7.549   1.283
38554W        W10869  14.862   9.718   1.341
38555W        W10870  23.756  17.619   3.707
38556W        W10871   6.740  25.771   0.296
38557W        W10872   8.722  28.107   0.048
38558W        W10873   0.904  28.522  14.722
38559W        W10874  21.356  34.153   1.225
38560W        W10875  18.508  43.291  14.749
38561W        W10876  44.278   4.509   0.779
38562W        W10877  20.141  38.622  14.294
38563W        W10878  26.942  32.396  13.835
38564W        W10879  20.601  24.105   3.375
38565W        W10880  44.438   1.221  11.017
38566W        W10881   4.476  24.163   4.074
38567W        W10882  40.483  29.199  12.364
38568W        W10883  30.968   9.245  11.673
38569W        W10884  18.593  33.066   4.211
38570W        W10885  43.914  38.111  10.699
38571W        W10886  16.185  27.499  11.218
38572W        W10887   3.777  28.551  11.471
38573W        W10888  44.747  27.397  14.882
38574W        W10889   3.626  32.127  11.030
38575W        W10890  10.904  20.162  11.415
38576W        W10891   9.326  34.209   4.951
38577W        W10892  18.111  18.477   4.438
38578W        W10893  19.665   6.092  13.087
38579W        W10894  34.344   7.866  13.467
38580W        W10895  17.151  17.660  12.671
38581W        W10896  26.645  35.695  13.008
38582W        W10897  26.052   3.913   4.548
38583W        W10898  21.694  36.808   0.177
38584W        W10899  30.382  20.689   3.261
38585W        W10900   3.692  23.063   4.418
38586W        W10901  12.820  10.282  11.508
38587W        W10902  26.381   7.756  11.081
38588W        W10903  24.085  26.238  13.892
38589W        W10904  34.037  17.323  13.670
38590W        W10905  11.328  43.249   2.752
38591W        W10906  23.004  43.105  10.547
38592W        W10907  28.420   1.504   2.303
38593W        W10908  16.757  24.052  14.881
38594W        W10909  34.895  41.245  12.016
38595W        W10910  44.332  15.383   4.731
38596W        W10911  15.728  10.358  13.779
38597W        W10912  40.350   8.456   0.436
38598W        W10913  35.578  39.827   0.821
38599W        W10914  39.441   8.898  11.375
38600W        W10915  28.545  39.831   4.598
38601W        W10916  22.674  20.121  11.179
38602W        W10917  14.055  19.000  10.781
38603W        W10918  18.988  44.991  12.598
38604W        W10919  31.964  18.780  13.552
38605W        W10920  43.797  16.729   4.580
38606W        W10921  44.534   3.300   4.215
38607W        W10922  36.028  27.970  10.664
38608W        W10923  36.096  16.075  11.941
38609W        W10924  38.941  15.701   0.998
38610W        W10925  11.816   7.649  14.068
38611W        W10926  13.943   9.393  13.838
38612W        W10927  21.287  21.086   9.827
38613W        W10928  23.977  14.850  13.788
38614W        W10929  20.583  27.525   2.403
38615W        W10930  38.928  31.600   2.708
38616W        W10931  18.022  27.446   3.822
38617W        W10932  10.314   0.961   3.120
38618W        W10933  19.846  26.062  10.316
38619W        W10934  11.823  24.975  12.013
38620W        W10935  31.708  12.229   0.326
38621W        W10936  13.074  15.640   2.211
38622W        W10937   7.313  10.341  10.868
38623W        W10938  30.193   7.238  10.719
38624W        W10939  19.795  39.761   2.797
38625W        W10940   7.732  27.901   1.810
38626W        W10941  30.631  33.135  12.909
38627W        W10942  37.513  27.930   2.872
38628W        W10943  34.573  11.150   3.683
38629W        W10944  12.526  24.621  11.590
38630W        W10945  20.895  30.785   4.158
38631W        W10946  31.511   2.886  11.544
38632W        W10947  10.852  15.743  10.292
38633W        W10948   1.834  41.285   2.690
38634W        W10949  21.594  19.539  11.129
38635W        W10950   5.852   9.085   1.307
38636W        W10951  39.508  31.384   1.840
38637W        W10952  23.747  20.624  12.038
38638W        W10953  31.031   6.374   1.145
38639W        W10954  23.985   2.547   1.031
38640W        W10955  28.299   9.800  12.059
38641W        W10956   3.398   5.689   3.585
38642W        W10957   1.709   8.943   0.843
38643W        W10958   2.865  33.410  12.084
38644W        W10959   3.200  38.854  12.415
38645W        W10960   2.796  24.422   4.649
38646W        W10961   8.660  33.983  13.770
38647W        W10962   6.309  16.570  13.361
38648W        W10963  41.212  10.609  14.304
38649W        W10964  39.691  40.061   1.396
38650W        W10965  12.150   8.622   4.602
38651W        W10966  26.058  21.974   3.227
38652W        W10967  15.754  17.340   1.362
38653W        W10968   5.280  42.986   4.532
38654W        W10969  20.197  35.783  12.311
38655W        W10970  17.237  14.611  10.890
38656W        W10971  11.228  44.215   0.442
38657W        W10972  19.081  34.046   1.326
38658W        W10973  21.515  31.582  10.576
38659W        W10974  26.420  31.944  11.622
38660W        W10975  30.230  27.485   0.261
38661W        W10976  40.259  32.453   4.654
38662W        W10977   5.780  42.576   2.331
38663W        W10978  35.787  36.058  11.530
38664W        W10979   7.726  25.397   2.806
38665W        W10980  30.385  44.713  12.934
38666W        W10981  37.662  18.716   3.963
38667W        W10982  44.436  28.686   1.859
38668W        W10983  29.128  10.771   1.433
38669W        W10984  13.589   0.417  13.552
38670W        W10985  28.538  11.370   1.330
38671W        W10986  25.143   9.380   1.249
38672W        W10987  17.663  29.676  13.569
38673W        W10988  41.645  14.739  13.375
38674W        W10989  22.036  34.706  10.832
38675W        W10990   3.240  11.593   2.694
38676W        W10991  39.867  37.379  13.736
38677W        W10992   2.912  25.427   2.320
38678W        W10993   4.743  42.218   5.064
38679W        W10994   2.481  25.654  13.679
38680W        W10995  24.874  17.570   0.248
38681W        W10996  12.746  41.706   3.711
38682W        W10997  25.079  34.413   3.665
38683W        W10998   1.694  11.836  14.699
38684W        W10999  43.339  12.197  10.920
38685W        W11000   6.565   3.343   0.495
38686W        W11001  25.900  20.716   3.824
38687W        W11002  40.308  34.450   0.341
38688W        W11003   2.252  11.157   4.968
38689W        W11004  43.485   9.261   0.801
38690W        W11005  44.838   7.350   3.468
38691W        W11006  36.513  12.152  14.765
38692W        W11007  22.174  14.533   1.002
38693W        W11008  13.908   6.906   0.547
38694W        W11009   9.861  26.709  10.723
38695W        W11010   3.766   5.835   0.836
38696W        W11011  31.093  14.796  10.641
38697W        W11012  11.175  16.095  10.581
38698W        W11013  21.126  27.874   3.203
38699W        W11014  31.464  19.185   2.961
38700W        W11015  44.444  33.508   1.826
38701W        W11016  25.051   8.888   1.966
38702W        W11017   0.722  39.818  12.366
38703W        W11018   0.066  12.534   5.051
38704W        W11019   5.870  44.041   4.562
38705W        W11020  25.824  26.335  14.189
38706W        W11021  29.384  32.014  13.894
38707W        W11022  10.994  21.135   4.244
38708W        W11023   6.332  18.052  11.077
38709W        W11024   6.729  31.531   0.157
38710W        W11025   2.915  17.845   4.390
38711W        W11026  13.675  43.523  13.469
38712W        W11027  31.579  37.957   2.481
38713W        W11028  31.923   1.400  14.538
38714W        W11029   7.384  44.414   0.473
38715W        W11030   4.757  40.021  13.441
38716W        W11031  27.525  17.129   4.185
38717W        W11032   7.335  26.946   1.873
38718W        W11033  27.697   7.341  11.798
38719W        W11034  25.583  18.394   1.866
38720W        W11035  15.518   1.772   4.665
38721W        W11036  21.705  20.734  12.884
38722W        W11037  16.747  34.899   2.933
38723W        W11038  25.679   8.151  13.955
38724W        W11039  12.237  39.830  13.762
38725W        W11040  35.310  17.648   0.783
38726W        W11041   2.326  21.778  10.698
38727W        W11042  41.456  25.168   0.332
38728W        W11043   3.713   2.041   1.753
38729W        W11044  36.056  10.823  12.521
38730W        W11045  44.392   3.082  11.971
38731W        W11046  38.047  38.590  11.726
38732W        W11047  27.447  39.280  12.468
38733W        W11048  13.066  29.555  10.810
38734W        W11049  25.285  24.480   0.819
38735W        W11050  15.984  23.055  12.132
38736W        W11051  21.847  30.278  12.118
38737W        W11052   3.888   9.495   0.443
38738W        W11053  37.692  25.169  10.680
38739W        W11054  29.931  41.537   1.850
38740W        W11055  10.341  21.241   0.475
38741W        W11056  25.437  36.394   0.671
38742W        W11057  10.270  11.359  11.130
38743W        W11058   8.181  30.696  14.632
38744W        W11059  25.395  10.301  11.126
38745W        W11060  16.268  17.777   3.246
38746W        W11061  15.368  39.879  11.182
38747W        W11062  17.997  32.935   3.719
38748W        W11063  24.112   6.126   0.698
38749W        W11064   9.863  25.228  13.471
38750W        W11065  41.201  25.602   2.917
38751W        W11066  33.540  13.919   2.585
38752W        W11067  19.059  22.518   4.598
38753W        W11068  12.207  19.807   4.583
38754W        W11069  27.113   3.047  14.495
38755W        W11070  26.749   3.295   4.216
38756W        W11071   4.360  21.274   4.614
38757W        W11072  10.435  43.445  10.644
38758W        W11073   7.387  42.843   4.802
38759W        W11074  25.398  27.723   3.023
38760W        W11075  29.367  39.471   3.757
38761W        W11076   5.819  37.382   1.303
38762W        W11077  34.957   0.696   1.386
38763W        W11078  31.858  13.692   0.480
38764W        W11079   2.742  24.576  10.619
38765W        W11080  22.712  18.687   3.532
38766W        W11081  36.922  11.221   1.374
38767W        W11082  13.343   9.875  13.420
38768W        W11083  23.025  36.370   1.968
38769W        W11084  41.480  23.240  13.519
38770W        W11085  41.078  13.108  12.090
38771W        W11086   2.104   6.688   3.990
38772W        W11087  42.651   2.990   3.110
38773W        W11088  25.526  34.292   2.096
38774W        W11089  44.524   7.789   0.927
38775W        W11090  16.507  44.052  11.496
38776W        W11091  19.745  14.626   2.501
38777W        W11092  23.638  18.586   0.024
38778W        W11093  12.941  28.178  13.489
38779W        W11094  24.698  36.109   1.835
38780W        W11095   4.273  18.917   0.850
38781W        W11096  30.058  44.617  11.213
38782W        W11097  35.219  27.471   4.055
38783W        W11098  22.286  23.235   0.434
38784W        W11099  39.003  20.984  13.381
38785W        W11100  23.060  24.259   3.218
38786W        W11101  32.752   6.191  12.398
38787W        W11102   5.293  16.901  13.806
38788W        W11103  42.326   9.428  10.866
38789W        W11104  32.076  11.467  11.056
38790W        W11105  37.947  11.260   4.304
38791W        W11106   8.441   4.786   4.176
38792W        W11107   5.708  36.483   4.545
38793W        W11108  44.441  15.840  11.165
38794W        W11109  36.394  44.735  11.586
38795W        W11110  39.577  26.604   4.213
38796W        W11111  32.268  14.163   5.069
38797W        W11112  18.546   7.745  13.970
38798W        W11113  14.020  41.720   4.495
38799W        W11114  26.457   8.184  14.124
38800W        W11115  22.579  33.600   1.336
38801W        W11116  25.680  14.005   2.731
38802W        W11117   9.326  27.022  11.796
38803W        W11118  39.107  25.544  13.167
38804W        W11119  20.108  37.083   1.401
38805W        W11120  23.476  28.066  13.760
38806W        W11121  24.898   3.411  13.854
38807W        W11122  37.830   1.649  12.059
38808W        W11123  37.308   9.841   0.864
38809W        W11124  16.170   7.661   3.279
38810W        W11125  38.909  16.195  11.886
38811W        W11126  34.904  39.506  12.927
38812W        W11127  12.314   5.940  13.669
38813W        W11128  12.204   1.921   4.353
38814W        W11129  33.998  38.881  14.466
38815W        W11130  25.000  14.015   4.203
38816W        W11131  27.629  18.108  13.010
38817W        W11132  25.091  30.910  13.890
38818W        W11133  21.169   9.349   1.169
38819W        W11134  39.288  34.015   1.285
38820W        W11135  25.306  23.093   0.813
38821W        W11136  35.096  11.197  14.376
38822W        W11137  27.529  37.042   4.763
38823W        W11138  23.013  36.272   2.962
38824W        W11139  42.840  31.561  11.653
38825W        W11140  37.052   6.102  12.463
38826W        W11141   8.791  30.967  12.912
38827W        W11142  17.076  42.383  13.337
38828W        W11143  32.099  38.917  14.347
38829W        W11144  30.154  20.296  13.299
38830W        W11145  37.948  19.554   3.652
38831W        W11146   5.527  25.733   0.456
38832W        W11147  30.964  11.963   4.638
38833W        W11148   6.038   1.836  14.111
38834W        W11149   5.860  11.251   4.189
38835W        W11150  26.218  39.268  14.311
38836W        W11151  43.743   4.793   2.849
38837W        W11152  40.456  44.037   4.107
38838W        W11153   2.387  26.543  10.158
38839W        W11154  28.179  36.636   3.700
38840W        W11155  14.650  32.609  11.185
38841W        W11156  30.581   3.031   1.262
38842W        W11157  28.703  43.510   1.411
38843W        W11158   6.741  21.698   0.279
38844W        W11159  41.847  44.437  13.529
38845W        W11160  20.749  38.933  13.911
38846W        W11161  42.169  12.165  11.531
38847W        W11162  14.700   5.047  11.505
38848W        W11163  37.419  44.090  10.633
38849W        W11164  26.414  11.050   2.379
38850W        W11165   8.867  22.362  11.754
38851W        W11166  18.609   2.745   4.694
38852W        W11167   2.640  15.551  13.789
38853W        W11168  28.438   1.721  11.228
38854W        W11169  38.595  43.817  10.747
38855W        W11170  10.276  24.872   2.190
38856W        W11171   5.600  38.490   2.509
38857W        W11172  31.774   1.295   4.561
38858W        W11173   3.625  23.490   4.133
38859W        W11174  43.841  34.524  11.780
38860W        W11175  42.955   8.290  13.115
38861W        W11176   4.404  18.264   2.138
38862W        W11177  26.109  16.368  12.598
38863W        W11178  34.479   5.362  13.437
38864W        W11179  17.502  44.026  14.387
38865W        W11180  25.591  16.197   2.436
38866W        W11181   8.846  37.836  12.069
38867W        W11182  44.718  19.157  14.605
38868W        W11183  42.698  21.441   0.805
38869W        W11184  24.211  18.180  10.967
38870W        W11185   5.900  43.520   2.741
38871W        W11186  24.742  40.473   2.633
38872W        W11187  28.887  16.277  14.455
38873W        W11188  38.583  11.622   1.927
38874W        W11189   3.344  26.848  10.565
38875W        W11190  19.622  22.967   1.166
38876W        W11191  32.990  18.963  10.710
38877W        W11192  20.249   5.740  12.350
38878W        W11193  37.983  41.170  14.310
38879W        W11194  10.126  41.459   0.388
38880W        W11195  10.089  19.619  10.238
38881W        W11196  14.236  18.688  14.520
38882W        W11197  22.191  20.124   0.894
38883W        W11198  12.900  26.065  10.902
38884W        W11199  21.759   9.161   4.077
38885W        W11200  30.073   4.513  11.031
38886W        W11201  35.818  22.792  12.476
38887W        W11202  41.497  31.457  12.921
38888W        W11203  10.639  23.251  10.535
38889W        W11204  44.953  37.073   1.815
38890W        W11205  37.017  37.873   0.861
38891W        W11206   3.674   1.185   2.206
38892W        W11207  27.221  36.276   3.306
38893W        W11208  21.557  38.855   4.687
38894W        W11209  25.582  12.579  12.547
38895W        W11210  41.365  32.173   1.374
38896W        W11211   8.943   1.535   1.212
38897W        W11212   5.462   4.726  10.385
38898W        W11213  20.772  43.827   3.254
38899W        W11214   1.233   1.257   2.257
38900W        W11215  15.814  13.268   1.874
38901W        W11216  28.016  30.775  14.937
38902W        W11217  39.640  37.836   0.803
38903W        W11218   6.844  40.196  14.335
38904W        W11219  13.252   2.397   0.361
38905W        W11220   9.587   8.377   0.159
38906W        W11221  17.684   0.014  13.541
38907W        W11222  19.329   9.927  12.507
38908W        W11223  33.031  25.614   0.996
38909W        W11224  15.644   0.417  13.371
38910W        W11225  33.521  30.154  11.643
38911W        W11226  37.993  37.857   4.143
38912W        W11227  38.073   1.928   1.702
38913W        W11228  12.833  40.038   0.901
38914W        W11229  31.863  17.177   3.807
38915W        W11230   7.693  41.119   0.677
38916W        W11231  37.398  26.419  14.689
38917W        W11232   6.449  25.996  14.212
38918W        W11233  19.188   8.250   3.589
38919W        W11234   0.892  33.011   1.017
38920W        W11235  23.447  40.844   2.253
38921W        W11236  14.171  18.587   2.846
38922W        W11237   3.198  23.629  13.434
38923W        W11238  44.548  29.753  12.968
38924W        W11239  41.316  37.963   1.406
38925W        W11240  32.736  33.872   4.115
38926W        W11241   3.655  19.714  14.407
38927W        W11242  27.193  41.884   1.782
38928W        W11243   5.424  26.122   0.813
38929W        W11244   0.575  23.873  11.475
38930W        W11245   3.271  35.320  11.347
38931W        W11246  21.272  21.043   3.173
38932W        W11247  28.931  17.131   4.813
38933W        W11248  39.416  39.586   2.633
38934W        W11249  42.426  43.601  13.511
38935W        W11250   0.198  35.622   3.242
38936W        W11251  16.562  29.503  10.234
38937W        W11252   9.362  38.565  12.418
38938W        W11253   3.399  44.370  14.333
38939W        W11254  17.523  29.916  10.197
38940W        W11255  35.284  11.222  12.192
38941W        W11256  41.089  14.739   4.165
38942W        W11257  23.589   1.525   3.778
38943W        W11258  23.351  23.201  13.457
38944W        W11259  14.570   3.730   0.303
38945W        W11260   5.895   4.890  14.285
38946W        W11261   4.514  25.731   2.250
38947W        W11262   3.531  14.284   3.177
38948W        W11263  13.625   5.187  11.571
38949W        W11264  42.381  22.821  13.054
38950W        W11265   4.217  35.105  14.615
38951W        W11266  44.790  16.758   0.149
38952W        W11267  17.535  42.709  11.626
38953W        W11268  29.692  21.657   2.419
38954W        W11269  16.610   9.427   2.376
38955W        W11270  30.097  26.933  12.929
38956W        W11271   4.541  18.112  12.542
38957W        W11272  26.675  30.594  11.991
38958W        W11273  34.951  35.607  13.388
38959W        W11274  44.471  33.517  14.709
38960W        W11275  30.461  14.439   3.654
38961W        W11276  39.055  24.095  12.924
38962W        W11277  33.709   4.293  12.430
38963W        W11278  40.797   8.988   3.951
38964W        W11279  22.653  29.647   1.155
38965W        W11280  19.514  13.394  14.748
38966W        W11281  32.965   7.660  13.310
38967W        W11282  38.568  36.509   3.307
38968W        W11283  24.577   6.062   2.793
38969W        W11284  14.070   8.234  10.726
38970W        W11285   2.133   2.239  14.133
38971W        W11286  24.068   6.232   2.755
38972W        W11287   2.067  14.610   0.918
38973W        W11288  19.793  35.571   1.707
38974W        W11289  12.311  10.875  12.178
38975W        W11290   5.723  35.090  12.018
38976W        W11291  35.746  44.862  14.745
38977W        W11292  43.808   6.496  12.857
38978W        W11293   2.710  10.816   0.507
38979W        W11294  32.586  21.499  10.439
38980W        W11295  29.216  23.299  10.833
38981W        W11296  14.643   4.845   1.704
38982W        W11297  43.465  42.278   3.906
38983W        W11298  15.296  33.071   2.366
38984W        W11299  10.847   1.343   2.685
38985W        W11300  33.098   5.437  14.403
38986W        W11301  22.335  43.680  11.978
38987W        W11302  41.704   7.182  14.438
38988W        W11303  43.268  14.339  10.819
38989W        W11304  42.898   5.497   2.311
38990W        W11305   9.178  38.516  13.907
38991W        W11306  26.478  37.614   1.317
38992W        W11307  27.015  22.509  13.975
38993W        W11308  38.901  16.161   3.612
38994W        W11309  25.694  15.240  14.792
38995W        W11310  10.679  12.614  11.116
38996W        W11311  16.835  16.308  12.316
38997W        W11312   3.976   3.751   2.884
38998W        W11313   2.051  33.792  13.917
38999W        W11314  21.037  17.055   2.930
39000W        W11315  22.500  43.223  10.470
39001W        W11316  43.349  26.048   4.128
39002W        W11317  32.116   2.440  10.623
39003W        W11318  22.667  34.880   2.818
39004W        W11319   6.408  34.161   2.223
39005W        W11320  19.837  19.500   4.203
39006W        W11321  22.820  21.733  12.288
39007W        W11322  18.682  33.349  12.536
39008W        W11323   4.450  11.744  14.587
39009W        W11324  44.069   8.900  13.114
39010W        W11325  44.579  40.050   4.639
39011W        W11326  23.480  41.561   1.004
39012W        W11327   5.143  10.446  10.426
39013W        W11328   9.906  40.859   4.493
39014W        W11329   0.239  33.886   4.089
39015W        W11330   8.028  38.519  10.721
39016W        W11331  35.615  18.998  12.588
39017W        W11332  15.082  27.188  14.552
39018W        W11333  24.455  33.562  14.051
39019W        W11334  42.989  39.410  13.780
39020W        W11335  36.397   7.437  14.613
39021W        W11336  43.006  43.818   0.442
39022W        W11337  35.735  37.773   4.658
39023W        W11338  31.508  31.682  11.514
39024W        W11339  38.800   3.926  10.931
39025W        W11340   0.461   5.710  11.896
39026W        W11341   4.378  17.280   2.128
39027W        W11342  15.398  23.851  11.329
39028W        W11343  30.169  10.140   2.622
39029W        W11344  22.276  27.514  13.520
39030W        W11345   5.736  29.609  12.230
39031W        W11346  34.711  13.983  14.376
39032W        W11347  25.722  42.922  11.829
39033W        W11348   1.848  31.031   3.296
39034W        W11349   7.181  40.722   3.244
39035W        W11350   0.019  10.781   1.449
39036W        W11351  17.904  14.492  13.789
39037W        W11352  28.717  34.849   4.943
39038W        W11353   9.272  19.529   4.134
39039W        W11354  43.843  33.599   3.206
39040W        W11355   5.263  37.361   2.156
39041W        W11356   4.399  28.032   1.485
39042W        W11357   3.351   2.168  12.245
39043W        W11358  44.387  43.490  11.622
39044W        W11359  41.981   4.511  14.979
39045W        W11360  16.026  17.053   1.832
39046W        W11361  39.784  35.545   1.782
39047W        W11362  38.961  41.311   3.620
39048W        W11363   4.853   8.630   2.413
39049W        W11364  41.966   3.841   4.738
39050W        W11365   7.883  24.892   4.146
39051W        W11366  40.085  19.163  13.525
39052W        W11367  24.528  12.037   1.779
39053W        W11368  44.936   7.204  14.066
39054W        W11369   5.954   7.825   3.955
39055W        W11370  24.297   4.332  14.553
39056W        W11371  24.987  21.201  10.836
39057W        W11372  12.035  13.247   4.120
39058W        W11373  43.579  19.532  12.449
39059W        W11374  43.134   7.334  10.635
39060W        W11375  32.285  36.812  12.013
39061W        W11376  40.513  34.951   4.406
39062W        W11377  36.368  23.647   1.052
39063W        W11378  41.336   1.712  12.192
39064W        W11379  36.161  43.271  11.971
39065W        W11380  40.361  30.153  10.720
39066W        W11381  41.418  15.769  14.062
39067W        W11382  19.033  28.469   3.766
39068W        W11383  14.769   0.424  11.431
39069W        W11384  31.447   7.818   2.788
39070W        W11385  18.169   5.012   0.809
39071W        W11386  17.101   9.580  10.692
39072W        W11387   2.248  26.659  12.920
39073W        W11388  35.520  13.216  12.580
39074W        W11389   1.308  11.568   1.311
39075W        W11390  37.007  15.402  13.455
39076W        W11391  21.279  35.833   4.805
39077W        W11392  29.664  31.590  10.999
39078W        W11393   6.805  18.597  10.415
39079W        W11394  40.407   4.672   2.264
39080W        W11395  25.678   0.268  14.758
39081W        W11396  38.539  10.351  13.923
39082W        W11397   4.433   2.483   3.880
39083W        W11398   5.441  43.963  12.099
39084W        W11399  23.673  16.498   1.683
39085W        W11400  27.025  41.974   0.455
39086W        W11401   9.016  44.852   2.668
39087W        W11402  39.840  28.081  13.897
39088W        W11403  30.565  20.371  14.694
39089W        W11404  33.470  20.651   4.179
39090W        W11405  24.125   8.427   3.752
39091W        W11406  34.987   8.205  10.616
39092W        W11407   3.468  15.136   1.326
39093W        W11408  18.001  40.271  12.372
39094W        W11409   2.618   8.752  11.994
39095W        W11410  13.385   9.390  12.625
39096W        W11411  44.095  32.325   3.575
39097W        W11412  33.066  36.775  11.613
39098W        W11413  35.596  31.207   1.417
39099W        W11414  16.244  29.512  13.363
39100W        W11415  25.709   7.643  14.079
39101W        W11416   7.932  13.777   2.884
39102W        W11417  16.619  30.353   2.316
39103W        W11418   8.217  39.578  11.895
39104W        W11419   9.165  28.410  14.883
39105W        W11420  36.849  13.367   1.062
39106W        W11421  15.133   5.175   2.849
39107W        W11422   0.286  36.634  13.441
39108W        W11423  21.721  32.084  14.319
39109W        W11424  25.895  44.782   2.288
39110W        W11425   3.979   2.317   0.304
39111W        W11426  10.081  44.715  13.301
39112W        W11427  14.735   6.235  12.806
39113W        W11428  19.517  19.399   0.428
39114W        W11429   7.736  24.066   2.637
39115W        W11430  34.852   9.561  14.464
39116W        W11431  20.624  10.426  10.057
39117W        W11432  17.572  33.400  11.139
39118W        W11433  35.157  24.018  14.000
39119W        W11434  33.888  19.998   4.512
39120W        W11435  20.904   4.706  13.951
39121W        W11436  17.363   4.598   0.410
39122W        W11437  38.350   2.458  11.998
39123W        W11438  38.417   0.465   4.008
39124W        W11439  37.903  37.331   2.388
39125W        W11440  20.997  30.684   3.415
39126W        W11441  42.952   9.242   2.231
39127W        W11442  39.794  10.873   3.086
39128W        W11443  14.965  30.200  13.663
39129W        W11444  30.478   5.984   2.773
39130W        W11445  23.724  18.528  13.614
39131W        W11446  33.004  29.136   0.520
39132W        W11447   7.247   6.335  12.097
39133W        W11448   8.171  26.357   1.852
39134W        W11449  20.482  21.707   4.597
39135W        W11450  27.019  36.807   1.378
39136W        W11451  35.569  12.760   0.238
39137W        W11452  10.830  11.931   3.188
39138W        W11453  16.153  38.459   4.039
39139W        W11454   6.540  35.572   5.041
39140W        W11455  15.330  33.642   1.182
39141W        W11456   7.231  25.796  13.011
39142W        W11457  24.376  37.774   0.133
39143W        W11458  14.069  10.257   4.088
39144W        W11459   1.803  13.563   1.933
39145W        W11460  31.804  12.646  11.725
39146W        W11461  42.970   2.845  12.693
39147W        W11462   2.057  26.255  10.624
39148W        W11463  31.470   6.426   4.304
39149W        W11464  15.394   2.225   0.258
39150W        W11465  24.606  24.740   0.839
39151W        W11466   6.739  30.154   0.149
39152W        W11467  27.226  16.829   0.516
39153W        W11468  16.260  43.459  10.673
39154W        W11469  11.785  18.747   5.491
39155W        W11470  23.962  34.307   0.514
39156W        W11471   7.567  21.577   4.686
39157W        W11472  43.944  10.665  12.864
39158W        W11473  38.516  16.367   1.854
39159W        W11474  17.492  24.156   2.483
39160W        W11475  28.960  39.746  11.862
39161W        W11476   6.364  18.254  11.556
39162W        W11477  30.712  43.601   1.077
39163W        W11478  12.258  29.972  11.447
39164W        W11479  40.568  17.742   3.609
39165W        W11480  39.538  34.461   1.392
39166W        W11481  41.899   5.929  11.641
39167W        W11482  39.368  32.575   2.770
39168W        W11483  15.808  36.604  10.907
39169W        W11484  42.872  12.150   3.720
39170W        W11485  39.842  12.867  14.771
39171W        W11486   2.968   3.417  11.513
39172W        W11487  33.440  31.411   1.181
39173W        W11488   8.696  13.718  14.976
39174W        W11489  34.820  31.623  11.121
39175W        W11490  14.440  30.328  12.472
39176W        W11491  15.788  38.849  12.250
39177W        W11492  35.827  14.399  11.155
39178W        W11493  37.527  23.320   1.096
39179W        W11494  26.658  32.974   4.070
39180W        W11495  44.849   9.977  12.070
39181W        W11496  36.367  38.032  12.062
39182W        W11497  22.614  28.533   2.266
39183W        W11498  37.533  21.178  14.676
39184W        W11499  35.802  20.013   3.177
39185W        W11500   5.198   1.888   1.940
39186W        W11501  28.597   6.282  13.113
39187W        W11502  21.502  21.176   1.360
39188W        W11503  18.430  30.425   0.756
39189W        W11504  30.468   4.269  10.718
39190W        W11505   3.322   8.302  13.567
39191W        W11506  32.319  22.053  13.021
39192W        W11507  37.425  36.856  13.462
39193W        W11508  41.034  31.992  13.824
39194W        W11509   4.941  27.523   3.172
39195W        W11510   9.622   8.928   3.311
39196W        W11511  37.479   4.758   4.545
39197W        W11512  23.980  10.628  14.784
39198W        W11513  32.249  40.270   3.058
39199W        W11514  35.960  16.313   0.191
39200W        W11515  23.769  29.019  11.167
39201W        W11516  34.889   7.818  12.755
39202W        W11517   4.547  31.165  13.420
39203W        W11518  24.682  32.201   4.931
39204W        W11519  19.957   8.187   1.325
39205W        W11520  44.967   4.773  10.145
39206W        W11521   9.217  11.549  12.428
39207W        W11522  17.315  37.119   1.959
39208W        W11523  18.696  36.423   0.385
39209W        W11524  38.944  29.472  10.401
39210W        W11525  32.757  29.760   1.724
39211W        W11526  11.046  30.445  10.553
39212W        W11527  24.071  23.627   2.013
39213W        W11528  10.054  21.449   4.458
39214W        W11529   9.610  33.147  14.772
39215W        W11530  11.711   6.016  11.097
39216W        W11531   1.193  29.626  12.459
39217W        W11532  35.024  38.955   1.005
39218W        W11533  29.618  29.652   3.389
39219W        W11534  43.826  35.026   2.643
39220W        W11535   7.689  26.783  12.721
39221W        W11536  21.868  22.227   5.030
39222W        W11537  19.971  26.134   0.836
39223W        W11538  20.778  37.413   0.435
39224W        W11539  39.074  41.746   3.350
39225W        W11540  25.655  26.695   2.827
39226W        W11541  27.004  43.342  12.793
39227W        W11542  31.059  31.400  12.216
39228W        W11543   8.206  26.780  12.046
39229W        W11544  24.526  20.631   1.991
39230W        W11545  17.185   5.018  13.741
39231W        W11546  17.305  33.873   3.662
39232W        W11547  41.131  36.177   3.712
39233W        W11548  31.831  37.397  11.623
39234W        W11549  38.934  38.864  11.361
39235W        W11550   7.749  37.451  14.402
39236W        W11551   1.967  11.624   2.899
39237W        W11552  32.966  17.095   3.110
39238W        W11553   7.415  17.372   4.634
39239W        W11554  43.375  19.318   2.231
39240W        W11555  11.378  29.147   3.374
39241W        W11556  19.567  15.532  12.026
39242W        W11557  37.993   3.440   1.652
39243W        W11558   8.956   4.702   4.159
39244W        W11559   4.669   2.988   0.426
39245W        W11560  33.478  18.547   1.194
39246W        W11561   5.772   6.666   2.700
39247W        W11562   2.049  18.210  12.890
39248W        W11563  10.903  10.778  11.107
39249W        W11564  16.184  42.762  11.642
39250W        W11565  21.689  41.562   1.874
39251W        W11566  40.442   6.425   4.578
39252W        W11567  31.959   8.754  12.042
39253W        W11568  17.113   0.995  12.160
39254W        W11569  31.945  30.440   1.069
39255W        W11570  15.519   6.654   1.358
39256W        W11571  36.035  15.266  13.514
39257W        W11572  14.917  34.716  11.227
39258W        W11573  33.412  28.369   3.659
39259W        W11574  29.530  31.780  14.497
39260W        W11575  22.673  25.805   1.464
39261W        W11576  43.314  18.035   1.915
39262W        W11577   2.824  18.832  14.365
39263W        W11578   2.723  10.847  11.898
39264W        W11579  42.517  38.831   4.375
39265W        W11580   7.713  29.098  11.725
39266W        W11581  28.423   4.807   0.906
39267W        W11582   6.574  30.785  13.331
39268W        W11583  24.697   7.734   2.282
39269W        W11584  38.470  33.648   3.597
39270W        W11585  40.513  27.564   2.254
39271W        W11586  36.160   9.631   0.285
39272W        W11587  26.668  17.384  13.795
39273W        W11588  28.239  33.152  13.704
39274W        W11589  39.107  39.961   5.080
39275W        W11590  38.859  15.777  12.178
39276W        W11591   3.080  27.447  14.441
39277W        W11592  41.912  11.707  11.586
39278W        W11593   9.662   7.679  11.000
39279W        W11594  36.112  27.378   3.291
39280W        W11595  44.128  19.924   2.519
39281W        W11596   1.186  30.057   3.262
39282W        W11597  36.149  30.065   0.668
39283W        W11598  30.498  11.850  14.335
39284W        W11599  11.637  27.297  10.787
39285W        W11600  11.802  29.927  11.187
39286W        W11601   4.249  10.411  11.073
39287W        W11602  39.376  11.650   2.914
39288W        W11603  33.312   7.381   2.793
39289W        W11604  26.474  11.683   3.590
39290W        W11605  23.115  25.664  11.691
39291W        W11606  42.011  18.594  11.209
39292W        W11607  28.777  26.593  11.545
39293W        W11608  22.159  28.885   3.323
39294W        W11609  27.891  37.732   2.911
39295W        W11610  33.164  27.018   4.109
39296W        W11611  26.111   1.022  13.326
39297W        W11612  20.640  25.064   3.186
39298W        W11613  31.605  23.126   4.484
39299W        W11614  33.260   7.811   1.432
39300W        W11615  14.982  21.469  11.328
39301W        W11616  21.448  38.546   0.844
39302W        W11617  21.042  25.733  14.024
39303W        W11618  41.990   0.417  14.629
39304W        W11619  31.214  32.960   3.277
39305W        W11620  18.100  44.657   2.294
39306W        W11621  27.720  16.641   1.744
39307W        W11622  15.734   3.895  10.986
39308W        W11623  33.100  16.280   4.587
39309W        W11624  21.262   0.853   0.951
39310W        W11625   4.958  19.627   1.400
39311W        W11626  32.143  14.696  12.916
39312W        W11627   0.386  36.587  10.198
39313W        W11628   5.148  15.244  12.064
39314W        W11629   2.659  27.599   0.985
39315W        W11630  43.875  35.179   4.056
39316W        W11631   5.502  39.571  12.329
39317W        W11632  42.012   5.345  12.111
39318W        W11633  35.046  40.015  13.115
39319W        W11634  22.581  21.514  14.726
39320W        W11635  21.160  36.110   3.435
39321W        W11636  14.967  20.011  12.877
39322W        W11637  35.023   2.394  11.865
39323W        W11638  19.841  43.081   0.280
39324W        W11639  16.898  27.645   9.935
39325W        W11640  28.742  18.193   2.925
39326W        W11641  33.967  16.801  12.865
39327W        W11642   5.463  27.896  11.736
39328W        W11643  31.860  42.095  12.332
39329W        W11644  34.158  35.923  12.484
39330W        W11645  14.545   9.282   4.130
39331W        W11646  11.304  10.140  11.105
39332W        W11647  19.528  22.705   4.448
39333W        W11648  36.109  42.418  14.911
39334W        W11649  28.824  16.520  12.456
39335W        W11650  12.654   0.488   2.912
39336W        W11651  14.016  34.466  11.130
39337W        W11652   0.408  20.088   1.777
39338W        W11653   7.287  20.564  12.165
39339W        W11654  35.253  23.690   3.635
39340W        W11655  28.058  44.890   3.727
39341W        W11656   9.110  36.582  12.459
39342W        W11657  27.653  43.285  14.549
39343W        W11658  36.612  27.418   1.376
39344W        W11659  37.509  11.822   2.877
39345W        W11660  28.203   9.722   3.831
39346W        W11661  12.799  20.466   3.717
39347W        W11662  17.022  38.803   4.194
39348W        W11663   1.925   5.358   4.909
39349W        W11664  11.196  29.907   0.324
39350W        W11665  29.887  42.885  13.943
39351W        W11666  27.218  36.970   2.370
39352W        W11667  43.089  33.851   2.750
39353W        W11668   4.623  36.160  11.331
39354W        W11669  40.455   7.146  10.304
39355W        W11670  18.604  40.515   2.638
39356W        W11671  30.185   9.830   1.664
39357W        W11672  39.371  32.179   4.759
39358W        W11673  10.483  26.542  13.529
39359W        W11674  12.560   8.845   2.246
39360W        W11675  19.020  42.946   3.557
39361W        W11676   1.382  18.524   1.301
39362W        W11677   4.312  17.335  12.126
39363W        W11678   5.738  31.334   3.935
39364W        W11679  33.455  16.266  14.889
39365W        W11680  19.487   0.713   1.621
39366W        W11681   7.493  27.548  10.561
39367W        W11682  40.010  39.100   0.730
39368W        W11683   4.944  25.194  10.685
39369W        W11684  43.691  40.586  11.280
39370W        W11685  27.032   2.128   1.475
39371W        W11686  18.235  27.988  14.513
39372W        W11687   8.599  37.606   0.692
39373W        W11688  20.880  44.511   1.717
39374W        W11689  29.974  42.576  12.088
39375W        W11690   0.228  29.211  11.244
39376W        W11691  25.501  39.526  14.230
39377W        W11692  31.870  15.193  11.313
39378W        W11693  37.514  28.642  14.384
39379W        W11694  28.109  15.270   0.005
39380W        W11695   1.409  29.702   0.930
39381W        W11696  14.871  38.436   2.874
39382W        W11697  20.301  14.680   2.468
39383W        W11698  14.285  29.707  13.384
39384W        W11699  36.298  12.289   0.190
39385W        W11700  36.538   0.286   2.356
39386W        W11701  17.027  32.063   3.335
39387W        W11702  18.125  17.481  12.076
39388W        W11703   9.749  25.024  12.546
39389W        W11704  25.815   5.573   4.858
39390W        W11705  22.625  15.732  12.566
39391W        W11706   3.180  18.734   0.116
39392W        W11707   8.260   6.450  12.946
39393W        W11708  12.171   2.454   0.892
39394W        W11709  43.397  35.972   0.615
39395W        W11710  19.255  44.947  11.673
39396W        W11711  44.392  25.447  12.538
39397W        W11712  27.253  40.871   3.238
39398W        W11713   2.314  23.374  14.108
39399W        W11714  33.850  34.394   0.821
39400W        W11715   2.740  17.996   0.332
39401W        W11716   2.085  15.774   2.629
39402W        W11717  28.742   0.919   1.809
39403W        W11718  20.034  36.755  11.197
39404W        W11719  13.399  26.067   0.803
39405W        W11720  27.018   5.661  10.612
39406W        W11721   7.050  16.337   0.993
39407W        W11722  14.851   9.001   0.918
39408W        W11723  40.979   7.829   0.439
39409W        W11724  30.235  43.683   0.885
39410W        W11725  10.029  40.117   2.949
39411W        W11726  25.708  16.915  14.532
39412W        W11727  40.227   0.778   4.617
39413W        W11728  32.529  16.031   2.830
39414W        W11729  20.809  44.451  12.175
39415W        W11730  32.890  32.584  12.957
39416W        W11731  19.556   6.751   2.167
39417W        W11732  44.519  26.706   0.374
39418W        W11733  35.603  20.564   0.711
39419W        W11734  33.949  34.530   4.101
39420W        W11735   5.958  17.570  13.097
39421W        W11736  37.353  39.838  12.601
39422W        W11737  35.431  34.159  12.648
39423W        W11738  27.122  38.902  13.502
39424W        W11739  18.641  15.613  11.411
39425W        W11740  22.256  29.965  13.049
39426W        W11741  12.605   2.192   0.196
39427W        W11742  42.914  17.600   3.693
39428W        W11743  41.626  43.024  14.403
39429W        W11744  21.506  18.344  12.920
39430W        W11745   6.654   8.563   4.557
39431W        W11746  42.340   8.171   2.639
39432W        W11747  39.172   2.399   3.166
39433W        W11748  14.016   7.264   0.906
39434W        W11749  24.611  22.513  14.435
39435W        W11750  32.136  15.863   2.442
39436W        W11751   8.411  22.126  13.932
39437W        W11752  42.903   1.402  14.907
39438W        W11753   5.582  31.663  14.354
39439W        W11754  28.670  29.461   4.276
39440W        W11755  35.976  32.004  13.913
39441W        W11756  32.398  26.864  12.924
39442W        W11757   3.348   9.850  12.611
39443W        W11758   1.720   8.396  13.396
39444W        W11759  42.017  42.499   3.257
39445W        W11760  26.957  30.484   2.869
39446W        W11761  15.737   4.250   0.824
39447W        W11762  21.993  36.599   0.931
39448W        W11763  38.989  32.376   1.428
39449W        W11764   4.423  16.667   0.474
39450W        W11765   9.929  14.277  12.082
39451W        W11766  29.921  28.523   1.453
39452W        W11767  12.270  24.506   1.779
39453W        W11768  30.335  24.401   0.904
39454W        W11769  29.211   7.712  11.520
39455W        W11770  40.431  17.273   2.512
39456W        W11771  16.719  33.126  12.949
39457W        W11772  27.502  12.651   2.838
39458W        W11773   5.508  21.052  12.510
39459W        W11774  22.949   2.508   0.849
39460W        W11775  19.293   9.374  11.157
39461W        W11776  42.854  16.026   2.417
39462W        W11777   9.034   9.374  14.145
39463W        W11778  17.962  21.793   0.783
39464W        W11779   3.886  18.141   4.148
39465W        W11780  27.859  10.531  10.699
39466W        W11781  38.767  18.116  12.605
39467W        W11782  17.847   7.798   0.830
39468W        W11783  34.481   7.373  13.946
39469W        W11784  29.009  18.975  13.472
39470W        W11785  35.933  33.155  11.239
39471W        W11786   7.233  10.182   5.086
39472W        W11787  37.309  43.370  12.881
39473W        W11788   5.300   1.524   1.156
39474W        W11789  25.491  30.733  13.564
39475W        W11790  24.047   0.829  14.477
39476W        W11791  15.757  28.858   4.647
39477W        W11792   5.707   1.233  12.056
39478W        W11793   5.473  44.431   4.495
39479W        W11794  33.161   3.713   4.117
39480W        W11795  11.908  11.973  13.089
39481W        W11796  36.968  21.502  11.138
39482W        W11797  29.739  33.894  12.498
39483W        W11798  34.307  41.702   2.800
39484W        W11799  35.531  25.993  10.687
39485W        W11800   4.925  39.954  11.186
39486W        W11801   1.159   4.658  14.173
39487W        W11802  31.371  36.681  12.068
39488W        W11803   7.291  39.090   0.895
39489W        W11804   1.454  23.468   0.539
39490W        W11805  13.713  41.943   0.534
39491W        W11806  20.973   2.205   0.734
39492W        W11807   9.401  33.521  12.899
39493W        W11808  38.312  31.666   0.543
39494W        W11809   2.769  40.810  12.875
39495W        W11810  39.388   2.719  12.631
39496W        W11811  43.370  42.800  14.836
39497W        W11812  43.725  35.072   0.802
39498W        W11813  28.153  18.163  13.050
39499W        W11814  42.985  28.928  12.367
39500W        W11815   1.545  35.827   0.504
39501W        W11816   3.557  18.562   0.472
39502W        W11817   9.309  40.844  11.161
39503W        W11818  28.870  39.730  14.749
39504W        W11819  20.164  41.043   0.547
39505W        W11820   1.518  35.427   1.942
39506W        W11821   1.470  16.523  11.158
39507W        W11822  36.569  23.626   0.561
39508W        W11823  33.120  28.793   4.859
39509W        W11824   2.831  13.720  12.414
39510W        W11825   2.157  36.326  11.572
39511W        W11826   2.003  12.644   2.750
39512W        W11827  13.710  28.157   4.281
39513W        W11828   5.881   1.817   4.071
39514W        W11829  10.347  35.114  12.604
39515W        W11830  12.645  39.020   0.799
39516W        W11831  30.825  14.806   2.193
39517W        W11832  24.703  42.930  11.159
39518W        W11833  13.648  16.052   0.651
39519W        W11834   7.294   4.544  13.328
39520W        W11835  13.812  39.307   4.261
39521W        W11836  26.199  24.674  11.224
39522W        W11837  33.814  33.707   4.165
39523W        W11838  33.472  43.115  10.964
39524W        W11839   4.816   5.758  11.992
39525W        W11840   4.193   9.644  14.985
39526W        W11841  16.405  30.238   2.774
39527W        W11842  37.587  15.075   0.443
39528W        W11843  21.755  30.540   2.849
39529W        W11844   2.245   9.656   1.917
39530W        W11845  36.424  20.016  13.392
39531W        W11846  24.940   0.940   3.780
39532W        W11847  22.221   4.214   1.347
39533W        W11848  39.318  15.654   0.671
39534W        W11849  10.153   8.589   4.088
39535W        W11850  30.970  14.890  11.483
39536W        W11851  25.587  25.665   2.738
39537W        W11852  43.798   8.557   4.209
39538W        W11853  25.992  43.567  14.459
39539W        W11854  42.400  39.348  12.842
39540W        W11855  16.180  35.841  10.924
39541W        W11856   5.229  36.365  10.917
39542W        W11857   9.119  10.581   4.655
39543W        W11858  26.549  11.119   1.872
39544W        W11859  39.512  44.001  14.926
39545W        W11860  10.408   1.660  12.089
39546W        W11861  37.027  35.761  14.556
39547W        W11862  23.032  17.011   2.845
39548W        W11863   6.774  28.172   0.517
39549W        W11864  12.118   1.035   4.066
39550W        W11865   1.718  41.555  13.902
39551W        W11866   5.609  35.573   0.695
39552W        W11867  15.506   4.779  11.023
39553W        W11868  12.883  21.186   0.734
39554W        W11869   4.366   5.668   2.740
39555W        W11870   9.127  25.452   4.730
39556W        W11871  43.932  19.544   0.894
39557W        W11872  19.017  21.097  10.945
39558W        W11873  38.442  11.611   4.159
39559W        W11874  19.748  26.903   2.372
39560W        W11875  37.412  24.719  12.062
39561W        W11876  22.232  41.036  11.135
39562W        W11877  30.679  38.871  10.555
39563W        W11878  24.978  16.934  12.893
39564W        W11879  32.076  15.123   2.912
39565W        W11880  29.673   3.464   2.769
39566W        W11881  37.013  23.746   2.750
39567W        W11882   7.966  40.717  11.172
39568W        W11883   7.032  43.798  14.873
39569W        W11884   1.218  18.156  10.675
39570W        W11885  26.449   6.358  10.632
39571W        W11886  16.867  19.251  12.370
39572W        W11887  16.078  40.348   1.693
39573W        W11888   9.822  14.895   2.857
39574W        W11889  20.589  21.236   0.960
39575W        W11890  18.775   7.410  10.348
39576W        W11891  11.762  42.832  10.750
39577W        W11892  21.373  34.447  11.540
39578W        W11893  29.415  21.710   1.718
39579W        W11894  23.140  16.857   2.318
39580W        W11895  42.541  38.484  12.455
39581W        W11896  15.303  15.778   0.433
39582W        W11897   1.805  10.630   1.493
39583W        W11898   2.714  33.484  13.858
39584W        W11899  18.115  34.115   1.432
39585W        W11900  35.391   7.262  10.846
39586W        W11901  26.502  39.540   4.552
39587W        W11902  26.633  13.107   4.070
39588W        W11903  30.078   4.715  12.865
39589W        W11904  18.368  21.732  11.051
39590W        W11905  30.209  30.688  12.094
39591W        W11906   9.203   1.247  12.878
39592W        W11907  24.542  36.970   0.773
39593W        W11908  41.086  40.344  12.044
39594W        W11909  23.621   5.162   0.475
39595W        W11910  38.981  39.984   1.980
39596W        W11911  26.135  34.528   5.070
39597W        W11912   9.093   2.115  12.411
39598W        W11913  15.844  42.041   2.433
39599W        W11914  25.473  31.342   1.406
39600W        W11915  26.134  40.180   1.206
39601W        W11916  14.391  26.135   2.295
39602W        W11917  13.674  17.710   1.299
39603W        W11918  26.845  34.967   4.987
39604W        W11919  40.453  10.535  13.130
39605W        W11920  25.967  10.647   0.747
39606W        W11921  43.897  34.969  12.451
39607W        W11922  18.561   4.569   2.188
39608W        W11923   5.938  29.989   4.676
39609W        W11924  20.809  29.045   2.803
39610W        W11925  39.750  41.165   4.232
39611W        W11926  19.085  42.017   4.424
39612W        W11927  36.160   3.381  13.032
39613W        W11928  11.250  35.664   3.326
39614W        W11929  34.623  33.043   3.189
39615W        W11930   3.391   9.415  12.343
39616W        W11931  36.592  23.256  11.154
39617W        W11932  21.209   5.591  11.638
39618W        W11933   3.274  22.971   3.555
39619W        W11934   1.223  20.596   3.358
39620W        W11935  26.501  26.098  12.343
39621W        W11936   2.596   8.248  14.246
39622W        W11937  17.278  26.697   4.583
39623W        W11938  44.808   3.004  13.783
39624W        W11939  42.381   9.292   2.244
39625W        W11940  16.335  30.471  11.074
39626W        W11941  30.988  24.724   3.646
39627W        W11942  19.677  10.910   1.856
39628W        W11943  39.375  13.324   4.990
39629W        W11944  16.441  31.963   4.163
39630W        W11945  12.038   8.343  13.379
39631W        W11946  40.709  32.536   2.384
39632W        W11947  32.976  41.970   0.034
39633W        W11948  43.270  32.886   2.349
39634W        W11949   6.574  26.588   5.171
39635W        W11950  43.763  34.860   1.812
39636W        W11951  40.249  25.426   2.501
39637W        W11952  20.040  24.559   1.758
39638W        W11953  27.125  26.082   2.418
39639W        W11954  36.865  25.898  11.896
39640W        W11955   8.536  30.889   0.480
39641W        W11956  42.911   4.823  10.579
39642W        W11957  37.449  21.701  12.013
39643W        W11958   5.297  12.585  14.405
39644W        W11959  37.898  25.023   0.769
39645W        W11960  10.946   0.822   2.732
39646W        W11961  41.399  16.842  10.730
39647W        W11962  43.803  38.630  14.533
39648W        W11963  32.640   9.901   4.629
39649W        W11964   0.938  33.709   4.572
39650W        W11965  28.229  16.744   1.755
39651W        W11966  11.612   9.907  12.400
39652W        W11967  18.729  21.795   4.198
39653W        W11968  33.667  41.620  10.747
39654W        W11969  11.388  32.449  10.629
39655W        W11970  19.163  15.562  11.627
39656W        W11971  16.388  16.454  13.123
39657W        W11972   0.015  17.642  14.326
39658W        W11973  40.531  24.805  12.386
39659W        W11974  11.867   6.648   2.627
39660W        W11975  16.641   8.327   0.743
39661W        W11976   6.751  30.141  11.203
39662W        W11977  22.642   7.724   0.324
39663W        W11978  24.785   7.635  13.397
39664W        W11979  36.334  42.369   1.144
39665W        W11980  34.557   1.440  10.712
39666W        W11981  30.973   4.115  13.441
39667W        W11982  26.350   3.015  11.832
39668W        W11983  29.182  24.122   2.147
39669W        W11984   4.091  23.797  10.040
39670W        W11985  14.410  28.367  11.654
39671W        W11986  31.325   5.054   4.094
39672W        W11987  38.704  38.410  10.688
39673W        W11988  22.258  38.906  10.672
39674W        W11989  16.661  22.092  14.509
39675W        W11990  16.205  14.197   1.112
39676W        W11991  35.435  26.074   2.672
39677W        W11992  39.504  36.089   1.008
39678W        W11993  28.378   3.151   2.022
39679W        W11994   7.834  39.670   0.589
39680W        W11995   5.447  17.567  13.005
39681W        W11996  12.529  26.461   1.808
39682W        W11997  29.920  31.644  10.534
39683W        W11998  17.711  22.993  14.566
39684W        W11999  31.050   6.253  11.006
39685W        W12000   2.453  15.847  11.141
39686W        W12001  24.458  35.404  12.086
39687W        W12002  28.536  23.803   3.141
39688W        W12003   2.321  44.747  10.438
39689W        W12004  34.057  21.316  11.069
39690W        W12005  20.093   7.779  12.541
39691W        W12006  17.625  22.690   0.502
39692W        W12007   9.227  42.719   0.474
39693W        W12008  15.673  40.330  13.955
39694W        W12009  37.363  29.863  11.080
39695W        W12010  29.043  22.257  13.390
39696W        W12011  33.411  37.881   3.178
39697W        W12012  35.607  10.389  14.921
39698W        W12013  23.797  10.823  12.553
39699W        W12014  17.228  43.989  12.947
39700W        W12015  33.316  17.621  10.958
39701W        W12016  21.921   9.860   3.752
39702W        W12017   9.281  20.344  14.320
39703W        W12018  36.374   9.460  13.556
39704W        W12019  30.401   1.510   1.295
39705W        W12020  26.640   8.167  12.165
39706W        W12021  22.707  24.230   3.602
39707W        W12022  28.492  19.964  10.573
39708W        W12023  13.729  12.077  13.202
39709W        W12024  25.183  30.575   2.773
39710W        W12025   0.953  21.180   0.216
39711W        W12026  29.125   7.724   1.696
39712W        W12027  16.318  24.867  11.584
39713W        W12028  13.626  27.262   0.298
39714W        W12029  37.626  16.550  11.061
39715W        W12030   3.541  34.822   4.193
39716W        W12031  33.468   2.640  14.398
39717W        W12032  23.911  16.535   3.763
39718W        W12033  40.135   2.532   3.462
39719W        W12034  44.302  32.060   4.010
39720W        W12035   0.300  20.500  12.420
39721W        W12036  34.499  15.111   1.690
39722W        W12037   8.746  39.103  12.954
39723W        W12038  19.740  42.218   0.370
39724W        W12039  36.543  12.243  11.598
39725W        W12040  41.100  43.000  11.659
39726W        W12041   3.266  25.953   0.841
39727W        W12042  33.907   8.138  13.401
39728W        W12043  26.388  19.089   0.443
39729W        W12044  38.909  10.283  13.093
39730W        W12045  23.308   4.227   3.624
39731W        W12046   4.884  43.167  14.630
39732W        W12047  38.862  34.827  14.447
39733W        W12048   8.945  22.060   0.525
39734W        W12049   9.418  31.826   3.604
39735W        W12050  12.878  18.664   4.770
39736W        W12051  40.624  15.200   4.930
39737W        W12052  27.917  12.388  11.092
39738W        W12053  17.152  27.145  10.602
39739W        W12054   1.406  16.284   0.045
39740W        W12055  41.286  35.898   2.396
39741W        W12056  11.918  36.889  14.447
39742W        W12057  12.893  29.578   2.177
39743W        W12058  19.189  44.418  13.673
39744W        W12059   1.849  24.075   3.503
39745W        W12060  20.776  35.450  10.951
39746W        W12061  33.571  27.650  10.348
39747W        W12062  44.231  11.093   4.112
39748W        W12063  30.820  17.116   9.716
39749W        W12064  27.583  42.102   2.641
39750W        W12065  23.016  10.113   0.384
39751W        W12066  39.762  38.799   4.430
39752W        W12067  13.775  36.642   0.383
39753W        W12068   9.792  10.401   3.132
39754W        W12069   3.169  13.647  12.023
39755W        W12070  11.643   8.169   0.854
39756W        W12071  23.815  37.353   3.249
39757W        W12072  25.385  33.090  11.191
39758W        W12073  23.703   5.709   4.137
39759W        W12074  21.230   0.772  13.437
39760W        W12075  35.087  36.671   0.714
39761W        W12076  36.916   8.879  11.663
39762W        W12077   6.981  23.003  11.650
39763W        W12078  19.324   5.334  13.482
39764W        W12079  15.586   3.430   1.244
39765W        W12080  42.404  43.234  13.939
39766W        W12081  18.357   5.289  10.609
39767W        W12082  38.968   3.665  10.544
39768W        W12083   6.876  30.102   1.835
39769W        W12084   7.500  31.997   1.459
39770W        W12085  16.757  44.951   2.395
39771W        W12086  17.652  14.756  10.592
39772W        W12087   4.801   6.853  10.872
39773W        W12088  40.103   4.258  13.864
39774W        W12089  35.587  20.455   2.674
39775W        W12090  36.198  36.492   5.110
39776W        W12091  43.802  44.396  13.979
39777W        W12092   5.152   4.765   4.229
39778W        W12093   5.969  40.317  12.108
39779W        W12094   3.015   1.907   1.015
39780W        W12095   3.712  37.468   2.049
39781W        W12096  11.412  35.524   1.225
39782W        W12097  30.941  43.794  12.292
39783W        W12098   0.457  25.075  12.968
39784W        W12099  40.236  12.502   3.355
39785W        W12100  21.698  21.484   0.727
39786W        W12101  43.798   6.251   3.825
39787W        W12102   4.000   4.310   2.215
39788W        W12103  12.588   1.153   2.429
39789W        W12104  24.548  30.299  10.631
39790W        W12105   1.069  22.503   3.675
39791W        W12106  15.280  12.042   3.287
39792W        W12107  36.801  21.347  10.685
39793W        W12108  34.529   1.179  12.068
39794W        W12109  41.907  11.221  10.352
39795W        W12110  32.653  44.348  11.918
39796W        W12111   0.312  14.973   4.643
39797W        W12112  18.517  41.213  14.392
39798W        W12113   8.238  22.755  10.552
39799W        W12114   1.025  14.173   5.176
39800W        W12115  24.635  27.083   1.125
39801W        W12116   1.377  39.668   1.726
39802W        W12117  33.669  31.220  10.961
39803W        W12118  34.016   2.236  13.502
39804W        W12119  16.290   0.716   3.072
39805W        W12120   9.809  20.026  13.933
39806W        W12121  17.594  28.893   1.335
39807W        W12122   6.699  10.156  14.636
39808W        W12123   5.708  40.799  13.994
39809W        W12124  35.883   9.259   3.105
39810W        W12125   8.662  38.314   4.641
39811W        W12126  26.026  28.959   0.245
39812W        W12127  40.445   9.432  12.685
39813W        W12128  41.200   8.347   1.813
39814W        W12129   8.929  35.554  14.876
39815W        W12130  34.370  12.660   1.469
39816W        W12131  29.590  22.614  14.783
39817W        W12132  37.968  37.121  10.503
39818W        W12133  38.388  18.622  13.664
39819W        W12134  17.562  27.720  11.431
39820W        W12135  22.100  16.357  12.282
39821W        W12136  29.047  24.751   3.771
39822W        W12137  17.249   6.888  11.605
39823W        W12138   2.336   2.441  11.986
39824W        W12139  33.034  31.645   3.622
39825W        W12140  14.578   5.542  11.410
39826W        W12141  23.306  34.309  14.212
39827W        W12142  43.367  42.898  12.347
39828W        W12143  40.312  26.945  11.481
39829W        W12144   3.081  43.974   4.175
39830W        W12145  35.878  29.179  13.370
39831W        W12146  26.993  29.493   2.608
39832W        W12147  22.919  15.615  11.113
39833W        W12148  12.897  29.307   2.699
39834W        W12149  15.735  12.363   4.552
39835W        W12150  33.004  30.575  13.537
39836W        W12151  17.006  10.562   1.331
39837W        W12152  31.324  22.701   0.850
39838W        W12153   0.722   5.691   2.136
39839W        W12154  14.049  42.858   2.811
39840W        W12155  43.233  40.349  13.884
39841W        W12156  24.511   8.793  13.791
39842W        W12157  40.918   4.454   4.060
39843W        W12158  31.146   5.303  10.629
39844W        W12159  41.119  16.709  11.124
39845W        W12160  12.140  42.947  12.027
39846W        W12161  28.426  15.063   1.594
39847W        W12162  24.694   2.148   4.578
39848W        W12163   9.759  39.879   2.184
39849W        W12164  21.027  16.221   4.122
39850W        W12165  16.688  25.500   0.730
39851W        W12166  21.263  30.575   3.868
39852W        W12167   8.468  19.257  12.970
39853W        W12168   6.338  13.408  14.760
39854W        W12169  13.836   6.685  14.744
39855W        W12170  25.061  16.442  13.000
39856W        W12171  42.339  10.332   4.600
39857W        W12172  42.839  34.077  12.391
39858W        W12173  15.058  44.979  12.364
39859W        W12174  43.803   8.012   4.150
39860W        W12175  32.997  14.288  12.038
39861W        W12176  27.366  24.996   2.427
39862W        W12177  41.529  35.385   3.588
39863W        W12178  43.441  13.862   1.095
39864W        W12179  11.848  16.840   2.632
39865W        W12180  44.014  14.806  14.527
39866W        W12181   9.715  38.364  11.723
39867W        W12182  19.284   2.943  13.880
39868W        W12183  16.358  14.328  11.570
39869W        W12184  22.060   7.503  14.418
39870W        W12185   6.721  30.670   3.462
39871W        W12186  16.637  36.853  13.875
39872W        W12187  20.138  44.356  14.991
39873W        W12188  35.953  13.119  11.971
39874W        W12189  36.921  15.516   4.575
39875W        W12190  21.247  26.913  12.572
39876W        W12191  37.076  20.177   4.665
39877W        W12192  40.299  19.047   1.885
39878W        W12193  15.289  43.936   0.278
39879W        W12194  22.817  12.963   2.737
39880W        W12195  25.972  12.805   3.148
39881W        W12196  29.527  24.249   4.616
39882W        W12197  43.933   2.200  11.912
39883W        W12198  24.319  39.885  12.898
39884W        W12199  20.634  21.731   4.032
39885W        W12200  25.477  28.906   2.415
39886W        W12201  36.303  14.678  10.471
39887W        W12202   7.256  44.670   4.584
39888W        W12203   1.847   5.456   0.410
39889W        W12204   0.798  27.979  10.633
39890W        W12205   3.241   9.100  14.918
39891W        W12206   3.720  10.652   1.475
39892W        W12207   4.769  43.947   1.123
39893W        W12208  27.069   6.016   4.120
39894W        W12209  17.722   8.913   1.884
39895W        W12210  21.696   9.150  14.795
39896W        W12211  22.709  43.395   2.147
39897W        W12212  30.607  11.908   3.416
39898W        W12213   8.723   7.690  14.075
39899W        W12214  34.016  21.267   0.419
39900W        W12215  23.751  32.884   0.837
39901W        W12216  21.182  31.456  11.521
39902W        W12217   3.848   7.576   1.182
39903W        W12218   5.853  44.281  11.014
39904W        W12219  42.058  36.310  13.059
39905W        W12220  43.550   6.982  13.372
39906W        W12221   3.746   5.034   0.920
39907W        W12222  23.119   8.454   1.044
39908W        W12223  40.604  43.581   3.857
39909W        W12224  22.571  24.041   2.638
39910W        W12225   6.579   4.362   4.182
39911W        W12226  11.881  18.793  13.978
39912W        W12227   0.388  40.490  13.586
39913W        W12228  29.359  42.429  12.527
39914W        W12229   8.549   2.255   0.677
39915W        W12230  42.831   3.360  14.056
39916W        W12231   7.679  42.925   3.885
39917W        W12232  13.867   8.532   3.068
39918W        W12233  22.825  26.214   0.231
39919W        W12234  32.545  23.414  13.476
39920W        W12235  30.668  10.633   1.629
39921W        W12236  25.937  21.253   0.703
39922W        W12237  34.665  25.149  13.492
39923W        W12238  37.024  17.189   5.067
39924W        W12239  36.148  32.714   4.629
39925W        W12240   0.817   3.222   4.418
39926W        W12241  16.250   7.169  11.913
39927W        W12242  13.911  29.080   2.681
39928W        W12243  10.170   1.924   3.846
39929W        W12244  37.481  15.049  12.104
39930W        W12245   5.778   5.441  12.476
39931W        W12246  22.475  35.511  12.057
39932W        W12247  12.865  32.572  11.965
39933W        W12248   7.741   5.217   4.442
39934W        W12249  15.553  41.998   3.773
39935W        W12250  37.303  22.517   1.670
39936W        W12251   7.141  27.459  14.559
39937W        W12252   1.491   2.781   1.373
39938W        W12253  31.156  39.639   3.909
39939W        W12254  11.807   7.054  11.868
39940W        W12255   7.649  22.593   1.287
39941W        W12256   9.255  37.103  12.414
39942W        W12257   4.315   3.363   3.121
39943W        W12258  15.662   9.810   3.543
39944W        W12259  44.663  18.513   1.425
39945W        W12260  12.461   8.789   0.376
39946W        W12261  15.087  14.606   2.884
39947W        W12262   6.712   2.318   2.316
39948W        W12263   4.695  28.688   1.233
39949W        W12264   0.001  16.307   0.007
39950W        W12265  14.196   1.767   1.620
39951W        W12266  30.629   6.208  14.333
39952W        W12267  19.990   6.794  12.517
39953W        W12268  12.367  28.693   2.449
39954W        W12269  21.688  29.964   2.135
39955W        W12270  31.120  24.224   3.686
39956W        W12271  13.792  35.377  12.665
39957W        W12272  43.992  31.324   2.673
39958W        W12273  19.081  15.784  14.834
39959W        W12274  24.614  32.471   1.854
39960W        W12275  30.632  37.821   1.944
39961W        W12276  21.927  41.553   4.336
39962W        W12277  38.834  40.516   3.069
39963W        W12278   3.721  12.720  11.493
39964W        W12279  23.735  32.577  12.984
39965W        W12280  23.023  42.949   2.174
39966W        W12281  40.961   3.262   0.930
39967W        W12282   3.828  31.866  13.594
39968W        W12283  11.359  19.025   3.027
39969W        W12284  15.126   8.678   3.855
39970W        W12285   9.111  34.410  13.523
39971W        W12286  10.144  38.244  14.530
39972W        W12287   6.770   2.644  10.470
39973W        W12288   2.746   2.070  14.795
39974W        W12289  29.594  10.759   0.221
39975W        W12290  10.419  36.263   1.148
39976W        W12291  33.596  20.833  13.040
39977W        W12292  17.418   0.306   9.886
39978W        W12293  22.125  34.826  13.297
39979W        W12294  11.743  39.378  14.377
39980W        W12295  16.034   9.765   0.905
39981W        W12296   6.594  16.067   0.837
39982W        W12297  42.448  37.263  13.106
39983W        W12298  19.976  30.220   1.433
39984W        W12299   5.128  36.401  13.313
39985W        W12300  34.589  26.639  13.515
39986W        W12301   2.867  11.371   3.891
39987W        W12302  24.301   0.489   2.804
39988W        W12303  18.277  26.612   9.844
39989W        W12304  16.774  29.565  12.473
39990W        W12305  13.734   2.169  12.114
39991W        W12306  15.158   4.183  11.521
39992W        W12307   3.900   0.454   4.374
39993W        W12308  11.634  35.616   1.744
39994W        W12309   6.786  17.763   1.169
39995W        W12310  38.892   6.402   3.228
39996W        W12311   2.755  20.183  11.990
39997W        W12312  43.991  17.123   3.658
39998W        W12313  38.031  33.451   2.315
39999W        W12314  43.326  44.579  12.049
40000W        W12315  25.556  24.517  13.371
40001W        W12316  18.082  44.430  14.440
40002W        W12317  36.019   2.998   3.213
40003W        W12318  31.764   4.889  10.797
40004W        W12319   5.679   1.826   3.262
40005W        W12320  16.494   0.058  12.368
40006W        W12321   9.187   9.575   3.129
40007W        W12322  17.226  42.595  14.503
40008W        W12323  25.206  40.049   4.212
40009W        W12324   9.733   1.476   2.007
40010W        W12325  10.795  43.529  13.558
40011W        W12326  27.532  12.658   4.426
40012W        W12327  44.407  27.130   1.655
40013W        W12328  12.747   7.592  14.927
40014W        W12329  20.932  29.623  11.125
40015W        W12330  20.699  17.636  11.135
40016W        W12331  13.047  29.728   3.487
40017W        W12332  35.915  15.321   1.388
40018W        W12333  38.771  29.653   1.479
40019W        W12334  31.330   3.523  11.644
40020W        W12335  43.032  35.995  11.611
40021W        W12336   6.094  42.832  11.658
40022W        W12337  39.294  16.563   0.521
40023W        W12338  39.775  43.977  13.991
40024W        W12339  36.967  18.840   0.298
40025W        W12340  42.755  42.772   1.422
40026W        W12341   1.305  36.312   2.398
40027W        W12342  11.861  18.022  13.086
40028W        W12343  37.593  37.354  13.425
40029W        W12344  35.683   4.602  13.398
40030W        W12345  41.929   9.101   4.138
40031W        W12346  25.773  37.279   1.820
40032W        W12347  37.351  21.763  12.876
40033W        W12348  27.003  34.801  10.667
40034W        W12349  32.042  22.385   3.549
40035W        W12350  37.915  26.444  14.537
40036W        W12351   9.673  31.462  12.975
40037W        W12352  17.028  36.962   0.795
40038W        W12353   8.845  33.610   2.627
40039W        W12354  44.924  43.799   4.480
40040W        W12355  40.373  33.567  13.356
40041W        W12356  34.427  43.913   0.006
40042W        W12357  15.628  27.315   1.361
40043W        W12358  41.906  19.860   3.039
40044W        W12359  30.088  17.629  11.048
40045W        W12360  17.244   2.816   4.666
40046W        W12361  12.910  16.442   4.113
40047W        W12362   7.868  29.962   0.828
40048W        W12363  38.031  10.302   4.225
40049W        W12364   5.871   3.477   4.358
40050W        W12365   6.685  27.687   0.832
40051W        W12366  41.958  15.512  12.099
40052W        W12367  19.617  23.824   4.215
40053W        W12368  44.787   5.899  14.826
40054W        W12369  14.705   7.278   0.190
40055W        W12370  37.797  26.163   0.405
40056W        W12371  13.282  24.996  13.015
40057W        W12372   9.983   6.222  12.466
40058W        W12373  30.006  11.460   2.343
40059W        W12374  43.064  20.726   4.657
40060W        W12375   9.986  44.867   1.787
40061W        W12376  36.069  16.425  14.692
40062W        W12377  30.501  11.061   3.604
40063W        W12378   7.284   6.230   3.719
40064W        W12379   8.844  23.103   1.825
40065W        W12380  18.141  28.991  13.903
40066W        W12381  15.387  28.509  12.894
40067W        W12382  24.598  17.208  10.629
40068W        W12383  36.012  11.616  13.905
40069W        W12384   3.732  15.744  11.666
40070W        W12385  27.666  13.225  14.374
40071W        W12386  28.022  30.969  11.678
40072W        W12387  11.610  34.491   0.362
40073W        W12388  14.388  39.457  10.625
40074W        W12389  35.596  11.116   0.032
40075W        W12390  11.658  31.862   1.234
40076W        W12391  23.320  21.516  12.998
40077W        W12392  23.038  28.218  14.020
40078W        W12393   2.770  38.972  13.987
40079W        W12394  33.661  22.884   2.815
40080W        W12395   8.810  40.863   0.948
40081W        W12396  28.995  28.922  11.187
40082W        W12397  24.235   9.884   1.269
40083W        W12398  37.279  22.190   3.001
40084W        W12399   4.843  31.173  13.929
40085W        W12400   8.699   4.388  12.506
40086W        W12401  23.814  30.610  12.037
40087W        W12402   8.775  27.605  14.714
40088W        W12403  12.013  29.998  13.311
40089W        W12404   2.916   3.242   2.683
40090W        W12405  34.460  40.355   1.290
40091W        W12406  25.974  33.881   4.667
40092W        W12407  13.840  31.241  11.575
40093W        W12408  40.063  44.231  11.130
40094W        W12409  33.383  26.529   4.019
40095W        W12410  22.122  19.185   5.340
40096W        W12411  25.085  25.533   5.000
40097W        W12412  30.939  33.384   2.941
40098W        W12413  30.029   3.879  14.293
40099W        W12414  13.193   6.478   4.457
40100W        W12415   3.788  21.806  13.121
40101W        W12416  34.492   1.707  13.505
40102W        W12417  31.152  11.790   0.911
40103W        W12418  10.903  27.204   1.955
40104W        W12419  36.206  33.691  10.154
40105W        W12420  41.904  40.544  10.758
40106W        W12421  17.076  28.441   4.212
40107W        W12422   5.207  20.235  11.093
40108W        W12423  44.515  13.303   3.107
40109W        W12424  23.059  43.887   4.739
40110W        W12425  18.635  44.575  12.519
40111W        W12426  12.524  14.114  14.491
40112W        W12427   5.403  44.530   3.574
40113W        W12428  15.263  33.098   3.378
40114W        W12429  26.586  26.974   2.646
40115W        W12430  30.088  22.290   3.726
40116W        W12431  29.666  33.036  13.811
40117W        W12432   5.315   3.933   4.355
40118W        W12433  23.569  40.345   3.197
40119W        W12434  44.679  12.640   3.718
40120W        W12435   4.334  36.158  10.715
40121W        W12436  20.497  34.007  13.061
40122W        W12437  41.953  16.164  11.303
40123W        W12438  32.572  20.254   0.251
40124W        W12439   4.008  43.906  12.541
40125W        W12440  15.093   5.396  11.465
40126W        W12441  15.716  32.851  12.894
40127W        W12442  12.924  26.638  12.500
40128W        W12443  22.745  37.582  14.294
40129W        W12444   8.759  39.358  14.297
40130W        W12445  36.464   7.934   0.927
40131W        W12446  17.338  14.253  14.369
40132W        W12447  44.916  30.902  14.492
40133W        W12448  25.684   9.604  11.565
40134W        W12449  13.015  44.881  13.179
40135W        W12450   4.517  32.077   2.233
40136W        W12451   1.473   2.409  11.935
40137W        W12452   9.719  34.703  11.020
40138W        W12453  32.577  25.230  14.755
40139W        W12454  23.215   0.316   1.440
40140W        W12455  33.417  21.225   2.871
40141W        W12456  25.569  32.741   1.757
40142W        W12457  34.682  11.369  13.458
40143W        W12458  10.644  22.966   1.915
40144W        W12459  38.818  37.916  11.926
40145W        W12460  32.642  25.724   4.724
40146W        W12461  22.446  22.227   3.740
40147W        W12462  31.083   8.273  14.318
40148W        W12463   0.337  27.003  12.922
40149W        W12464  13.993  40.007   0.482
40150W        W12465  42.731   8.714  11.683
40151W        W12466  39.431  19.588  13.761
40152W        W12467  12.594  38.499   0.885
40153W        W12468  38.993  21.633   4.584
40154W        W12469  23.535  14.753   0.262
40155W        W12470   3.340  10.599   1.839
40156W        W12471  31.274  28.620  11.722
40157W        W12472  36.080  36.698   1.786
40158W        W12473   4.815   9.345  13.528
40159W        W12474  22.636  35.881  14.022
40160W        W12475  32.126  19.664   2.682
40161W        W12476  39.361  26.732  11.924
40162W        W12477  40.241  28.000   0.764
40163W        W12478  37.020  39.585   2.853
40164W        W12479  26.550  26.006   1.663
40165W        W12480  36.137  34.579  11.201
40166W        W12481  28.049  38.221   3.012
40167W        W12482  29.635  38.405  12.068
40168W        W12483  31.572  25.032   2.446
40169W        W12484  21.039  27.586  12.082
40170W        W12485  36.622  24.971   0.303
40171W        W12486  33.460  34.017  11.636
40172W        W12487  35.495  44.919   2.701
40173W        W12488  39.433  23.319  11.615
40174W        W12489   5.763  32.149  12.095
40175W        W12490  16.709  43.994  12.868
40176W        W12491   8.575  42.933  11.491
40177W        W12492   0.954  27.530   0.466
40178W        W12493   5.585  21.496   1.702
40179W        W12494  41.025  21.813   0.012
40180W        W12495   7.010  11.857   1.922
40181W        W12496  20.993  41.566   4.513
40182W        W12497   2.286   7.179   3.895
40183W        W12498   5.528  23.349   4.217
40184W        W12499  12.909  41.568   0.949
40185W        W12500   8.740   1.204   0.852
40186W        W12501  25.982  18.480   2.185
40187W        W12502   8.356  18.325  12.381
40188W        W12503  18.706  16.290   3.766
40189W        W12504  12.085  11.172   1.407
40190W        W12505  25.489  25.004   1.504
40191W        W12506  35.526  42.230  12.110
40192W        W12507  41.944  11.271   4.114
40193W        W12508  39.840   3.052  12.574
40194W        W12509  18.315  31.585  12.516
40195W        W12510  20.151  27.110  14.983
40196W        W12511   6.380  44.665   2.869
40197W        W12512   0.921  30.957  14.457
40198W        W12513  14.184  34.388   0.297
40199W        W12514  28.200  21.307  10.630
40200W        W12515  24.177   5.607   0.749
40201W        W12516   0.548   0.937  11.468
40202W        W12517  20.027  29.237  13.053
40203W        W12518  24.542  44.936  11.155
40204W        W12519  41.478  21.375   1.316
40205W        W12520   0.929  43.588   2.340
40206W        W12521  36.473  19.463   2.184
40207W        W12522  28.196  39.163   5.126
40208W        W12523  12.792   9.821   4.493
40209W        W12524  38.498  38.806   3.597
40210W        W12525  31.043  38.135   0.607
40211W        W12526  24.255  16.929   1.379
40212W        W12527  17.663  10.903  11.510
40213W        W12528  32.456  18.439  14.926
40214W        W12529  42.822  15.197   3.128
40215W        W12530  38.636  13.625   0.191
40216W        W12531  17.316   1.324  12.990
40217W        W12532  34.916  31.040  14.752
40218W        W12533   7.345  38.585  14.019
40219W        W12534  30.086  15.556   0.371
40220W        W12535  28.976  32.719   3.172
40221W        W12536  14.247  10.815   1.323
40222W        W12537  27.938  25.173  12.254
40223W        W12538   8.554  44.121   1.743
40224W        W12539  18.762  43.680  10.835
40225W        W12540   4.424  43.235  14.320
40226W        W12541  35.973  22.525  12.905
40227W        W12542   9.900  43.716   3.899
40228W        W12543  11.273  40.697   4.694
40229W        W12544   2.823  24.021   0.401
40230W        W12545  31.755   0.882   3.091
40231W        W12546  12.326  10.325  13.508
40232W        W12547   6.242  44.214   1.883
40233W        W12548  14.020  14.321  11.912
40234W        W12549   9.474  27.469   2.446
40235W        W12550  40.609  13.597  14.813
40236W        W12551  32.553   7.782   0.188
40237W        W12552  21.011  11.776  10.987
40238W        W12553   4.209  12.203   1.923
40239W        W12554  14.826  15.637  14.453
40240W        W12555  39.924  44.898   4.156
40241W        W12556   2.684  13.411   5.094
40242W        W12557  11.447  36.427   4.311
40243W        W12558  40.568   9.111   4.417
40244W        W12559  40.947  10.649   0.856
40245W        W12560  16.455   6.432  11.207
40246W        W12561  15.002  17.028   1.672
40247W        W12562  16.146  21.171   4.548
40248W        W12563   1.394  43.275   0.290
40249W        W12564  25.426   0.727   4.308
40250W        W12565   2.051  31.144   2.830
40251W        W12566  41.555  16.687   1.395
40252W        W12567  19.916   7.600  14.416
40253W        W12568  11.124  11.349  11.627
40254W        W12569  40.893  32.559  14.630
40255W        W12570  12.788   3.046  13.548
40256W        W12571  36.814  12.669  12.415
40257W        W12572  20.518  23.093  10.935
40258W        W12573   9.095   5.782  14.017
40259W        W12574  10.807  40.804   3.825
40260W        W12575  29.519  37.628   4.537
40261W        W12576  40.999  38.476  14.457
40262W        W12577  10.693   4.398  10.914
40263W        W12578  20.639   3.755   4.335
40264W        W12579   1.881  10.525   3.664
40265W        W12580  35.610  28.960   0.800
40266W        W12581  11.254  41.802   1.888
40267W        W12582  13.878  36.619  11.589
40268W        W12583  17.692  24.771  10.546
40269W        W12584  22.515  19.988  11.673
40270W        W12585  23.167  17.014  14.669
40271W        W12586  36.554  12.704  14.890
40272W        W12587  42.077  43.194   3.677
40273W        W12588  22.123  40.008  14.329
40274W        W12589   0.614  38.963  11.628
40275W        W12590  18.529  41.896   4.610
40276W        W12591  24.142  11.345  13.153
40277W        W12592  41.394  37.878  13.827
40278W        W12593  19.573   5.915   1.558
40279W        W12594  39.882  19.882  10.792
40280W        W12595   2.809  14.839   2.353
40281W        W12596  13.389  35.548  14.590
40282W        W12597  12.940  25.682   4.121
40283W        W12598   9.748   2.288  13.175
40284W        W12599   7.549  18.730   4.555
40285W        W12600  22.217  43.316  14.061
40286W        W12601   5.171  19.966  14.057
40287W        W12602  41.532  37.823   2.707
40288W        W12603   4.885  25.080   4.312
40289W        W12604  44.404  31.235   4.353
40290W        W12605  13.609  19.312  13.001
40291W        W12606  27.732  28.460  13.800
40292W        W12607  10.616  19.878  13.587
40293W        W12608   1.854  13.680  11.250
40294W        W12609  36.953  26.124   0.747
40295W        W12610  21.806  17.864   3.674
40296W        W12611  39.792  37.872  11.071
40297W        W12612   2.016  24.651  12.439
40298W        W12613  16.116  37.069  13.276
40299W        W12614  31.218  21.690  13.496
40300W        W12615  33.507  22.762  11.677
40301W        W12616  10.037  33.620  13.974
40302W        W12617  31.992  30.209  13.741
40303W        W12618  31.357  14.572  13.514
40304W        W12619  15.876  26.938   3.249
40305W        W12620  25.363  26.725  11.544
40306W        W12621  43.809  30.886  10.520
40307W        W12622   6.233  22.546  12.473
40308W        W12623  33.452  37.340  12.078
40309W        W12624  39.055   3.476   3.246
40310W        W12625   4.700   5.272   2.654
40311W        W12626  20.809   1.677  12.051
40312W        W12627  33.839   4.295  14.412
40313W        W12628  15.290   6.871   0.916
40314W        W12629  37.331  43.401   2.142
40315W        W12630  39.818  30.195  12.955
40316W        W12631  30.582  15.873  13.755
40317W        W12632  16.791   7.646   2.849
40318W        W12633  17.547  30.512  11.375
40319W        W12634  18.124   0.588   4.218
40320W        W12635  39.477  14.070   0.318
40321W        W12636  11.845  10.254  11.115
40322W        W12637  32.817   7.839   3.898
40323W        W12638  13.337  43.917  13.665
40324W        W12639  26.184  12.171  11.503
40325W        W12640  19.657  39.882  13.850
40326W        W12641  39.549  43.433   0.001
40327W        W12642  40.043  29.053  11.500
40328W        W12643  27.732  14.060   4.221
40329W        W12644   2.000  12.136   2.904
40330W        W12645  37.859   2.859   4.520
40331W        W12646  39.027  18.203  13.135
40332W        W12647  15.078   1.923  11.138
40333W        W12648  38.402  17.748  12.603
40334W        W12649  35.394  30.759   4.092
40335W        W12650  28.602  39.278  14.678
40336W        W12651  12.565  17.285   5.003
40337W        W12652   6.686  12.731  11.215
40338W        W12653  23.274   4.690  11.220
40339W        W12654  15.912  24.891   3.784
40340W        W12655  16.015  35.643  13.383
40341W        W12656  26.948  39.091  10.793
40342W        W12657  40.026  35.558   4.660
40343W        W12658  29.469  33.510   4.126
40344W        W12659  41.900  26.575   0.391
40345W        W12660  33.174  22.671   4.536
40346W        W12661  29.923  14.099  12.056
40347W        W12662   5.456  29.585  12.987
40348W        W12663  27.555  43.562  13.560
40349W        W12664   6.704  42.049  12.534
40350W        W12665   8.177  24.684  11.652
40351W        W12666  18.141  43.256   4.537
40352W        W12667  32.541  38.673   2.425
40353W        W12668  28.486  40.028  13.060
40354W        W12669   6.757   9.635  11.950
40355W        W12670  27.051  21.781   3.360
40356W        W12671   3.989  22.540   0.506
40357W        W12672  10.709  39.833  10.298
40358W        W12673  40.302   5.394  14.515
40359W        W12674  34.190  19.116  12.429
40360W        W12675   8.649  22.804   2.249
40361W        W12676  44.176  40.037  14.865
40362W        W12677   8.178  36.479   0.901
40363W        W12678  26.027  17.136  12.437
40364W        W12679  38.893   8.029   2.733
40365W        W12680   6.428  18.028  13.979
40366W        W12681  44.820  43.325   4.683
40367W        W12682  13.877  18.304  13.753
40368W        W12683  28.001  32.175   0.779
40369W        W12684  11.573   1.340  14.288
40370W        W12685   5.251  36.553   4.784
40371W        W12686  11.196   3.905   4.528
40372W        W12687  20.299  21.695  12.567
40373W        W12688   1.181  12.837  12.855
40374W        W12689   4.697  36.607  13.059
40375W        W12690  29.951  27.571   3.212
40376W        W12691  16.577  34.950   4.709
40377W        W12692  36.402  30.857  14.717
40378W        W12693  38.848   4.951  11.088
40379W        W12694   0.201  15.039  11.035
40380W        W12695   6.490  42.447  13.488
40381W        W12696   8.212  42.562  12.051
40382W        W12697  34.630  41.109   1.781
40383W        W12698  11.611  32.046  14.775
40384W        W12699  10.283  32.779  13.842
40385W        W12700  41.027  17.036   0.019
40386W        W12701  29.662  20.226   1.853
40387W        W12702  24.953  21.464   1.374
40388W        W12703  39.822  14.153  14.053
40389W        W12704  42.172   5.717   3.253
40390W        W12705  14.815  13.730  11.729
40391W        W12706   2.638  20.205   2.678
40392W        W12707  20.290  18.612  13.875
40393W        W12708  25.822  31.394   3.569
40394W        W12709  31.973  12.840  10.875
40395W        W12710  41.386  44.311   3.512
40396W        W12711  36.604  17.250   3.333
40397W        W12712  16.075   9.915   2.728
40398W        W12713  10.587  21.482  10.709
40399W        W12714  33.745  42.469  14.819
40400W        W12715  33.826  15.888  12.415
40401W        W12716   2.881  44.840  11.160
40402W        W12717  17.593   9.175   3.190
40403W        W12718  35.266   3.446   2.806
40404W        W12719  42.943   4.744  11.873
40405W        W12720  26.055  15.822   2.720
40406W        W12721   1.753  35.384   0.311
40407W        W12722  33.337  22.257  10.707
40408W        W12723  33.279  38.151   2.758
40409W        W12724  12.919  44.867  10.573
40410W        W12725   2.121  23.146   0.189
40411W        W12726  11.733  18.235   2.199
40412W        W12727   5.819  22.948   3.781
40413W        W12728   9.188  30.099   2.112
40414W        W12729  21.701  23.793   3.624
40415W        W12730  16.089  18.280   1.903
40416W        W12731   7.394  35.686   1.331
40417W        W12732  12.798  24.031   2.669
40418W        W12733   3.259  16.171  13.833
40419W        W12734   9.265  15.289   1.255
40420W        W12735   5.738  24.680   4.163
40421W        W12736   4.741   6.816  12.344
40422W        W12737  43.312   1.673   2.363
40423W        W12738  31.862  22.213  13.206
40424W        W12739  10.864   2.802   1.431
40425W        W12740  25.344  20.204  10.502
40426W        W12741   2.769   7.302   3.693
40427W        W12742  17.123  19.651   3.752
40428W        W12743  42.500  11.658   1.205
40429W        W12744  36.842  24.618   4.983
40430W        W12745   7.043  35.480   0.983
40431W        W12746   4.367  15.829  12.063
40432W        W12747  27.079  31.408  12.237
40433W        W12748  13.124  22.457   4.926
40434W        W12749  38.851   7.958  12.938
40435W        W12750  18.235  12.033  13.485
40436W        W12751   7.467  41.940   4.585
40437W        W12752  12.757  24.918  12.223
40438W        W12753   5.860  23.922   2.995
40439W        W12754  33.420   9.946   1.453
40440W        W12755  37.855  41.259  13.420
40441W        W12756  11.586  37.669  10.833
40442W        W12757   2.482  17.537  13.890
40443W        W12758   3.063  33.049   4.089
40444W        W12759  12.074   7.178   3.723
40445W        W12760  40.990  28.568   4.122
40446W        W12761  33.604  21.525  14.815
40447W        W12762  44.085   9.315   4.827
40448W        W12763  25.505  31.564  11.552
40449W        W12764  36.868  15.278  13.964
40450W        W12765  14.752  24.661  11.115
40451W        W12766  32.002  30.379   0.035
40452W        W12767   8.730   1.396  14.700
40453W        W12768   0.909  24.085   0.255
40454W        W12769   8.807  32.175   0.880
40455W        W12770   5.384  11.654   1.709
40456W        W12771   7.906  41.442  14.859
40457W        W12772  36.317  43.959  14.740
40458W        W12773  25.081  23.568   4.647
40459W        W12774  16.572  16.934  11.158
40460W        W12775  32.549  29.969   0.527
40461W        W12776  20.498  36.840  14.317
40462W        W12777  23.446  43.312  14.529
40463W        W12778   5.728  12.476   3.199
40464W        W12779   9.444  28.178   3.263
40465W        W12780  44.899  24.586   0.848
40466W        W12781  15.836  12.868  11.973
40467W        W12782  10.103   9.878   1.003
40468W        W12783  24.455  34.277  14.790
40469W        W12784  13.609  28.072  14.010
40470W        W12785  15.223  17.152  10.804
40471W        W12786   2.716  43.560  11.197
40472W        W12787  15.860  33.945   1.873
40473W        W12788  31.058  21.629   3.125
40474W        W12789  19.917  23.014  13.985
40475W        W12790  41.968  17.634  12.712
40476W        W12791  28.191  34.308   1.804
40477W        W12792  13.105  34.798   3.802
40478W        W12793  24.256  34.110   1.835
40479W        W12794  34.134  31.332   0.902
40480W        W12795  16.095  40.684   2.848
40481W        W12796  35.126  40.969   4.215
40482W        W12797  10.912  42.346   0.737
40483W        W12798  23.948  43.717  13.778
40484W        W12799  17.893  30.811  11.615
40485W        W12800  38.378   4.774  11.475
40486W        W12801   7.672  32.498   2.317
40487W        W12802  17.730  36.868   1.836
40488W        W12803  13.694  34.049   1.471
40489W        W12804  40.637  30.972   0.642
40490W        W12805  10.796   1.889   2.567
40491W        W12806  15.081  40.316  11.098
40492W        W12807  37.289   0.783   2.378
40493W        W12808   2.893  44.227  11.701
40494W        W12809  37.045  33.648   3.191
40495W        W12810  30.901  31.332   4.172
40496W        W12811  23.346  16.599  14.905
40497W        W12812  29.235  16.197   4.285
40498W        W12813   9.390   3.899   2.137
40499W        W12814  22.116  25.421  12.053
40500W        W12815  34.154  27.123  13.897
40501W        W12816   3.985   6.645  10.768
40502W        W12817   1.274  22.682   4.252
40503W        W12818  26.994  40.755   2.792
40504W        W12819  28.446   7.754   3.752
40505W        W12820  31.076  15.408   3.743
40506W        W12821  13.383   5.190   4.165
40507W        W12822  26.263  22.454   2.300
40508W        W12823  28.169  43.442   3.141
40509W        W12824  18.818   6.243   0.332
40510W        W12825   3.593  43.485  14.113
40511W        W12826  10.370  26.656   4.482
40512W        W12827  14.371  42.448   0.233
40513W        W12828  42.701  44.811  14.347
40514W        W12829  40.229  37.888  12.444
40515W        W12830  41.428  31.597   2.817
40516W        W12831  30.563  13.353  12.646
40517W        W12832  38.522   7.491  12.967
40518W        W12833  34.483  33.626  14.875
40519W        W12834  29.446  13.808  11.957
40520W        W12835   3.808  35.558  13.891
40521W        W12836  44.371  33.483   3.892
40522W        W12837  32.866  26.972   2.312
40523W        W12838  12.694  38.840   3.449
40524W        W12839   6.368  10.765   3.228
40525W        W12840  30.909  27.490   1.259
40526W        W12841  33.930   5.231  11.868
40527W        W12842  16.708  29.007   2.959
40528W        W12843  10.415   3.214  11.367
40529W        W12844  21.604  14.626   2.315
40530W        W12845  26.562  38.022   4.560
40531W        W12846  29.725  28.700  12.777
40532W        W12847  16.067  35.507   2.966
40533W        W12848  28.892  22.748   4.059
40534W        W12849  28.142  19.967  14.000
40535W        W12850  36.237   1.316   1.458
40536W        W12851  18.348  17.602  11.619
40537W        W12852  29.879  36.602  13.476
40538W        W12853  29.491   2.986  12.569
40539W        W12854  32.788   6.418   2.635
40540W        W12855  11.834  11.271   3.124
40541W        W12856  31.353   6.732  13.182
40542W        W12857  20.256  30.491   1.110
40543W        W12858  38.007   4.042   4.657
40544W        W12859   3.074   6.657  11.530
40545W        W12860   1.285  30.645  14.861
40546W        W12861  38.680   0.292  14.158
40547W        W12862   2.394  11.658   3.631
40548W        W12863  30.950  40.100   1.303
40549W        W12864  20.183  30.458  13.565
40550W        W12865  16.450  34.762  13.786
40551W        W12866  16.651  39.966   4.698
40552W        W12867  38.236  17.778  11.665
40553W        W12868  39.359   7.195   2.805
40554W        W12869  19.700  33.793  12.564
40555W        W12870  25.421   6.376  11.968
40556W        W12871  21.612  38.378   2.114
40557W        W12872  33.980  23.631  14.341
40558W        W12873   0.886   4.424   0.392
40559W        W12874  26.919  41.465   0.486
40560W        W12875  36.624  19.665  10.150
40561W        W12876  37.891  12.188  12.896
40562W        W12877  17.660  14.902  12.073
40563W        W12878  17.654  15.004   2.784
40564W        W12879   6.850  10.093  10.694
40565W        W12880   7.564  43.016  11.636
40566W        W12881  44.384  26.599   2.440
40567W        W12882   9.144  14.330  13.434
40568W        W12883  15.368  16.642  13.653
40569W        W12884  39.308  21.047   2.692
40570W        W12885  28.385   5.859  10.875
40571W        W12886  42.773  32.269   1.474
40572W        W12887   5.825  34.185   4.275
40573W        W12888  39.848   0.094  14.294
40574W        W12889  18.625  34.066  11.531
40575W        W12890  14.133  42.345   2.790
40576W        W12891  13.560  36.751  14.211
40577W        W12892  25.531  30.680  10.058
40578W        W12893  13.851  36.286  10.765
40579W        W12894  42.112  39.589  14.084
40580W        W12895  16.722  10.906   2.322
40581W        W12896  26.013  21.419  13.809
40582W        W12897  21.095   8.507   3.542
40583W        W12898  43.941  12.200   3.771
40584W        W12899  32.672  42.460   0.762
40585W        W12900  28.171  20.819   4.098
40586W        W12901   3.460   1.507  14.000
40587W        W12902  38.610  30.159  12.937
40588W        W12903  39.883  36.353   3.632
40589W        W12904   2.065   6.530  13.558
40590W        W12905  44.889  40.541  12.703
40591W        W12906   0.115  35.406  12.026
40592W        W12907  24.051  43.054  13.016
40593W        W12908  24.748  41.097  12.432
40594W        W12909  18.628  17.930  14.845
40595W        W12910  33.614   8.592   1.436
40596W        W12911  22.648  41.870  14.406
40597W        W12912   3.771  37.516   5.073
40598W        W12913   5.443  41.831   1.301
40599W        W12914  27.618   0.098   3.524
40600W        W12915  42.474  34.039   3.378
40601W        W12916  14.762  29.898   0.096
40602W        W12917  32.178  31.620  14.971
40603W        W12918  31.575  18.275  12.465
40604W        W12919   0.249  39.962   2.405
40605W        W12920   1.490  24.648  11.138
40606W        W12921   9.184  17.185   4.506
40607W        W12922  19.210  39.025   2.417
40608W        W12923  44.015   7.712   2.830
40609W        W12924  39.471  25.725   5.785
40610W        W12925  21.309  16.790  12.902
40611W        W12926  10.372  13.061   0.758
40612W        W12927  27.776   5.493   2.822
40613W        W12928  25.990  33.037   2.396
40614W        W12929  34.556   8.804   0.068
40615W        W12930  19.721  21.092  12.172
40616W        W12931  12.254  23.092   4.134
40617W        W12932  29.623  23.159   3.171
40618W        W12933  24.982  34.648  14.144
40619W        W12934   1.733  39.118  10.794
40620W        W12935  17.524   2.712   0.860
40621W        W12936   7.656  19.302  13.835
40622W        W12937  43.765  20.737  10.650
40623W        W12938  36.508   4.502   1.040
40624W        W12939  27.977  12.690   2.137
40625W        W12940   3.573  33.460   3.172
40626W        W12941  26.947  32.367   2.858
40627W        W12942  22.235   7.113   3.315
40628W        W12943  40.602   9.848   3.751
40629W        W12944  18.458  15.107   2.194
40630W        W12945  36.130  26.042   2.352
40631W        W12946  13.305  42.959  14.051
40632W        W12947  30.855  43.519  11.026
40633W        W12948   6.112  14.206  12.303
40634W        W12949  25.915  33.113  11.640
40635W        W12950  18.235  33.129  12.412
40636W        W12951  21.739  44.951  13.116
40637W        W12952  39.805   9.037  12.113
40638W        W12953   7.775  22.587   3.745
40639W        W12954  15.191  30.657  12.885
40640W        W12955  15.029   6.875  13.429
40641W        W12956  30.502  20.578  13.027
40642W        W12957  12.314  17.422   2.309
40643W        W12958  16.834   1.457  13.085
40644W        W12959  35.417  12.733   3.911
40645W        W12960  27.923  35.857  11.584
40646W        W12961  10.770  17.164  10.147
40647W        W12962  22.726  32.919   4.787
40648W        W12963   9.799  27.212   2.964
40649W        W12964  30.642  24.499   2.319
40650W        W12965   1.521  29.608   4.655
40651W        W12966  15.726  22.886   0.846
40652W        W12967  13.796  13.770   2.236
40653W        W12968  42.018  32.078   0.381
40654W        W12969  26.989   3.388  11.446
40655W        W12970  10.239  29.314  12.588
40656W        W12971  41.812  27.997   2.897
40657W        W12972  11.618  27.424  12.935
40658W        W12973  39.765  18.115  10.455
40659W        W12974  25.204  31.527   4.937
40660W        W12975  11.131  38.801  14.864
40661W        W12976   2.690  16.716   1.841
40662W        W12977   1.543   2.005   4.850
40663W        W12978  16.604  30.517  11.501
40664W        W12979  23.521  19.777  12.080
40665W        W12980  23.999  17.017   4.492
40666W        W12981  35.054  12.149  11.473
40667W        W12982  43.874  16.871   2.927
40668W        W12983  27.037  38.350  14.317
40669W        W12984  37.573   0.796  12.553
40670W        W12985  28.415   4.181   2.683
40671W        W12986  26.731  14.336  11.340
40672W        W12987  41.852  18.086  12.051
40673W        W12988  27.196  36.573  13.970
40674W        W12989  12.909  38.080   4.076
40675W        W12990  22.236  44.447  12.983
40676W        W12991  43.241   0.337   4.347
40677W        W12992  31.090   6.931  13.973
40678W        W12993  29.690   1.684  10.632
40679W        W12994   1.746   5.855   1.310
40680W        W12995   2.763  19.832   2.336
40681W        W12996   7.446  20.646  13.036
40682W        W12997  37.962  24.671   2.164
40683W        W12998   4.955  42.368   4.612
40684W        W12999  27.634   5.303   4.830
40685W        W13000   8.467  26.612   0.404
40686W        W13001   6.334  24.606   0.993
40687W        W13002  36.268  18.435  13.769
40688W        W13003  28.471  32.398   4.213
40689W        W13004  34.937  27.121  14.536
40690W        W13005  17.153  17.568  10.800
40691W        W13006   1.889  42.733  14.352
40692W        W13007  24.186  31.936   3.157
40693W        W13008  34.660  26.165  11.652
40694W        W13009  38.496   3.239   4.051
40695W        W13010  17.098  36.405  10.949
40696W        W13011  21.220  32.142  13.989
40697W        W13012  28.948   7.744   3.632
40698W        W13013  22.808  16.563   4.092
40699W        W13014  44.212   3.462  13.825
40700W        W13015  27.376  35.382   3.110
40701W        W13016  20.098  20.509  13.665
40702W        W13017   8.804  18.035   3.586
40703W        W13018  14.197  35.870   2.337
40704W        W13019  23.507  17.020   1.758
40705W        W13020  12.963  18.640  13.832
40706W        W13021  15.599  14.181   0.322
40707W        W13022  26.653  23.818   5.174
40708W        W13023  37.384  25.586  10.770
40709W        W13024  14.829  30.594   2.664
40710W        W13025  18.204  18.592   4.945
40711W        W13026  41.481  38.140  10.630
40712W        W13027  16.785  27.549   2.769
40713W        W13028  19.536  33.584  13.909
40714W        W13029  10.946  29.088   1.115
40715W        W13030  23.580   6.510  12.100
40716W        W13031  26.829   5.379   1.823
40717W        W13032   2.872  42.509   1.842
40718W        W13033  33.119   5.838  12.535
40719W        W13034  31.930  42.511   3.536
40720W        W13035  17.455  10.780  10.223
40721W        W13036  36.932   1.258  14.638
40722W        W13037  28.399  17.105   4.813
40723W        W13038  13.302  16.980   2.358
40724W        W13039  20.087  34.515  12.178
40725W        W13040  14.791  42.743  11.943
40726W        W13041  18.746  38.933   2.678
40727W        W13042   2.837  21.597  10.625
40728W        W13043  21.000  33.714  13.898
40729W        W13044   1.298  24.446   0.266
40730W        W13045  40.558  17.741  11.135
40731W        W13046  20.509  22.083  13.363
40732W        W13047  24.843  37.664  14.933
40733W        W13048  10.519  35.408   3.768
40734W        W13049  32.480  36.642   2.332
40735W        W13050  39.621   8.746  14.790
40736W        W13051  35.320   6.251  11.542
40737W        W13052   4.216   0.981  12.591
40738W        W13053  20.552  37.620  14.815
40739W        W13054  40.793   2.343   2.100
40740W        W13055  40.324  11.267   4.575
40741W        W13056  21.629   8.395  12.943
40742W        W13057   0.769  41.105   0.448
40743W        W13058  41.527  10.932  10.651
40744W        W13059  40.778  24.670   2.306
40745W        W13060  14.240  22.607   1.535
40746W        W13061  30.017  21.669   3.152
40747W        W13062  35.450  27.190  12.092
40748W        W13063  39.930  30.152  11.028
40749W        W13064  30.181  15.582  13.479
40750W        W13065  40.506   9.141  14.799
40751W        W13066  42.233  29.608  11.157
40752W        W13067   6.211  40.903  14.150
40753W        W13068   7.891   7.879   2.418
40754W        W13069  25.580   7.200   2.236
40755W        W13070  14.324  15.202   0.950
40756W        W13071  33.102  19.561   3.377
40757W        W13072  42.090   9.748   1.661
40758W        W13073  22.914  36.592  10.736
40759W        W13074  43.090  26.435   4.638
40760W        W13075   1.187  32.220   3.977
40761W        W13076  31.213  13.707  11.946
40762W        W13077   1.612  21.948  12.766
40763W        W13078   9.600  36.564   3.139
40764W        W13079  19.996  41.795   3.552
40765W        W13080  36.008   8.877   3.719
40766W        W13081  20.445   4.688  12.357
40767W        W13082  29.472  12.079   3.814
40768W        W13083   8.180  39.924   3.094
40769W        W13084  40.268  35.867  13.859
40770W        W13085  25.234  44.265  13.940
40771W        W13086  44.881  15.863  11.457
40772W        W13087  42.701  41.762  11.723
40773W        W13088  13.745  19.094  12.393
40774W        W13089  27.254  28.649  11.544
40775W        W13090  32.462  43.008   4.157
40776W        W13091  15.172  23.641   1.174
40777W        W13092  29.984  25.902  14.350
40778W        W13093  10.299  19.305  13.397
40779W        W13094  41.317  29.506  11.196
40780W        W13095   8.777   7.908  10.777
40781W        W13096  36.046   4.750   2.405
40782W        W13097  27.568  14.619  13.827
40783W        W13098   9.287  22.426   0.913
40784W        W13099  10.960  25.667   2.069
40785W        W13100   6.300  35.643  13.436
40786W        W13101  38.540   8.201  10.580
40787W        W13102  23.710  38.591   3.717
40788W        W13103  18.155  34.622   2.877
40789W        W13104  34.701  12.334  10.660
40790W        W13105   8.374  32.417  14.193
40791W        W13106   8.659  20.488   3.334
40792W        W13107  15.711  20.224   4.619
40793W        W13108  43.790  43.919   4.542
40794W        W13109  26.674  35.002  11.000
40795W        W13110  44.584  44.055  13.718
40796W        W13111  16.195   7.774  11.709
40797W        W13112   7.342  36.068  11.226
40798W        W13113   8.845  14.771  13.762
40799W        W13114  31.946   8.416  14.438
40800W        W13115  30.748  35.288   4.150
40801W        W13116  42.283  29.691  14.048
40802W        W13117  25.176  38.479   4.064
40803W        W13118   4.613   2.203  12.109
40804W        W13119  26.946  37.113  12.085
40805W        W13120  26.267   3.988  12.411
40806W        W13121  44.849  10.311   9.779
40807W        W13122   8.153  16.695   2.447
40808W        W13123  28.007  44.083  14.816
40809W        W13124  41.836  34.653  11.748
40810W        W13125  23.482  30.115  10.623
40811W        W13126  33.428  40.797   2.248
40812W        W13127  13.325  14.784  14.538
40813W        W13128  26.020  12.846   2.204
40814W        W13129  44.102  33.394  12.673
40815W        W13130  12.521  27.067   1.550
40816W        W13131   3.018  32.047  11.571
40817W        W13132  44.365  20.126  13.385
40818W        W13133  17.661   7.801  11.571
40819W        W13134  39.008  14.664  12.666
40820W        W13135  31.614  21.659  11.272
40821W        W13136  33.558  37.082   2.791
40822W        W13137   3.273  17.713  13.579
40823W        W13138  15.209  13.613  11.401
40824W        W13139  44.748   0.073  11.902
40825W        W13140  37.332  15.594  12.545
40826W        W13141  20.693  14.621   2.126
40827W        W13142  35.579  29.645  13.447
40828W        W13143   8.891   3.809   2.252
40829W        W13144  26.533  33.821   4.511
40830W        W13145  28.022  29.109   4.241
40831W        W13146  40.015   5.067   1.398
40832W        W13147  11.670  13.177  14.909
40833W        W13148   1.994  38.312  14.291
40834W        W13149  26.692  14.536  14.361
40835W        W13150  38.895  18.017   1.326
40836W        W13151  30.988  44.984   2.900
40837W        W13152  44.547  14.105   2.733
40838W        W13153  15.236  31.518  10.371
40839W        W13154  12.084  23.460  13.311
40840W        W13155  17.723  12.639   2.307
40841W        W13156   1.731  11.097   1.721
40842W        W13157  10.315  33.495  12.132
40843W        W13158  41.883  26.657  14.842
40844W        W13159  39.036   7.860  14.800
40845W        W13160  16.590  39.859  13.902
40846W        W13161   1.864  26.248  11.111
40847W        W13162  44.837  42.816   4.792
40848W        W13163   1.741  36.197  14.512
40849W        W13164  42.976   8.853  14.890
40850W        W13165   6.715  41.546   1.661
40851W        W13166   7.657  42.512   1.066
40852W        W13167  43.745  41.875   4.467
40853W        W13168   3.363  38.301  11.600
40854W        W13169  32.599   7.286  14.474
40855W        W13170  13.212  13.284  12.600
40856W        W13171  39.892  41.857   1.933
40857W        W13172  36.900  13.307  12.151
40858W        W13173  15.681   1.599  11.129
40859W        W13174  35.017  25.805   3.260
40860W        W13175  17.246  35.317   4.107
40861W        W13176   3.644  35.713   0.845
40862W        W13177  19.504  31.952   1.754
40863W        W13178  11.403  36.092   0.798
40864W        W13179  25.274  32.895   4.824
40865W        W13180   8.381  12.813   2.936
40866W        W13181   8.255  21.989  12.656
40867W        W13182   8.392  13.308   1.676
40868W        W13183  13.448  42.522   4.134
40869W        W13184  32.498  20.673  13.943
40870W        W13185   4.781   0.987   3.777
40871W        W13186  43.704  16.923  13.808
40872W        W13187  19.172  15.471   4.568
40873W        W13188  31.935  26.792  12.310
40874W        W13189  12.361  40.156   1.669
40875W        W13190  30.182  32.979   4.927
40876W        W13191   6.810  25.579   0.785
40877W        W13192  12.242   0.992  10.879
40878W        W13193  41.528   8.322  14.137
40879W        W13194  16.120   8.432   3.644
40880W        W13195  26.682  33.863   5.326
40881W        W13196  13.110  11.172   0.321
40882W        W13197  13.853  38.463   2.825
40883W        W13198  24.211  15.374  10.417
40884W        W13199  33.959  12.790   4.519
40885W        W13200  17.232  18.075   4.111
40886W        W13201   9.488  31.016   0.214
40887W        W13202   2.685  21.051   0.781
40888W        W13203  17.630  16.291  10.648
40889W        W13204  20.387   7.409  12.381
40890W        W13205  39.059  31.177   3.760
40891W        W13206   9.198  17.221   2.747
40892W        W13207  11.406  18.613  10.265
40893W        W13208  28.512  44.062   2.857
40894W        W13209  42.034   2.459  11.780
40895W        W13210  17.649  27.277   2.198
40896W        W13211  36.848  43.613  14.448
40897W        W13212  40.571  25.576   1.888
40898W        W13213  44.302  26.306  12.797
40899W        W13214  21.464   3.500   0.989
40900W        W13215   9.126  34.060  14.850
40901W        W13216  22.685  26.123   2.276
40902W        W13217  16.612  26.529   0.902
40903W        W13218  13.439  17.634   1.756
40904W        W13219  28.760  34.028  10.523
40905W        W13220  38.255   3.711   3.984
40906W        W13221  41.004  41.526  11.583
40907W        W13222  18.265  14.128  10.606
40908W        W13223  23.564  22.781  12.361
40909W        W13224  41.699  19.667  11.547
40910W        W13225  22.252   0.904   3.691
40911W        W13226  20.146  41.992  10.771
40912W        W13227  16.281  26.186   2.678
40913W        W13228   1.224  42.843  13.550
40914W        W13229   5.818  26.927   0.678
40915W        W13230  11.643  14.581   4.380
40916W        W13231  30.943  12.457  14.045
40917W        W13232  31.004  32.461  10.723
40918W        W13233  42.899   9.551  12.913
40919W        W13234  43.363  33.847   4.537
40920W        W13235  43.555   4.484   0.806
40921W        W13236  19.720  40.383  13.572
40922W        W13237  42.468  10.714  13.979
40923W        W13238  12.155  25.575   0.337
40924W        W13239  18.768  26.635   2.181
40925W        W13240  26.988   6.288   9.785
40926W        W13241  42.038  12.734   2.104
40927W        W13242   8.720  29.987   4.282
40928W        W13243  17.831  33.838  14.339
40929W        W13244  14.276  13.340  11.103
40930W        W13245  14.324  29.617   4.840
40931W        W13246  43.368  22.401   0.008
40932W        W13247  37.304  38.366   2.315
40933W        W13248  23.920  13.633   2.374
40934W        W13249  27.812  13.998  12.845
40935W        W13250   5.816  22.581  13.518
40936W        W13251  43.461  41.612  13.485
40937W        W13252  33.009  13.927   3.869
40938W        W13253   5.271  39.609   3.683
40939W        W13254  33.563  22.968  12.125
40940W        W13255  19.133  13.380   2.848
40941W        W13256  28.538  29.099  11.476
40942W        W13257  21.103  34.306   2.733
40943W        W13258  22.572   9.882   1.889
40944W        W13259  39.346  13.085  11.606
40945W        W13260   7.483  11.603   0.733
40946W        W13261  36.569  21.687   4.161
40947W        W13262  35.081  13.776   1.189
40948W        W13263   8.825  15.147   1.004
40949W        W13264   0.556  37.469   4.215
40950W        W13265  19.311  27.077   3.690
40951W        W13266  30.680   1.757  11.587
40952W        W13267  13.640  34.076  10.389
40953W        W13268  17.662   0.458   0.329
40954W        W13269  17.503  15.655   4.818
40955W        W13270   9.283  29.837   0.925
40956W        W13271  23.456  42.871   3.795
40957W        W13272  23.633  30.291   1.671
40958W        W13273  43.058  20.806  12.387
40959W        W13274  16.639   8.752   4.610
40960W        W13275  39.053   1.854  13.184
40961W        W13276  13.142  12.858   3.185
40962W        W13277   5.696  17.357   3.783
40963W        W13278  44.436  12.883  13.473
40964W        W13279  44.537  19.349   1.941
40965W        W13280  14.869  20.748  14.762
40966W        W13281   9.442  11.367   2.396
40967W        W13282  15.314  17.097   1.212
40968W        W13283  35.587  14.543  14.423
40969W        W13284  27.248  31.972  13.838
40970W        W13285  37.272  31.934  14.441
40971W        W13286  30.557  16.315   4.513
40972W        W13287   3.839  10.874  14.224
40973W        W13288  38.204  14.329   0.896
40974W        W13289  43.460  26.953  13.082
40975W        W13290  26.545  16.038   2.001
40976W        W13291  42.357  24.687  13.936
40977W        W13292  34.457  16.656   3.528
40978W        W13293  25.180  26.714  12.462
40979W        W13294  39.051   4.894  11.946
40980W        W13295   5.323  12.702  13.322
40981W        W13296  20.610   3.029  13.362
40982W        W13297  27.076   3.949  11.006
40983W        W13298  41.447  36.925  14.256
40984W        W13299   0.567   0.331   2.101
40985W        W13300  17.762  23.366  12.063
40986W        W13301  16.577  21.211  11.947
40987W        W13302  36.692  41.388  10.767
40988W        W13303  13.388  17.542   3.628
40989W        W13304  35.973  27.888   3.396
40990W        W13305  42.781  26.745  13.055
40991W        W13306  34.151  40.319   2.577
40992W        W13307  25.519  22.689   1.099
40993W        W13308  40.136  40.009  13.503
40994W        W13309  36.103  19.488  12.064
40995W        W13310  15.805  22.591   1.884
40996W        W13311  37.949   1.480   2.278
40997W        W13312  26.451  30.038  11.594
40998W        W13313  32.795  17.295  14.413
40999W        W13314  15.742   1.441   2.286
41000W        W13315  34.881  41.543   5.105
41001W        W13316   9.828  42.829  11.172
41002W        W13317  29.954   7.226   4.707
41003W        W13318  37.525  33.089  12.891
41004W        W13319  23.660  10.256  11.545
41005W        W13320  12.362  15.628  11.679
41006W        W13321  20.130  41.144  12.944
41007W        W13322  34.191  19.565  13.959
41008W        W13323  17.423   9.918  11.468
41009W        W13324  33.161  39.948   4.040
41010W        W13325  34.895   8.729  10.585
41011W        W13326  11.974  36.270   3.275
41012W        W13327  19.932  14.655   0.339
41013W        W13328   3.827  37.074   0.476
41014W        W13329  40.078  35.782  12.843
41015W        W13330  11.670  41.884  14.369
41016W        W13331  37.065  15.953  14.348
41017W        W13332   8.645   4.226   2.411
41018W        W13333   3.009   9.778   4.447
41019W        W13334   8.552  20.741  11.528
41020W        W13335  15.303  28.633   4.547
41021W        W13336  23.321  14.313  12.836
41022W        W13337   3.628  42.544   1.261
41023W        W13338  21.922  26.452   1.111
41024W        W13339  34.600  33.780  10.597
41025W        W13340  42.876  10.878  11.425
41026W        W13341  26.523  39.478   1.715
41027W        W13342  30.313  28.681  14.139
41028W        W13343   4.996  22.906  12.936
41029W        W13344  15.580  42.179  11.142
41030W        W13345  28.870  13.921  11.238
41031W        W13346  19.610  40.387  12.090
41032W        W13347   1.465   7.677   3.666
41033W        W13348   1.887  19.613  11.215
41034W        W13349  33.684  43.456   4.679
41035W        W13350   3.759   2.981   4.228
41036W        W13351  42.307  34.475   3.623
41037W        W13352  14.178  13.757   2.962
41038W        W13353  42.945  19.864   0.022
41039W        W13354  24.642  35.896  12.101
41040W        W13355   7.948   8.177  11.018
41041W        W13356  15.395  25.023  10.657
41042W        W13357  27.198  39.558   2.416
41043W        W13358  44.586  39.282   2.903
41044W        W13359  31.986  19.727  13.270
41045W        W13360  16.096  24.984   0.143
41046W        W13361  30.665  18.069   3.863
41047W        W13362  18.214  44.897   0.936
41048W        W13363   1.271  44.504   2.772
41049W        W13364  28.829  23.554  14.785
41050W        W13365   6.254  43.334   3.098
41051W        W13366   0.719  21.770  10.695
41052W        W13367  14.508   1.296  10.642
41053W        W13368   4.815  44.082  11.920
41054W        W13369  36.325   6.379  13.708
41055W        W13370  26.172  36.073   3.239
41056W        W13371  37.329   6.419   4.106
41057W        W13372  41.843  44.030   4.822
41058W        W13373   2.533   3.260  12.802
41059W        W13374  41.446  28.650   0.820
41060W        W13375   3.316  15.544  10.741
41061W        W13376  11.762  34.475   4.106
41062W        W13377  24.098  31.825   0.322
41063W        W13378   0.352   6.731   1.021
41064W        W13379   7.644  23.605   0.398
41065W        W13380  19.808  40.066   0.443
41066W        W13381  38.938  28.565   0.701
41067W        W13382  15.817  19.543   0.842
41068W        W13383  44.278  15.657  12.078
41069W        W13384  22.692  12.445   2.766
41070W        W13385  41.131   0.491   0.421
41071W        W13386   0.249  27.897  12.951
41072W        W13387  11.769  18.531  13.024
41073W        W13388  27.933  18.172  12.578
41074W        W13389  29.946  19.960   4.189
41075W        W13390  25.219  38.231   3.614
41076W        W13391  20.910  14.298  11.178
41077W        W13392   0.243  37.798   1.311
41078W        W13393  21.465  33.743   5.090
41079W        W13394  37.640   5.749  14.522
41080W        W13395  12.883  10.851   4.635
41081W        W13396  10.509   5.365  13.734
41082W        W13397  40.823  10.139  12.122
41083W        W13398   1.726  34.491  10.491
41084W        W13399  27.898  40.422  13.929
41085W        W13400  14.334   9.798   1.409
41086W        W13401  15.121  34.357  10.921
41087W        W13402   2.022  39.563  14.801
41088W        W13403  39.319  40.527   2.848
41089W        W13404  11.907  38.789   3.261
41090W        W13405   4.000  30.058   3.283
41091W        W13406   4.921   5.256   3.195
41092W        W13407  35.929  28.907  12.920
41093W        W13408  29.556   5.640   3.126
41094W        W13409  37.494  34.699  14.410
41095W        W13410  32.163  41.908   0.425
41096W        W13411  24.088  25.472  13.470
41097W        W13412  13.982  14.259  13.157
41098W        W13413  24.720  33.347  12.132
41099W        W13414  34.802  17.848  11.305
41100W        W13415  20.659  10.650   4.697
41101W        W13416  36.798  32.510   2.833
41102W        W13417  16.781  29.674  11.973
41103W        W13418   4.679  21.748   1.983
41104W        W13419  30.901  17.272   3.636
41105W        W13420  42.831  42.891  12.299
41106W        W13421  41.824   2.738  11.401
41107W        W13422  22.535  40.022   0.921
41108W        W13423  43.264  10.768   4.422
41109W        W13424  15.788   6.964   0.511
41110W        W13425   7.864  25.312  10.666
41111W        W13426  12.704  28.118  14.414
41112W        W13427  24.756  42.219  14.570
41113W        W13428   6.364  22.349   2.430
41114W        W13429  39.047  20.084   3.938
41115W        W13430  23.807   6.395  12.997
41116W        W13431  30.813  19.361  10.317
41117W        W13432   4.602  11.220  12.024
41118W        W13433   2.733  43.930  14.906
41119W        W13434  31.990  15.396   1.406
41120W        W13435  24.738  14.791   3.885
41121W        W13436  15.683  38.917   1.796
41122W        W13437  35.595   9.465  14.960
41123W        W13438  18.729  24.456   0.817
41124W        W13439  39.027  43.269  14.909
41125W        W13440   7.407  24.744  11.251
41126W        W13441  41.471  44.781   3.745
41127W        W13442   7.444  13.763   3.129
41128W        W13443  39.901  42.749   1.874
41129W        W13444   5.323  19.272   1.572
41130W        W13445  26.638   3.260  12.590
41131W        W13446  17.243   7.581  14.828
41132W        W13447  34.909  36.634  11.552
41133W        W13448  39.390  41.598   2.247
41134W        W13449  36.359   7.281  13.607
41135W        W13450  10.372  39.838   3.402
41136W        W13451   0.645  11.729  11.920
41137W        W13452  42.564  30.327   4.727
41138W        W13453   2.060  27.114  13.093
41139W        W13454  39.911  31.585   1.529
41140W        W13455   9.109  21.893   4.514
41141W        W13456   6.798  34.376  13.505
41142W        W13457  23.981  28.868   2.250
41143W        W13458  13.840   0.978   2.656
41144W        W13459  12.804  24.627  13.355
41145W        W13460   5.214  26.933  13.309
41146W        W13461  23.914   3.214  13.917
41147W        W13462  38.971  41.580   1.697
41148W        W13463   8.496  41.026  11.933
41149W        W13464  16.314  22.133   4.837
41150W        W13465  36.975  20.458  10.951
41151W        W13466  10.368  16.230  14.261
41152W        W13467  11.638   9.852  10.386
41153W        W13468  21.771  37.913   4.612
41154W        W13469  25.193  15.131   2.365
41155W        W13470  12.672   8.102  12.232
41156W        W13471  43.864  35.991   2.469
41157W        W13472  12.810  11.580  11.848
41158W        W13473   1.736   5.621  11.674
41159W        W13474  12.019  40.864  10.580
41160W        W13475  17.531  40.929  10.697
41161W        W13476  27.274  29.695   3.547
41162W        W13477  29.513  35.698   3.782
41163W        W13478  41.428  43.281   4.312
41164W        W13479   0.016   9.577  14.637
41165W        W13480   6.799  11.833   2.399
41166W        W13481  12.785  41.519  12.681
41167W        W13482  27.808  24.812   2.669
41168W        W13483  10.850  27.432  12.394
41169W        W13484  39.804  39.607   3.019
41170W        W13485  20.776  25.711  13.320
41171W        W13486  43.349  24.231  14.317
41172W        W13487  32.628   0.309  14.302
41173W        W13488  19.332   8.621   9.855
41174W        W13489   4.709  43.283   1.312
41175W        W13490  20.988   3.828  11.942
41176W        W13491  42.778   2.171  14.579
41177W        W13492   5.240  31.504   1.952
41178W        W13493  35.398  42.785  14.405
41179W        W13494   6.158   5.695   3.457
41180W        W13495  27.264  17.580  14.912
41181W        W13496  18.312   7.177  13.889
41182W        W13497  34.653  29.756  11.885
41183W        W13498  13.855   4.997  12.482
41184W        W13499   2.962  34.623  11.571
41185W        W13500  26.715  26.487  14.399
41186W        W13501  21.725  34.980  12.205
41187W        W13502  12.349   7.931  13.415
41188W        W13503  37.951   3.995  11.538
41189W        W13504  30.722  17.632  12.965
41190W        W13505  16.753  21.256  14.646
41191W        W13506  14.899  36.400   2.576
41192W        W13507  38.327  35.954  13.019
41193W        W13508  14.184  25.173   0.979
41194W        W13509  37.432   4.174   0.284
41195W        W13510  17.074  39.448  11.889
41196W        W13511  13.757  35.955  12.827
41197W        W13512  35.593  15.180  10.725
41198W        W13513  21.896  36.399   0.472
41199W        W13514  29.528  35.118  11.249
41200W        W13515  16.837  33.745  11.630
41201W        W13516  10.958   5.904   1.786
41202W        W13517  33.851  41.878  11.213
41203W        W13518  29.021  38.550   4.326
41204W        W13519   8.682  11.399   0.410
41205W        W13520  17.160  21.263   4.214
41206W        W13521  29.165   2.876   4.410
41207W        W13522  13.266  41.925  11.955
41208W        W13523  44.386  11.212   3.578
41209W        W13524  44.404   6.235  13.961
41210W        W13525   4.299  14.060  10.752
41211W        W13526   3.930  17.013   2.227
41212W        W13527  31.691  15.593   4.617
41213W        W13528  23.395  10.631   0.836
41214W        W13529  41.593   9.824   4.800
41215W        W13530  16.828  16.625   1.743
41216W        W13531   0.515  23.714   0.419
41217W        W13532  18.605   8.883   1.941
41218W        W13533  11.231   2.362   0.805
41219W        W13534  37.246  29.402   4.977
41220W        W13535  19.059  43.492  12.045
41221W        W13536   3.804  17.075   1.246
41222W        W13537   0.964  33.056   3.726
41223W        W13538  35.775  40.915  10.673
41224W        W13539  13.206  19.018   3.665
41225W        W13540  28.621   6.327  12.588
41226W        W13541  13.727  20.487  13.797
41227W        W13542  20.994   8.100  12.059
41228W        W13543  43.686   0.380   4.659
41229W        W13544  13.898  38.331  13.842
41230W        W13545  41.325  40.745  12.404
41231W        W13546   7.238  27.507  11.631
41232W        W13547  38.144  16.341  13.363
41233W        W13548  20.906   2.337   5.018
41234W        W13549   2.247   3.185  11.444
41235W        W13550  28.707  34.815   4.038
41236W        W13551  16.132  38.800   3.147
41237W        W13552  17.225   4.760  12.831
41238W        W13553  42.725  34.754  14.835
41239W        W13554  11.370  14.084   2.384
41240W        W13555  17.741  29.449  12.223
41241W        W13556  18.737  12.101   3.050
41242W        W13557  42.565  33.566  11.510
41243W        W13558   5.688  26.564  12.929
41244W        W13559   5.200   9.048  14.362
41245W        W13560   2.789   1.588  12.060
41246W        W13561  44.652   3.363   2.713
41247W        W13562  37.387  15.262   4.602
41248W        W13563  32.903  42.329  13.794
41249W        W13564   7.276  40.495  12.954
41250W        W13565   4.959  34.517  14.363
41251W        W13566  44.337  16.166   3.211
41252W        W13567   8.793   4.522  14.125
41253W        W13568  17.192  27.057  14.225
41254W        W13569  26.492  16.895  10.691
41255W        W13570  39.088  36.397   0.316
41256W        W13571  35.142  12.339   4.651
41257W        W13572  28.468  37.584   3.472
41258W        W13573   5.982   3.242  13.751
41259W        W13574   4.335  24.963  12.764
41260W        W13575   5.318  37.554  12.425
41261W        W13576   0.837   3.195   0.895
41262W        W13577   1.723  28.794   3.176
41263W        W13578  11.100  17.055  14.988
41264W        W13579  23.602  12.354   0.618
41265W        W13580  15.570  15.356   1.450
41266W        W13581  14.207  26.327   4.044
41267W        W13582  39.315   5.702  14.064
41268W        W13583  23.291  29.979   4.778
41269W        W13584  26.411   1.532  14.942
41270W        W13585  31.212  10.892   2.744
41271W        W13586  16.216  38.255  14.291
41272W        W13587  28.504  22.430   0.536
41273W        W13588  43.933   5.496   5.004
41274W        W13589  16.108  40.434  11.081
41275W        W13590  30.645  38.850   1.766
41276W        W13591  11.624   8.111   1.802
41277W        W13592  16.306   6.932  13.956
41278W        W13593  42.661  41.925  10.636
41279W        W13594  16.522  24.723  11.104
41280W        W13595   9.123  36.480   4.104
41281W        W13596   5.694  16.025  14.910
41282W        W13597   0.286  33.441  13.589
41283W        W13598  17.645  28.986   3.211
41284W        W13599  22.562   6.218   0.013
41285W        W13600  44.279  24.919   2.672
41286W        W13601   9.563   3.785  14.088
41287W        W13602   8.413  29.999   1.736
41288W        W13603   9.889  19.764  12.876
41289W        W13604  36.875  20.571  12.373
41290W        W13605  25.767  15.625   4.990
41291W        W13606  31.389   5.156   2.333
41292W        W13607  30.482  44.723   3.688
41293W        W13608   1.950  24.599   0.126
41294W        W13609   2.766  15.179   4.252
41295W        W13610  33.515  20.272  13.290
41296W        W13611  41.689   1.972   3.615
41297W        W13612  25.164  21.557  12.325
41298W        W13613  14.215  25.698   1.604
41299W        W13614  20.901  34.557   0.384
41300W        W13615  31.882   7.912  10.461
41301W        W13616  41.595  13.169  12.060
41302W        W13617  25.760  21.208  14.225
41303W        W13618  22.273  42.510  13.464
41304W        W13619   2.725  43.804   1.986
41305W        W13620  22.965  36.408  13.031
41306W        W13621  15.891  42.319  14.642
41307W        W13622   6.002  35.667  12.932
41308W        W13623  20.571  24.708   2.784
41309W        W13624  11.283  32.561  13.337
41310W        W13625  18.014  15.099  10.411
41311W        W13626  32.959  40.786  13.885
41312W        W13627  24.011  13.110   3.131
41313W        W13628  31.936   9.321   2.187
41314W        W13629  44.101  22.964   1.649
41315W        W13630  32.693  27.978   4.133
41316W        W13631   7.946  43.836  14.398
41317W        W13632  25.082  35.563   4.729
41318W        W13633   2.472  37.067   1.243
41319W        W13634  38.211  32.607   0.969
41320W        W13635  29.730  10.096   0.354
41321W        W13636  44.468  21.954  12.901
41322W        W13637  34.064  40.153   0.986
41323W        W13638   6.206  38.451   3.507
41324W        W13639  44.556   6.709   0.329
41325W        W13640  11.993  15.641   5.158
41326W        W13641  16.584  12.314   3.569
41327W        W13642  41.070  34.947   2.716
41328W        W13643   7.442  22.121   4.220
41329W        W13644  19.793   8.998  14.833
41330W        W13645  27.815   6.093   3.044
41331W        W13646  25.948  40.168  11.050
41332W        W13647  26.900   9.259  10.764
41333W        W13648  39.006  30.554   4.666
41334W        W13649   3.144  29.973  14.220
41335W        W13650  13.156   8.768  11.088
41336W        W13651  41.858  18.672   1.689
41337W        W13652  14.674  39.635  11.551
41338W        W13653   6.443  41.893   4.511
41339W        W13654  21.495   5.390  14.792
41340W        W13655  24.475  24.620   4.515
41341W        W13656  28.031  11.192   4.457
41342W        W13657   6.699  10.590  14.911
41343W        W13658  25.652   2.917   1.721
41344W        W13659  23.287  11.644  10.669
41345W        W13660  22.640  14.901  10.709
41346W        W13661  29.119   9.316   2.205
41347W        W13662  36.335  25.113   0.695
41348W        W13663  29.075  15.609   1.371
41349W        W13664   8.271  42.733   0.091
41350W        W13665  34.063  18.762   0.366
41351W        W13666  16.097  26.112  13.467
41352W        W13667   9.968   3.998  12.915
41353W        W13668   2.683  44.235   0.747
41354W        W13669  43.059   3.398   4.103
41355W        W13670  10.597  10.040  12.601
41356W        W13671   6.878  28.254  14.562
41357W        W13672  13.743  28.055   2.397
41358W        W13673  32.881   4.507  12.853
41359W        W13674  36.722  23.518   2.368
41360W        W13675   3.200  20.529   4.852
41361W        W13676   4.103   1.765   4.107
41362W        W13677   7.809  31.057   1.126
41363W        W13678  13.554  17.769  11.107
41364W        W13679   5.783   8.485   0.401
41365W        W13680  25.250  14.589  11.210
41366W        W13681  32.899  30.375   1.378
41367W        W13682  17.657   3.035   2.218
41368W        W13683  38.367  43.446  11.018
41369W        W13684  18.099  14.578  11.328
41370W        W13685   7.301   0.447   3.335
41371W        W13686  40.056   6.161  11.232
41372W        W13687  43.880   7.380  12.515
41373W        W13688  42.926  31.868   0.287
41374W        W13689  11.246   2.923   3.560
41375W        W13690  38.243  34.078   0.294
41376W        W13691  35.082  23.609  11.204
41377W        W13692   5.002  39.099   0.362
41378W        W13693  33.946  41.625  12.208
41379W        W13694  13.864  32.528  13.020
41380W        W13695   8.943   8.055   1.843
41381W        W13696   7.891  34.454   4.496
41382W        W13697  44.050   7.227   1.467
41383W        W13698  25.878  33.096  12.564
41384W        W13699  40.042   0.938  11.186
41385W        W13700  19.713  34.600  13.909
41386W        W13701  15.405  25.084   3.835
41387W        W13702  22.798  14.657  13.029
41388W        W13703  30.151  11.685  11.256
41389W        W13704  26.172  29.514  10.529
41390W        W13705  15.806  17.164  12.567
41391W        W13706   6.821   8.764  13.283
41392W        W13707   9.883   5.920   4.661
41393W        W13708  14.378  10.282  14.185
41394W        W13709  33.986  24.514  13.632
41395W        W13710   3.714   2.930  11.536
41396W        W13711   0.742  10.333   2.261
41397W        W13712  44.205   9.920   1.356
41398W        W13713  21.644  36.258   4.169
41399W        W13714  32.588  30.702   4.257
41400W        W13715  21.255  39.420   3.419
41401W        W13716  19.090  34.398  12.915
41402W        W13717  35.396  24.270   1.181
41403W        W13718   7.969  36.108   2.745
41404W        W13719   1.422  30.804  14.408
41405W        W13720  20.660  30.626  13.809
41406W        W13721  27.781  12.848   1.281
41407W        W13722  26.521  29.053  12.499
41408W        W13723   0.975  28.684  12.026
41409W        W13724   7.686   5.832  14.826
41410W        W13725   8.037  42.292  14.248
41411W        W13726  25.721  33.408   3.599
41412W        W13727   4.261   4.827  11.592
41413W        W13728  12.991  12.404   1.473
41414W        W13729  30.389  15.590   3.773
41415W        W13730  17.891  34.315   1.894
41416W        W13731  26.478   6.247   0.779
41417W        W13732   8.911  44.458   1.647
41418W        W13733  18.731  40.822   3.988
41419W        W13734  31.129  32.951  10.501
41420W        W13735  17.628  33.352   0.026
41421W        W13736  14.268  12.759   1.859
41422W        W13737  19.251  22.707  10.768
41423W        W13738  41.417  11.613  11.454
41424W        W13739   0.018   8.251  12.634
41425W        W13740  42.540  29.488  12.961
41426W        W13741  33.447  16.031  13.317
41427W        W13742  33.514  19.314  12.155
41428W        W13743   2.786  44.731  11.662
41429W        W13744  20.182  44.675  13.836
41430W        W13745   8.812  37.022   3.351
41431W        W13746  28.675  21.138   2.683
41432W        W13747   3.141  36.445  11.680
41433W        W13748  39.687  31.533  12.869
41434W        W13749   3.940  41.000  11.560
41435W        W13750  12.709  13.342  13.433
41436W        W13751  22.745  42.939  12.276
41437W        W13752  28.389  43.219  14.974
41438W        W13753  10.342  10.806  13.460
41439W        W13754  13.245  39.502   0.990
41440W        W13755   2.954  23.158   2.881
41441W        W13756  25.989  17.343  14.443
41442W        W13757  36.081  43.839  10.690
41443W        W13758  38.972  27.708  13.289
41444W        W13759  28.489  38.897  14.984
41445W        W13760  11.917  12.696   1.148
41446W        W13761  15.721  40.951  14.280
41447W        W13762  18.177  27.921   3.728
41448W        W13763   8.802   6.702   2.145
41449W        W13764   8.143   2.466   3.182
41450W        W13765  17.325  33.760   2.763
41451W        W13766  26.746   3.711  13.855
41452W        W13767  44.861  17.510   2.236
41453W        W13768   1.070  44.582  14.358
41454W        W13769  16.841  13.127   1.738
41455W        W13770  31.346  11.610   3.536
41456W        W13771  22.489  22.851  14.772
41457W        W13772   8.893  16.403   5.125
41458W        W13773  19.290  32.214   3.117
41459W        W13774  20.098   9.901   4.655
41460W        W13775  41.782  10.775  11.065
41461W        W13776   5.905  33.908  14.498
41462W        W13777  31.065   3.325  14.055
41463W        W13778  19.563  20.148  13.397
41464W        W13779   4.932  21.583   0.910
41465W        W13780  10.569  15.065   0.519
41466W        W13781  36.834   2.158  10.745
41467W        W13782  19.229  43.930   4.510
41468W        W13783  27.616   3.880  13.507
41469W        W13784  36.996   8.265  13.400
41470W        W13785  43.962  29.724  12.895
41471W        W13786  33.093   6.631  10.443
41472W        W13787  44.296  24.471   1.171
41473W        W13788  14.701  38.557   0.907
41474W        W13789  29.138  43.533  14.968
41475W        W13790  16.722  39.805  12.398
41476W        W13791  19.800   6.899  11.941
41477W        W13792   2.673  36.807   0.838
41478W        W13793   6.594   5.901   4.394
41479W        W13794   6.489  20.667  13.557
41480W        W13795  24.538  43.953   4.644
41481W        W13796  28.600  10.829  13.028
41482W        W13797  18.903  14.314  11.827
41483W        W13798  24.274  36.602  12.626
41484W        W13799  35.160  23.006   3.225
41485W        W13800  35.717  42.999  13.490
41486W        W13801   0.495   4.169  12.825
41487W        W13802  39.568  26.224  14.332
41488W        W13803  44.848   0.021  12.397
41489W        W13804  39.555  11.178   2.168
41490W        W13805  13.312  22.184  14.811
41491W        W13806  17.355  27.874  10.146
41492W        W13807   0.206  12.749  14.912
41493W        W13808  43.626  12.287  10.202
41494W        W13809  25.926  22.590   0.284
41495W        W13810  12.789   7.392   0.420
41496W        W13811   4.814  14.797  12.656
41497W        W13812  10.823  18.897   3.679
41498W        W13813  36.666  26.902   1.277
41499W        W13814  39.533   5.770   3.366
41500W        W13815  34.892  18.328   3.309
41501W        W13816  31.681   2.959  13.723
41502W        W13817  27.688  15.396   2.267
41503W        W13818   8.619  18.669  14.822
41504W        W13819  43.244   8.716   4.570
41505W        W13820  28.498  44.903  11.884
41506W        W13821  44.515  29.861   2.378
41507W        W13822   9.785  23.334   0.876
41508W        W13823  17.288  16.706   1.997
41509W        W13824  30.613  29.873  14.366
41510W        W13825   4.824  19.899  11.977
41511W        W13826   2.715  14.809  13.889
41512W        W13827  37.036  21.004   4.602
41513W        W13828   6.637   7.883  11.083
41514W        W13829  40.989  10.269   2.647
41515W        W13830  39.897  24.651   4.082
41516W        W13831  18.340  42.420   2.300
41517W        W13832  22.994  19.542   1.388
41518W        W13833  39.604  44.466   2.172
41519W        W13834   7.032   6.337   4.660
41520W        W13835  37.763  10.864   1.532
41521W        W13836   4.844  26.379  12.240
41522W        W13837  19.849  32.017   2.138
41523W        W13838  25.452  29.434  14.799
41524W        W13839  21.348  18.647   3.737
41525W        W13840   6.879  11.840   1.211
41526W        W13841  16.725  27.029  11.340
41527W        W13842  31.884   6.133   4.185
41528W        W13843  16.358  23.043   1.425
41529W        W13844  42.304   9.584  14.060
41530W        W13845  22.810   8.893   3.336
41531W        W13846  32.414  42.027  14.011
41532W        W13847  38.633  21.464   3.364
41533W        W13848  41.626  39.931  13.970
41534W        W13849  11.194  31.636  12.940
41535W        W13850   7.701  17.231  13.837
41536W        W13851  12.115  33.481  14.076
41537W        W13852   5.810  21.669   2.122
41538W        W13853  20.632   7.517  13.350
41539W        W13854  36.632  23.085   0.789
41540W        W13855  39.275   8.822   2.920
41541W        W13856  36.220  38.133   3.705
41542W        W13857   0.849  30.983   2.381
41543W        W13858  38.927  11.740  11.830
41544W        W13859  42.766  17.883  13.812
41545W        W13860  32.187  37.468  13.487
41546W        W13861   3.273  36.252   4.739
41547W        W13862   2.709  18.333  13.599
41548W        W13863  19.526  29.407   2.200
41549W        W13864  35.123  20.537  10.522
41550W        W13865  21.744   0.681  13.627
41551W        W13866  30.348  31.393  10.731
41552W        W13867  15.905   5.378   1.664
41553W        W13868  17.903  31.310  13.873
41554W        W13869  19.499  41.305   4.345
41555W        W13870  38.049   4.940   1.902
41556W        W13871  25.156  24.467   3.841
41557W        W13872   7.345  11.360  12.519
41558W        W13873   9.210   3.973  10.634
41559W        W13874   5.225  39.884  13.601
41560W        W13875  37.957  13.923   4.349
41561W        W13876  26.377  11.256  14.887
41562W        W13877  31.574  37.320   4.230
41563W        W13878   2.516  38.063   3.148
41564W        W13879  30.449  23.894  13.962
41565W        W13880   3.828  17.357  12.554
41566W        W13881  35.607   9.171  14.473
41567W        W13882   5.306  15.103   0.282
41568W        W13883   9.739  33.101   3.610
41569W        W13884  32.449  35.419  10.823
41570W        W13885   3.338  13.616   3.605
41571W        W13886  27.274  23.305   1.720
41572W        W13887  28.001  30.129  11.154
41573W        W13888  40.905  38.580  13.939
41574W        W13889   5.917  38.715   4.320
41575W        W13890   2.154   4.569  13.508
41576W        W13891  24.569  32.590   0.996
41577W        W13892  40.926   3.354  10.799
41578W        W13893  12.819  21.122   4.483
41579W        W13894  29.043  20.163   3.303
41580W        W13895  15.271  14.202   3.675
41581W        W13896  34.448   3.423  13.781
41582W        W13897  42.395  33.155  10.715
41583W        W13898  10.183  25.944   4.187
41584W        W13899  14.219  11.108  14.653
41585W        W13900  28.046   2.397  12.519
41586W        W13901  29.139  33.433   3.733
41587W        W13902  23.951  21.302   2.829
41588W        W13903  11.666  43.728  14.387
41589W        W13904  28.071  39.909  12.772
41590W        W13905  13.716  10.375  14.902
41591W        W13906   3.695  18.793  13.292
41592W        W13907  30.901   1.221   0.556
41593W        W13908  29.553  20.694   2.088
41594W        W13909  34.388  13.773  12.024
41595W        W13910  20.558  38.917  14.436
41596W        W13911   6.718  24.057   3.063
41597W        W13912  39.034  14.331  14.386
41598W        W13913  31.585  22.254  14.907
41599W        W13914  34.738  30.811  11.559
41600W        W13915   4.902   8.475  13.593
41601W        W13916  35.058  20.500   2.678
41602W        W13917  22.453  33.579  11.622
41603W        W13918  16.107   0.673  11.194
41604W        W13919  30.085   2.795  10.685
41605W        W13920  27.709  17.514   3.878
41606W        W13921  13.676  39.720  13.339
41607W        W13922  36.727  21.690   3.247
41608W        W13923   9.982  43.500  12.476
41609W        W13924   3.465   1.374  10.634
41610W        W13925  35.330   5.788  14.971
41611W        W13926  24.589  10.307   3.717
41612W        W13927   9.984  31.112   0.203
41613W        W13928  42.282  26.078   0.929
41614W        W13929  19.109  28.351   2.819
41615W        W13930   7.230  12.132  14.403
41616W        W13931  20.267  36.161   2.286
41617W        W13932  31.853  28.117   0.308
41618W        W13933  29.036  39.103  12.474
41619W        W13934   6.231  13.145  13.050
41620W        W13935  39.470  22.154   0.488
41621W        W13936  11.601  21.545  14.895
41622W        W13937   0.220  40.413  10.708
41623W        W13938  28.179  42.380  11.543
41624W        W13939  38.559  13.521   4.660
41625W        W13940  28.620  41.738   1.873
41626W        W13941  19.039  36.401  14.137
41627W        W13942  43.479  18.270   0.786
41628W        W13943  22.752  15.118   4.507
41629W        W13944  43.516  40.315  13.002
41630W        W13945  33.087  14.676   4.876
41631W        W13946   8.220   1.397   2.404
41632W        W13947  29.076   3.201  14.880
41633W        W13948   4.225   9.677  12.016
41634W        W13949   2.402   0.933  12.888
41635W        W13950   9.427  10.371   1.943
41636W        W13951  25.030  30.835   3.236
41637W        W13952  34.427   8.227  12.135
41638W        W13953   1.775   6.285  12.790
41639W        W13954  10.888   1.875  12.131
41640W        W13955  44.682  19.052  10.549
41641W        W13956  14.474   6.315   9.769
41642W        W13957  22.238  12.054   3.321
41643W        W13958  33.220  40.847   1.705
41644W        W13959  42.318  41.245  10.927
41645W        W13960  30.349  37.549  11.491
41646W        W13961  18.692  44.557  13.468
41647W        W13962   8.257  22.769   0.880
41648W        W13963   4.640   2.916  11.662
41649W        W13964  19.770  24.904  11.969
41650W        W13965  17.169   9.961  10.296
41651W        W13966  37.366  44.117  10.034
41652W        W13967  15.342  22.251   4.240
41653W        W13968   6.667   7.267  12.131
41654W        W13969  33.633  40.043   1.768
41655W        W13970  35.596  24.312  11.965
41656W        W13971  15.084  30.942   3.373
41657W        W13972  19.774  26.548   4.670
41658W        W13973  44.577   5.950  14.353
41659W        W13974  35.416  16.924   1.736
41660W        W13975   0.618   8.720  10.222
41661W        W13976  23.495   4.935   4.722
41662W        W13977  12.972  28.577   3.834
41663W        W13978  19.774  23.026   3.336
41664W        W13979   2.567  42.290  13.128
41665W        W13980  25.313  43.799   1.711
41666W        W13981  11.969   0.410   1.408
41667W        W13982  36.662  26.227  11.442
41668W        W13983   3.415  20.787  12.123
41669W        W13984   0.826  43.246  12.521
41670W        W13985   9.115  20.458   0.891
41671W        W13986  26.097  38.384  14.847
41672W        W13987   3.325   5.905  11.322
41673W        W13988  36.361  39.076   4.580
41674W        W13989  23.761  10.749  11.639
41675W        W13990   5.272  44.040  14.918
41676W        W13991  24.702  43.389  10.525
41677W        W13992  32.748  42.005   4.100
41678W        W13993   2.722  43.191  11.595
41679W        W13994  39.786  24.762   0.488
41680W        W13995  17.818  32.151   3.769
41681W        W13996  16.159  38.617  11.499
41682W        W13997  22.553  23.612  13.247
41683W        W13998   9.923  34.556   3.243
41684W        W13999   0.221   1.764  11.974
41685W        W14000  26.664  35.595   4.317
41686W        W14001  43.873  18.026   3.647
41687W        W14002  19.463  36.987   1.965
41688W        W14003  11.736  33.703  13.788
41689W        W14004  34.071  29.973  14.039
41690W        W14005  16.348  21.043  10.862
41691W        W14006  13.835  39.397   1.678
41692W        W14007  14.976  27.662  12.433
41693W        W14008   1.036  10.419  10.649
41694W        W14009  40.355   1.824   1.345
41695W        W14010  21.282   6.717   2.975
41696W        W14011  11.449   6.658  11.879
41697W        W14012  35.861   0.950  11.230
41698W        W14013  36.907  10.504  14.495
41699W        W14014  41.878  34.464   2.753
41700W        W14015   0.209  11.990  13.496
41701W        W14016   4.728  22.061   1.028
41702W        W14017   4.098  41.154  10.267
41703W        W14018  23.594  44.364   2.135
41704W        W14019  28.136  21.980  12.899
41705W        W14020  34.740  38.445   2.135
41706W        W14021  32.055  27.559   1.146
41707W        W14022  42.266  18.229  10.985
41708W        W14023  14.079  25.525   2.583
41709W        W14024  24.739  35.871  13.824
41710W        W14025  28.912  39.793  13.819
41711W        W14026  26.479   9.463   1.325
41712W        W14027  12.492  43.837   4.571
41713W        W14028  36.156  40.592  14.840
41714W        W14029   6.695  26.484   2.256
41715W        W14030  41.089   8.248  12.893
41716W        W14031   0.737  39.202  10.979
41717W        W14032  41.170  14.437   0.550
41718W        W14033  26.882  23.258  12.480
41719W        W14034  29.458  44.206  13.127
41720W        W14035  38.585  26.380  10.824
41721W        W14036  40.723  38.886  14.630
41722W        W14037  24.416   5.663  14.320
41723W        W14038  10.334   3.452   1.343
41724W        W14039  22.088  19.968  13.470
41725W        W14040   0.344   4.108   2.816
41726W        W14041  43.140  24.723  12.620
41727W        W14042  29.419  26.034   2.633
41728W        W14043  18.084  21.056   2.150
41729W        W14044   7.927   0.429   0.410
41730W        W14045  39.878  21.115  14.996
41731W        W14046  16.573  43.973   4.291
41732W        W14047  35.302  20.286   1.851
41733W        W14048   9.669  30.867   3.192
41734W        W14049  35.505  18.088   1.517
41735W        W14050  42.095   9.657  14.838
41736W        W14051  27.279  12.108   0.881
41737W        W14052  33.825  11.759  11.447
41738W        W14053  33.022   6.623  12.404
41739W        W14054  20.118  41.822   4.165
41740W        W14055  12.749  26.584  14.534
41741W        W14056  16.191  40.641   4.272
41742W        W14057  32.459  28.182  13.484
41743W        W14058  39.315  39.327   1.758
41744W        W14059  10.351   1.835   1.703
41745W        W14060  15.110  11.515  12.086
41746W        W14061   8.128  21.661   0.010
41747W        W14062   2.733   8.657   2.697
41748W        W14063  33.640  11.042   0.340
41749W        W14064   5.932  36.173   4.900
41750W        W14065  22.926   1.715  11.136
41751W        W14066  28.396  26.731  11.214
41752W        W14067  14.924  34.396   2.982
41753W        W14068  41.351  21.796  14.560
41754W        W14069  40.928   5.460   2.644
41755W        W14070  28.870  17.867  11.167
41756W        W14071   9.092  11.141   0.176
41757W        W14072  43.368  17.663   1.553
41758W        W14073  43.149  23.048  10.456
41759W        W14074  21.005  33.544  10.722
41760W        W14075  37.051  33.924  14.214
41761W        W14076  15.210  28.399   4.099
41762W        W14077  22.980  14.043   2.556
41763W        W14078   1.262  26.062   2.809
41764W        W14079  13.297  33.450  12.058
41765W        W14080  24.704  29.481   0.213
41766W        W14081  13.934  27.697  13.851
41767W        W14082  39.686  34.617  13.902
41768W        W14083  37.317  21.456   4.615
41769W        W14084  16.009  34.840  10.677
41770W        W14085  12.309  11.571   0.287
41771W        W14086  40.436  21.144   2.518
41772W        W14087  15.097  12.255  10.721
41773W        W14088   9.786   3.337  12.121
41774W        W14089   7.122   8.379   4.245
41775W        W14090  42.429   6.155   3.334
41776W        W14091   6.770  44.303   1.926
41777W        W14092  42.816  37.711   3.318
41778W        W14093  37.123  12.741  13.360
41779W        W14094  19.757  40.486  10.270
41780W        W14095  22.677  25.271  11.826
41781W        W14096  10.863  39.300   1.263
41782W        W14097  27.072  42.242   4.735
41783W        W14098  41.184   6.947  12.583
41784W        W14099  39.613  27.209  11.036
41785W        W14100   8.178  12.986   4.388
41786W        W14101  16.641   3.425   4.546
41787W        W14102  31.470  44.667  11.153
41788W        W14103   3.619  14.574   2.719
41789W        W14104  33.021  23.981  10.207
41790W        W14105   6.506  40.493   4.273
41791W        W14106  41.517  32.067   3.617
41792W        W14107  33.073  36.411  12.553
41793W        W14108  17.072  14.520   0.405
41794W        W14109   4.083  11.135  12.035
41795W        W14110   8.673  14.620  11.896
41796W        W14111   7.090  27.178   0.001
41797W        W14112   1.634  28.248  12.393
41798W        W14113  41.249   9.318   0.265
41799W        W14114  36.239  42.393  11.470
41800W        W14115  16.965   7.174  14.948
41801W        W14116  36.350  36.829  11.570
41802W        W14117  35.265   8.810  13.955
41803W        W14118  40.509  34.070  11.922
41804W        W14119  33.434  40.533  11.522
41805W        W14120  28.402  39.413   3.529
41806W        W14121   5.823  12.347  14.451
41807W        W14122  11.714  34.377  12.331
41808W        W14123  15.269  31.319   4.629
41809W        W14124  14.180  27.478  11.103
41810W        W14125  22.540  19.225   0.369
41811W        W14126  34.507   4.837   3.157
41812W        W14127   2.722  31.538   2.212
41813W        W14128  21.258  11.370   1.332
41814W        W14129  33.387  30.935   1.417
41815W        W14130  29.373  18.731  14.413
41816W        W14131  32.497  16.252   1.828
41817W        W14132  13.902  35.462   2.642
41818W        W14133  18.512  40.270   3.111
41819W        W14134   7.126  41.088   4.385
41820W        W14135  41.798  42.053   0.230
41821W        W14136  37.606  25.435   2.817
41822W        W14137  31.946  14.230   3.713
41823W        W14138  42.563  31.481   0.234
41824W        W14139  39.486  23.755   5.356
41825W        W14140   4.484   1.810  14.952
41826W        W14141  29.908  40.504  10.733
41827W        W14142  41.758  16.766  14.545
41828W        W14143   3.290  36.610   3.230
41829W        W14144  11.120  30.902   0.205
41830W        W14145   0.814  32.906  12.793
41831W        W14146  43.159  34.759  11.941
41832W        W14147  14.848  30.579  11.162
41833W        W14148  42.789  38.213   3.173
41834W        W14149  13.108  28.864  14.463
41835W        W14150  32.197  12.371  13.098
41836W        W14151   2.108  13.232   4.294
41837W        W14152  19.605  20.654   2.890
41838W        W14153   7.124   6.582  13.610
41839W        W14154  32.448   4.223  12.871
41840W        W14155  26.236  23.235   0.936
41841W        W14156   9.065  39.991  11.219
41842W        W14157  43.414  33.235  12.604
41843W        W14158  18.731  12.104  13.464
41844W        W14159  10.672   8.172   1.733
41845W        W14160  13.047  28.100  11.499
41846W        W14161   5.326   6.310  12.914
41847W        W14162  20.820   5.820  10.445
41848W        W14163  28.144  16.332  12.948
41849W        W14164  32.831  43.340  12.907
41850W        W14165  11.776  38.586  14.959
41851W        W14166  10.731  12.187   3.641
41852W        W14167  40.218  33.613  11.984
41853W        W14168  32.629  13.306   1.835
41854W        W14169  39.382  18.770   0.398
41855W        W14170  29.160  43.634  12.475
41856W        W14171  13.351  35.151   0.413
41857W        W14172  27.840  22.773  12.528
41858W        W14173   3.376  10.263   1.390
41859W        W14174  27.913  30.496   1.318
41860W        W14175  12.343   1.788  13.437
41861W        W14176  34.190  11.686   2.845
41862W        W14177  26.825   3.248   5.140
41863W        W14178  32.975  12.596  13.859
41864W        W14179  33.727  30.910   3.721
41865W        W14180  21.218   4.297  13.930
41866W        W14181  27.038  37.388  13.449
41867W        W14182  44.904   3.927  14.308
41868W        W14183  36.511  44.996   0.753
41869W        W14184   5.303  13.737  10.496
41870W        W14185  27.061  31.678   2.292
41871W        W14186  26.230  16.127  13.512
41872W        W14187  16.241  27.481   1.418
41873W        W14188  20.696   3.853   3.835
41874W        W14189  27.662  10.662  11.723
41875W        W14190  34.139  29.101   0.267
41876W        W14191  27.330  13.122  10.922
41877W        W14192   4.248  17.176  11.499
41878W        W14193  15.982   5.402  13.134
41879W        W14194  25.866  14.346  10.343
41880W        W14195  43.375  16.615  13.559
41881W        W14196  22.077  18.254  12.079
41882W        W14197  14.744  43.527  10.678
41883W        W14198   8.239   5.868  11.243
41884W        W14199   3.339  40.264  14.813
41885W        W14200  42.201  42.754   3.946
41886W        W14201   8.191  42.092  14.895
41887W        W14202  42.834   3.771   1.664
41888W        W14203  27.359  27.717   1.809
41889W        W14204  26.810   7.183   3.670
41890W        W14205  18.575  18.401   4.240
41891W        W14206   7.950  36.573   1.460
41892W        W14207  42.919  44.814  12.323
41893W        W14208  43.900  13.183  11.694
41894W        W14209  27.492   9.122  12.360
41895W        W14210   7.900  25.536  11.611
41896W        W14211  11.756  31.710  13.408
41897W        W14212  18.394  24.860  14.888
41898W        W14213  21.866  35.789   4.162
41899W        W14214  15.854  35.329  12.904
41900W        W14215  29.620  23.945   1.844
41901W        W14216  30.354  27.624   2.704
41902W        W14217  17.467   9.653   3.308
41903W        W14218  19.007  43.868  14.447
41904W        W14219   8.245   8.721  10.685
41905W        W14220  26.618  25.693  11.123
41906W        W14221  23.807  30.573   4.598
41907W        W14222  21.018  25.078  14.884
41908W        W14223  37.216  25.705   5.463
41909W        W14224   2.508  32.056  11.635
41910W        W14225  40.269   6.360  10.760
41911W        W14226   5.962  14.677   2.480
41912W        W14227  27.109  14.785  14.075
41913W        W14228  20.882   7.714  13.773
41914W        W14229  18.234  40.031  11.944
41915W        W14230   4.640   7.526   0.112
41916W        W14231   7.674   9.922   4.040
41917W        W14232  18.257  10.669  12.121
41918W        W14233   3.068  33.059  14.624
41919W        W14234  42.778  21.246   1.791
41920W        W14235  40.035  32.094   1.643
41921W        W14236  20.731  22.724  12.150
41922W        W14237   9.314  30.093   3.475
41923W        W14238  44.506   3.705   3.854
41924W        W14239  29.577   2.237  13.874
41925W        W14240  10.677  23.061   1.350
41926W        W14241  35.397   6.801  12.111
41927W        W14242  34.463   8.418  14.083
41928W        W14243  18.076  27.603   0.249
41929W        W14244  13.925  12.125   1.225
41930W        W14245  11.021   2.234   3.528
41931W        W14246  28.663  38.829   2.741
41932W        W14247  38.041   4.207  14.034
41933W        W14248  32.867   4.758   4.594
41934W        W14249  18.586  17.282  11.979
41935W        W14250  34.484  38.325  13.408
41936W        W14251   3.668  11.825  11.627
41937W        W14252  11.619   0.720  13.057
41938W        W14253  23.340  44.398   0.204
41939W        W14254  35.591  13.091   0.920
41940W        W14255  13.043   0.177   1.207
41941W        W14256  21.444  14.327  11.107
41942W        W14257  19.527   4.413   2.253
41943W        W14258  31.438  26.668   1.291
41944W        W14259  37.957  13.029  13.957
41945W        W14260  31.565  17.280  14.352
41946W        W14261   4.538  30.628   2.727
41947W        W14262  12.267   9.560  14.082
41948W        W14263   9.128   6.140  10.744
41949W        W14264  21.926   0.477   1.815
41950W        W14265   0.445  23.185  12.944
41951W        W14266   1.618  20.046   2.794
41952W        W14267   8.135  29.286  14.502
41953W        W14268  16.321  41.155   2.863
41954W        W14269  27.570  14.586  14.743
41955W        W14270  31.435  38.707  13.022
41956W        W14271  28.944  10.676  14.084
41957W        W14272  42.476   3.889  10.664
41958W        W14273  33.163  13.951  12.377
41959W        W14274   6.461   9.767  11.539
41960W        W14275  21.557   8.936  13.931
41961W        W14276  15.213  20.051  11.975
41962W        W14277   8.858  36.362  12.073
41963W        W14278   8.860  39.350   4.167
41964W        W14279   8.899  23.128   3.132
41965W        W14280  24.273  10.615  12.411
41966W        W14281  42.381  41.414  12.776
41967W        W14282   8.885  17.222  13.127
41968W        W14283  19.676   0.604  10.835
41969W        W14284  32.013  22.268   1.274
41970W        W14285  11.308  32.142  12.534
41971W        W14286  21.954  33.585  11.616
41972W        W14287  13.427  43.457  13.919
41973W        W14288  35.595   0.337  12.796
41974W        W14289  39.104   1.886   1.925
41975W        W14290  17.656  35.511  11.762
41976W        W14291  23.104   2.083   3.961
41977W        W14292  39.254  20.557   3.315
41978W        W14293   3.117  30.422  13.946
41979W        W14294   3.451  11.428   2.213
41980W        W14295  12.621   1.226  14.956
41981W        W14296  29.568  12.305  14.287
41982W        W14297  13.164  23.716   4.981
41983W        W14298  28.937   4.258   2.502
41984W        W14299   1.833  32.852   4.563
41985W        W14300  43.494  24.804   0.162
41986W        W14301  10.768  11.399   3.162
41987W        W14302  40.444  18.559  13.003
41988W        W14303  25.623  37.190   2.307
41989W        W14304  40.850   1.712   4.282
41990W        W14305  13.551  39.145  12.728
41991W        W14306  17.533   4.517   2.975
41992W        W14307  34.622  42.871  12.043
41993W        W14308  21.539   2.514   3.419
41994W        W14309  10.921  44.742   2.546
41995W        W14310  39.972  21.576   3.590
41996W        W14311  20.197  39.616  10.681
41997W        W14312  19.102  17.222  12.008
41998W        W14313   9.663  28.518  11.090
41999W        W14314   9.973   7.406  11.408
42000W        W14315  22.499  12.172   2.269
42001W        W14316  36.813  16.343  14.059
42002W        W14317  27.951  24.200  12.503
42003W        W14318  36.416  34.790   4.812
42004W        W14319  41.208  25.539  11.015
42005W        W14320   9.162  18.403   5.347
42006W        W14321  11.936  33.918   1.794
42007W        W14322  25.067  37.748   1.213
42008W        W14323  18.568  41.381  13.888
42009W        W14324  16.211  38.789  10.167
42010W        W14325  41.985  31.094  11.866
42011W        W14326  10.625  12.215  12.363
42012W        W14327  15.560  35.010  11.595
42013W        W14328  35.034  13.937  13.430
42014W        W14329  21.694   9.435  13.850
42015W        W14330  29.444  33.234  13.346
42016W        W14331  12.063  30.687   1.135
42017W        W14332   2.941   4.152  11.028
42018W        W14333  35.373  21.028  13.568
42019W        W14334  41.553  31.615   2.296
42020W        W14335  40.508   6.853  10.736
42021W        W14336  37.106  23.211  13.910
42022W        W14337  26.608  17.249   3.620
42023W        W14338  13.062  29.442  13.875
42024W        W14339   5.315  26.515   0.029
42025W        W14340   6.837  26.813  12.553
42026W        W14341  36.412   2.971   4.607
42027W        W14342  27.526   7.891   0.909
42028W        W14343  17.139   9.653   9.885
42029W        W14344  19.667   2.395  14.293
42030W        W14345  44.991  28.195  13.930
42031W        W14346  42.307  32.428   1.224
42032W        W14347  25.204   9.912   1.174
42033W        W14348  23.648  38.215  14.473
42034W        W14349   7.856   3.311   3.539
42035W        W14350  11.118  10.055   3.317
42036W        W14351  18.191  37.878   3.681
42037W        W14352   0.410  10.857  14.752
42038W        W14353  44.045  26.471   0.355
42039W        W14354  19.218  35.723  11.117
42040W        W14355  23.109  16.374  13.441
42041W        W14356   1.984  16.614  11.229
42042W        W14357  42.390  38.534  13.793
42043W        W14358   8.659  10.287   3.164
42044W        W14359  23.609  15.607  12.377
42045W        W14360  10.205  17.389   0.571
42046W        W14361  36.222  19.063  11.784
42047W        W14362  42.890  31.076   3.309
42048W        W14363  16.665  38.519   3.868
42049W        W14364  16.359  21.591   0.356
42050W        W14365  36.322   0.560   2.782
42051W        W14366  33.078  31.899   1.178
42052W        W14367  44.336  21.488   3.223
42053W        W14368   4.978  30.072   2.515
42054W        W14369  30.136  18.165   1.701
42055W        W14370  31.620  15.351  12.358
42056W        W14371  39.476  24.942  10.706
42057W        W14372  44.991   2.536  13.771
42058W        W14373  17.484  16.248   1.284
42059W        W14374  32.920  38.535   3.772
42060W        W14375  11.158  22.032   0.792
42061W        W14376   8.699  10.801   4.884
42062W        W14377  32.097   9.207   3.720
42063W        W14378  36.295  10.384  13.345
42064W        W14379   4.398   6.466   1.415
42065W        W14380  12.692   4.227  10.595
42066W        W14381  36.997  22.509  12.072
42067W        W14382   1.412   7.257   3.354
42068W        W14383  28.080  16.830  12.071
42069W        W14384  36.673  36.699   1.232
42070W        W14385  13.122  25.732  13.511
42071W        W14386  15.256  19.732  10.712
42072W        W14387  33.234  23.666  13.000
42073W        W14388   7.708  19.900  11.576
42074W        W14389  36.569  25.082   3.066
42075W        W14390  18.973  44.095   3.691
42076W        W14391   3.792  29.720   3.614
42077W        W14392  39.927  11.199  13.922
42078W        W14393  41.959  29.627   0.801
42079W        W14394  34.353  39.844   1.311
42080W        W14395  14.582   8.883  11.000
42081W        W14396  33.466  40.782  12.890
42082W        W14397   6.937  35.689  13.079
42083W        W14398  36.241  11.063  12.076
42084W        W14399  21.822  40.994   0.833
42085W        W14400  22.928  32.995  14.080
42086W        W14401  15.872  32.820   0.024
42087W        W14402  36.634  14.224   4.779
42088W        W14403   4.550  33.071   0.040
42089W        W14404  20.797  29.874   2.159
42090W        W14405  26.074  32.448   3.047
42091W        W14406  43.927  21.971   4.009
42092W        W14407  40.533  18.243  13.677
42093W        W14408  30.246  17.628   0.229
42094W        W14409   5.887  19.250   3.569
42095W        W14410  20.267  31.996   0.219
42096W        W14411  12.603  21.305  14.466
42097W        W14412  38.116  30.456   4.657
42098W        W14413  40.557  41.785   3.908
42099W        W14414  38.169  26.504  11.078
42100W        W14415  33.006  26.693  14.572
42101W        W14416  21.820  22.487   4.556
42102W        W14417  39.352   5.384  13.385
42103W        W14418  26.862  16.866  13.286
42104W        W14419  33.405  19.163  11.665
42105W        W14420  37.341   8.176   3.459
42106W        W14421  19.035  36.431   4.697
42107W        W14422  16.348  36.883  11.580
42108W        W14423  36.320   4.776   2.863
42109W        W14424  28.952  36.579   2.512
42110W        W14425  30.869  25.260   0.347
42111W        W14426  40.856  25.625  14.096
42112W        W14427  10.005  36.790   4.064
42113W        W14428  17.677  37.140  14.766
42114W        W14429  17.802  26.065   0.856
42115W        W14430  36.388  22.072   3.115
42116W        W14431   9.791  19.748  13.383
42117W        W14432  31.101  29.666  11.957
42118W        W14433   0.063  35.683   3.724
42119W        W14434  15.379  34.511   3.249
42120W        W14435  21.064  18.043  13.756
42121W        W14436   5.394  33.949   3.140
42122W        W14437  44.869  40.897   0.792
42123W        W14438   3.710  26.197   0.734
42124W        W14439  30.960  29.605   0.348
42125W        W14440  16.088  36.404   3.878
42126W        W14441   5.402  42.253  11.093
42127W        W14442   2.356  14.111   0.310
42128W        W14443  15.237  39.769   4.363
42129W        W14444  14.417  10.121  11.963
42130W        W14445   2.420  40.609   3.002
42131W        W14446  19.547   5.169  13.042
42132W        W14447   8.430  29.034   4.210
42133W        W14448  13.071   9.095   4.016
42134W        W14449  24.021  43.989  12.927
42135W        W14450   5.771  13.221   0.506
42136W        W14451  26.027  11.231   1.902
42137W        W14452  17.763  41.589  12.541
42138W        W14453  22.629  19.006  13.520
42139W        W14454  40.533  16.481   4.163
42140W        W14455  38.460   3.439  10.601
42141W        W14456  15.046  20.839   4.471
42142W        W14457  27.973  23.215   0.127
42143W        W14458  43.280  33.402   2.412
42144W        W14459  23.328  39.863  12.858
42145W        W14460   5.348   2.989   3.909
42146W        W14461  22.391  19.614   3.668
42147W        W14462  43.963  11.776  10.232
42148W        W14463  26.826  26.082  11.489
42149W        W14464  23.234  33.523   0.730
42150W        W14465  25.963  40.712   3.312
42151W        W14466  29.120  31.032   4.879
42152W        W14467  10.738  17.547   2.916
42153W        W14468  19.122  37.172   4.219
42154W        W14469  44.436  14.503   3.640
42155W        W14470  18.359  35.178  12.097
42156W        W14471  18.085  29.862  12.427
42157W        W14472  36.497  19.588   0.760
42158W        W14473  24.469   0.511  11.956
42159W        W14474  26.052   8.569   4.471
42160W        W14475  29.487  11.271   2.426
42161W        W14476  29.094   8.182  11.677
42162W        W14477  42.086  16.523  10.940
42163W        W14478  39.950  44.944   1.287
42164W        W14479  41.761  36.376   2.728
42165W        W14480  32.930  34.983   4.001
42166W        W14481  17.630  36.560   2.778
42167W        W14482   7.860  31.892   3.683
42168W        W14483  34.058  22.237   1.832
42169W        W14484  33.533  37.647  13.812
42170W        W14485  34.890   8.754   9.947
42171W        W14486  43.348   6.359  14.722
42172W        W14487  20.208   5.215  12.100
42173W        W14488  42.571   7.390   0.019
42174W        W14489  33.388   2.798  11.070
42175W        W14490  25.765   3.844   0.663
42176W        W14491  33.478  23.996   4.431
42177W        W14492   9.532   3.579   3.198
42178W        W14493   1.318  33.634  11.426
42179W        W14494  30.980  38.731  12.562
42180W        W14495  17.281  27.513  14.987
42181W        W14496  21.563  19.575  14.349
42182W        W14497  29.117   5.858   3.331
42183W        W14498  43.040  44.451   2.868
42184W        W14499  41.994   8.641  11.918
42185W        W14500  40.448  10.078   3.326
42186W        W14501   2.453  24.488  11.031
42187W        W14502  34.019  44.798  10.423
42188W        W14503   3.357  16.114  11.570
42189W        W14504  30.846  33.028  12.469
42190W        W14505  19.655  22.523   3.431
42191W        W14506  34.628   2.740  11.910
42192W        W14507   7.841  25.773  13.368
42193W        W14508  16.570   7.160   1.966
42194W        W14509  27.749  24.010  14.368
42195W        W14510  18.749  13.943  10.717
42196W        W14511  36.330   1.251  11.612
42197W        W14512  24.227  31.486   2.749
42198W        W14513  36.328  36.354   4.112
42199W        W14514   8.020  29.343  12.679
42200W        W14515  43.810  24.472  14.448
42201W        W14516   0.249   3.954   2.308
42202W        W14517   6.354  10.212  12.485
42203W        W14518  27.070  16.030  11.647
42204W        W14519  32.422  15.118  11.352
42205W        W14520  31.201  26.463   4.607
42206W        W14521  23.654   7.997   4.993
42207W        W14522   0.964  40.749  11.919
42208W        W14523  22.450   9.435  12.957
42209W        W14524  22.000  34.725   0.819
42210W        W14525  34.626  15.083   3.304
42211W        W14526   9.775  44.685  11.134
42212W        W14527  29.829  22.979   1.927
42213W        W14528   2.897  15.571   3.638
42214W        W14529  14.791  31.704  14.410
42215W        W14530  26.204  38.989   1.024
42216W        W14531  17.573  16.602   0.707
42217W        W14532  44.733  15.199   2.798
42218W        W14533  15.924   2.624  13.535
42219W        W14534  20.358  30.002   2.414
42220W        W14535  31.098  10.436   3.642
42221W        W14536  39.830  24.146  14.548
42222W        W14537   7.822  33.476  13.802
42223W        W14538  15.206  29.573   4.927
42224W        W14539   0.249  29.003  11.729
42225W        W14540  13.772  17.504  12.425
42226W        W14541  13.088   5.670   4.047
42227W        W14542  19.124  11.457  13.780
42228W        W14543  31.134  35.001   2.002
42229W        W14544  24.208  24.675  11.559
42230W        W14545  12.225  27.517  12.594
42231W        W14546  18.703  44.554   3.835
42232W        W14547  44.404  12.290  14.967
42233W        W14548  36.440   3.329   3.195
42234W        W14549  37.605   3.935  12.870
42235W        W14550   8.948  23.512   0.927
42236W        W14551  10.546  11.872  11.122
42237W        W14552   1.248  29.765   0.067
42238W        W14553  30.758   0.923  11.972
42239W        W14554  19.545  40.872  10.541
42240W        W14555  31.445  26.756   2.185
42241W        W14556  10.367   2.909  12.139
42242W        W14557  12.876  21.621   3.196
42243W        W14558  27.242  28.645  10.641
42244W        W14559   1.016  44.643   5.091
42245W        W14560  20.239   0.197  13.829
42246W        W14561  29.053  10.180  13.965
42247W        W14562  25.624  41.596   3.576
42248W        W14563  31.937   6.195   2.880
42249W        W14564   9.903   2.198  11.500
42250W        W14565  28.058  26.489   2.767
42251W        W14566  43.501  14.392   5.092
42252W        W14567  13.763  28.810  11.221
42253W        W14568  33.877  39.430  13.981
42254W        W14569   4.064  24.075   2.850
42255W        W14570  17.649  35.812   3.209
42256W        W14571   9.677  31.163  12.522
42257W        W14572   1.957  21.654  13.455
42258W        W14573  32.650  43.995   4.006
42259W        W14574  42.299  12.122   1.263
42260W        W14575  19.683  14.074  13.399
42261W        W14576   3.995   2.228   3.907
42262W        W14577  41.445  26.648   1.310
42263W        W14578  11.377   6.865   2.825
42264W        W14579   8.790  15.853   5.052
42265W        W14580  18.826  30.959  12.890
42266W        W14581  30.379  43.053  13.992
42267W        W14582  41.423  36.989   3.307
42268W        W14583  38.605  17.796  14.812
42269W        W14584  44.042  29.501   0.185
42270W        W14585  23.207  26.610   1.720
42271W        W14586  24.233  33.986   4.421
42272W        W14587  36.504  15.738   3.658
42273W        W14588   7.564   5.698   4.319
42274W        W14589  37.562  42.800  12.319
42275W        W14590  13.366  41.830   0.907
42276W        W14591  34.052  14.025   0.945
42277W        W14592   0.224  34.802  10.921
42278W        W14593  25.372  15.793  13.425
42279W        W14594   8.198  11.564   0.243
42280W        W14595  37.624  36.086  12.028
42281W        W14596  12.007  31.879   4.132
42282W        W14597  17.657  14.708  11.588
42283W        W14598  13.170  30.410   1.880
42284W        W14599  41.441  13.472  14.444
42285W        W14600  27.568  34.381   1.227
42286W        W14601   0.343  29.351   3.216
42287W        W14602  43.277  15.678   3.817
42288W        W14603   1.707  29.683  12.487
42289W        W14604  33.058  25.432  10.521
42290W        W14605  24.234  41.266   1.643
42291W        W14606  38.498  26.247   2.596
42292W        W14607  12.747  34.059  12.976
42293W        W14608  22.710   6.739  14.981
42294W        W14609  35.680  18.658   2.780
42295W        W14610  31.948  34.609  11.669
42296W        W14611  29.525  36.287  14.854
42297W        W14612  39.780  22.967   0.475
42298W        W14613  40.373  44.668   1.839
42299W        W14614  15.517   7.897  11.830
42300W        W14615  33.792  30.416  13.944
42301W        W14616  36.190   9.988   2.683
42302W        W14617  25.613  38.572  13.322
42303W        W14618  21.264  38.000   4.603
42304W        W14619  40.922  33.494  10.741
42305W        W14620  42.342  35.576   4.381
42306W        W14621  10.672  13.182   2.737
42307W        W14622   3.342  34.708  11.209
42308W        W14623   4.691  38.015  14.991
42309W        W14624  35.930  24.304  10.738
42310W        W14625  26.486   8.297   0.971
42311W        W14626  25.682  32.386  14.362
42312W        W14627  19.553  17.532   0.541
42313W        W14628  37.299  31.985  13.613
42314W        W14629  42.080  16.616   2.359
42315W        W14630   6.184  12.263  14.051
42316W        W14631  30.647  21.793  11.158
42317W        W14632  30.029  30.008  11.413
42318W        W14633  43.149   9.794   2.727
42319W        W14634  26.039  39.766   2.952
42320W        W14635  29.095  43.998  10.639
42321W        W14636  29.465  25.126   3.355
42322W        W14637  42.687  20.976   2.734
42323W        W14638  15.674  19.058  14.928
42324W        W14639  33.557  18.115  14.608
42325W        W14640  25.426  15.592  10.940
42326W        W14641  40.081  37.283   2.798
42327W        W14642  39.950  27.223   2.651
42328W        W14643  21.477  33.348   1.883
42329W        W14644  41.408  41.819  11.510
42330W        W14645  26.981  32.395  12.368
42331W        W14646  37.804  33.805  14.457
42332W        W14647  23.490  21.818  11.211
42333W        W14648  31.737   8.358  13.669
42334W        W14649  31.606   4.901  13.701
42335W        W14650  36.072  16.764  13.495
42336W        W14651  15.231  11.627  13.868
42337W        W14652  19.730   3.924   0.530
42338W        W14653  19.063  26.429  14.882
42339W        W14654  30.053   0.856  10.824
42340W        W14655  12.788   2.088   4.041
42341W        W14656  17.733  37.419   4.293
42342W        W14657  14.746  30.051   2.995
42343W        W14658  18.656   6.397  13.307
42344W        W14659  34.299  35.845   4.569
42345W        W14660  13.740  15.658  13.112
42346W        W14661  24.665  32.377   2.627
42347W        W14662  12.643  24.151  13.513
42348W        W14663  44.329   6.786  12.286
42349W        W14664   1.224  11.837  14.906
42350W        W14665  39.562   9.200  14.523
42351W        W14666  40.416  35.506  12.052
42352W        W14667  30.443  16.968   2.780
42353W        W14668   3.517   2.930   3.503
42354W        W14669   7.126  10.262   0.942
42355W        W14670  14.577   0.314   4.849
42356W        W14671  28.621   1.778   1.481
42357W        W14672  19.792  26.960   4.973
42358W        W14673  18.773  12.277  14.816
42359W        W14674  41.576  31.956   0.954
42360W        W14675  42.340  14.839   3.704
42361W        W14676   3.718  10.811   4.342
42362W        W14677  43.325  10.386  11.217
42363W        W14678  13.617  12.576  11.097
42364W        W14679  27.113  17.203  13.605
42365W        W14680  37.024  30.426  14.312
42366W        W14681  16.857  38.437  12.459
42367W        W14682   1.926  43.950   0.826
42368W        W14683   8.419   0.022  11.973
42369W        W14684  36.599  28.666  11.070
42370W        W14685   8.128  27.571   0.848
42371W        W14686  43.749  35.825  12.478
42372W        W14687  11.014  18.762   4.883
42373W        W14688  37.475  34.304   2.438
42374W        W14689  27.149  40.872  14.006
42375W        W14690   7.790  17.815   0.915
42376W        W14691  36.346   2.339   3.764
42377W        W14692  33.612   3.752   1.923
42378W        W14693   8.132  39.413  10.517
42379W        W14694  20.551  31.936  13.504
42380W        W14695  40.756  24.442  14.246
42381W        W14696  21.126  20.569   4.607
42382W        W14697   4.891  33.170   2.427
42383W        W14698   9.781   8.908  11.485
42384W        W14699  11.358  39.387   1.180
42385W        W14700  22.587  11.603   4.001
42386W        W14701  40.907   6.993   3.634
42387W        W14702  31.659  14.250   4.178
42388W        W14703  10.081  27.667   3.850
42389W        W14704  11.237  25.689  11.076
42390W        W14705  12.715  15.082  11.923
42391W        W14706   1.938  34.021  13.095
42392W        W14707   0.489  11.360  14.886
42393W        W14708  40.026  10.870   0.800
42394W        W14709  35.447  32.346   4.742
42395W        W14710  39.452  11.408  13.863
42396W        W14711  38.947  19.529  13.624
42397W        W14712  22.800   7.944  14.896
42398W        W14713  15.572  19.197   3.081
42399W        W14714  16.394  30.527   3.669
42400W        W14715  16.756  12.806  12.581
42401W        W14716  21.750  32.537   2.740
42402W        W14717   0.263  26.244  12.397
42403W        W14718  31.739  41.582  11.272
42404W        W14719  26.402  15.698   2.377
42405W        W14720  40.030  26.551  12.743
42406W        W14721  27.831   3.974   0.956
42407W        W14722   8.206  10.092   4.596
42408W        W14723  23.762   5.391   4.563
42409W        W14724  12.546   4.664   0.493
42410W        W14725  23.018  16.917  14.172
42411W        W14726   3.936  30.486  14.329
42412W        W14727  24.066  19.688   5.146
42413W        W14728  30.136  37.864   3.548
42414W        W14729  29.144  23.645  11.974
42415W        W14730  17.434  15.447   3.317
42416W        W14731  20.760  19.999  14.244
42417W        W14732  37.826  24.688  13.848
42418W        W14733  12.445  36.128   0.805
42419W        W14734   1.356   1.514   4.187
42420W        W14735  20.498  10.465  12.846
42421W        W14736   2.563  33.335  13.384
42422W        W14737   5.336  16.560   4.133
42423W        W14738  34.375  25.740   1.578
42424W        W14739  29.826   1.976   0.396
42425W        W14740  39.411   7.965   3.672
42426W        W14741   9.171  30.889  14.365
42427W        W14742   0.283  42.532  11.573
42428W        W14743  36.549   7.827  10.582
42429W        W14744  32.899  31.090  12.381
42430W        W14745  35.364   3.498   3.655
42431W        W14746  30.082  21.120   1.788
42432W        W14747  38.327  20.303   2.186
42433W        W14748   3.267  41.888  14.377
42434W        W14749   4.228  37.746   3.383
42435W        W14750  32.959  38.071   1.161
42436W        W14751  10.643  10.227   1.709
42437W        W14752   1.504  24.519  14.775
42438W        W14753  21.746  32.149  10.395
42439W        W14754  14.690  20.494   1.862
42440W        W14755  40.470  28.171  14.263
42441W        W14756  37.747  23.680   3.732
42442W        W14757  24.687  34.385   1.726
42443W        W14758   3.789  43.894  11.491
42444W        W14759  36.847  33.450   0.812
42445W        W14760   1.469   1.418  13.123
42446W        W14761  37.010   8.249  12.512
42447W        W14762  34.097  43.182  11.308
42448W        W14763  25.371  39.114  10.261
42449W        W14764  16.782  11.843  11.949
42450W        W14765  37.595  38.890   3.085
42451W        W14766  36.465  30.252  12.962
42452W        W14767  32.423   1.249   1.924
42453W        W14768  12.266  28.369  12.710
42454W        W14769  33.247   8.898   3.096
42455W        W14770  13.809  11.686   3.737
42456W        W14771  24.168  25.291   4.208
42457W        W14772  11.778   1.422   0.181
42458W        W14773   4.800  16.948  11.378
42459W        W14774  33.307  13.499   1.099
42460W        W14775  31.640  18.613   3.765
42461W        W14776  33.821  38.686   0.443
42462W        W14777  24.980  30.081   2.761
42463W        W14778  41.879  31.321   2.811
42464W        W14779   8.592  23.568  14.366
42465W        W14780  34.162  15.113   1.285
42466W        W14781  23.518   4.938   2.854
42467W        W14782  25.617  20.443  13.481
42468W        W14783  26.860  25.035  13.339
42469W        W14784  34.444  18.261   1.260
42470W        W14785  19.944  26.502  11.014
42471W        W14786  16.045  19.995   0.903
42472W        W14787  27.636  26.927   3.148
42473W        W14788  37.974  31.045   3.272
42474W        W14789  10.703  24.660  10.681
42475W        W14790   3.274   2.680   3.136
42476W        W14791  24.971  13.820  10.684
42477W        W14792   9.687  24.392   3.685
42478W        W14793  33.271  32.002   5.011
42479W        W14794  11.377  27.008   3.823
42480W        W14795  30.040  37.299  12.924
42481W        W14796   3.825  39.100   3.745
42482W        W14797  29.547  21.708   3.353
42483W        W14798  34.484  13.451   3.964
42484W        W14799  19.018  33.397  12.924
42485W        W14800   5.787  15.229  13.530
42486W        W14801  31.862   7.926  12.990
42487W        W14802   1.189  41.532  13.802
42488W        W14803  14.090  37.886   2.707
42489W        W14804  22.782  38.855   3.941
42490W        W14805  31.839   1.847  13.903
42491W        W14806   9.144  35.927  12.049
42492W        W14807  15.897  22.044   4.487
42493W        W14808  18.770   1.643  13.003
42494W        W14809  19.725  37.772   3.668
42495W        W14810  23.573  41.385   4.392
42496W        W14811  17.038  14.217  13.940
42497W        W14812  31.110  33.377   4.915
42498W        W14813  24.509  33.941  12.899
42499W        W14814  43.962  15.343  12.349
42500W        W14815  25.005  16.717  12.060
42501W        W14816   2.221   4.843   2.167
42502W        W14817  10.864  15.700  11.656
42503W        W14818  20.776  40.920   2.297
42504W        W14819  30.085  10.787   4.200
42505W        W14820   6.144  18.764  14.778
42506W        W14821  36.059   3.829   1.950
42507W        W14822  43.330  11.675  10.780
42508W        W14823  20.514  31.516  14.294
42509W        W14824  36.440  32.734  11.980
42510W        W14825   3.875  24.815   1.234
42511W        W14826  14.049   8.038  14.834
42512W        W14827  43.971   6.073   2.061
42513W        W14828  12.982  33.374   1.496
42514W        W14829  37.338   7.234   1.437
42515W        W14830  30.221  34.120   2.129
42516W        W14831  42.099   1.467   0.360
42517W        W14832  41.781  40.417   0.904
42518W        W14833  20.082   4.378   4.614
42519W        W14834   6.861   3.070   1.795
42520W        W14835  33.552  25.104  13.931
42521W        W14836   3.668  14.597   3.665
42522W        W14837  25.164  32.562  10.646
42523W        W14838  23.432  25.752   2.612
42524W        W14839   4.722  10.382   4.730
42525W        W14840  37.038  13.313   1.581
42526W        W14841   3.697  11.723   3.939
42527W        W14842  17.063  33.450  12.043
42528W        W14843  35.158  37.850   4.720
42529W        W14844  40.807  11.245  12.611
42530W        W14845  10.676  36.618  11.284
42531W        W14846  28.672  13.136  11.005
42532W        W14847  29.145   6.215  14.342
42533W        W14848  37.905  40.326  12.446
42534W        W14849  35.861  34.486  11.665
42535W        W14850  21.982  13.996  13.804
42536W        W14851   9.449  21.061  13.803
42537W        W14852  28.365  23.242  11.765
42538W        W14853  28.203   4.400   1.789
42539W        W14854   5.268  29.718   4.155
42540W        W14855  26.963  39.061   1.527
42541W        W14856  36.052  20.186  10.817
42542W        W14857  39.952  36.561  13.407
42543W        W14858   4.163  39.015  12.045
42544W        W14859  37.379  43.836  11.085
42545W        W14860  27.479  30.420   4.664
42546W        W14861  35.191  24.534  11.697
42547W        W14862  17.056   4.368   3.680
42548W        W14863  30.183  23.224   3.856
42549W        W14864  33.626  42.218  12.941
42550W        W14865   3.269  22.564  14.234
42551W        W14866  33.345  41.751  11.144
42552W        W14867   1.253  20.976  11.110
42553W        W14868  10.832  31.976   4.542
42554W        W14869  38.011  38.315   1.402
42555W        W14870  38.057  30.413  12.816
42556W        W14871   0.273  13.151  10.123
42557W        W14872   8.674  20.530  11.062
42558W        W14873  44.024  17.364  12.373
42559W        W14874   6.932   2.424   3.660
42560W        W14875  43.235  10.762   2.676
42561W        W14876  10.895  20.086   1.214
42562W        W14877  19.235   6.280  13.915
42563W        W14878   9.299  12.688  11.328
42564W        W14879  44.051   6.154  11.012
42565W        W14880   1.739   9.240   3.241
42566W        W14881  17.864   4.967   3.216
42567W        W14882   9.407  37.827  14.889
42568W        W14883  12.651  36.591  13.138
42569W        W14884  27.505   2.703  14.349
42570W        W14885   1.337  30.974   1.593
42571W        W14886  23.681  17.733  10.338
42572W        W14887  41.078  32.144  11.497
42573W        W14888  20.820  29.204  10.211
42574W        W14889  12.757  31.819  13.473
42575W        W14890  32.139  39.058   0.272
42576W        W14891   6.259  27.705  13.649
42577W        W14892   5.791  30.389  14.863
42578W        W14893  34.310  23.792  13.047
42579W        W14894   8.795   8.991   4.466
42580W        W14895  19.284  16.143  13.788
42581W        W14896  32.925  35.046  13.927
42582W        W14897  24.684  29.621  14.329
42583W        W14898  41.924  39.940   2.627
42584W        W14899  35.930  34.964  11.498
42585W        W14900   0.627  34.111  10.864
42586W        W14901  19.699   0.445   0.322
42587W        W14902  35.426  37.035  12.492
42588W        W14903   0.977  34.205  11.638
42589W        W14904  39.984  27.352   0.929
42590W        W14905  33.325   1.748  11.146
42591W        W14906  30.179  41.513   1.402
42592W        W14907  44.523  44.252  14.485
42593W        W14908  32.395  19.461   1.434
42594W        W14909  22.988   3.935   2.315
42595W        W14910   8.198  23.690  13.705
42596W        W14911   5.871  26.604   1.645
42597W        W14912  33.540  18.071   0.936
42598W        W14913  31.922  13.669   1.320
42599W        W14914  38.535  43.308  10.561
42600W        W14915  16.167  11.412  13.525
42601W        W14916  28.265  26.427  11.606
42602W        W14917  25.851  33.640  12.527
42603W        W14918  32.529  37.881   0.891
42604W        W14919  17.074  33.241   4.327
42605W        W14920  33.693   7.128   3.270
42606W        W14921   1.433  10.705  11.605
42607W        W14922  38.805  39.096  14.441
42608W        W14923   2.726  23.569   1.655
42609W        W14924  22.925   0.994  10.622
42610W        W14925  44.333  20.686   2.762
42611W        W14926  34.213  34.831   2.973
42612W        W14927   1.106  44.355   3.696
42613W        W14928   2.223  38.721   3.630
42614W        W14929  42.739  37.345   3.670
42615W        W14930  38.373  18.130  10.748
42616W        W14931   9.874  16.661  11.574
42617W        W14932  43.101   2.226  13.456
42618W        W14933  15.659   0.269   1.280
42619W        W14934  12.335   9.352   2.781
42620W        W14935  13.680  31.208   2.952
42621W        W14936  16.672  16.122   1.684
42622W        W14937  23.588  37.367  10.687
42623W        W14938  32.101  26.145   1.901
42624W        W14939  30.598  12.905   0.255
42625W        W14940  43.446  23.440   0.059
42626W        W14941   0.887  32.661   4.638
42627W        W14942  18.035  23.037   0.003
42628W        W14943   7.888  12.877   3.162
42629W        W14944  16.305  34.886   0.145
42630W        W14945  22.762  44.579   4.786
42631W        W14946  26.934   6.331   5.493
42632W        W14947   9.811  38.510  13.184
42633W        W14948  28.495  14.776   0.222
42634W        W14949  15.743  35.619  11.052
42635W        W14950  20.855  18.501  12.955
42636W        W14951  38.198  36.784  12.267
42637W        W14952  34.868  33.661   1.213
42638W        W14953  27.919  43.045  13.818
42639W        W14954  22.343  42.814   0.815
42640W        W14955   0.830  17.821   2.778
42641W        W14956  40.873  12.734  13.520
42642W        W14957  27.175   4.283  14.170
42643W        W14958  16.800  28.199   3.719
42644W        W14959  31.705   1.306   0.949
42645W        W14960   4.666  28.981   1.886
42646W        W14961  10.260  33.575  13.468
42647W        W14962  41.583   8.694   2.399
42648W        W14963   9.551   5.515  11.666
42649W        W14964  36.749   5.303  11.425
42650W        W14965  18.067  34.360  11.117
42651W        W14966  32.034  21.604  13.823
42652W        W14967  13.555  38.024   0.478
42653W        W14968  32.244  37.555  14.529
42654W        W14969  27.969  11.203  10.195
42655W        W14970  19.230   3.293  12.124
42656W        W14971  11.504  12.133  14.062
42657W        W14972   9.317  19.854  14.154
42658W        W14973  29.374  23.697  14.185
42659W        W14974  35.185  18.481  14.525
42660W        W14975  29.393   5.892  13.973
42661W        W14976  27.066   4.200   2.637
42662W        W14977  37.295  11.034  13.931
42663W        W14978  21.489   2.490  12.900
42664W        W14979  16.404  14.867   3.174
42665W        W14980  42.006  27.014  11.442
42666W        W14981  25.604   2.528  12.371
42667W        W14982  27.093   5.931   0.284
42668W        W14983  43.861  23.144  13.124
42669W        W14984   9.265  35.346   1.832
42670W        W14985  35.990  32.618  11.205
42671W        W14986  14.270  37.316  11.495
42672W        W14987  12.169  20.420   1.635
42673W        W14988  11.887   9.094   2.785
42674W        W14989  16.649  32.071   0.465
42675W        W14990  27.658   7.212  13.486
42676W        W14991  11.222  29.350  14.589
42677W        W14992  37.012  33.183  12.779
42678W        W14993   7.901  31.886  11.530
42679W        W14994  34.853  42.168  12.430
42680W        W14995  17.264  18.069  10.738
42681W        W14996   7.931  19.567   3.619
42682W        W14997  19.604  22.964  14.814
42683W        W14998  33.839   6.877   0.887
42684W        W14999   3.695  41.742  13.812
42685W        W15000  25.769  29.216   3.810
42686W        W15001  35.410   1.774  14.104
42687W        W15002  22.568   3.192   3.311
42688W        W15003  40.350  44.256  12.434
42689W        W15004  33.514  24.951  12.966
42690W        W15005  40.857  14.073  11.844
42691W        W15006  16.578  23.661   0.719
42692W        W15007   2.011  14.056   4.813
42693W        W15008  16.825  42.014  11.185
42694W        W15009  33.749   2.854   1.614
42695W        W15010  18.537  26.486  14.316
42696W        W15011  18.693  18.692   4.659
42697W        W15012   7.265  42.884   2.573
42698W        W15013   4.289  39.937  12.470
42699W        W15014  28.979  44.772   4.130
42700W        W15015   8.668  22.550  10.755
42701W        W15016  43.795  43.994   3.671
42702W        W15017  40.830   4.847  11.758
42703W        W15018  22.219  15.163   0.452
42704W        W15019  30.997   1.994   4.728
42705W        W15020   3.486  14.703  13.084
42706W        W15021  20.732  42.675   1.497
42707W        W15022  36.888  37.767  14.448
42708W        W15023  32.472  24.200   3.751
42709W        W15024   6.289  31.387   1.818
42710W        W15025   7.167  43.420   0.978
42711W        W15026   4.297  38.434   0.305
42712W        W15027  36.894  42.233   4.129
42713W        W15028  35.166  17.322   3.114
42714W        W15029  18.854  18.741  11.113
42715W        W15030  22.240  43.571  10.766
42716W        W15031  37.854  33.334  14.658
42717W        W15032  11.759  15.611   3.947
42718W        W15033   3.415  19.447   1.786
42719W        W15034  16.234  16.582   4.576
42720W        W15035  37.502  44.018   3.783
42721W        W15036  40.409  15.363  12.640
42722W        W15037  20.645  35.997   4.130
42723W        W15038  17.374   4.063  14.020
42724W        W15039  21.418   3.805  13.980
42725W        W15040  26.889  25.516   2.584
42726W        W15041  15.555  21.157  14.468
42727W        W15042  29.540   6.780  14.916
42728W        W15043  19.740  11.653  14.052
42729W        W15044  38.911  38.841   2.958
42730W        W15045   7.370   4.137   1.328
42731W        W15046  38.128  18.259  13.399
42732W        W15047  15.111  32.245   3.054
42733W        W15048  24.490   5.357   0.425
42734W        W15049  33.977  40.557   2.146
42735W        W15050  12.709   6.057  12.288
42736W        W15051   5.644  40.126  13.328
42737W        W15052  13.793  18.517   1.781
42738W        W15053  27.956  25.979   1.832
42739W        W15054  44.883   9.643   3.257
42740W        W15055   8.397  34.334   4.685
42741W        W15056  26.681   4.937  12.070
42742W        W15057  10.465  40.328  11.459
42743W        W15058  22.037  20.808  10.166
42744W        W15059  27.519   9.421   3.213
42745W        W15060  31.980  32.074  14.812
42746W        W15061  18.533  15.882   4.684
42747W        W15062  43.480  31.625   0.433
42748W        W15063  37.515  28.762  12.092
42749W        W15064   8.397  22.155  11.679
42750W        W15065  15.104  26.749   4.193
42751W        W15066  32.940  11.691   1.139
42752W        W15067  33.940  17.604   2.689
42753W        W15068  34.306  11.220   2.234
42754W        W15069  14.627  14.036   2.239
42755W        W15070  38.658  40.050   3.205
42756W        W15071  25.256   4.942   4.595
42757W        W15072  14.329  40.331   1.002
42758W        W15073  33.886  40.333  11.863
42759W        W15074  18.275  17.716   4.633
42760W        W15075  17.325  33.149  12.397
42761W        W15076  27.427  15.006   0.728
42762W        W15077  25.579   4.319   0.392
42763W        W15078  26.177  27.245   3.302
42764W        W15079  41.756  11.150  13.931
42765W        W15080  27.490  30.918  12.911
42766W        W15081  33.954  44.683  11.441
42767W        W15082   8.958  40.870   1.445
42768W        W15083  30.175  36.877   3.231
42769W        W15084  10.193  25.541  14.318
42770W        W15085  41.833  44.477   4.034
42771W        W15086  19.093   4.693  13.725
42772W        W15087   8.889  29.016  10.631
42773W        W15088  19.265  37.062  11.026
42774W        W15089  42.417  24.032  12.309
42775W        W15090  19.588  31.556   2.057
42776W        W15091  32.650  33.152   1.274
42777W        W15092  43.930  43.475  12.816
42778W        W15093  22.733  12.912   0.315
42779W        W15094   5.925  38.373   1.531
42780W        W15095  28.031  36.077  10.649
42781W        W15096  26.765  43.556   4.196
42782W        W15097  24.266  14.266  11.156
42783W        W15098  19.052  43.918  10.476
42784W        W15099  16.955   6.461  12.906
42785W        W15100   2.314  19.181   4.594
42786W        W15101   3.742  32.423   2.230
42787W        W15102   2.322   7.174  13.067
42788W        W15103  26.556  12.183   3.642
42789W        W15104  12.581  15.553   1.329
42790W        W15105  16.548   1.508   4.173
42791W        W15106   3.621  35.578  11.645
42792W        W15107   4.874   5.854  14.417
42793W        W15108  36.025  31.145   3.286
42794W        W15109  36.792   0.760   1.173
42795W        W15110  41.641  15.389   4.588
42796W        W15111   8.915  27.943   1.063
42797W        W15112  25.701  39.808   2.351
42798W        W15113  34.365   9.809  12.712
42799W        W15114  15.223   9.247  13.143
42800W        W15115   4.330  15.135   1.337
42801W        W15116  21.519  44.367  14.809
42802W        W15117  38.438   4.168  13.073
42803W        W15118  34.835  19.703   4.530
42804W        W15119  35.458   2.617   0.936
42805W        W15120  16.230  33.288   4.129
42806W        W15121  11.342  36.542  11.853
42807W        W15122   4.895  36.259  14.886
42808W        W15123  33.054  34.309  11.047
42809W        W15124  29.692  41.523   3.839
42810W        W15125  15.319  41.766  14.363
42811W        W15126  42.968  43.251   1.380
42812W        W15127  40.168  29.903   2.299
42813W        W15128  38.997  11.753   1.627
42814W        W15129  39.469  39.740  12.004
42815W        W15130  11.629  26.902  12.806
42816W        W15131  27.404   1.360   2.107
42817W        W15132  36.084  37.360  11.091
42818W        W15133  39.459  44.956   1.968
42819W        W15134  32.615  20.082  14.377
42820W        W15135  33.757  35.110   2.936
42821W        W15136   7.830  23.767  12.420
42822W        W15137  15.683  36.109  10.942
42823W        W15138  41.580  21.722   3.158
42824W        W15139  27.908  12.440  11.949
42825W        W15140   7.312  23.962  12.521
42826W        W15141   3.242  20.308  12.040
42827W        W15142  29.412  21.723   0.860
42828W        W15143   8.757  23.974   4.120
42829W        W15144   8.107   0.204  11.621
42830W        W15145  15.819  43.363   1.198
42831W        W15146  25.485  20.488  11.868
42832W        W15147   7.997   1.915   1.979
42833W        W15148  43.336  17.975  12.450
42834W        W15149  41.513  38.004   3.206
42835W        W15150  26.036  27.043  12.223
42836W        W15151   4.299  28.354  11.219
42837W        W15152  19.401   7.436   2.466
42838W        W15153  23.294  22.597   1.270
42839W        W15154  34.435   9.910   1.284
42840W        W15155  18.528  28.745   0.252
42841W        W15156  43.495  32.337   4.424
42842W        W15157  37.555  37.146   3.733
42843W        W15158  23.011  39.307  11.539
42844W        W15159  19.728   5.658  14.486
42845W        W15160  19.611  28.616  14.373
42846W        W15161  27.619   5.015  12.048
42847W        W15162  15.183  27.501  13.813
42848W        W15163  20.036  28.398   0.684
42849W        W15164  26.901  10.821   1.125
42850W        W15165  37.562  12.628  13.122
42851W        W15166  41.264  38.540   0.854
42852W        W15167  31.170  26.678   3.125
42853W        W15168  18.623  31.887   2.295
42854W        W15169  29.486  34.158   3.730
42855W        W15170  36.229  29.098  10.358
42856W        W15171  26.317   0.370  12.063
42857W        W15172  28.706   7.478   1.108
42858W        W15173  43.361  23.378   4.033
42859W        W15174   7.800  30.718  14.280
42860W        W15175   2.065   4.231  12.165
42861W        W15176   5.972  32.753   2.721
42862W        W15177   1.120  23.286   2.548
42863W        W15178  22.851   6.675  10.651
42864W        W15179  39.037  17.271   2.687
42865W        W15180  32.837  13.428   0.304
42866W        W15181  41.339  37.752   3.725
42867W        W15182   2.098  30.102   2.007
42868W        W15183  17.221  10.776   2.194
42869W        W15184  19.050   1.491  13.396
42870W        W15185   0.012  11.225   4.765
42871W        W15186  13.566  16.317   2.626
42872W        W15187   0.879  24.237   4.146
42873W        W15188  32.498  44.965  13.036
42874W        W15189   3.800   2.673   4.683
42875W        W15190   7.124  37.955   2.367
42876W        W15191  14.645   4.822  12.786
42877W        W15192  21.457  12.491   2.389
42878W        W15193  31.108   4.699   0.215
42879W        W15194  35.543  35.637  12.581
42880W        W15195  14.562  16.552   0.297
42881W        W15196  13.293  40.812   3.659
42882W        W15197  38.923  11.653  14.361
42883W        W15198  23.964  31.553  14.395
42884W        W15199  38.466   7.700  12.107
42885W        W15200  14.658  21.919  14.219
42886W        W15201  19.549   1.794  11.579
42887W        W15202  21.664   8.039   3.084
42888W        W15203  36.061  29.610  11.067
42889W        W15204  14.873   9.732  13.094
42890W        W15205  19.030   5.614  11.059
42891W        W15206   2.942  17.054  12.051
42892W        W15207   8.730  15.523  14.388
42893W        W15208  43.558   8.852  13.106
42894W        W15209  39.570  17.198  13.339
42895W        W15210  42.334   8.664   2.837
42896W        W15211   9.297  29.297   0.974
42897W        W15212  36.037  21.602   4.097
42898W        W15213  36.417  28.582   3.904
42899W        W15214  37.908  13.109  11.037
42900W        W15215   0.906  35.532  14.534
42901W        W15216  40.633  44.458   2.292
42902W        W15217  12.035  29.607   1.967
42903W        W15218   6.675  30.666  14.980
42904W        W15219   6.462  17.429   0.906
42905W        W15220   0.434  31.734   0.539
42906W        W15221   4.160  29.101  14.350
42907W        W15222  21.526  20.393   3.801
42908W        W15223   0.435  43.275  13.573
42909W        W15224   4.414   9.382   0.441
42910W        W15225  13.398  20.798   1.214
42911W        W15226  23.625  34.050  11.132
42912W        W15227   4.356   9.149   4.864
42913W        W15228  11.998  19.683   3.168
42914W        W15229  37.513   0.351  11.817
42915W        W15230  22.123  23.244   2.848
42916W        W15231  44.056  12.783  12.020
42917W        W15232  28.504  31.092  14.094
42918W        W15233   6.659  37.793  12.937
42919W        W15234  25.629  11.057   4.122
42920W        W15235  29.101  34.403  10.558
42921W        W15236  14.567   8.129  13.979
42922W        W15237  28.581  35.633   4.626
42923W        W15238  22.493  30.922  13.961
42924W        W15239  40.721  21.541   0.951
42925W        W15240  34.872  43.636   2.540
42926W        W15241  22.445  29.344  10.866
42927W        W15242  35.089  24.209  14.881
42928W        W15243   0.963   0.942   0.478
42929W        W15244  30.172  33.477   4.752
42930W        W15245  14.394   6.707  14.044
42931W        W15246  12.649  25.540  13.500
42932W        W15247  30.366  15.960   2.774
42933W        W15248  17.587  31.370  10.275
42934W        W15249   0.930  43.833   4.209
42935W        W15250  11.165  10.612   2.321
42936W        W15251   8.215  15.682   1.424
42937W        W15252  17.595  20.121  13.545
42938W        W15253  39.949   2.252   3.088
42939W        W15254   2.293  10.562   0.344
42940W        W15255   6.440   8.900  12.946
42941W        W15256  34.953   5.781   4.311
42942W        W15257  43.512  32.997   0.934
42943W        W15258   1.867   0.378  12.425
42944W        W15259  31.482  26.740  12.018
42945W        W15260  42.067   8.627   3.709
42946W        W15261  22.480   7.254  13.409
42947W        W15262  12.181   3.701   4.072
42948W        W15263  15.578   5.174   2.030
42949W        W15264  42.625  30.565   3.288
42950W        W15265  32.334   7.763  12.832
42951W        W15266  11.808  43.066  13.184
42952W        W15267  31.567   4.857   2.760
42953W        W15268  44.911  31.144  12.182
42954W        W15269  11.687  38.498   4.226
42955W        W15270  25.020  34.818   4.217
42956W        W15271  17.739  15.242   4.235
42957W        W15272  15.715  24.541  13.560
42958W        W15273  36.985  15.650  12.992
42959W        W15274  17.723  26.367   0.412
42960W        W15275  30.060  22.058   2.814
42961W        W15276   0.937  42.639   3.678
42962W        W15277  22.624  42.889  11.284
42963W        W15278  43.885  22.491   1.692
42964W        W15279  33.810  31.918   5.055
42965W        W15280  15.175  42.374  12.905
42966W        W15281  29.094  22.560  14.949
42967W        W15282  13.592  11.839  14.779
42968W        W15283   2.783  34.365  10.545
42969W        W15284   0.710   2.010  13.883
42970W        W15285  37.307  40.423  10.977
42971W        W15286  38.905  34.728   0.345
42972W        W15287  26.699   2.492   2.241
42973W        W15288  23.233   5.381   4.668
42974W        W15289  35.776  26.385   3.267
42975W        W15290  35.037  35.554   0.371
42976W        W15291  39.132  20.775   2.167
42977W        W15292  39.791  34.923   1.330
42978W        W15293  11.878  25.476   4.494
42979W        W15294  34.401   3.850  14.076
42980W        W15295   9.810  17.269  12.842
42981W        W15296   8.286  40.924  10.634
42982W        W15297  39.169  33.823   9.928
42983W        W15298  19.760  33.867   3.678
42984W        W15299  31.314   0.443  13.939
42985W        W15300  32.611   9.892  11.926
42986W        W15301  14.632  31.369  14.785
42987W        W15302  33.675  38.653  12.764
42988W        W15303  12.103  19.695   1.372
42989W        W15304  19.171  19.692  11.657
42990W        W15305  11.012  36.454  10.674
42991W        W15306   6.195  23.062  12.484
42992W        W15307   1.688  36.039   2.617
42993W        W15308  34.173   2.500  11.937
42994W        W15309   2.659  12.483   4.135
42995W        W15310   1.405  14.971   2.799
42996W        W15311  34.219  14.890   4.215
42997W        W15312  18.137  33.121   0.012
42998W        W15313   8.717  28.560  11.000
42999W        W15314   5.439  16.710  11.477
43000W        W15315  34.847  36.595  13.364
43001W        W15316  38.651  12.845  10.732
43002W        W15317  34.940  30.340   2.467
43003W        W15318  27.494  10.321  12.945
43004W        W15319   3.870  19.752  13.936
43005W        W15320  31.396  26.852   0.296
43006W        W15321  20.669  43.203   0.396
43007W        W15322   0.520  14.599   3.183
43008W        W15323  32.419  31.345  14.314
43009W        W15324   4.725  22.062   3.165
43010W        W15325  32.905  11.153   2.394
43011W        W15326  11.652   8.997  14.546
43012W        W15327  24.634  22.705  14.904
43013W        W15328   2.484  30.538   1.605
43014W        W15329  32.544   9.396  12.576
43015W        W15330   9.414  17.847   2.230
43016W        W15331  35.900  20.117  14.558
43017W        W15332  36.296   5.702   0.939
43018W        W15333  12.624   0.417   1.389
43019W        W15334  10.071   5.333  10.717
43020W        W15335   5.645  36.020  13.012
43021W        W15336  41.737  34.518  13.066
43022W        W15337  10.199  29.281   4.722
43023W        W15338   5.261  18.706  14.132
43024W        W15339  36.010   2.791  13.735
43025W        W15340  16.281  25.049   4.129
43026W        W15341   8.426  24.837   0.298
43027W        W15342  41.052  30.992  14.239
43028W        W15343  26.372  12.219  12.783
43029W        W15344   2.822  25.223   2.960
43030W        W15345  36.939  14.266   0.263
43031W        W15346  15.895  19.533  14.963
43032W        W15347   0.506  34.634  12.994
43033W        W15348  12.697  31.471  14.861
43034W        W15349  26.114  10.747  11.403
43035W        W15350  14.549  17.332  11.517
43036W        W15351  27.693  18.068   1.495
43037W        W15352  38.080  13.343  12.441
43038W        W15353  11.861  41.263  11.868
43039W        W15354  36.410  17.160  13.479
43040W        W15355  16.658   1.865   4.745
43041W        W15356  44.112  29.138   0.524
43042W        W15357  33.804  39.807   1.338
43043W        W15358   4.522  38.017  14.490
43044W        W15359  24.939  21.178  12.057
43045W        W15360  44.394  15.043  10.726
43046W        W15361  43.526  26.719   4.095
43047W        W15362  22.087  12.114  14.046
43048W        W15363   8.925  30.557   2.291
43049W        W15364  17.216  10.247  12.532
43050W        W15365  31.725  15.554   0.803
43051W        W15366  34.901  22.597   0.294
43052W        W15367  17.054  15.575   4.599
43053W        W15368  30.100  31.006  14.476
43054W        W15369  15.200  32.498  14.379
43055W        W15370  15.386  44.824   2.339
43056W        W15371  27.948   4.868  10.319
43057W        W15372  10.248   8.634   0.492
43058W        W15373  30.042   8.751   3.203
43059W        W15374  13.823  38.119  14.388
43060W        W15375  16.261  31.171   0.411
43061W        W15376  37.340  19.023  12.631
43062W        W15377  26.564  27.489  10.682
43063W        W15378   2.499  16.677   1.274
43064W        W15379   4.689  39.925  12.139
43065W        W15380  40.908  36.784  13.441
43066W        W15381   3.242  39.998   4.631
43067W        W15382  26.083  34.113  12.474
43068W        W15383  16.272  18.544   2.328
43069W        W15384  21.493  44.289   0.979
43070W        W15385  40.540  11.179  14.780
43071W        W15386  15.441  35.640  12.865
43072W        W15387  19.632  17.631   4.803
43073W        W15388   3.939   9.152   2.544
43074W        W15389  19.318  25.633  14.401
43075W        W15390  18.678  25.742   2.716
43076W        W15391  35.559  19.684   0.266
43077W        W15392  40.442   3.918   1.438
43078W        W15393   0.069   7.639   3.932
43079W        W15394  23.672  20.337   0.450
43080W        W15395  33.821  10.050  12.093
43081W        W15396  33.506   9.212   0.734
43082W        W15397  43.333   0.015  13.508
43083W        W15398   1.190  40.320   3.610
43084W        W15399  38.304  23.153  14.515
43085W        W15400   9.429  13.155   4.167
43086W        W15401  10.413  44.797   0.713
43087W        W15402  29.847   4.342  14.979
43088W        W15403   0.499   2.282  11.083
43089W        W15404  24.456  29.664   3.608
43090W        W15405  22.037  10.982  14.560
43091W        W15406  40.565  24.915   4.245
43092W        W15407  10.432  40.878   4.532
43093W        W15408  42.901  12.157  13.681
43094W        W15409   5.030  33.110  10.291
43095W        W15410   3.000  18.664   2.499
43096W        W15411   3.018  10.969  13.893
43097W        W15412  28.076  14.230   0.911
43098W        W15413  37.149   2.273   3.331
43099W        W15414  32.321  19.153   0.604
43100W        W15415  10.255  42.313  12.018
43101W        W15416  32.082  14.020   1.788
43102W        W15417  18.647   0.486   4.204
43103W        W15418  29.515   2.141   3.168
43104W        W15419  23.896  43.472   1.790
43105W        W15420  19.251  38.596   5.527
43106W        W15421  16.105  42.590   4.168
43107W        W15422  41.741  19.490   1.560
43108W        W15423   5.902  14.147   1.047
43109W        W15424   1.269  27.816  12.142
43110W        W15425   5.863  16.613   4.177
43111W        W15426  28.967  32.702  14.256
43112W        W15427  17.214  26.154  14.733
43113W        W15428  14.031  34.570  12.482
43114W        W15429  39.893  17.778  12.710
43115W        W15430  19.262  11.215   5.435
43116W        W15431  21.089   8.783   3.106
43117W        W15432  42.905  11.364   2.267
43118W        W15433  43.255  21.228  13.994
43119W        W15434  40.298  33.666   1.835
43120W        W15435   3.063  26.654   0.351
43121W        W15436  10.851   4.196   1.769
43122W        W15437   7.799  16.855  11.649
43123W        W15438   5.967  22.174   1.302
43124W        W15439  23.157   6.560   1.868
43125W        W15440  26.113  20.918  11.048
43126W        W15441  29.102  26.470  11.110
43127W        W15442   0.939  17.720   4.525
43128W        W15443  15.786  36.129   1.705
43129W        W15444  20.733  22.199   2.262
43130W        W15445  31.755  40.274  14.247
43131W        W15446  13.342  36.862   1.485
43132W        W15447  33.520  25.534   3.163
43133W        W15448  12.799   1.208  10.355
43134W        W15449  17.120   8.199  14.477
43135W        W15450   8.153  44.576  13.240
43136W        W15451  26.210  34.328   0.330
43137W        W15452  17.432  12.908   1.226
43138W        W15453  30.669   8.145  10.746
43139W        W15454  36.983  26.943   2.109
43140W        W15455  26.982   9.674  10.470
43141W        W15456  24.070   6.684  11.776
43142W        W15457  20.406  36.065   1.352
43143W        W15458   8.833  35.025  14.879
43144W        W15459  30.574  23.445   3.194
43145W        W15460  38.967  13.176   4.708
43146W        W15461  41.144  25.151  11.658
43147W        W15462   4.138  41.051   2.843
43148W        W15463  39.949  43.020   2.319
43149W        W15464  14.723  32.735  14.414
43150W        W15465  28.616  15.856   1.385
43151W        W15466  41.332  25.815  11.831
43152W        W15467   5.943   9.311  13.769
43153W        W15468  40.564  17.302  14.986
43154W        W15469  38.837  33.356   0.651
43155W        W15470  14.313  31.573  10.462
43156W        W15471  16.407  11.779  11.086
43157W        W15472  40.250  40.502  14.829
43158W        W15473  34.172  31.383  14.153
43159W        W15474  29.030  21.528   2.655
43160W        W15475  37.121   0.823  14.425
43161W        W15476  21.645  35.567   1.649
43162W        W15477  33.591  39.564  12.632
43163W        W15478  23.740  28.229   4.196
43164W        W15479  17.089  23.555  12.967
43165W        W15480  38.453   7.929   4.150
43166W        W15481   6.228  39.273   1.440
43167W        W15482  31.345  18.960   4.029
43168W        W15483  24.153   2.437  14.495
43169W        W15484  39.623   7.103   3.250
43170W        W15485  10.925  10.437  13.943
43171W        W15486  28.994  13.168  12.982
43172W        W15487  26.658   0.875   1.273
43173W        W15488   2.990   5.061  11.171
43174W        W15489  10.269   0.440  10.493
43175W        W15490  40.197  38.817   4.712
43176W        W15491  37.711  22.200  14.616
43177W        W15492  31.166  26.522   4.113
43178W        W15493  32.382  28.705  13.394
43179W        W15494  27.197  14.788   0.074
43180W        W15495   2.965  29.340  14.419
43181W        W15496  39.211   1.791   2.742
43182W        W15497  26.430  39.095  13.871
43183W        W15498  34.877   9.158  13.865
43184W        W15499  17.095  11.257  13.922
43185W        W15500  29.107  28.360  14.144
43186W        W15501   0.950   5.234  12.038
43187W        W15502  36.854  16.805   4.124
43188W        W15503   6.537  43.128  11.549
43189W        W15504  23.126  19.269   5.090
43190W        W15505  12.730   4.279  12.612
43191W        W15506   0.828   8.850  11.510
43192W        W15507  12.872  43.857  11.836
43193W        W15508   8.666  22.122  14.380
43194W        W15509  14.150  12.324   2.104
43195W        W15510   2.198  10.727  11.965
43196W        W15511  30.889  33.495  11.996
43197W        W15512   6.260  27.484   2.818
43198W        W15513   7.545   7.897   1.456
43199W        W15514  43.427   2.984  12.945
43200W        W15515  40.808  14.068  13.100
43201W        W15516  36.121  42.457   2.851
43202W        W15517  16.921  20.787   4.296
43203W        W15518  30.939   5.501   0.644
43204W        W15519  41.535   3.605   2.764
43205W        W15520  12.291  19.199  14.850
43206W        W15521  29.146   9.118   2.685
43207W        W15522  32.973  23.153   3.332
43208W        W15523  20.662  38.329   1.221
43209W        W15524  40.800  16.728  12.455
43210W        W15525  25.028  35.435  13.830
43211W        W15526  18.114  19.508   1.305
43212W        W15527  20.273   3.806  10.485
43213W        W15528  29.343  40.945  11.033
43214W        W15529  43.453  10.554   3.709
43215W        W15530   8.889  41.512   2.910
43216W        W15531  43.422  18.179  11.552
43217W        W15532  26.691  18.331   2.177
43218W        W15533  14.771  22.940   4.665
43219W        W15534  25.998  27.989   3.814
43220W        W15535  28.462  11.786   1.010
43221W        W15536  44.257   7.700  12.669
43222W        W15537  29.731  32.524  11.979
43223W        W15538  36.417  18.475   1.817
43224W        W15539   3.494  11.164  13.949
43225W        W15540  25.622  12.074   4.111
43226W        W15541  30.650  33.320   5.153
43227W        W15542  32.206  11.725   0.848
43228W        W15543  22.928  22.084   5.071
43229W        W15544  28.878  39.271  10.251
43230W        W15545  19.583  34.384  12.091
43231W        W15546  44.514  30.026  13.454
43232W        W15547  17.978  17.311  14.725
43233W        W15548  31.020  23.731  12.051
43234W        W15549  22.492   0.468  13.489
43235W        W15550  25.035   6.093  12.124
43236W        W15551  31.950  44.121   0.710
43237W        W15552  17.852  15.811   2.536
43238W        W15553   2.395   2.177   3.180
43239W        W15554  34.877  21.164  12.567
43240W        W15555  37.940  29.982   4.590
43241W        W15556  31.911  26.926  11.785
43242W        W15557  11.230  28.562  12.144
43243W        W15558   0.511  41.601   2.319
43244W        W15559  20.805  27.011   4.171
43245W        W15560  31.786  44.269   5.358
43246W        W15561   6.802  37.937   1.935
43247W        W15562   5.649  29.210   0.252
43248W        W15563  18.616  11.215  12.212
43249W        W15564  38.804   3.367   0.723
43250W        W15565  44.466  43.011   4.439
43251W        W15566  22.079  43.049   1.443
43252W        W15567   6.609  22.969  12.168
43253W        W15568   6.764  15.565   0.892
43254W        W15569   1.914  40.948  10.888
43255W        W15570  33.692  34.554  13.871
43256W        W15571  38.418   1.310   4.151
43257W        W15572  40.402  31.429   3.618
43258W        W15573  18.207  39.694   0.799
43259W        W15574   9.611  27.160  11.405
43260W        W15575   6.474   6.722   1.915
43261W        W15576  13.853  32.605  10.465
43262W        W15577  17.658  13.248   0.482
43263W        W15578  28.109   0.403  13.333
43264W        W15579  42.797  22.932  11.603
43265W        W15580  32.573  24.955   2.188
43266W        W15581  43.303  27.815  14.002
43267W        W15582   9.709   3.622   1.384
43268W        W15583  44.772  21.491  12.868
43269W        W15584  22.480   1.204   2.190
43270W        W15585  14.524  15.796   3.175
43271W        W15586  43.277  34.605   4.087
43272W        W15587  29.208  43.485   1.292
43273W        W15588  22.060   7.723  10.376
43274W        W15589  42.464   8.399  13.307
43275W        W15590  15.690  14.666  13.373
43276W        W15591   4.876  23.524  14.376
43277W        W15592  24.236  12.173  10.767
43278W        W15593  34.066  20.504   0.165
43279W        W15594  27.668  30.985   2.229
43280W        W15595  36.485   0.811  10.680
43281W        W15596  37.809   6.912  11.915
43282W        W15597  21.945  30.963   2.378
43283W        W15598  34.024   9.741   4.355
43284W        W15599  20.165  44.793   1.249
43285W        W15600  15.259  18.051  10.798
43286W        W15601  42.916  40.847   4.164
43287W        W15602   7.914  18.700  12.071
43288W        W15603  35.144   8.677   2.332
43289W        W15604  12.264  11.408   3.436
43290W        W15605  12.221  13.790  10.694
43291W        W15606  19.939  42.628  14.046
43292W        W15607  12.604  35.259  13.457
43293W        W15608  10.760  36.913   4.822
43294W        W15609   0.808  24.709   2.199
43295W        W15610  19.778   9.309  11.371
43296W        W15611   6.910  31.875   0.500
43297W        W15612   8.389  17.080   0.685
43298W        W15613  42.469  41.795  14.817
43299W        W15614  20.767  44.671  12.929
43300W        W15615  20.196  13.346   1.846
43301W        W15616   2.928  27.949  14.384
43302W        W15617   3.402  20.987   4.949
43303W        W15618  17.483  28.380   1.517
43304W        W15619  24.661   0.010  13.573
43305W        W15620  13.174  35.819   3.612
43306W        W15621   5.473  35.603  11.234
43307W        W15622  36.905  11.361  13.966
43308W        W15623  32.518  10.823   3.840
43309W        W15624   1.101  27.394  12.824
43310W        W15625  27.292  10.144   2.774
43311W        W15626   1.306  10.229   2.428
43312W        W15627  24.016  44.036  10.045
43313W        W15628  37.978   6.326   0.764
43314W        W15629  39.817   3.523   2.267
43315W        W15630  31.511  39.393   2.883
43316W        W15631  12.811   1.367   3.375
43317W        W15632   1.798   1.037   1.183
43318W        W15633  27.301  31.587  12.655
43319W        W15634  36.050  18.313   2.650
43320W        W15635  28.921   3.635  12.020
43321W        W15636  39.547  37.974  13.273
43322W        W15637  34.291   9.210   0.351
43323W        W15638   7.869  36.450  12.065
43324W        W15639  12.004  38.281   3.291
43325W        W15640  11.405  26.425   1.268
43326W        W15641   9.240  16.205   1.794
43327W        W15642  41.837  24.069   3.210
43328W        W15643   7.880  34.627  11.652
43329W        W15644  19.506  13.055  14.374
43330W        W15645  34.457   2.486   3.658
43331W        W15646   2.333   6.523   3.564
43332W        W15647  38.902  36.962   1.594
43333W        W15648  40.376  31.276   0.320
43334W        W15649  33.338  16.430   4.151
43335W        W15650  11.249  34.610   4.013
43336W        W15651  21.491  26.467  11.067
43337W        W15652  19.674   7.441   4.793
43338W        W15653   6.908  31.538  12.938
43339W        W15654   8.463   0.039  11.285
43340W        W15655  10.776  25.829  11.469
43341W        W15656  23.186  26.605   3.624
43342W        W15657   4.388   9.904   2.281
43343W        W15658   1.371  19.877   3.777
43344W        W15659  26.640  24.581   2.811
43345W        W15660  33.790  22.594   4.435
43346W        W15661  34.163  22.684   0.986
43347W        W15662  11.908  32.072   4.991
43348W        W15663  21.592  21.587  12.957
43349W        W15664   7.925  41.855  14.537
43350W        W15665  42.037  11.313   0.898
43351W        W15666  35.829  15.559   0.513
43352W        W15667   5.625  29.637  11.193
43353W        W15668   4.350  22.815   2.329
43354W        W15669  14.071  40.936   0.321
43355W        W15670   7.131  14.719   3.226
43356W        W15671  42.937  41.986  14.696
43357W        W15672  12.786  14.697  12.621
43358W        W15673  11.964  38.121  14.178
43359W        W15674  22.692  26.628   9.748
43360W        W15675   7.698  30.603  14.790
43361W        W15676   1.813  32.461   3.249
43362W        W15677  42.064  23.751  12.009
43363W        W15678   2.417  21.179  14.572
43364W        W15679  42.838  14.325   3.166
43365W        W15680  38.788   3.242   2.871
43366W        W15681  33.981  20.324   1.624
43367W        W15682   0.068  29.695  13.085
43368W        W15683  43.784  25.198   0.016
43369W        W15684  17.040  34.616   0.430
43370W        W15685  33.233  12.715   2.201
43371W        W15686  31.343  19.163   0.955
43372W        W15687   7.557  44.268   4.617
43373W        W15688  19.128  33.526   2.273
43374W        W15689   6.636  36.359   2.789
43375W        W15690  40.097   7.179   1.840
43376W        W15691   3.005  25.051  14.366
43377W        W15692   1.367  34.184  10.703
43378W        W15693   0.076  15.370   1.650
43379W        W15694  36.999  26.501  12.368
43380W        W15695  28.118  40.403  13.040
43381W        W15696  40.415  27.990  11.483
43382W        W15697  43.973  35.531  10.816
43383W        W15698  21.158  16.607   2.659
43384W        W15699  37.319  15.836   0.302
43385W        W15700  21.511  22.057   4.687
43386W        W15701  31.049  23.327   3.656
43387W        W15702  17.927   9.398  10.687
43388W        W15703  39.128  28.590   0.226
43389W        W15704  21.349  21.419  14.742
43390W        W15705  29.018   4.835   3.216
43391W        W15706  31.674  29.446  14.066
43392W        W15707  24.726  34.660  14.585
43393W        W15708   9.936   9.884  13.453
43394W        W15709   1.214   4.249  11.637
43395W        W15710  16.684  12.675   0.062
43396W        W15711  27.402  15.632  10.786
43397W        W15712  43.432  37.486  12.286
43398W        W15713  14.114  29.820  14.761
43399W        W15714   6.996   2.962  11.268
43400W        W15715  41.954  10.102  10.016
43401W        W15716  24.530   5.479  11.814
43402W        W15717  41.855  18.445   2.959
43403W        W15718  18.580  14.386  13.004
43404W        W15719  27.978  35.578  10.461
43405W        W15720  26.645  43.937   3.289
43406W        W15721  26.717  21.196  13.924
43407W        W15722  15.598   5.409  12.325
43408W        W15723  11.890   4.325  14.002
43409W        W15724  25.726   2.389   3.263
43410W        W15725  30.802  39.666  14.851
43411W        W15726  40.580  21.119   0.212
43412W        W15727  32.946  19.041   3.333
43413W        W15728  14.058   4.008   0.423
43414W        W15729  40.962  26.179   0.015
43415W        W15730  18.525   1.266  12.533
43416W        W15731  41.800  32.900  13.832
43417W        W15732   1.974  11.760   2.393
43418W        W15733  13.660  33.990  13.907
43419W        W15734  42.601   0.597   1.678
43420W        W15735  21.959  23.733  12.516
43421W        W15736  10.963  15.500   2.953
43422W        W15737  38.824  23.892   2.108
43423W        W15738   9.779  42.983  12.514
43424W        W15739  29.227  28.578  11.605
43425W        W15740  25.446  31.806   1.655
43426W        W15741  13.848  42.402  11.655
43427W        W15742  12.777   6.738   1.782
43428W        W15743  38.596   6.314  12.637
43429W        W15744  34.887  23.443   3.177
43430W        W15745  32.383  26.135  13.388
43431W        W15746  30.108  30.323   3.029
43432W        W15747  22.078  13.532   0.767
43433W        W15748  28.418   2.290  10.496
43434W        W15749  40.470  23.563  10.337
43435W        W15750  22.080  41.802  11.584
43436W        W15751  31.724   0.027   4.105
43437W        W15752   9.891  27.669   2.720
43438W        W15753  41.424   9.408  12.335
43439W        W15754  30.603  30.287   2.876
43440W        W15755  28.783  30.072   3.114
43441W        W15756  35.902  10.192  10.988
43442W        W15757  32.392  20.043  13.184
43443W        W15758  43.859  31.403   3.686
43444W        W15759  30.472   6.262   4.070
43445W        W15760  31.190   7.365   2.802
43446W        W15761  25.157  29.222  11.644
43447W        W15762  24.692  28.462  11.554
43448W        W15763  40.888  33.541  13.508
43449W        W15764  29.431  33.523  13.799
43450W        W15765  23.514  14.190   1.030
43451W        W15766  24.090  26.801   0.279
43452W        W15767   1.964  26.081  13.011
43453W        W15768  24.897  10.755   0.719
43454W        W15769  39.297  30.071   4.091
43455W        W15770   1.183  11.287  14.100
43456W        W15771  12.842  30.441  13.761
43457W        W15772  26.197  30.267  13.118
43458W        W15773  14.236  43.485   3.231
43459W        W15774  41.903  43.066  12.521
43460W        W15775   7.676  10.541  12.558
43461W        W15776  38.549   7.814   1.785
43462W        W15777  30.073  35.932   3.235
43463W        W15778  43.353  35.631  14.764
43464W        W15779  40.816   2.721   1.764
43465W        W15780  17.452  12.242  11.530
43466W        W15781   5.484   0.541   2.769
43467W        W15782  10.087  32.949  10.510
43468W        W15783  25.777  27.126  14.811
43469W        W15784  15.009  16.259  11.193
43470W        W15785  10.819   9.947  12.104
43471W        W15786  31.119  39.841  11.528
43472W        W15787  19.784  20.202   3.650
43473W        W15788   2.325  37.564   3.114
43474W        W15789  20.881  39.328  11.437
43475W        W15790  36.885  26.412  12.969
43476W        W15791  27.227  21.680   2.869
43477W        W15792  39.075   9.819  11.141
43478W        W15793   9.851   5.986   3.627
43479W        W15794  22.207  35.086  14.815
43480W        W15795  32.545  33.947  10.675
43481W        W15796  27.646   2.663   3.184
43482W        W15797   5.943  19.638  14.995
43483W        W15798   5.571  11.208   2.768
43484W        W15799   2.599  23.568   4.987
43485W        W15800   7.589  36.410   1.825
43486W        W15801   8.883  40.001   1.879
43487W        W15802   6.963   0.842  11.978
43488W        W15803   9.775  38.507  13.677
43489W        W15804   3.224  26.735  11.524
43490W        W15805  10.581  26.799   1.833
43491W        W15806  38.432  19.512  13.647
43492W        W15807   0.308  33.095   3.540
43493W        W15808  21.035  16.513  11.619
43494W        W15809  19.988   8.674  11.153
43495W        W15810  29.449  19.769  13.069
43496W        W15811  27.522  37.820   1.308
43497W        W15812  43.896  22.750   2.127
43498W        W15813   8.190   1.098  12.319
43499W        W15814  43.083  21.528  11.626
43500W        W15815  11.463  32.680   0.821
43501W        W15816  19.579   7.250   2.027
43502W        W15817  23.978  40.534   0.814
43503W        W15818  25.390  11.878  12.980
43504W        W15819  33.875   9.023  12.114
43505W        W15820  35.982  29.819   3.633
43506W        W15821  36.007  15.135  14.003
43507W        W15822  31.962  18.357   4.117
43508W        W15823   0.005   5.960  12.913
43509W        W15824  38.802  18.795   2.660
43510W        W15825  26.001  20.233   1.791
43511W        W15826  28.509  12.856   3.260
43512W        W15827   0.601  16.058  10.881
43513W        W15828  36.344  29.239   4.462
43514W        W15829  18.648  35.136  12.929
43515W        W15830  38.269  37.920   3.727
43516W        W15831  11.778   1.894   4.072
43517W        W15832  25.108   9.442   4.138
43518W        W15833  22.016  31.468   4.595
43519W        W15834  31.404  30.006  10.755
43520W        W15835  19.676  18.278   3.791
43521W        W15836  32.484  30.074   1.368
43522W        W15837   8.304  29.012   0.816
43523W        W15838  20.302   5.613   4.919
43524W        W15839  21.271  15.148   1.225
43525W        W15840   0.998   0.005  12.049
43526W        W15841  41.097   8.907  14.095
43527W        W15842  29.070  14.798  13.147
43528W        W15843  20.241  39.847  12.486
43529W        W15844  21.671  22.895   1.170
43530W        W15845  32.736  39.223  10.610
43531W        W15846   0.425  14.733   3.662
43532W        W15847   0.765  16.846  11.515
43533W        W15848  29.857   7.284   3.343
43534W        W15849  25.091   1.780   2.329
43535W        W15850  37.851  19.326  14.355
43536W        W15851   4.972   0.819  12.116
43537W        W15852  43.432  29.682   2.385
43538W        W15853  26.942  14.337   2.499
43539W        W15854  31.858   6.205  12.513
43540W        W15855   5.220  14.266   0.339
43541W        W15856  13.316  37.953  12.923
43542W        W15857   6.339  10.548  11.123
43543W        W15858  44.580   2.717   0.545
43544W        W15859  12.034  14.121   4.687
43545W        W15860  32.464  38.067  14.474
43546W        W15861  44.829  44.483  13.855
43547W        W15862   4.662  44.401   2.376
43548W        W15863  33.937  10.954  11.045
43549W        W15864  36.313  18.713   0.851
43550W        W15865   5.895  28.670   2.244
43551W        W15866  43.799  10.033   3.928
43552W        W15867  23.643  29.596  13.537
43553W        W15868   5.831  43.377  10.741
43554W        W15869  42.870   4.973  11.058
43555W        W15870   8.318  40.405   1.740
43556W        W15871  10.109  33.008   1.196
43557W        W15872  14.321  11.352   0.680
43558W        W15873   5.040  25.290  14.184
43559W        W15874  11.900  39.872  14.394
43560W        W15875   1.132  43.157  12.943
43561W        W15876  35.888  33.970  13.895
43562W        W15877   6.273  18.798   4.584
43563W        W15878   4.749  22.927  11.977
43564W        W15879  17.697   8.096   3.998
43565W        W15880  17.069  35.655   0.407
43566W        W15881  33.152  20.531  12.108
43567W        W15882   5.843   5.019  10.667
43568W        W15883  33.633   2.016  10.818
43569W        W15884  20.724   3.996  13.447
43570W        W15885  26.410   4.922   3.605
43571W        W15886  29.014  41.568  14.913
43572W        W15887  12.901  27.954  14.883
43573W        W15888  40.443  19.285  11.986
43574W        W15889  38.388  22.042   4.259
43575W        W15890   3.422  28.308  11.009
43576W        W15891  38.153  17.751   2.490
43577W        W15892  37.101  10.454   4.249
43578W        W15893  34.195  28.403   2.348
43579W        W15894   7.635  36.499   2.757
43580W        W15895  27.499  30.321  10.200
43581W        W15896  40.704  30.011   3.175
43582W        W15897  31.898  19.137   4.641
43583W        W15898  39.275  41.879   2.666
43584W        W15899  17.027  10.325   3.733
43585W        W15900  20.637  23.573   0.956
43586W        W15901   9.696  13.819  10.955
43587W        W15902   9.152  18.808   4.564
43588W        W15903  12.849  44.715  14.966
43589W        W15904   7.256  16.034   3.564
43590W        W15905  39.518  16.126   0.769
43591W        W15906  42.307  40.904   0.286
43592W        W15907   5.430   9.796   2.828
43593W        W15908   2.298  40.916   1.464
43594W        W15909  19.105   2.502   3.598
43595W        W15910  23.478   7.761   3.753
43596W        W15911   7.878   3.874   4.278
43597W        W15912  29.783  19.841  11.666
43598W        W15913   7.590  21.600  14.912
43599W        W15914  25.084  36.717  11.505
43600W        W15915   8.410  11.880  12.097
43601W        W15916   0.496   9.943   0.929
43602W        W15917   2.050  25.654   3.684
43603W        W15918  20.265  28.926   4.117
43604W        W15919  28.991  25.590   4.339
43605W        W15920  26.299  10.032   4.444
43606W        W15921  10.146   2.370  10.736
43607W        W15922   8.896  13.289   1.720
43608W        W15923   4.216  30.348  12.122
43609W        W15924  34.342  42.534   2.247
43610W        W15925  25.141  21.445  14.028
43611W        W15926  22.211  26.451   2.783
43612W        W15927  13.833  44.845   0.122
43613W        W15928  21.480  37.122  14.239
43614W        W15929   7.331  39.092  14.016
43615W        W15930  16.103  15.951  13.140
43616W        W15931  21.170  31.054   1.838
43617W        W15932  31.424  22.350   4.099
43618W        W15933  20.889  37.526  10.680
43619W        W15934   5.168  28.000   3.358
43620W        W15935  12.910   7.675  13.230
43621W        W15936  27.260   9.240   2.722
43622W        W15937   6.843   5.950   2.335
43623W        W15938  14.583   2.953  13.816
43624W        W15939  14.577  23.550  11.480
43625W        W15940  32.126  11.814  10.660
43626W        W15941  19.408   4.362   0.944
43627W        W15942  32.466  18.674   2.255
43628W        W15943   9.818   5.230  12.057
43629W        W15944  15.554  30.545   1.707
43630W        W15945   1.391   9.436   2.866
43631W        W15946   6.841   9.693   1.350
43632W        W15947   6.598  16.300   2.661
43633W        W15948  29.030  27.377  14.247
43634W        W15949  37.328  32.382  10.570
43635W        W15950  41.101  41.064   2.696
43636W        W15951  24.522  33.062  10.754
43637W        W15952  27.628  36.833  13.842
43638W        W15953  38.522   8.688   1.348
43639W        W15954  30.350  14.769  14.331
43640W        W15955  22.791   6.823  12.120
43641W        W15956  43.467   1.583  10.678
43642W        W15957  12.319  41.046  14.204
43643W        W15958  29.626  15.353   3.679
43644W        W15959   9.377  11.719   4.597
43645W        W15960  28.536  12.266   1.234
43646W        W15961  23.742  28.442  12.540
43647W        W15962  43.929  12.695   1.895
43648W        W15963   3.787   6.720  12.570
43649W        W15964  40.599  28.669  10.404
43650W        W15965  32.507   0.246  10.843
43651W        W15966  29.196   2.747  14.682
43652W        W15967  16.887  35.368   3.761
43653W        W15968  12.334   3.431  14.907
43654W        W15969   0.797  27.091   3.494
43655W        W15970  15.632  37.471   1.530
43656W        W15971  14.234  39.591   4.126
43657W        W15972  27.481   0.222   0.430
43658W        W15973   6.716   8.266  13.443
43659W        W15974  17.010  13.468   2.631
43660W        W15975  11.063  32.708   3.319
43661W        W15976   2.097  28.042   9.754
43662W        W15977  24.242  12.787   9.849
43663W        W15978   6.850  25.563   2.693
43664W        W15979   8.684  23.757  14.893
43665W        W15980  22.151   9.293  11.721
43666W        W15981  25.621  14.307   0.020
43667W        W15982   1.937  26.639  14.400
43668W        W15983  31.531  12.740   4.869
43669W        W15984   2.614   9.931   3.297
43670W        W15985  27.356   9.886  13.826
43671W        W15986   2.347   8.558  13.878
43672W        W15987  40.626  44.932  13.882
43673W        W15988  25.795   6.678  10.053
43674W        W15989   7.036  41.889  13.871
43675W        W15990  44.383  26.776  12.504
43676W        W15991  44.030   4.939  11.531
43677W        W15992   4.812  13.226  14.872
43678W        W15993  18.036  25.749   3.168
43679W        W15994  43.900  13.672   4.717
43680W        W15995  29.471  10.916   1.049
43681W        W15996   3.900  21.417   3.310
43682W        W15997  43.413  44.402  11.572
43683W        W15998  15.716   8.699   1.910
43684W        W15999  11.261  29.325  14.092
43685W        W16000  39.836  25.434  11.054
43686W        W16001  28.917  18.239   4.087
43687W        W16002  22.062   8.890  12.640
43688W        W16003  35.896  31.607  13.538
43689W        W16004  40.562  25.120   9.831
43690W        W16005   9.827  33.600   3.759
43691W        W16006  11.750  27.188   4.210
43692W        W16007  28.140  11.577   0.230
43693W        W16008  33.566  24.032   3.931
43694W        W16009  28.485  19.108   2.570
43695W        W16010   6.226  38.055  11.995
43696W        W16011   9.700  33.480  11.495
43697W        W16012   0.003  33.114  10.608
43698W        W16013  44.869  19.951   1.758
43699W        W16014  39.403   9.736  12.969
43700W        W16015  14.276  42.734  14.382
43701W        W16016  32.071  11.322   0.043
43702W        W16017  26.916  17.661  14.536
43703W        W16018  42.385  27.059   1.288
43704W        W16019   8.614  18.825   4.546
43705W        W16020   6.430  21.732  12.930
43706W        W16021   7.754   8.526  13.168
43707W        W16022  23.848  20.952  12.468
43708W        W16023  36.337  24.017  14.334
43709W        W16024  29.245  32.624  11.825
43710W        W16025  19.310   2.840   4.323
43711W        W16026  38.061  25.218   2.873
43712W        W16027  39.800  12.240   4.558
43713W        W16028  23.000  40.283   3.942
43714W        W16029  11.844   7.374   1.287
43715W        W16030  13.003  31.830   4.952
43716W        W16031  12.361   2.818  14.600
43717W        W16032  19.120  17.844   1.742
43718W        W16033   1.385  17.818  12.148
43719W        W16034   5.094   5.937  13.935
43720W        W16035  28.625  21.018  10.579
43721W        W16036  12.858   0.528   2.422
43722W        W16037  21.170   1.471  10.905
43723W        W16038  23.575  13.312   4.336
43724W        W16039  25.178  12.406  14.131
43725W        W16040  30.033   7.304   2.858
43726W        W16041  38.532  42.420  12.931
43727W        W16042  29.507  28.049  14.021
43728W        W16043  32.294  14.507  13.413
43729W        W16044  10.225   3.693  11.477
43730W        W16045  32.093  41.784   4.588
43731W        W16046  21.644   0.209   1.462
43732W        W16047   1.531  10.318  10.758
43733W        W16048  10.768  29.132   0.303
43734W        W16049  39.443  29.072   0.206
43735W        W16050  42.356   0.213   3.852
43736W        W16051   3.125  14.574  14.996
43737W        W16052  43.323   7.670   2.731
43738W        W16053  23.014  41.588  12.477
43739W        W16054  12.825  26.183   2.151
43740W        W16055  18.723  27.974   2.875
43741W        W16056   2.221  43.449  12.805
43742W        W16057  36.359  40.949   3.751
43743W        W16058  42.294  24.668   0.302
43744W        W16059   3.423  36.517  13.875
43745W        W16060  23.585   7.092  11.084
43746W        W16061  30.641  19.205  13.321
43747W        W16062   1.197  24.074  12.415
43748W        W16063   3.957   5.207   1.363
43749W        W16064   8.952   1.838   4.486
43750W        W16065  40.498   5.897  12.814
43751W        W16066   4.410  12.078   2.969
43752W        W16067   0.453  30.889   1.769
43753W        W16068  39.985  40.537   0.290
43754W        W16069   5.926  28.033   3.774
43755W        W16070  22.531  22.718   3.619
43756W        W16071  26.557  27.098  12.530
43757W        W16072   2.344   5.398   2.725
43758W        W16073  42.858  34.248  11.036
43759W        W16074  22.516   3.693   0.077
43760W        W16075  38.290   1.991   0.678
43761W        W16076  35.385   3.179  11.262
43762W        W16077  43.880  29.390   3.560
43763W        W16078  43.283  16.685   4.686
43764W        W16079  17.589   2.376  11.967
43765W        W16080  40.386  28.501   1.661
43766W        W16081  44.272  12.264   1.451
43767W        W16082  37.896  10.381   0.240
43768W        W16083  16.875  42.895  13.157
43769W        W16084   1.358  21.027   2.922
43770W        W16085  34.658  32.714  11.574
43771W        W16086  10.171  16.883   1.950
43772W        W16087  43.253  29.285   1.463
43773W        W16088  14.817  24.793  11.726
43774W        W16089   5.119   3.332   1.602
43775W        W16090  10.638  35.887   1.532
43776W        W16091  10.684  10.387   2.213
43777W        W16092  37.088   9.385   2.228
43778W        W16093   9.233  24.297  12.337
43779W        W16094  19.201   6.893   3.155
43780W        W16095   0.732  39.408   4.293
43781W        W16096   3.938  16.908   0.298
43782W        W16097  13.645  32.372  14.844
43783W        W16098   9.368  21.482  12.985
43784W        W16099  27.348  36.951  13.415
43785W        W16100   7.589  39.887   1.020
43786W        W16101  20.628  19.661   1.692
43787W        W16102   9.816  17.146  14.302
43788W        W16103  13.759  11.758   0.557
43789W        W16104  19.543  23.567  13.043
43790W        W16105   0.872  14.270  13.528
43791W        W16106  26.646  34.501  10.878
43792W        W16107  31.231  30.829  14.614
43793W        W16108  27.648  21.989   1.234
43794W        W16109  18.617   8.671  10.834
43795W        W16110  12.800  17.770  14.660
43796W        W16111  29.516  13.770  14.914
43797W        W16112  40.423  23.866   4.633
43798W        W16113  43.429   6.565  12.489
43799W        W16114  43.000  44.407   0.848
43800W        W16115  14.263  11.202   3.105
43801W        W16116  31.106  40.853   3.341
43802W        W16117  24.896  36.650   2.453
43803W        W16118  40.942   8.746   0.958
43804W        W16119   8.727  32.891   1.330
43805W        W16120  26.806   5.870   1.992
43806W        W16121  13.741  26.197  11.208
43807W        W16122  44.657   1.461   2.813
43808W        W16123  30.911  12.048  12.623
43809W        W16124   7.289  12.826  10.545
43810W        W16125  33.083  27.901  14.262
43811W        W16126   1.797   0.122   2.173
43812W        W16127  23.108  29.929  13.519
43813W        W16128  37.649  20.472   0.772
43814W        W16129  26.706  11.367   4.652
43815W        W16130   8.827  42.658   5.075
43816W        W16131  26.628  32.847  14.475
43817W        W16132  43.290  40.919  11.320
43818W        W16133   2.846  30.860   3.290
43819W        W16134  35.171  18.730   1.388
43820W        W16135   7.242   1.146   1.170
43821W        W16136  29.419   5.502   2.169
43822W        W16137  17.614  16.289   4.169
43823W        W16138  16.350  35.498   3.391
43824W        W16139  41.366  16.627  13.023
43825W        W16140  31.616  12.136   2.168
43826W        W16141   8.465   5.154   3.238
43827W        W16142  39.403   1.151   3.246
43828W        W16143   5.723  23.417   1.731
43829W        W16144  12.705  28.053   0.747
43830W        W16145  25.105   7.883  14.719
43831W        W16146  10.350  18.358   0.179
43832W        W16147  17.317  28.166  10.553
43833W        W16148  36.383  39.551   3.589
43834W        W16149  11.070  29.365   4.564
43835W        W16150  31.072  43.767  10.299
43836W        W16151  33.484   7.082  13.914
43837W        W16152   0.902   5.403   1.386
43838W        W16153  20.100  31.929  11.663
43839W        W16154  15.677   3.968  12.918
43840W        W16155  13.708  14.173   0.206
43841W        W16156  20.120   9.396   4.571
43842W        W16157  22.259  34.426   1.454
43843W        W16158  32.741  35.371  11.623
43844W        W16159  31.126  39.024   0.533
43845W        W16160  33.145  21.066  12.869
43846W        W16161  24.218  18.722   0.984
43847W        W16162  35.289  32.803  11.451
43848W        W16163   4.327  10.887  10.868
43849W        W16164   8.691  41.052   1.845
43850W        W16165  34.828   4.411  14.866
43851W        W16166  15.683   7.606  13.574
43852W        W16167  30.921  35.787   9.862
43853W        W16168  41.598  32.929   0.068
43854W        W16169   8.494   1.220   2.829
43855W        W16170   1.561  25.047  11.468
43856W        W16171  34.539  10.311   3.162
43857W        W16172  31.571  36.929   3.898
43858W        W16173  21.218  37.026   0.421
43859W        W16174  36.952  30.097   4.519
43860W        W16175  33.543  21.046  14.568
43861W        W16176  13.620   6.837  12.752
43862W        W16177  33.157  36.261  11.641
43863W        W16178   1.396  14.721   3.275
43864W        W16179   2.858  17.039   3.237
43865W        W16180  36.345  34.284  11.596
43866W        W16181  39.808  14.285  14.979
43867W        W16182  28.411  43.823   0.020
43868W        W16183  29.683   6.308  11.154
43869W        W16184  44.192  33.948  14.876
43870W        W16185  25.794  40.221  10.136
43871W        W16186  11.683  11.750   4.383
43872W        W16187  19.672  26.135  11.622
43873W        W16188  44.042  15.081   1.603
43874W        W16189   0.427  24.369  11.540
43875W        W16190  11.482   2.069   0.311
43876W        W16191  43.922  42.984  10.450
43877W        W16192  30.431  19.324  13.788
43878W        W16193  13.094  39.809   4.568
43879W        W16194   6.550   7.137  14.013
43880W        W16195  34.555  22.029   1.494
43881W        W16196  35.080  25.643  13.053
43882W        W16197  30.470  28.742   4.488
43883W        W16198  36.993  42.079   4.618
43884W        W16199  31.913  14.423  11.926
43885W        W16200  26.376   1.421  13.483
43886W        W16201  11.181  36.940  14.671
43887W        W16202  38.961  11.539  13.850
43888W        W16203  33.972  35.282  11.256
43889W        W16204  41.743  27.700  13.551
43890W        W16205   5.947   0.302  13.535
43891W        W16206  29.548  18.727   4.498
43892W        W16207   6.235  37.857   4.640
43893W        W16208  23.373  14.057  13.994
43894W        W16209   6.367  38.945  13.591
43895W        W16210   5.787   7.588   1.346
43896W        W16211  44.855  33.098   0.736
43897W        W16212  23.715   5.690  12.446
43898W        W16213  10.172  18.212   2.123
43899W        W16214  11.771   4.486   0.355
43900W        W16215  27.813  30.832   1.753
43901W        W16216  31.412   2.920   2.733
43902W        W16217  38.779  30.170   3.384
43903W        W16218  15.207  20.970  12.161
43904W        W16219  44.553  12.780   3.142
43905W        W16220   2.987  40.816   3.656
43906W        W16221  17.149  42.067  14.462
43907W        W16222  25.428   7.827  12.579
43908W        W16223  18.847  27.976   2.368
43909W        W16224  26.220  32.951  13.024
43910W        W16225  14.315  31.014   0.474
43911W        W16226   1.706  29.637  11.599
43912W        W16227  33.949  43.754  13.490
43913W        W16228  17.272   9.155   1.279
43914W        W16229  11.381  28.485   1.517
43915W        W16230  14.212  27.691   3.097
43916W        W16231  38.415  21.017   3.197
43917W        W16232  39.168  15.347  13.449
43918W        W16233  29.265  36.954   3.099
43919W        W16234  25.812   8.911  12.025
43920W        W16235   8.232  23.874   0.526
43921W        W16236   1.168  36.490   3.306
43922W        W16237  26.132  27.677  13.967
43923W        W16238  37.232  25.561   9.810
43924W        W16239  17.648  15.262  10.730
43925W        W16240  18.458  26.098   4.647
43926W        W16241  43.204  35.466  12.456
43927W        W16242  36.266   1.559   2.382
43928W        W16243  28.184   0.876  12.100
43929W        W16244  32.481  36.808  13.557
43930W        W16245  44.483   8.895   2.299
43931W        W16246  29.338  32.954   0.789
43932W        W16247  27.097   2.429   1.890
43933W        W16248  16.625  13.595   0.018
43934W        W16249   6.669   5.132   2.751
43935W        W16250  31.415  12.123  11.197
43936W        W16251  34.163   5.749  13.570
43937W        W16252  37.534  15.915   0.866
43938W        W16253  11.631  44.924  14.988
43939W        W16254  39.974  15.124  14.779
43940W        W16255  26.911  28.187   1.961
43941W        W16256  14.081   8.904  12.869
43942W        W16257   6.214  36.690  12.686
43943W        W16258  38.008   8.338  12.475
43944W        W16259  37.975  13.118   0.583
43945W        W16260  19.686  33.420  13.448
43946W        W16261   7.691  44.453  11.333
43947W        W16262  16.230   9.011  13.760
43948W        W16263  25.704   2.474  13.366
43949W        W16264  25.071  33.948  10.020
43950W        W16265   4.521  33.979  14.038
43951W        W16266  16.086  18.626   3.655
43952W        W16267  43.407  12.603  12.961
43953W        W16268  15.544  30.083   1.214
43954W        W16269  33.547  28.615   5.052
43955W        W16270  37.279  26.255  11.971
43956W        W16271  19.545  20.281   4.552
43957W        W16272  38.836   1.336   5.108
43958W        W16273  43.832   7.141   4.313
43959W        W16274   4.434  32.200  12.509
43960W        W16275  17.179  14.751  11.375
43961W        W16276   5.243  29.703  11.544
43962W        W16277  33.314  29.969   4.701
43963W        W16278  26.649  15.758  13.805
43964W        W16279  43.017   3.571   5.013
43965W        W16280  41.425  20.335  10.438
43966W        W16281  11.751  19.292   3.784
43967W        W16282  42.468  44.966  10.830
43968W        W16283  38.013  41.435  14.959
43969W        W16284  20.055  28.632  13.025
43970W        W16285  25.529  38.854  12.534
43971W        W16286  34.837  34.451  12.144
43972W        W16287   6.312  18.673  10.272
43973W        W16288  15.331   8.369   1.697
43974W        W16289  26.925  33.400   4.140
43975W        W16290  29.955  44.569   3.618
43976W        W16291  29.711   4.213  14.011
43977W        W16292  18.247  32.092  12.392
43978W        W16293  16.757  42.889   1.625
43979W        W16294   9.558  40.040   2.715
43980W        W16295  18.617   0.087  13.426
43981W        W16296   8.821  31.659  11.180
43982W        W16297  33.190  37.571  11.175
43983W        W16298  31.109  10.319  12.867
43984W        W16299  22.674  22.802   2.357
43985W        W16300  24.120   1.661  11.628
43986W        W16301  29.904  31.983   4.868
43987W        W16302   4.808  20.969   4.649
43988W        W16303  17.033  24.748  14.729
43989W        W16304  32.575   7.701  12.019
43990W        W16305   7.198  42.979   3.764
43991W        W16306  11.077  34.077  10.820
43992W        W16307  36.932  29.515   0.677
43993W        W16308  44.060  17.221   1.236
43994W        W16309  33.220  22.636   2.657
43995W        W16310  17.444   4.340  14.777
43996W        W16311  44.967   8.834  13.457
43997W        W16312  29.150  39.364  14.045
43998W        W16313  17.236   7.143  13.498
43999W        W16314  15.735  33.237  11.981
44000W        W16315   2.707  43.192   4.084
44001W        W16316  29.771  42.767   0.828
44002W        W16317   2.659  36.387   3.466
44003W        W16318  18.279  19.462  14.347
44004W        W16319  14.142  18.668  12.015
44005W        W16320  26.635  20.881   1.815
44006W        W16321  23.524  21.438   5.434
44007W        W16322  43.404  16.687  14.890
44008W        W16323  16.863  20.312  14.046
44009W        W16324  36.873  10.174   1.303
44010W        W16325  19.672   7.888  11.806
44011W        W16326  38.320  16.947  11.054
44012W        W16327  37.125  40.409   1.653
44013W        W16328  42.915  13.128  14.693
44014W        W16329  40.957   8.202   1.354
44015W        W16330  11.112  20.627  13.603
44016W        W16331  26.003  11.407   0.403
44017W        W16332  28.403  22.312  11.662
44018W        W16333   0.864  13.798   0.671
44019W        W16334  38.334  10.312   4.647
44020W        W16335   6.802   4.876   1.715
44021W        W16336   2.167  40.928   3.336
44022W        W16337  43.191  22.121   0.440
44023W        W16338  44.235  15.080   2.696
44024W        W16339  12.973  41.368   4.495
44025W        W16340  11.611   7.739   3.254
44026W        W16341  41.677  44.279   0.251
44027W        W16342  11.995   5.726  14.471
44028W        W16343   3.025  43.205  14.975
44029W        W16344   0.739  23.478   2.860
44030W        W16345   4.464  32.432   0.356
44031W        W16346  23.942   3.056   1.151
44032W        W16347  17.132  26.201  12.398
44033W        W16348  40.064   3.901  10.745
44034W        W16349  27.933  30.980   5.240
44035W        W16350  19.045  38.503  11.028
44036W        W16351  38.175  38.430   4.556
44037W        W16352  37.485  28.453   2.889
44038W        W16353  42.071  40.461   0.465
44039W        W16354  41.014  14.353   0.055
44040W        W16355  25.805  39.512  11.500
44041W        W16356   0.564  31.537  12.984
44042W        W16357  27.081  23.724   2.246
44043W        W16358  16.676   8.108   0.271
44044W        W16359  35.275  40.844  10.803
44045W        W16360   1.228  12.643   0.953
44046W        W16361  36.452  10.268   4.492
44047W        W16362  17.280   8.616   1.268
44048W        W16363  19.822  29.943   3.121
44049W        W16364  41.102  20.818   1.407
44050W        W16365  35.529  23.202  12.665
44051W        W16366  16.678  19.801   1.460
44052W        W16367  17.739  31.492   2.207
44053W        W16368  37.221  15.879  13.410
44054W        W16369   1.390  41.969  13.517
44055W        W16370  32.542  37.354   0.835
44056W        W16371   2.488   2.592  13.933
44057W        W16372  28.333   0.956   3.723
44058W        W16373   2.187  35.490   0.547
44059W        W16374  43.478  29.382  11.544
44060W        W16375  15.883   9.472   1.312
44061W        W16376  31.423  20.637  13.276
44062W        W16377   6.391  17.305   1.616
44063W        W16378  12.154  28.968   2.840
44064W        W16379  16.321  27.703   3.356
44065W        W16380  37.789  11.223   3.803
44066W        W16381  30.411  13.251  13.862
44067W        W16382   3.359  11.978   5.022
44068W        W16383  30.920   3.747   2.656
44069W        W16384  34.131  29.553  13.335
44070W        W16385  11.321  11.874  10.791
44071W        W16386   2.452  32.492  10.944
44072W        W16387   1.665   2.885   1.849
44073W        W16388  11.806   5.331   2.492
44074W        W16389  23.047  32.819   3.168
44075W        W16390  37.086  16.043  10.786
44076W        W16391  11.240  12.072   1.931
44077W        W16392  16.011  33.969  12.816
44078W        W16393  23.749  24.360  13.436
44079W        W16394  31.282  43.578  13.973
44080W        W16395  10.515  40.815   2.279
44081W        W16396   0.038  41.356   2.300
44082W        W16397  26.385  15.660  13.363
44083W        W16398   8.448  43.952  14.051
44084W        W16399  37.833  43.220   0.399
44085W        W16400  43.992  37.142   2.736
44086W        W16401  39.216  19.652  11.930
44087W        W16402   1.862  26.998   4.148
44088W        W16403  28.606   6.715  11.092
44089W        W16404  44.186  31.637  10.775
44090W        W16405  14.857  12.305  14.809
44091W        W16406  43.449  11.881   5.178
44092W        W16407  24.880  18.830   3.242
44093W        W16408  30.039  39.999   0.485
44094W        W16409  33.089  44.261   4.140
44095W        W16410   3.251   2.353   1.223
44096W        W16411  30.961  39.795  12.427
44097W        W16412  10.058  15.514  13.150
44098W        W16413  26.045  33.778  13.806
44099W        W16414  28.664  20.160   4.653
44100W        W16415  21.963  29.282  14.428
44101W        W16416  34.146  38.654  12.482
44102W        W16417   7.400  35.532  13.966
44103W        W16418  30.969  26.944  10.899
44104W        W16419  13.171   2.841  12.736
44105W        W16420  23.655  16.801  14.498
44106W        W16421  23.446  30.799  12.845
44107W        W16422   5.246  38.493   3.095
44108W        W16423  38.646  18.536   4.955
44109W        W16424  26.020  12.701  13.792
44110W        W16425  11.219  37.240   0.986
44111W        W16426   7.228  30.480  10.743
44112W        W16427  36.002  18.400  13.302
44113W        W16428  32.446  12.415   1.411
44114W        W16429  23.169  33.139  11.619
44115W        W16430  33.833  20.094  11.555
44116W        W16431  23.863   1.197   2.394
44117W        W16432  21.722  16.691   3.225
44118W        W16433  24.458   7.334  11.184
44119W        W16434   7.988   2.379   3.763
44120W        W16435  14.884   5.935   3.625
44121W        W16436   1.547   2.774   2.345
44122W        W16437  35.425  37.973  14.676
44123W        W16438  20.501   3.357   4.634
44124W        W16439  16.156  24.579   1.899
44125W        W16440  39.326  26.216  10.163
44126W        W16441  31.052  17.081  14.404
44127W        W16442   1.980  40.931  10.357
44128W        W16443  17.088  26.830  10.189
44129W        W16444   8.525  26.547  12.435
44130W        W16445  10.742  11.905   4.074
44131W        W16446  10.839  26.065   2.422
44132W        W16447   6.225  32.609   3.635
44133W        W16448  18.957   8.320   2.181
44134W        W16449  41.945  13.669  12.778
44135W        W16450   6.975  37.355  13.802
44136W        W16451  31.312  34.561   3.249
44137W        W16452  17.177   1.886   3.647
44138W        W16453  40.401  22.997   3.134
44139W        W16454  26.175  26.713   4.143
44140W        W16455   6.995  14.624   0.637
44141W        W16456  29.341  23.398   4.496
44142W        W16457   0.509  35.962   1.354
44143W        W16458  21.189  10.691  11.958
44144W        W16459  17.945  30.205  10.200
44145W        W16460  42.336  34.644  10.420
44146W        W16461  27.959  33.216   0.985
44147W        W16462   7.216   1.036   4.924
44148W        W16463  11.755  32.653   4.569
44149W        W16464  10.409  34.338   0.918
44150W        W16465   3.158  31.325   4.523
44151W        W16466  22.445  11.860  13.773
44152W        W16467  44.333   0.806   2.206
44153W        W16468  17.277   6.892   3.601
44154W        W16469  28.111  17.318  13.185
44155W        W16470  16.577  36.764   2.744
44156W        W16471  41.582   8.922   0.088
44157W        W16472   6.143   8.836  13.920
44158W        W16473  12.864  15.733  10.739
44159W        W16474   0.578  16.702   3.236
44160W        W16475  25.468   8.116  13.459
44161W        W16476   3.397  14.905   0.840
44162W        W16477  38.987  37.011  11.947
44163W        W16478  16.793  23.628   1.181
44164W        W16479  36.631  18.490   0.501
44165W        W16480  42.264  26.819   2.622
44166W        W16481   6.386  19.605  13.754
44167W        W16482  39.933  11.357   3.174
44168W        W16483  39.329  19.223   3.983
44169W        W16484  22.657  16.367   3.289
44170W        W16485  12.587  16.608   0.257
44171W        W16486  42.427  12.819   1.720
44172W        W16487  25.132  35.066   1.857
44173W        W16488  28.009  14.406  13.551
44174W        W16489  19.944  29.440  11.181
44175W        W16490  31.711  14.678   2.509
44176W        W16491  21.127   4.936  13.398
44177W        W16492  43.028  41.405   2.317
44178W        W16493  42.395  23.507   2.349
44179W        W16494  32.511   6.019   0.963
44180W        W16495  44.124  10.142  10.275
44181W        W16496  32.120  17.031   3.380
44182W        W16497  16.109  31.224  11.445
44183W        W16498  17.522  35.374   4.961
44184W        W16499   8.862  14.757   3.681
44185W        W16500   4.782  37.363   4.579
44186W        W16501  19.037  42.849   3.042
44187W        W16502  30.341  22.783   1.743
44188W        W16503   4.638  21.488  11.233
44189W        W16504   3.289   4.599  13.399
44190W        W16505  17.793   0.755   0.807
44191W        W16506  27.284   4.867   1.703
44192W        W16507  28.956  37.490   0.255
44193W        W16508  37.509  36.040   2.167
44194W        W16509   2.227  39.857  14.347
44195W        W16510  26.400   9.297  10.946
44196W        W16511  31.668  25.510   0.677
44197W        W16512  39.417  38.340   1.860
44198W        W16513   0.766  23.439   0.784
44199W        W16514  11.524   0.279   3.225
44200W        W16515  25.122  39.257   1.465
44201W        W16516  14.848  33.432   4.385
44202W        W16517   7.497  20.148  14.004
44203W        W16518  12.526   3.345   0.898
44204W        W16519  10.563  21.494   2.927
44205W        W16520  33.344  32.594   3.363
44206W        W16521  22.770  19.184   4.705
44207W        W16522  17.301  26.634   0.516
44208W        W16523  13.414   1.453  12.905
44209W        W16524   6.857  19.550   4.640
44210W        W16525  44.899   9.345  13.605
44211W        W16526   7.732  25.057   2.397
44212W        W16527   9.984  34.873  12.321
44213W        W16528   4.398  27.033   2.408
44214W        W16529  32.560  41.056  14.826
44215W        W16530   9.214  31.700  14.753
44216W        W16531  32.067  30.275  10.624
44217W        W16532  26.404  13.784   1.975
44218W        W16533  32.455  17.191  10.671
44219W        W16534   5.728  19.055   0.771
44220W        W16535  18.320  17.017   4.131
44221W        W16536  39.286  11.612  14.815
44222W        W16537  14.210  44.010  11.808
44223W        W16538  19.149   3.316  11.172
44224W        W16539  25.073  40.920  12.022
44225W        W16540   4.150   9.413  11.574
44226W        W16541   7.702  36.829  13.790
44227W        W16542  42.232  38.124   1.575
44228W        W16543   0.057   8.696   1.495
44229W        W16544   6.165  38.909  12.057
44230W        W16545  15.111  44.785   3.255
44231W        W16546   9.545   5.783  12.560
44232W        W16547  25.539   4.214  12.524
44233W        W16548  19.921  32.423  12.405
44234W        W16549  35.469  29.115   4.440
44235W        W16550  15.241  22.212  13.122
44236W        W16551  12.844   2.526  11.551
44237W        W16552  35.102   4.509   4.734
44238W        W16553  19.883  26.208   1.346
44239W        W16554  30.053   6.748   2.942
44240W        W16555   5.789  41.254   3.176
44241W        W16556   7.673  15.476   3.830
44242W        W16557  35.332  20.614   0.278
44243W        W16558  28.972  38.538  12.866
44244W        W16559   5.337   5.698  13.547
44245W        W16560  38.610  38.307   3.754
44246W        W16561  30.407  29.531  13.521
44247W        W16562  42.378  18.711   1.335
44248W        W16563  28.984  32.678  13.228
44249W        W16564  34.453  40.077  14.795
44250W        W16565  11.296  35.573   4.230
44251W        W16566  44.926  31.543   0.496
44252W        W16567  36.331  15.654   1.462
44253W        W16568  17.227  29.107   1.675
44254W        W16569  42.228  14.230   0.501
44255W        W16570   7.138  43.828   3.877
44256W        W16571  14.353   9.774  12.865
44257W        W16572  35.520  43.010   0.995
44258W        W16573   0.874  28.432  11.596
44259W        W16574   1.329  30.366   2.391
44260W        W16575  44.247  40.096  12.438
44261W        W16576  42.201  41.688  12.389
44262W        W16577  14.499  40.082   0.596
44263W        W16578  39.436  10.143  11.853
44264W        W16579  21.942  34.233  12.048
44265W        W16580  17.022  39.533   2.764
44266W        W16581  36.315  21.300   2.575
44267W        W16582  41.035  34.995   4.289
44268W        W16583  22.272  24.936  11.989
44269W        W16584  13.848  29.549   1.026
44270W        W16585   5.727  26.065  13.441
44271W        W16586  21.460   8.824   3.781
44272W        W16587  14.253  30.091  12.947
44273W        W16588  34.348  12.684   4.894
44274W        W16589  36.541  21.253  12.828
44275W        W16590  13.116  20.804   1.654
44276W        W16591  29.623  39.836   4.083
44277W        W16592  28.024  36.496   0.834
44278W        W16593   2.304  18.317   2.230
44279W        W16594  42.466  17.705  12.581
44280W        W16595  20.927  21.435   3.183
44281W        W16596   7.881   9.115   3.749
44282W        W16597  42.706   6.479  14.536
44283W        W16598  38.592  21.789  13.383
44284W        W16599   1.691  15.570  13.524
44285W        W16600  21.104  39.918   0.872
44286W        W16601  27.187  34.981   1.886
44287W        W16602  37.847  14.842  10.582
44288W        W16603  41.771  36.875  14.677
44289W        W16604   7.724  11.949  14.368
44290W        W16605  13.519  18.115  10.729
44291W        W16606  19.238  33.668   0.690
44292W        W16607   7.667  26.014   1.912
44293W        W16608   5.575  20.216  14.367
44294W        W16609   5.259  42.959   3.665
44295W        W16610  23.087  32.974  13.440
44296W        W16611   6.933  19.826  12.101
44297W        W16612  12.281   2.399  12.098
44298W        W16613  38.931  31.146  12.564
44299W        W16614  10.338  12.067  11.577
44300W        W16615  31.120  20.382  11.026
44301W        W16616  20.730  38.541  13.566
44302W        W16617  16.224  10.647   2.339
44303W        W16618  37.074  14.167   4.498
44304W        W16619  36.082  19.451  13.824
44305W        W16620  16.387  10.049  11.310
44306W        W16621  43.324  41.094  13.510
44307W        W16622  41.011  32.198   3.584
44308W        W16623   3.045   5.303  14.839
44309W        W16624  36.614   3.198  10.770
44310W        W16625  44.674   9.792   2.759
44311W        W16626  34.027   0.877   1.417
44312W        W16627  26.432  33.584   4.951
44313W        W16628  10.133  31.655   3.235
44314W        W16629  32.419  31.140  11.383
44315W        W16630   5.868  15.097  14.540
44316W        W16631   2.256  31.941   1.869
44317W        W16632  44.422   7.012   0.701
44318W        W16633  37.869  18.884   1.051
44319W        W16634   1.939  44.273  13.679
44320W        W16635  37.859  44.850   1.386
44321W        W16636  16.379  17.619   0.849
44322W        W16637   8.733  31.099  12.015
44323W        W16638  10.559  39.855   3.883
44324W        W16639  19.178   9.115   1.758
44325W        W16640  30.967  44.941   4.396
44326W        W16641  28.908   0.354   3.133
44327W        W16642  12.599  29.157   2.315
44328W        W16643   8.632  21.667  10.986
44329W        W16644   1.455  20.601   0.764
44330W        W16645  25.965  10.839   2.235
44331W        W16646  37.335  19.034   1.116
44332W        W16647  43.666   1.836  12.159
44333W        W16648  11.201  41.775  12.041
44334W        W16649  28.627  27.665  14.494
44335W        W16650  19.327  39.473   1.455
44336W        W16651  19.169   8.670  10.738
44337W        W16652   6.041  40.334  11.095
44338W        W16653  22.819  18.565  11.900
44339W        W16654   4.261  15.411   0.888
44340W        W16655  31.980  12.755   3.036
44341W        W16656  23.292   1.788   3.014
44342W        W16657   1.757  30.971   1.924
44343W        W16658   0.318  40.148   0.974
44344W        W16659  40.639  41.924  14.286
44345W        W16660  17.242  27.596   2.033
44346W        W16661  18.044  22.229   1.663
44347W        W16662  43.014  29.584   0.703
44348W        W16663  44.504  23.685   1.934
44349W        W16664  38.608  34.828  14.910
44350W        W16665  38.860  30.122   0.443
44351W        W16666  31.631  27.609  14.460
44352W        W16667  25.771  16.893   0.850
44353W        W16668  15.853  40.739   2.372
44354W        W16669  11.164  39.662  13.756
44355W        W16670   9.162  17.673  12.924
44356W        W16671  13.586  44.530   4.538
44357W        W16672  18.689  35.295   3.777
44358W        W16673   2.703  31.139   3.709
44359W        W16674  37.166  44.036  14.426
44360W        W16675  22.467  22.587   2.805
44361W        W16676  43.030  36.373  11.969
44362W        W16677  10.350  12.321   4.015
44363W        W16678  14.819   5.435   0.706
44364W        W16679  30.946  26.261   2.918
44365W        W16680  31.190  29.427   3.196
44366W        W16681  15.047  36.503   0.436
44367W        W16682  21.578  36.107  13.424
44368W        W16683  41.335  18.373   2.162
44369W        W16684  12.149  33.465  13.546
44370W        W16685  24.177  24.135   1.893
44371W        W16686  24.753  32.109   4.408
44372W        W16687  37.069  27.186   0.338
44373W        W16688   9.083  29.323   1.838
44374W        W16689  42.504  40.016  11.132
44375W        W16690   4.433  38.672   3.314
44376W        W16691  44.191   6.361   0.317
44377W        W16692  36.227  10.676   4.165
44378W        W16693  39.985  18.884   4.183
44379W        W16694  33.214  18.815  12.875
44380W        W16695  28.598   7.926  12.391
44381W        W16696  27.706  26.520   1.335
44382W        W16697  41.946  11.224  11.806
44383W        W16698  39.755  20.223   0.348
44384W        W16699  15.495  36.564  14.484
44385W        W16700   1.869   7.138  10.696
44386W        W16701  43.225   5.203  12.548
44387W        W16702  44.453  19.838   4.750
44388W        W16703  41.448  35.319  14.994
44389W        W16704   0.157  27.199  11.482
44390W        W16705  35.872   5.861   4.894
44391W        W16706  39.472  42.527  14.002
44392W        W16707  11.240  34.822  14.064
44393W        W16708  19.375  14.619  11.967
44394W        W16709  28.725   2.976   2.374
44395W        W16710  37.826  41.178  11.181
44396W        W16711  30.013  11.236   1.842
44397W        W16712   4.647  19.783  10.557
44398W        W16713  42.827  23.168  11.158
44399W        W16714  27.162   2.677   2.354
44400W        W16715  37.433  10.679   1.910
44401W        W16716  22.002  17.477  12.972
44402W        W16717  14.628  27.595   4.288
44403W        W16718   2.427  41.385  14.462
44404W        W16719  20.664  44.580   0.871
44405W        W16720  29.016   0.858   3.278
44406W        W16721   7.780  23.932   4.282
44407W        W16722  11.809   3.406  14.977
44408W        W16723   0.818  14.372  14.389
44409W        W16724  30.218   2.880  12.933
44410W        W16725  16.251  26.959  11.585
44411W        W16726  27.718  34.043  11.763
44412W        W16727  40.125  24.547  12.225
44413W        W16728  38.975  24.549  12.084
44414W        W16729  25.280  18.549   2.927
44415W        W16730  16.790  42.409   4.249
44416W        W16731  25.968   9.816   1.690
44417W        W16732  23.669   0.773  14.866
44418W        W16733   5.367   2.466   0.288
44419W        W16734   3.840  20.199  14.282
44420W        W16735   3.277   7.047   1.630
44421W        W16736  36.679  14.626   2.521
44422W        W16737  25.039   8.601   3.761
44423W        W16738  35.307  34.543  13.010
44424W        W16739   4.083  18.369  12.413
44425W        W16740  41.268  10.838  14.762
44426W        W16741  42.965  22.450  12.950
44427W        W16742   7.988   1.979  14.872
44428W        W16743   3.750   1.154   2.760
44429W        W16744  15.214  21.520  10.414
44430W        W16745  22.003  15.821   1.292
44431W        W16746   4.907   3.433   2.924
44432W        W16747  23.653  15.257  13.872
44433W        W16748   9.153  17.366  14.984
44434W        W16749  14.370  40.688  14.446
44435W        W16750  24.079  15.939  14.955
44436W        W16751  32.459  38.800   1.305
44437W        W16752  19.891  32.396  11.584
44438W        W16753   4.410  21.483   2.689
44439W        W16754  12.278   6.941  13.533
44440W        W16755  37.355   9.085   1.877
44441W        W16756   4.763   8.238  13.154
44442W        W16757  32.562  14.386  10.745
44443W        W16758  20.606  29.531   2.814
44444W        W16759  27.973  44.375   1.116
44445W        W16760   2.535   3.344   0.388
44446W        W16761   7.676  21.613  11.195
44447W        W16762  39.335  37.520   3.516
44448W        W16763  23.269   8.312  12.914
44449W        W16764   3.409  20.070  12.861
44450W        W16765  11.298  27.430   4.202
44451W        W16766  32.851  27.726   3.711
44452W        W16767  28.665  12.190   0.731
44453W        W16768  14.792  24.599   0.660
44454W        W16769   2.389   5.784  13.294
44455W        W16770  25.500   1.954   2.056
44456W        W16771   2.949  16.794   3.693
44457W        W16772  18.939  40.112   0.883
44458W        W16773  23.760   3.078  12.013
44459W        W16774  16.597  11.262  13.768
44460W        W16775  29.927  11.628   0.442
44461W        W16776  29.263  17.877  12.850
44462W        W16777  30.178  29.534  14.269
44463W        W16778  37.518  18.731  13.941
44464W        W16779  20.111   4.431  14.913
44465W        W16780  17.721  32.798  12.039
44466W        W16781  12.166  35.213   3.923
44467W        W16782  16.110  34.381   0.421
44468W        W16783   3.571  11.401  11.215
44469W        W16784  27.746  27.567  12.191
44470W        W16785  33.870  24.013  10.537
44471W        W16786  14.200  24.042  12.624
44472W        W16787  17.054  24.699  11.016
44473W        W16788  23.108  26.220  14.795
44474W        W16789  26.951  35.870   1.382
44475W        W16790  36.294   1.073  12.993
44476W        W16791  21.986   5.615  14.563
44477W        W16792   8.079  25.092  11.989
44478W        W16793  34.813  32.914  14.977
44479W        W16794   1.459   9.374  14.494
44480W        W16795  32.217  30.180   3.180
44481W        W16796  14.146  20.069  14.553
44482W        W16797  33.931  40.399   0.421
44483W        W16798  27.820  15.326   0.785
44484W        W16799   9.623   8.698  14.756
44485W        W16800  41.063   2.513  14.251
44486W        W16801  30.985  40.125  11.092
44487W        W16802  15.459  38.594   0.536
44488W        W16803   9.041  16.679   1.512
44489W        W16804  23.967  27.969  14.464
44490W        W16805  23.999  21.268   0.685
44491W        W16806  15.644   9.367   4.745
44492W        W16807  18.824  40.809  14.573
44493W        W16808  10.427   7.889  13.458
44494W        W16809  38.110  32.572   0.096
44495W        W16810   4.308   9.235   2.881
44496W        W16811  27.423  32.073  12.456
44497W        W16812  34.319  25.652   2.086
44498W        W16813  27.148  38.352   4.063
44499W        W16814  14.612   0.727   4.110
44500W        W16815  17.295  11.711  14.179
44501W        W16816  36.956  13.862  14.289
44502W        W16817   1.472  22.962  11.017
44503W        W16818  19.883  25.629   3.818
44504W        W16819  34.481  34.001   4.665
44505W        W16820  23.641  23.232  12.608
44506W        W16821   0.248  36.896  12.058
44507W        W16822   2.707  38.949  12.440
44508W        W16823  40.836  40.135   1.832
44509W        W16824  31.388  35.021   0.649
44510W        W16825  11.485  15.319   0.403
44511W        W16826   7.705   3.170  11.243
44512W        W16827   5.742   1.294   0.258
44513W        W16828   6.814  24.434  13.831
44514W        W16829  33.296  33.601  11.979
44515W        W16830  17.157   3.734  11.547
44516W        W16831  38.980  25.115  14.036
44517W        W16832  23.723  28.458  13.466
44518W        W16833  29.103  16.339   0.804
44519W        W16834  21.032  11.055  13.943
44520W        W16835  25.200  28.572  12.436
44521W        W16836  28.412   0.743  11.599
44522W        W16837   0.267  44.776  14.508
44523W        W16838  16.164   4.885  13.148
44524W        W16839  10.347  20.981   3.637
44525W        W16840   7.626  34.120  11.933
44526W        W16841  29.074  15.048   1.380
44527W        W16842  19.685   1.538  10.983
44528W        W16843   4.611  22.042  13.102
44529W        W16844  12.620  17.067  11.630
44530W        W16845   2.479  38.977   1.410
44531W        W16846  24.831  30.664   1.256
44532W        W16847  23.064  44.802   2.712
44533W        W16848  16.674  14.454  13.028
44534W        W16849  14.720  35.710  11.045
44535W        W16850  38.563  26.723   2.794
44536W        W16851  44.774  29.258  13.011
44537W        W16852  41.909  16.672   0.429
44538W        W16853  22.756  12.081   4.076
44539W        W16854  34.617   6.296   2.325
44540W        W16855  19.473  43.565  13.507
44541W        W16856  33.462  14.232  10.629
44542W        W16857   9.761  30.109   2.044
44543W        W16858  28.908  38.038  13.061
44544W        W16859   8.945   9.480   3.634
44545W        W16860  25.953  20.177   4.724
44546W        W16861  34.334  27.946   2.058
44547W        W16862  41.946  26.893   3.290
44548W        W16863  33.095  32.396  14.708
44549W        W16864   0.223  44.947  14.998
44550W        W16865  30.187   7.943  11.567
44551W        W16866  38.340   6.299  13.636
44552W        W16867   3.238  16.659   2.409
44553W        W16868  44.697   3.920   2.330
44554W        W16869   5.647  38.452   0.777
44555W        W16870   9.694  35.933   5.123
44556W        W16871   3.362  30.956   3.120
44557W        W16872  32.201   8.947   3.101
44558W        W16873  25.973  41.457   4.427
44559W        W16874   1.936  11.708  12.424
44560W        W16875  42.689   8.744  12.533
44561W        W16876  39.416  25.769  11.064
44562W        W16877   4.456  40.227   3.261
44563W        W16878   6.078   0.001  13.939
44564W        W16879   4.233  31.973  12.048
44565W        W16880   6.846   4.927   2.256
44566W        W16881   6.965  42.162  10.723
44567W        W16882  17.771  17.975   2.803
44568W        W16883  21.778  31.185  14.416
44569W        W16884  17.516   9.958  13.867
44570W        W16885   1.012  37.450  13.534
44571W        W16886  44.302  18.209   0.341
44572W        W16887  17.369  19.838   5.057
44573W        W16888  25.428   9.238  12.068
44574W        W16889   6.174  20.555  11.135
44575W        W16890  35.565  40.013  11.420
44576W        W16891   7.219   2.795  13.925
44577W        W16892   9.506  44.815   0.888
44578W        W16893  20.041  25.647  11.523
44579W        W16894  43.775  38.334   2.395
44580W        W16895  40.976  44.619   3.595
44581W        W16896  32.085  20.990   1.564
44582W        W16897  39.138   1.549   4.320
44583W        W16898  10.724  19.872  14.363
44584W        W16899  10.359  40.448   2.701
44585W        W16900  38.899  23.321   3.307
44586W        W16901  40.254  44.501   4.242
44587W        W16902  20.172  13.102  11.150
44588W        W16903   5.916  38.003   0.794
44589W        W16904  44.027  35.423  12.640
44590W        W16905  23.136  19.536   4.650
44591W        W16906  36.186  23.557  13.273
44592W        W16907   1.915   4.932   4.595
44593W        W16908  26.165  42.249   1.380
44594W        W16909  34.551  17.177  14.836
44595W        W16910  33.450  16.281  13.945
44596W        W16911   4.810  17.042   1.264
44597W        W16912  26.571   5.446  13.551
44598W        W16913  36.354  11.904   4.552
44599W        W16914  44.741  18.963   4.491
44600W        W16915   0.834  40.097  14.498
44601W        W16916  13.155  25.041   2.740
44602W        W16917  34.842  42.123  11.521
44603W        W16918  15.077  13.894  14.405
44604W        W16919  22.077  12.429  12.559
44605W        W16920  33.643  15.664  13.639
44606W        W16921  42.014  20.099  13.052
44607W        W16922  21.022  33.747   1.406
44608W        W16923  26.002  18.669   1.691
44609W        W16924   0.277  43.396   2.977
44610W        W16925  44.834   2.515  10.648
44611W        W16926  41.052  17.057  11.535
44612W        W16927  34.164  34.137   1.753
44613W        W16928  18.133  19.976  14.280
44614W        W16929  40.079  18.305   1.066
44615W        W16930  33.976  23.479   3.161
44616W        W16931  17.559   9.819  10.617
44617W        W16932  19.827  10.338  10.143
44618W        W16933  37.673  24.768  12.909
44619W        W16934   1.256  41.448  10.649
44620W        W16935  15.279  24.526  14.371
44621W        W16936  18.759  37.105   2.493
44622W        W16937  15.786  35.460  11.521
44623W        W16938  17.176  44.409   5.077
44624W        W16939  19.044  26.986  11.561
44625W        W16940  38.574  22.723  10.469
44626W        W16941   1.228   6.333  12.933
44627W        W16942   2.379  19.971  10.418
44628W        W16943  22.017  25.939  13.886
44629W        W16944  41.069  40.326   2.280
44630W        W16945  41.959  37.036  11.216
44631W        W16946  10.825  16.599  11.054
44632W        W16947  38.351   1.766  13.887
44633W        W16948  17.124   2.778  14.077
44634W        W16949  19.739  12.176  10.467
44635W        W16950  32.621  26.141  10.757
44636W        W16951  28.923  35.378  10.708
44637W        W16952  33.025   7.447   0.882
44638W        W16953  24.041  20.995  14.783
44639W        W16954   9.134  13.482   1.242
44640W        W16955  27.245   9.069  14.073
44641W        W16956  17.018  31.507  10.092
44642W        W16957  39.588   6.320  11.088
44643W        W16958   3.294   7.946   4.077
44644W        W16959  33.044  27.579  14.727
44645W        W16960   7.757   3.323   4.529
44646W        W16961  16.091  17.889  11.118
44647W        W16962  12.892  36.651  10.670
44648W        W16963   9.683  21.180  14.507
44649W        W16964  21.626  11.980   2.237
44650W        W16965  35.680   1.804   4.206
44651W        W16966  18.673  33.042  14.917
44652W        W16967   2.237  36.430   3.842
44653W        W16968  37.013  28.881   3.685
44654W        W16969  35.014  44.992   0.721
44655W        W16970  13.588  16.605   3.034
44656W        W16971  36.405  29.199  12.969
44657W        W16972  35.708  37.259   0.744
44658W        W16973  21.300   9.372  13.404
44659W        W16974  26.943  15.188   3.670
44660W        W16975  10.786  26.856  13.825
44661W        W16976  26.110  27.754   0.956
44662W        W16977  39.334  19.149  14.491
44663W        W16978  21.724  41.323  14.355
44664W        W16979  13.050  21.723   0.853
44665W        W16980   8.284   9.522  11.078
44666W        W16981  26.064  25.951   3.490
44667W        W16982   0.149  19.469  14.827
44668W        W16983  36.349  22.009  10.679
44669W        W16984  37.058  35.113   2.681
44670W        W16985  22.107  24.052  12.132
44671W        W16986  20.240  14.418  10.326
44672W        W16987  30.659  20.679  13.875
44673W        W16988  30.952  38.990  13.022
44674W        W16989  39.065  26.311  13.561
44675W        W16990  28.573  15.216  12.535
44676W        W16991  32.662  24.663   3.591
44677W        W16992  19.575   2.754  11.561
44678W        W16993  38.501  44.551   4.198
44679W        W16994  36.846  33.965  14.687
44680W        W16995  41.386  14.956   3.752
44681W        W16996   5.952   6.339  14.941
44682W        W16997  44.444   8.420  10.363
44683W        W16998  30.519   6.882  14.872
44684W        W16999  34.999  26.038  10.726
44685W        W17000  13.714  16.495  13.431
44686W        W17001  22.567   9.284  10.169
44687W        W17002  25.520  20.411   3.072
44688W        W17003   4.292  20.739  14.778
44689W        W17004  16.245  14.215   0.141
44690W        W17005  29.981  24.305   1.783
44691W        W17006   3.767  24.972   0.250
44692W        W17007  39.329   4.211   0.357
44693W        W17008  27.055   7.554   4.326
44694W        W17009  44.730  13.110   5.147
44695W        W17010  27.730  31.348   4.620
44696W        W17011  14.723  35.391  14.932
44697W        W17012  15.015  19.101   4.808
44698W        W17013  31.898  16.788  14.946
44699W        W17014  40.002  30.407  13.414
44700W        W17015   3.493  26.014  10.650
44701W        W17016  36.298  16.488  13.906
44702W        W17017   2.699   8.581  10.884
44703W        W17018  16.276   7.242   1.300
44704W        W17019  37.440  12.670   1.408
44705W        W17020  27.103   1.672  11.056
44706W        W17021  31.144  26.626   3.625
44707W        W17022  12.577   8.291   2.685
44708W        W17023  17.066  24.022  13.276
44709W        W17024  26.735   9.465   3.692
44710W        W17025   6.453  36.310   3.644
44711W        W17026  28.260   4.911  11.226
44712W        W17027  38.593  27.776   1.410
44713W        W17028   9.005  26.153  12.005
44714W        W17029  41.765  28.971   4.124
44715W        W17030  21.062  27.493   1.255
44716W        W17031  38.529   3.259   1.739
44717W        W17032  28.992  12.156   4.084
44718W        W17033  35.789  19.318  11.692
44719W        W17034  25.508  10.532   1.369
44720W        W17035   4.858  26.955   4.179
44721W        W17036   4.760   8.330  14.510
44722W        W17037   6.935  25.842   1.226
44723W        W17038  34.199  11.203  13.520
44724W        W17039  19.805  36.446   1.736
44725W        W17040  20.570  12.242   4.562
44726W        W17041  28.578  18.605  11.884
44727W        W17042  31.538  14.140   0.686
44728W        W17043  30.962  38.293  13.816
44729W        W17044  26.703  28.175  13.526
44730W        W17045  11.364  33.898  12.956
44731W        W17046  44.246  32.207   1.582
44732W        W17047   6.933  25.775  12.579
44733W        W17048  43.167  17.080  12.691
44734W        W17049  43.962   9.590   1.811
44735W        W17050  23.281  25.259   3.267
44736W        W17051  19.447   1.949  12.460
44737W        W17052   6.211  41.236  11.616
44738W        W17053  29.106   1.295   3.547
44739W        W17054  30.835  32.430  13.837
44740W        W17055  44.322  44.281  12.121
44741W        W17056  43.532  22.227  10.705
44742W        W17057   3.849  39.916  13.544
44743W        W17058  11.750  28.902   3.676
44744W        W17059  18.737  26.494  10.158
44745W        W17060  10.679   6.982   3.818
44746W        W17061  25.252  14.639  11.723
44747W        W17062  12.289   5.354  10.719
44748W        W17063  32.118  16.362   2.654
44749W        W17064  10.725  11.647   3.627
44750W        W17065  38.750  11.312   1.519
44751W        W17066   2.283  37.023  14.064
44752W        W17067  20.636  23.024  14.744
44753W        W17068  40.614   0.829   3.663
44754W        W17069  28.976  25.726   3.301
44755W        W17070   6.964  31.600  14.700
44756W        W17071  32.708  32.112  12.105
44757W        W17072  36.252  41.450   1.323
44758W        W17073   1.230   1.435   3.651
44759W        W17074  40.943  33.314  14.013
44760W        W17075  23.293  27.028   0.899
44761W        W17076   4.370  25.164   1.727
44762W        W17077  34.136  23.585  13.488
44763W        W17078   6.541  43.578  11.784
44764W        W17079   2.214  11.278  14.397
44765W        W17080  26.037  21.682  13.344
44766W        W17081  20.127  22.635   3.209
44767W        W17082  16.925  32.296  12.539
44768W        W17083  19.588  24.260   0.899
44769W        W17084  18.363  36.066   4.389
44770W        W17085  24.017  11.781   1.925
44771W        W17086  20.251  23.090  11.857
44772W        W17087  34.528  14.230   3.631
44773W        W17088  14.795  29.548   4.641
44774W        W17089  18.793  37.790  10.713
44775W        W17090  22.832  33.667  11.983
44776W        W17091  24.433  30.959  11.105
44777W        W17092   4.154  18.704   4.474
44778W        W17093  17.133  29.170   4.618
44779W        W17094  18.523  27.804  11.544
44780W        W17095  43.931  44.773   3.554
44781W        W17096  23.153   3.344  14.017
44782W        W17097  31.441  30.628  12.593
44783W        W17098  14.133  28.565  14.901
44784W        W17099  32.116   9.831   4.919
44785W        W17100  44.523   1.338  12.971
44786W        W17101  22.237   5.694  12.628
44787W        W17102  21.401  14.780   4.275
44788W        W17103  40.962  14.655  14.248
44789W        W17104   1.478  13.695  12.721
44790W        W17105  35.445  22.032   3.160
44791W        W17106   1.270  31.023  12.106
44792W        W17107  36.495  26.370  14.496
44793W        W17108  44.831   7.274  14.579
44794W        W17109   0.448  36.578   4.298
44795W        W17110   1.937  15.901  13.124
44796W        W17111  23.996   2.964   2.045
44797W        W17112  23.151   3.637   1.875
44798W        W17113  23.279   1.100   3.989
44799W        W17114  37.595  28.197   2.390
44800W        W17115  33.425  30.130   4.205
44801W        W17116   5.197   5.231  13.407
44802W        W17117  15.513  17.050  13.953
44803W        W17118   8.855  35.545   0.793
44804W        W17119  22.098  11.479  11.206
44805W        W17120   1.606  34.613  10.988
44806W        W17121   8.434  25.211  14.486
44807W        W17122  35.341  37.493  14.356
44808W        W17123  44.477  21.213   3.632
44809W        W17124  22.646  14.770  12.540
44810W        W17125  44.063  21.462   1.671
44811W        W17126   3.707  18.869   3.624
44812W        W17127  32.597   3.328   1.828
44813W        W17128   1.376  35.098  12.404
44814W        W17129  12.996  30.886   3.600
44815W        W17130  21.539  44.000  12.028
44816W        W17131  30.270  13.372  13.060
44817W        W17132   9.728   0.671   2.218
44818W        W17133  15.750  24.734   3.315
44819W        W17134  30.556  13.330   5.019
44820W        W17135   3.284  14.332   0.428
44821W        W17136  42.339  12.703  13.513
44822W        W17137   3.216  29.914  12.902
44823W        W17138  34.631  44.017  12.936
44824W        W17139  11.862  36.256   3.801
44825W        W17140   7.125  35.844  14.285
44826W        W17141  19.858   3.198   3.787
44827W        W17142  15.083  24.733   1.758
44828W        W17143  31.950  17.318   1.453
44829W        W17144  18.204  44.723  13.454
44830W        W17145   1.882  21.976   3.463
44831W        W17146  39.051  44.578  13.151
44832W        W17147  25.982   7.718  12.451
44833W        W17148  18.686  32.120  13.696
44834W        W17149  12.570   6.270  11.285
44835W        W17150  28.606   2.194  12.004
44836W        W17151  16.689  20.707  11.040
44837W        W17152  16.253  29.529   0.607
44838W        W17153  41.572  40.831   2.673
44839W        W17154  28.958  13.671   3.039
44840W        W17155  12.300  14.284   3.131
44841W        W17156   0.171  20.731  11.728
44842W        W17157  40.254  30.288   4.403
44843W        W17158  14.105  33.770   2.318
44844W        W17159  43.013  14.798   0.724
44845W        W17160  28.111  22.173  10.887
44846W        W17161  31.055  17.371  14.879
44847W        W17162  16.359  41.594   4.215
44848W        W17163  42.988  23.256  13.418
44849W        W17164   1.754   5.464  14.551
44850W        W17165  27.689  28.385   4.263
44851W        W17166  34.501   7.402   1.193
44852W        W17167  17.979  33.918   0.655
44853W        W17168  34.937   4.809  10.062
44854W        W17169  44.073  30.897   1.233
44855W        W17170   3.911  37.107   2.810
44856W        W17171  21.655  34.929   0.512
44857W        W17172   0.981  41.056  12.346
44858W        W17173  16.074  29.640   2.662
44859W        W17174  33.294  27.010  14.880
44860W        W17175   0.655  27.648   9.959
44861W        W17176  28.641   4.193   5.169
44862W        W17177  43.071  33.485  11.429
44863W        W17178  17.930  22.055   2.181
44864W        W17179  12.724  33.604   2.399
44865W        W17180  25.818  10.275  10.304
44866W        W17181  15.853   8.134   1.376
44867W        W17182  36.551  17.712   0.073
44868W        W17183  31.431   8.763   2.322
44869W        W17184  42.323  43.554  14.971
44870W        W17185   9.192   1.371   2.030
44871W        W17186  11.659  12.029  12.150
44872W        W17187   6.115  24.339   1.990
44873W        W17188  41.047   9.176  12.044
44874W        W17189   9.139  11.313  13.941
44875W        W17190  44.887  35.394  14.558
44876W        W17191  26.313  16.158  12.144
44877W        W17192  10.698   1.306   0.341
44878W        W17193  12.444   0.059  13.815
44879W        W17194  20.983  24.468  10.326
44880W        W17195  32.578  32.012   3.741
44881W        W17196  19.197   9.941  11.592
44882W        W17197  14.707  27.228   4.648
44883W        W17198  14.587  28.528  14.404
44884W        W17199  15.629   8.613  13.593
44885W        W17200  11.891  31.565  14.340
44886W        W17201  21.648  41.873   4.024
44887W        W17202   9.617  10.749   4.554
44888W        W17203  41.957  42.455   2.337
44889W        W17204  21.861  43.932  10.781
44890W        W17205  39.846  23.673   1.581
44891W        W17206   8.221  27.142  13.970
44892W        W17207  17.235  40.923   1.875
44893W        W17208  41.103  25.422  12.113
44894W        W17209  42.829  22.705  14.316
44895W        W17210  17.105  18.091  13.977
44896W        W17211   8.635   6.350  10.661
44897W        W17212  33.941  15.224   4.676
44898W        W17213   5.465  33.623  13.366
44899W        W17214  38.608  34.638   3.459
44900W        W17215   0.135   8.350  12.141
44901W        W17216  33.502  39.905   3.371
44902W        W17217  38.201  29.575   4.760
44903W        W17218  40.923  19.177   3.101
44904W        W17219   5.164  17.238   4.689
44905W        W17220  11.832  27.463   1.305
44906W        W17221  20.658  41.721  12.556
44907W        W17222  15.551  15.776   5.267
44908W        W17223  40.114  15.636   4.600
44909W        W17224  16.852  43.826   3.896
44910W        W17225  11.598  22.747  11.356
44911W        W17226  44.020  17.061  14.863
44912W        W17227  21.130  16.877   0.771
44913W        W17228  33.956  35.834   3.687
44914W        W17229  11.543  38.066  10.508
44915W        W17230  43.601  39.743   4.876
44916W        W17231  44.296   2.814  13.084
44917W        W17232  17.539  19.055  13.977
44918W        W17233  33.905  29.264  11.673
44919W        W17234  25.364  21.013  11.764
44920W        W17235  29.357  41.435   3.433
44921W        W17236  13.401  40.418  12.524
44922W        W17237  32.354  13.844  14.741
44923W        W17238  20.740   1.492  11.192
44924W        W17239  39.341  36.545  12.550
44925W        W17240  16.790  28.998  10.328
44926W        W17241   1.270  21.612  10.712
44927W        W17242  34.414  34.675  14.994
44928W        W17243  16.189  14.623   0.507
44929W        W17244  30.042  29.903  10.522
44930W        W17245  13.394  36.798   3.511
44931W        W17246  23.792   5.317   2.616
44932W        W17247  23.221  35.203  12.485
44933W        W17248  22.968  20.893   4.428
44934W        W17249  43.465  43.613   1.088
44935W        W17250  15.205  41.065   0.519
44936W        W17251  22.708  31.960   4.027
44937W        W17252   5.688  33.577  12.050
44938W        W17253  32.012  31.481  10.227
44939W        W17254  13.710   5.219   3.734
44940W        W17255   0.961  21.099   2.144
44941W        W17256   7.423  19.713  10.859
44942W        W17257   0.748  43.091   3.798
44943W        W17258   5.466  33.947  12.926
44944W        W17259  35.765  30.968  11.632
44945W        W17260  16.573  25.243  11.164
44946W        W17261  31.492  44.877  14.500
44947W        W17262  26.114  24.506  12.114
44948W        W17263   9.403  15.083   3.425
44949W        W17264  39.627   8.442   3.729
44950W        W17265   5.386  43.369  14.512
44951W        W17266  26.711  17.799   2.210
44952W        W17267   8.492  25.829  11.182
44953W        W17268   3.851  42.164  11.044
44954W        W17269   3.385  42.385  14.246
44955W        W17270   2.230  28.029  13.028
44956W        W17271  15.844  15.832   1.210
44957W        W17272  40.387  23.931  13.884
44958W        W17273  31.048   5.273   1.113
44959W        W17274  41.021   3.330   3.634
44960W        W17275  20.988  20.068   4.661
44961W        W17276   9.963  40.998   1.594
44962W        W17277  41.195  39.901   1.521
44963W        W17278  31.477  37.831   2.967
44964W        W17279  20.026  43.159  11.917
44965W        W17280   2.850   4.794  14.047
44966W        W17281  25.588  24.529  12.027
44967W        W17282  40.549  21.742   1.403
44968W        W17283  16.611  14.429   1.797
44969W        W17284  34.894  15.799   4.948
44970W        W17285   5.005  33.836  12.726
44971W        W17286  30.482  44.020  12.372
44972W        W17287   1.193  22.019  13.818
44973W        W17288  15.289  29.122  12.324
44974W        W17289  18.578   1.711   3.680
44975W        W17290  11.189  14.676   4.658
44976W        W17291   4.785  18.529  11.414
44977W        W17292  14.758   5.500   2.697
44978W        W17293  39.830  35.665   4.165
44979W        W17294  11.073  19.771  10.197
44980W        W17295  16.571  15.332   3.712
44981W        W17296  13.849  15.325   3.886
44982W        W17297  31.124  30.392  11.748
44983W        W17298   0.954  31.803  13.953
44984W        W17299  21.476  15.043  13.392
44985W        W17300   4.751   8.975   4.547
44986W        W17301   4.327  44.034  12.123
44987W        W17302  12.840  11.880  13.520
44988W        W17303  27.048  15.120   4.605
44989W        W17304   0.902  30.074  12.485
44990W        W17305  14.877  35.670  13.567
44991W        W17306  14.096   6.901   3.282
44992W        W17307   7.441  13.919  14.801
44993W        W17308   0.217  10.627   1.916
44994W        W17309  22.505  39.484  11.935
44995W        W17310  35.694  39.800   0.307
44996W        W17311  11.930   3.351  11.515
44997W        W17312  25.054  13.701  14.889
44998W        W17313  27.852   9.938  10.180
44999W        W17314   9.367  39.062  10.670
45000W        W17315   3.633   6.718   0.806
45001W        W17316  13.223  28.234   2.271
45002W        W17317  37.310  34.962   1.255
45003W        W17318  24.722  35.894  12.931
45004W        W17319  18.579   1.365   2.754
45005W        W17320  31.654  43.936  13.920
45006W        W17321  25.218  36.041   1.868
45007W        W17322  42.845  42.309   0.469
45008W        W17323  27.869  33.320   1.824
45009W        W17324  23.920  19.016   3.817
45010W        W17325  12.125  14.872   3.190
45011W        W17326  12.413  24.435   4.531
45012W        W17327  43.241  22.047  13.768
45013W        W17328  36.965   6.113  10.397
45014W        W17329   3.791  32.519  12.742
45015W        W17330   6.159  35.507  14.249
45016W        W17331  35.169  25.141  10.597
45017W        W17332  40.238  23.933  14.834
45018W        W17333  34.863  20.558  13.183
45019W        W17334  20.269  18.736  10.828
45020W        W17335  27.456  11.233  13.777
45021W        W17336   2.637  44.997  12.858
45022W        W17337  12.964  34.504  11.982
45023W        W17338  28.253  37.589   5.074
45024W        W17339  42.434  17.790  10.739
45025W        W17340   6.005  24.578   4.599
45026W        W17341  33.894  19.540  12.499
45027W        W17342   9.659  28.554   2.189
45028W        W17343  34.364   3.467  13.253
45029W        W17344  19.908   8.528   3.771
45030W        W17345  44.959  10.271  14.110
45031W        W17346   0.337  42.347   0.268
45032W        W17347  13.359   3.271  14.893
45033W        W17348  32.374   6.417   1.686
45034W        W17349  27.991  34.128  14.561
45035W        W17350  33.353  26.012  13.586
45036W        W17351  15.272  32.190   1.625
45037W        W17352   5.024   7.201   2.089
45038W        W17353  36.572  40.013  14.365
45039W        W17354   3.869  24.258  10.995
45040W        W17355   6.363  19.484   1.432
45041W        W17356  19.711  18.922   0.525
45042W        W17357  29.241  11.826  10.813
45043W        W17358  12.276  44.329   4.949
45044W        W17359   9.653  40.421   4.546
45045W        W17360  19.687  35.503   4.269
45046W        W17361  18.514   5.086   2.295
45047W        W17362  16.107   1.765   1.775
45048W        W17363  30.149   5.137   0.307
45049W        W17364   0.626   7.751  12.950
45050W        W17365  17.013  38.468  11.166
45051W        W17366  44.858  31.098  11.641
45052W        W17367   4.983  38.870   4.084
45053W        W17368  31.603   0.935  11.980
45054W        W17369   1.951  22.995  10.680
45055W        W17370  39.361  33.292   0.542
45056W        W17371  42.485  17.137  12.926
45057W        W17372   3.733  32.370   1.317
45058W        W17373  44.346  43.295   0.333
45059W        W17374  21.956  28.470   1.001
45060W        W17375  42.602  17.549   1.433
45061W        W17376   2.246  41.422  11.720
45062W        W17377   5.487  33.128  12.622
45063W        W17378  43.718  32.031  12.956
45064W        W17379   3.851  38.111   0.311
45065W        W17380  40.872  13.516   1.760
45066W        W17381  30.852   9.117   1.250
45067W        W17382  39.262  12.358   4.769
45068W        W17383  28.098  18.008  13.868
45069W        W17384  41.002   0.502  12.416
45070W        W17385  28.880  15.705  13.072
45071W        W17386  15.863  34.213   2.632
45072W        W17387  23.492   7.324  11.549
45073W        W17388  43.478   3.969  12.016
45074W        W17389  43.768  26.189   1.859
45075W        W17390  32.117  28.153   1.811
45076W        W17391   8.869   7.230  13.932
45077W        W17392  31.989  22.906   3.621
45078W        W17393  38.005  34.051   3.223
45079W        W17394   9.201   2.776  14.032
45080W        W17395   7.739  17.364   1.801
45081W        W17396   6.088  18.618  13.939
45082W        W17397  10.378  19.217   1.795
45083W        W17398  27.756  41.476  10.411
45084W        W17399  22.207  32.227  14.139
45085W        W17400  17.515  43.196   0.759
45086W        W17401  26.560   5.449  11.635
45087W        W17402  19.107  17.121  14.877
45088W        W17403  35.363  16.273  13.921
45089W        W17404  16.014  15.300  12.347
45090W        W17405  13.414  25.196   1.384
45091W        W17406  12.235  18.786  11.233
45092W        W17407   4.497   7.316  10.424
45093W        W17408   1.005  34.024   2.220
45094W        W17409  37.865  29.998   1.316
45095W        W17410   8.319  37.045  10.600
45096W        W17411  27.406  40.035  14.586
45097W        W17412  12.769  34.436   0.408
45098W        W17413   7.344  17.274   3.694
45099W        W17414  41.344   8.722  14.554
45100W        W17415  32.918  36.451   2.610
45101W        W17416  15.159   4.988   1.795
45102W        W17417  21.695  33.081   0.423
45103W        W17418  36.016  31.478  11.669
45104W        W17419   9.729  24.130  13.637
45105W        W17420  44.720   3.476  10.959
45106W        W17421  37.723  37.331  11.509
45107W        W17422  20.847  26.213   0.469
45108W        W17423  43.121  31.567  11.211
45109W        W17424   6.375  23.158   0.781
45110W        W17425  37.256  34.112  12.769
45111W        W17426  40.965  36.836  10.959
45112W        W17427  34.851   3.416  13.436
45113W        W17428  23.613   3.226   4.653
45114W        W17429  10.219  15.608  14.953
45115W        W17430  35.634  17.231   0.888
45116W        W17431   5.490  14.739  14.463
45117W        W17432   7.352  15.393  14.715
45118W        W17433  15.740  32.483   2.899
45119W        W17434  32.035  17.669   2.252
45120W        W17435  16.494  21.647   1.242
45121W        W17436   4.264  26.443  13.021
45122W        W17437  26.479  16.627   0.249
45123W        W17438   0.797   9.119   4.142
45124W        W17439  40.677   3.170   4.984
45125W        W17440   9.837  44.441   0.213
45126W        W17441  20.147  43.317  12.370
45127W        W17442  29.112  12.640  12.871
45128W        W17443  29.900  13.291  13.893
45129W        W17444  20.811  38.806   3.603
45130W        W17445  21.907  21.522   1.213
45131W        W17446  37.014  20.880  10.672
45132W        W17447  39.395  12.867   4.740
45133W        W17448  39.528   0.735   0.475
45134W        W17449  10.804  35.407   3.328
45135W        W17450  34.748  41.015   3.334
45136W        W17451  13.710  35.390  11.176
45137W        W17452  44.908  38.086   2.424
45138W        W17453  37.188  33.979  13.285
45139W        W17454  44.609  36.306   5.189
45140W        W17455  28.918  10.257   4.943
45141W        W17456  34.805  27.138   4.243
45142W        W17457   3.745   1.375  14.470
45143W        W17458  42.013  25.415   3.832
45144W        W17459  28.548   3.277   1.446
45145W        W17460  25.543  33.389   0.772
45146W        W17461  20.626   4.806   1.684
45147W        W17462  26.891  14.337  13.922
45148W        W17463  34.472  31.857  13.289
45149W        W17464  18.076  24.953  13.086
45150W        W17465  26.976   7.150   2.650
45151W        W17466  15.691   2.607  11.073
45152W        W17467  10.679  31.448   4.698
45153W        W17468  18.603  29.396   1.346
45154W        W17469  24.042  39.482  13.095
45155W        W17470  15.333  44.813   0.414
45156W        W17471  35.385   1.315  13.886
45157W        W17472  29.641  25.173   2.893
45158W        W17473   5.466  36.804   4.142
45159W        W17474  21.986  11.590   1.424
45160W        W17475  33.244   2.751   1.378
45161W        W17476  40.323  22.097  12.005
45162W        W17477  43.000  21.267   0.418
45163W        W17478  13.589  28.541   4.733
45164W        W17479  40.740  42.526   3.266
45165W        W17480  23.151  19.373   0.071
45166W        W17481  18.721  12.764  13.885
45167W        W17482  14.771  31.009  13.018
45168W        W17483  29.853  10.379   5.057
45169W        W17484  10.778  23.582   1.294
45170W        W17485  18.818   9.241  14.055
45171W        W17486  12.527  38.384   3.270
45172W        W17487   8.600   5.667   4.165
45173W        W17488   5.279   7.270   0.657
45174W        W17489  38.451  41.296   3.755
45175W        W17490   0.315  35.243   4.240
45176W        W17491  44.050  15.561  11.561
45177W        W17492  12.840  42.982   0.976
45178W        W17493  13.330  38.534   4.144
45179W        W17494  22.026   6.819   1.844
45180W        W17495  15.050  35.064  11.594
45181W        W17496   8.578  29.933   5.315
45182W        W17497  31.006  41.828  12.373
45183W        W17498  42.307   7.663   2.654
45184W        W17499  31.943  36.373   2.893
45185W        W17500  27.542  14.076  14.692
45186W        W17501   1.232   9.654   0.449
45187W        W17502  33.160  22.621   0.745
45188W        W17503   3.884  20.578  10.989
45189W        W17504  11.702  15.254  13.175
45190W        W17505  13.598  11.692  13.972
45191W        W17506  39.769  10.761   1.950
45192W        W17507  26.695  44.444  11.272
45193W        W17508   0.145  31.365   1.839
45194W        W17509  10.649   5.989   0.011
45195W        W17510  12.561  18.680   1.301
45196W        W17511   5.250  14.432   3.164
45197W        W17512  21.018  27.126  10.713
45198W        W17513  18.718  21.004   4.570
45199W        W17514   4.793  41.768   2.787
45200W        W17515  38.550   0.012  14.583
45201W        W17516  25.135  11.641  11.446
45202W        W17517  29.331  36.674  11.073
45203W        W17518  12.764   6.687  11.021
45204W        W17519  15.598  23.377  11.425
45205W        W17520   9.882  20.683  13.374
45206W        W17521  11.254   6.964  11.113
45207W        W17522  19.557  38.318   1.806
45208W        W17523  35.446   9.430   4.841
45209W        W17524  28.019  25.625   3.366
45210W        W17525  10.803   6.766   3.368
45211W        W17526  14.907  25.243   2.315
45212W        W17527  31.552  23.028  14.023
45213W        W17528   9.502  23.431  13.865
45214W        W17529  29.425  21.161   4.193
45215W        W17530  16.166   4.416  12.147
45216W        W17531  27.538  16.146   3.753
45217W        W17532  16.097   9.452   1.803
45218W        W17533  12.872  39.322   1.308
45219W        W17534  12.468  30.705  12.924
45220W        W17535  18.726  30.888   4.184
45221W        W17536   3.348  37.313   3.761
45222W        W17537   4.797  31.923   2.658
45223W        W17538  22.258  13.647  10.795
45224W        W17539   5.453  21.257   1.262
45225W        W17540   6.224   6.899   2.938
45226W        W17541   6.735  14.712  11.646
45227W        W17542  19.751  24.736   0.805
45228W        W17543  36.898  13.089  10.758
45229W        W17544  26.239  39.524   0.952
45230W        W17545  20.721  39.322   4.148
45231W        W17546  32.081  43.870   2.287
45232W        W17547  39.512   3.342   3.681
45233W        W17548  38.328  12.883  12.466
45234W        W17549  41.393  12.800  13.547
45235W        W17550   4.055  38.838  12.555
45236W        W17551  23.260  25.773  13.895
45237W        W17552  17.220  25.608  12.334
45238W        W17553  10.292  25.627   1.235
45239W        W17554  28.165   1.168   4.561
45240W        W17555   3.310  39.534   3.316
45241W        W17556   3.261   5.483  11.058
45242W        W17557  42.625  37.576  10.998
45243W        W17558  14.065   9.402   4.229
45244W        W17559  20.145  34.019   1.262
45245W        W17560  40.530   9.175  12.246
45246W        W17561   0.871  11.879   3.813
45247W        W17562   7.112  29.541   2.602
45248W        W17563  14.775  26.444   0.534
45249W        W17564  36.541   6.211  11.199
45250W        W17565   8.330  41.766  13.372
45251W        W17566  44.066  11.837   4.102
45252W        W17567  13.811   6.452   0.826
45253W        W17568  41.868  12.426  13.564
45254W        W17569  23.701  37.699  14.476
45255W        W17570  43.599  41.535  10.833
45256W        W17571  29.571   5.621   3.998
45257W        W17572  18.622  19.254  12.234
45258W        W17573  12.307  16.313   1.380
45259W        W17574  26.708  28.937   0.862
45260W        W17575  15.132  15.315  10.882
45261W        W17576   5.825  22.003  12.233
45262W        W17577  27.655  16.053   0.009
45263W        W17578  19.711   2.654  12.932
45264W        W17579  23.419   5.398  14.772
45265W        W17580   8.170  17.818  14.404
45266W        W17581   1.260  37.832   1.300
45267W        W17582  29.164  34.937  11.594
45268W        W17583  26.330  32.580  10.438
45269W        W17584  30.772  28.018  11.226
45270W        W17585  44.332  16.241   1.255
45271W        W17586  41.333   0.179   4.596
45272W        W17587  42.908  25.694  12.627
45273W        W17588  36.786  26.436  11.879
45274W        W17589  24.080  18.975  11.967
45275W        W17590  13.607  15.262  10.445
45276W        W17591  23.992  28.358   2.382
45277W        W17592  29.375  27.583   1.303
45278W        W17593  13.688  12.534   1.948
45279W        W17594  17.297  29.986  13.840
45280W        W17595   6.258  37.075  14.932
45281W        W17596  10.781  43.591   0.271
45282W        W17597  35.197  20.010   4.004
45283W        W17598  37.487  42.424   2.256
45284W        W17599  42.588   9.907  14.365
45285W        W17600  28.940  29.495  10.921
45286W        W17601  36.369  41.363  13.024
45287W        W17602  20.578   7.859   4.649
45288W        W17603   9.232  39.448  14.498
45289W        W17604  40.570   4.135  14.892
45290W        W17605   6.562  36.094  13.500
45291W        W17606  26.253  35.634  12.215
45292W        W17607   8.527   5.680   1.331
45293W        W17608  23.768  13.096  10.652
45294W        W17609  42.990  20.145   4.087
45295W        W17610  18.827   4.991  11.923
45296W        W17611  17.667  15.614   2.041
45297W        W17612  41.403   5.783  10.651
45298W        W17613  16.735  27.062  12.814
45299W        W17614  29.674  34.493   0.207
45300W        W17615   3.805  22.324   0.056
45301W        W17616  26.760   3.453   1.385
45302W        W17617  14.709  42.253   3.938
45303W        W17618  17.012  16.695   3.920
45304W        W17619  26.220  18.972   4.591
45305W        W17620  37.531  16.794   3.719
45306W        W17621  30.527  25.275  12.514
45307W        W17622  12.431   7.080  10.883
45308W        W17623  25.964  11.536   3.663
45309W        W17624   4.300  14.638  13.525
45310W        W17625  10.738  13.576   1.343
45311W        W17626   6.475  38.511  12.105
45312W        W17627  14.603  40.434   3.873
45313W        W17628  31.188  21.041   1.990
45314W        W17629  30.629  39.907  13.054
45315W        W17630  21.728  39.330   3.139
45316W        W17631  39.929   9.744  13.993
45317W        W17632  10.715  16.222   5.028
45318W        W17633   4.466   7.663   4.786
45319W        W17634   5.550  20.335   0.270
45320W        W17635  30.236  35.536  14.109
45321W        W17636  20.564  11.245   2.695
45322W        W17637  25.990  23.431   1.547
45323W        W17638  28.519  13.887  12.873
45324W        W17639  33.393  35.597  14.837
45325W        W17640  37.992   1.775   3.672
45326W        W17641   6.767  36.878  14.880
45327W        W17642   2.704  12.277   1.967
45328W        W17643   4.442   3.928  14.971
45329W        W17644   9.814  10.345   4.074
45330W        W17645  41.552  24.489  11.923
45331W        W17646  36.913   1.994   1.795
45332W        W17647  26.624  21.399   1.676
45333W        W17648  19.831   1.395   0.354
45334W        W17649  21.806  41.103  10.822
45335W        W17650  24.565  29.169   2.292
45336W        W17651  29.709  19.338   3.095
45337W        W17652   1.784  35.480  13.933
45338W        W17653   7.959  32.033   4.582
45339W        W17654  41.604  20.670  13.523
45340W        W17655  36.808  11.090   3.788
45341W        W17656  40.319   6.961  12.717
45342W        W17657  40.739  39.439  10.712
45343W        W17658  39.509  25.715  14.279
45344W        W17659   2.017  26.515   0.305
45345W        W17660  18.220  21.238   1.687
45346W        W17661   5.727  24.898  14.851
45347W        W17662   9.895  23.003   2.878
45348W        W17663  11.539  33.048  11.735
45349W        W17664  32.400  24.033  10.927
45350W        W17665  11.638  17.780   5.126
45351W        W17666  37.373   5.142   4.198
45352W        W17667   2.767  28.370  13.481
45353W        W17668  19.205  23.300   2.702
45354W        W17669   7.673  29.910  13.277
45355W        W17670  27.703  38.958  11.853
45356W        W17671   2.522  11.252  13.016
45357W        W17672  42.048  29.234   1.695
45358W        W17673  34.566  13.323   2.760
45359W        W17674  10.143  16.331   1.301
45360W        W17675  35.578  29.421  10.965
45361W        W17676  34.933  43.952   0.023
45362W        W17677  19.423  13.067   0.554
45363W        W17678  11.362  31.856   4.559
45364W        W17679  17.111  41.162   1.432
45365W        W17680  41.031  41.247  11.150
45366W        W17681   2.204  29.616  13.418
45367W        W17682   3.209  37.921   3.922
45368W        W17683   1.865  24.510  13.370
45369W        W17684  16.505  41.217  10.784
45370W        W17685  26.973  23.771  12.487
45371W        W17686  17.297  41.346  12.570
45372W        W17687  26.713  35.861   3.711
45373W        W17688  19.750  12.064  14.553
45374W        W17689  21.521  15.787  13.442
45375W        W17690  36.637  34.678   0.931
45376W        W17691  20.839   6.619  10.993
45377W        W17692  19.614  30.514  13.121
45378W        W17693  32.041  32.152  13.428
45379W        W17694  37.452  38.445   4.204
45380W        W17695   5.841  11.142  13.769
45381W        W17696  21.974  27.508  11.671
45382W        W17697  33.854  21.876  12.813
45383W        W17698   3.567  28.405  11.939
45384W        W17699  33.876  37.937   4.111
45385W        W17700  24.377  16.078  13.442
45386W        W17701  17.253  38.419   0.694
45387W        W17702   8.117  35.597   4.550
45388W        W17703  12.648  40.428   0.399
45389W        W17704  24.495  24.821  12.172
45390W        W17705  42.520  16.801  14.848
45391W        W17706  10.710  14.873  14.588
45392W        W17707  20.471  23.008  14.239
45393W        W17708  13.296   7.317  14.517
45394W        W17709  27.481  35.274  14.012
45395W        W17710  15.760  24.060   1.930
45396W        W17711  38.857  25.576  12.238
45397W        W17712  29.118  21.790   3.103
45398W        W17713  41.831  41.358  14.596
45399W        W17714   7.308  23.828   5.032
45400W        W17715  40.473  12.368   2.346
45401W        W17716  17.730  15.869   3.224
45402W        W17717   4.656  16.100   2.548
45403W        W17718  29.589   8.297   4.687
45404W        W17719   1.232  25.996  14.287
45405W        W17720  20.185   6.135  12.001
45406W        W17721  20.138   2.245  14.496
45407W        W17722  13.623   4.261  14.741
45408W        W17723  35.413   5.302   3.237
45409W        W17724  20.478  29.956  14.415
45410W        W17725   0.931  13.315  12.830
45411W        W17726  34.378  23.005   3.815
45412W        W17727   4.717  28.421   4.490
45413W        W17728  31.539  34.779  10.494
45414W        W17729   3.369  43.457   1.792
45415W        W17730  40.217  20.588   1.853
45416W        W17731  39.531   7.441   1.891
45417W        W17732  29.323   0.570   4.307
45418W        W17733   6.334  28.504  12.841
45419W        W17734  20.317  18.166  13.596
45420W        W17735  16.565  32.865   3.823
45421W        W17736  28.118  21.383   4.563
45422W        W17737  44.870  43.836   1.015
45423W        W17738   5.195   8.194   3.291
45424W        W17739   8.696   8.710  13.546
45425W        W17740  13.911  29.391  14.990
45426W        W17741  16.195   5.420  10.692
45427W        W17742   9.866   4.636   4.092
45428W        W17743  29.008  35.121  11.142
45429W        W17744  11.764  19.040  10.996
45430W        W17745  33.511  23.286  13.867
45431W        W17746  12.259  18.486   5.047
45432W        W17747  20.084  10.273  14.083
45433W        W17748  36.466  17.440  13.903
45434W        W17749  36.521  37.956   4.098
45435W        W17750   9.885  25.708   3.060
45436W        W17751   3.752   4.446   2.698
45437W        W17752   7.777  38.549   2.156
45438W        W17753  22.240   9.310  13.424
45439W        W17754  40.545  17.442   4.111
45440W        W17755  12.194  34.671   3.771
45441W        W17756  32.437   2.320  12.022
45442W        W17757  18.328  33.105   3.264
45443W        W17758  43.752  17.548  11.604
45444W        W17759  38.968  36.600   2.497
45445W        W17760   8.732  35.881  10.896
45446W        W17761  18.768  43.608   2.839
45447W        W17762  12.695  37.158  14.836
45448W        W17763  36.606  12.620  13.467
45449W        W17764  37.826  14.689  13.440
45450W        W17765  20.047  40.808   9.968
45451W        W17766  12.268   8.179  11.916
45452W        W17767  27.746   5.767  13.574
45453W        W17768  40.815  38.363  11.640
45454W        W17769  33.917  33.058  11.163
45455W        W17770   9.672  37.438   1.733
45456W        W17771   3.459  24.685   3.283
45457W        W17772  19.651  39.876   3.645
45458W        W17773  21.008   7.887   2.713
45459W        W17774  16.238   5.627  14.414
45460W        W17775  30.711  36.073   2.040
45461W        W17776  32.449  16.331  13.874
45462W        W17777  15.308   1.067   3.793
45463W        W17778  39.249   4.181  12.902
45464W        W17779   0.594  19.917  11.516
45465W        W17780   8.797  15.390  12.959
45466W        W17781  17.548  40.055  12.549
45467W        W17782  28.058  12.129  12.349
45468W        W17783  32.413  18.693  13.801
45469W        W17784  15.601  12.661   3.644
45470W        W17785   4.342  15.898   4.133
45471W        W17786  10.835  39.271  12.232
45472W        W17787  29.253  42.191  10.887
45473W        W17788  41.254  18.668  12.436
45474W        W17789  24.147   4.209   1.769
45475W        W17790  25.188  24.213  13.105
45476W        W17791  34.909   0.708   2.605
45477W        W17792  36.770  35.652   1.805
45478W        W17793  10.265  28.897   0.331
45479W        W17794  41.808  34.722  14.226
45480W        W17795   0.940  25.237   4.084
45481W        W17796   7.712   3.389   2.586
45482W        W17797   0.956  34.889   0.257
45483W        W17798   2.993  31.365   1.803
45484W        W17799  26.418  32.080   5.138
45485W        W17800  31.033   5.283  11.585
45486W        W17801  41.805  40.694  12.993
45487W        W17802   4.505  36.638  14.446
45488W        W17803  30.648  36.597   3.220
45489W        W17804  40.371  24.003  11.109
45490W        W17805  14.632  28.007   3.324
45491W        W17806  35.662  40.376  12.742
45492W        W17807  24.261  17.042  12.852
45493W        W17808  31.909  12.370   2.636
45494W        W17809  10.881  44.901   4.289
45495W        W17810  25.129  36.966   4.353
45496W        W17811   9.268  13.997   3.328
45497W        W17812  34.492   1.734   0.938
45498W        W17813   3.756  10.792   3.812
45499W        W17814  24.974  25.921   3.834
45500W        W17815  41.099  27.119  12.318
45501W        W17816   8.617  37.468  14.790
45502W        W17817  15.845  38.949  11.742
45503W        W17818   6.558  18.171  10.232
45504W        W17819  25.125   3.309  10.566
45505W        W17820  11.746  33.383   5.076
45506W        W17821  19.201   5.401   3.249
45507W        W17822  40.177  26.059  10.017
45508W        W17823  37.278  12.872  12.442
45509W        W17824  13.545   5.295  13.411
45510W        W17825  33.870  27.021   3.140
45511W        W17826  31.058   0.785   0.829
45512W        W17827  32.664   0.955   3.801
45513W        W17828  35.958  11.174  11.001
45514W        W17829  19.546  36.868  11.538
45515W        W17830  37.724  35.374  12.544
45516W        W17831  33.903  40.032  13.463
45517W        W17832  10.218   2.365   3.250
45518W        W17833  37.211  20.742   2.148
45519W        W17834  19.593  37.107   4.455
45520W        W17835  36.450  12.818  12.074
45521W        W17836  22.058  16.674  11.564
45522W        W17837  10.631  23.627  14.437
45523W        W17838  14.086  10.075  10.509
45524W        W17839  19.025   6.369  12.010
45525W        W17840  10.455  34.060  13.434
45526W        W17841  40.500  26.851   3.181
45527W        W17842  14.136  34.328   1.457
45528W        W17843  15.677   6.303  14.238
45529W        W17844  11.244  25.590  11.568
45530W        W17845  34.835  30.142   0.448
45531W        W17846  17.791  17.279   4.187
45532W        W17847  23.544  39.652  13.314
45533W        W17848  28.063  27.664   0.904
45534W        W17849  15.980  32.963  11.555
45535W        W17850  36.992   8.396   1.895
45536W        W17851  22.786  38.902  14.046
45537W        W17852  34.542  39.828  11.356
45538W        W17853  36.012  42.760   2.187
45539W        W17854  16.897  28.173  12.161
45540W        W17855   4.974  23.750  13.515
45541W        W17856  29.128  12.335  14.954
45542W        W17857   2.583  14.733  12.876
45543W        W17858  10.157  32.460  11.208
45544W        W17859  20.151  12.046   2.183
45545W        W17860  41.957   0.808   4.190
45546W        W17861  19.721  37.269   3.575
45547W        W17862  12.820  29.125  11.604
45548W        W17863  37.843   0.671  12.134
45549W        W17864  28.069   9.309  13.040
45550W        W17865   2.529   6.344   0.884
45551W        W17866  16.889   9.337   1.562
45552W        W17867  17.792  37.289   3.126
45553W        W17868  24.351  28.127   0.864
45554W        W17869  34.618  12.746   0.703
45555W        W17870  32.570  10.567   0.997
45556W        W17871  24.115   5.010   0.508
45557W        W17872   2.725  35.862  12.410
45558W        W17873   0.276  21.711   0.387
45559W        W17874  44.421  11.581  14.205
45560W        W17875  34.665   7.210   0.721
45561W        W17876   5.845  17.714  14.939
45562W        W17877  17.031  19.240  11.872
45563W        W17878  33.933   6.189   4.050
45564W        W17879   2.659   1.135   3.529
45565W        W17880  32.559  44.273  10.609
45566W        W17881   2.217  14.855  14.765
45567W        W17882   9.367  31.653   1.828
45568W        W17883  43.513  22.957  12.328
45569W        W17884  32.433  42.055   1.845
45570W        W17885  19.357  20.102  13.880
45571W        W17886  40.265   9.234   4.814
45572W        W17887  39.149   3.724   3.681
45573W        W17888  24.242  36.392   2.426
45574W        W17889   9.783   4.355   4.530
45575W        W17890  36.353   5.237  10.592
45576W        W17891   2.534  11.359  12.084
45577W        W17892  22.715  42.411   4.404
45578W        W17893  17.609  31.593  13.497
45579W        W17894  38.573  12.250  13.673
45580W        W17895  34.595   6.963  13.634
45581W        W17896   3.423  21.681   3.276
45582W        W17897   0.446  36.061  14.535
45583W        W17898  11.896  20.127  13.772
45584W        W17899  22.908  36.279   3.460
45585W        W17900  23.610   9.104   2.864
45586W        W17901  29.711  32.266   4.486
45587W        W17902  28.177  18.617  12.776
45588W        W17903  19.307  34.895  13.967
45589W        W17904  39.721  38.763   2.817
45590W        W17905  31.723  30.666  10.660
45591W        W17906   9.371  23.356   1.199
45592W        W17907  25.196  27.574   4.568
45593W        W17908   8.051   9.755  10.664
45594W        W17909  21.227  40.328  10.658
45595W        W17910  12.615   4.303   2.095
45596W        W17911  42.263  32.841   3.270
45597W        W17912  33.735  10.920  14.388
45598W        W17913  37.181  25.813  13.563
45599W        W17914  30.333  39.875  12.077
45600W        W17915  41.940   9.462   2.625
45601W        W17916  42.941  36.041   2.102
45602W        W17917  10.757  22.144  10.558
45603W        W17918  21.174   2.843   4.874
45604W        W17919  11.494  27.848  13.252
45605W        W17920  15.711  24.638  14.074
45606W        W17921  37.858  25.243  13.075
45607W        W17922   2.768  27.509   2.485
45608W        W17923  35.646  25.896   2.231
45609W        W17924   2.917  11.202   1.229
45610W        W17925  16.350  40.015   3.659
45611W        W17926  33.000  23.225  14.339
45612W        W17927   4.625  14.177   1.548
45613W        W17928  31.177  34.463   4.536
45614W        W17929   7.876  35.043   2.757
45615W        W17930  43.742  12.263   5.021
45616W        W17931  26.205  39.964   0.317
45617W        W17932  22.217   7.562   2.383
45618W        W17933  43.016  26.561   4.124
45619W        W17934  39.236   8.414  13.916
45620W        W17935   6.271  25.020   3.689
45621W        W17936  29.754   0.715   3.192
45622W        W17937  41.576   2.968  11.007
45623W        W17938  12.241  44.703   4.521
45624W        W17939   0.844   4.483  14.582
45625W        W17940   9.365  36.815  12.835
45626W        W17941   3.417   1.196  14.853
45627W        W17942  31.225  31.512  13.976
45628W        W17943  30.229  28.500  14.998
45629W        W17944  33.160  14.179  11.040
45630W        W17945  34.111   6.313  14.269
45631W        W17946   4.419  17.828  14.858
45632W        W17947  18.725  20.079  11.615
45633W        W17948  35.912  34.037  11.427
45634W        W17949  20.126  19.566  11.919
45635W        W17950  39.335   2.856   4.576
45636W        W17951   4.678   7.178  12.929
45637W        W17952  37.949  27.241   1.672
45638W        W17953   4.902  36.965  14.369
45639W        W17954  12.197   8.863  14.920
45640W        W17955   4.434   9.247   1.791
45641W        W17956  12.187   4.960  11.650
45642W        W17957  37.476  20.540   1.726
45643W        W17958  40.117   5.159  13.751
45644W        W17959   5.372  30.204  10.657
45645W        W17960  43.897  22.640  12.246
45646W        W17961   8.283   9.743  12.525
45647W        W17962  37.525  35.837   4.156
45648W        W17963  15.880  43.626  14.771
45649W        W17964  11.331  20.739   4.144
45650W        W17965  42.581  21.482   2.298
45651W        W17966   2.865  25.957   4.232
45652W        W17967   3.870   4.550   0.802
45653W        W17968  32.391   6.448   4.616
45654W        W17969   5.789   3.294  14.252
45655W        W17970   2.911  12.577   1.607
45656W        W17971  32.427  13.306  12.425
45657W        W17972  43.172   8.187   3.151
45658W        W17973  29.237  18.195   2.806
45659W        W17974  31.015  37.154  11.857
45660W        W17975  33.115  13.838   4.377
45661W        W17976  18.130   9.839  14.991
45662W        W17977  34.368  21.011  12.574
45663W        W17978  19.554  40.361  14.092
45664W        W17979  42.020  41.061   4.580
45665W        W17980   1.967   8.740  14.174
45666W        W17981  36.509   3.446  13.929
45667W        W17982  39.873  34.514  11.852
45668W        W17983  44.439  17.878  10.597
45669W        W17984   4.361  29.976  14.832
45670W        W17985  26.301  36.845  13.497
45671W        W17986  13.886  37.411  13.250
45672W        W17987  11.837  16.193   3.360
45673W        W17988  18.556   5.459  14.249
45674W        W17989  39.299  25.548   1.023
45675W        W17990   3.109   2.351  14.464
45676W        W17991   2.011  37.345   2.762
45677W        W17992   6.241  32.291   3.188
45678W        W17993  19.207   7.591   5.679
45679W        W17994  31.096  18.097   2.067
45680W        W17995  13.799   8.375   1.430
45681W        W17996  25.419  13.741  13.916
45682W        W17997  44.264   6.650  14.894
45683W        W17998  39.606   6.947   1.747
45684W        W17999  41.593  21.889   1.293
45685W        W18000  26.757  13.105   0.194
45686W        W18001  42.859  23.406  10.714
45687W        W18002   5.396  14.682   4.415
45688W        W18003  16.253  27.683   2.460
45689W        W18004  41.712  38.382  13.340
45690W        W18005  11.337  12.688   3.419
45691W        W18006  35.429  42.137  11.080
45692W        W18007   3.898  29.114  13.861
45693W        W18008  32.071  34.442  13.943
45694W        W18009  37.934   9.745   2.231
45695W        W18010  16.820  31.108   9.785
45696W        W18011   3.754  35.432   1.424
45697W        W18012  36.030  31.376   4.063
45698W        W18013  14.759  21.399  14.103
45699W        W18014  25.614  34.198   1.507
45700W        W18015  25.389  26.895   2.422
45701W        W18016   1.313  11.428  14.597
45702W        W18017  29.517  11.813   0.193
45703W        W18018   1.480  11.660  10.462
45704W        W18019  28.377  36.140   1.468
45705W        W18020  39.839  18.702  13.346
45706W        W18021  15.966   4.656   4.801
45707W        W18022  40.461   9.378   3.981
45708W        W18023  42.738  33.096  11.547
45709W        W18024  31.525  17.792   3.177
45710W        W18025  11.350  17.286   2.248
45711W        W18026  15.048  15.775  14.958
45712W        W18027   5.092  34.520  11.068
45713W        W18028  14.329  16.130   4.755
45714W        W18029  10.837   4.351  12.994
45715W        W18030  11.897  25.706  14.892
45716W        W18031  23.981  44.230   2.477
45717W        W18032  25.341  19.236  12.505
45718W        W18033   6.429  25.610  11.278
45719W        W18034   1.001  23.578   0.324
45720W        W18035  29.953  15.633   4.476
45721W        W18036  26.638  34.257  14.824
45722W        W18037  23.196  34.432   1.238
45723W        W18038  44.312  36.777  10.668
45724W        W18039  11.075  23.548  13.386
45725W        W18040  41.957  12.695  13.127
45726W        W18041  41.059   9.787   1.399
45727W        W18042  40.016   1.024  14.088
45728W        W18043  18.046  37.847  11.583
45729W        W18044  19.626  22.734  14.327
45730W        W18045  23.479  34.561  11.556
45731W        W18046  19.556   9.803  11.072
45732W        W18047   9.167   5.290  13.807
45733W        W18048   9.249  36.703   3.523
45734W        W18049  15.349  16.698  10.617
45735W        W18050  44.235  42.419  10.785
45736W        W18051  26.554  41.294   3.653
45737W        W18052  29.918  35.969   1.432
45738W        W18053  31.554  18.792  12.395
45739W        W18054  23.238  44.342   4.901
45740W        W18055  12.680  38.793  11.994
45741W        W18056   3.415  31.457   2.881
45742W        W18057  23.813  29.836  10.884
45743W        W18058   6.789  20.449  12.356
45744W        W18059   3.694  39.663   1.568
45745W        W18060   9.233  37.304  12.914
45746W        W18061  33.054  33.425  12.566
45747W        W18062  30.497  40.176   0.301
45748W        W18063  33.336  35.798  12.950
45749W        W18064  23.711   7.224   4.505
45750W        W18065  44.315  34.749   2.705
45751W        W18066  31.604  19.616   2.723
45752W        W18067   8.660  11.106  13.018
45753W        W18068  28.123  30.233  14.803
45754W        W18069  27.341  33.855  13.901
45755W        W18070  12.068  30.047   3.108
45756W        W18071   8.910   5.429   3.210
45757W        W18072  38.974  26.930  11.620
45758W        W18073  24.135   4.336   4.094
45759W        W18074  11.152  35.840   2.866
45760W        W18075  37.159   5.872  13.623
45761W        W18076   2.854  38.977  13.432
45762W        W18077  20.656   6.902   1.293
45763W        W18078  37.844   4.451   1.749
45764W        W18079  11.833  30.695   1.948
45765W        W18080  26.684  26.907   0.781
45766W        W18081  34.579  36.583  11.991
45767W        W18082  11.870   6.310   3.344
45768W        W18083  18.389   6.433  14.502
45769W        W18084   3.652   7.921  13.449
45770W        W18085  42.792   6.374   0.040
45771W        W18086   3.770  30.620  12.074
45772W        W18087  18.240  16.769  13.983
45773W        W18088  29.197  10.201  11.954
45774W        W18089  13.194  24.131  10.973
45775W        W18090  19.739  21.128  11.183
45776W        W18091   6.754  37.870  12.074
45777W        W18092   8.815  43.937   4.556
45778W        W18093  20.184  28.927  11.716
45779W        W18094  33.414   5.242  14.040
45780W        W18095  17.553  37.547  12.541
45781W        W18096   5.912  16.966   0.377
45782W        W18097  28.067   1.445  11.447
45783W        W18098  26.740  28.631  13.755
45784W        W18099  16.763  10.285   3.290
45785W        W18100  37.938   3.774   2.402
45786W        W18101   5.583  15.175   1.764
45787W        W18102  36.111  10.543  12.105
45788W        W18103  30.887  42.357  12.403
45789W        W18104  31.349  37.835  12.358
45790W        W18105  34.864  30.091   4.180
45791W        W18106  14.648   5.693   4.029
45792W        W18107   3.306  12.397   3.291
45793W        W18108  12.861  23.179  12.037
45794W        W18109   3.266  11.522  11.657
45795W        W18110  35.086  20.800   4.686
45796W        W18111  12.316   0.816   2.693
45797W        W18112   0.297   2.547  14.525
45798W        W18113   4.531   6.660  13.073
45799W        W18114  36.873   9.114   1.285
45800W        W18115  31.777  27.613  10.728
45801W        W18116   0.708  12.756  14.908
45802W        W18117   4.522  40.350   0.905
45803W        W18118  34.974  29.012   3.134
45804W        W18119  27.680  13.238   2.103
45805W        W18120  34.282  29.993  13.554
45806W        W18121   0.890  26.446   4.840
45807W        W18122   3.825  39.019   0.059
45808W        W18123  37.484  31.081   5.016
45809W        W18124   6.585  41.905   3.269
45810W        W18125  38.420  18.266  11.689
45811W        W18126   1.816  10.073   4.617
45812W        W18127  36.143  22.989  11.206
45813W        W18128  14.573  42.731  11.062
45814W        W18129  33.990  19.481   4.543
45815W        W18130  19.646   3.878  12.546
45816W        W18131   3.896  12.103  12.984
45817W        W18132  13.182  16.736   3.304
45818W        W18133  24.311  18.608   2.944
45819W        W18134   1.284  36.405  11.033
45820W        W18135  25.268  40.572  13.382
45821W        W18136   2.258  31.244   0.429
45822W        W18137  38.809  39.486   1.829
45823W        W18138   6.819  19.598  13.428
45824W        W18139  34.501   9.010   4.867
45825W        W18140   0.229  33.951  12.487
45826W        W18141   0.343  38.113  11.077
45827W        W18142  34.377  11.912   0.326
45828W        W18143  17.130  13.262   3.237
45829W        W18144  18.857  33.781  11.173
45830W        W18145   0.728  36.928  12.404
45831W        W18146  25.996  30.811  11.380
45832W        W18147   9.738   5.422   4.511
45833W        W18148  23.926  41.989   3.206
45834W        W18149  17.658   0.759   2.864
45835W        W18150  26.450  36.465   0.727
45836W        W18151   7.920  16.037  11.366
45837W        W18152  40.868   7.962  12.522
45838W        W18153  28.364  26.985   3.646
45839W        W18154   5.493   2.941   1.819
45840W        W18155  14.775   9.886   2.235
45841W        W18156  27.192  38.309  11.070
45842W        W18157  27.144  11.865  14.810
45843W        W18158   9.749  17.183   2.271
45844W        W18159  17.632  21.542  10.541
45845W        W18160  28.908  11.827  13.004
45846W        W18161  44.003  43.474   3.649
45847W        W18162   3.526  34.396   0.431
45848W        W18163  27.626  32.946   4.795
45849W        W18164  18.047  34.661   4.217
45850W        W18165   5.744  28.223   0.376
45851W        W18166  33.077  24.064   4.076
45852W        W18167   5.004   8.183   1.793
45853W        W18168  36.482  14.650  10.943
45854W        W18169  15.597  42.761  14.485
45855W        W18170   3.019   7.392  13.814
45856W        W18171  44.317   0.473   2.751
45857W        W18172  41.848  22.278   0.364
45858W        W18173  11.709  15.625   2.325
45859W        W18174  24.170  40.819   1.373
45860W        W18175  30.133   4.341  14.544
45861W        W18176  44.524   3.739  12.389
45862W        W18177  39.876  18.820  13.858
45863W        W18178  10.297  26.024  11.507
45864W        W18179  41.984   9.018   5.079
45865W        W18180  29.566  11.908  11.510
45866W        W18181  30.443   1.365   0.396
45867W        W18182   2.789  16.773  10.736
45868W        W18183  23.607  24.186   3.749
45869W        W18184  25.288  23.008   1.792
45870W        W18185  33.650   0.480  12.455
45871W        W18186  12.256  13.819   3.400
45872W        W18187  39.043  18.111   4.923
45873W        W18188  19.579   5.878   2.074
45874W        W18189  37.081  15.650   0.762
45875W        W18190  40.843  30.477  13.048
45876W        W18191  29.730  25.927  10.579
45877W        W18192  10.010  15.788   2.748
45878W        W18193   6.971   7.807  10.683
45879W        W18194  22.546  18.731  10.362
45880W        W18195   7.765   2.841   3.740
45881W        W18196  25.500  43.077   4.366
45882W        W18197  18.850  32.106   4.638
45883W        W18198  32.423  38.448  14.042
45884W        W18199   2.535  11.075   4.565
45885W        W18200  19.873  40.789  11.209
45886W        W18201  18.655  41.365  12.783
45887W        W18202  34.041   1.792  14.802
45888W        W18203  13.146  32.564  13.769
45889W        W18204  16.977   6.355  11.078
45890W        W18205   1.496   4.954  13.014
45891W        W18206   5.137  15.625  11.521
45892W        W18207  35.410  37.384   1.819
45893W        W18208   5.972  44.763  14.795
45894W        W18209   3.615  30.479  13.921
45895W        W18210  20.337  41.707   0.692
45896W        W18211  16.327  19.162  14.379
45897W        W18212  20.892  38.858  11.079
45898W        W18213  37.262   5.022   3.700
45899W        W18214  23.546  34.576  13.836
45900W        W18215  21.688  10.446  11.961
45901W        W18216  25.959   6.210   3.665
45902W        W18217   9.389  23.219  13.382
45903W        W18218   8.736  17.266   3.274
45904W        W18219   5.019  36.402   3.562
45905W        W18220  44.708  30.833   4.533
45906W        W18221  11.222   2.004  10.990
45907W        W18222  27.649   7.512   3.196
45908W        W18223   5.422  18.871   1.192
45909W        W18224  42.537  12.173  14.045
45910W        W18225   4.377  32.082   3.667
45911W        W18226  10.070  16.850   1.409
45912W        W18227  11.640  26.257  10.615
45913W        W18228  30.394  19.061   3.755
45914W        W18229  43.902  28.046   2.748
45915W        W18230  37.519   5.178  11.011
45916W        W18231  34.096  43.984   0.405
45917W        W18232  19.192  32.034  13.942
45918W        W18233  22.180  30.095   2.346
45919W        W18234  20.180   9.660   0.244
45920W        W18235   8.762  17.145  10.289
45921W        W18236   8.274  30.245   4.425
45922W        W18237  10.678  22.470   1.800
45923W        W18238  21.763   7.444   1.431
45924W        W18239  31.438  29.707  12.456
45925W        W18240  36.696  37.401   2.691
45926W        W18241  12.350  13.907   0.750
45927W        W18242  23.192  14.776   3.766
45928W        W18243  28.172  24.661   0.399
45929W        W18244   9.591  39.807  13.885
45930W        W18245  17.546   9.688   1.360
45931W        W18246  17.550  14.085  13.888
45932W        W18247  44.517  29.553   4.093
45933W        W18248  38.952  36.090   0.752
45934W        W18249  25.285   5.195  12.083
45935W        W18250  38.160  26.139   2.192
45936W        W18251  14.284  20.056  12.309
45937W        W18252  19.097  26.709  11.138
45938W        W18253  15.703  37.959  14.870
45939W        W18254   6.736  34.251   4.206
45940W        W18255  13.051   9.291  14.016
45941W        W18256   0.228  23.737   4.325
45942W        W18257  30.304  38.550  14.308
45943W        W18258   5.431  34.685  14.411
45944W        W18259  21.198  16.427   4.586
45945W        W18260  38.000  31.367  10.605
45946W        W18261  11.339  26.358   3.092
45947W        W18262  20.637  17.340  10.707
45948W        W18263  20.101  35.338  12.548
45949W        W18264  21.968  28.664  12.812
45950W        W18265   0.512   9.680   3.357
45951W        W18266  23.298  33.672   4.075
45952W        W18267  34.477  21.253   4.125
45953W        W18268   7.772  42.880  11.208
45954W        W18269  22.190  19.744   4.142
45955W        W18270  31.155  35.524  13.723
45956W        W18271   6.627  42.426   0.484
45957W        W18272  24.976  30.413  13.295
45958W        W18273  17.849  12.557   1.280
45959W        W18274   6.073  39.345  10.117
45960W        W18275  21.130  38.598  11.870
45961W        W18276  30.452  12.381  14.359
45962W        W18277  33.324   2.274  11.154
45963W        W18278  44.250  10.689  11.972
45964W        W18279  44.889  43.307  13.594
45965W        W18280  31.129  41.804   2.910
45966W        W18281   0.508  11.848  10.413
45967W        W18282   7.197  39.355   3.797
45968W        W18283  17.814   0.302  11.935
45969W        W18284  40.689  18.881  11.731
45970W        W18285  14.171  23.232  14.898
45971W        W18286   2.013  31.890  10.474
45972W        W18287  39.854   5.499  13.470
45973W        W18288  24.676  24.467   0.382
45974W        W18289  28.076   1.926   0.478
45975W        W18290   4.526  32.101   3.164
45976W        W18291  20.351  13.585   0.900
45977W        W18292  30.930  12.337   4.137
45978W        W18293  18.611   3.179   3.746
45979W        W18294  31.952  13.116  12.452
45980W        W18295  26.959   8.312   3.212
45981W        W18296  29.072  39.072  11.223
45982W        W18297  22.437  35.519  13.053
45983W        W18298  12.830   8.398   2.245
45984W        W18299  33.903   3.506  12.019
45985W        W18300  15.662  34.660   2.447
45986W        W18301  23.060  35.440   2.355
45987W        W18302  26.503  27.907   2.255
45988W        W18303  19.200   2.809  11.223
45989W        W18304  17.131  43.242   3.624
45990W        W18305  15.536  18.717   1.258
45991W        W18306  22.623  38.968   0.041
45992W        W18307  43.895  31.632   1.109
45993W        W18308  22.497   6.688  12.515
45994W        W18309  43.439  11.326   3.620
45995W        W18310   4.725  41.756   4.148
45996W        W18311  36.571  16.111  11.555
45997W        W18312  30.079  26.535   3.132
45998W        W18313  16.070  35.622   0.465
45999W        W18314   3.986  32.642  14.451
46000W        W18315   1.879  27.521   4.247
46001W        W18316  20.646  27.661   0.970
46002W        W18317  37.820  28.012   0.935
46003W        W18318   0.775  38.676  10.761
46004W        W18319   0.186   9.162   1.674
46005W        W18320  12.070  24.549   3.637
46006W        W18321  37.905   8.245   1.813
46007W        W18322   6.298  10.733  12.559
46008W        W18323   4.743  34.560   3.585
46009W        W18324   5.390  20.173   1.724
46010W        W18325  26.488  13.526  12.492
46011W        W18326  23.169  43.328  13.184
46012W        W18327  33.875  17.999   0.025
46013W        W18328  39.377  30.863  12.504
46014W        W18329  34.091  17.083   0.110
46015W        W18330  41.249  39.510   4.095
46016W        W18331   8.318  35.847   3.480
46017W        W18332   6.301   8.852  10.695
46018W        W18333  20.414  23.107  12.352
46019W        W18334   3.811  15.255   0.102
46020W        W18335  13.365   8.169  12.781
46021W        W18336  20.003  15.759  13.475
46022W        W18337   8.164  32.986  10.695
46023W        W18338   4.002  16.723   4.515
46024W        W18339   3.323  30.365  12.044
46025W        W18340  42.007  15.729   4.325
46026W        W18341  23.179  38.058   1.228
46027W        W18342   6.971  30.822  11.698
46028W        W18343  12.215  33.190   3.840
46029W        W18344  15.714  17.382   0.394
46030W        W18345  36.320   2.278  12.538
46031W        W18346   8.082  28.625   4.172
46032W        W18347  28.214  33.662  12.371
46033W        W18348  44.251  18.145   5.014
46034W        W18349  29.586  33.493   0.730
46035W        W18350  26.997  26.464  11.169
46036W        W18351  36.493  41.409   0.344
46037W        W18352  33.867  32.486  12.107
46038W        W18353   4.832  16.682   4.192
46039W        W18354  39.430  30.804  11.553
46040W        W18355   5.265  14.366   4.835
46041W        W18356   0.173  24.242  11.123
46042W        W18357  31.583  35.411   1.313
46043W        W18358  13.571  13.580   2.650
46044W        W18359   0.337  28.624   4.653
46045W        W18360  23.562  42.534  11.543
46046W        W18361   4.291  40.988   1.370
46047W        W18362  13.619  28.113   0.446
46048W        W18363  35.352  18.388   4.189
46049W        W18364  14.648  43.844  12.515
46050W        W18365  19.858  43.930  13.996
46051W        W18366   0.617  23.964   3.571
46052W        W18367   6.705  30.391   3.917
46053W        W18368  17.082  24.085   4.711
46054W        W18369  17.501  27.188   1.291
46055W        W18370  20.433   8.895   1.886
46056W        W18371   5.966   8.715  14.409
46057W        W18372  26.756  14.567   0.253
46058W        W18373  17.790  21.776   1.443
46059W        W18374  36.569  43.996  10.487
46060W        W18375  17.598  14.381  12.017
46061W        W18376  10.601  24.933  13.921
46062W        W18377   2.784   3.924  14.921
46063W        W18378  15.803   7.965   3.551
46064W        W18379  15.292  41.634   4.178
46065W        W18380  30.731  32.159   1.730
46066W        W18381  30.498   3.338  12.715
46067W        W18382  16.518  42.835  14.584
46068W        W18383  19.969   0.985   1.473
46069W        W18384   2.407  35.987  13.346
46070W        W18385  40.081  15.843   0.250
46071W        W18386  22.044  12.064   1.057
46072W        W18387  21.100  11.730  10.460
46073W        W18388   7.353  21.132   1.862
46074W        W18389  35.404  35.633   1.459
46075W        W18390   6.813  34.148  13.032
46076W        W18391  40.336  14.880  14.483
46077W        W18392  12.732  36.636  11.179
46078W        W18393  42.992  27.711  13.097
46079W        W18394  31.839  37.105  13.688
46080W        W18395  26.935  39.265  12.539
46081W        W18396  36.422  27.079  11.307
46082W        W18397  25.996   5.993   2.095
46083W        W18398  19.257  26.525   5.001
46084W        W18399   3.343  10.268   0.425
46085W        W18400  37.995  35.861  14.017
46086W        W18401  22.925   7.744   3.721
46087W        W18402  21.323  15.132   2.707
46088W        W18403  11.596   3.427  14.491
46089W        W18404  39.668  40.984  14.276
46090W        W18405  28.293  32.459  10.283
46091W        W18406   6.389  24.290  13.563
46092W        W18407  26.265   5.470   1.335
46093W        W18408  43.828  24.602  13.549
46094W        W18409  14.139   5.910   3.185
46095W        W18410   4.197  34.465   0.686
46096W        W18411  33.075  36.965   2.710
46097W        W18412  10.602  44.998  12.446
46098W        W18413  44.013   2.897   2.363
46099W        W18414  16.581   7.166  11.193
46100W        W18415  42.781   0.256   1.337
46101W        W18416   0.263  27.382   4.565
46102W        W18417  24.661  25.000   0.391
46103W        W18418  38.762  32.506   0.943
46104W        W18419  23.700  31.982  14.275
46105W        W18420  30.129  16.134   0.324
46106W        W18421  20.453   0.833   1.301
46107W        W18422  18.114  31.882  14.498
46108W        W18423   4.188  44.131  13.035
46109W        W18424  12.697  39.894   2.728
46110W        W18425  27.432  22.934  11.664
46111W        W18426   9.127  44.547   3.067
46112W        W18427   7.427  18.646  13.527
46113W        W18428  13.550  13.901   3.581
46114W        W18429   9.349  39.089  11.637
46115W        W18430  31.376  17.069   3.660
46116W        W18431  20.847  15.764   3.888
46117W        W18432  38.763  22.750  11.477
46118W        W18433  31.906  12.910  14.913
46119W        W18434   6.358  24.434  14.454
46120W        W18435  40.606   2.671   0.922
46121W        W18436  26.682  39.981   3.705
46122W        W18437  43.591  11.937   4.164
46123W        W18438  38.426   4.388   4.525
46124W        W18439   2.300  44.865   2.212
46125W        W18440  35.798   9.693   1.751
46126W        W18441  27.915  41.004   0.770
46127W        W18442  19.604  10.372  12.816
46128W        W18443   4.147  21.255  12.222
46129W        W18444  24.128  19.091   4.706
46130W        W18445  29.665   9.232  10.389
46131W        W18446  10.803  35.260  11.080
46132W        W18447  35.091  17.348  12.528
46133W        W18448  30.228  26.677   4.531
46134W        W18449  26.230   4.704  13.851
46135W        W18450   2.781  20.806  14.753
46136W        W18451  34.146  34.906  14.230
46137W        W18452  25.335  43.944  14.927
46138W        W18453   8.866  43.224   4.119
46139W        W18454  25.377  38.399  11.477
46140W        W18455  18.034   9.791   1.499
46141W        W18456  21.005  11.825   2.722
46142W        W18457   6.334  16.271   1.257
46143W        W18458   4.902  13.119   0.446
46144W        W18459   7.711  28.643   0.008
46145W        W18460   3.129  42.318   0.018
46146W        W18461  35.149  20.670   2.184
46147W        W18462  15.331   6.936   1.735
46148W        W18463   2.674  27.608  11.364
46149W        W18464   7.315   5.182  12.029
46150W        W18465   9.626  37.411  10.783
46151W        W18466  22.522   9.329   3.184
46152W        W18467  26.158   1.962   4.755
46153W        W18468   6.650  26.430   2.790
46154W        W18469  17.617  37.809  13.029
46155W        W18470  40.867  12.058   3.691
46156W        W18471  40.104  40.040   0.024
46157W        W18472  27.459   8.473   3.220
46158W        W18473   4.276  44.566  12.013
46159W        W18474   0.840  28.074   0.305
46160W        W18475  10.807  32.315  12.607
46161W        W18476   1.779  30.073   2.427
46162W        W18477  24.139  10.685   4.875
46163W        W18478  17.574   6.339   1.663
46164W        W18479  29.255  35.492  13.812
46165W        W18480  15.240  37.948  11.981
46166W        W18481  42.514  16.168   4.689
46167W        W18482  29.821   2.292  11.115
46168W        W18483  39.681   5.723  11.132
46169W        W18484   0.977  20.216   3.590
46170W        W18485  11.568   2.726  11.504
46171W        W18486   7.994  12.222   1.299
46172W        W18487  39.761  15.595  11.453
46173W        W18488   9.848  13.874  12.966
46174W        W18489   4.264   7.552  14.106
46175W        W18490   3.211  23.097   4.624
46176W        W18491   9.869  14.583   4.252
46177W        W18492  25.106   6.852  11.007
46178W        W18493   5.330   7.620  10.728
46179W        W18494   2.225  12.767   3.209
46180W        W18495  40.486  36.821  14.893
46181W        W18496  34.244  19.772  12.218
46182W        W18497  28.428  21.731  11.886
46183W        W18498   1.523  33.596  14.904
46184W        W18499  30.650  29.147   1.534
46185W        W18500  43.564  10.944  13.080
46186W        W18501   6.795  21.858  12.158
46187W        W18502   5.388  29.919  12.000
46188W        W18503  36.988  15.220  12.060
46189W        W18504  27.484  14.280   0.173
46190W        W18505   3.671  33.682  11.074
46191W        W18506  28.543   9.397  11.718
46192W        W18507  18.646  33.204   2.860
46193W        W18508  37.250  13.025  12.961
46194W        W18509  41.817  43.552   4.506
46195W        W18510   7.812  32.141  11.987
46196W        W18511   6.456  26.630  11.212
46197W        W18512  24.734  26.478  12.594
46198W        W18513  39.642  41.303  13.862
46199W        W18514  25.986  14.001  12.942
46200W        W18515  26.480   8.890  10.653
46201W        W18516   0.089  18.521  11.179
46202W        W18517   8.854  15.534   2.637
46203W        W18518  33.358  44.979   2.646
46204W        W18519   3.433   5.904   1.815
46205W        W18520  29.696   7.417  13.720
46206W        W18521  42.545   9.909  10.795
46207W        W18522  44.938  12.040   0.894
46208W        W18523  18.404  41.577   0.745
46209W        W18524   3.563  33.907   4.089
46210W        W18525  23.264  25.045   0.702
46211W        W18526  40.487  15.187   2.897
46212W        W18527   7.797  12.786   1.540
46213W        W18528  22.581  42.061   0.391
46214W        W18529   5.240  41.903   3.104
46215W        W18530   9.880   6.911   0.810
46216W        W18531  17.262  30.530   4.886
46217W        W18532  42.273  14.133   2.268
46218W        W18533  21.195  15.573  13.805
46219W        W18534  44.537  31.476  12.071
46220W        W18535  28.283  12.881  10.206
46221W        W18536  24.515  38.049  11.568
46222W        W18537  40.948  11.765  13.090
46223W        W18538  33.384  25.094  13.447
46224W        W18539  40.019  24.993   3.305
46225W        W18540  38.759  36.003   0.212
46226W        W18541  28.071   6.875  14.029
46227W        W18542  19.782  34.839   0.308
46228W        W18543  15.216  23.393   2.210
46229W        W18544   7.299  26.530  12.526
46230W        W18545  15.633  18.801   0.392
46231W        W18546   2.491  19.548   1.744
46232W        W18547  39.125   5.851  13.576
46233W        W18548   6.307  32.887  14.725
46234W        W18549  21.901  15.174   3.501
46235W        W18550  34.356  15.411  11.649
46236W        W18551  34.082  37.163   2.231
46237W        W18552  34.864  44.182   2.680
46238W        W18553  24.555  42.177   2.040
46239W        W18554  32.025  28.906   1.205
46240W        W18555   0.791  28.179   3.073
46241W        W18556  13.730  21.528  13.843
46242W        W18557  40.795  34.156  12.646
46243W        W18558   6.421  16.499  14.979
46244W        W18559   5.103  16.862   3.217
46245W        W18560  34.122  19.063  13.851
46246W        W18561  41.949  12.657  10.587
46247W        W18562  44.938  36.923  11.058
46248W        W18563   5.129   2.166  12.088
46249W        W18564  36.595   1.955  10.285
46250W        W18565  44.117  29.016   1.366
46251W        W18566  33.871  18.580   1.924
46252W        W18567  19.043  40.492  14.178
46253W        W18568  27.905  24.516  10.670
46254W        W18569  42.283   7.943  11.194
46255W        W18570  11.245  38.242   4.294
46256W        W18571  21.036  36.017  10.273
46257W        W18572  27.123  41.718   4.743
46258W        W18573  35.365   2.024   4.590
46259W        W18574  18.451  28.049   1.419
46260W        W18575   0.551   2.829   4.647
46261W        W18576  10.599  15.349   4.761
46262W        W18577   9.685  34.160  14.050
46263W        W18578  32.859  38.055   3.992
46264W        W18579  17.058   1.536   4.092
46265W        W18580  28.551   2.804   3.736
46266W        W18581   0.408  24.036  11.945
46267W        W18582   2.841  22.589  10.584
46268W        W18583  18.629  27.766  10.688
46269W        W18584  29.492  22.243  13.660
46270W        W18585  10.699  17.575  12.918
46271W        W18586  26.233  29.104  11.652
46272W        W18587   6.910   9.683  12.835
46273W        W18588   2.668  14.237   2.644
46274W        W18589   8.604  43.876  13.404
46275W        W18590  23.907  20.303  10.678
46276W        W18591  34.177  26.631  12.213
46277W        W18592  23.697  35.294   3.617
46278W        W18593  11.158  41.005   3.502
46279W        W18594   9.203  39.594   0.974
46280W        W18595  17.602  34.006   4.061
46281W        W18596  28.920   8.878   0.366
46282W        W18597  29.176  16.986  11.156
46283W        W18598  39.905  19.460  14.465
46284W        W18599   5.241   0.191  11.192
46285W        W18600   0.877   3.667  12.037
46286W        W18601   0.550  17.994  12.981
46287W        W18602  13.805  26.878   1.245
46288W        W18603   2.461  13.067   0.281
46289W        W18604  26.092  27.096   2.822
46290W        W18605   5.805  18.036  13.409
46291W        W18606  27.478  11.552  11.979
46292W        W18607  38.100  40.378   1.297
46293W        W18608  34.925  35.186   3.598
46294W        W18609   3.387  27.544   3.169
46295W        W18610  28.968  35.402   3.672
46296W        W18611   0.404  28.408   0.304
46297W        W18612  19.264  11.203   4.146
46298W        W18613  41.853  28.406  10.773
46299W        W18614  44.809  25.656  10.896
46300W        W18615  11.245  40.771   1.712
46301W        W18616  21.241  16.073   0.315
46302W        W18617  14.233  26.146   1.366
46303W        W18618  18.578   3.759  10.660
46304W        W18619   2.873   0.472   2.813
46305W        W18620  44.302  21.523  14.399
46306W        W18621   0.808  43.634   1.457
46307W        W18622  44.714  35.556   4.539
46308W        W18623   6.263  25.722   3.413
46309W        W18624  14.152  14.725   3.331
46310W        W18625  10.107  32.561   0.926
46311W        W18626  26.956   0.012  14.281
46312W        W18627  42.405   3.780  12.775
46313W        W18628  18.135  37.525  11.960
46314W        W18629  18.457  33.991   4.610
46315W        W18630  18.874  38.644  14.956
46316W        W18631  30.990  36.567   4.491
46317W        W18632  31.438  44.756   2.770
46318W        W18633  39.445  27.416   3.195
46319W        W18634  30.462   6.950   0.889
46320W        W18635   1.945  39.279  12.152
46321W        W18636  43.982  14.775   0.591
46322W        W18637   9.159  16.980   3.199
46323W        W18638  42.492   8.255   4.503
46324W        W18639  12.584  15.729  13.574
46325W        W18640   0.691  25.147  13.890
46326W        W18641  31.987  26.484  10.074
46327W        W18642   8.197   8.161  11.472
46328W        W18643   8.923  23.147   1.310
46329W        W18644  35.535  19.721   0.779
46330W        W18645  18.640  19.238   4.513
46331W        W18646  30.634  41.757  14.324
46332W        W18647  24.084  25.781   4.095
46333W        W18648  18.777  15.275  12.198
46334W        W18649   9.827  17.734   0.451
46335W        W18650  43.981  25.118   3.239
46336W        W18651  15.772   1.703  13.245
46337W        W18652  30.485  41.102   1.491
46338W        W18653  13.311  34.636   4.680
46339W        W18654  43.865  29.886   1.185
46340W        W18655  17.838  44.912   0.249
46341W        W18656   1.870  24.544   2.074
46342W        W18657  14.540  16.718   3.159
46343W        W18658  34.346   6.440  12.459
46344W        W18659  17.092  22.929  10.742
46345W        W18660  32.856  11.901  14.394
46346W        W18661  31.534  18.997  13.794
46347W        W18662   7.751  39.055  13.226
46348W        W18663  26.248  17.850   4.646
46349W        W18664  31.826  44.815   3.620
46350W        W18665  23.310  14.364   4.052
46351W        W18666   9.890  19.088   0.822
46352W        W18667  20.592  13.116   3.814
46353W        W18668  18.649  11.545   2.349
46354W        W18669  44.511  18.753  14.943
46355W        W18670  27.742  15.578  14.834
46356W        W18671  16.769  40.533  10.294
46357W        W18672  12.040   8.667  14.463
46358W        W18673  44.785  36.015   0.922
46359W        W18674  32.990  31.904  14.796
46360W        W18675  35.425   0.818  10.950
46361W        W18676  14.716  42.921  14.559
46362W        W18677  43.067  14.482  14.749
46363W        W18678   1.937  26.312  14.830
46364W        W18679   5.710  32.422  11.262
46365W        W18680  23.046  39.521  13.449
46366W        W18681  12.973   1.806   4.915
46367W        W18682  21.225  16.608   1.195
46368W        W18683  36.014  14.613  12.943
46369W        W18684  18.252   6.276   4.839
46370W        W18685  17.026   6.709  14.431
46371W        W18686  43.762  28.043  10.753
46372W        W18687   7.329  13.694   4.081
46373W        W18688  30.864  17.194   4.516
46374W        W18689  22.265  11.635  10.729
46375W        W18690  16.793   0.760   2.896
46376W        W18691  12.413   9.315  13.451
46377W        W18692  32.531  28.585   3.760
46378W        W18693   0.449  11.794  11.432
46379W        W18694  43.896  21.199  10.394
46380W        W18695  37.821  10.352   1.688
46381W        W18696  14.277  25.653   4.614
46382W        W18697   4.331  20.230  11.207
46383W        W18698  25.259  38.876  11.620
46384W        W18699  23.493  17.088  10.720
46385W        W18700   1.802   1.708  12.842
46386W        W18701  10.379   3.376   4.446
46387W        W18702  28.600  15.575   4.413
46388W        W18703   7.044  13.616   3.386
46389W        W18704  19.656  22.084   3.160
46390W        W18705  18.081   5.451   3.114
46391W        W18706   5.770  41.974   2.334
46392W        W18707  30.483  15.859   1.259
46393W        W18708   8.393  22.148  14.835
46394W        W18709  29.201  20.577  11.743
46395W        W18710  36.867  36.864  12.289
46396W        W18711   0.021  41.930   1.894
46397W        W18712  25.719  15.716   1.174
46398W        W18713  38.722  14.111   0.033
46399W        W18714   6.996  24.453  10.997
46400W        W18715  40.154   4.419  14.813
46401W        W18716  43.081  38.332  11.582
46402W        W18717  36.375  37.410   2.275
46403W        W18718  25.200  41.789  11.815
46404W        W18719  37.725   5.848   4.570
46405W        W18720  31.935  17.599   0.423
46406W        W18721   2.909   8.165  14.645
46407W        W18722  42.180  39.936  13.282
46408W        W18723   6.981   6.761  14.480
46409W        W18724  24.570  21.726  10.407
46410W        W18725  32.656   7.775   4.370
46411W        W18726  44.488  25.648   0.383
46412W        W18727  34.440  28.126  11.283
46413W        W18728  25.239   4.704   1.846
46414W        W18729   8.898  18.798   1.830
46415W        W18730  10.667  42.372   2.250
46416W        W18731  13.761   1.990  11.250
46417W        W18732   2.649  31.473   4.602
46418W        W18733  31.313  34.061  12.681
46419W        W18734  11.257  41.271   1.804
46420W        W18735   1.018  35.952  11.142
46421W        W18736  34.450  42.509   1.227
46422W        W18737  37.488  18.661  13.002
46423W        W18738  41.552  23.728   4.189
46424W        W18739  15.366   4.383  13.004
46425W        W18740  12.060  40.314   2.696
46426W        W18741   9.360  15.503  13.984
46427W        W18742   3.286  44.654   5.134
46428W        W18743  11.727  29.509  13.499
46429W        W18744   5.464   2.396   1.752
46430W        W18745  39.990  43.502  14.738
46431W        W18746  37.224   3.407  13.586
46432W        W18747  14.758  15.102  13.088
46433W        W18748  26.880  43.967  11.500
46434W        W18749   5.285  29.843   3.634
46435W        W18750  12.215   6.730   3.952
46436W        W18751   0.296  10.963   3.235
46437W        W18752  23.810  13.153   2.633
46438W        W18753  33.676  34.620  14.383
46439W        W18754  26.441  21.723   1.145
46440W        W18755   6.217  28.108   3.345
46441W        W18756   0.480  15.875  13.867
46442W        W18757  22.470   6.942   0.958
46443W        W18758  40.382  29.384   4.418
46444W        W18759  22.537  13.213  14.902
46445W        W18760  44.348  38.854  11.934
46446W        W18761  11.540  32.912   3.259
46447W        W18762  12.583  31.540   1.013
46448W        W18763  37.403  41.784   0.507
46449W        W18764  13.576  29.475  13.001
46450W        W18765  39.899  31.453   1.031
46451W        W18766  40.781  16.320   2.275
46452W        W18767  17.247  13.705  12.979
46453W        W18768  40.924  16.828  13.333
46454W        W18769  32.140  32.135  11.120
46455W        W18770  40.500   7.772  12.187
46456W        W18771  32.345  18.926  12.931
46457W        W18772  17.858  10.693   0.295
46458W        W18773  19.437  36.834  12.033
46459W        W18774  42.918  13.656  10.636
46460W        W18775  32.001  16.796   1.394
46461W        W18776  19.235   6.787  14.058
46462W        W18777  27.847   3.256   9.791
46463W        W18778  13.452  29.169   0.350
46464W        W18779  19.297   7.412  10.274
46465W        W18780  14.248  30.731   1.332
46466W        W18781  31.138  14.023  12.499
46467W        W18782   2.781  43.530   2.851
46468W        W18783  27.740  32.193  10.214
46469W        W18784  43.499   3.129  11.613
46470W        W18785   1.107  27.960  11.668
46471W        W18786   0.957  44.790  10.451
46472W        W18787  39.310  19.251   4.947
46473W        W18788  18.119  33.887  12.845
46474W        W18789  12.600  29.068  11.167
46475W        W18790  20.388  30.711   4.107
46476W        W18791   6.140   7.899   2.312
46477W        W18792  16.127   8.685   3.164
46478W        W18793  22.670  31.394   1.223
46479W        W18794   3.331  31.351   3.970
46480W        W18795   4.066  38.874  11.148
46481W        W18796  20.076  12.394   3.139
46482W        W18797  23.173  24.758   3.166
46483W        W18798  29.952  31.895   0.948
46484W        W18799  28.986  19.741  10.755
46485W        W18800  32.130  16.082  12.061
46486W        W18801  28.125  16.439  10.589
46487W        W18802  21.186   9.318  14.811
46488W        W18803  38.383  11.228   0.257
46489W        W18804  21.532   8.923  12.014
46490W        W18805  21.706  10.306  13.878
46491W        W18806  28.015  35.442  14.274
46492W        W18807  18.032   9.113   3.402
46493W        W18808  10.746  11.391   4.104
46494W        W18809  44.480  31.483   3.906
46495W        W18810  28.829  27.067   2.275
46496W        W18811  34.702  19.738  13.051
46497W        W18812   1.927  18.984   0.233
46498W        W18813  39.610   4.824   0.449
46499W        W18814   3.510   9.709   2.814
46500W        W18815  32.945  13.969   3.276
46501W        W18816  14.138  17.867   1.476
46502W        W18817  40.004  36.504  14.949
46503W        W18818  29.141  15.410  11.990
46504W        W18819  34.097   8.706   0.772
46505W        W18820  37.469  12.698  14.022
46506W        W18821   0.271  13.991  10.648
46507W        W18822  41.079  36.344  12.105
46508W        W18823  13.601  44.327  13.826
46509W        W18824   4.469  21.952  11.061
46510W        W18825  34.429  21.604   4.699
46511W        W18826  35.553  32.489   3.587
46512W        W18827  34.676  13.256   0.753
46513W        W18828  14.636  30.376   4.510
46514W        W18829  11.770   1.338  10.380
46515W        W18830  13.949  23.174  14.256
46516W        W18831  26.887  37.863   2.778
46517W        W18832   5.490   1.973   0.963
46518W        W18833  33.555  42.273  11.117
46519W        W18834  21.688  35.187   1.993
46520W        W18835   1.940  34.869  13.038
46521W        W18836   4.867  19.308   4.328
46522W        W18837  12.347  29.837  14.898
46523W        W18838  15.820   6.351   3.627
46524W        W18839  26.080  41.618   2.272
46525W        W18840  14.672  14.765   2.614
46526W        W18841  29.958  42.498   2.862
46527W        W18842  12.088   1.672   1.422
46528W        W18843  29.073  18.580  14.824
46529W        W18844  44.706  26.883  14.912
46530W        W18845   5.403  40.533   3.435
46531W        W18846  34.912  10.192   4.555
46532W        W18847  43.101  39.942  10.281
46533W        W18848  42.842  17.632   0.215
46534W        W18849  12.391  28.010   1.964
46535W        W18850  37.489   1.659  10.252
46536W        W18851  30.619  36.847   2.747
46537W        W18852  21.701  32.531  14.574
46538W        W18853  29.783  15.245   2.690
46539W        W18854  23.199  19.215  14.046
46540W        W18855  17.136  40.910   0.893
46541W        W18856  24.290  38.634  14.307
46542W        W18857  20.045  10.408  14.599
46543W        W18858  27.465  20.040  11.467
46544W        W18859  35.472   9.604  13.523
46545W        W18860  20.807  33.198   1.318
46546W        W18861  38.543  21.771  12.235
46547W        W18862  26.188  33.976  10.916
46548W        W18863  22.043   2.681   2.753
46549W        W18864  24.287   1.508  11.140
46550W        W18865  26.509  14.691   2.484
46551W        W18866  24.217  36.599   3.639
46552W        W18867  35.396   1.739   0.558
46553W        W18868  11.785  18.544  11.101
46554W        W18869  20.667  32.062   4.539
46555W        W18870  37.243  38.672  14.461
46556W        W18871  36.529  27.659   3.298
46557W        W18872  36.838  21.513   3.753
46558W        W18873  32.615  28.967  11.608
46559W        W18874  26.555  25.473  13.408
46560W        W18875  44.922   4.455  14.422
46561W        W18876  13.626  12.076  10.914
46562W        W18877  20.236  42.495  13.305
46563W        W18878  33.379   0.193   0.289
46564W        W18879  27.416  33.050  13.360
46565W        W18880  17.552   8.276  14.744
46566W        W18881  33.185  35.451  12.083
46567W        W18882   6.672  20.281  14.551
46568W        W18883   7.790   9.411   2.323
46569W        W18884  14.218  15.318   0.455
46570W        W18885  10.906   4.883   3.144
46571W        W18886  12.224  12.787  13.609
46572W        W18887  19.127   7.823   5.211
46573W        W18888  38.830   4.611  11.590
46574W        W18889  19.017  14.598  13.229
46575W        W18890   8.294  27.937  12.724
46576W        W18891  31.177   8.410   1.746
46577W        W18892  37.324  22.260   9.973
46578W        W18893   6.709  27.242   3.054
46579W        W18894  24.523  23.879  11.028
46580W        W18895  17.036  28.585  13.070
46581W        W18896  35.493  39.856  10.949
46582W        W18897  26.499  34.631   4.234
46583W        W18898  40.205  17.404   3.313
46584W        W18899  22.172  25.899   0.666
46585W        W18900  44.042  44.478   5.032
46586W        W18901  22.181   2.111   1.833
46587W        W18902  39.640  41.996   3.689
46588W        W18903  20.070  27.459  14.567
46589W        W18904   1.349  23.058  14.744
46590W        W18905  17.540  21.116   2.178
46591W        W18906   2.897  21.130  14.379
46592W        W18907  29.483  14.069   4.246
46593W        W18908  20.658  20.217   3.402
46594W        W18909  10.706   0.942  14.280
46595W        W18910  21.238  12.625  13.839
46596W        W18911  12.138  23.038   0.835
46597W        W18912  20.693  30.181  12.645
46598W        W18913  31.855  30.815   4.298
46599W        W18914   3.211  27.764   4.471
46600W        W18915  34.676  31.633  12.865
46601W        W18916   0.744   9.237   0.021
46602W        W18917  38.370  11.459  14.779
46603W        W18918   9.131  16.324  10.495
46604W        W18919  27.705  37.110   2.370
46605W        W18920  39.578  41.907  14.499
46606W        W18921  31.874  12.210  14.361
46607W        W18922   1.720   4.031  14.282
46608W        W18923  12.821   9.188   2.780
46609W        W18924  42.031   7.689  12.042
46610W        W18925  41.914  40.844  11.190
46611W        W18926  42.962  30.592  14.919
46612W        W18927   5.387   3.296  11.328
46613W        W18928   6.924   8.788  12.775
46614W        W18929  40.556  32.929   0.809
46615W        W18930  27.496   6.570   1.542
46616W        W18931  12.618  14.168  11.891
46617W        W18932  27.605  26.799   5.017
46618W        W18933  16.680  21.999   3.603
46619W        W18934  34.121   1.307  13.553
46620W        W18935  19.131  15.806  12.178
46621W        W18936  36.990  19.568  11.471
46622W        W18937  23.273   8.872   2.488
46623W        W18938  36.873  40.893   0.045
46624W        W18939  34.215  20.174   4.113
46625W        W18940   7.365  34.902  12.961
46626W        W18941  20.242   4.380  11.288
46627W        W18942  29.259  44.335  11.911
46628W        W18943  25.502   5.786  12.791
46629W        W18944  31.371  17.723  11.464
46630W        W18945  26.734   1.538   0.958
46631W        W18946  17.877  16.228  13.874
46632W        W18947  11.713   0.324  10.645
46633W        W18948  35.421  26.450  14.544
46634W        W18949  15.527  27.627  10.582
46635W        W18950  38.810   1.332  12.021
46636W        W18951  10.189   8.096   2.269
46637W        W18952   5.186  10.282   3.846
46638W        W18953  18.893  28.507  11.124
46639W        W18954  34.622  17.070   0.857
46640W        W18955   7.543   2.762   1.328
46641W        W18956  44.030  26.511  13.478
46642W        W18957  29.981   8.332   2.420
46643W        W18958  13.086  18.740   4.077
46644W        W18959  29.092   7.105   0.426
46645W        W18960  30.100   1.241  14.991
46646W        W18961  44.758  43.029  11.961
46647W        W18962   1.175  41.364  12.949
46648W        W18963   6.627  42.294   1.002
46649W        W18964  32.205  10.221  10.576
46650W        W18965  34.119  43.015   2.277
46651W        W18966  38.500   9.127  14.306
46652W        W18967   5.447  23.560  13.433
46653W        W18968   7.176  36.924  13.590
46654W        W18969   7.621  28.254   1.459
46655W        W18970  18.014   4.880   3.712
46656W        W18971  38.117  23.213   2.768
46657W        W18972  31.179  37.037   0.089
46658W        W18973  36.956   3.897  10.694
46659W        W18974  19.860  36.511  11.990
46660W        W18975  16.036  13.176   1.412
46661W        W18976  35.641  14.245  11.639
46662W        W18977  19.516  24.579   0.363
46663W        W18978  18.177  20.195   1.816
46664W        W18979  33.531   8.165  13.033
46665W        W18980   3.324   0.782  12.981
46666W        W18981   4.513   7.851   0.963
46667W        W18982  21.172   2.530  10.793
46668W        W18983  14.562  23.617   4.225
46669W        W18984   2.932  17.227   1.143
46670W        W18985  18.622   3.278   1.213
46671W        W18986  15.921  34.038   4.541
46672W        W18987  22.736  40.512   1.173
46673W        W18988  19.074  44.546  11.257
46674W        W18989  34.939   7.367  12.986
46675W        W18990  21.327  24.708   3.372
46676W        W18991   9.087  14.424  11.615
46677W        W18992  14.007  15.610   0.918
46678W        W18993  22.098   2.816   1.299
46679W        W18994  36.581  39.912   2.172
46680W        W18995  19.507  32.409  14.866
46681W        W18996  32.455  10.155   0.677
46682W        W18997  12.630   9.641   3.182
46683W        W18998  37.957  37.174   9.957
46684W        W18999  12.397  35.243   4.824
46685W        W19000   0.215  15.053  14.895
46686W        W19001  31.483  17.073  14.807
46687W        W19002  34.877  18.364   4.923
46688W        W19003  28.148  19.611   0.764
46689W        W19004  29.513   2.456  12.514
46690W        W19005  20.901  33.918  12.133
46691W        W19006  38.393   9.892  14.901
46692W        W19007   6.487  10.406   4.420
46693W        W19008   1.994  44.715  10.828
46694W        W19009  28.696  10.931  13.533
46695W        W19010  42.319   3.925   4.382
46696W        W19011  18.871  41.946  12.015
46697W        W19012  39.556   1.198  13.406
46698W        W19013  41.995   4.335   4.508
46699W        W19014  37.520  33.421   2.347
46700W        W19015  33.192   0.762   2.002
46701W        W19016  13.897   5.282   4.219
46702W        W19017  22.779   9.270   0.228
46703W        W19018   1.737   4.911   2.329
46704W        W19019  31.435  13.072   2.189
46705W        W19020  21.965   1.263   2.220
46706W        W19021  13.118  15.069   4.192
46707W        W19022   0.664  29.733  10.732
46708W        W19023   3.326   5.953   4.206
46709W        W19024  27.690   4.709  11.164
46710W        W19025  37.148  24.251  14.863
46711W        W19026  12.816  44.965  11.703
46712W        W19027  44.818  44.747   3.123
46713W        W19028   0.195  43.819   1.901
46714W        W19029  25.445  35.582   3.151
46715W        W19030  28.746  21.218   1.256
46716W        W19031   6.771  13.158   3.242
46717W        W19032  16.842   8.653   5.075
46718W        W19033  36.362  21.235   3.954
46719W        W19034  19.149  28.500  11.567
46720W        W19035  34.230  33.152  12.890
46721W        W19036  28.932   6.724  10.650
46722W        W19037  37.573  27.715   0.518
46723W        W19038  21.828  34.880  14.049
46724W        W19039   9.266  24.379   1.220
46725W        W19040  29.949  18.088  14.013
46726W        W19041  32.344  44.284  14.280
46727W        W19042   9.549  18.494  13.922
46728W        W19043  17.692   8.394   1.900
46729W        W19044  16.257  42.538   1.360
46730W        W19045  11.791   8.185   2.299
46731W        W19046   6.612  15.660   4.724
46732W        W19047   5.774  34.027   1.448
46733W        W19048  27.987  10.603   0.602
46734W        W19049  19.935  29.525  14.979
46735W        W19050  24.441  17.168   1.851
46736W        W19051  41.803   1.840   9.883
46737W        W19052   8.153  33.951  13.159
46738W        W19053  19.707   0.011   4.790
46739W        W19054  39.871  44.986  14.815
46740W        W19055  13.667  43.816   4.438
46741W        W19056  40.586  33.447   4.019
46742W        W19057   5.254  23.685   2.833
46743W        W19058  38.604  31.945  11.954
46744W        W19059   6.684  40.258   1.404
46745W        W19060   9.875   1.197   2.937
46746W        W19061  40.988  23.982   2.219
46747W        W19062  36.025  35.320   0.278
46748W        W19063   7.351   1.478   3.636
46749W        W19064  38.900  14.713  13.565
46750W        W19065  30.339  44.785   0.220
46751W        W19066  19.869  11.106   2.303
46752W        W19067   9.911  33.925  14.447
46753W        W19068   9.427  16.720  10.596
46754W        W19069  26.109  38.060   2.286
46755W        W19070  26.726  37.804  13.475
46756W        W19071  15.296  23.592   4.836
46757W        W19072  11.268   7.838   2.864
46758W        W19073  40.851  32.644   3.823
46759W        W19074  19.801   1.948   2.856
46760W        W19075   1.450   2.848   0.799
46761W        W19076  29.045   4.732  10.704
46762W        W19077   8.244  20.407   4.090
46763W        W19078  17.802  21.760  13.932
46764W        W19079   7.696  35.338   0.841
46765W        W19080  14.546   0.347   0.467
46766W        W19081  43.027  43.809   1.305
46767W        W19082  19.597  26.661  11.630
46768W        W19083   0.255  11.494  13.639
46769W        W19084  29.576  32.601  11.167
46770W        W19085  35.015   2.005   0.793
46771W        W19086  30.463  31.666  13.344
46772W        W19087  11.848  17.756   4.661
46773W        W19088  12.516  32.245   3.303
46774W        W19089  12.442  41.336   4.600
46775W        W19090   0.798  41.795  11.205
46776W        W19091  34.383  41.532   1.143
46777W        W19092  14.784  31.553   4.782
46778W        W19093  35.300  32.510   4.042
46779W        W19094  28.524  34.372   3.865
46780W        W19095  13.831  34.364  12.957
46781W        W19096  43.058  33.622  12.538
46782W        W19097  28.077  13.661   3.123
46783W        W19098  44.429  24.116  13.969
46784W        W19099  32.092  38.011   1.270
46785W        W19100  20.123  23.240  10.582
46786W        W19101  24.002   6.326  13.472
46787W        W19102  30.024  30.387  12.511
46788W        W19103  43.579  25.726  14.227
46789W        W19104  35.449   3.914  14.445
46790W        W19105  19.791  31.615  12.393
46791W        W19106  30.458  18.148  10.764
46792W        W19107  32.462  31.622   3.029
46793W        W19108  21.208  19.167   0.487
46794W        W19109  35.451  27.374  11.017
46795W        W19110  28.182  36.392   2.763
46796W        W19111  30.593   1.333   2.720
46797W        W19112  16.964  37.264   3.616
46798W        W19113  33.011  34.588  11.829
46799W        W19114  20.827  17.530   4.610
46800W        W19115   0.914  42.377   0.862
46801W        W19116  39.560  30.845   1.819
46802W        W19117   7.837  16.751  10.524
46803W        W19118  42.179   5.243   2.945
46804W        W19119   8.036  39.878   1.256
46805W        W19120  15.294  14.423  14.980
46806W        W19121   2.437   8.797   2.282
46807W        W19122  30.289  11.076  14.391
46808W        W19123  28.160   1.595  12.154
46809W        W19124   5.746  23.765  13.991
46810W        W19125   2.342   8.754   0.991
46811W        W19126  10.096  43.510   1.228
46812W        W19127  39.060   7.490  13.018
46813W        W19128  10.736   7.568   2.563
46814W        W19129  35.853  25.754   1.128
46815W        W19130   8.248  26.539   3.831
46816W        W19131  39.708  42.682   3.221
46817W        W19132   6.657  31.791   4.751
46818W        W19133  27.066  22.431  13.087
46819W        W19134   9.132  37.450   4.829
46820W        W19135  25.567  22.765   3.705
46821W        W19136  13.839  15.484   1.828
46822W        W19137  26.188  14.646   1.124
46823W        W19138   5.280  38.754   0.068
46824W        W19139  24.593  23.404   1.220
46825W        W19140  36.592   1.474  12.926
46826W        W19141  20.964   5.577   2.215
46827W        W19142   6.309  26.624   1.920
46828W        W19143  10.634  20.408  13.746
46829W        W19144  18.146  20.233  11.371
46830W        W19145  17.651  38.826  12.916
46831W        W19146  18.855   3.967  11.141
46832W        W19147  11.339  44.262   1.846
46833W        W19148  21.579   1.106  11.663
46834W        W19149  21.597  18.262   3.199
46835W        W19150  22.023  43.559   1.557
46836W        W19151   9.640  18.014   4.386
46837W        W19152  16.310  36.088  13.367
46838W        W19153  17.595  13.320  12.822
46839W        W19154  32.483  16.680  12.981
46840W        W19155   4.532  16.701   1.524
46841W        W19156  32.140  36.594  11.009
46842W        W19157  30.650  40.512   3.562
46843W        W19158   9.108  25.979   0.384
46844W        W19159  12.751  11.392   1.236
46845W        W19160  32.686  21.054  10.743
46846W        W19161  31.223  23.811  14.257
46847W        W19162   7.121  14.912  11.381
46848W        W19163  31.906  32.619  11.082
46849W        W19164  28.987  40.785   2.724
46850W        W19165   4.742  39.555   3.706
46851W        W19166  17.831  28.686  10.107
46852W        W19167  26.477   6.729   2.423
46853W        W19168  13.821  38.956   0.509
46854W        W19169  26.472  22.061  10.670
46855W        W19170  24.073  25.791   0.470
46856W        W19171  27.959   9.918   2.517
46857W        W19172  26.080  29.379  13.517
46858W        W19173  19.481  33.107   4.139
46859W        W19174  44.547  26.639  13.510
46860W        W19175  39.493  19.173  12.712
46861W        W19176  16.575  37.517  12.483
46862W        W19177  28.475  27.504  13.997
46863W        W19178  13.772   8.073   3.333
46864W        W19179   8.476   4.213  10.573
46865W        W19180  29.985   7.269   0.942
46866W        W19181  40.518  38.934  12.466
46867W        W19182   5.840   9.197  11.020
46868W        W19183  11.094  18.264   4.724
46869W        W19184   7.954  15.802  10.731
46870W        W19185   3.527  28.533  12.876
46871W        W19186  17.727  34.089   0.259
46872W        W19187  40.734  38.443  12.943
46873W        W19188   7.843  14.341  12.015
46874W        W19189   7.862  27.240  14.341
46875W        W19190  39.520  14.088   3.838
46876W        W19191  25.499  19.576  13.990
46877W        W19192  43.757  29.255   4.173
46878W        W19193  19.886  11.675   4.745
46879W        W19194  30.465  44.752   4.538
46880W        W19195  35.306  36.706  13.939
46881W        W19196  24.950  33.338  10.970
46882W        W19197   6.687  37.738   2.527
46883W        W19198   3.788  44.545  12.255
46884W        W19199  37.909  31.646  12.353
46885W        W19200  20.912  14.777   1.291
46886W        W19201   1.977   8.764  12.642
46887W        W19202  18.470  37.101  11.892
46888W        W19203  43.935  21.457   4.046
46889W        W19204  38.594  31.436   3.913
46890W        W19205  40.443   3.159   0.854
46891W        W19206  17.528  26.628  11.844
46892W        W19207  33.981  20.608  11.674
46893W        W19208  42.980  32.851   2.789
46894W        W19209  34.154  13.681  12.490
46895W        W19210   4.408  25.933   4.570
46896W        W19211   0.880  11.856   1.442
46897W        W19212  34.479   4.496   2.750
46898W        W19213  26.680   9.348  12.938
46899W        W19214  20.826  26.981  13.926
46900W        W19215   2.229  40.175   3.810
46901W        W19216  33.505  36.667  11.390
46902W        W19217  27.926   9.092  10.580
46903W        W19218  25.499   0.109   2.254
46904W        W19219  19.041  30.999  12.068
46905W        W19220  40.377  33.843  11.491
46906W        W19221   9.498   7.299  11.553
46907W        W19222  14.691  33.386  10.766
46908W        W19223  33.054   8.459  12.350
46909W        W19224  29.766  16.773  14.527
46910W        W19225  17.865   5.082  11.593
46911W        W19226   4.670  24.580  13.563
46912W        W19227  17.600   8.191   4.496
46913W        W19228  32.032  41.097   3.628
46914W        W19229   3.789  36.602   0.248
46915W        W19230  30.715  31.530  14.074
46916W        W19231  18.204  13.387   2.201
46917W        W19232  28.273  41.486  14.320
46918W        W19233   0.753  13.690  10.947
46919W        W19234  38.626   0.870  10.808
46920W        W19235  16.594  14.739  13.539
46921W        W19236  19.527  44.837  14.501
46922W        W19237  42.247  26.642  12.316
46923W        W19238  33.859  18.568  14.943
46924W        W19239  16.658   3.705  10.813
46925W        W19240  19.629   3.813   2.818
46926W        W19241  37.905  37.232   0.438
46927W        W19242   0.228   2.471   1.240
46928W        W19243  44.860  32.521  12.550
46929W        W19244  14.234  29.886   1.749
46930W        W19245  41.845   6.269  13.377
46931W        W19246  42.963  19.375  10.785
46932W        W19247   2.547  22.436  13.896
46933W        W19248  18.478  15.704  13.495
46934W        W19249  43.065  40.471  12.754
46935W        W19250  35.898  25.058   1.843
46936W        W19251  13.821  38.316  13.331
46937W        W19252   5.318  22.491   2.649
46938W        W19253   5.124  39.995  13.072
46939W        W19254   9.452  17.558   4.256
46940W        W19255  12.332  30.086   2.675
46941W        W19256  38.258   5.709  13.860
46942W        W19257  21.268  15.866  14.843
46943W        W19258  26.846   7.201  11.362
46944W        W19259  15.588  14.787   4.175
46945W        W19260   2.787   6.328   3.440
46946W        W19261  42.301   6.923   4.190
46947W        W19262  19.747   0.111  10.752
46948W        W19263  26.124  42.842   3.684
46949W        W19264  37.365  20.766   2.640
46950W        W19265   4.837  32.174   4.830
46951W        W19266   7.821  41.655   2.717
46952W        W19267  31.394  35.975  13.559
46953W        W19268  16.508  31.440   1.327
46954W        W19269  38.885  36.281  12.498
46955W        W19270  22.785  44.522   1.470
46956W        W19271  41.698  17.243   1.811
46957W        W19272   5.674  25.232   5.099
46958W        W19273  42.674  22.780  12.513
46959W        W19274  39.369  10.697  11.146
46960W        W19275  20.504  12.098   1.455
46961W        W19276   5.041  23.220   1.952
46962W        W19277  26.599  34.679   0.117
46963W        W19278  18.366  17.713  12.987
46964W        W19279  31.579  19.205   1.777
46965W        W19280  38.569   3.663  13.105
46966W        W19281  18.203  16.730  12.611
46967W        W19282  36.318  34.984   2.197
46968W        W19283  16.383   3.284   2.808
46969W        W19284  42.056   0.362   1.797
46970W        W19285  38.573  27.167  14.104
46971W        W19286   6.656  17.493  13.450
46972W        W19287  28.962  23.053  14.868
46973W        W19288  19.752  44.373  14.428
46974W        W19289  24.087  40.779   0.365
46975W        W19290   2.936  42.316  12.496
46976W        W19291  31.248  10.093   1.316
46977W        W19292   7.793  32.985   0.464
46978W        W19293  24.791   8.872  12.028
46979W        W19294  41.761   4.409   1.253
46980W        W19295  18.016  21.003  12.969
46981W        W19296  28.130   7.322   4.487
46982W        W19297  28.107  18.041  14.696
46983W        W19298   8.608  25.193  13.011
46984W        W19299  32.764   2.349  13.941
46985W        W19300  44.397   5.754  10.802
46986W        W19301  25.498   6.209  12.457
46987W        W19302  18.617   6.884   0.899
46988W        W19303  29.678  30.069  12.830
46989W        W19304  12.194   0.307   2.747
46990W        W19305  42.792  27.080   3.598
46991W        W19306   3.554  11.154  12.938
46992W        W19307  41.306  13.787   1.312
46993W        W19308  40.035  39.275   3.663
46994W        W19309  21.201  42.299  10.834
46995W        W19310  44.008  44.422  14.490
46996W        W19311   0.144  16.459   0.920
46997W        W19312  36.711   1.429   3.710
46998W        W19313  42.487   7.572  12.672
46999W        W19314   6.319  42.675   2.347
47000W        W19315  16.531  28.475  11.948
47001W        W19316  21.499   6.288   2.262
47002W        W19317  26.260   5.350   2.672
47003W        W19318  18.319  30.254   2.799
47004W        W19319  35.099  27.987   3.164
47005W        W19320  31.610  43.236  14.903
47006W        W19321  17.473  39.482   2.509
47007W        W19322  16.584  21.703  14.853
47008W        W19323  12.219  30.166   3.592
47009W        W19324   3.142  36.940  13.802
47010W        W19325  42.235  17.126   3.199
47011W        W19326  35.852  21.491   0.368
47012W        W19327  44.953  24.194   4.247
47013W        W19328  25.186  28.713  11.527
47014W        W19329  33.766   9.710   0.740
47015W        W19330  36.450  38.050  14.373
47016W        W19331  28.103  29.002   0.206
47017W        W19332   1.516  13.690   1.331
47018W        W19333  28.680   5.476  10.652
47019W        W19334  21.204  40.610   2.305
47020W        W19335  44.436   1.518  13.446
47021W        W19336  39.116  31.993  12.035
47022W        W19337  19.256  22.605  12.457
47023W        W19338  33.886  39.394  11.341
47024W        W19339  32.830  32.908   4.841
47025W        W19340  18.956  26.729  14.488
47026W        W19341  19.778  14.355   3.223
47027W        W19342  18.766  31.229  13.344
47028W        W19343  24.103  32.257  11.162
47029W        W19344  35.283  16.567  11.162
47030W        W19345   9.813  29.477   1.819
47031W        W19346  14.364  44.882   4.170
47032W        W19347  44.508  25.566   4.394
47033W        W19348  22.930   5.767   1.901
47034W        W19349   8.687  23.692   1.352
47035W        W19350  14.535  40.532  13.802
47036W        W19351  34.633  16.263   0.888
47037W        W19352  43.132  36.357   2.886
47038W        W19353   2.851  37.783   4.287
47039W        W19354  13.853  34.959   3.122
47040W        W19355   8.675  19.784  14.282
47041W        W19356  19.791  38.826  13.957
47042W        W19357  41.967   8.639   1.461
47043W        W19358  15.813  35.252  11.986
47044W        W19359   4.506  13.163  10.624
47045W        W19360  29.829   0.463   4.219
47046W        W19361  40.069  32.998  12.478
47047W        W19362  27.130   5.843   4.845
47048W        W19363  34.025   1.288   0.743
47049W        W19364  10.693  30.419  11.961
47050W        W19365  22.247  13.726  12.900
47051W        W19366  41.365  29.646   4.405
47052W        W19367  35.573  35.471   0.440
47053W        W19368  37.027  18.314  12.984
47054W        W19369  21.499   3.240  10.497
47055W        W19370  13.295  17.119  13.838
47056W        W19371  23.766  41.848  14.809
47057W        W19372  24.023   5.597  13.959
47058W        W19373   7.943   4.885   4.051
47059W        W19374  11.114  33.132   1.333
47060W        W19375  42.997  38.656  12.621
47061W        W19376  19.497  37.975   3.229
47062W        W19377   9.391  18.293  11.200
47063W        W19378  19.000  38.326  13.547
47064W        W19379  10.791  20.041   3.465
47065W        W19380  15.222  18.243   1.104
47066W        W19381  23.728  35.538  11.629
47067W        W19382  18.664   1.907  13.485
47068W        W19383   9.672   4.710   1.333
47069W        W19384   2.617  18.240  12.140
47070W        W19385  21.046  27.900   4.122
47071W        W19386  38.667  21.279   3.844
47072W        W19387   9.939  36.665   2.318
47073W        W19388  26.720  40.869   1.292
47074W        W19389  38.529  19.601   1.794
47075W        W19390   5.469  41.407  11.176
47076W        W19391  31.096  22.590  14.945
47077W        W19392  14.309  27.066   3.398
47078W        W19393  25.032  24.732   1.195
47079W        W19394  10.710  24.719   2.480
47080W        W19395  14.343  30.538   4.890
47081W        W19396  37.924  44.813  10.365
47082W        W19397  28.093  19.097  12.598
47083W        W19398  24.626  35.800   3.714
47084W        W19399  23.501  30.638  11.205
47085W        W19400  23.734   8.387  13.807
47086W        W19401  24.748   3.389   4.265
47087W        W19402  38.983   1.899   3.187
47088W        W19403   3.773  43.364   1.289
47089W        W19404  21.671  39.399  13.413
47090W        W19405  20.202   4.350   3.102
47091W        W19406  17.242  44.889  10.696
47092W        W19407  32.107  18.598   4.596
47093W        W19408   5.604  13.298   1.050
47094W        W19409  38.367  42.123  12.520
47095W        W19410  40.122  31.979  11.485
47096W        W19411  11.755  23.101   1.293
47097W        W19412  11.811  21.142   1.876
47098W        W19413  32.488   1.512   3.441
47099W        W19414   5.946  26.774   1.162
47100W        W19415  26.509  41.657  10.383
47101W        W19416  33.275  27.489   1.141
47102W        W19417  19.141  22.924  11.222
47103W        W19418  26.469  44.984   1.477
47104W        W19419  30.476  39.866   1.786
47105W        W19420  21.574  38.119  13.204
47106W        W19421  23.993  15.518   1.851
47107W        W19422  40.749  15.882   3.163
47108W        W19423  41.362  41.003   4.962
47109W        W19424  41.005  33.164   4.631
47110W        W19425  43.387   6.329  12.022
47111W        W19426  44.797   4.813  14.069
47112W        W19427  32.940  10.099   3.593
47113W        W19428   4.919  26.689   3.713
47114W        W19429   5.728  28.285  11.467
47115W        W19430  33.371   5.401  13.561
47116W        W19431  39.289  40.599   2.308
47117W        W19432  20.297  35.521  11.490
47118W        W19433  21.300  25.536  14.917
47119W        W19434   0.823  12.342   3.161
47120W        W19435  15.667  40.338   0.330
47121W        W19436  42.529   3.349   4.139
47122W        W19437  43.085   7.292   0.225
47123W        W19438   6.650   3.046   1.334
47124W        W19439  29.139  21.443  11.191
47125W        W19440  27.137  40.383   3.196
47126W        W19441  21.981  42.941   4.592
47127W        W19442  20.111  12.331   1.205
47128W        W19443   5.990   8.205  14.954
47129W        W19444  26.874  31.169  14.004
47130W        W19445  42.826  27.892   4.650
47131W        W19446  19.842  39.897   1.028
47132W        W19447  31.580  20.296  11.634
47133W        W19448   3.014  24.002  14.681
47134W        W19449  11.602  41.316  10.084
47135W        W19450  31.658  17.658   2.687
47136W        W19451   9.919   2.465   0.461
47137W        W19452  13.112  26.967   2.567
47138W        W19453  14.581  42.295  12.131
47139W        W19454   0.900  23.845   5.049
47140W        W19455  42.488  14.512  13.100
47141W        W19456  21.147  20.628   4.095
47142W        W19457  32.678  36.444  13.226
47143W        W19458  39.552  27.019   2.376
47144W        W19459   1.859  37.696  10.410
47145W        W19460  34.045  17.735   4.324
47146W        W19461  18.043  28.523   0.219
47147W        W19462  44.784  15.798  10.393
47148W        W19463  26.722   6.412  10.217
47149W        W19464   0.464   9.742  12.454
47150W        W19465  26.726   6.711   2.872
47151W        W19466  26.186  13.301  14.396
47152W        W19467  32.616   8.144   1.012
47153W        W19468  40.540   3.659   0.070
47154W        W19469  12.400  35.360  12.825
47155W        W19470  22.465   3.474   0.722
47156W        W19471  32.990  33.108   2.690
47157W        W19472   3.278   7.957  12.562
47158W        W19473  12.466  37.445   1.977
47159W        W19474  10.018  13.871  14.265
47160W        W19475  33.687   5.131   4.749
47161W        W19476  13.690  21.516  12.935
47162W        W19477  18.687  10.308   0.302
47163W        W19478  27.371   8.924  11.898
47164W        W19479   8.797  15.517   1.371
47165W        W19480  21.914   9.730  11.854
47166W        W19481   5.470  42.772  13.897
47167W        W19482  34.496  24.032   3.923
47168W        W19483  13.419  39.014  11.550
47169W        W19484  28.201  20.121   3.741
47170W        W19485   4.002  14.628  11.156
47171W        W19486   6.588  25.466  14.729
47172W        W19487   7.317  41.536   2.837
47173W        W19488  18.757  25.632   4.619
47174W        W19489  21.190   8.308  12.578
47175W        W19490  37.918  34.566  14.694
47176W        W19491  31.949  35.150  11.708
47177W        W19492  28.072  13.266  12.600
47178W        W19493  37.434   3.718   4.581
47179W        W19494  30.235  27.107  11.504
47180W        W19495  28.811  13.167  14.466
47181W        W19496  18.880  17.418  11.561
47182W        W19497  43.328   1.649  11.504
47183W        W19498  37.140  13.717   0.283
47184W        W19499  22.991  21.339  14.019
47185W        W19500  16.306  35.936  14.319
47186W        W19501  23.326  32.250  11.583
47187W        W19502  32.091  28.965  11.700
47188W        W19503  16.263  22.565   3.887
47189W        W19504  21.359  22.667   4.439
47190W        W19505   8.175  23.320  13.342
47191W        W19506  33.137  16.165  10.513
47192W        W19507   8.991  44.825   0.733
47193W        W19508  26.025  38.355  12.785
47194W        W19509  35.303  28.005   1.784
47195W        W19510   0.036  30.595   5.095
47196W        W19511  25.046  28.958   1.377
47197W        W19512  41.642   5.486   3.720
47198W        W19513  28.622  17.577   4.845
47199W        W19514  12.685  17.988   0.751
47200W        W19515  17.415  24.664   2.962
47201W        W19516  19.743  24.597   4.640
47202W        W19517  33.061   8.930   0.759
47203W        W19518   9.615   7.092  12.011
47204W        W19519  31.860  25.490   2.577
47205W        W19520  21.016   0.422   1.707
47206W        W19521  44.510   3.705   3.319
47207W        W19522  10.436  29.913  14.020
47208W        W19523  19.688  29.422   3.876
47209W        W19524  36.960   0.626   4.122
47210W        W19525  27.648  33.308  14.609
47211W        W19526   3.618  44.405   4.776
47212W        W19527  30.841  41.427   3.167
47213W        W19528   6.380  32.904  13.758
47214W        W19529  38.838  20.343   1.978
47215W        W19530  20.853  41.576   3.707
47216W        W19531   0.889  12.901   3.296
47217W        W19532  14.119   3.215   2.150
47218W        W19533  16.778  39.829  14.908
47219W        W19534   6.435  39.487   0.550
47220W        W19535  28.701  32.497   4.668
47221W        W19536  10.181  24.223  12.367
47222W        W19537  39.075  13.788  13.136
47223W        W19538  23.922   5.147  12.930
47224W        W19539   3.869  36.034  14.487
47225W        W19540  27.980  30.568   3.069
47226W        W19541  27.039  37.419  11.193
47227W        W19542  34.995  23.909   4.052
47228W        W19543  29.093  35.450   4.568
47229W        W19544  30.562   5.450   1.841
47230W        W19545   2.444  28.695  12.581
47231W        W19546  31.516  23.135  13.004
47232W        W19547  25.729  44.007   0.385
47233W        W19548  15.033  31.669   4.332
47234W        W19549   5.340   6.912   2.865
47235W        W19550  21.516   6.159   0.276
47236W        W19551  11.368  38.395   1.222
47237W        W19552  25.613  23.747  14.801
47238W        W19553   9.884   4.713  12.028
47239W        W19554  39.593  12.260  10.338
47240W        W19555  31.284  36.861   3.489
47241W        W19556  36.886  40.047   1.361
47242W        W19557  39.072  32.902  10.736
47243W        W19558  39.088  42.027  14.346
47244W        W19559  44.656  19.562  10.448
47245W        W19560  41.323  25.908  13.986
47246W        W19561  11.185  10.443   4.141
47247W        W19562   8.105   0.877   2.847
47248W        W19563  14.568  40.884   4.137
47249W        W19564  29.461  43.307   1.720
47250W        W19565  35.358  39.535  11.392
47251W        W19566   6.092  30.632  13.132
47252W        W19567  43.871  15.391  13.284
47253W        W19568  44.103  19.947   1.171
47254W        W19569  17.238  31.273   5.580
47255W        W19570  28.269   4.798   2.671
47256W        W19571   9.367   3.967  14.544
47257W        W19572  31.709   4.929  11.516
47258W        W19573  19.981   0.394  13.410
47259W        W19574  31.394  38.480  11.610
47260W        W19575   8.465   5.692  14.567
47261W        W19576  34.286   0.672   1.828
47262W        W19577  28.887  17.499  12.883
47263W        W19578  10.990  33.462   1.707
47264W        W19579   8.328  26.190  14.729
47265W        W19580  12.655  41.215  13.076
47266W        W19581  19.717  15.255   2.783
47267W        W19582  40.579  44.432  14.444
47268W        W19583  15.725  43.899  13.054
47269W        W19584   1.732  40.427  11.151
47270W        W19585  13.170  12.919   4.097
47271W        W19586  27.723   0.575  12.091
47272W        W19587  30.619   0.360  14.595
47273W        W19588   0.718   2.923  13.015
47274W        W19589  36.940  10.301  14.970
47275W        W19590  26.433   8.145   2.398
47276W        W19591  34.222  17.315   2.342
47277W        W19592  22.101  43.059   2.837
47278W        W19593   2.430  10.667  10.150
47279W        W19594  15.453  21.477  11.552
47280W        W19595   4.481  33.039   2.123
47281W        W19596   2.516  34.154   2.289
47282W        W19597  41.957   9.430  12.018
47283W        W19598   2.736  30.073   2.361
47284W        W19599   3.255  16.658  13.456
47285W        W19600  11.182  38.399   0.248
47286W        W19601  11.164   7.156   1.136
47287W        W19602   1.988  23.518   3.093
47288W        W19603  35.966  22.227   1.094
47289W        W19604  23.729  32.298   9.948
47290W        W19605  10.325   1.932  14.891
47291W        W19606   2.488  10.426   2.448
47292W        W19607  42.985   7.371   2.260
47293W        W19608  14.348  35.309   0.497
47294W        W19609  10.409  33.955  14.311
47295W        W19610   9.606  20.535  13.918
47296W        W19611  19.950  36.778   4.256
47297W        W19612  14.750  43.525   2.446
47298W        W19613   1.901   2.442  11.671
47299W        W19614  10.341  43.560   4.137
47300W        W19615  36.834  44.572   4.065
47301W        W19616  25.495  43.792   0.819
47302W        W19617  24.934  23.506   0.825
47303W        W19618   8.896   8.575  14.565
47304W        W19619  26.762   0.869  10.721
47305W        W19620  13.223  15.301  14.508
47306W        W19621   8.143  20.015  13.291
47307W        W19622  34.416  15.735  12.399
47308W        W19623  19.057  12.383  13.924
47309W        W19624   7.381   4.342  13.819
47310W        W19625  30.393   4.437   2.407
47311W        W19626  44.253  38.514  10.692
47312W        W19627  25.536  42.264   0.037
47313W        W19628  37.453   4.840  11.893
47314W        W19629  18.991   9.807  12.876
47315W        W19630  18.087  26.948  10.597
47316W        W19631  30.982   8.885   3.122
47317W        W19632  40.485   8.174   3.316
47318W        W19633  10.231  12.585   4.457
47319W        W19634  31.417  22.178  12.923
47320W        W19635   7.059  39.947  14.849
47321W        W19636  31.609  35.109   2.145
47322W        W19637  34.894  29.626  12.807
47323W        W19638   5.401  42.651   1.819
47324W        W19639  26.020  16.379   3.656
47325W        W19640  19.264  20.318  11.910
47326W        W19641  30.701   1.796  10.397
47327W        W19642  15.832  28.331  10.237
47328W        W19643  27.577  31.385   1.933
47329W        W19644   8.700   4.880   3.741
47330W        W19645  22.535   8.218  13.299
47331W        W19646  43.933  18.691  12.928
47332W        W19647  33.724  26.468  12.897
47333W        W19648  20.899  35.908  11.144
47334W        W19649   1.599   7.211  12.340
47335W        W19650   6.999  32.490  14.382
47336W        W19651   2.858  32.304   1.113
47337W        W19652  21.496  27.682   2.255
47338W        W19653   0.958  13.084   0.947
47339W        W19654  18.823  40.738  13.557
47340W        W19655  41.317   9.321   0.789
47341W        W19656  30.927  22.292  10.527
47342W        W19657  15.839  14.979  11.982
47343W        W19658  36.134  13.160   1.766
47344W        W19659  35.498   3.983   0.414
47345W        W19660  21.687   2.193   1.264
47346W        W19661  11.646   7.706  10.787
47347W        W19662  20.345  35.872   4.904
47348W        W19663  32.558  37.657   2.263
47349W        W19664  20.108  15.549  11.557
47350W        W19665  20.282  10.194  10.367
47351W        W19666   0.693   8.127  11.086
47352W        W19667  17.590  26.643   3.317
47353W        W19668   0.692  16.616  12.520
47354W        W19669  27.228   8.946   3.166
47355W        W19670  13.130  16.767   1.917
47356W        W19671   5.301  42.512   0.697
47357W        W19672  25.217  20.938  13.954
47358W        W19673   3.184  16.855   4.145
47359W        W19674  24.165  17.343  14.681
47360W        W19675  38.407  34.581   0.354
47361W        W19676  37.570   7.922   4.685
47362W        W19677  39.012  39.476  14.780
47363W        W19678  32.257  29.972   3.978
47364W        W19679  17.265  33.663   1.861
47365W        W19680  25.435   1.308  12.849
47366W        W19681  41.167   4.834   3.844
47367W        W19682  15.561  10.779  14.427
47368W        W19683  33.087  32.923  13.874
47369W        W19684  34.889  15.938  10.736
47370W        W19685  23.980   1.823   4.616
47371W        W19686  28.945  19.195   2.813
47372W        W19687   7.932  44.773   0.833
47373W        W19688  20.343  21.579  14.554
47374W        W19689   4.990  24.207   0.591
47375W        W19690  42.623  24.251   0.886
47376W        W19691  22.789  34.582  12.943
47377W        W19692  28.940   0.397  11.996
47378W        W19693  26.171  16.540   4.126
47379W        W19694  37.468  27.586  11.229
47380W        W19695  33.479  15.219   1.041
47381W        W19696  14.955  16.589   4.647
47382W        W19697  16.572  10.460  11.587
47383W        W19698   7.201  14.696  10.901
47384W        W19699   4.353  16.279  11.182
47385W        W19700  22.685  36.429  14.004
47386W        W19701   1.576  38.633   1.709
47387W        W19702  38.037  18.499   1.403
47388W        W19703  23.196  24.712  12.404
47389W        W19704   3.704  33.156   2.738
47390W        W19705   7.981  38.530   1.299
47391W        W19706  21.830   4.821  13.084
47392W        W19707  33.527  36.837  11.906
47393W        W19708  38.401  30.930   4.662
47394W        W19709  21.572  21.946   2.449
47395W        W19710   4.276  23.593  14.815
47396W        W19711   3.304  35.481   1.185
47397W        W19712  33.422  29.367   0.294
47398W        W19713   5.284   4.204  11.271
47399W        W19714  34.115  29.048   1.193
47400W        W19715   3.281  44.793   3.188
47401W        W19716  15.543  11.330   1.762
47402W        W19717  39.317  34.572   0.050
47403W        W19718  14.852  40.836   1.446
47404W        W19719  27.576  42.539   4.628
47405W        W19720  22.471  16.036   1.206
47406W        W19721  21.396  34.501   4.079
47407W        W19722  17.245  33.432   0.925
47408W        W19723  15.321  34.411   2.152
47409W        W19724  19.169  10.862   0.789
47410W        W19725  37.881  27.097  12.368
47411W        W19726   8.145   3.151   1.294
47412W        W19727  12.192  28.891   4.047
47413W        W19728  17.656  35.621   3.961
47414W        W19729  28.892   9.729   1.217
47415W        W19730  27.871   7.019  11.448
47416W        W19731  38.337   5.281   0.235
47417W        W19732  40.071   7.393   3.153
47418W        W19733  42.353  43.099  11.020
47419W        W19734  39.535   6.775  13.282
47420W        W19735  37.281  17.326   0.865
47421W        W19736   0.254  34.105   9.938
47422W        W19737  34.165   9.941   3.329
47423W        W19738  16.609  22.360  12.597
47424W        W19739   6.714  21.581   4.202
47425W        W19740  21.019   5.232   0.881
47426W        W19741  13.696   2.929  13.403
47427W        W19742  12.192  28.753   3.352
47428W        W19743   1.295  17.348   4.494
47429W        W19744  39.978  16.804   0.387
47430W        W19745  11.292  13.755  12.098
47431W        W19746  35.296  44.649   3.264
47432W        W19747  15.349  19.651  11.207
47433W        W19748  12.205  18.170   0.869
47434W        W19749  22.126   9.534  10.337
47435W        W19750  38.645  18.188  13.513
47436W        W19751  16.944  36.974   1.324
47437W        W19752   6.910  23.960   2.061
47438W        W19753  22.156  28.177   2.777
47439W        W19754  13.350  43.423  10.663
47440W        W19755   5.225  24.026   4.718
47441W        W19756  31.366  33.627   1.669
47442W        W19757  31.330   3.444  10.644
47443W        W19758   5.654  12.178  14.006
47444W        W19759  29.116  13.159  11.577
47445W        W19760   7.769  21.563   3.103
47446W        W19761  43.098  13.070  12.116
47447W        W19762  25.534  15.073  11.613
47448W        W19763  19.561  43.214  11.153
47449W        W19764   3.725  11.761   3.419
47450W        W19765  44.792  25.914   0.057
47451W        W19766  34.670  35.012   2.747
47452W        W19767   1.990  32.908   1.278
47453W        W19768  18.711  36.112  13.897
47454W        W19769  13.617  12.722  14.010
47455W        W19770  20.802  19.631  10.573
47456W        W19771  31.840  19.739  14.703
47457W        W19772  11.204  43.938   2.810
47458W        W19773  37.545  39.993  10.701
47459W        W19774  29.763  42.106  13.826
47460W        W19775   2.409  44.536   4.131
47461W        W19776  35.546  29.560  11.486
47462W        W19777  12.113  10.234   0.315
47463W        W19778  17.033  35.023  11.619
47464W        W19779  22.455  40.010  11.957
47465W        W19780  23.419  27.547  11.587
47466W        W19781   0.065  44.016  13.960
47467W        W19782   4.169  11.674   3.171
47468W        W19783  35.937  29.147   4.789
47469W        W19784  29.889  28.476   2.758
47470W        W19785  44.749   2.342   4.165
47471W        W19786  43.902  36.925  14.941
47472W        W19787  32.829  36.429  14.788
47473W        W19788  29.142  44.526  12.372
47474W        W19789  26.106   9.110   1.327
47475W        W19790  35.022  39.477   0.287
47476W        W19791  27.648   1.426  14.888
47477W        W19792  11.248  27.218  12.630
47478W        W19793  23.698  22.022  11.675
47479W        W19794  22.779   1.756   0.797
47480W        W19795  39.097  44.335  12.698
47481W        W19796  18.336   3.381   4.130
47482W        W19797  28.571  42.733   0.071
47483W        W19798  26.023  33.918  11.981
47484W        W19799  11.720  29.443   3.625
47485W        W19800  16.274  35.389  11.196
47486W        W19801   1.688  23.022   0.469
47487W        W19802   4.165  37.122   0.874
47488W        W19803   3.870  22.650  12.017
47489W        W19804   1.676  20.104  12.916
47490W        W19805  14.592  13.985   4.157
47491W        W19806  27.966   4.493   3.953
47492W        W19807  43.800  21.521   0.819
47493W        W19808   8.860  36.902  10.709
47494W        W19809  33.069  23.579   0.997
47495W        W19810  26.441  13.557   4.225
47496W        W19811   8.328   5.990   1.748
47497W        W19812  23.031  42.942  12.864
47498W        W19813   6.047  30.142   3.344
47499W        W19814  33.068  43.849  11.828
47500W        W19815  26.629  35.420   2.533
47501W        W19816  21.782  34.105   3.876
47502W        W19817  14.027  30.153  11.144
47503W        W19818   0.639  17.579  13.578
47504W        W19819  14.143  29.893  13.848
47505W        W19820  28.072  33.155   4.611
47506W        W19821   9.663  28.575  13.399
47507W        W19822   5.987  29.564  13.154
47508W        W19823  14.763   7.293   4.755
47509W        W19824  15.589  32.864   1.336
47510W        W19825   3.706  13.721   3.963
47511W        W19826   5.446  22.588   3.644
47512W        W19827   1.661  38.082   1.661
47513W        W19828  25.573  16.635   4.609
47514W        W19829  20.775  41.046  13.332
47515W        W19830  14.842  44.258  14.466
47516W        W19831  13.783  38.904  14.502
47517W        W19832  16.230  43.275  14.509
47518W        W19833  15.015  24.078   3.588
47519W        W19834  13.633  42.762   9.757
47520W        W19835   9.445   4.761  12.966
47521W        W19836  12.100   2.957   0.013
47522W        W19837  28.808  21.219  14.347
47523W        W19838  13.710  20.069   2.672
47524W        W19839   0.692  35.556   3.355
47525W        W19840  18.824  35.881   3.112
47526W        W19841  25.163  14.986   4.146
47527W        W19842  36.432  42.862  12.091
47528W        W19843  21.647  31.318   0.361
47529W        W19844  30.670  44.321   2.284
47530W        W19845  39.617  39.561   3.503
47531W        W19846  10.272  10.329  11.276
47532W        W19847   6.914  29.947   3.694
47533W        W19848  44.439  28.210   3.727
47534W        W19849  12.854   7.238   4.389
47535W        W19850  42.025   4.960  13.804
47536W        W19851  23.536  15.573  13.460
47537W        W19852  15.692  30.062  14.345
47538W        W19853  30.600  33.633  13.131
47539W        W19854  13.843  40.470   4.502
47540W        W19855  30.944  39.868   3.063
47541W        W19856  34.035   3.773   3.798
47542W        W19857  25.485   7.470   5.056
47543W        W19858  33.100  26.375  10.669
47544W        W19859   8.450  18.174  14.907
47545W        W19860  19.374  30.132   2.789
47546W        W19861   2.724  24.623  11.776
47547W        W19862  22.816  10.299   3.312
47548W        W19863  30.609  19.819   0.676
47549W        W19864  44.712  29.474  12.534
47550W        W19865  23.008  27.392  12.972
47551W        W19866  28.855   0.079  14.460
47552W        W19867  44.959   1.209  11.054
47553W        W19868  34.843  16.750  14.925
47554W        W19869  23.960  13.558  14.016
47555W        W19870  10.695   0.836   1.281
47556W        W19871  15.494  17.770   1.230
47557W        W19872  21.602  43.985   2.178
47558W        W19873  17.235  24.741   3.446
47559W        W19874  10.574   5.667  12.573
47560W        W19875  36.323  19.172   1.201
47561W        W19876  32.506   2.797   2.591
47562W        W19877  23.250  12.879  11.218
47563W        W19878  16.563  20.756   1.233
47564W        W19879  34.820  24.046  14.436
47565W        W19880   7.737  12.643  10.344
47566W        W19881  22.351  44.456   1.149
47567W        W19882  43.979  36.359   2.838
47568W        W19883  17.595  36.392  14.366
47569W        W19884  12.329   3.315   4.863
47570W        W19885  33.154  26.799   3.639
47571W        W19886   6.878  16.622   3.211
47572W        W19887  33.298  24.633  14.929
47573W        W19888  18.683  32.451   3.532
47574W        W19889  39.300  31.611   2.286
47575W        W19890  21.453   0.296   1.929
47576W        W19891  35.584  36.020  12.233
47577W        W19892  16.844  10.774  13.950
47578W        W19893  25.898  10.151  10.799
47579W        W19894  39.263   6.572   1.814
47580W        W19895   6.224  11.732   0.283
47581W        W19896  33.175  35.484  13.816
47582W        W19897  16.740  10.149   4.143
47583W        W19898  10.230  34.391  10.968
47584W        W19899  27.733  35.894   3.774
47585W        W19900  24.130   4.421  13.622
47586W        W19901  14.742  19.915   0.799
47587W        W19902   2.700  19.840  14.441
47588W        W19903  22.577   5.427   1.723
47589W        W19904  43.042  38.567   0.506
47590W        W19905   5.910  25.898   2.338
47591W        W19906  12.714  15.666   3.963
47592W        W19907  37.919  43.098   4.629
47593W        W19908  23.030  14.181   1.218
47594W        W19909  10.195   7.146   3.695
47595W        W19910  11.929   0.323  11.585
47596W        W19911  29.724  34.524   1.174
47597W        W19912   3.318   9.813   2.336
47598W        W19913  14.861  18.805  11.565
47599W        W19914  20.788  31.684  11.285
47600W        W19915  29.879  26.134  11.878
47601W        W19916  24.439  13.627   2.333
47602W        W19917  41.377  11.403   1.729
47603W        W19918  43.040  14.609   0.248
47604W        W19919  34.488   3.068  12.443
47605W        W19920  22.970   6.786   4.716
47606W        W19921  21.134  31.629  13.877
47607W        W19922  40.480  32.344  11.476
47608W        W19923  30.107  36.105   0.943
47609W        W19924   8.387  25.535   2.233
47610W        W19925  28.995  14.159  11.994
47611W        W19926   0.119  38.845  11.631
47612W        W19927  38.018  27.173   3.141
47613W        W19928   4.961   6.349   2.359
47614W        W19929  18.665  18.596   2.786
47615W        W19930  40.511  41.838   4.928
47616W        W19931  22.875   4.950  13.048
47617W        W19932  26.617  32.027   4.109
47618W        W19933  42.013   4.905  14.654
47619W        W19934  23.951  15.271  13.443
47620W        W19935  42.046  41.926   3.161
47621W        W19936  23.449  24.773  13.429
47622W        W19937  11.895  37.329   1.263
47623W        W19938  25.947  17.706   0.252
47624W        W19939  15.131   2.138  14.783
47625W        W19940  22.091  24.057  14.612
47626W        W19941   2.749  37.407  11.599
47627W        W19942  44.554  23.749  11.285
47628W        W19943  19.665  24.625  12.426
47629W        W19944  28.669  14.281   3.109
47630W        W19945  14.558  14.377  11.176
47631W        W19946   7.105   8.897   0.997
47632W        W19947  34.106  24.220   1.233
47633W        W19948  35.130  44.238  14.599
47634W        W19949   5.771  38.460  13.831
47635W        W19950  38.143  37.779   4.634
47636W        W19951  27.199  33.215   4.583
47637W        W19952  37.605  24.061   4.684
47638W        W19953  29.944  29.649  13.190
47639W        W19954  39.103   2.357  14.237
47640W        W19955  44.787  32.308  10.784
47641W        W19956  38.088   9.888   0.322
47642W        W19957  29.065   3.867  12.458
47643W        W19958  20.472  27.286  14.251
47644W        W19959   8.659   8.465   3.701
47645W        W19960  42.476  33.078   4.684
47646W        W19961  39.517   0.256   4.548
47647W        W19962  11.171  24.431  10.643
47648W        W19963  33.328  41.537   2.923
47649W        W19964  18.004  28.906   3.568
47650W        W19965   7.161   6.903  10.909
47651W        W19966  28.177  21.109  12.698
47652W        W19967   3.420  34.412   3.220
47653W        W19968  19.013  37.431  13.289
47654W        W19969   3.644  36.918   0.935
47655W        W19970  34.035  24.221  11.811
47656W        W19971  25.449  20.920  13.394
47657W        W19972  43.765  25.286   4.273
47658W        W19973  31.581  29.031  11.622
47659W        W19974  44.512  30.704   4.998
47660W        W19975   2.905  36.563  12.935
47661W        W19976  39.805  25.857   1.853
47662W        W19977  38.616   9.243   2.281
47663W        W19978  35.485  29.658  13.951
47664W        W19979  13.136   2.218   4.592
47665W        W19980  22.183  13.922  14.862
47666W        W19981  34.437  42.336   2.715
47667W        W19982  21.016  34.131  13.015
47668W        W19983  25.968   4.853  11.568
47669W        W19984  19.521   6.736  10.663
47670W        W19985  32.473  34.927   4.662
47671W        W19986  13.929  12.214   3.811
47672W        W19987  15.709  24.859   2.542
47673W        W19988  28.304  19.971   4.953
47674W        W19989  16.005  34.394   2.149
47675W        W19990  27.731  36.221   1.749
47676W        W19991  43.836  35.546   4.483
47677W        W19992  19.307  25.801   2.161
47678W        W19993  22.329   7.481  12.560
47679W        W19994  36.397  38.543  13.437
47680W        W19995  23.432  29.508   3.821
47681W        W19996  10.436   8.342   2.644
47682W        W19997  29.426  27.556  13.861
47683W        W19998  18.898   2.520  12.089
47684W        W19999  40.109  13.075  10.665
47685W        W20000  31.347  12.242   3.167
47686W        W20001   7.309  21.460  10.575
47687W        W20002   7.754  18.391   1.696
47688W        W20003  35.438  24.771   1.381
47689W        W20004  11.744  35.727  14.887
47690W        W20005  23.214  26.152   3.869
47691W        W20006   7.800  34.657  14.760
47692W        W20007  24.351  17.567   0.129
47693W        W20008  14.780   0.824  10.622
47694W        W20009   1.420  40.448  12.109
47695W        W20010  41.803  12.151  11.907
47696W        W20011  24.526  30.875  11.996
47697W        W20012   1.960   4.394   2.152
47698W        W20013  34.471  18.698  13.980
47699W        W20014  42.488  37.609   2.071
47700W        W20015  27.672  26.729   1.813
47701W        W20016  24.043   0.230   4.595
47702W        W20017  16.191  43.483   4.187
47703W        W20018   7.683   8.238  11.455
47704W        W20019  44.930  26.035  14.589
47705W        W20020  35.101  23.590  10.168
47706W        W20021  40.932  42.658   0.471
47707W        W20022  30.683  22.508   3.464
47708W        W20023   4.001  35.815   1.215
47709W        W20024   5.302   5.900  12.154
47710W        W20025  16.269  28.629   4.858
47711W        W20026  23.743  29.117   3.637
47712W        W20027   0.674  39.577   1.164
47713W        W20028  24.296  21.853  12.512
47714W        W20029  41.785  15.769   1.863
47715W        W20030  37.656   6.802  13.347
47716W        W20031   7.628  33.378  12.436
47717W        W20032  37.974  20.128  13.929
47718W        W20033  29.298  17.780   3.125
47719W        W20034  38.576  16.699  12.518
47720W        W20035  10.165  41.550   2.218
47721W        W20036  30.024  22.763  11.978
47722W        W20037  20.562  41.999  13.842
47723W        W20038  13.998  37.390  12.721
47724W        W20039   0.899  43.043  12.019
47725W        W20040  18.106  19.031   1.132
47726W        W20041   8.396  39.882  13.126
47727W        W20042   7.863   6.199  11.350
47728W        W20043   4.042  44.029   2.644
47729W        W20044  33.630  36.761  12.811
47730W        W20045  38.600  19.475  14.150
47731W        W20046  12.162  32.456  13.265
47732W        W20047  30.303   7.932  13.102
47733W        W20048  43.522  16.231   4.504
47734W        W20049  40.429  41.496  12.728
47735W        W20050  11.615  35.027   1.290
47736W        W20051   3.288  25.185   3.210
47737W        W20052   5.764  43.508  11.238
47738W        W20053  30.001  35.433   3.138
47739W        W20054  14.131  23.829  11.508
47740W        W20055  17.986  35.935   1.220
47741W        W20056  30.098  44.880  13.946
47742W        W20057  11.775  43.261   2.508
47743W        W20058  37.323  35.966   0.001
47744W        W20059  29.973  22.972   1.429
47745W        W20060  35.971  21.803   0.771
47746W        W20061  16.832   5.662  14.117
47747W        W20062  32.070  43.821  11.153
47748W        W20063  12.866  23.204  14.277
47749W        W20064  18.460  26.062   1.509
47750W        W20065  30.489   3.780   4.262
47751W        W20066   8.726  24.628  10.381
47752W        W20067  43.844   9.296  12.844
47753W        W20068  34.696  12.299   1.641
47754W        W20069  18.656  35.040   4.640
47755W        W20070  18.975  37.090  11.967
47756W        W20071   5.042  36.421   1.714
47757W        W20072  24.591  20.000  10.154
47758W        W20073   2.940   2.947   0.847
47759W        W20074  15.618   2.253  11.842
47760W        W20075  11.442  43.253  10.648
47761W        W20076  15.822  33.512  13.461
47762W        W20077  17.448  37.059   2.814
47763W        W20078  39.297   6.332  13.374
47764W        W20079   2.098  11.006   9.920
47765W        W20080   3.579   6.256   1.054
47766W        W20081  21.162  28.603   0.322
47767W        W20082  39.055  44.711   1.755
47768W        W20083  19.985  23.237   2.093
47769W        W20084  29.095  33.460  11.472
47770W        W20085  27.600   4.264  11.489
47771W        W20086   3.611  41.689  11.064
47772W        W20087  17.733  22.022  14.396
47773W        W20088   9.795   7.685   1.603
47774W        W20089   2.227  26.735  14.854
47775W        W20090  31.153  13.002   1.624
47776W        W20091   2.873  42.701  11.687
47777W        W20092  12.666  22.707   4.231
47778W        W20093  40.744  39.022   2.695
47779W        W20094  18.603  23.535  14.561
47780W        W20095  31.400   7.778  14.324
47781W        W20096  12.185  36.569   0.826
47782W        W20097   4.850   1.462   1.424
47783W        W20098  16.114  40.158   2.760
47784W        W20099  29.089  30.776  13.802
47785W        W20100  20.166  29.205  10.782
47786W        W20101   2.743  30.512  13.297
47787W        W20102  16.659  36.900   3.305
47788W        W20103  31.556  14.360  14.308
47789W        W20104  43.055  34.044  10.600
47790W        W20105  18.644  42.385   9.903
47791W        W20106  15.607  39.453   0.495
47792W        W20107  21.226  25.700   3.281
47793W        W20108  35.614  11.707   0.702
47794W        W20109  14.794  40.435  14.269
47795W        W20110   3.490  24.617  11.939
47796W        W20111  36.375   1.810  14.265
47797W        W20112  27.587   6.987   9.509
47798W        W20113  34.001  10.098   0.994
47799W        W20114  41.498  12.907  13.052
47800W        W20115  37.161  35.160  14.742
47801W        W20116  13.887  26.618  11.476
47802W        W20117   7.495  18.692  10.862
47803W        W20118  17.557  39.346  10.855
47804W        W20119  17.225   0.990  11.142
47805W        W20120  11.127  14.500  13.682
47806W        W20121  22.524   9.836  10.437
47807W        W20122   1.893  10.013   3.687
47808W        W20123  33.205  18.727  12.014
47809W        W20124  25.068   5.932   2.594
47810W        W20125  18.943  35.441  14.552
47811W        W20126  39.215  14.809   0.830
47812W        W20127  20.651   0.349  11.701
47813W        W20128  31.810  19.190   3.853
47814W        W20129   9.644  36.047   3.143
47815W        W20130  22.550   3.236  14.851
47816W        W20131  31.967  42.034  14.429
47817W        W20132  43.890  27.512   2.276
47818W        W20133  22.335  40.248   5.066
47819W        W20134  10.951  32.410   0.466
47820W        W20135   7.494  19.053  14.406
47821W        W20136  12.646  11.864  10.863
47822W        W20137  43.206  10.268   0.979
47823W        W20138   9.686  38.095   2.429
47824W        W20139   6.410   8.336  10.746
47825W        W20140   7.278  33.362  12.015
47826W        W20141  43.415  23.401  13.163
47827W        W20142  33.196  28.949   0.067
47828W        W20143  31.862   6.842  14.462
47829W        W20144  19.012  40.151  10.322
47830W        W20145  32.507  29.004  14.928
47831W        W20146   3.459   1.968  11.380
47832W        W20147  43.579  43.347   2.385
47833W        W20148  13.901  26.618   1.683
47834W        W20149  35.051   4.705   1.400
47835W        W20150  37.243  38.162   3.676
47836W        W20151  44.919  27.465  12.290
47837W        W20152  32.445  26.051  12.485
47838W        W20153  30.314  21.993  11.514
47839W        W20154  10.824  33.842  12.252
47840W        W20155   5.463  42.434  13.409
47841W        W20156  19.305  38.114  14.045
47842W        W20157  16.709   3.948   4.618
47843W        W20158   7.150  42.369   1.784
47844W        W20159  37.277  29.180   3.327
47845W        W20160  25.453   8.452   4.685
47846W        W20161  23.435  20.641  14.001
47847W        W20162   6.749  22.642  12.596
47848W        W20163  31.351  37.533  10.610
47849W        W20164  36.055  15.174   4.552
47850W        W20165   0.438  18.524  12.195
47851W        W20166  44.782   1.519  13.861
47852W        W20167  38.547   1.770   1.067
47853W        W20168  13.590  31.211   0.876
47854W        W20169  39.484  12.553   2.567
47855W        W20170  34.962   7.961  14.220
47856W        W20171  14.146  28.238  14.480
47857W        W20172  44.467  20.703  14.757
47858W        W20173  28.939  22.563  11.240
47859W        W20174   5.806  33.906   4.707
47860W        W20175  15.631  14.718   0.513
47861W        W20176   5.177  43.462   4.706
47862W        W20177  22.621  20.790  12.822
47863W        W20178  18.487   6.681   4.265
47864W        W20179   3.981  12.808  13.352
47865W        W20180  32.974   3.408  10.636
47866W        W20181  13.218  12.140  13.103
47867W        W20182   3.264  21.758  11.981
47868W        W20183   5.487   0.422  10.783
47869W        W20184  22.379   1.902   3.417
47870W        W20185  41.531   1.471  10.470
47871W        W20186   9.201  10.826   4.211
47872W        W20187   6.648  43.373  12.319
47873W        W20188  11.570  21.830  10.967
47874W        W20189  26.282  27.635  14.552
47875W        W20190  33.818  35.265   1.049
47876W        W20191  16.363   8.955  11.623
47877W        W20192  25.764   5.282  14.413
47878W        W20193  24.677  24.262   3.305
47879W        W20194  30.019   5.732   2.919
47880W        W20195   9.617  23.538   0.377
47881W        W20196   2.222  37.825  13.415
47882W        W20197   9.625  23.642   4.926
47883W        W20198  19.944  28.630   3.832
47884W        W20199   9.200  41.895  13.412
47885W        W20200  35.486   9.325   1.488
47886W        W20201  44.611  15.326   0.759
47887W        W20202  39.912  43.434   2.666
47888W        W20203   2.522  30.890   2.793
47889W        W20204  29.426  18.236  12.233
47890W        W20205   0.036  32.186   3.162
47891W        W20206  11.190   4.678   0.391
47892W        W20207  14.785   8.916   0.426
47893W        W20208  37.097  33.311   0.356
47894W        W20209   3.142  40.305  10.729
47895W        W20210   1.743  40.953   4.143
47896W        W20211  20.689  26.711   0.624
47897W        W20212  17.229  39.826   4.076
47898W        W20213  14.624  35.733   1.180
47899W        W20214  30.856  34.379   4.132
47900W        W20215   4.172  23.563  12.015
47901W        W20216  42.290   2.069   1.668
47902W        W20217  30.485   0.506  12.062
47903W        W20218  44.836   2.928   2.880
47904W        W20219   7.072   3.359   0.432
47905W        W20220  12.495  20.651   3.158
47906W        W20221  28.406   6.204  12.118
47907W        W20222  30.055  22.592   2.782
47908W        W20223  24.943  40.122  13.383
47909W        W20224  27.079  35.503  14.302
47910W        W20225  25.061   0.358   2.100
47911W        W20226  36.449  13.866  12.201
47912W        W20227  19.326  42.007  12.229
47913W        W20228  23.713  18.269   0.414
47914W        W20229  19.052  14.659   4.358
47915W        W20230  32.591   0.047   3.135
47916W        W20231  11.066   6.130  11.661
47917W        W20232   1.152   5.419   1.867
47918W        W20233  24.678   0.797  14.876
47919W        W20234  16.395   0.076  14.098
47920W        W20235  24.166  41.562  14.399
47921W        W20236  35.168  27.050   4.732
47922W        W20237   5.916   7.438   2.278
47923W        W20238  42.417  13.318  14.406
47924W        W20239   8.364  24.668   4.100
47925W        W20240  26.521   3.344   0.049
47926W        W20241   3.423   1.919  14.343
47927W        W20242  41.901  21.064  14.371
47928W        W20243  29.928   4.277   1.468
47929W        W20244  34.546  44.201   1.792
47930W        W20245  15.020  34.478  14.192
47931W        W20246  35.459  19.158   1.246
47932W        W20247   2.024  32.180  14.367
47933W        W20248   4.325  41.801   1.748
47934W        W20249  43.798   0.336   1.376
47935W        W20250   0.481  44.844   3.864
47936W        W20251  37.005  30.145  14.806
47937W        W20252  34.880  14.614   1.692
47938W        W20253   8.692   6.205   3.825
47939W        W20254  33.655  41.966  13.409
47940W        W20255  29.486  12.175  13.385
47941W        W20256  12.251  10.312   1.821
47942W        W20257  11.017  36.888   1.362
47943W        W20258   5.117  39.812  10.057
47944W        W20259  16.183   4.454   0.709
47945W        W20260   9.880  18.505  11.071
47946W        W20261  44.290  29.213  12.417
47947W        W20262  43.395   6.206  12.950
47948W        W20263  25.805   3.334   0.532
47949W        W20264  12.785   7.238  10.529
47950W        W20265  39.926  33.131   4.060
47951W        W20266  38.101  44.316  13.467
47952W        W20267  24.788  26.591  13.420
47953W        W20268  18.985  24.503   1.802
47954W        W20269   6.790  13.607  12.368
47955W        W20270   6.384   4.821  14.435
47956W        W20271  11.903  36.923   3.144
47957W        W20272  10.675  43.875  12.183
47958W        W20273   0.747  26.063   1.011
47959W        W20274  10.171  36.035   0.053
47960W        W20275  20.589  10.693  11.048
47961W        W20276   4.065  44.425   3.251
47962W        W20277  16.674  39.351  13.858
47963W        W20278   7.307   7.898   4.713
47964W        W20279  29.486  31.351  10.543
47965W        W20280  25.460  11.348   0.312
47966W        W20281   6.403  43.334  12.888
47967W        W20282   5.661  23.145  11.123
47968W        W20283  35.067  27.530  12.185
47969W        W20284  24.906  27.007  13.721
47970W        W20285  31.569  34.183  13.962
47971W        W20286   9.439  19.060  13.051
47972W        W20287  33.092  31.074   0.884
47973W        W20288  31.015  10.078  14.460
47974W        W20289  19.514  40.469   4.067
47975W        W20290  35.311   5.213  10.632
47976W        W20291  39.579   9.673  13.444
47977W        W20292  17.259   5.943  11.220
47978W        W20293  24.439  34.747  14.997
47979W        W20294  43.001  37.889  14.278
47980W        W20295  14.186  27.508   4.536
47981W        W20296  32.021  23.581  14.812
47982W        W20297  22.135  21.591  14.498
47983W        W20298  17.161   7.316  11.854
47984W        W20299  30.273  15.444   2.691
47985W        W20300   4.372  22.552   4.066
47986W        W20301  27.456   6.270  11.482
47987W        W20302   9.692  30.853  14.728
47988W        W20303  28.072   7.331  12.683
47989W        W20304  27.903  17.911  11.098
47990W        W20305   6.577  38.240   2.351
47991W        W20306  28.392  18.756  11.449
47992W        W20307  25.978  20.923   3.335
47993W        W20308   2.747  26.739  14.923
47994W        W20309  23.722  24.636   3.542
47995W        W20310  19.780  11.885   0.035
47996W        W20311  26.608  22.088  14.727
47997W        W20312  21.298  33.981   3.802
47998W        W20313   4.944   7.792  12.940
47999W        W20314  23.520  33.828   3.301
48000W        W20315  20.212  41.621  13.931
48001W        W20316  25.479  22.018  14.453
48002W        W20317  38.617  32.455  14.972
48003W        W20318   3.782  31.664  11.207
48004W        W20319  22.467  40.889   1.381
48005W        W20320  31.668  35.874  12.477
48006W        W20321  44.188   7.433  11.471
48007W        W20322   9.693  26.598  12.259
48008W        W20323  11.423  38.944  10.742
48009W        W20324  13.439  25.554  14.761
48010W        W20325  22.494  41.258  11.612
48011W        W20326   8.431   3.645  11.561
48012W        W20327   7.321   2.737  12.424
48013W        W20328  44.796   5.704  13.903
48014W        W20329  36.392   4.604   5.173
48015W        W20330  29.369  38.392  11.612
48016W        W20331  33.668  21.959  12.040
48017W        W20332  15.669  27.653  11.093
48018W        W20333  38.643  44.285   4.618
48019W        W20334  29.664  16.870   1.226
48020W        W20335  17.382  17.584   2.712
48021W        W20336  41.031   0.492  14.539
48022W        W20337  21.293  28.099  12.906
48023W        W20338  22.585  29.557   2.768
48024W        W20339  20.323   3.190   2.816
48025W        W20340  19.250  34.442   2.702
48026W        W20341  27.902   1.095   5.050
48027W        W20342   0.562  24.148   1.002
48028W        W20343   4.631  10.903  11.627
48029W        W20344  35.172  12.303  10.446
48030W        W20345  31.780  21.333  11.699
48031W        W20346  43.020  43.388  12.356
48032W        W20347  30.734  18.898   1.741
48033W        W20348  15.501  21.402   2.830
48034W        W20349  33.166  14.094  13.243
48035W        W20350   6.901  26.281  14.347
48036W        W20351  37.495  11.606   5.011
48037W        W20352  15.680   9.361   2.165
48038W        W20353  10.702   9.316   0.105
48039W        W20354   0.240  30.051  11.847
48040W        W20355   4.611  16.147  10.344
48041W        W20356  22.999  30.697   4.276
48042W        W20357  44.771   4.678  12.532
48043W        W20358   3.645  23.544  14.465
48044W        W20359  20.175  33.105   3.592
48045W        W20360  14.613  35.034  12.887
48046W        W20361   9.854  34.761   0.412
48047W        W20362  10.352  25.522  10.974
48048W        W20363   5.856  33.137  13.046
48049W        W20364  13.099  11.301  11.496
48050W        W20365  14.318   0.813  11.482
48051W        W20366  34.521   3.942   0.507
48052W        W20367   1.446  30.510  10.697
48053W        W20368  44.786  22.300   0.584
48054W        W20369  38.950   3.097   5.355
48055W        W20370  35.345  22.157  10.732
48056W        W20371   3.504   9.646   4.385
48057W        W20372  24.107  34.010  12.552
48058W        W20373  24.922  10.814  13.233
48059W        W20374  25.900   5.411  12.914
48060W        W20375  35.027  21.314  12.095
48061W        W20376  26.674  37.041  11.291
48062W        W20377  19.061   1.893  11.610
48063W        W20378  42.032  16.201   0.816
48064W        W20379  43.320  22.705  14.536
48065W        W20380  26.709  29.369  12.141
48066W        W20381  36.591  43.455   4.889
48067W        W20382  18.604  17.817  12.014
48068W        W20383   5.432  23.164  14.582
48069W        W20384   0.785  18.864  11.147
48070W        W20385  30.246  40.480  14.503
48071W        W20386  37.293  11.221   3.687
48072W        W20387  36.524  19.831   3.867
48073W        W20388  35.129  18.689   4.569
48074W        W20389   6.716  42.294   4.254
48075W        W20390  44.667   1.349   0.228
48076W        W20391   0.266  30.867   2.781
48077W        W20392   6.865   3.290  12.003
48078W        W20393  40.563  11.340   4.129
48079W        W20394   8.022  32.284   1.624
48080W        W20395  34.023  42.533  12.832
48081W        W20396  26.849  22.074  11.019
48082W        W20397  32.983   9.113  14.861
48083W        W20398  21.431   8.149   2.625
48084W        W20399  23.105  34.953   1.185
48085W        W20400   1.820  12.674  14.108
48086W        W20401   3.310  38.553  12.036
48087W        W20402  20.290   8.955  12.580
48088W        W20403  17.704   5.944  10.947
48089W        W20404   2.871   9.491  11.039
48090W        W20405  24.044   0.378   1.059
48091W        W20406  11.405   9.404   2.712
48092W        W20407  29.979  37.817   1.281
48093W        W20408  44.886  10.044   0.901
48094W        W20409  15.089   0.854  12.421
48095W        W20410  37.849   5.712  12.063
48096W        W20411  18.534   1.398  13.461
48097W        W20412  26.272  43.772   0.107
48098W        W20413   7.638  17.840   0.068
48099W        W20414  15.107  31.970  10.611
48100W        W20415  42.499  24.630   3.265
48101W        W20416   7.503   9.119  12.036
48102W        W20417  14.852  35.469  14.044
48103W        W20418   7.174  25.259  13.796
48104W        W20419   2.959  19.292  13.034
48105W        W20420  20.732  34.723   9.960
48106W        W20421  32.242  11.769  12.326
48107W        W20422  18.368  16.295   0.844
48108W        W20423  30.047  38.303  12.520
48109W        W20424  37.135  19.142  13.972
48110W        W20425  36.525  18.940   2.167
48111W        W20426  16.254  19.625  11.896
48112W        W20427  29.628  40.291   0.822
48113W        W20428   3.664  25.223   4.987
48114W        W20429  20.675  17.112   1.638
48115W        W20430  16.788  19.547   1.015
48116W        W20431  21.558  22.767   3.615
48117W        W20432  10.594  41.857  12.304
48118W        W20433  21.636  43.917   0.635
48119W        W20434  31.514  29.203   2.852
48120W        W20435  17.142  35.804   3.917
48121W        W20436  26.133  44.685  12.941
48122W        W20437  32.324   9.278   0.347
48123W        W20438  12.800  37.471  14.431
48124W        W20439  38.956  34.282  10.902
48125W        W20440  31.524  27.210   4.633
48126W        W20441  15.379  27.901  14.891
48127W        W20442   9.422  18.498   4.225
48128W        W20443  40.600   7.944  14.456
48129W        W20444  13.267  18.524   2.308
48130W        W20445   0.750  27.953  12.859
48131W        W20446  32.022  38.505   4.029
48132W        W20447   1.722  14.159   2.692
48133W        W20448  23.781   8.872  13.558
48134W        W20449  38.102  35.864   3.417
48135W        W20450   3.639  12.773   4.773
48136W        W20451  33.611  30.019   1.631
48137W        W20452  33.956  23.680  12.692
48138W        W20453  36.046  44.081   0.198
48139W        W20454   6.143  36.436  11.227
48140W        W20455  17.285  44.209   2.270
48141W        W20456  37.877  41.453  13.899
48142W        W20457  43.245  33.015  11.554
48143W        W20458   7.352   5.724   3.853
48144W        W20459  15.398  28.769  14.282
48145W        W20460   3.134  34.478   4.228
48146W        W20461  34.124  36.027   3.185
48147W        W20462  35.895  35.424   4.041
48148W        W20463  18.061  41.366  13.795
48149W        W20464  15.251  16.316   3.250
48150W        W20465   9.883  34.492  10.580
48151W        W20466  44.702  27.984  11.123
48152W        W20467  18.675   4.259   1.304
48153W        W20468  29.911  23.599   2.564
48154W        W20469  25.744  21.301  11.038
48155W        W20470   8.814  24.904   2.940
48156W        W20471  30.663   9.787   2.116
48157W        W20472  21.116  17.298   1.395
48158W        W20473   9.203  33.055   1.710
48159W        W20474   7.769   2.062  10.288
48160W        W20475  25.232  33.717  14.476
48161W        W20476  42.351   9.896  13.541
48162W        W20477  27.711  15.296   4.064
48163W        W20478  22.731  14.318   3.627
48164W        W20479  15.835  21.143   5.327
48165W        W20480  17.874  41.510   1.391
48166W        W20481  20.133  28.017  14.754
48167W        W20482  35.105  20.509  13.631
48168W        W20483  13.631  20.248  13.349
48169W        W20484  12.695  29.635   3.098
48170W        W20485  30.738   0.323  11.603
48171W        W20486  30.437  25.184  14.317
48172W        W20487   8.870   2.840   5.140
48173W        W20488  10.383   6.749   0.539
48174W        W20489  24.121   8.367   0.774
48175W        W20490   4.061  11.634  14.924
48176W        W20491  22.424   3.696   4.065
48177W        W20492  29.679  11.688  11.054
48178W        W20493  22.880   0.481  12.069
48179W        W20494   2.052  32.877  13.962
48180W        W20495   1.062  20.645   2.399
48181W        W20496  11.654   9.628   4.104
48182W        W20497   4.074  43.737   3.946
48183W        W20498  22.147  30.651  10.759
48184W        W20499  27.662  18.990   1.910
48185W        W20500  15.633  43.631  11.934
48186W        W20501  21.129  32.558   2.418
48187W        W20502  10.717  23.899  14.996
48188W        W20503  43.274  24.163  12.653
48189W        W20504  30.272   9.412  14.451
48190W        W20505  34.008  33.368  14.854
48191W        W20506  32.664  24.203  11.690
48192W        W20507  19.315   0.442  11.168
48193W        W20508  27.867  21.678  13.265
48194W        W20509  40.312  36.486   0.913
48195W        W20510  17.058  19.248   3.465
48196W        W20511  31.765  18.672  11.046
48197W        W20512   2.015  38.883  12.940
48198W        W20513  10.184   1.927  14.018
48199W        W20514  14.190  33.948   0.044
48200W        W20515   1.987   9.891  14.877
48201W        W20516  15.755  42.321   1.325
48202W        W20517  13.587  19.782  10.959
48203W        W20518   8.155   0.948  11.039
48204W        W20519  37.115   6.195  11.923
48205W        W20520  37.541  10.864   2.878
48206W        W20521  33.674  16.915   4.258
48207W        W20522  20.416  34.516   3.715
48208W        W20523  33.888  36.133   4.593
48209W        W20524  21.093  14.321  14.766
48210W        W20525  42.596  16.614   1.460
48211W        W20526  22.761   8.897   4.630
48212W        W20527  42.344  17.580  11.639
48213W        W20528  24.716  40.173  12.489
48214W        W20529  14.548  21.062  12.918
48215W        W20530   4.921   8.339  11.240
48216W        W20531  19.702  12.604  14.564
48217W        W20532  10.792  28.137   2.740
48218W        W20533  31.628  37.986  10.746
48219W        W20534  33.069   3.394   0.139
48220W        W20535  35.983  26.682   0.369
48221W        W20536  18.898  16.384  14.022
48222W        W20537  15.648  12.714   1.193
48223W        W20538  29.642   3.676   4.949
48224W        W20539  39.293  30.340  12.459
48225W        W20540   3.455   8.677   4.711
48226W        W20541  32.166  23.810   5.002
48227W        W20542   4.934   3.892   0.250
48228W        W20543   0.499  13.076   1.194
48229W        W20544  10.950  35.455  11.546
48230W        W20545  20.464  11.728  13.425
48231W        W20546   7.700  33.436  13.307
48232W        W20547  27.504  31.275   0.922
48233W        W20548  20.647  34.071   2.831
48234W        W20549  44.852  22.757   2.318
48235W        W20550  26.187  15.286  14.370
48236W        W20551  29.965  37.454   4.939
48237W        W20552  32.026  27.850  14.850
48238W        W20553  27.131   6.444  11.087
48239W        W20554   9.677  12.609   1.408
48240W        W20555  19.154  15.441  12.551
48241W        W20556  21.514   3.153  11.742
48242W        W20557  43.249  41.507   1.837
48243W        W20558  16.215  41.992   0.653
48244W        W20559   8.787  11.465  13.403
48245W        W20560   1.504  26.180   2.347
48246W        W20561  29.718  24.598  10.988
48247W        W20562  33.674  19.283   4.163
48248W        W20563  29.449  41.996   2.189
48249W        W20564  20.162   3.229  12.617
48250W        W20565  13.291  12.501  14.384
48251W        W20566  32.531  36.543   0.288
48252W        W20567  35.450   8.992  12.695
48253W        W20568   0.237  32.850   5.582
48254W        W20569  16.489  16.100  11.375
48255W        W20570  19.481  30.956  10.448
48256W        W20571  20.259  39.577   1.132
48257W        W20572  40.846  16.513  12.920
48258W        W20573  10.754  39.915  11.989
48259W        W20574   7.117  20.551  14.897
48260W        W20575  14.769  12.668  10.623
48261W        W20576  14.550  13.089   3.195
48262W        W20577   6.372  14.747  14.523
48263W        W20578  20.288  33.810  14.790
48264W        W20579  36.491  14.668  14.315
48265W        W20580  31.358  17.877  10.953
48266W        W20581  21.759  35.447   2.785
48267W        W20582  29.459  38.761  12.988
48268W        W20583   9.389  27.562  13.982
48269W        W20584   1.409  22.212   4.102
48270W        W20585  44.434  39.817   3.761
48271W        W20586  14.210  20.268   1.849
48272W        W20587  30.585   4.736  12.950
48273W        W20588  12.764  24.300  11.255
48274W        W20589  23.039  33.887   3.102
48275W        W20590  29.075  18.102  11.571
48276W        W20591  19.956  37.769   0.311
48277W        W20592  28.148  39.053  13.484
48278W        W20593   0.317  43.273  12.639
48279W        W20594  20.988   2.491  14.537
48280W        W20595  30.914   3.407   1.422
48281W        W20596   1.237  19.960  13.202
48282W        W20597   6.929  22.402  13.033
48283W        W20598   9.175   4.978  12.494
48284W        W20599   9.823  40.760  11.133
48285W        W20600  20.131  23.601   5.009
48286W        W20601  24.214   8.871   2.380
48287W        W20602  35.397   2.861   2.848
48288W        W20603  39.510  20.078   3.674
48289W        W20604  12.353  32.399   0.686
48290W        W20605  31.257  37.627  11.900
48291W        W20606  19.092   6.954  12.673
48292W        W20607  20.497   5.378  14.933
48293W        W20608  12.409  20.741   1.292
48294W        W20609   7.073   7.454  11.204
48295W        W20610  20.526   9.535   4.062
48296W        W20611   8.667  43.510   2.844
48297W        W20612  13.222  37.339   4.137
48298W        W20613  36.485  14.118  14.354
48299W        W20614  20.080  21.347  11.518
48300W        W20615  19.517  11.236  14.281
48301W        W20616  35.381   8.991  14.885
48302W        W20617  34.814  26.389   2.204
48303W        W20618   6.622  27.240   3.604
48304W        W20619  13.958  37.587   0.365
48305W        W20620  19.322  11.736   0.221
48306W        W20621  29.100  39.874  14.291
48307W        W20622  34.835  10.841  11.161
48308W        W20623  41.704  34.871   3.668
48309W        W20624  25.312   4.268  12.980
48310W        W20625  26.395   7.604   1.779
48311W        W20626  42.851  30.136   3.493
48312W        W20627  16.354  13.649  12.938
48313W        W20628  20.817   4.613  11.562
48314W        W20629  28.731  32.127   0.024
48315W        W20630  41.440  35.778  12.863
48316W        W20631  39.439  36.242   2.245
48317W        W20632  40.027  16.361  14.278
48318W        W20633  34.083  31.387   1.754
48319W        W20634   5.930  28.499  13.152
48320W        W20635  31.657  35.380   0.431
48321W        W20636  31.109  14.121  14.440
48322W        W20637  10.186  32.069   1.797
48323W        W20638  27.978  25.584   0.860
48324W        W20639  43.848  29.543   2.028
48325W        W20640  30.564  11.809   1.735
48326W        W20641   4.089  26.962   1.839
48327W        W20642  34.421  21.487  10.734
48328W        W20643  12.919   8.597  13.409
48329W        W20644  32.163   6.686  10.780
48330W        W20645  14.655   9.796   3.183
48331W        W20646   8.021  18.195   5.036
48332W        W20647  26.526   1.520   2.320
48333W        W20648   3.337   6.965   3.109
48334W        W20649  36.564  24.455   0.377
48335W        W20650   9.835   1.010   3.617
48336W        W20651  23.454  33.041  13.992
48337W        W20652  30.918  28.101  13.946
48338W        W20653   1.467   8.882  13.436
48339W        W20654  11.675  37.896   0.522
48340W        W20655  24.564  33.474   4.850
48341W        W20656   5.741   4.402  11.141
48342W        W20657  30.442  18.688  11.666
48343W        W20658   0.122  33.471   4.522
48344W        W20659  17.089  39.291  14.524
48345W        W20660  32.018  30.936   3.825
48346W        W20661   8.039  37.481  11.559
48347W        W20662  15.090  25.929   3.858
48348W        W20663   5.249  33.981   1.307
48349W        W20664   5.289  43.416  11.973
48350W        W20665  39.449  30.647  10.533
48351W        W20666  42.739   7.849   2.295
48352W        W20667  44.748   8.771  10.593
48353W        W20668  11.715  37.574   3.759
48354W        W20669   4.866  18.407   5.159
48355W        W20670   1.589  41.468   1.304
48356W        W20671  26.577  25.154   3.069
48357W        W20672  12.325  37.218  14.447
48358W        W20673  27.498  20.221   0.875
48359W        W20674  19.154  43.938  10.987
48360W        W20675  31.389   2.081  11.139
48361W        W20676  29.460  11.698   4.662
48362W        W20677  21.196  17.558  12.786
48363W        W20678  26.974   4.194  13.686
48364W        W20679  23.587   0.409  13.337
48365W        W20680   5.916  21.136   1.902
48366W        W20681  44.646  21.739  12.437
48367W        W20682  27.545  28.919  12.798
48368W        W20683   0.750  41.259  13.629
48369W        W20684  42.924  33.176  14.703
48370W        W20685  20.283  44.630   3.163
48371W        W20686  20.628  26.428  12.810
48372W        W20687  40.200   1.120   3.681
48373W        W20688  12.624  44.272   3.324
48374W        W20689  41.420   6.274  12.034
48375W        W20690  13.698  35.868  13.811
48376W        W20691  13.825  31.146   2.446
48377W        W20692  37.034  13.509  11.030
48378W        W20693  35.856  32.067   3.551
48379W        W20694   0.471  36.552   2.414
48380W        W20695  12.175  23.810  13.965
48381W        W20696  13.439  40.383  13.046
48382W        W20697  11.863  22.788  10.931
48383W        W20698  37.147  15.117  12.529
48384W        W20699  23.062  34.953  14.776
48385W        W20700  17.269  23.582  13.470
48386W        W20701  40.902  15.342  12.436
48387W        W20702   7.399  27.022  11.838
48388W        W20703  33.805  27.196   0.750
48389W        W20704  44.933  30.246  12.224
48390W        W20705  38.789  33.969  12.498
48391W        W20706  33.665  33.620  13.583
48392W        W20707  26.449   2.311  12.988
48393W        W20708  14.664  20.908   0.319
48394W        W20709  19.268  25.186   2.941
48395W        W20710  37.278  33.577   3.650
48396W        W20711  10.665  38.382   0.338
48397W        W20712  44.946  30.700  14.009
48398W        W20713  22.983   8.800  12.671
48399W        W20714  37.445  13.869   0.766
48400W        W20715  22.117  34.626  12.321
48401W        W20716  26.693  40.349   4.505
48402W        W20717   0.522  10.646   4.069
48403W        W20718  18.050  12.754   3.298
48404W        W20719  30.207  18.066   3.598
48405W        W20720  17.203   7.826   2.604
48406W        W20721  31.221  27.430   1.661
48407W        W20722  40.467  10.372   1.916
48408W        W20723  11.301  40.740   3.935
48409W        W20724  33.331  33.888  11.154
48410W        W20725  43.166  39.109  13.325
48411W        W20726  29.665   5.427  11.005
48412W        W20727  42.773  17.060  11.917
48413W        W20728  32.651  29.917  11.567
48414W        W20729  34.586  18.079   1.764
48415W        W20730  34.485   9.181   3.314
48416W        W20731   5.659   9.789  13.881
48417W        W20732  37.022  20.699   4.174
48418W        W20733  28.563  28.239   0.411
48419W        W20734  13.849  30.415   3.119
48420W        W20735  13.734  26.131  13.975
48421W        W20736   6.256  35.268   4.697
48422W        W20737  40.129  41.664  11.092
48423W        W20738   5.951  30.987  11.500
48424W        W20739  31.954  19.661   4.112
48425W        W20740  42.892  37.047  11.300
48426W        W20741   5.354  11.269   0.006
48427W        W20742  28.276  39.561  13.477
48428W        W20743  31.081  29.011  13.956
48429W        W20744  11.320  29.111  10.344
48430W        W20745  21.874  42.600  10.694
48431W        W20746  35.087  35.327  12.055
48432W        W20747  16.749  22.688   4.293
48433W        W20748   4.938  25.994  14.263
48434W        W20749  42.856  13.093   1.585
48435W        W20750  24.242  43.305   3.847
48436W        W20751  25.604   0.337  12.332
48437W        W20752   3.654  39.264   2.864
48438W        W20753  16.191  19.151  11.620
48439W        W20754  30.924  11.511  10.078
48440W        W20755   9.672  15.805   4.845
48441W        W20756  12.276  27.779  13.592
48442W        W20757  14.591  16.229   2.625
48443W        W20758  15.583  28.370  14.868
48444W        W20759  13.221  20.303  12.373
48445W        W20760  27.356  13.609   1.908
48446W        W20761  20.924  44.197  12.614
48447W        W20762  22.663  13.868  10.545
48448W        W20763   3.596  32.653  12.111
48449W        W20764  37.140  29.394  10.856
48450W        W20765  12.571  21.922  10.892
48451W        W20766  35.055  12.782   0.394
48452W        W20767  12.906  10.204   0.697
48453W        W20768  30.574  18.692   4.639
48454W        W20769  43.345  30.593   4.080
48455W        W20770  36.267  37.676   2.843
48456W        W20771   5.791  39.034  13.440
48457W        W20772  40.886  30.657   0.225
48458W        W20773  19.749  15.394  13.881
48459W        W20774   2.840  26.697   4.768
48460W        W20775  27.544  23.731  12.951
48461W        W20776  35.047   8.636  11.485
48462W        W20777  32.356  14.555   3.842
48463W        W20778   0.903   9.912   4.545
48464W        W20779  10.723  31.483   0.941
48465W        W20780  44.929  18.584  10.697
48466W        W20781  40.858  14.011   1.975
48467W        W20782  31.347  28.247   0.197
48468W        W20783  32.129  34.123   1.683
48469W        W20784  38.936   7.508   2.773
48470W        W20785  31.366  12.138  14.249
48471W        W20786  41.244   6.951  14.495
48472W        W20787  41.443  28.223   3.153
48473W        W20788  19.020  16.034  11.689
48474W        W20789  41.834  23.521   3.232
48475W        W20790   0.393  15.259  12.503
48476W        W20791  43.496  16.204  11.625
48477W        W20792  17.638  17.174   2.392
48478W        W20793  41.322  11.792   2.908
48479W        W20794   8.276   4.493   4.705
48480W        W20795  43.508  34.159  14.344
48481W        W20796  26.144  18.219  10.843
48482W        W20797  12.064   7.146  11.254
48483W        W20798  16.322  16.591  11.569
48484W        W20799  23.675  39.423   4.595
48485W        W20800  26.987  10.379   0.846
48486W        W20801  12.221  32.133   0.235
48487W        W20802  17.106   5.467  11.054
48488W        W20803   9.274  20.974  13.013
48489W        W20804  13.128  15.448   2.716
48490W        W20805  33.229  12.177   4.015
48491W        W20806  12.369  18.240   5.494
48492W        W20807   3.211  25.612  14.842
48493W        W20808  37.520  42.102  13.438
48494W        W20809   2.739   9.708   2.046
48495W        W20810  40.815  11.786  12.583
48496W        W20811  42.940  42.085   3.767
48497W        W20812  26.381  25.312   5.119
48498W        W20813  25.660  37.632   3.237
48499W        W20814  23.302  10.954   4.136
48500W        W20815  37.856  28.197   1.455
48501W        W20816  14.664  17.129   0.145
48502W        W20817  38.411  27.596   3.434
48503W        W20818  37.646  14.002  11.189
48504W        W20819   2.879  37.567  13.536
48505W        W20820   3.195  20.701  14.472
48506W        W20821  21.101  24.784   2.915
48507W        W20822  35.536  11.346   1.786
48508W        W20823  24.765  40.355  14.561
48509W        W20824  44.896  31.129   0.828
48510W        W20825  12.329   8.301  14.254
48511W        W20826  34.991  41.504   2.443
48512W        W20827   8.222  25.026   2.213
48513W        W20828  16.001  36.137   0.246
48514W        W20829   9.384  15.338  13.460
48515W        W20830  30.106  23.552   4.838
48516W        W20831  44.908  29.983  10.799
48517W        W20832  18.263  35.880   0.786
48518W        W20833  19.526   8.920  11.094
48519W        W20834  22.081  25.259   3.606
48520W        W20835  40.064  15.913  11.190
48521W        W20836  14.807  29.016  12.553
48522W        W20837  11.342  44.461   0.004
48523W        W20838  37.845  20.688   0.303
48524W        W20839  27.542  11.843   3.283
48525W        W20840   2.626  17.215   3.682
48526W        W20841   4.227  13.220  11.067
48527W        W20842  36.619  34.622   4.006
48528W        W20843  16.220  37.164  12.422
48529W        W20844   3.016  13.767   1.195
48530W        W20845  41.242   7.973  13.883
48531W        W20846  25.645  15.966   1.975
48532W        W20847   7.311  18.098  11.602
48533W        W20848  38.257  14.389  14.959
48534W        W20849  30.537   3.936   2.340
48535W        W20850  40.524  33.966   4.248
48536W        W20851  36.146  40.180   2.829
48537W        W20852  17.965  23.393  11.584
48538W        W20853   2.844  33.889  12.292
48539W        W20854   1.973  33.834   1.874
48540W        W20855  23.490  41.475  13.971
48541W        W20856  21.709  12.161  14.791
48542W        W20857  14.623  36.751   1.387
48543W        W20858   0.446  13.128   3.108
48544W        W20859  24.183  38.273   2.198
48545W        W20860  22.905  22.008   3.729
48546W        W20861  30.651   5.521   0.151
48547W        W20862   2.714  20.813   4.218
48548W        W20863  38.826  19.030  14.406
48549W        W20864   1.780  21.649   2.493
48550W        W20865   5.824  37.517  12.257
48551W        W20866   6.352  24.434  11.664
48552W        W20867   7.201   3.309   2.697
48553W        W20868  24.431   0.365  13.282
48554W        W20869  36.965   6.375  13.102
48555W        W20870  19.999  26.947  10.763
48556W        W20871  22.542   4.819  13.462
48557W        W20872  18.517  20.992  13.086
48558W        W20873  37.864  16.180   0.240
48559W        W20874  32.697  33.821  12.618
48560W        W20875   8.690   5.965   2.886
48561W        W20876  18.295  28.765   2.771
48562W        W20877  44.928  42.089   4.072
48563W        W20878  38.095  40.054  10.651
48564W        W20879  21.004   0.901  12.029
48565W        W20880   2.691  11.692  14.948
48566W        W20881  30.118   1.562   3.616
48567W        W20882  27.068  27.782  10.046
48568W        W20883  10.901  33.214   4.054
48569W        W20884  38.676   2.302   3.315
48570W        W20885   0.874  14.729   3.906
48571W        W20886   6.210   7.431   2.862
48572W        W20887  36.326  30.990  12.514
48573W        W20888  33.050  20.607   3.352
48574W        W20889  15.766  26.129   4.396
48575W        W20890  35.286   2.949   4.911
48576W        W20891  44.965  38.130   0.410
48577W        W20892   5.176  17.070  10.611
48578W        W20893  11.947  22.647  13.671
48579W        W20894  34.117   2.946   2.463
48580W        W20895   0.530  11.101  11.875
48581W        W20896  29.487  29.385   4.415
48582W        W20897  34.355  21.287   0.822
48583W        W20898  22.842  23.269   3.292
48584W        W20899   0.531   0.355  13.368
48585W        W20900  29.948  24.614  10.516
48586W        W20901  39.848  26.628  14.181
48587W        W20902  18.534   0.549  10.724
48588W        W20903  12.389  39.053   2.618
48589W        W20904  30.498  19.820   4.146
48590W        W20905  29.734   3.616   4.443
48591W        W20906  41.898  21.573  13.296
48592W        W20907  15.495  31.003  10.826
48593W        W20908  14.611  11.924   0.057
48594W        W20909  38.452  23.454  12.006
48595W        W20910  31.652  44.495   4.059
48596W        W20911   3.784   2.357  12.449
48597W        W20912  41.747  42.202  14.288
48598W        W20913  24.253   7.584   3.468
48599W        W20914  33.977  29.908   4.742
48600W        W20915  35.777  21.287  12.652
48601W        W20916  36.143  18.997  14.046
48602W        W20917   2.408  12.180  11.223
48603W        W20918  34.022  14.120   3.971
48604W        W20919   7.971  38.006   1.311
48605W        W20920  22.942   3.245  12.589
48606W        W20921  42.344  32.578   4.858
48607W        W20922  35.841  40.265   4.109
48608W        W20923  13.554  42.120  10.693
48609W        W20924  15.183  20.666  10.879
48610W        W20925  28.418   0.857  13.124
48611W        W20926  31.396  39.863   2.277
48612W        W20927  36.390  39.949   1.284
48613W        W20928  11.377  13.103   3.095
48614W        W20929  36.486  31.487  13.513
48615W        W20930  11.121  11.721  14.014
48616W        W20931  31.143  19.844  13.824
48617W        W20932  25.200  12.234  12.612
48618W        W20933  40.346   5.628  13.861
48619W        W20934  40.850  38.271   4.331
48620W        W20935  40.022  43.987  12.159
48621W        W20936   3.960  13.167   2.922
48622W        W20937  12.013  25.467  12.041
48623W        W20938  41.516  40.919   4.448
48624W        W20939  33.601  29.068  13.943
48625W        W20940  44.551  22.706   1.488
48626W        W20941  11.188  36.869   3.578
48627W        W20942  30.041   6.620   2.436
48628W        W20943  19.959   1.775   0.712
48629W        W20944   4.603  26.182   2.855
48630W        W20945   2.827  25.923  13.328
48631W        W20946  40.520  12.068  12.954
48632W        W20947  15.746  28.732   2.806
48633W        W20948  44.982   1.275   4.115
48634W        W20949   8.728  18.297  10.600
48635W        W20950  12.448  10.053  13.955
48636W        W20951  24.216  39.396   4.989
48637W        W20952  43.444  30.004   1.964
48638W        W20953  28.076  35.547  13.783
48639W        W20954  17.752   3.080  12.557
48640W        W20955  22.928  27.430  10.816
48641W        W20956  17.362  30.913   1.863
48642W        W20957  24.528  17.637   0.625
48643W        W20958  38.313  17.348   0.705
48644W        W20959  34.640  42.983  13.898
48645W        W20960  32.659  15.099   4.114
48646W        W20961  43.910  21.550  11.282
48647W        W20962   2.770  20.042   3.148
48648W        W20963  34.300  13.752   3.588
48649W        W20964   8.423  34.587   0.779
48650W        W20965  32.621  17.492   2.877
48651W        W20966  30.221   1.591  11.815
48652W        W20967  34.178  30.971  11.055
48653W        W20968  30.323  14.152   4.871
48654W        W20969  24.055  34.168  14.091
48655W        W20970  22.604  26.104  11.170
48656W        W20971  33.658  20.216   0.311
48657W        W20972  25.140  10.836   2.192
48658W        W20973  17.537  10.303   3.777
48659W        W20974   4.437  20.816  12.005
48660W        W20975   2.665  43.735  10.407
48661W        W20976  39.125  41.247   0.859
48662W        W20977  43.329   5.416  14.280
48663W        W20978  23.185  18.786  14.828
48664W        W20979  43.850  42.879   1.188
48665W        W20980  29.076  33.812  10.143
48666W        W20981   0.103   4.530   1.750
48667W        W20982  28.975  19.103  14.871
48668W        W20983   3.345   8.765  10.614
48669W        W20984  29.367  37.956   2.278
48670W        W20985  33.936  35.476   0.003
48671W        W20986  13.909   5.758  14.908
48672W        W20987  10.640  16.958  12.396
48673W        W20988   3.747  11.465   1.783
48674W        W20989  10.208  26.363   1.807
48675W        W20990  19.836   0.300  11.217
48676W        W20991  12.193  27.999   0.637
48677W        W20992  38.531  40.034   4.097
48678W        W20993  30.378   1.880   3.308
48679W        W20994  41.704  28.199   0.788
48680W        W20995  23.516   9.035   1.841
48681W        W20996  22.225  32.255   1.781
48682W        W20997  15.086  36.480   1.316
48683W        W20998  25.153  13.720   1.820
48684W        W20999   6.938  30.256   2.689
48685W        W21000  39.152   9.299  12.951
48686W        W21001  40.907  37.893  11.863
48687W        W21002   2.461  12.421   2.824
48688W        W21003   7.086  19.660  12.966
48689W        W21004  39.750  41.546   0.299
48690W        W21005  31.572   7.435  10.752
48691W        W21006   0.255  26.234  11.141
48692W        W21007  30.957  18.580   3.352
48693W        W21008  15.749  40.617  12.883
48694W        W21009   7.555  30.026  11.630
48695W        W21010  35.178  16.867  12.620
48696W        W21011  32.694  12.039   2.213
48697W        W21012  19.289  15.272  10.820
48698W        W21013  26.620  44.492   4.667
48699W        W21014  10.392  27.343  11.034
48700W        W21015   0.486  24.622   1.698
48701W        W21016   2.957  20.599   2.638
48702W        W21017  40.055  11.807  12.852
48703W        W21018  12.409  41.723   0.453
48704W        W21019   8.788  24.254  12.092
48705W        W21020  23.441  28.362   4.859
48706W        W21021  24.246  17.193  11.951
48707W        W21022  36.648   9.340  13.094
48708W        W21023  43.102  35.907   0.173
48709W        W21024  36.533  14.118   1.915
48710W        W21025  26.989  14.185   3.766
48711W        W21026  44.328   1.487   1.198
48712W        W21027   2.663  12.159   1.410
48713W        W21028  10.349  14.660   0.783
48714W        W21029   6.792   2.211   3.214
48715W        W21030  38.922  10.331  11.167
48716W        W21031  14.365  44.343   3.490
48717W        W21032  15.742   8.093  11.185
48718W        W21033  20.644  28.403  10.957
48719W        W21034  14.825  34.605   4.832
48720W        W21035  18.052  22.980   2.231
48721W        W21036  30.852   1.702   0.358
48722W        W21037  27.209  33.274  12.834
48723W        W21038  25.689  44.423  10.662
48724W        W21039  28.026   5.202   2.146
48725W        W21040  39.068  40.854   0.116
48726W        W21041  16.441  23.593   3.660
48727W        W21042   3.701   6.961   4.890
48728W        W21043  31.395  37.296  12.925
48729W        W21044  26.663  25.311  12.900
48730W        W21045  31.964  35.396  12.183
48731W        W21046  22.113   0.363   1.243
48732W        W21047  34.479  23.969  11.718
48733W        W21048  32.979   1.285   4.133
48734W        W21049  11.799   2.996   0.438
48735W        W21050  19.721  30.508  12.211
48736W        W21051  10.428   2.400   4.605
48737W        W21052  22.157  35.980  13.315
48738W        W21053  34.343  22.814  12.866
48739W        W21054  27.389   3.305  10.017
48740W        W21055  23.040  30.432   0.270
48741W        W21056  44.054  17.144  12.845
48742W        W21057   6.698  41.366   3.083
48743W        W21058  28.602   3.999   3.679
48744W        W21059  42.235   7.500   0.463
48745W        W21060  31.861   2.355  11.055
48746W        W21061   0.548  33.485   4.848
48747W        W21062  44.320   5.324  11.105
48748W        W21063  39.051   0.539  14.534
48749W        W21064   2.683  17.389   2.259
48750W        W21065   6.796  11.343   1.260
48751W        W21066  25.786  24.554   1.722
48752W        W21067   0.713   2.374  14.251
48753W        W21068  35.592  25.099  14.893
48754W        W21069   5.011  16.551  14.936
48755W        W21070  41.897  38.836  12.566
48756W        W21071  42.486  44.043   3.116
48757W        W21072  38.567  12.623  13.296
48758W        W21073   0.070  35.957   0.497
48759W        W21074  36.445   1.344   3.297
48760W        W21075  42.178  34.933   5.072
48761W        W21076   4.598  18.635  14.503
48762W        W21077   1.732  26.467  12.499
48763W        W21078  31.645   2.451  14.518
48764W        W21079  39.378  22.856  11.378
48765W        W21080  14.208   9.752   2.849
48766W        W21081  33.323  32.211   4.241
48767W        W21082  11.289  35.981   4.565
48768W        W21083  15.030  35.937   2.410
48769W        W21084   4.976   8.697   3.267
48770W        W21085  32.994  38.046   0.229
48771W        W21086  21.924  24.614  14.564
48772W        W21087  25.434  38.421   2.763
48773W        W21088   0.159  18.300   1.409
48774W        W21089  43.379  38.805   4.755
48775W        W21090  22.108  22.723  12.534
48776W        W21091  34.039  29.142  13.022
48777W        W21092  12.063  39.361   2.201
48778W        W21093  25.180   0.209  12.634
48779W        W21094  16.521  35.611  13.477
48780W        W21095  44.444  23.021  14.326
48781W        W21096  17.843  29.964  11.960
48782W        W21097  23.647  41.497  11.626
48783W        W21098  31.201  17.567   2.373
48784W        W21099  17.867  25.456  11.037
48785W        W21100   8.708  33.571   0.666
48786W        W21101   0.954   5.429  14.433
48787W        W21102  44.288  34.961   1.685
48788W        W21103  21.035  20.702   0.313
48789W        W21104  11.826  34.137  14.088
48790W        W21105   3.791  20.787  13.850
48791W        W21106  42.369   6.650   1.843
48792W        W21107  38.105  23.813  11.425
48793W        W21108   7.929  40.627  13.106
48794W        W21109   3.649  43.568  14.613
48795W        W21110  20.535  31.639   1.443
48796W        W21111   2.881  36.059  11.431
48797W        W21112  15.128  18.246  13.481
48798W        W21113  24.599  15.135  10.649
48799W        W21114   1.527  33.081   4.201
48800W        W21115  21.565  38.817   2.830
48801W        W21116  12.287  27.749  10.995
48802W        W21117  28.012  40.698   0.342
48803W        W21118  43.354  42.378   2.187
48804W        W21119  16.240  16.838  13.429
48805W        W21120  23.170  23.311   4.216
48806W        W21121  38.196  15.297  13.368
48807W        W21122  34.951  44.337  10.740
48808W        W21123  16.697  14.209   1.316
48809W        W21124  30.117  37.502   3.930
48810W        W21125  18.585  16.819   3.710
48811W        W21126  13.258  34.475   4.183
48812W        W21127   1.295   8.244  13.633
48813W        W21128  35.267  18.670  10.960
48814W        W21129  20.444  31.181  11.945
48815W        W21130   0.405  21.387  11.151
48816W        W21131  13.494  22.537   4.477
48817W        W21132  43.839  43.971  12.951
48818W        W21133  19.237  36.285   1.119
48819W        W21134  15.094   4.800   4.644
48820W        W21135  27.078  22.269  14.600
48821W        W21136  18.565  12.357  13.041
48822W        W21137   4.604  44.911  11.388
48823W        W21138  29.391  17.731  13.745
48824W        W21139   9.750  23.043   0.381
48825W        W21140   1.926   0.175  13.824
48826W        W21141  38.387  17.167   3.280
48827W        W21142  30.891   4.362   1.370
48828W        W21143   3.404  28.658  14.972
48829W        W21144  36.080  15.348   3.166
48830W        W21145  34.137  24.426   1.731
48831W        W21146  29.885  37.133  14.811
48832W        W21147  30.096   6.692  12.788
48833W        W21148  32.052  30.997   2.912
48834W        W21149  15.190  40.080   1.285
48835W        W21150  10.266  32.963   1.694
48836W        W21151  17.642   3.025   2.894
48837W        W21152  42.956   4.309   4.339
48838W        W21153  13.330  39.842  11.093
48839W        W21154  27.879  10.945   3.462
48840W        W21155  32.979  26.551   4.314
48841W        W21156  23.818   6.950  13.990
48842W        W21157  25.647   7.267   0.265
48843W        W21158  23.743  24.918   2.327
48844W        W21159   6.185   7.232  14.402
48845W        W21160  15.336  35.481  14.257
48846W        W21161  18.269  22.764  13.288
48847W        W21162  34.988  25.160   3.150
48848W        W21163  31.938   8.930   0.322
48849W        W21164  29.308  19.835   4.156
48850W        W21165   0.827  42.366   1.789
48851W        W21166   5.438  17.310   2.014
48852W        W21167  39.151  12.098   2.668
48853W        W21168   9.121  38.407   4.263
48854W        W21169  40.048  14.790   4.325
48855W        W21170  18.838  19.546   2.075
48856W        W21171  37.915  25.905   3.479
48857W        W21172  31.331  37.341  11.483
48858W        W21173   1.248   4.944  11.235
48859W        W21174  41.704  43.388   1.541
48860W        W21175   9.808  15.095   2.351
48861W        W21176  32.742  23.795  11.217
48862W        W21177  36.629   5.014  12.324
48863W        W21178   7.932  43.792  10.714
48864W        W21179   1.360   6.470  13.752
48865W        W21180  14.621  37.630  11.673
48866W        W21181  43.398   6.765   3.225
48867W        W21182  11.933  36.119   0.626
48868W        W21183  16.859  39.160  11.380
48869W        W21184  41.816   6.849   4.064
48870W        W21185  15.269   0.238  13.653
48871W        W21186  41.631  35.081   1.801
48872W        W21187  22.581  41.008   3.730
48873W        W21188  37.579  30.516  13.368
48874W        W21189  41.380  16.658  14.143
48875W        W21190   3.833  33.145   0.787
48876W        W21191  42.812   4.684  14.258
48877W        W21192  29.673  26.986  13.607
48878W        W21193  10.358  44.518   1.973
48879W        W21194  20.201  19.768   1.965
48880W        W21195  22.240  35.569   0.466
48881W        W21196   9.251  25.971  11.605
48882W        W21197  43.331  30.412  14.584
48883W        W21198  35.192  30.639  10.625
48884W        W21199  35.015  29.638  14.808
48885W        W21200  24.782  13.406  14.283
48886W        W21201  30.558   5.964   1.897
48887W        W21202   7.419  23.464  12.492
48888W        W21203  19.657   3.939  13.461
48889W        W21204  34.869  36.406  13.839
48890W        W21205  23.205  32.160   2.188
48891W        W21206  18.767  17.730  13.834
48892W        W21207  33.976  33.492  13.991
48893W        W21208  27.230  23.965  10.781
48894W        W21209  11.148  21.499   0.777
48895W        W21210  30.440  41.538   0.039
48896W        W21211  31.815  31.142   2.463
48897W        W21212  25.317  39.315  13.240
48898W        W21213  32.615  43.926  11.579
48899W        W21214  19.595  15.768   4.571
48900W        W21215  41.551   3.624  12.587
48901W        W21216   5.871  39.178   3.099
48902W        W21217   9.023  19.945   0.941
48903W        W21218  21.571   7.247  14.479
48904W        W21219   5.970  37.646  11.776
48905W        W21220  11.366  24.654   4.347
48906W        W21221  34.062   1.788  14.270
48907W        W21222  38.388  32.848   3.005
48908W        W21223  13.758  10.875  14.768
48909W        W21224  25.206  29.418  13.402
48910W        W21225  41.868  29.643   4.642
48911W        W21226  12.298  42.382   3.645
48912W        W21227   7.188  35.233  14.345
48913W        W21228  36.527   1.026   5.016
48914W        W21229  40.168  25.354  13.379
48915W        W21230  23.291  32.981  14.495
48916W        W21231  44.893  31.074  12.705
48917W        W21232  42.539  10.288   3.218
48918W        W21233  21.979  30.461   0.864
48919W        W21234  14.184  34.521   4.154
48920W        W21235  14.060   4.452   1.293
48921W        W21236  33.978  16.616   0.327
48922W        W21237  40.523  34.297  14.530
48923W        W21238  13.265   0.555   3.641
48924W        W21239  41.442  22.208   2.897
48925W        W21240  23.063  26.063  10.914
48926W        W21241  19.768   2.960   3.102
48927W        W21242  35.461   4.206  13.102
48928W        W21243  12.155  22.825   2.346
48929W        W21244   6.130  33.664   3.718
48930W        W21245  26.212  13.308   3.834
48931W        W21246  29.034  24.766   4.688
48932W        W21247  20.632   2.737   4.094
48933W        W21248  34.135   0.015   0.544
48934W        W21249  11.244  42.708   0.283
48935W        W21250  12.390   0.298   2.268
48936W        W21251   4.503  11.795   2.133
48937W        W21252   1.907  17.608  12.078
48938W        W21253  24.264  35.569  14.335
48939W        W21254  42.901  33.170  13.303
48940W        W21255  34.473  35.701   3.664
48941W        W21256   2.362  29.608   5.008
48942W        W21257  12.809   8.830  10.684
48943W        W21258  43.071  18.009  14.953
48944W        W21259   4.415  12.084   4.837
48945W        W21260  23.762  29.765  14.528
48946W        W21261  26.127  43.167  12.021
48947W        W21262   9.667  23.978   3.999
48948W        W21263  27.320  37.820  10.981
48949W        W21264  21.078   2.804   2.819
48950W        W21265  35.689  27.593   3.854
48951W        W21266   0.470  17.620  10.870
48952W        W21267  25.908   5.015  14.843
48953W        W21268  11.943  32.416   4.102
48954W        W21269   0.330  13.688   4.402
48955W        W21270  33.091  34.601   3.698
48956W        W21271  36.820   2.335  12.894
48957W        W21272  21.736  35.310  14.976
48958W        W21273  33.855  37.863   0.907
48959W        W21274  13.276  17.259   4.128
48960W        W21275  25.701  12.552  11.592
48961W        W21276  34.946   2.533   0.693
48962W        W21277  38.516  13.917   0.849
48963W        W21278  24.716  19.101  10.967
48964W        W21279  18.575   5.764   0.419
48965W        W21280  40.591  43.260   4.232
48966W        W21281   4.871  33.456  12.394
48967W        W21282   7.910  29.800   2.798
48968W        W21283   1.471  19.605   3.361
48969W        W21284  12.250  30.546   2.190
48970W        W21285  24.137  41.509   3.220
48971W        W21286  37.362  33.386  12.443
48972W        W21287  38.968   4.896  13.042
48973W        W21288  38.444  31.672   1.050
48974W        W21289  13.483  22.202  11.974
48975W        W21290   7.372  43.490  11.557
48976W        W21291  11.738  28.659  12.031
48977W        W21292  40.965  29.753  14.914
48978W        W21293  25.812  10.021  11.288
48979W        W21294  34.030  19.960  12.824
48980W        W21295  36.445  22.275  12.902
48981W        W21296  17.682  11.827  10.885
48982W        W21297  33.599  32.183  13.849
48983W        W21298  16.530   9.595   5.396
48984W        W21299  14.620  25.499   3.773
48985W        W21300  37.829  17.089   2.085
48986W        W21301  43.102   1.891  14.846
48987W        W21302  26.603  33.161  12.033
48988W        W21303  23.343  38.323   4.314
48989W        W21304  18.534   6.099  14.904
48990W        W21305  11.270  25.070  14.557
48991W        W21306  33.598  20.335  12.786
48992W        W21307  28.576  43.065   0.528
48993W        W21308  12.768   6.666  13.327
48994W        W21309   0.018  14.117  14.889
48995W        W21310   2.819   0.798  13.180
48996W        W21311   3.746  40.068   1.864
48997W        W21312   2.729  44.926   4.038
48998W        W21313  32.900  11.200  13.334
48999W        W21314  44.867  44.261   4.272
49000W        W21315  12.194  18.155   3.649
49001W        W21316   2.689  32.251   3.221
49002W        W21317  22.650  40.616   3.398
49003W        W21318  15.728  22.248  11.837
49004W        W21319   3.507  30.085   1.043
49005W        W21320  15.057  31.013  13.904
49006W        W21321  16.623  13.546   4.074
49007W        W21322  34.839  41.775  12.794
49008W        W21323  16.322  17.405  11.145
49009W        W21324  36.545  30.595  13.389
49010W        W21325  23.872  39.251   1.320
49011W        W21326  29.143  31.084   3.230
49012W        W21327   1.903  24.124  12.965
49013W        W21328   4.153   2.459  12.091
49014W        W21329  28.509  38.565  10.723
49015W        W21330  14.848  17.452   0.532
49016W        W21331  30.858   9.388  13.765
49017W        W21332  24.024   4.818   2.743
49018W        W21333  15.332   4.700  11.517
49019W        W21334   8.960  38.993  13.911
49020W        W21335  27.137  44.449   2.829
49021W        W21336  29.521   6.810   0.435
49022W        W21337  10.093  31.166   3.149
49023W        W21338  13.363  29.140  13.469
49024W        W21339   9.378  22.719  12.476
49025W        W21340   9.155   1.985  10.634
49026W        W21341  34.362   8.950  12.403
49027W        W21342  10.281   1.767   2.895
49028W        W21343   4.791  15.336  10.399
49029W        W21344   3.886  26.629   3.290
49030W        W21345  20.491  16.694   4.738
49031W        W21346  23.455   7.429   1.752
49032W        W21347  29.628  25.595   4.568
49033W        W21348   8.300  43.013  14.450
49034W        W21349  37.170  29.380   0.211
49035W        W21350  26.013  44.552  12.455
49036W        W21351  38.479  35.494   3.369
49037W        W21352  14.720   9.691   4.782
49038W        W21353  35.350   4.488   2.720
49039W        W21354  33.374   4.176   1.758
49040W        W21355  18.500   3.997  12.061
49041W        W21356  12.037  12.806   4.397
49042W        W21357  27.999   1.639  13.029
49043W        W21358  28.864  28.922   3.640
49044W        W21359  36.828  17.836  11.903
49045W        W21360  40.416  11.779   2.243
49046W        W21361  16.889   2.571   3.363
49047W        W21362  15.726  20.866  13.874
49048W        W21363  31.569   8.265  14.132
49049W        W21364  21.547  36.132  14.364
49050W        W21365  29.677   3.890   1.726
49051W        W21366  29.196  38.788   0.753
49052W        W21367   2.041  24.182  14.198
49053W        W21368  20.582  43.858  11.912
49054W        W21369   5.298  26.644   4.999
49055W        W21370  35.436   3.490  14.763
49056W        W21371  40.247  40.330  12.461
49057W        W21372  27.135  40.524   1.217
49058W        W21373   4.239  37.462   1.876
49059W        W21374  32.042   0.472   4.257
49060W        W21375  10.338  18.803   0.754
49061W        W21376  19.580   7.257  10.669
49062W        W21377  30.956   7.937  11.985
49063W        W21378  43.296  30.999  12.044
49064W        W21379   0.002  12.808   1.368
49065W        W21380  34.456  35.549  11.162
49066W        W21381  26.053  42.326   3.975
49067W        W21382  25.277  40.920  14.430
49068W        W21383  13.193   9.584   4.746
49069W        W21384   8.930  30.506   2.814
49070W        W21385   6.382   7.310   0.823
49071W        W21386  15.367  24.134  12.167
49072W        W21387   7.496  41.995  14.267
49073W        W21388  15.197  40.543   0.306
49074W        W21389   8.779   6.284   0.047
49075W        W21390  13.102   2.709   3.085
49076W        W21391   1.247   5.692  12.579
49077W        W21392  43.009  12.162   2.761
49078W        W21393  34.047  29.500  10.262
49079W        W21394  15.870  19.329   2.121
49080W        W21395   1.169  17.010   3.933
49081W        W21396  42.567  21.289  11.148
49082W        W21397  21.645  33.127  11.427
49083W        W21398  44.031  35.774  12.044
49084W        W21399  16.113  22.116   3.617
49085W        W21400  38.832  22.577   2.660
49086W        W21401  25.202  21.686   3.607
49087W        W21402  42.953  18.789  12.829
49088W        W21403  23.914  12.592  10.769
49089W        W21404  11.797  38.366   5.033
49090W        W21405  10.638  15.382  14.513
49091W        W21406   5.380  31.218   0.812
49092W        W21407  32.329  25.177  14.288
49093W        W21408  12.719  25.983  13.841
49094W        W21409   4.809  24.035  13.931
49095W        W21410   7.949  32.070   2.399
49096W        W21411  24.610  40.310  12.993
49097W        W21412   3.963  32.059  10.652
49098W        W21413   9.375  24.549  13.063
49099W        W21414  18.488  42.828  12.905
49100W        W21415   2.943   0.481   1.336
49101W        W21416  14.992  18.238   2.364
49102W        W21417  17.180  10.802  10.648
49103W        W21418  14.591  12.326   0.378
49104W        W21419  31.925  17.076   4.686
49105W        W21420  36.765  32.340   0.405
49106W        W21421  29.145  24.699   0.406
49107W        W21422  37.613  27.736  14.991
49108W        W21423  15.690   9.493  14.767
49109W        W21424  14.637  39.914  14.356
49110W        W21425   9.640  32.613   3.750
49111W        W21426  10.314  15.320   1.358
49112W        W21427  10.706  23.109  11.661
49113W        W21428  13.227  26.067  13.891
49114W        W21429  27.426  21.285  11.016
49115W        W21430  29.545   2.708   4.029
49116W        W21431  26.847  27.888   2.914
49117W        W21432   1.861   6.718  14.927
49118W        W21433   9.756  26.623   1.751
49119W        W21434  17.892  31.323  12.499
49120W        W21435  29.621  23.001   0.625
49121W        W21436  25.362  10.040   5.033
49122W        W21437  28.893  27.431  11.069
49123W        W21438   5.025  39.617   0.347
49124W        W21439   2.527  29.547  10.794
49125W        W21440  44.234  31.013  13.388
49126W        W21441  12.828  21.697  12.373
49127W        W21442  17.756  30.516  12.068
49128W        W21443  23.629  20.255  11.131
49129W        W21444  15.812  35.803  10.547
49130W        W21445  31.952  28.679  10.909
49131W        W21446  18.813   5.911  12.953
49132W        W21447  24.633  26.875  11.743
49133W        W21448  35.555   4.766   4.604
49134W        W21449  35.274  22.641  13.910
49135W        W21450   6.986  36.833  10.579
49136W        W21451   4.359  44.099   0.024
49137W        W21452   6.779  24.475  11.940
49138W        W21453  26.432  23.989  13.431
49139W        W21454  37.156   3.108  11.416
49140W        W21455  43.480  35.527   4.117
49141W        W21456  22.581  37.905  10.318
49142W        W21457  39.285  26.471  11.484
49143W        W21458  26.949  15.888  12.434
49144W        W21459  39.812  10.877  14.797
49145W        W21460  35.868  37.381  14.386
49146W        W21461  15.540   3.164   0.289
49147W        W21462  35.007   0.891  11.253
49148W        W21463  34.520  32.691   4.480
49149W        W21464  39.571   1.224  14.335
49150W        W21465  11.658  32.568  11.531
49151W        W21466  12.631   7.823   4.590
49152W        W21467  29.980  39.829   2.372
49153W        W21468  30.190   7.434  11.514
49154W        W21469  43.377  18.413  14.421
49155W        W21470   0.883  21.041   5.046
49156W        W21471  24.119  17.761   1.815
49157W        W21472  14.339   2.527   0.354
49158W        W21473   0.419   9.652  10.695
49159W        W21474   5.954  13.138  12.028
49160W        W21475  15.697  20.209  12.027
49161W        W21476   6.494  13.546   4.573
49162W        W21477  16.732  44.317   0.651
49163W        W21478  12.376  40.338  12.949
49164W        W21479  42.519  11.284  11.052
49165W        W21480   8.908  21.590   0.833
49166W        W21481  22.702  17.873  10.183
49167W        W21482  22.067  10.158   2.198
49168W        W21483  18.050  28.592   1.407
49169W        W21484  18.933  33.861   4.384
49170W        W21485  21.656  11.658  14.835
49171W        W21486   0.201  14.277   3.511
49172W        W21487  16.793  38.075  13.368
49173W        W21488   7.109   7.585   4.344
49174W        W21489  35.947  10.085   1.385
49175W        W21490  32.574   4.369  10.495
49176W        W21491   1.511  12.675  14.525
49177W        W21492  22.977  24.259  13.834
49178W        W21493   4.784  35.173   1.761
49179W        W21494   4.895  31.503  10.696
49180W        W21495  28.929  31.800  13.692
49181W        W21496   2.368  32.675   0.314
49182W        W21497  26.423  31.562  13.472
49183W        W21498   4.861   4.680   0.062
49184W        W21499  40.883  14.538  12.816
49185W        W21500  24.073  43.526  12.735
49186W        W21501  32.383  40.810  14.400
49187W        W21502   1.144   1.878   1.106
49188W        W21503  14.095  31.918   0.762
49189W        W21504  21.031  12.085  12.163
49190W        W21505  27.621  20.503  12.424
49191W        W21506  37.188  29.561   4.481
49192W        W21507  42.083  29.416  10.656
49193W        W21508  40.198  32.480  12.458
49194W        W21509  33.528  21.730  11.557
49195W        W21510  20.161  16.440  12.454
49196W        W21511  37.644  21.194  11.249
49197W        W21512  17.918  24.285  12.201
49198W        W21513  32.199  22.565  12.959
49199W        W21514  30.351  26.503  13.044
49200W        W21515  29.363  41.890   3.676
49201W        W21516   1.482  33.585   2.065
49202W        W21517   2.527  31.076  12.511
49203W        W21518  34.583  35.136  14.099
49204W        W21519  10.280   0.027   5.053
49205W        W21520  17.452   5.288   4.498
49206W        W21521  15.815  40.741   1.430
49207W        W21522  35.846  34.061  14.759
49208W        W21523  43.467  14.147  14.655
49209W        W21524  15.054  16.638  14.542
49210W        W21525  29.559  11.263   3.215
49211W        W21526  17.341  16.210  12.446
49212W        W21527  27.012  10.833   0.612
49213W        W21528  16.777   0.230   4.663
49214W        W21529  17.524   0.251  10.429
49215W        W21530  13.915  36.496   2.766
49216W        W21531  18.737  34.805   3.636
49217W        W21532  17.063  20.601  11.597
49218W        W21533  19.852  30.093  12.965
49219W        W21534  18.504   7.605   2.291
49220W        W21535  23.976  11.753   2.807
49221W        W21536  39.293  32.664  13.432
49222W        W21537  13.222  40.814   0.533
49223W        W21538  12.696  19.790  10.707
49224W        W21539   9.702   2.559   2.477
49225W        W21540  44.971  25.641   2.704
49226W        W21541  15.122  42.668   4.224
49227W        W21542  23.511  15.632   1.760
49228W        W21543   0.940  28.982  11.072
49229W        W21544  27.728  36.932  12.497
49230W        W21545  11.121   3.040  14.848
49231W        W21546  32.518  35.584   0.479
49232W        W21547  12.710  30.574  14.683
49233W        W21548   1.707   6.255   3.258
49234W        W21549   0.266  22.388   3.499
49235W        W21550   5.308   4.606   0.908
49236W        W21551  28.872  16.597  11.664
49237W        W21552  44.283  39.815  11.017
49238W        W21553   3.290  16.241  14.872
49239W        W21554  35.493  24.780  13.289
49240W        W21555  23.225   9.259   0.602
49241W        W21556   2.392  35.864  11.500
49242W        W21557  20.039  35.089  11.539
49243W        W21558  12.739  31.907   4.340
49244W        W21559   9.523  41.608  14.891
49245W        W21560  35.515  23.931   0.800
49246W        W21561  32.437  27.076   3.272
49247W        W21562  26.896  21.488  13.494
49248W        W21563  25.720   3.127   3.763
49249W        W21564   7.780  43.397   4.276
49250W        W21565   2.146  44.240  10.992
49251W        W21566  31.354  41.391   3.128
49252W        W21567  11.602   3.185   0.892
49253W        W21568   4.595  40.041   1.347
49254W        W21569  11.717  28.592  14.520
49255W        W21570  44.425   5.167   1.642
49256W        W21571  34.890   0.232  12.010
49257W        W21572  29.873  17.597  13.868
49258W        W21573   8.287  22.236   1.677
49259W        W21574   0.240   2.223  11.537
49260W        W21575  24.072  30.679  13.865
49261W        W21576  27.731  36.845  14.754
49262W        W21577   9.223  31.697  13.150
49263W        W21578  28.381  24.083  12.224
49264W        W21579  32.440  22.408   0.981
49265W        W21580  31.188  43.577   3.325
49266W        W21581  29.119   4.335  14.345
49267W        W21582  41.537  26.949  11.196
49268W        W21583  17.050  31.948   0.828
49269W        W21584   7.874  27.689  12.301
49270W        W21585   9.622  31.242   1.119
49271W        W21586  19.080  20.682   2.933
49272W        W21587  31.116  38.930  14.462
49273W        W21588  30.540  35.943  10.547
49274W        W21589  14.748  18.065   3.595
49275W        W21590  31.876  40.338   1.772
49276W        W21591  33.192  40.070  11.479
49277W        W21592  32.712  25.662   2.820
49278W        W21593   4.657  35.602  13.297
49279W        W21594  28.388  28.346  13.082
49280W        W21595  34.484  25.759  13.083
49281W        W21596  28.545   3.898   0.330
49282W        W21597  23.520   5.457  13.877
49283W        W21598   5.699  33.068  12.147
49284W        W21599  43.996  41.089   1.626
49285W        W21600  26.891  24.711   0.034
49286W        W21601   5.090   8.741  10.999
49287W        W21602  21.993  18.323   4.429
49288W        W21603  13.490  41.594  10.660
49289W        W21604  43.194   7.197   3.018
49290W        W21605  11.257   9.426   1.796
49291W        W21606  18.244   3.321  13.397
49292W        W21607  29.674   3.229  13.041
49293W        W21608  10.862  33.643   4.730
49294W        W21609   0.072  41.862   3.260
49295W        W21610   5.215   8.311   0.409
49296W        W21611  21.255  32.293  12.757
49297W        W21612  15.640  25.606   4.648
49298W        W21613  40.605  10.764   2.308
49299W        W21614  20.803  15.660  14.718
49300W        W21615  19.768  39.950  11.529
49301W        W21616   3.126   8.587   0.780
49302W        W21617   3.758  21.714   1.942
49303W        W21618  36.744  44.967  10.029
49304W        W21619  29.102  44.686   0.808
49305W        W21620  36.538  21.134   1.119
49306W        W21621  27.676  18.507   3.736
49307W        W21622  25.251  44.894   3.210
49308W        W21623  31.966  24.113   1.862
49309W        W21624  18.661  42.075   3.606
49310W        W21625  34.287  44.488   4.580
49311W        W21626   5.411   7.341   2.401
49312W        W21627  42.117  30.780  13.443
49313W        W21628  41.032  33.924  14.885
49314W        W21629   1.326   3.206   1.673
49315W        W21630   8.459   8.897   4.081
49316W        W21631  27.001  20.265  11.954
49317W        W21632   6.270  29.130   4.400
49318W        W21633  28.216  41.100  12.601
49319W        W21634  44.080  39.903   4.744
49320W        W21635  24.167  37.318   0.283
49321W        W21636  32.589  32.328  14.416
49322W        W21637  25.120  17.047   3.305
49323W        W21638   2.920  21.658  13.009
49324W        W21639  20.770   7.922   3.184
49325W        W21640   7.637  14.735   3.282
49326W        W21641  38.252  35.905   0.351
49327W        W21642  28.584  37.267  13.922
49328W        W21643   8.711  27.970  12.411
49329W        W21644  19.555  40.840  11.626
49330W        W21645  16.221  43.463  14.000
49331W        W21646  11.151  36.438  11.400
49332W        W21647  41.075  43.581  13.367
49333W        W21648  18.982  26.134   3.382
49334W        W21649  15.322  24.951   2.205
49335W        W21650   1.520   6.512  12.008
49336W        W21651  17.549   4.325   1.458
49337W        W21652  44.338  23.513   2.444
49338W        W21653   9.557  13.916   3.776
49339W        W21654  30.349  40.981  14.627
49340W        W21655  29.503  36.880   1.206
49341W        W21656  25.263  40.223   1.235
49342W        W21657  31.967  41.761  12.804
49343W        W21658  16.049  44.885  11.671
49344W        W21659  34.668  39.937   0.271
49345W        W21660  21.217  16.106   2.667
49346W        W21661  20.555  38.024  12.433
49347W        W21662  26.248  21.627   4.814
49348W        W21663  12.712  13.293  12.421
49349W        W21664  37.427  19.530  11.745
49350W        W21665  14.288  10.584   4.929
49351W        W21666   1.217  25.660  11.577
49352W        W21667   5.752   7.827  14.051
49353W        W21668  26.121  24.323   0.417
49354W        W21669  38.518  16.770  13.882
49355W        W21670  32.739   6.281   1.346
49356W        W21671  25.015  44.275   1.432
49357W        W21672  40.930   8.958   2.332
49358W        W21673  41.704  15.226  14.438
49359W        W21674  26.891  17.706   1.278
49360W        W21675  29.460  13.698   3.861
49361W        W21676  23.455  40.430   1.863
49362W        W21677  21.549  43.217  14.848
49363W        W21678   3.411  14.105  10.718
49364W        W21679  23.760  44.315   3.737
49365W        W21680   9.878  18.645   5.098
49366W        W21681  26.164  10.836  13.030
49367W        W21682  21.902  19.628   0.750
49368W        W21683  31.528  43.900  12.146
49369W        W21684  26.043  23.775  10.852
49370W        W21685  35.663  12.302   4.768
49371W        W21686  32.321  38.818   4.355
49372W        W21687  30.774   8.720  14.870
49373W        W21688  16.486  42.999  13.559
49374W        W21689   5.951  33.032   1.386
49375W        W21690  11.704  30.840   1.474
49376W        W21691  27.256   4.949   3.123
49377W        W21692   5.702  26.948  13.444
49378W        W21693  16.998  34.049  12.485
49379W        W21694  11.987  31.082  11.133
49380W        W21695  31.750   5.885  11.520
49381W        W21696  42.289  30.049   3.386
49382W        W21697  17.191  27.049  14.742
49383W        W21698  26.826  34.906  10.167
49384W        W21699  40.399  23.132   1.264
49385W        W21700  41.693   5.178   2.360
49386W        W21701  28.644   5.899   3.600
49387W        W21702  44.248   7.369   1.015
49388W        W21703  25.151  17.450   2.780
49389W        W21704  31.937   9.620  11.497
49390W        W21705  20.331  29.898  13.816
49391W        W21706  38.736  27.318   4.754
49392W        W21707  28.020  15.635   3.723
49393W        W21708  17.481  33.440   3.415
49394W        W21709  15.334   2.208   2.030
49395W        W21710  35.869   5.131   2.775
49396W        W21711  14.514  41.330   4.553
49397W        W21712  32.341  36.887   0.967
49398W        W21713  35.291   2.978  14.776
49399W        W21714  43.570  35.729   1.456
49400W        W21715  15.751   9.151   2.885
49401W        W21716  20.724  39.999   0.415
49402W        W21717  14.602  41.100   1.812
49403W        W21718  24.578  23.602   2.149
49404W        W21719   5.000  32.080  11.673
49405W        W21720  21.976  38.066  14.380
49406W        W21721   2.095  42.252  13.407
49407W        W21722  13.368   0.999   2.849
49408W        W21723  36.318   8.187  13.937
49409W        W21724  17.741  39.809   2.800
49410W        W21725  34.450  41.774  12.448
49411W        W21726  11.874  28.488   1.335
49412W        W21727  42.701  36.632  11.049
49413W        W21728   2.497   8.144  11.060
49414W        W21729  11.787  16.257   0.501
49415W        W21730  18.278  27.700   4.214
49416W        W21731  40.820  22.492  13.770
49417W        W21732  16.744  18.620   4.937
49418W        W21733  42.299  27.299   4.196
49419W        W21734  41.297  13.419  12.427
49420W        W21735  24.069  36.805   4.084
49421W        W21736  30.182  39.044  14.614
49422W        W21737  16.358  40.868  11.190
49423W        W21738  13.192  19.573   2.336
49424W        W21739   3.145   8.446   4.155
49425W        W21740  26.380  42.424  12.931
49426W        W21741  12.601  33.440  13.797
49427W        W21742  26.100  34.920  11.643
49428W        W21743   4.045  13.594   2.026
49429W        W21744  40.064   7.285  13.049
49430W        W21745  33.644  32.101  11.392
49431W        W21746  43.280  19.592  14.675
49432W        W21747  31.487  12.535  13.314
49433W        W21748  13.607  17.660   0.349
49434W        W21749  30.006  17.578   3.624
49435W        W21750  14.753  26.635   1.005
49436W        W21751  23.230  19.799   5.081
49437W        W21752  16.664   0.164   0.368
49438W        W21753  38.308  16.822   0.711
49439W        W21754  36.979   9.624   1.253
49440W        W21755  26.617  11.293  13.953
49441W        W21756  38.317   3.234   0.766
49442W        W21757  40.629  41.321   0.549
49443W        W21758  18.178  28.060   0.471
49444W        W21759   2.067  36.492  10.926
49445W        W21760  24.520  24.974   1.298
49446W        W21761  11.861  15.774  11.476
49447W        W21762  25.115  33.629   4.117
49448W        W21763   4.657  44.660   4.147
49449W        W21764  40.338  28.226   1.225
49450W        W21765  26.006  23.473   3.182
49451W        W21766   4.389   7.242   2.283
49452W        W21767  37.402  33.560  11.938
49453W        W21768  25.594   4.509   2.804
49454W        W21769  11.260  32.367   4.553
49455W        W21770  44.372   2.297  11.574
49456W        W21771   7.847  43.329  10.482
49457W        W21772  27.589   7.432   1.188
49458W        W21773   9.925  37.266  14.423
49459W        W21774  15.173  36.443   4.332
49460W        W21775  25.197   2.340  12.054
49461W        W21776   9.142  17.792  13.419
49462W        W21777   7.682  28.711  10.956
49463W        W21778   1.563  34.904  14.662
49464W        W21779  30.387   9.561   4.113
49465W        W21780  18.614  10.179  13.729
49466W        W21781   0.420  35.073   0.032
49467W        W21782  39.190  29.923   1.293
49468W        W21783  41.856  17.209   0.366
49469W        W21784  31.301  30.911   4.985
49470W        W21785  31.648   1.501   0.038
49471W        W21786  43.398  17.121  13.438
49472W        W21787  26.388  25.115   1.332
49473W        W21788  37.837  14.221  14.023
49474W        W21789  36.276  38.482  10.744
49475W        W21790   5.787  31.029  12.991
49476W        W21791  37.991  18.244   4.011
49477W        W21792  19.934  37.672  10.500
49478W        W21793  29.334   2.138  11.188
49479W        W21794   2.327  10.195   3.947
49480W        W21795  39.855  19.224   0.306
49481W        W21796   1.170  18.068   1.243
49482W        W21797  25.029  20.557  14.298
49483W        W21798  30.680  42.951   3.695
49484W        W21799  13.570  14.197  12.835
49485W        W21800  29.868  29.067   4.287
49486W        W21801  25.549   5.826   5.269
49487W        W21802  23.100  21.817   5.472
49488W        W21803  20.606   0.292   2.692
49489W        W21804  42.833   0.353   4.674
49490W        W21805   4.204   1.252   4.152
49491W        W21806   2.471  42.999  12.854
49492W        W21807   3.989  26.242   2.891
49493W        W21808   8.996  32.787  10.272
49494W        W21809  21.477   1.199   4.437
49495W        W21810   9.268  18.566  14.401
49496W        W21811  22.983  19.590   2.408
49497W        W21812   6.162   2.776   3.909
49498W        W21813  11.735  27.278   3.290
49499W        W21814  42.555   5.716  14.840
49500W        W21815  41.909  44.709   4.627
49501W        W21816  43.243  15.307  10.665
49502W        W21817  25.206  34.536   1.760
49503W        W21818  38.596   5.627  11.618
49504W        W21819  22.309  30.420  12.567
49505W        W21820  40.406   8.239   4.915
49506W        W21821   2.463  15.223  11.686
49507W        W21822  29.124   1.990  13.784
49508W        W21823  35.079   5.861   3.734
49509W        W21824  23.499   2.444   1.630
49510W        W21825   5.269  16.410  13.986
49511W        W21826  19.315   5.189  11.027
49512W        W21827   6.375   1.008   3.260
49513W        W21828  43.475  17.438  10.749
49514W        W21829  25.802   3.752  12.391
49515W        W21830  25.279   1.442  11.177
49516W        W21831  14.665  15.325  12.616
49517W        W21832  34.443  33.164  11.659
49518W        W21833   9.942  13.659   0.252
49519W        W21834   1.058   6.410   3.359
49520W        W21835  23.670  43.922   3.391
49521W        W21836   4.665   8.141   4.131
49522W        W21837  44.400  18.605  13.118
49523W        W21838  23.939  43.853  10.529
49524W        W21839  44.401  17.207   4.152
49525W        W21840  18.618  12.157   1.631
49526W        W21841  41.924  20.571  14.536
49527W        W21842  33.470  41.026  11.534
49528W        W21843   7.738   2.575  12.678
49529W        W21844  24.995   6.844   3.345
49530W        W21845  36.583  32.753   4.312
49531W        W21846  21.291  22.961   3.148
49532W        W21847  21.254  13.559  11.565
49533W        W21848  32.201  23.262  12.467
49534W        W21849  30.343  19.158   4.689
49535W        W21850   3.670  36.413  13.425
49536W        W21851  43.005  19.367   0.072
49537W        W21852  42.883   4.698   0.162
49538W        W21853  29.199  26.209   0.503
49539W        W21854  12.743  33.572  12.055
49540W        W21855  21.055  15.345   1.657
49541W        W21856  26.429   8.693  14.606
49542W        W21857  33.583  14.918  13.848
49543W        W21858  32.169  32.149   3.468
49544W        W21859  28.591  39.929   0.309
49545W        W21860  13.967  37.673   2.213
49546W        W21861  30.462  40.878   0.888
49547W        W21862  31.993  11.640  11.527
49548W        W21863  37.471   8.244  12.087
49549W        W21864  13.600   6.423  11.172
49550W        W21865  34.958  40.531   2.443
49551W        W21866  23.292   9.883  13.961
49552W        W21867  42.465  30.038  11.621
49553W        W21868  30.955   9.075   2.155
49554W        W21869  20.232  25.350   4.629
49555W        W21870  26.563   0.262  14.520
49556W        W21871  10.222  12.580   0.789
49557W        W21872  23.246  10.481   2.582
49558W        W21873  38.421  26.593   2.228
49559W        W21874  20.191  28.085   4.626
49560W        W21875  14.853  11.073   3.607
49561W        W21876  19.350  14.076  11.959
49562W        W21877  33.580  29.721  12.568
49563W        W21878  20.218  14.192   0.332
49564W        W21879  27.532   5.757   4.055
49565W        W21880   6.407  25.452  12.575
49566W        W21881  12.654  38.894  13.078
49567W        W21882   3.190   0.440  13.539
49568W        W21883  30.016  34.570  12.538
49569W        W21884  31.400  33.130  11.657
49570W        W21885   2.383   4.608   4.729
49571W        W21886  19.082   2.463  13.929
49572W        W21887   9.658  33.979  12.908
49573W        W21888   8.551  35.481   2.241
49574W        W21889   5.778  15.301   3.698
49575W        W21890  34.108  22.995   3.066
49576W        W21891  39.092   7.083   0.282
49577W        W21892  37.122  11.848   4.138
49578W        W21893  43.302   7.018   3.846
49579W        W21894  13.397  23.549  14.888
49580W        W21895   7.172  13.842  14.111
49581W        W21896   8.718   6.370  12.654
49582W        W21897  17.831  33.842   3.633
49583W        W21898  26.939   8.542  12.931
49584W        W21899  17.117  37.514   0.542
49585W        W21900  17.057  14.582   0.944
49586W        W21901  33.110  13.142  14.782
49587W        W21902  39.039  21.824  12.382
49588W        W21903  32.426  29.413  10.704
49589W        W21904  38.861   9.770  12.973
49590W        W21905  12.461  35.624   4.006
49591W        W21906  11.836  21.582  14.375
49592W        W21907   7.699   0.202  10.769
49593W        W21908   5.464  35.549  12.932
49594W        W21909   2.269  26.554  10.999
49595W        W21910  10.331  24.587  12.017
49596W        W21911  10.714  26.698   0.298
49597W        W21912  39.601  34.156   0.898
49598W        W21913  27.932  17.602  10.160
49599W        W21914  31.756  37.676  12.072
49600W        W21915  16.949  12.216  13.865
49601W        W21916  43.539  36.472   2.598
49602W        W21917  10.139  24.240   1.570
49603W        W21918  22.635  26.923  13.622
49604W        W21919  34.354  31.912   1.277
49605W        W21920  16.590  21.561  10.670
49606W        W21921   4.535  41.051  12.865
49607W        W21922   7.179  17.587  14.441
49608W        W21923  33.560   8.783   4.635
49609W        W21924  18.590   0.429   2.765
49610W        W21925  38.122  19.512  14.965
49611W        W21926  13.013  38.328   1.145
49612W        W21927  39.570  30.986  12.031
49613W        W21928   1.436  28.911   1.319
49614W        W21929  24.623   3.171  14.421
49615W        W21930  21.260  11.814   4.999
49616W        W21931  10.235  44.026   1.269
49617W        W21932  16.653  38.825  13.831
49618W        W21933  43.506  36.888   0.293
49619W        W21934  27.471  28.476  12.037
49620W        W21935   2.900  26.463  12.100
49621W        W21936  28.606   2.243   1.829
49622W        W21937  32.322  24.730  12.521
49623W        W21938  36.088  22.242   1.599
49624W        W21939  28.712  16.559   3.037
49625W        W21940   2.961  18.574   1.131
49626W        W21941  20.974  21.053   1.794
49627W        W21942   1.869  35.957   0.867
49628W        W21943   5.605  40.837  14.854
49629W        W21944  14.698  38.751  13.385
49630W        W21945  13.631  33.142   2.604
49631W        W21946   8.355  37.764   1.693
49632W        W21947   0.191  38.436   2.762
49633W        W21948  11.767  18.374   5.103
49634W        W21949  11.878  32.936   4.142
49635W        W21950  34.074  33.033  11.998
49636W        W21951   5.733  17.507   2.484
49637W        W21952   3.055  30.138   3.705
49638W        W21953  38.744   0.507  13.681
49639W        W21954  41.481  43.874   4.235
49640W        W21955  37.828  37.627  10.531
49641W        W21956  26.166  10.678  13.919
49642W        W21957  15.457   1.465   0.693
49643W        W21958  36.040  31.402   5.069
49644W        W21959  34.008  18.277   2.329
49645W        W21960  38.062  30.575  14.274
49646W        W21961  28.360  42.402  12.795
49647W        W21962   4.185   6.812   4.683
49648W        W21963   7.695   1.785  11.086
49649W        W21964  32.831  13.186   1.208
49650W        W21965  20.436  31.870   1.907
49651W        W21966   7.682  43.911  11.556
49652W        W21967   8.628  24.818  14.787
49653W        W21968  36.208   6.423   5.123
49654W        W21969  20.627  16.841   3.409
49655W        W21970  34.137   6.318  14.781
49656W        W21971  22.017  43.885  12.985
49657W        W21972  17.352   7.181   5.270
49658W        W21973   3.354  19.393   0.642
49659W        W21974  31.966  23.755   0.328
49660W        W21975   4.801  26.192   2.311
49661W        W21976  25.949  15.332   2.804
49662W        W21977   6.860  23.688  13.523
49663W        W21978   5.165  21.966   1.801
49664W        W21979  24.158  11.597   4.161
49665W        W21980  10.949  10.763   0.374
49666W        W21981  17.172   4.026  11.991
49667W        W21982  12.213   9.783  13.598
49668W        W21983  39.632   7.646  11.990
49669W        W21984  41.991   8.297   2.208
49670W        W21985   2.822   8.426   0.129
49671W        W21986   6.515  34.658   2.269
49672W        W21987   5.012   7.660   1.843
49673W        W21988  39.013  20.579   3.757
49674W        W21989  10.307  10.734   2.412
49675W        W21990  16.280  13.120  10.782
49676W        W21991  17.922  19.168  10.871
49677W        W21992  12.675  13.719   0.265
49678W        W21993  42.959  13.453   1.926
49679W        W21994  34.228  40.677   4.267
49680W        W21995   4.879  32.243   3.634
49681W        W21996  36.938  41.308  11.209
49682W        W21997  44.254  26.025   4.358
49683W        W21998  12.543  28.005  11.753
49684W        W21999  38.458  13.318   2.231
49685W        W22000  39.660  14.042   4.352
49686W        W22001  39.455  28.377  11.506
49687W        W22002  40.807  12.341  11.029
49688W        W22003  35.318  24.066   2.625
49689W        W22004  18.418   2.399   4.072
49690W        W22005  14.199  26.529  12.062
49691W        W22006   0.904  38.118   1.551
49692W        W22007  34.578  34.149   0.855
49693W        W22008  36.506  16.665  14.378
49694W        W22009  32.134  14.537  13.914
49695W        W22010  21.089  28.626  13.286
49696W        W22011  20.693  32.252   5.022
49697W        W22012  10.358  28.834   2.317
49698W        W22013  30.831  36.727  14.905
49699W        W22014  28.999  38.582   3.787
49700W        W22015  35.863  39.057   1.915
49701W        W22016   9.507   6.180  12.252
49702W        W22017  18.831  28.953  13.351
49703W        W22018  14.564  22.858  13.975
49704W        W22019  32.593   1.517   1.454
49705W        W22020   3.263   6.449  12.592
49706W        W22021  16.503  28.649   0.740
49707W        W22022   0.414   3.916   3.679
49708W        W22023  21.047  29.514  13.188
49709W        W22024  27.417  28.217   2.666
49710W        W22025  15.959  34.627   3.939
49711W        W22026  24.206  10.979  14.399
49712W        W22027  35.886  25.446   4.753
49713W        W22028  17.523  17.190  12.949
49714W        W22029  21.067  26.535   3.867
49715W        W22030  17.633  12.340  13.026
49716W        W22031  40.036  27.673  11.244
49717W        W22032   4.824  24.459   1.919
49718W        W22033  35.793  32.848  11.632
49719W        W22034  16.691   7.575   0.152
49720W        W22035  26.640  32.025  13.534
49721W        W22036  43.917  19.594  14.329
49722W        W22037  34.655  42.597   3.112
49723W        W22038  26.581  22.090  12.017
49724W        W22039   6.226  13.639  14.285
49725W        W22040  42.329  19.540   3.705
49726W        W22041  27.595  15.573   4.552
49727W        W22042  27.532  33.513   0.814
49728W        W22043  19.665  16.145   2.663
49729W        W22044  35.909  38.114   1.418
49730W        W22045  25.950  39.960  11.703
49731W        W22046  43.990   7.445   3.321
49732W        W22047  17.508  38.443  11.141
49733W        W22048  40.643  21.046   4.986
49734W        W22049  41.281   8.173  12.032
49735W        W22050  21.025  17.799   2.746
49736W        W22051  41.293   6.200   4.084
49737W        W22052  32.031  40.989  14.938
49738W        W22053  24.776   6.299   1.349
49739W        W22054  26.830   5.034   0.778
49740W        W22055  34.435  24.015  11.209
49741W        W22056  40.823   3.917  11.218
49742W        W22057  20.671  10.791   0.122
49743W        W22058  17.347  32.638   1.889
49744W        W22059  11.116  32.909  14.994
49745W        W22060  23.329  19.843  10.237
49746W        W22061   5.170   6.641  13.447
49747W        W22062  35.217   2.996   0.655
49748W        W22063  30.429  25.574   0.248
49749W        W22064  22.028  15.624   3.713
49750W        W22065  29.600  29.049  12.416
49751W        W22066  18.461  34.584   2.116
49752W        W22067  44.239  34.577  10.602
49753W        W22068   3.351   3.033   4.916
49754W        W22069  15.544   2.953  10.700
49755W        W22070  31.988   5.195  11.183
49756W        W22071  14.646   3.403  13.559
49757W        W22072  28.624   7.642   2.099
49758W        W22073  19.301   0.943   2.611
49759W        W22074   6.460  33.612   1.191
49760W        W22075   2.379  38.372  10.721
49761W        W22076   6.385  28.882  10.711
49762W        W22077  31.501  13.831  14.261
49763W        W22078  43.881  13.085   3.719
49764W        W22079  15.733   5.230   0.725
49765W        W22080  14.454  25.802  11.484
49766W        W22081  17.797  11.751  14.101
49767W        W22082  24.014  32.274  13.958
49768W        W22083   7.384  28.265   2.275
49769W        W22084  10.438  36.409  12.129
49770W        W22085  41.832   1.033   0.301
49771W        W22086  32.179  43.231   3.338
49772W        W22087  30.533  21.600   3.269
49773W        W22088  31.868   9.160  11.253
49774W        W22089  22.739  26.248   1.173
49775W        W22090  36.007  11.625  11.224
49776W        W22091   5.202  37.615  13.367
49777W        W22092  21.055  26.007  11.663
49778W        W22093  13.903  35.433  14.118
49779W        W22094  21.410  16.109  11.561
49780W        W22095  29.723   6.877   2.041
49781W        W22096  39.779  20.672   3.316
49782W        W22097  31.776  11.360   4.088
49783W        W22098  13.709  30.731   2.737
49784W        W22099   2.173   0.526   3.772
49785W        W22100  27.886   3.490  10.985
49786W        W22101   4.295  30.398   1.035
49787W        W22102  36.475  18.978   0.385
49788W        W22103  10.901  24.696  12.949
49789W        W22104   3.277  16.373   3.620
49790W        W22105  29.985  38.968  13.599
49791W        W22106  25.763  21.022   5.000
49792W        W22107  19.739  36.101  14.916
49793W        W22108   6.158   5.877  14.821
49794W        W22109  11.133   1.123   1.298
49795W        W22110  20.148   9.453  10.521
49796W        W22111   9.231  16.014   3.235
49797W        W22112  39.374   6.708  14.764
49798W        W22113  17.109  35.484   0.896
49799W        W22114  31.427  33.589  14.339
49800W        W22115  13.608   1.395  11.036
49801W        W22116  18.103  19.281   2.678
49802W        W22117  33.876  36.926   3.194
49803W        W22118  43.178  29.601  11.185
49804W        W22119  14.834  39.940   2.064
49805W        W22120  30.362  22.614   0.794
49806W        W22121  42.471   1.268  11.116
49807W        W22122  11.615  12.873  14.346
49808W        W22123   6.730   6.391   3.676
49809W        W22124   3.814   2.996   0.881
49810W        W22125  41.977  38.846  12.043
49811W        W22126  38.308  20.513  14.007
49812W        W22127  21.498  42.771   4.635
49813W        W22128  15.563  37.608   4.034
49814W        W22129  20.557   8.169   2.746
49815W        W22130  37.947  18.223  11.533
49816W        W22131  37.858  39.034  10.741
49817W        W22132  15.791  11.623  13.854
49818W        W22133  40.478   8.404   1.256
49819W        W22134  41.867  18.633   1.174
49820W        W22135   6.106  40.061   1.281
49821W        W22136  30.044   1.853  10.969
49822W        W22137  40.416  42.682  10.055
49823W        W22138   9.212  20.173  12.529
49824W        W22139  39.330  11.511  11.550
49825W        W22140  11.792  43.491   0.339
49826W        W22141  33.865   4.503  13.557
49827W        W22142  19.468   2.862   2.701
49828W        W22143   7.187  17.636   1.964
49829W        W22144   4.302  14.948   3.218
49830W        W22145  10.142   3.985  11.067
49831W        W22146   4.175  33.737   2.835
49832W        W22147   3.975  33.138  14.366
49833W        W22148  22.036  40.727   0.441
49834W        W22149  40.593  17.338  10.679
49835W        W22150   1.056  12.732  11.089
49836W        W22151   8.253  16.883   3.088
49837W        W22152  40.104   1.379   1.245
49838W        W22153  41.490  24.138   0.322
49839W        W22154  38.583  16.077  12.553
49840W        W22155  37.328  30.528  12.911
49841W        W22156  19.165  31.540   1.787
49842W        W22157  32.956  39.189   0.047
49843W        W22158  33.610   6.839   1.347
49844W        W22159  44.839  38.852  12.123
49845W        W22160  28.526   7.930   4.230
49846W        W22161  26.030   2.412  11.421
49847W        W22162  29.547  28.171   0.449
49848W        W22163  26.236  41.904   1.796
49849W        W22164  18.259  37.334  11.482
49850W        W22165  35.788  30.399   2.809
49851W        W22166   3.468  21.167  10.096
49852W        W22167  30.048  37.785  12.509
49853W        W22168  32.031  10.809  14.781
49854W        W22169  44.088  28.027   0.303
49855W        W22170  28.454  20.198  14.344
49856W        W22171   1.669   4.988   4.130
49857W        W22172   3.892  23.893  11.534
49858W        W22173  23.128  42.357   3.626
49859W        W22174  37.579   9.694  10.831
49860W        W22175   7.882  11.479  12.855
49861W        W22176   6.699  34.278  11.626
49862W        W22177  11.302  23.297  13.762
49863W        W22178   5.529  44.377   1.405
49864W        W22179  27.221  20.359   2.360
49865W        W22180  13.731  30.477   4.196
49866W        W22181   5.176  37.365  11.362
49867W        W22182   8.288  36.831  11.959
49868W        W22183  44.433  25.152   2.225
49869W        W22184  18.460  21.247  14.497
49870W        W22185  16.426  39.827   0.356
49871W        W22186  13.132  39.036  11.979
49872W        W22187  21.666  44.194   4.654
49873W        W22188  34.490  12.944  12.911
49874W        W22189  38.428  27.622   1.878
49875W        W22190  34.935  19.064  13.271
49876W        W22191  23.962   1.481  13.041
49877W        W22192  19.724  35.462   2.229
49878W        W22193  20.516  13.052  13.031
49879W        W22194  16.231  43.051   1.390
49880W        W22195  40.510  16.281  12.374
49881W        W22196   3.252   3.203   3.126
49882W        W22197  18.215  36.478  12.883
49883W        W22198  33.099  26.220  12.073
49884W        W22199   0.512   7.836  14.532
49885W        W22200  19.464  19.640  14.969
49886W        W22201  39.014  30.484  10.761
49887W        W22202  31.562   1.776  12.373
49888W        W22203  31.557  31.703   3.058
49889W        W22204   1.776   4.914  13.444
49890W        W22205   1.331  43.433   3.433
49891W        W22206  32.501  18.987  14.702
49892W        W22207  34.144  25.011  13.407
49893W        W22208  16.512  26.806  12.138
49894W        W22209   9.591  20.884   4.111
49895W        W22210  44.054   7.964   3.291
49896W        W22211  22.505  44.794   3.979
49897W        W22212   0.439  43.718   0.292
49898W        W22213   1.893  16.361  14.066
49899W        W22214  13.126   3.799   3.693
49900W        W22215  16.588  25.548   1.776
49901W        W22216  21.105  24.120  10.684
49902W        W22217  19.783  12.668   0.448
49903W        W22218  18.276  12.705  10.617
49904W        W22219   7.264  24.288   1.253
49905W        W22220   1.430  24.554   4.560
49906W        W22221   4.044  19.896   4.973
49907W        W22222  24.210  23.577   3.004
49908W        W22223  12.944  38.922   9.911
49909W        W22224  41.358  22.155   0.468
49910W        W22225   8.521   2.857   2.224
49911W        W22226  24.953  25.631  11.909
49912W        W22227  14.558  43.964  12.994
49913W        W22228   7.507  29.328  12.818
49914W        W22229  11.067   0.209  13.955
49915W        W22230   8.798   3.524   3.180
49916W        W22231  32.406  41.421   4.781
49917W        W22232  20.172  13.872   1.345
49918W        W22233   6.415   5.434  14.892
49919W        W22234   7.335  21.696   3.958
49920W        W22235   5.984   5.474   2.227
49921W        W22236   5.520  27.708  10.745
49922W        W22237  21.766  35.880   0.820
49923W        W22238  24.194  44.887  13.320
49924W        W22239  35.075   3.655  11.192
49925W        W22240   3.702  22.637  11.127
49926W        W22241  25.700   1.235   4.320
49927W        W22242  11.936  12.883  11.662
49928W        W22243  35.637  18.791   0.348
49929W        W22244  25.645   2.573   4.550
49930W        W22245  14.656  16.256  13.866
49931W        W22246  43.236  37.975   1.143
49932W        W22247  22.210  38.834   3.821
49933W        W22248  36.885  44.397  14.176
49934W        W22249  18.369   0.435   0.861
49935W        W22250  26.958  34.128  11.851
49936W        W22251  32.638  14.697   0.899
49937W        W22252  23.754  22.848  10.427
49938W        W22253   5.662   7.993   0.325
49939W        W22254  28.539  12.892  11.509
49940W        W22255   0.760   4.383   3.093
49941W        W22256  26.555  38.062   4.051
49942W        W22257   8.295  29.677  14.915
49943W        W22258  41.830  21.955  14.094
49944W        W22259  19.131  29.940  12.629
49945W        W22260   7.176  35.583   4.254
49946W        W22261  37.317   7.115  11.176
49947W        W22262  13.786   6.137   4.137
49948W        W22263  39.547   9.170   3.177
49949W        W22264  43.403  27.114   1.462
49950W        W22265  34.872  22.371   2.360
49951W        W22266   4.700   1.439  10.740
49952W        W22267  43.922  11.339  13.341
49953W        W22268  43.731  31.840  14.369
49954W        W22269  30.502   3.742  10.711
49955W        W22270  12.275  15.072   2.723
49956W        W22271   0.856   2.762  14.566
49957W        W22272  36.531  43.895   4.623
49958W        W22273  22.976  23.929   1.766
49959W        W22274  15.137  18.156   0.005
49960W        W22275  40.637  30.165   0.216
49961W        W22276  12.130   4.193  12.504
49962W        W22277  28.043   2.674  14.358
49963W        W22278  31.021  38.220  12.522
49964W        W22279  31.958  42.947   2.682
49965W        W22280  30.133  13.374   0.662
49966W        W22281  35.807  41.720   1.323
49967W        W22282   1.569  40.377   2.100
49968W        W22283  38.023  13.608  11.062
49969W        W22284   0.366   6.185   1.950
49970W        W22285  21.485  44.643  10.183
49971W        W22286   4.383  16.512  10.703
49972W        W22287  20.083  14.561  11.493
49973W        W22288  39.862  10.953  10.413
49974W        W22289   6.449   6.764   1.366
49975W        W22290   2.415  15.764  13.313
49976W        W22291  34.830  41.633  11.356
49977W        W22292  40.084  17.753  14.899
49978W        W22293  21.002  12.220   2.360
49979W        W22294  30.290   0.661  14.325
49980W        W22295  37.715  33.878   2.260
49981W        W22296  42.302  30.703  10.296
49982W        W22297  27.852  21.123   2.363
49983W        W22298  18.021   4.215   3.103
49984W        W22299  26.646  33.204  10.979
49985W        W22300  18.333   8.846   0.000
49986W        W22301  39.259  11.199  11.147
49987W        W22302  31.959   4.315  14.908
49988W        W22303  11.844  17.775  14.734
49989W        W22304  42.015  14.299  14.687
49990W        W22305   8.383  39.077   1.753
49991W        W22306  20.210   0.319  10.874
49992W        W22307  10.744   7.663  12.486
49993W        W22308   6.046   2.278   3.897
49994W        W22309  25.982  43.316   4.345
49995W        W22310  12.813  13.291  12.938
49996W        W22311  33.358  38.864   1.355
49997W        W22312  17.025  41.777  12.478
49998W        W22313  33.840   8.263   0.220
49999W        W22314  39.511  38.078  11.513
50000W        W22315  42.538  17.032   2.210
50001W        W22316  24.986  42.031   2.587
50002W        W22317  15.822   0.802   4.690
50003W        W22318  14.277  26.650   1.279
50004W        W22319  29.576  31.018   2.459
50005W        W22320  41.011  18.208   3.169
50006W        W22321  33.103  33.928  10.688
50007W        W22322  27.213  41.450   4.309
50008W        W22323  29.508  25.041  13.744
50009W        W22324  38.086  39.331   3.629
50010W        W22325  36.994  24.112   9.627
50011W        W22326  44.308  38.822  14.458
50012W        W22327  22.250  16.222   0.370
50013W        W22328  27.532  27.390  12.646
50014W        W22329  30.430  25.460   4.135
50015W        W22330  38.386  28.168   0.664
50016W        W22331  40.669   7.925   2.606
50017W        W22332  43.439  43.075   3.382
50018W        W22333   2.559   3.709   1.223
50019W        W22334   0.818  27.598  11.434
50020W        W22335  31.491  31.060   1.130
50021W        W22336  32.018  16.635  12.782
50022W        W22337   9.090  38.763   3.629
50023W        W22338  41.265  21.423   4.101
50024W        W22339   9.394   8.317   1.827
50025W        W22340  31.905   6.469   2.373
50026W        W22341  40.314  38.317  11.638
50027W        W22342   8.885   7.050   4.122
50028W        W22343  33.595  17.193   0.027
50029W        W22344  15.264  30.152   2.763
50030W        W22345  30.615  33.512  12.462
50031W        W22346  17.476  19.094  11.679
50032W        W22347   7.258  29.271   2.193
50033W        W22348  11.378  12.984   0.307
50034W        W22349  16.365  35.295   1.381
50035W        W22350  14.211  13.197  13.512
50036W        W22351   4.858  13.894  12.602
50037W        W22352  16.497  12.105  10.690
50038W        W22353  18.075  11.322  13.996
50039W        W22354  16.774  42.378  14.658
50040W        W22355  29.724   8.852  14.891
50041W        W22356  23.746  28.650   0.557
50042W        W22357  37.847  43.573  11.070
50043W        W22358  25.556   8.244  10.745
50044W        W22359  31.079  10.619   2.275
50045W        W22360  22.582  17.044   4.048
50046W        W22361  34.888   3.675  11.685
50047W        W22362  24.092  35.231   0.332
50048W        W22363  14.521  34.011   1.317
50049W        W22364  12.713  16.874   2.606
50050W        W22365  36.449  20.079  10.467
50051W        W22366  38.738  35.258   4.156
50052W        W22367  33.665  39.177   0.416
50053W        W22368  42.829  40.952   2.097
50054W        W22369   1.502  38.289  14.470
50055W        W22370  38.302  31.996   4.708
50056W        W22371  41.753  16.517  10.553
50057W        W22372   0.777  30.702  14.888
50058W        W22373  20.861  36.949   2.342
50059W        W22374  13.765  15.998   0.163
50060W        W22375  39.334  29.668   2.370
50061W        W22376  36.192   0.916   4.088
50062W        W22377  16.753  14.123   0.279
50063W        W22378   8.453  32.033   2.350
50064W        W22379  20.182  10.115   5.151
50065W        W22380  40.821  35.877   3.403
50066W        W22381  20.743   5.391  11.700
50067W        W22382  18.017  11.106   4.995
50068W        W22383  23.854  28.908  11.970
50069W        W22384  20.555   7.194   3.730
50070W        W22385  13.806  13.028   1.814
50071W        W22386  38.041   1.258   3.735
50072W        W22387  23.727  25.824  13.672
50073W        W22388  18.114  41.836  11.578
50074W        W22389  33.061   7.951   1.895
50075W        W22390  23.976  38.529  14.731
50076W        W22391  33.039  17.596   3.176
50077W        W22392  27.414  35.210  13.086
50078W        W22393  41.672   2.999   1.418
50079W        W22394  41.764   0.677  11.546
50080W        W22395  39.268   0.879   2.780
50081W        W22396  22.998   6.972   0.936
50082W        W22397  35.898  37.882   0.025
50083W        W22398  31.490   1.392  14.225
50084W        W22399  13.124  43.381  14.340
50085W        W22400  37.488   9.788   1.350
50086W        W22401   8.315  13.687   0.332
50087W        W22402  10.822  29.150  12.350
50088W        W22403  36.520  33.395  12.388
50089W        W22404  27.710  32.414   4.590
50090W        W22405   5.396  10.224  13.796
50091W        W22406  44.542  34.934  11.604
50092W        W22407   0.828  43.860   1.902
50093W        W22408  31.939   0.930   2.615
50094W        W22409  40.151  35.758  13.362
50095W        W22410  33.961  35.602   1.389
50096W        W22411   3.810  24.633   1.755
50097W        W22412  12.847  13.854   1.971
50098W        W22413  26.532  18.885  10.911
50099W        W22414  43.406  38.497  12.078
50100W        W22415  24.040  37.356   2.181
50101W        W22416  37.385   4.948   5.017
50102W        W22417  25.293  41.588  13.006
50103W        W22418  20.569  36.914  11.594
50104W        W22419  11.207   5.233  11.615
50105W        W22420  40.351  36.344  11.526
50106W        W22421  23.468   8.704  12.525
50107W        W22422  16.639  38.197   9.768
50108W        W22423   6.577  39.813   0.014
50109W        W22424  11.696  16.873  11.510
50110W        W22425  34.506  40.625  12.971
50111W        W22426  14.843  32.980  14.863
50112W        W22427  40.289   3.232   0.233
50113W        W22428   7.173   0.225  12.108
50114W        W22429  19.133  10.420   3.536
50115W        W22430  44.302  16.850   4.537
50116W        W22431  24.059   5.816  10.964
50117W        W22432  26.913  39.877   4.690
50118W        W22433  19.571   2.377   4.376
50119W        W22434  21.660   6.624  11.083
50120W        W22435   0.706  40.565   3.300
50121W        W22436  44.822  17.164  14.449
50122W        W22437  43.342   9.302  12.947
50123W        W22438  25.304   6.926   0.071
50124W        W22439   0.309  22.784   0.372
50125W        W22440   1.515  10.564  14.808
50126W        W22441  11.113  43.422   1.251
50127W        W22442  25.197  33.189  14.435
50128W        W22443  11.142  15.187  12.426
50129W        W22444   2.976  22.627   4.800
50130W        W22445  26.548  37.029   4.327
50131W        W22446  14.439  36.985  11.056
50132W        W22447   3.500  23.043  14.497
50133W        W22448  30.013  29.201  13.462
50134W        W22449   5.346  34.595   4.629
50135W        W22450  29.431  25.661   3.003
50136W        W22451  36.960  44.471  13.667
50137W        W22452   6.953  15.068   0.869
50138W        W22453  31.620  44.596   1.405
50139W        W22454  23.142  12.844  14.874
50140W        W22455  28.026   4.814  13.385
50141W        W22456  14.198  28.025   2.691
50142W        W22457   6.166  37.601  14.817
50143W        W22458  14.353  20.492   1.387
50144W        W22459  37.665  25.097   1.980
50145W        W22460   9.185  39.018   2.277
50146W        W22461  17.733  28.195  14.593
50147W        W22462  32.953  11.025  14.832
50148W        W22463  38.134  26.167  14.959
50149W        W22464  16.703   2.911  13.212
50150W        W22465  15.277   9.307   2.680
50151W        W22466  25.744   8.587  13.440
50152W        W22467  17.072  27.966   5.477
50153W        W22468  42.264  44.186   1.858
50154W        W22469  18.837   3.367  12.642
50155W        W22470  26.997  22.123   2.724
50156W        W22471  32.117  31.608  11.139
50157W        W22472   2.433  32.710   4.069
50158W        W22473   1.473  16.156   3.761
50159W        W22474  43.774  18.669   1.932
50160W        W22475  10.309  16.576   3.684
50161W        W22476  35.298  16.288   3.764
50162W        W22477  27.963  10.279   4.609
50163W        W22478  14.070   8.981   3.252
50164W        W22479  34.559  42.091   0.093
50165W        W22480  20.578  26.526   3.086
50166W        W22481  28.155  33.009  12.837
50167W        W22482   2.903  22.658   3.028
50168W        W22483  10.850  32.523  10.636
50169W        W22484  21.170  40.456  12.633
50170W        W22485  36.978   3.397  10.444
50171W        W22486   5.800  29.851   3.699
50172W        W22487  28.004   1.258   2.122
50173W        W22488  26.212  21.252   1.134
50174W        W22489  16.693  13.222   2.972
50175W        W22490  19.214  41.763   1.280
50176W        W22491   4.751  28.449  11.594
50177W        W22492  24.544  32.124   3.480
50178W        W22493   6.399  35.160   4.225
50179W        W22494  39.022  19.769  14.061
50180W        W22495  28.977  25.738   0.620
50181W        W22496  19.318  18.676  12.845
50182W        W22497  36.611  13.291  13.997
50183W        W22498   3.783  22.982  10.751
50184W        W22499   8.045  30.958   0.669
50185W        W22500  11.823   2.943  13.103
50186W        W22501  17.709  21.118   1.669
50187W        W22502  31.064   2.875  14.865
50188W        W22503   9.523  19.262  10.899
50189W        W22504  31.546  12.513  10.733
50190W        W22505  24.671   2.264   2.358
50191W        W22506  31.303  44.386  13.150
50192W        W22507   2.664   4.478  13.525
50193W        W22508  43.236  40.078   3.517
50194W        W22509  13.127   1.383  14.801
50195W        W22510   3.978  35.588   0.468
50196W        W22511   7.683  14.738   2.350
50197W        W22512  17.200  14.388   1.411
50198W        W22513  41.681  20.082   4.847
50199W        W22514  10.080   0.285   2.928
50200W        W22515  44.371  22.485  10.419
50201W        W22516  18.607  44.790   2.280
50202W        W22517  43.912   4.225  12.172
50203W        W22518  27.728  35.161   0.997
50204W        W22519   2.282  28.218  13.496
50205W        W22520  37.509  21.061  12.634
50206W        W22521  43.936  30.445  12.127
50207W        W22522  29.188  24.134   4.241
50208W        W22523  36.366  22.077  13.372
50209W        W22524  43.491  32.466   0.863
50210W        W22525  11.812  12.765   2.265
50211W        W22526  28.738  17.625   0.354
50212W        W22527  39.057  35.320  11.457
50213W        W22528  18.505  33.399   0.261
50214W        W22529  12.203  32.410   4.727
50215W        W22530  19.310  19.541  13.987
50216W        W22531  21.775  31.245   4.151
50217W        W22532  40.075  20.808   2.319
50218W        W22533  31.352   4.638   2.333
50219W        W22534  34.457  34.688   2.379
50220W        W22535  35.014   8.419   1.911
50221W        W22536  17.748  19.252   4.303
50222W        W22537   7.886  25.165  13.415
50223W        W22538  35.890  15.646   4.308
50224W        W22539  25.428   5.185   1.732
50225W        W22540  23.991   8.663   1.932
50226W        W22541  18.283  15.266   1.742
50227W        W22542  37.846   1.862   3.171
50228W        W22543   9.819   0.287  14.581
50229W        W22544  12.854   7.915   0.485
50230W        W22545  42.382  16.127  12.094
50231W        W22546  23.676  24.600   4.054
50232W        W22547  10.145  13.773   3.165
50233W        W22548  12.290   7.668   1.355
50234W        W22549   6.912   7.229   0.803
50235W        W22550  16.634  34.071  10.701
50236W        W22551  42.113  20.142   2.662
50237W        W22552  10.571  22.199  14.421
50238W        W22553   5.758  35.511   3.658
50239W        W22554  26.006  24.283  13.449
50240W        W22555  17.195  19.960   4.579
50241W        W22556  41.533  12.401   1.474
50242W        W22557  22.298  24.014  13.450
50243W        W22558  41.926  44.589  14.919
50244W        W22559  43.683  11.942   9.818
50245W        W22560  42.511  20.470   2.640
50246W        W22561  13.724  26.743   2.838
50247W        W22562  21.945   0.300  11.147
50248W        W22563  27.492  33.505  10.641
50249W        W22564  28.095  23.575   3.021
50250W        W22565  15.642   3.400   2.352
50251W        W22566  31.649   7.238   0.483
50252W        W22567  35.002  38.040   0.805
50253W        W22568  18.352   8.739   5.043
50254W        W22569  43.941  41.753   0.758
50255W        W22570  32.566   6.243  10.571
50256W        W22571  44.200  28.544  13.550
50257W        W22572  34.024  26.177  10.469
50258W        W22573  20.034   4.336   2.199
50259W        W22574   3.049   5.863   4.658
50260W        W22575  35.314  41.554   1.269
50261W        W22576   9.914  20.580  10.616
50262W        W22577   0.886  19.373  11.145
50263W        W22578  17.991   2.860  11.591
50264W        W22579  39.900  25.513   3.352
50265W        W22580   5.432  11.405  11.696
50266W        W22581  44.906  18.320   1.864
50267W        W22582   0.995  11.655  10.279
50268W        W22583  26.758  11.149   0.240
50269W        W22584  24.949  24.790   4.241
50270W        W22585  35.440  21.239  11.217
50271W        W22586  10.726  21.132   3.284
50272W        W22587  34.860   6.712  12.159
50273W        W22588  10.094  44.890  14.809
50274W        W22589   2.672  14.827   0.022
50275W        W22590  12.255  21.745   0.249
50276W        W22591  42.275  30.618   0.770
50277W        W22592  16.821  12.775   3.633
50278W        W22593  37.163  33.057  14.422
50279W        W22594  25.049  27.474   1.106
50280W        W22595  41.884  41.055  10.727
50281W        W22596   3.695   1.869   3.606
50282W        W22597  17.433  31.606  12.470
50283W        W22598  27.940  28.164  12.094
50284W        W22599  24.051  39.497  11.588
50285W        W22600  41.055  12.253   4.162
50286W        W22601  13.469  29.471   3.335
50287W        W22602  42.514  28.553  11.704
50288W        W22603  21.996  13.339  11.149
50289W        W22604  27.105  39.791  14.214
50290W        W22605  14.788  22.660  13.559
50291W        W22606   9.026  21.000  11.637
50292W        W22607  36.847   7.332  11.264
50293W        W22608  19.027   0.692  13.947
50294W        W22609   7.345  27.748   4.519
50295W        W22610  44.040  20.117   4.423
50296W        W22611  11.673   0.887   3.872
50297W        W22612  17.298  32.919   0.811
50298W        W22613  31.585  17.275  12.449
50299W        W22614   1.845   0.072  14.913
50300W        W22615   4.266   3.743   4.577
50301W        W22616  30.179  34.759   0.913
50302W        W22617  21.675  20.091   9.731
50303W        W22618  38.886  29.963  14.366
50304W        W22619  16.787   0.005  13.758
50305W        W22620  18.546  13.745   2.191
50306W        W22621  29.178   1.754  12.044
50307W        W22622  17.937  35.868   0.316
50308W        W22623  21.678   5.575   2.857
50309W        W22624  17.734  37.024  13.428
50310W        W22625  39.812  31.411  11.924
50311W        W22626   0.983  32.458  10.977
50312W        W22627  36.408  38.572   3.371
50313W        W22628   3.181  44.520   1.357
50314W        W22629  25.878   1.959  13.456
50315W        W22630  13.775  41.500   0.976
50316W        W22631  20.565  44.296   4.453
50317W        W22632  38.436  11.107   4.233
50318W        W22633  29.539   3.843  11.526
50319W        W22634  25.191   0.188  13.949
50320W        W22635  35.230   4.391  12.673
50321W        W22636  14.214  28.659   2.870
50322W        W22637   2.462   5.087   3.687
50323W        W22638  20.923  14.423  12.473
50324W        W22639  28.875   3.667  14.971
50325W        W22640  38.189  24.135  13.231
50326W        W22641  42.531  17.467  12.108
50327W        W22642  33.704  15.207   1.511
50328W        W22643  26.098   0.912   3.172
50329W        W22644  18.147  13.251   4.621
50330W        W22645  23.652  11.235   2.614
50331W        W22646  32.665  15.385  10.988
50332W        W22647  25.176  38.959  10.718
50333W        W22648  30.138   7.526  12.003
50334W        W22649  14.648   8.111   2.744
50335W        W22650  15.222  39.543  12.477
50336W        W22651  35.011  18.037  10.883
50337W        W22652   4.244  15.388   4.109
50338W        W22653  25.838   3.908  11.042
50339W        W22654  17.771  32.600   4.019
50340W        W22655  15.587  40.537  11.964
50341W        W22656  12.385  24.727   2.267
50342W        W22657  42.002  17.090   4.486
50343W        W22658   9.320   5.728   1.925
50344W        W22659   9.308  22.679  14.997
50345W        W22660   5.779  16.316   0.368
50346W        W22661  10.217   0.809   2.271
50347W        W22662   2.693   7.636  14.621
50348W        W22663  39.815  10.475   0.155
50349W        W22664  38.820  29.875   2.958
50350W        W22665   5.031  13.706  14.889
50351W        W22666   9.926  17.522   4.463
50352W        W22667  24.565   7.826   3.792
50353W        W22668  17.366  32.640  13.975
50354W        W22669  19.902  35.871   3.514
50355W        W22670  21.217  41.897   0.850
50356W        W22671   8.395  16.696  12.534
50357W        W22672  32.902  28.702   2.797
50358W        W22673  38.627  41.881  11.399
50359W        W22674  31.398  40.378   4.168
50360W        W22675   9.618  12.990  12.488
50361W        W22676  36.606  25.125  14.822
50362W        W22677  40.612  24.237  11.512
50363W        W22678  33.194  36.401   0.722
50364W        W22679  13.659  33.773   0.762
50365W        W22680  44.309  14.389  12.914
50366W        W22681  35.533  43.752  11.227
50367W        W22682  17.141  39.788  11.509
50368W        W22683  31.122  38.051   1.847
50369W        W22684   1.751  31.416   0.287
50370W        W22685   3.971  44.927  12.601
50371W        W22686  31.495  18.708  13.340
50372W        W22687  42.358  15.691  11.829
50373W        W22688  33.896  25.735  11.051
50374W        W22689  13.244  10.050  10.212
50375W        W22690  14.920  36.851  13.014
50376W        W22691  23.075  15.342  13.577
50377W        W22692  12.988  24.052  13.073
50378W        W22693  17.337  42.487   0.519
50379W        W22694  32.658  34.862  14.721
50380W        W22695  44.715  25.253  13.710
50381W        W22696  35.016   3.214   1.455
50382W        W22697  15.196  14.841  13.337
50383W        W22698  40.823  38.611   3.899
50384W        W22699  22.750  40.096   1.448
50385W        W22700  34.389  12.191  13.515
50386W        W22701   6.881  23.501   4.320
50387W        W22702  12.130  36.899  10.638
50388W        W22703  37.339  19.320   2.116
50389W        W22704  41.934  41.394  14.081
50390W        W22705  22.149  20.035  12.510
50391W        W22706  34.500  14.264   2.692
50392W        W22707  26.031  32.601  12.378
50393W        W22708  31.060  20.821  13.591
50394W        W22709  24.103  34.626   2.562
50395W        W22710  38.489  17.623  10.944
50396W        W22711  40.702  15.635  10.442
50397W        W22712  28.874  15.397   2.666
50398W        W22713  29.583  16.418   3.224
50399W        W22714  10.747  27.110   2.805
50400W        W22715  25.431   7.633   1.357
50401W        W22716  43.202  17.108   1.819
50402W        W22717   9.224  24.223   3.848
50403W        W22718   0.742   7.393   1.594
50404W        W22719   7.302  29.959   3.312
50405W        W22720   1.754  44.756   3.081
50406W        W22721  24.220   8.715  13.333
50407W        W22722  27.047  17.274  11.170
50408W        W22723  34.640  36.213   3.212
50409W        W22724   9.651  30.450  10.342
50410W        W22725  34.304  35.888   1.629
50411W        W22726   8.194   8.310   1.254
50412W        W22727  36.301  26.943  12.467
50413W        W22728  14.713  18.483  13.102
50414W        W22729   0.907  40.027  12.781
50415W        W22730   2.515  11.643  13.377
50416W        W22731  29.268  44.786  14.548
50417W        W22732  35.351  25.183  12.073
50418W        W22733  10.072   6.267   3.991
50419W        W22734  32.608   8.202  10.624
50420W        W22735  33.639  33.028   3.332
50421W        W22736  37.575  22.631  14.853
50422W        W22737  40.552   8.656  14.971
50423W        W22738  13.854   3.912  13.325
50424W        W22739  31.816  10.248  13.471
50425W        W22740  36.884  10.211  12.076
50426W        W22741  44.510  30.229  12.570
50427W        W22742  37.531   2.561  11.964
50428W        W22743  19.202  43.774  12.443
50429W        W22744   9.873  12.239  13.163
50430W        W22745  13.006  18.289  11.550
50431W        W22746  36.960  19.997   3.617
50432W        W22747  33.912  35.477  12.555
50433W        W22748  25.294   2.119   4.715
50434W        W22749  25.180  15.116  13.907
50435W        W22750  34.940   9.417   3.723
50436W        W22751  43.584  24.087  14.831
50437W        W22752  30.863  13.695   0.826
50438W        W22753  14.530  43.894   3.309
50439W        W22754  30.004  31.479  14.734
50440W        W22755  16.853  33.133   4.774
50441W        W22756  29.062  44.440   3.514
50442W        W22757  28.210  20.005  11.128
50443W        W22758  16.801  10.905  12.960
50444W        W22759   0.562  12.223   5.673
50445W        W22760  11.647  20.087   3.195
50446W        W22761  35.425  31.380  12.434
50447W        W22762  29.464  37.508  10.047
50448W        W22763  15.884  39.758  10.100
50449W        W22764  10.755  23.182   4.481
50450W        W22765  27.020  26.951   0.390
50451W        W22766  20.761   1.230  13.019
50452W        W22767  33.150   9.442  12.968
50453W        W22768  21.113  30.571  14.053
50454W        W22769  43.987   7.209  14.008
50455W        W22770  40.357  16.081   4.482
50456W        W22771  10.374  34.397  10.479
50457W        W22772  11.328  32.365   2.805
50458W        W22773  28.210  43.973   0.913
50459W        W22774  37.915  18.888  12.823
50460W        W22775   0.009  33.751   3.644
50461W        W22776   4.795  17.045  14.947
50462W        W22777  31.090  19.517  12.568
50463W        W22778  30.473   2.016   1.303
50464W        W22779  42.414   0.048  13.363
50465W        W22780   2.342   2.366   4.687
50466W        W22781  18.913  20.288  14.593
50467W        W22782  33.947  19.142   1.058
50468W        W22783  17.495   9.032  14.055
50469W        W22784   9.851  25.158   2.096
50470W        W22785   6.398  20.868   0.281
50471W        W22786  33.319  38.851   2.269
50472W        W22787  21.155   6.859   1.141
50473W        W22788  21.593  16.143  11.030
50474W        W22789  11.658  39.901   3.560
50475W        W22790  12.865   0.255  14.998
50476W        W22791  38.924  27.656   0.648
50477W        W22792  20.645  17.602   1.817
50478W        W22793  35.933   9.366   4.675
50479W        W22794   8.130  16.599  14.331
50480W        W22795   0.863   7.871   1.761
50481W        W22796  19.824  27.890   4.324
50482W        W22797  16.417  20.782   4.348
50483W        W22798  34.826   6.250  12.449
50484W        W22799   2.252  14.518   2.752
50485W        W22800  10.596   0.450  14.120
50486W        W22801  11.801  33.389   0.464
50487W        W22802  33.999   4.267  12.863
50488W        W22803  43.542  33.620   2.799
50489W        W22804   1.556   9.029  14.041
50490W        W22805  30.898   4.359   2.288
50491W        W22806  31.408  12.303   4.591
50492W        W22807  23.150  15.598  12.609
50493W        W22808   9.987   4.766  14.434
50494W        W22809  11.228  40.036  14.953
50495W        W22810  21.402  21.192  12.093
50496W        W22811  41.667  29.881   2.196
50497W        W22812  40.922  18.913  14.729
50498W        W22813  29.013   2.153  11.655
50499W        W22814  33.855  27.974   2.229
50500W        W22815  31.229  33.555   0.293
50501W        W22816   7.792  11.876   2.281
50502W        W22817  35.148  11.688   1.300
50503W        W22818  15.389  35.016   3.243
50504W        W22819  17.902  12.158   2.336
50505W        W22820  22.126  38.854   1.248
50506W        W22821  34.887  42.501   4.237
50507W        W22822   7.790  43.742   3.590
50508W        W22823  24.483  16.376  13.849
50509W        W22824  44.350  42.480   2.964
50510W        W22825  32.142  29.561  11.126
50511W        W22826  20.635  25.167  11.992
50512W        W22827  13.573  31.862  13.985
50513W        W22828  18.878  40.420  10.748
50514W        W22829  10.796  29.402  13.336
50515W        W22830  44.456  26.724  14.487
50516W        W22831  19.587   0.140  12.088
50517W        W22832  15.823  12.736  10.695
50518W        W22833   3.003  42.512  13.379
50519W        W22834  29.907  30.763   3.213
50520W        W22835  21.619  14.736  11.419
50521W        W22836   8.292  22.741   3.812
50522W        W22837   6.761  33.902  12.574
50523W        W22838   0.097   3.463  14.481
50524W        W22839  37.500   6.208   2.722
50525W        W22840  35.963  24.934   4.716
50526W        W22841  11.060  26.169  11.188
50527W        W22842  14.036  15.120  11.481
50528W        W22843  37.753  38.126   4.506
50529W        W22844   1.588  22.768  13.811
50530W        W22845  33.988   7.969  11.945
50531W        W22846  25.562  42.353  13.547
50532W        W22847   0.063  20.257   1.373
50533W        W22848  22.976  19.083   4.222
50534W        W22849  20.889  17.186  12.591
50535W        W22850  31.976  27.354  14.767
50536W        W22851   4.913   2.406  11.657
50537W        W22852  34.624   7.238   2.293
50538W        W22853   3.432  38.958   5.111
50539W        W22854   9.817  30.540   0.879
50540W        W22855   9.822  33.642  10.989
50541W        W22856  30.971   0.749   2.376
50542W        W22857  40.891  15.640   5.064
50543W        W22858  39.386   3.402  10.437
50544W        W22859  42.302  31.446   3.805
50545W        W22860  38.641  20.562  14.415
50546W        W22861  10.377  18.474  11.177
50547W        W22862  22.583  40.900  13.367
50548W        W22863  44.627   8.777   1.820
50549W        W22864  16.212  16.424   2.344
50550W        W22865  25.159  33.133  11.989
50551W        W22866  25.919  41.943   4.291
50552W        W22867  29.061   9.634  10.486
50553W        W22868  22.640  43.054   2.661
50554W        W22869   8.958  22.745  12.101
50555W        W22870  18.865  28.302  14.864
50556W        W22871  32.139  14.129  12.643
50557W        W22872  41.083  27.603  13.020
50558W        W22873  29.871   3.530   3.950
50559W        W22874  33.345  10.248  12.176
50560W        W22875  32.057  27.235  10.921
50561W        W22876   4.773  15.449  14.262
50562W        W22877   1.361  29.049  11.974
50563W        W22878  11.332  42.323  13.312
50564W        W22879   4.715   0.267  13.883
50565W        W22880   3.422  12.282   0.845
50566W        W22881   4.791   4.758   1.917
50567W        W22882  35.258  41.049   2.436
50568W        W22883  16.699   4.314  13.467
50569W        W22884  38.000  31.600   4.484
50570W        W22885  41.064  17.700  14.516
50571W        W22886  44.892  39.887   4.241
50572W        W22887   9.836  30.457   2.442
50573W        W22888  20.091  23.804  11.420
50574W        W22889  33.873   4.661   4.844
50575W        W22890   4.481  40.865  11.493
50576W        W22891  34.382  33.348  12.371
50577W        W22892   5.683  14.654   1.055
50578W        W22893  29.543  24.617  14.560
50579W        W22894  25.268  14.227   4.602
50580W        W22895  18.582  20.276  14.983
50581W        W22896   5.208   0.333  12.069
50582W        W22897  19.370   0.493   3.804
50583W        W22898  16.780   9.766  11.118
50584W        W22899  41.848  22.602  12.989
50585W        W22900   4.263  37.366  11.513
50586W        W22901   9.617  31.403   3.234
50587W        W22902  43.270  41.589   3.145
50588W        W22903  40.450   0.577   1.785
50589W        W22904  41.773  39.950   2.143
50590W        W22905  22.567  27.608  12.840
50591W        W22906  32.914  11.821  11.193
50592W        W22907  34.157  17.591  11.993
50593W        W22908  33.842  38.306   3.755
50594W        W22909  34.910  17.510  11.684
50595W        W22910  37.113  30.559   3.147
50596W        W22911  42.474   7.906   0.099
50597W        W22912  42.255  29.221   3.350
50598W        W22913  28.679  21.751  13.585
50599W        W22914  14.063  19.153   2.620
50600W        W22915   8.250  13.717  12.105
50601W        W22916  31.361  44.933  12.124
50602W        W22917  30.370  27.141   0.729
50603W        W22918  27.689  23.209   1.387
50604W        W22919  35.517  19.187   3.692
50605W        W22920  11.355   7.347   3.031
50606W        W22921  33.961  25.547   0.719
50607W        W22922  21.325  15.618   2.592
50608W        W22923  15.727  22.271  10.567
50609W        W22924  29.535   0.411   0.183
50610W        W22925  33.458  41.265   3.914
50611W        W22926  44.951  34.047  10.357
50612W        W22927  17.127  42.730   3.736
50613W        W22928  29.401  10.814   2.941
50614W        W22929   1.853  34.509  13.413
50615W        W22930  39.824  25.583  14.692
50616W        W22931  31.693  37.191  11.167
50617W        W22932  22.728   3.889   0.933
50618W        W22933   1.227  26.028   4.558
50619W        W22934   9.905  34.945  12.827
50620W        W22935   5.369  12.067   1.368
50621W        W22936   4.402  40.555  12.814
50622W        W22937   2.601  20.050  14.920
50623W        W22938  35.984   1.943  12.787
50624W        W22939  18.375  10.648  14.501
50625W        W22940   7.986  19.512   4.595
50626W        W22941  43.481  18.223   2.716
50627W        W22942  35.359   4.979  11.458
50628W        W22943  38.033  31.601  13.379
50629W        W22944  39.011  36.136  13.801
50630W        W22945   3.017  17.078   0.194
50631W        W22946  43.556  40.763  13.951
50632W        W22947  12.719  42.172   3.932
50633W        W22948  43.915  33.517  12.138
50634W        W22949  34.387   6.690  13.219
50635W        W22950  18.925   9.211   2.214
50636W        W22951  22.073  22.004  10.660
50637W        W22952  25.792  38.414  10.564
50638W        W22953   2.649  42.093  11.174
50639W        W22954   1.358   4.955  12.141
50640W        W22955  16.774  40.022   3.372
50641W        W22956  37.616  25.335  11.560
50642W        W22957  42.511  33.598   3.668
50643W        W22958  24.229  32.151   4.516
50644W        W22959  40.403   9.420   2.037
50645W        W22960  42.266  36.780  13.114
50646W        W22961  23.719   5.943   1.423
50647W        W22962  13.387  25.580  13.931
50648W        W22963  36.356  32.058   2.223
50649W        W22964  10.450   7.284  11.535
50650W        W22965   4.900   6.484   0.645
50651W        W22966  15.585  26.342  10.607
50652W        W22967  41.370   0.750  12.089
50653W        W22968  31.237  12.111  11.703
50654W        W22969  16.062  13.271  13.113
50655W        W22970  11.557   1.409   1.458
50656W        W22971  38.549  18.773  14.769
50657W        W22972  30.083  36.828   4.272
50658W        W22973  24.930  26.386  14.353
50659W        W22974  18.711  11.742  10.299
50660W        W22975  20.910  20.307  11.083
50661W        W22976  25.210  26.143  11.137
50662W        W22977   1.987  20.727   0.112
50663W        W22978   9.604   4.490   0.813
50664W        W22979  13.720  10.537   0.737
50665W        W22980  14.048  11.849   4.188
50666W        W22981  37.407  20.121   3.855
50667W        W22982   2.487  35.828  12.860
50668W        W22983  15.657   1.955   3.287
50669W        W22984  41.642   7.320   3.765
50670W        W22985  34.322  23.022  14.557
50671W        W22986   4.932  14.754   2.261
50672W        W22987  14.173  34.136   4.523
50673W        W22988  24.628   5.820  12.837
50674W        W22989   5.209   3.751  12.033
50675W        W22990  36.671  26.008   1.514
50676W        W22991  25.473   7.199   0.773
50677W        W22992   4.926  17.576  12.866
50678W        W22993  41.494   7.829   0.161
50679W        W22994  29.574   4.779   2.877
50680W        W22995  34.131  27.546   2.348
50681W        W22996  31.130   9.343   2.921
50682W        W22997  16.166  29.546   4.429
50683W        W22998   9.341  23.178  10.494
50684W        W22999  40.044  15.312  13.346
50685W        W23000   2.299  34.079   0.545
50686W        W23001   3.791  38.452  11.043
50687W        W23002  24.591   4.475  10.953
50688W        W23003  10.785  34.924  12.378
50689W        W23004  21.178   4.318   2.664
50690W        W23005  23.491  39.573   1.485
50691W        W23006  44.415  31.421   0.817
50692W        W23007  33.519  32.668   4.250
50693W        W23008  23.497  26.573   2.173
50694W        W23009  18.804  37.622  14.875
50695W        W23010  35.594  17.114  12.437
50696W        W23011  29.924  21.612   1.807
50697W        W23012  28.564  26.574  13.060
50698W        W23013   3.092   8.696  12.182
50699W        W23014  33.001  28.253   1.896
50700W        W23015  31.145  20.826  11.947
50701W        W23016  19.959  19.133  10.707
50702W        W23017  18.144  33.579   4.547
50703W        W23018  32.056  36.640  14.957
50704W        W23019  21.975  44.071   2.955
50705W        W23020  26.233  13.148  13.898
50706W        W23021  44.911  27.477  13.502
50707W        W23022   6.695   2.592   2.765
50708W        W23023  40.260  26.646   4.940
50709W        W23024  11.073  14.531   2.323
50710W        W23025  15.531  19.127   2.569
50711W        W23026  42.059  15.640  10.807
50712W        W23027  28.895  39.328   1.541
50713W        W23028  20.758  21.583  13.533
50714W        W23029  34.961  10.056  10.674
50715W        W23030  35.270  29.951  12.652
50716W        W23031  32.105  23.288  14.267
50717W        W23032  24.976  13.103  14.978
50718W        W23033  41.063  24.537  14.700
50719W        W23034  12.847  30.930   0.494
50720W        W23035  17.218  18.743   4.732
50721W        W23036  40.616  11.837  12.097
50722W        W23037  27.036   4.053   0.642
50723W        W23038  32.547  34.289  12.454
50724W        W23039  29.590  15.424   3.147
50725W        W23040  38.882  32.716  14.430
50726W        W23041   7.942  19.072   1.131
50727W        W23042  16.373  27.747  14.740
50728W        W23043   5.902  18.060  11.662
50729W        W23044   1.055  19.277   3.251
50730W        W23045   4.414   2.927   3.630
50731W        W23046  20.935  21.799  10.108
50732W        W23047  31.055  40.996  14.387
50733W        W23048  21.560  43.783  14.251
50734W        W23049  44.493  42.034  14.871
50735W        W23050  12.508  11.519   0.777
50736W        W23051  27.927  17.883   2.803
50737W        W23052  31.683  26.236  12.042
50738W        W23053  11.350  42.877   1.882
50739W        W23054  26.071  23.332  10.578
50740W        W23055  18.523  12.842   1.001
50741W        W23056  25.497  16.848   0.408
50742W        W23057  33.010   4.989   0.260
50743W        W23058   2.673   1.235   0.234
50744W        W23059  13.238  23.539   0.381
50745W        W23060  23.572  26.127  14.562
50746W        W23061  23.053  25.202  10.410
50747W        W23062  39.478  21.409  11.727
50748W        W23063  34.717   0.978   4.973
50749W        W23064   8.670   9.849  11.016
50750W        W23065  38.315  25.783   3.841
50751W        W23066  19.679   9.149   4.526
50752W        W23067  32.034   5.059   0.514
50753W        W23068   7.270  41.635   4.221
50754W        W23069   8.836  35.422  13.647
50755W        W23070  24.988  43.258   1.212
50756W        W23071  33.210  38.392  14.907
50757W        W23072   5.208  30.770   3.248
50758W        W23073  37.918   6.935   2.397
50759W        W23074  39.994   2.761   2.213
50760W        W23075  29.414   2.887  13.319
50761W        W23076  34.085   7.124   1.279
50762W        W23077   8.255   0.537  11.993
50763W        W23078  41.969   2.513   1.479
50764W        W23079   0.487  40.522  14.529
50765W        W23080   6.876   5.915   3.892
50766W        W23081  19.281  41.328  10.566
50767W        W23082  26.022  41.381   0.267
50768W        W23083   4.464  35.497   4.812
50769W        W23084  17.041   8.183   1.080
50770W        W23085  16.719  11.411   2.386
50771W        W23086  42.973  33.627   1.806
50772W        W23087   1.284   4.154   1.477
50773W        W23088  29.192   9.384  12.996
50774W        W23089   3.413  28.690   4.422
50775W        W23090  33.916  30.881   1.787
50776W        W23091  35.526  16.124   0.794
50777W        W23092   7.469   6.369   1.763
50778W        W23093  32.193   4.593  13.790
50779W        W23094  20.473  19.409   3.820
50780W        W23095  13.698  38.040  10.619
50781W        W23096  43.325   7.379   0.720
50782W        W23097   1.557  19.120   3.209
50783W        W23098  36.029   6.131  11.197
50784W        W23099  12.090  43.835  10.415
50785W        W23100  40.327  21.519   2.857
50786W        W23101   7.659  37.375  12.005
50787W        W23102  36.899  30.684  14.813
50788W        W23103  43.372  10.181   9.861
50789W        W23104  11.190  17.252   3.192
50790W        W23105   4.339   5.606  11.981
50791W        W23106  17.739   7.627   3.811
50792W        W23107  34.044  44.800   2.396
50793W        W23108  33.647  44.461  11.969
50794W        W23109   1.466  18.268  11.670
50795W        W23110  26.645  15.166   4.084
50796W        W23111  26.095   8.880  13.120
50797W        W23112  13.566   3.779  14.988
50798W        W23113  36.381  26.473   1.330
50799W        W23114   9.867  22.278   4.219
50800W        W23115  35.959  41.084  13.939
50801W        W23116  36.923  35.849  12.505
50802W        W23117  27.020  43.987  12.027
50803W        W23118  20.914  42.506  12.086
50804W        W23119  40.067  29.867  11.993
50805W        W23120  44.959  16.624  13.791
50806W        W23121  10.471   0.327   9.525
50807W        W23122  18.213   0.227   1.345
50808W        W23123  34.493   4.005   1.461
50809W        W23124  26.035   5.740  11.172
50810W        W23125   5.241  23.913   2.262
50811W        W23126  44.355  23.492   3.883
50812W        W23127  28.438  40.579   4.113
50813W        W23128  35.888  27.900  11.677
50814W        W23129  10.162   3.641   4.845
50815W        W23130  38.818  15.736   2.732
50816W        W23131  32.881  20.227   4.656
50817W        W23132  38.825   8.847  14.582
50818W        W23133  36.507  27.653  12.765
50819W        W23134  22.639  25.832  14.299
50820W        W23135   2.576   9.455   1.566
50821W        W23136  31.048  16.603  11.302
50822W        W23137  25.297  36.087  10.124
50823W        W23138  36.896  23.531   3.207
50824W        W23139  21.018   9.453   4.495
50825W        W23140  39.499  26.897  13.741
50826W        W23141  27.892  39.593   1.736
50827W        W23142  26.116  21.017  14.647
50828W        W23143  21.839   0.468   4.135
50829W        W23144  20.400  29.119   9.917
50830W        W23145  24.645   9.576   0.329
50831W        W23146  39.965  30.623   3.622
50832W        W23147  18.569  29.442   2.265
50833W        W23148  11.328  21.763   0.357
50834W        W23149   0.217  44.665  13.560
50835W        W23150   9.058  38.471   0.943
50836W        W23151   9.408  29.907  12.071
50837W        W23152   4.456  41.413  14.408
50838W        W23153   8.895  22.290  13.869
50839W        W23154  30.865  33.032  11.483
50840W        W23155  33.521   9.765   1.938
50841W        W23156  12.890   9.266   0.883
50842W        W23157  24.346  19.231   0.838
50843W        W23158  43.044  21.012  13.065
50844W        W23159   1.789  14.825  12.474
50845W        W23160   1.520  44.875  13.950
50846W        W23161  22.464  38.858  13.443
50847W        W23162   3.226  38.974  14.280
50848W        W23163  20.122  20.815   2.840
50849W        W23164  19.578  43.392  12.099
50850W        W23165  32.910  24.138  10.847
50851W        W23166  36.945  31.381   1.383
50852W        W23167  44.385  23.510   3.305
50853W        W23168  31.023  40.620   1.430
50854W        W23169  14.883  27.564   0.421
50855W        W23170  41.343  13.821   1.827
50856W        W23171  44.380  42.654   2.481
50857W        W23172  39.922   2.559   4.536
50858W        W23173   9.924  31.735  11.499
50859W        W23174  34.443  21.779  14.275
50860W        W23175  14.728   4.690   4.273
50861W        W23176  21.504  30.187  11.735
50862W        W23177  21.011   9.758  13.617
50863W        W23178  32.822  17.691  11.124
50864W        W23179  25.657  27.499  11.106
50865W        W23180  17.639  25.876   0.402
50866W        W23181  39.491  25.468  10.639
50867W        W23182   0.759  17.263   3.725
50868W        W23183  11.087  30.442  11.544
50869W        W23184  33.355  41.408   4.427
50870W        W23185   4.990  44.666  14.576
50871W        W23186  24.483  18.184   4.667
50872W        W23187  25.053  33.885   2.600
50873W        W23188  33.924  10.599   4.144
50874W        W23189   1.720   2.695   2.840
50875W        W23190   4.456   9.431  12.441
50876W        W23191   8.346  26.843   1.785
50877W        W23192  13.552  44.357   5.068
50878W        W23193  40.032  13.581   3.038
50879W        W23194  40.426  20.497  12.426
50880W        W23195  28.410  20.105   0.434
50881W        W23196  38.558  30.896   2.143
50882W        W23197   6.232  25.180  12.137
50883W        W23198  11.324  27.669  11.673
50884W        W23199  39.589  28.424  13.553
50885W        W23200  31.205  31.541   4.569
50886W        W23201  23.071  30.308   1.823
50887W        W23202  16.371   7.920  14.887
50888W        W23203  39.815  16.170   3.663
50889W        W23204   4.178  24.301  11.479
50890W        W23205   8.747  17.164  14.769
50891W        W23206  29.899   8.719  14.402
50892W        W23207  35.576  11.128  13.542
50893W        W23208   2.819  33.359  14.953
50894W        W23209   2.371   2.713   3.063
50895W        W23210  17.897  22.319   0.243
50896W        W23211  15.509   8.173   4.544
50897W        W23212  35.093   7.185   3.093
50898W        W23213  17.716  38.294   0.463
50899W        W23214  21.138  26.951  14.832
50900W        W23215  13.185   2.141  11.557
50901W        W23216  13.212   9.636  14.440
50902W        W23217  18.576  41.797  13.023
50903W        W23218  16.656   9.136   5.147
50904W        W23219   4.714  28.463   3.986
50905W        W23220   0.954   8.388   1.744
50906W        W23221  40.264  14.722   3.123
50907W        W23222  16.874  19.736   3.299
50908W        W23223  38.875  27.971  10.655
50909W        W23224  24.029  29.454  11.197
50910W        W23225  29.429  37.461   0.521
50911W        W23226  27.473   9.840  10.577
50912W        W23227   2.980  26.265  11.529
50913W        W23228  21.812  28.436   1.802
50914W        W23229  13.708   5.787   1.381
50915W        W23230  14.157  23.699   3.318
50916W        W23231  39.854  18.724  11.391
50917W        W23232  18.108  35.961  10.811
50918W        W23233  20.480  20.229   1.951
50919W        W23234  19.888  33.160  12.970
50920W        W23235  24.667  29.813   4.853
50921W        W23236  13.206  12.999  14.455
50922W        W23237  41.946  38.006  11.546
50923W        W23238  43.582  26.717   0.410
50924W        W23239  28.967  33.435   5.051
50925W        W23240   0.867  12.312   2.232
50926W        W23241  25.480  23.990  12.509
50927W        W23242   0.197  39.822  12.407
50928W        W23243  34.094  40.306   1.683
50929W        W23244  40.935  21.665   3.705
50930W        W23245  32.426   3.378  12.329
50931W        W23246  11.537  13.306  12.547
50932W        W23247  36.190   3.401  11.131
50933W        W23248  35.300  43.527  12.388
50934W        W23249   9.190  21.268   1.118
50935W        W23250   8.333  26.158  14.215
50936W        W23251  29.488  33.510   5.004
50937W        W23252  42.134  13.163  10.589
50938W        W23253  36.210   1.413  13.494
50939W        W23254  30.173   3.143   3.116
50940W        W23255  36.030  29.408   2.694
50941W        W23256  32.477  12.772   3.230
50942W        W23257  37.558  43.832  13.603
50943W        W23258  22.224  28.552   1.470
50944W        W23259   9.361  33.918  13.371
50945W        W23260  19.269  26.599   4.519
50946W        W23261  24.490   4.923   1.378
50947W        W23262  40.282  12.746  10.296
50948W        W23263  25.499  34.085  12.597
50949W        W23264   5.644  35.689   1.829
50950W        W23265   0.319  26.970   3.303
50951W        W23266  12.368  19.097  11.648
50952W        W23267  16.610  19.273  11.005
50953W        W23268  19.460   3.933   3.289
50954W        W23269  37.862   3.468   4.696
50955W        W23270  38.440  20.718   4.524
50956W        W23271  15.036   7.386  13.492
50957W        W23272  31.877  24.769   4.114
50958W        W23273   3.726  43.157  10.978
50959W        W23274  32.492  39.470   3.632
50960W        W23275  37.952   8.286  13.406
50961W        W23276  24.532  37.017   3.612
50962W        W23277  11.596   9.736   0.703
50963W        W23278  16.716  11.649   2.933
50964W        W23279  15.296  35.953  10.606
50965W        W23280  26.045  19.869   3.541
50966W        W23281   4.357  25.119   2.685
50967W        W23282   3.164  10.583  11.863
50968W        W23283  10.238  28.483  12.899
50969W        W23284  37.020  20.086  14.172
50970W        W23285  37.787  39.701   3.885
50971W        W23286  28.097   0.346   2.655
50972W        W23287  12.751  31.364   3.621
50973W        W23288  39.787  31.917   4.024
50974W        W23289  37.945  38.368   4.072
50975W        W23290  21.177  26.580   2.768
50976W        W23291  13.198  23.478   1.862
50977W        W23292  41.847  35.677  13.733
50978W        W23293  15.809  11.808   4.492
50979W        W23294  36.918   3.882  12.554
50980W        W23295   1.551  22.687  11.497
50981W        W23296   7.706  24.735   1.547
50982W        W23297  27.710   8.238  13.369
50983W        W23298  15.550   0.903   1.716
50984W        W23299  42.835  15.729   1.856
50985W        W23300   4.254  13.688  11.872
50986W        W23301   6.879  35.682   1.461
50987W        W23302  24.178   4.755   3.682
50988W        W23303  33.538  12.369  14.980
50989W        W23304  25.506  22.733  13.921
50990W        W23305  28.901  38.951   1.155
50991W        W23306  22.171   7.827  10.894
50992W        W23307  38.868  13.786  12.112
50993W        W23308  20.652  21.039   0.352
50994W        W23309  44.507  27.461   2.510
50995W        W23310   3.952  41.553  14.471
50996W        W23311   1.806   0.192   3.846
50997W        W23312   1.998  11.808   3.954
50998W        W23313  43.869  21.100  13.084
50999W        W23314  24.199  42.585  11.115
51000W        W23315   3.708  24.491  13.740
51001W        W23316  20.130   9.213  13.030
51002W        W23317   6.665   6.886  10.750
51003W        W23318   7.584   3.247   0.444
51004W        W23319  22.540  20.186  14.259
51005W        W23320  28.126  17.365  12.117
51006W        W23321  35.574   2.854  13.437
51007W        W23322  18.083  34.968  14.340
51008W        W23323  24.939   3.791  12.094
51009W        W23324  44.536  35.999  11.071
51010W        W23325  14.249  24.784  12.848
51011W        W23326  19.778  17.359   2.112
51012W        W23327  40.225  28.898   4.199
51013W        W23328   7.177  31.976   1.928
51014W        W23329   3.725   9.832  14.802
51015W        W23330  21.026  34.326   0.839
51016W        W23331  10.179  18.288  13.466
51017W        W23332   7.252  21.643  11.995
51018W        W23333  44.914  42.224   0.704
51019W        W23334  26.473  20.246  12.132
51020W        W23335  34.665   4.506   2.244
51021W        W23336  17.247  22.682   4.085
51022W        W23337   8.849  24.482  14.437
51023W        W23338  41.929  13.821  10.943
51024W        W23339  33.275  37.343   1.438
51025W        W23340  15.799  24.223   1.396
51026W        W23341  12.118  31.066   2.347
51027W        W23342  24.128   5.720   2.667
51028W        W23343  13.314  35.377   2.220
51029W        W23344  15.515  26.460   4.965
51030W        W23345  14.815  37.526   0.916
51031W        W23346  37.594  29.568  12.541
51032W        W23347  44.229  13.606  12.622
51033W        W23348  18.357  44.026  11.970
51034W        W23349  42.112  34.761   3.237
51035W        W23350   1.844  23.197  14.760
51036W        W23351   9.458  20.688   3.673
51037W        W23352  27.472   5.727  14.035
51038W        W23353   5.765  28.757  13.974
51039W        W23354  40.079  40.067   0.543
51040W        W23355  11.248  30.100   0.850
51041W        W23356   3.445  17.246  10.221
51042W        W23357  33.096  43.728   3.124
51043W        W23358  37.097   7.681   4.000
51044W        W23359   7.686  15.227   0.500
51045W        W23360  14.361  32.545  13.106
51046W        W23361  43.917  37.513  12.924
51047W        W23362  22.691  11.606  11.615
51048W        W23363  43.447  41.763  13.999
51049W        W23364  38.305  39.226   1.770
51050W        W23365  25.989  15.639  14.794
51051W        W23366   4.913   4.874   3.793
51052W        W23367   8.262   3.133  13.236
51053W        W23368  12.433  34.583  10.691
51054W        W23369  16.497  43.411   0.402
51055W        W23370  13.311  33.359  11.189
51056W        W23371  17.684   8.960   1.035
51057W        W23372  40.338  32.096  13.115
51058W        W23373  11.627  37.775  11.720
51059W        W23374   4.477  43.408   0.394
51060W        W23375  35.508  22.185  13.782
51061W        W23376  15.659  21.605   1.051
51062W        W23377  40.323  23.373   5.428
51063W        W23378   0.267  43.419   4.377
51064W        W23379  25.203  13.794   2.760
51065W        W23380  33.771   9.588   5.015
51066W        W23381  39.436  42.888  11.185
51067W        W23382  39.038  23.658  10.695
51068W        W23383  13.276  22.085   3.095
51069W        W23384  21.971   0.804  11.461
51070W        W23385   7.325  22.640  10.701
51071W        W23386  24.198   4.812   0.054
51072W        W23387  29.324  44.876   1.346
51073W        W23388  22.925  36.088   0.316
51074W        W23389   1.342  33.497  12.892
51075W        W23390   7.465   2.727  11.435
51076W        W23391  18.779  31.956   0.644
51077W        W23392   6.325   1.363   2.281
51078W        W23393   1.597  22.123   0.766
51079W        W23394   4.736  18.227   2.893
51080W        W23395   3.865   2.204   4.948
51081W        W23396  42.911  20.632  13.382
51082W        W23397  41.320  17.164   0.436
51083W        W23398  34.990  38.982   1.523
51084W        W23399  27.485  29.018   2.180
51085W        W23400  42.710  16.233   4.164
51086W        W23401  10.426  28.544   2.764
51087W        W23402   8.699   9.859   3.882
51088W        W23403  31.420  35.985   1.448
51089W        W23404  42.705  12.714   4.992
51090W        W23405  35.472   5.328  12.005
51091W        W23406  35.353   5.791   4.670
51092W        W23407  18.179   6.897   3.238
51093W        W23408  33.404  15.332   2.681
51094W        W23409  38.504  34.967  14.048
51095W        W23410  42.823  31.970   3.840
51096W        W23411  10.181  29.921   0.327
51097W        W23412   9.857   1.348   1.503
51098W        W23413  33.395   8.196  14.939
51099W        W23414  17.812  26.118   2.637
51100W        W23415  34.231  26.718  14.946
51101W        W23416  15.459  26.618   2.132
51102W        W23417  12.626  34.619   4.057
51103W        W23418  12.730  13.817  13.212
51104W        W23419  28.523   8.790  13.353
51105W        W23420   9.167  23.655  10.598
51106W        W23421  29.029  31.917   9.844
51107W        W23422  10.346  42.579   1.237
51108W        W23423  20.601   0.375  11.199
51109W        W23424  29.155  23.206  13.516
51110W        W23425  39.666  11.715   3.914
51111W        W23426  42.782  26.625  12.332
51112W        W23427  34.334  10.259  11.484
51113W        W23428  32.490  28.563  12.551
51114W        W23429  40.420   8.813   0.837
51115W        W23430  28.824  31.019   0.913
51116W        W23431  14.633  25.473   1.829
51117W        W23432  25.416  14.728   4.537
51118W        W23433  19.199   1.922   1.782
51119W        W23434  24.231  31.147   1.693
51120W        W23435  10.983  10.925   4.118
51121W        W23436  22.601   2.378   1.652
51122W        W23437  29.998  22.135  12.909
51123W        W23438  23.175   7.179   1.385
51124W        W23439  19.699  36.534   1.204
51125W        W23440   7.736   1.273  10.980
51126W        W23441  35.389  18.731   0.895
51127W        W23442  35.399  31.915  11.653
51128W        W23443  36.593  31.591  14.415
51129W        W23444   6.932  30.838   1.290
51130W        W23445  21.155   5.427  12.538
51131W        W23446  11.759  27.979   3.730
51132W        W23447  17.464  37.524  11.149
51133W        W23448  25.025  35.126   2.386
51134W        W23449  14.921  34.577  12.077
51135W        W23450  42.373  26.476  14.689
51136W        W23451  24.160  24.614  14.558
51137W        W23452  37.226   7.575  14.937
51138W        W23453  36.947  30.122  12.854
51139W        W23454   5.748  13.213   2.010
51140W        W23455  31.103  36.837   2.500
51141W        W23456  10.453  17.812   2.322
51142W        W23457  12.165   6.850   0.747
51143W        W23458  32.145   0.020  11.133
51144W        W23459  15.648  16.498  11.008
51145W        W23460  21.182  13.832  14.908
51146W        W23461  42.881   5.924   1.243
51147W        W23462  19.362  19.049  13.506
51148W        W23463   8.741  36.221   2.704
51149W        W23464   9.821  37.921  11.508
51150W        W23465  29.007  19.023   4.519
51151W        W23466  10.299   7.875   2.813
51152W        W23467  42.089  29.517  10.009
51153W        W23468  27.720  41.226  12.430
51154W        W23469  33.336  35.592  14.309
51155W        W23470   3.337  31.427  12.010
51156W        W23471   9.269  26.390   1.806
51157W        W23472  22.223  27.659   1.911
51158W        W23473  37.888   6.876  12.879
51159W        W23474  24.712  13.176   2.382
51160W        W23475   7.969   1.710  13.103
51161W        W23476  42.857  14.865  12.963
51162W        W23477  32.585  38.171   2.313
51163W        W23478   9.892  34.120   2.410
51164W        W23479   4.962   7.170   2.603
51165W        W23480   5.642   5.943  14.850
51166W        W23481   2.344  39.746   4.101
51167W        W23482  13.528  28.947   3.933
51168W        W23483  23.385  37.748   4.458
51169W        W23484  12.538   9.850   0.581
51170W        W23485  25.210  17.856  12.586
51171W        W23486  18.654  13.658   1.198
51172W        W23487  37.163  26.607   0.776
51173W        W23488  22.485   9.265   2.246
51174W        W23489   9.178   3.447   1.338
51175W        W23490  24.288   3.265   3.574
51176W        W23491  37.915  32.962   3.186
51177W        W23492   2.553  25.588   2.684
51178W        W23493   0.867  43.914   3.695
51179W        W23494  20.271  10.864  14.792
51180W        W23495  37.594  17.064  12.545
51181W        W23496   9.307  12.782   4.575
51182W        W23497  35.393  13.372  13.055
51183W        W23498  42.439  39.636  11.868
51184W        W23499  11.943  32.341  11.176
51185W        W23500   2.565  26.324  10.610
51186W        W23501   9.688   2.422   1.973
51187W        W23502  33.055  35.394   1.236
51188W        W23503  10.857  16.247  10.179
51189W        W23504  35.086  23.119  14.072
51190W        W23505  40.413  19.599   1.020
51191W        W23506  23.537  23.217  12.096
51192W        W23507  28.111  38.018   4.798
51193W        W23508  30.362  28.783   1.309
51194W        W23509  19.018  10.129   1.806
51195W        W23510  37.120  16.944   3.278
51196W        W23511   0.704  41.750   2.860
51197W        W23512  25.239  31.824   4.100
51198W        W23513  40.506  40.401  13.450
51199W        W23514   7.328  35.577   1.849
51200W        W23515  39.446  25.650   4.761
51201W        W23516   8.781   3.769  13.003
51202W        W23517  28.390  28.174  11.616
51203W        W23518   7.463  12.900  14.122
51204W        W23519  29.872  21.209   3.334
51205W        W23520   1.706  17.331  11.655
51206W        W23521  12.820  41.881   0.156
51207W        W23522   0.394  35.478   1.357
51208W        W23523  32.228  40.041   0.925
51209W        W23524  14.074  13.282   3.164
51210W        W23525  13.084   7.891  14.444
51211W        W23526  43.701  35.815   3.339
51212W        W23527  33.977  44.271   2.642
51213W        W23528   9.456   6.120  13.823
51214W        W23529  18.666   4.765  13.002
51215W        W23530  21.464  43.988  11.117
51216W        W23531  34.493  20.928  11.429
51217W        W23532  36.849  29.498   2.325
51218W        W23533  12.293   6.583  13.907
51219W        W23534  14.373  24.154  13.911
51220W        W23535   4.146  42.422  10.711
51221W        W23536  33.179  42.890   2.106
51222W        W23537  33.563  17.360  13.935
51223W        W23538   3.266  22.632  11.398
51224W        W23539   5.242  12.670   4.038
51225W        W23540  28.520   4.333  14.405
51226W        W23541  22.954  38.995  13.556
51227W        W23542  19.880  21.926  11.641
51228W        W23543  43.537  42.115  13.627
51229W        W23544  25.638  17.258   2.552
51230W        W23545  12.263  42.554   0.301
51231W        W23546   1.469  18.829   4.514
51232W        W23547  28.350  10.198   1.806
51233W        W23548  12.463  17.546   0.569
51234W        W23549   8.068  35.711   2.364
51235W        W23550  30.642  39.294   2.649
51236W        W23551  28.694  24.268   1.716
51237W        W23552  18.384   8.381   4.673
51238W        W23553  27.792  18.503  11.118
51239W        W23554  28.063  13.225   3.401
51240W        W23555   0.881  42.945   4.635
51241W        W23556  42.401  42.694  13.855
51242W        W23557   6.306  19.629   0.432
51243W        W23558  27.114  28.867  11.996
51244W        W23559   6.407  29.559   5.184
51245W        W23560   7.315  13.367  13.967
51246W        W23561  15.159   3.413  14.432
51247W        W23562   4.905   7.409   4.567
51248W        W23563  16.747  33.632  13.035
51249W        W23564  19.551  20.015   2.304
51250W        W23565  30.009  27.728  11.198
51251W        W23566  27.685   8.212   3.818
51252W        W23567  23.121   7.150   0.453
51253W        W23568   4.250  23.581   1.632
51254W        W23569  33.483   1.481  11.560
51255W        W23570  34.823  30.882   4.551
51256W        W23571  22.957   7.196   2.620
51257W        W23572  35.720  10.571  11.731
51258W        W23573  42.797  22.700   1.582
51259W        W23574  36.629  15.670  14.264
51260W        W23575  13.758  37.475  14.832
51261W        W23576   0.983  16.749   2.295
51262W        W23577  18.274  14.865  13.970
51263W        W23578  37.586   1.637   2.621
51264W        W23579  42.293  35.033   4.533
51265W        W23580  36.096  11.244  11.579
51266W        W23581  14.014  17.028   5.103
51267W        W23582  37.041   1.703   2.675
51268W        W23583  16.333  33.048   1.801
51269W        W23584  16.953  12.327  11.389
51270W        W23585  30.147  30.694  13.862
51271W        W23586  39.245   0.868  13.168
51272W        W23587  17.316   5.580   0.075
51273W        W23588  13.678  18.226   1.362
51274W        W23589  38.730  25.665   2.318
51275W        W23590  32.053  22.968   4.717
51276W        W23591  34.052  10.881  13.962
51277W        W23592  18.136   0.271  13.545
51278W        W23593  39.618  10.996  12.140
51279W        W23594  32.020   9.238   0.748
51280W        W23595  37.089  42.633  12.412
51281W        W23596  22.593  36.249  10.524
51282W        W23597  25.994  24.120  12.499
51283W        W23598  19.172  19.177  14.985
51284W        W23599  36.453   3.107   5.111
51285W        W23600  37.314  26.613   3.536
51286W        W23601  12.091  15.182  11.631
51287W        W23602  22.712   5.526  12.406
51288W        W23603  29.668  38.572  13.448
51289W        W23604  14.175   8.119  11.682
51290W        W23605   9.145  43.094   5.033
51291W        W23606   0.101  28.528   0.717
51292W        W23607   5.660  22.577  11.675
51293W        W23608  34.381   7.875   2.856
51294W        W23609  42.118  12.697   3.624
51295W        W23610  34.863  19.488  11.454
51296W        W23611  43.086  43.222   2.301
51297W        W23612  42.114  21.543  10.716
51298W        W23613  32.998   9.641   1.314
51299W        W23614  30.442  22.079   4.657
51300W        W23615  25.046  39.915  12.170
51301W        W23616  34.593  22.186  13.976
51302W        W23617  16.218  30.188  12.883
51303W        W23618  25.129  27.825   2.086
51304W        W23619  19.759  40.927  13.611
51305W        W23620  33.418  40.989  14.466
51306W        W23621   8.453  24.702  12.094
51307W        W23622  33.175  25.194   4.208
51308W        W23623  26.270  37.432   1.823
51309W        W23624   6.334  41.303   2.689
51310W        W23625   0.904   1.336   2.844
51311W        W23626   6.380   4.154   2.409
51312W        W23627   8.728  43.306   2.360
51313W        W23628   7.304  32.989   2.905
51314W        W23629  13.370  14.228  14.779
51315W        W23630  44.762   3.158   0.238
51316W        W23631  17.641  11.504  14.581
51317W        W23632  43.887   3.023  13.903
51318W        W23633  28.348   9.872  10.016
51319W        W23634  44.066  12.192  11.008
51320W        W23635  25.686  25.944   2.264
51321W        W23636  40.395  42.935  13.464
51322W        W23637  25.612  35.706  13.347
51323W        W23638  36.982   3.180  13.990
51324W        W23639  43.467   3.139   1.696
51325W        W23640  23.097  17.265   1.964
51326W        W23641  18.358  34.140   0.897
51327W        W23642  22.052  35.062  12.771
51328W        W23643  14.238  33.076  12.065
51329W        W23644   1.067  20.247   4.588
51330W        W23645  33.535   4.836   5.205
51331W        W23646  31.567  17.869   2.212
51332W        W23647  43.502  28.446  13.004
51333W        W23648  33.610  38.535  13.376
51334W        W23649   7.629  22.327   0.821
51335W        W23650  30.456  30.160  11.178
51336W        W23651  20.070  27.998  13.444
51337W        W23652  41.742  42.505   0.494
51338W        W23653  23.585  18.574   1.667
51339W        W23654  37.884  36.436  14.450
51340W        W23655   7.574   6.739   2.855
51341W        W23656  33.623   6.062  12.011
51342W        W23657  17.213   0.277  12.406
51343W        W23658   5.951  21.209   1.398
51344W        W23659  10.787  26.169  12.018
51345W        W23660   9.522  44.841   2.858
51346W        W23661  37.034  36.298  10.987
51347W        W23662  12.744  19.787  13.491
51348W        W23663  33.588   9.980  13.538
51349W        W23664  10.385  19.684  10.682
51350W        W23665  36.926  10.856   0.933
51351W        W23666  26.993  36.903   1.897
51352W        W23667  29.917   4.706  14.177
51353W        W23668  10.191  32.002   2.750
51354W        W23669  23.995   3.849   4.151
51355W        W23670  10.246  15.810  11.960
51356W        W23671  31.556  18.819   2.131
51357W        W23672  24.298  16.383   0.081
51358W        W23673   4.936  21.141  10.549
51359W        W23674  22.242  30.421  14.913
51360W        W23675   4.682   2.771   1.482
51361W        W23676  10.754  25.978   4.968
51362W        W23677  10.429  14.660  12.469
51363W        W23678  42.314  13.608  14.815
51364W        W23679  35.012  23.212  12.919
51365W        W23680  11.628   8.549   4.064
51366W        W23681  18.586   3.647   1.946
51367W        W23682  40.423  32.227   3.305
51368W        W23683  40.913   9.733   0.361
51369W        W23684  41.027  11.475  13.562
51370W        W23685  25.066  12.529   1.191
51371W        W23686  34.822  17.549   0.932
51372W        W23687  43.420  21.308   2.453
51373W        W23688  27.132  35.626  13.815
51374W        W23689  14.251  35.295   3.587
51375W        W23690  42.733  19.776   4.314
51376W        W23691  18.484  13.567   3.254
51377W        W23692  43.216  36.987   0.708
51378W        W23693  29.125  19.312  14.409
51379W        W23694  23.279  38.847   4.212
51380W        W23695  19.535  27.631  12.930
51381W        W23696  39.539  14.698  12.798
51382W        W23697  40.271  40.575  11.132
51383W        W23698  23.653   9.252  12.489
51384W        W23699   1.546  22.333   3.615
51385W        W23700  43.468  30.581   0.047
51386W        W23701  41.346   5.841   2.859
51387W        W23702   4.040  43.403   3.101
51388W        W23703  10.873   2.754  12.920
51389W        W23704  27.532  44.255   1.398
51390W        W23705  29.327  39.504  12.615
51391W        W23706  15.641   2.029  12.777
51392W        W23707  21.543  43.701   3.740
51393W        W23708   3.990  32.148  13.171
51394W        W23709  24.630   6.538   3.542
51395W        W23710   3.531   0.765  10.716
51396W        W23711  12.366  44.009  14.019
51397W        W23712  24.035  14.202   3.994
51398W        W23713  21.957  22.768   2.792
51399W        W23714  21.145  42.968  14.315
51400W        W23715  22.700   4.968  12.479
51401W        W23716  27.256   3.824  13.901
51402W        W23717  35.888   7.422  10.758
51403W        W23718  16.281  37.445  12.948
51404W        W23719   7.394  18.314   2.071
51405W        W23720  20.117   6.937   3.058
51406W        W23721  26.458  23.156  12.171
51407W        W23722  16.222  27.018  11.014
51408W        W23723   8.453  38.756   1.352
51409W        W23724  35.630  29.162  14.073
51410W        W23725   0.754   3.315  10.286
51411W        W23726   1.061  42.563  12.048
51412W        W23727  33.117   7.512   4.181
51413W        W23728   1.870  10.312   4.150
51414W        W23729  12.759  12.825  13.540
51415W        W23730  23.114  38.755  12.242
51416W        W23731  23.174  31.925   1.713
51417W        W23732   0.601  42.492   4.578
51418W        W23733  33.415  32.417  13.433
51419W        W23734  32.933  31.944   4.080
51420W        W23735  11.757   3.915  12.822
51421W        W23736   2.220  12.700  11.933
51422W        W23737  26.624  28.004  10.850
51423W        W23738  26.537  17.780  12.935
51424W        W23739  16.357   4.726  14.541
51425W        W23740  33.080  34.082  11.963
51426W        W23741  27.305  21.004   3.150
51427W        W23742  38.956   0.300  12.118
51428W        W23743   7.837  25.254  12.502
51429W        W23744  11.803  29.950  10.658
51430W        W23745  27.188  14.546   5.069
51431W        W23746  44.337   0.731   5.507
51432W        W23747   0.518  37.964  11.529
51433W        W23748  25.755  33.058   0.086
51434W        W23749  26.892  34.917   2.337
51435W        W23750  22.629  34.815  14.020
51436W        W23751  15.478  33.962  11.629
51437W        W23752   7.270  15.653  11.287
51438W        W23753  15.956  35.977  12.983
51439W        W23754  30.491  34.913   0.161
51440W        W23755  11.232  14.121  14.053
51441W        W23756  32.645  15.357   0.844
51442W        W23757  22.125  31.072   0.265
51443W        W23758   2.928  33.645  13.175
51444W        W23759  21.723  44.302   2.546
51445W        W23760  10.835  26.842   4.592
51446W        W23761  38.902  26.913   0.383
51447W        W23762  21.853  34.351   4.315
51448W        W23763  28.508  35.064  10.400
51449W        W23764  32.124  24.941  12.975
51450W        W23765  31.665   0.454   3.370
51451W        W23766  17.549  28.387  13.828
51452W        W23767   1.648  21.058  12.454
51453W        W23768   4.581  25.215   2.207
51454W        W23769  32.862  30.902   1.334
51455W        W23770   3.630  15.522  13.852
51456W        W23771   8.411   2.842  14.529
51457W        W23772  34.135  32.824  10.756
51458W        W23773  41.355  22.476  12.842
51459W        W23774   9.312  30.580  11.686
51460W        W23775  33.806   6.648   0.002
51461W        W23776  34.937  34.657   4.623
51462W        W23777  18.282  24.235   0.699
51463W        W23778  28.450  40.999  14.454
51464W        W23779   0.466  26.471   1.303
51465W        W23780  34.044  27.088  14.413
51466W        W23781  37.880  44.179  10.419
51467W        W23782  17.172  11.190   2.496
51468W        W23783   9.825  24.632   2.003
51469W        W23784  13.959  43.514  13.983
51470W        W23785  40.734  18.448  14.869
51471W        W23786   6.794  21.201   0.991
51472W        W23787  27.793   8.622  11.825
51473W        W23788  20.827  24.800   2.322
51474W        W23789  10.611  30.304  11.449
51475W        W23790  18.045  21.944  10.702
51476W        W23791  28.219  39.041  12.984
51477W        W23792  28.649  14.869  14.241
51478W        W23793  28.021  25.015   4.977
51479W        W23794  21.656  16.040  14.532
51480W        W23795   1.383  30.598   1.943
51481W        W23796   8.887  38.800  12.536
51482W        W23797  15.173  29.229   2.147
51483W        W23798   1.999  20.172  12.460
51484W        W23799  29.933   9.709   0.809
51485W        W23800  39.295  34.538   4.618
51486W        W23801  27.469  17.575  11.024
51487W        W23802   0.278  40.317  12.458
51488W        W23803  44.239  30.455  14.328
51489W        W23804  22.496  13.297  11.172
51490W        W23805  24.756  14.410  11.074
51491W        W23806  14.804  40.046   4.721
51492W        W23807   2.750  23.220   4.191
51493W        W23808  32.293  22.657   5.105
51494W        W23809  23.057   1.210  13.568
51495W        W23810  17.178  23.106   3.816
51496W        W23811  12.575  20.564  12.566
51497W        W23812  31.067  10.828   4.618
51498W        W23813  34.674  33.287  13.483
51499W        W23814  28.240  38.068  13.532
51500W        W23815   5.071   3.392  12.433
51501W        W23816   7.774  41.554   2.127
51502W        W23817  24.153  38.152   0.718
51503W        W23818  22.713   9.383   2.697
51504W        W23819   6.642  29.315  12.466
51505W        W23820  41.651  30.190  10.755
51506W        W23821  23.059  36.841  11.545
51507W        W23822  17.704   0.887   4.236
51508W        W23823  35.864  32.611  13.639
51509W        W23824   9.835  44.492   4.527
51510W        W23825  10.683   1.355   1.238
51511W        W23826  14.297  44.143  12.314
51512W        W23827  14.084   1.638  10.955
51513W        W23828  41.116  16.527  11.594
51514W        W23829  39.213   1.077   1.398
51515W        W23830   6.927  25.079   1.758
51516W        W23831  34.025  32.899   1.848
51517W        W23832  39.652  21.217  11.081
51518W        W23833  35.638   8.690  13.571
51519W        W23834  18.762  15.634   4.293
51520W        W23835  29.446  15.563  12.388
51521W        W23836   8.978  16.026   3.715
51522W        W23837  35.276  38.429  14.010
51523W        W23838  35.578  36.663  12.857
51524W        W23839  26.271   9.896  14.472
51525W        W23840   1.259  38.032  14.848
51526W        W23841  19.560  27.874  13.388
51527W        W23842   4.013  27.416   4.605
51528W        W23843  32.947  19.515   1.528
51529W        W23844  15.150   3.855  14.680
51530W        W23845  20.618  13.226   2.818
51531W        W23846  32.157  17.565   4.678
51532W        W23847  38.608  36.983   2.402
51533W        W23848   9.678  20.035   2.711
51534W        W23849  18.124  13.770  11.556
51535W        W23850   5.046  40.054  12.541
51536W        W23851  18.801  37.580   0.732
51537W        W23852  29.820  12.800  12.069
51538W        W23853  33.202  22.461  12.959
51539W        W23854   2.366  28.205   0.482
51540W        W23855  11.761   6.765   3.141
51541W        W23856   1.858   8.938  10.665
51542W        W23857   8.272  20.935   4.176
51543W        W23858  17.478  33.518  14.101
51544W        W23859   4.259  43.307   4.270
51545W        W23860   8.292  36.497   0.377
51546W        W23861  42.045   3.021  13.043
51547W        W23862  16.316   8.619   5.022
51548W        W23863  41.984  12.174   2.819
51549W        W23864   3.703  23.014   3.890
51550W        W23865  12.203  33.586   1.464
51551W        W23866   6.160  17.221  12.649
51552W        W23867  41.010  15.333   2.812
51553W        W23868  44.398  37.619  13.110
51554W        W23869   7.895  10.831  10.427
51555W        W23870   0.661  36.048  12.806
51556W        W23871  20.838   6.733  14.772
51557W        W23872   5.921  37.937   1.865
51558W        W23873  37.895  10.620  14.775
51559W        W23874  15.264   2.731   0.188
51560W        W23875  16.698  40.400   4.985
51561W        W23876   3.789  35.643  11.179
51562W        W23877   0.018  23.985  14.719
51563W        W23878   7.616   1.934   4.592
51564W        W23879  10.357  17.771   3.197
51565W        W23880   5.029  44.341   1.342
51566W        W23881  11.697  33.176   3.713
51567W        W23882  18.305  17.000   2.067
51568W        W23883  33.242  42.015   1.928
51569W        W23884  33.630  17.563  11.968
51570W        W23885  23.572  25.645  14.303
51571W        W23886  27.620   5.434   2.325
51572W        W23887  17.764   1.004   1.361
51573W        W23888  12.482   5.348   4.449
51574W        W23889  18.494  23.925   2.314
51575W        W23890  24.768  29.554  11.655
51576W        W23891  33.682  42.028   1.671
51577W        W23892   6.298   2.378   1.153
51578W        W23893  37.075  21.931   4.659
51579W        W23894  24.332  11.733  10.451
51580W        W23895  43.301  30.818   4.537
51581W        W23896  24.935   7.206   0.847
51582W        W23897  40.381  29.869   4.698
51583W        W23898   1.739  30.903  10.903
51584W        W23899  26.412  31.783  12.452
51585W        W23900   7.270   2.275  13.983
51586W        W23901  13.378  31.197   4.608
51587W        W23902  27.532  33.636   3.104
51588W        W23903  37.392   0.454   4.922
51589W        W23904  11.400  40.919  14.752
51590W        W23905  11.750  21.972   2.445
51591W        W23906  19.500  26.268   0.982
51592W        W23907   9.619  33.387   0.236
51593W        W23908  38.125  26.977   2.358
51594W        W23909   6.262  38.490   4.018
51595W        W23910  44.681  25.117   4.603
51596W        W23911   5.693   8.863   3.770
51597W        W23912  24.394  11.327   0.486
51598W        W23913  17.607  34.041  11.510
51599W        W23914  27.402  27.581  11.157
51600W        W23915  26.487  13.033  12.592
51601W        W23916  43.303  18.839   3.707
51602W        W23917  22.206  39.486  14.529
51603W        W23918  17.769  12.843  10.659
51604W        W23919  33.144  44.843  10.827
51605W        W23920  30.092  26.603  14.927
51606W        W23921  29.694  23.147  12.632
51607W        W23922   1.057  11.179   2.390
51608W        W23923   5.235  38.414   0.469
51609W        W23924  13.308  38.031  14.277
51610W        W23925  17.356   1.848  11.635
51611W        W23926  30.061  40.345   3.287
51612W        W23927  12.117  37.819  13.780
51613W        W23928  26.580  14.078  10.402
51614W        W23929   2.361  44.034   4.023
51615W        W23930  28.686  36.088   4.985
51616W        W23931   5.379  35.069  12.770
51617W        W23932   0.763  37.387   3.378
51618W        W23933  44.153  22.725  13.983
51619W        W23934   8.026  16.284  10.934
51620W        W23935  11.753  17.983   4.207
51621W        W23936  10.797  30.462   4.929
51622W        W23937   7.233   7.331   1.690
51623W        W23938  11.415  11.611   1.732
51624W        W23939  24.772  42.128   3.852
51625W        W23940  17.062  26.558   3.625
51626W        W23941  26.570  22.229   1.276
51627W        W23942   4.969  15.093  11.282
51628W        W23943   4.324  28.179  10.745
51629W        W23944  26.613  17.303   1.485
51630W        W23945  42.537  38.492   1.272
51631W        W23946  33.416   0.239  12.853
51632W        W23947  30.391  42.326  13.438
51633W        W23948  30.548   1.490  12.694
51634W        W23949  11.306  10.813   3.747
51635W        W23950   4.895  28.959  11.597
51636W        W23951  23.058  26.115  11.419
51637W        W23952  16.690  42.963   3.566
51638W        W23953  23.173  25.624  11.193
51639W        W23954   3.415  26.125  14.891
51640W        W23955  18.595  24.179   1.237
51641W        W23956  15.078  23.032  10.840
51642W        W23957  33.630   2.876  13.973
51643W        W23958  26.346  27.950  11.680
51644W        W23959   5.556  25.209   3.317
51645W        W23960  24.211  18.293   1.875
51646W        W23961  14.781  44.085   3.722
51647W        W23962  37.835  12.850  10.591
51648W        W23963  41.791  25.116   2.822
51649W        W23964  17.118  26.606   3.112
51650W        W23965  32.663  35.613  12.922
51651W        W23966   7.707  26.751  10.714
51652W        W23967  22.582  39.846  14.509
51653W        W23968  24.899  41.844   4.877
51654W        W23969  12.018  41.770  12.567
51655W        W23970  12.178  40.407  13.492
51656W        W23971   3.551  19.012  13.809
51657W        W23972  37.445  33.790   4.103
51658W        W23973  20.278  18.374   1.263
51659W        W23974  34.325  14.785  14.839
51660W        W23975  23.446  25.266   1.909
51661W        W23976  43.074  25.790   3.468
51662W        W23977  14.805  39.223   2.423
51663W        W23978  11.691   1.116  14.751
51664W        W23979   0.106  13.830  13.884
51665W        W23980  25.688  20.226   1.373
51666W        W23981  44.631  38.910   4.205
51667W        W23982  36.175  15.692   2.370
51668W        W23983   8.830  28.949   4.573
51669W        W23984   5.062  39.067  14.222
51670W        W23985  35.419  38.296   4.818
51671W        W23986  39.759   6.349  13.063
51672W        W23987  41.866  26.377   3.332
51673W        W23988  17.373  15.170   4.611
51674W        W23989  36.644  13.263   1.944
51675W        W23990  23.273   4.457  10.775
51676W        W23991  40.158  42.793   0.423
51677W        W23992  30.954  19.586  14.240
51678W        W23993   6.454  22.654  11.131
51679W        W23994  16.632  39.344  14.781
51680W        W23995  38.502  14.265  10.713
51681W        W23996  28.734  31.410   3.317
51682W        W23997   7.252  42.913  12.026
51683W        W23998  36.154  20.221   1.423
51684W        W23999  18.526  25.237   3.674
51685W        W24000   1.473  26.262  12.951
51686W        W24001   4.653  34.817  11.193
51687W        W24002  30.698  27.955  14.437
51688W        W24003  20.904  26.581  13.451
51689W        W24004  26.720  22.682   2.221
51690W        W24005  44.807  17.598  12.869
51691W        W24006  21.506  35.082   1.503
51692W        W24007  21.835   6.252  11.576
51693W        W24008  11.506  22.540  13.442
51694W        W24009  34.172  37.445  13.111
51695W        W24010  12.613  43.888   1.822
51696W        W24011  25.020  38.150  14.017
51697W        W24012  21.968  13.517  12.054
51698W        W24013   9.459  39.903   1.334
51699W        W24014  13.794  38.329  12.831
51700W        W24015  11.141   5.310  10.704
51701W        W24016  20.737  28.291   3.983
51702W        W24017  38.750   2.682  14.065
51703W        W24018  43.005  25.402   0.330
51704W        W24019  12.303  30.703  11.018
51705W        W24020  15.127  27.448  11.136
51706W        W24021  40.514  17.917   4.885
51707W        W24022   1.420  13.372   2.801
51708W        W24023  17.693  42.524   1.380
51709W        W24024  24.563  13.285   4.653
51710W        W24025  30.481  18.894  11.197
51711W        W24026  18.272  24.384   2.283
51712W        W24027  20.059   9.343   1.460
51713W        W24028   0.421   9.628  14.957
51714W        W24029  18.768  39.358   0.393
51715W        W24030  15.111  38.623   0.052
51716W        W24031   6.190  12.351   4.981
51717W        W24032  13.771  18.546  12.386
51718W        W24033  41.341  41.036  12.884
51719W        W24034  22.475  18.164  11.493
51720W        W24035   3.283  27.425   2.672
51721W        W24036  40.813   2.463  14.704
51722W        W24037  17.140  39.239  10.577
51723W        W24038  24.248   0.337  10.648
51724W        W24039  20.296  26.497  12.402
51725W        W24040  27.084  40.584  11.713
51726W        W24041   4.581   5.786  11.505
51727W        W24042  21.762  23.156  13.454
51728W        W24043  12.135   0.266   4.524
51729W        W24044   7.746   9.147  12.492
51730W        W24045   1.822   9.959   5.126
51731W        W24046  44.541   8.597  12.769
51732W        W24047   6.144  31.562  13.409
51733W        W24048  21.628  35.606   2.305
51734W        W24049  17.666  24.152   0.006
51735W        W24050   6.405  10.402  12.967
51736W        W24051  21.462  23.201  11.380
51737W        W24052   8.662  23.753  10.674
51738W        W24053  35.648  15.227   1.844
51739W        W24054  13.775   2.203  14.477
51740W        W24055  43.799  11.345   1.412
51741W        W24056   2.800  23.108  14.954
51742W        W24057   7.766  32.828   2.778
51743W        W24058   6.265   3.680   4.615
51744W        W24059   9.678  22.803   0.840
51745W        W24060  19.021  44.559  14.965
51746W        W24061   2.691  38.084  14.755
51747W        W24062  33.632  13.246  11.505
51748W        W24063  20.799  10.879   0.601
51749W        W24064  26.473  18.206   5.048
51750W        W24065  27.192  24.530  12.072
51751W        W24066  15.557  22.278   0.287
51752W        W24067  26.711  35.412  12.021
51753W        W24068   7.189  42.530   1.281
51754W        W24069  24.920  29.608   2.182
51755W        W24070  24.758  21.023   3.026
51756W        W24071  14.922  26.963   2.421
51757W        W24072   8.775  10.867   3.868
51758W        W24073  24.188  35.927  10.798
51759W        W24074  20.792  13.876   0.914
51760W        W24075  33.341   8.634   3.526
51761W        W24076   8.168  10.629  12.728
51762W        W24077  11.187  13.310   1.272
51763W        W24078  39.961  30.091  11.542
51764W        W24079  32.121  11.924   2.820
51765W        W24080   9.042  26.641   2.376
51766W        W24081  42.549  24.727   0.779
51767W        W24082   4.788  16.604  13.103
51768W        W24083  13.566  21.813  13.380
51769W        W24084  30.661  15.294   4.109
51770W        W24085  22.010  19.145   2.381
51771W        W24086   6.836  12.350   0.315
51772W        W24087  44.501  41.341   2.233
51773W        W24088  18.220  44.524   4.072
51774W        W24089  35.819  36.602   0.787
51775W        W24090   9.493  43.740  12.479
51776W        W24091   8.107   4.623   2.143
51777W        W24092   1.117  13.712   4.118
51778W        W24093  36.560  32.973  13.561
51779W        W24094  22.013  21.835  12.674
51780W        W24095   7.064  13.395   2.889
51781W        W24096  40.233  20.632  10.999
51782W        W24097  32.740   2.410  13.025
51783W        W24098   5.292   0.394   1.416
51784W        W24099  37.056  30.890  10.686
51785W        W24100  36.941  35.870  13.040
51786W        W24101   4.589  19.937   1.239
51787W        W24102  18.214  12.775  11.584
51788W        W24103  26.190  41.396   1.813
51789W        W24104  33.940   0.355  14.557
51790W        W24105  40.324  31.207   2.238
51791W        W24106  17.641   0.202  14.875
51792W        W24107  28.836  11.915  12.066
51793W        W24108  18.611  29.884  12.446
51794W        W24109  41.057   6.225  14.033
51795W        W24110  28.663  26.155   0.531
51796W        W24111  40.307  28.507   3.431
51797W        W24112   4.977  35.510  11.086
51798W        W24113  24.040  16.530   4.663
51799W        W24114  39.064  14.372   0.354
51800W        W24115   3.048  11.209  13.021
51801W        W24116   6.343   6.152  11.022
51802W        W24117   2.108   6.301   5.035
51803W        W24118  25.657  38.985   4.978
51804W        W24119  17.015  21.528  12.028
51805W        W24120  20.973  31.050  12.052
51806W        W24121  39.276  34.912   1.340
51807W        W24122  19.337   5.906   3.425
51808W        W24123  28.122  11.673  14.729
51809W        W24124  25.349  39.250  14.952
51810W        W24125  35.810   7.703   1.483
51811W        W24126   8.759  17.134   1.495
51812W        W24127  32.944   1.850  14.067
51813W        W24128  25.451  23.765  12.992
51814W        W24129  10.979  20.327   2.345
51815W        W24130  36.988  16.197  13.044
51816W        W24131  22.088  40.104   4.622
51817W        W24132   6.364  12.680   0.341
51818W        W24133  28.881   3.856   0.837
51819W        W24134   0.417  13.802  14.304
51820W        W24135  26.445  41.913  14.093
51821W        W24136   1.660  29.773   3.123
51822W        W24137  25.100   0.377  11.228
51823W        W24138  24.557  27.579   1.296
51824W        W24139  22.680  29.391  13.867
51825W        W24140  39.119   7.085  11.558
51826W        W24141  27.253  34.209   5.339
51827W        W24142  35.490  34.273   3.490
51828W        W24143  44.910  25.759   4.112
51829W        W24144  41.291  34.897  14.383
51830W        W24145  10.041  16.688  12.915
51831W        W24146   1.266  14.668   1.316
51832W        W24147  27.453  16.722  12.421
51833W        W24148  27.220  32.399   3.314
51834W        W24149  41.549  25.488   4.133
51835W        W24150  13.580  23.203   2.124
51836W        W24151  11.946  34.438  11.407
51837W        W24152  30.555  19.275  14.314
51838W        W24153  32.484  44.433   2.733
51839W        W24154  27.184  16.746   4.056
51840W        W24155  25.763  44.279  13.974
51841W        W24156  27.730   5.738   3.590
51842W        W24157  34.395   0.975  13.873
51843W        W24158   2.253  15.983  14.018
51844W        W24159   7.983  11.637  11.385
51845W        W24160  22.643  11.336  10.451
51846W        W24161  27.519  14.772   1.240
51847W        W24162  15.745  13.551  14.736
51848W        W24163  36.297   1.289  10.661
51849W        W24164   1.808  20.981   3.193
51850W        W24165   1.711  43.530  13.956
51851W        W24166   1.368  30.248   0.977
51852W        W24167  39.153   4.989   2.235
51853W        W24168  31.023  16.100   4.977
51854W        W24169  19.894  28.427   4.320
51855W        W24170  44.223   8.369  13.586
51856W        W24171  32.976  35.934   1.289
51857W        W24172  39.272   0.454  11.233
51858W        W24173  40.594  13.274  12.002
51859W        W24174   3.027  14.507   1.709
51860W        W24175  39.441  30.585   3.879
51861W        W24176  15.312  13.890  13.841
51862W        W24177  25.103  22.700  10.897
51863W        W24178  43.569  21.633   1.699
51864W        W24179   7.101   4.812   0.971
51865W        W24180  15.213  25.094   2.712
51866W        W24181  39.923   2.873   0.368
51867W        W24182  18.447  35.244   0.829
51868W        W24183  22.391  40.713  10.262
51869W        W24184  14.288   5.326   2.787
51870W        W24185  12.636  34.204   4.792
51871W        W24186  25.420  33.637  12.846
51872W        W24187  34.180   9.172  10.633
51873W        W24188  29.569  35.232   2.927
51874W        W24189  28.646  25.020  10.749
51875W        W24190  36.277  33.613   3.694
51876W        W24191  19.915  43.346   2.371
51877W        W24192  29.554  12.380  12.440
51878W        W24193  40.810  27.502   2.667
51879W        W24194   8.640   4.298   4.287
51880W        W24195  19.656  21.452   1.293
51881W        W24196  13.173  27.482  14.938
51882W        W24197  33.679  43.661   0.405
51883W        W24198  27.727   0.840   4.569
51884W        W24199  36.288   8.838   4.139
51885W        W24200  17.690   6.800  11.354
51886W        W24201  41.557   2.671  14.803
51887W        W24202   7.689  44.910  11.619
51888W        W24203  40.959   2.942  14.531
51889W        W24204  13.758   5.411  12.027
51890W        W24205   9.936   6.889   1.730
51891W        W24206  32.879  40.455   0.385
51892W        W24207   3.955   9.699   2.523
51893W        W24208  21.647  19.640   0.280
51894W        W24209   1.872  22.310   4.469
51895W        W24210   3.691  37.988   0.806
51896W        W24211  32.650  24.135   3.266
51897W        W24212  42.362   2.346  13.034
51898W        W24213  26.769  12.107   1.711
51899W        W24214  42.188  29.409   5.009
51900W        W24215   4.565  38.940  14.336
51901W        W24216  21.661  43.017  11.109
51902W        W24217  29.934  34.018  14.291
51903W        W24218  18.492  26.509   3.590
51904W        W24219  34.204   1.785  12.775
51905W        W24220   0.770  21.501   2.405
51906W        W24221  43.019   2.078   2.500
51907W        W24222  10.269  37.690   4.080
51908W        W24223  14.547  41.519   5.054
51909W        W24224  17.717  16.101   0.382
51910W        W24225   3.104  36.498   3.711
51911W        W24226   4.973   2.301   4.605
51912W        W24227  23.595  33.360   2.225
51913W        W24228  37.776  44.365   0.696
51914W        W24229  38.948  31.637   4.668
51915W        W24230  21.155   2.253   2.056
51916W        W24231  11.961   0.098  10.238
51917W        W24232   4.703  29.172  14.305
51918W        W24233  36.552  16.663   3.709
51919W        W24234  23.632   2.484  11.669
51920W        W24235   2.257  36.483   0.256
51921W        W24236   6.229  40.027   2.220
51922W        W24237   8.273  15.496  14.944
51923W        W24238  10.419  26.013   3.717
51924W        W24239   1.694  40.248   3.773
51925W        W24240  23.227  30.867  11.648
51926W        W24241   1.839  14.232  13.132
51927W        W24242  19.687   4.272  10.493
51928W        W24243  38.822  33.377  13.224
51929W        W24244  36.601  18.626  13.440
51930W        W24245  42.508  31.860   1.604
51931W        W24246  16.890  23.117   2.855
51932W        W24247  35.378  20.207  14.568
51933W        W24248  27.176  30.455  10.607
51934W        W24249  43.848  20.136   2.139
51935W        W24250  27.461  28.645   0.423
51936W        W24251  16.818   7.135   3.674
51937W        W24252  35.011  21.092   4.255
51938W        W24253  26.543  29.082   1.778
51939W        W24254  34.822  39.220   4.043
51940W        W24255  12.264   0.686  11.840
51941W        W24256  22.062  18.625   1.873
51942W        W24257  23.773   9.004   0.529
51943W        W24258  35.088  24.071  11.918
51944W        W24259   4.698  40.402   1.709
51945W        W24260  38.837  14.336   4.639
51946W        W24261  20.573  30.645  13.296
51947W        W24262  44.044  36.203   1.414
51948W        W24263  14.234  18.115   3.595
51949W        W24264   2.583  21.878   2.157
51950W        W24265  28.677  38.798  10.286
51951W        W24266  12.305  19.184   3.988
51952W        W24267  17.582   5.362  11.251
51953W        W24268  26.099  27.609  13.093
51954W        W24269  37.293  33.964  10.791
51955W        W24270  41.936   3.999  14.965
51956W        W24271  19.236  41.339   0.451
51957W        W24272  35.011  20.651   3.338
51958W        W24273  40.329  14.672  13.183
51959W        W24274  38.103   8.356  11.969
51960W        W24275   3.868  26.728  14.562
51961W        W24276  40.526  34.121  14.031
51962W        W24277  22.671  28.571  12.549
51963W        W24278  14.537  17.600  13.246
51964W        W24279  15.414  37.760   3.138
51965W        W24280  42.986  23.391  11.586
51966W        W24281  25.639  15.729  13.871
51967W        W24282   3.295  44.815   4.616
51968W        W24283  32.687  25.159  11.423
51969W        W24284   4.835  14.286   1.018
51970W        W24285  17.823  34.646  13.310
51971W        W24286  43.671   9.390  14.343
51972W        W24287  24.080   8.673  14.598
51973W        W24288  29.574  40.121   4.806
51974W        W24289  22.415  14.719  12.092
51975W        W24290  33.438   5.217  12.114
51976W        W24291  20.113  31.732  10.845
51977W        W24292  22.824  40.012   0.491
51978W        W24293  33.110  21.274   1.742
51979W        W24294   1.389  25.458  12.023
51980W        W24295  25.580  25.677  14.702
51981W        W24296   8.154  40.062   0.771
51982W        W24297  15.904  15.746  11.006
51983W        W24298  38.008  32.501   4.198
51984W        W24299  43.848  38.649   3.755
51985W        W24300  43.431  23.974   3.262
51986W        W24301  15.639  20.316   1.743
51987W        W24302  35.845  44.415   2.470
51988W        W24303  19.107  14.276  10.888
51989W        W24304  14.729  19.822  12.456
51990W        W24305  10.166  33.661  12.628
51991W        W24306  33.955   1.722  11.586
51992W        W24307  20.853  31.375   1.127
51993W        W24308   4.039   9.491   4.544
51994W        W24309   8.387  38.350  13.159
51995W        W24310  30.058  32.421  12.504
51996W        W24311  28.185  24.163  10.353
51997W        W24312   6.870  23.943  13.963
51998W        W24313  26.503  19.152   2.232
51999W        W24314  36.999   1.701  10.978
52000W        W24315  20.700  21.500  14.126
52001W        W24316  14.287   8.778  14.536
52002W        W24317  25.251   1.242   4.620
52003W        W24318   1.652   1.536   2.234
52004W        W24319  36.811   8.645   1.040
52005W        W24320  11.349  20.990   3.713
52006W        W24321  40.369  26.643   3.653
52007W        W24322  15.664  10.613  11.498
52008W        W24323   6.493  32.096  11.565
52009W        W24324   3.550   0.289   0.789
52010W        W24325  39.040  44.552   2.699
52011W        W24326   9.792  32.981   3.091
52012W        W24327  10.660  22.719  14.452
52013W        W24328  35.019  37.939  11.071
52014W        W24329  22.051  14.409  14.753
52015W        W24330   8.897  44.509   0.351
52016W        W24331  17.133  20.956  10.213
52017W        W24332  25.226  34.353   0.462
52018W        W24333  19.381  20.707   4.269
52019W        W24334  40.472  29.195   1.382
52020W        W24335  39.794   1.360   2.223
52021W        W24336  21.072  26.419   0.881
52022W        W24337  17.239   7.934   2.098
52023W        W24338  18.026  35.841   3.640
52024W        W24339  18.033  43.475  11.237
52025W        W24340   4.919  11.453   2.262
52026W        W24341  42.772  12.644  14.875
52027W        W24342  26.619  10.393   1.205
52028W        W24343   5.038  31.475   0.287
52029W        W24344  21.447  42.576  11.927
52030W        W24345  21.072  20.426  11.614
52031W        W24346  15.329   5.378  13.963
52032W        W24347  10.258   6.242  13.592
52033W        W24348  11.534  16.740  13.886
52034W        W24349  30.933  25.959  12.413
52035W        W24350   6.335  22.941   3.726
52036W        W24351  31.178   9.391   4.350
52037W        W24352  22.756  26.944  10.628
52038W        W24353  38.351  29.381  14.757
52039W        W24354  17.258  42.382   3.352
52040W        W24355  24.591  31.442   0.881
52041W        W24356  31.987  12.107   1.329
52042W        W24357  16.188   3.448   2.165
52043W        W24358   2.980  41.552  12.372
52044W        W24359  24.773   8.965  13.368
52045W        W24360  33.288   7.917  10.649
52046W        W24361  34.028  26.506   4.549
52047W        W24362  17.311  10.778   3.681
52048W        W24363  23.766  11.396  12.032
52049W        W24364  27.032   6.345  14.846
52050W        W24365   8.275  17.394   3.071
52051W        W24366  22.761  25.050  13.018
52052W        W24367  20.312  14.776  14.436
52053W        W24368   1.794  25.501   3.260
52054W        W24369  34.777   8.215   2.338
52055W        W24370   6.797  15.933   1.294
52056W        W24371   6.974  11.594   0.730
52057W        W24372  24.488  25.802   0.878
52058W        W24373  24.782  18.383   2.940
52059W        W24374  19.520  28.955   3.727
52060W        W24375  12.880  32.424  11.471
52061W        W24376  34.822  16.981   3.310
52062W        W24377   6.275  13.311   1.904
52063W        W24378  22.162  40.829  11.627
52064W        W24379  19.182   2.525   0.870
52065W        W24380  43.295  21.040   5.004
52066W        W24381  16.512  27.627  13.806
52067W        W24382  14.858   7.725  14.941
52068W        W24383  20.322  42.797   1.134
52069W        W24384   4.557   6.634   3.188
52070W        W24385   1.600  30.119   1.895
52071W        W24386   3.759  18.885  11.813
52072W        W24387  44.366  28.664   2.748
52073W        W24388   3.666   4.417   4.490
52074W        W24389   0.947  27.017   0.765
52075W        W24390  38.892  42.235   3.233
52076W        W24391  23.061   1.930   4.460
52077W        W24392   4.451   8.880   1.390
52078W        W24393  12.161  10.916   3.296
52079W        W24394  38.550  36.432  13.076
52080W        W24395  10.749  42.565   0.299
52081W        W24396   3.690  40.951  13.094
52082W        W24397  29.590  21.076  14.993
52083W        W24398  38.090  29.630   3.090
52084W        W24399   6.468  20.289  12.751
52085W        W24400  41.940  19.317  10.567
52086W        W24401  38.166   2.762   2.243
52087W        W24402  22.599  38.535  12.849
52088W        W24403  28.073  22.084  11.979
52089W        W24404  12.167   1.469  14.845
52090W        W24405  44.243   3.353   2.413
52091W        W24406  40.116  26.014  12.707
52092W        W24407   1.631  35.334   5.559
52093W        W24408   4.421  35.340  13.843
52094W        W24409  10.143   3.206  10.632
52095W        W24410  44.744   1.288   1.481
52096W        W24411  10.839  41.538  10.966
52097W        W24412  11.191  18.209  12.445
52098W        W24413  33.550   1.761   0.469
52099W        W24414  41.502   8.167   2.259
52100W        W24415   5.986  27.483  10.740
52101W        W24416  20.262  11.162  11.016
52102W        W24417  40.510  30.538  13.447
52103W        W24418   0.425  28.353   3.403
52104W        W24419  20.127  33.191  13.441
52105W        W24420  29.091  12.633  11.508
52106W        W24421  42.885  31.335   2.732
52107W        W24422   0.236  17.227  14.094
52108W        W24423  38.188  22.529   0.841
52109W        W24424  32.728  23.094   1.796
52110W        W24425  42.271  15.270   1.269
52111W        W24426  14.627  23.155  12.406
52112W        W24427  33.841  40.750   2.609
52113W        W24428   6.665   4.850   0.703
52114W        W24429  36.126  43.383   0.922
52115W        W24430  40.144   7.603  11.037
52116W        W24431  22.800   0.220   4.085
52117W        W24432  20.759  25.987  12.522
52118W        W24433   4.211  38.768   3.753
52119W        W24434   6.359  24.961  14.426
52120W        W24435  40.521  42.494   1.214
52121W        W24436  24.519  14.833   0.409
52122W        W24437  27.321  11.827   4.324
52123W        W24438  35.488  11.119   3.579
52124W        W24439  35.925  36.851  12.503
52125W        W24440  42.855  11.701  10.544
52126W        W24441  21.154   6.252   3.703
52127W        W24442  26.137  44.089   3.366
52128W        W24443  24.197   1.458   2.721
52129W        W24444   0.943  30.527   1.144
52130W        W24445  17.201  37.022  13.016
52131W        W24446   8.156  39.069   2.219
52132W        W24447  14.122  41.748  14.293
52133W        W24448  37.023  35.403   3.117
52134W        W24449  39.581  16.234   2.371
52135W        W24450   8.377  20.739   3.694
52136W        W24451  32.829  31.149   3.610
52137W        W24452  21.153  10.317   3.956
52138W        W24453  27.607  21.477   4.183
52139W        W24454  17.684  39.880  10.808
52140W        W24455  22.110  11.435   4.137
52141W        W24456  31.224  11.604  12.620
52142W        W24457  29.997  13.375   1.195
52143W        W24458  23.632  33.396  10.854
52144W        W24459  40.301  24.165  14.346
52145W        W24460  14.669  20.477  13.541
52146W        W24461  13.428  22.569   3.196
52147W        W24462  25.025   9.976  10.935
52148W        W24463  33.147  37.866  10.711
52149W        W24464  28.901  19.700  11.270
52150W        W24465   3.891  15.340  13.438
52151W        W24466  44.502  17.698   4.859
52152W        W24467  38.397  39.007   4.507
52153W        W24468  14.975  32.092   4.061
52154W        W24469  28.924  36.321  10.400
52155W        W24470  15.798  22.619  13.673
52156W        W24471   2.056  41.855   3.325
52157W        W24472  11.934  28.141  13.357
52158W        W24473  33.821   2.665   0.272
52159W        W24474  32.310  21.496   4.677
52160W        W24475   1.374  21.707   4.208
52161W        W24476  42.301  15.770   0.980
52162W        W24477  19.085  26.558  10.558
52163W        W24478   0.061  44.380  10.678
52164W        W24479  40.997  26.200  12.572
52165W        W24480  13.698  39.846  14.452
52166W        W24481  34.468  40.452   3.702
52167W        W24482  37.432  14.817  14.988
52168W        W24483  22.249   5.358   3.535
52169W        W24484   2.991   8.879   3.087
52170W        W24485  17.806   4.642   0.951
52171W        W24486  18.570  29.605  11.143
52172W        W24487  14.311  21.788   2.378
52173W        W24488  13.607   0.436  10.691
52174W        W24489  14.364   5.868   2.736
52175W        W24490  33.980  32.900   2.776
52176W        W24491  41.408   6.648  14.989
52177W        W24492  31.147   7.466  11.930
52178W        W24493  25.584   0.749  10.234
52179W        W24494  42.845  11.394  11.477
52180W        W24495  19.269   6.446   4.104
52181W        W24496  17.219  10.614   3.162
52182W        W24497  12.350  15.164  14.359
52183W        W24498  19.293   9.449  13.982
52184W        W24499  35.867  34.133  10.926
52185W        W24500  31.661  26.242   4.262
52186W        W24501  24.597  12.350   1.316
52187W        W24502  38.381   8.461   1.824
52188W        W24503  17.407  39.523  12.703
52189W        W24504  41.833  23.962  13.460
52190W        W24505  28.975  18.259  12.478
52191W        W24506   8.043  25.894   4.311
52192W        W24507   7.641  40.932   4.499
52193W        W24508  11.685  42.538  12.020
52194W        W24509  37.559   5.293   4.649
52195W        W24510  38.544  13.385  14.503
52196W        W24511  30.414  13.689  10.997
52197W        W24512  10.701   2.222   1.596
52198W        W24513  27.103  35.434   4.057
52199W        W24514  37.758  12.952  14.775
52200W        W24515  24.315  23.998   4.252
52201W        W24516  33.103  39.980   0.435
52202W        W24517  16.394  14.297  10.676
52203W        W24518  26.090   8.792  12.606
52204W        W24519  13.629  23.027   3.247
52205W        W24520  21.553  24.642   2.628
52206W        W24521   8.576  40.038  12.612
52207W        W24522   5.451  39.960  10.494
52208W        W24523  40.042  30.680   1.693
52209W        W24524  21.110  40.427  13.866
52210W        W24525  14.580  17.581  11.946
52211W        W24526  22.752  15.724  13.887
52212W        W24527  25.467   3.732   2.773
52213W        W24528  37.645  44.336   2.490
52214W        W24529  36.603  18.318  11.997
52215W        W24530  44.368  32.578   0.054
52216W        W24531  12.897   2.716  11.052
52217W        W24532  41.229  20.227   0.270
52218W        W24533  35.775  30.132  10.493
52219W        W24534  41.316  35.443   4.169
52220W        W24535   3.455  38.474  14.477
52221W        W24536  12.263  32.356  14.748
52222W        W24537  41.761   7.248  11.947
52223W        W24538  26.686  44.434  10.736
52224W        W24539  39.607  31.693  14.488
52225W        W24540   9.746  36.114  11.151
52226W        W24541  16.599   1.443  14.442
52227W        W24542  24.038  30.436  11.570
52228W        W24543  24.531  42.921   2.658
52229W        W24544  42.137  26.875   0.874
52230W        W24545  17.986  24.102  13.014
52231W        W24546   2.251  21.939  12.466
52232W        W24547  34.636  15.683   2.249
52233W        W24548  13.767  14.028  12.386
52234W        W24549  20.881  10.898   2.337
52235W        W24550  36.520  24.016  13.811
52236W        W24551   1.369  26.521   4.580
52237W        W24552  35.036   7.200  11.462
52238W        W24553  42.761  16.596  13.953
52239W        W24554  14.384  36.270   4.627
52240W        W24555  28.619   0.073   2.761
52241W        W24556   7.517  29.535  11.463
52242W        W24557  35.388   1.823  13.592
52243W        W24558  38.121  36.998  10.992
52244W        W24559  30.610  21.594  11.662
52245W        W24560  31.009   1.763  13.458
52246W        W24561  27.441  11.171   3.709
52247W        W24562  27.839  26.296  14.931
52248W        W24563  31.181   5.184   3.614
52249W        W24564  13.157   4.508   1.910
52250W        W24565   2.334  28.607   0.981
52251W        W24566  36.921  43.453  11.696
52252W        W24567  32.426  42.371   0.273
52253W        W24568   8.746   6.174   1.986
52254W        W24569  10.366   6.036   3.424
52255W        W24570  16.487  15.164   1.402
52256W        W24571  12.204  17.072  13.554
52257W        W24572  38.121   0.372  14.859
52258W        W24573   6.449   6.764  14.425
52259W        W24574  23.407  18.507   5.494
52260W        W24575   2.267  12.129  10.216
52261W        W24576  17.144  30.042  11.962
52262W        W24577   4.478  12.575   1.215
52263W        W24578  41.494  40.061  10.730
52264W        W24579   2.832   3.199   4.614
52265W        W24580  29.520  30.182  14.506
52266W        W24581  41.573  27.438  13.086
52267W        W24582   8.878  29.932  12.045
52268W        W24583   9.132  41.877   2.587
52269W        W24584  11.268  28.309  14.537
52270W        W24585  37.172  16.665  12.765
52271W        W24586  38.540  27.532  12.986
52272W        W24587  44.435   1.843   0.184
52273W        W24588  18.830   7.431  12.702
52274W        W24589  13.269  30.968   3.167
52275W        W24590   6.359   6.365   0.895
52276W        W24591  14.348  14.283  10.716
52277W        W24592  32.547  12.126  10.786
52278W        W24593  30.635  20.321   1.822
52279W        W24594   7.340   9.601   1.492
52280W        W24595  32.038  38.022   0.736
52281W        W24596   9.131   5.781   0.968
52282W        W24597  43.768  18.313   3.181
52283W        W24598  12.309  31.112   0.266
52284W        W24599  27.529  33.677   1.697
52285W        W24600  23.106  42.598   4.085
52286W        W24601  38.786  25.517   9.839
52287W        W24602  20.789  35.165   2.999
52288W        W24603  18.335  24.568   4.823
52289W        W24604  37.582  15.276  10.713
52290W        W24605   8.578  39.298   5.070
52291W        W24606  14.326  29.608   0.767
52292W        W24607  44.362  24.522  12.260
52293W        W24608  31.998  40.828   1.756
52294W        W24609  30.403  11.856   0.337
52295W        W24610  12.732  20.842  10.709
52296W        W24611  37.334  38.164  14.448
52297W        W24612  19.131  40.278  11.157
52298W        W24613  32.467  28.047  14.516
52299W        W24614   4.249  17.073  12.614
52300W        W24615  13.061  14.560   4.192
52301W        W24616  20.999  16.142  12.008
52302W        W24617  33.538  33.213  13.914
52303W        W24618   7.833  39.040  10.708
52304W        W24619  33.162  27.178  12.889
52305W        W24620  38.823  40.223  10.457
52306W        W24621  13.630  25.149  13.826
52307W        W24622  15.030   8.006   0.839
52308W        W24623  31.180  42.826   3.721
52309W        W24624  38.489  17.236  12.371
52310W        W24625  19.615  18.192  12.980
52311W        W24626  12.298  11.415  14.521
52312W        W24627  31.017  31.819   4.165
52313W        W24628  14.765   9.408   0.614
52314W        W24629  17.796  38.456  12.338
52315W        W24630  39.358  22.354  13.377
52316W        W24631  30.165  11.703   1.396
52317W        W24632  24.458   7.821   1.365
52318W        W24633  16.731  10.049  12.458
52319W        W24634   5.898  18.608   1.912
52320W        W24635  29.002  32.190   3.154
52321W        W24636  38.930  43.515   4.808
52322W        W24637  31.800   3.903  12.391
52323W        W24638   8.902  12.165  11.561
52324W        W24639  13.172  10.881   1.291
52325W        W24640   3.671  37.987  11.336
52326W        W24641  22.576  15.054  14.305
52327W        W24642  36.060  36.069  11.955
52328W        W24643  27.112  33.217  12.053
52329W        W24644  27.454  10.924   4.206
52330W        W24645  26.779  31.411  12.670
52331W        W24646   1.554  39.405   2.144
52332W        W24647   6.255  22.630  11.956
52333W        W24648   5.129  15.610  12.525
52334W        W24649  28.660  33.326   1.407
52335W        W24650   8.638  14.542  14.741
52336W        W24651  35.883  40.232  11.085
52337W        W24652  22.800   0.251   0.709
52338W        W24653  14.289  40.285   1.864
52339W        W24654  42.886  44.901   2.605
52340W        W24655  17.813  26.278  13.976
52341W        W24656  42.118  33.915   2.756
52342W        W24657  23.535  40.422  13.017
52343W        W24658  35.639  18.631   4.539
52344W        W24659  12.094  12.196   1.334
52345W        W24660  28.465  31.916   9.815
52346W        W24661  14.652   1.437   2.319
52347W        W24662   8.567  12.652  14.393
52348W        W24663  44.227  12.180  12.068
52349W        W24664  23.577  35.446   2.661
52350W        W24665  33.064   6.277   0.398
52351W        W24666  17.735   7.682   4.316
52352W        W24667  23.176   1.924  11.608
52353W        W24668   8.887   6.586   1.624
52354W        W24669  21.415  17.705   4.553
52355W        W24670  35.070  38.978   0.495
52356W        W24671  25.487  22.648   0.585
52357W        W24672  21.685   7.888  10.695
52358W        W24673  26.672  37.296  10.371
52359W        W24674  14.575  32.256   0.952
52360W        W24675  16.779  31.887  13.501
52361W        W24676  26.824   9.954   3.682
52362W        W24677  22.527  20.566  13.819
52363W        W24678  15.285   0.773  10.556
52364W        W24679  10.273  40.857  12.097
52365W        W24680   8.973  14.555   4.130
52366W        W24681  30.856   5.795   4.049
52367W        W24682  22.500  13.267  13.011
52368W        W24683   2.880  17.074  13.894
52369W        W24684  35.188  44.672   4.562
52370W        W24685  43.706  36.941   4.037
52371W        W24686   1.405  21.278   4.819
52372W        W24687  39.773  36.330  14.475
52373W        W24688   4.746  20.999   3.322
52374W        W24689  30.164   2.042  14.552
52375W        W24690  42.889  32.006  14.771
52376W        W24691  43.388   7.178   2.539
52377W        W24692  33.517  14.058   3.813
52378W        W24693  21.698  43.046  12.945
52379W        W24694  10.340   1.804  12.727
52380W        W24695   7.937  22.044   0.347
52381W        W24696  14.323  41.364  13.375
52382W        W24697  19.103  33.410  12.047
52383W        W24698  37.644  32.833   0.818
52384W        W24699  44.938  39.026   1.016
52385W        W24700  44.496   3.167   3.261
52386W        W24701   0.551  33.563  10.697
52387W        W24702  34.533   9.115   3.832
52388W        W24703  38.063  36.398   0.399
52389W        W24704  17.319  18.139  11.577
52390W        W24705  27.962  38.957   0.043
52391W        W24706   1.442   5.296  10.895
52392W        W24707   6.781   6.332   4.181
52393W        W24708  13.060  10.827   3.527
52394W        W24709  12.429  19.659   0.034
52395W        W24710  33.202  30.682  12.544
52396W        W24711  34.347   9.257  11.117
52397W        W24712  41.886  13.797  14.576
52398W        W24713  33.663  28.525  12.910
52399W        W24714  19.179  44.685   2.330
52400W        W24715  37.580  13.706  13.464
52401W        W24716   9.575  31.708   0.899
52402W        W24717  24.496  31.506   0.382
52403W        W24718  26.472   7.223   2.731
52404W        W24719  43.243  26.632   0.022
52405W        W24720  29.253  21.073  11.949
52406W        W24721  21.644  25.398   3.377
52407W        W24722  37.954  19.193   4.895
52408W        W24723  28.901   1.330   2.199
52409W        W24724   2.508  38.466   1.456
52410W        W24725  24.718  12.539  13.951
52411W        W24726  41.288  28.189   2.140
52412W        W24727  21.718  30.545   4.670
52413W        W24728  33.323  18.803  11.108
52414W        W24729  22.169   1.277   1.175
52415W        W24730  30.178   1.903   2.469
52416W        W24731  11.293  16.720   3.373
52417W        W24732  24.406  29.449  14.781
52418W        W24733  21.348  32.900  14.743
52419W        W24734  26.564  44.432  13.062
52420W        W24735   8.188   8.206  13.119
52421W        W24736  15.223  18.698  11.981
52422W        W24737   7.970  34.817   0.700
52423W        W24738  23.710  13.596  11.817
52424W        W24739  39.435  12.760  13.388
52425W        W24740  41.812  40.325   3.845
52426W        W24741  15.797  34.146   4.034
52427W        W24742  15.838  11.773   1.960
52428W        W24743   1.842  27.680   4.735
52429W        W24744   2.389  16.716   3.751
52430W        W24745  12.116   6.758  10.621
52431W        W24746  29.185   3.424  11.607
52432W        W24747  13.327   7.893  12.336
52433W        W24748  13.401   0.876   0.628
52434W        W24749   2.407  34.320   0.984
52435W        W24750  19.762  23.877  12.167
52436W        W24751  19.953   5.226   0.821
52437W        W24752  23.520  22.411  10.267
52438W        W24753  15.851  12.768  14.378
52439W        W24754  16.326   6.818  11.542
52440W        W24755  25.338  23.694   2.823
52441W        W24756  29.677  14.741   4.690
52442W        W24757  35.520  35.815   4.197
52443W        W24758  43.263  32.558   3.211
52444W        W24759   4.838   8.894  13.269
52445W        W24760  40.545  35.644   3.796
52446W        W24761  42.124   8.578  12.433
52447W        W24762  22.528  21.461   0.232
52448W        W24763  23.809  27.775   1.521
52449W        W24764  12.602  34.337  11.652
52450W        W24765  27.187  39.257  11.207
52451W        W24766   4.801  36.055   2.295
52452W        W24767   5.677  15.220   2.265
52453W        W24768  24.117  30.452  12.506
52454W        W24769  37.487  44.658  12.100
52455W        W24770  42.312  43.766   2.609
52456W        W24771  30.861  22.277  14.154
52457W        W24772  40.967  25.071   0.492
52458W        W24773  29.137  22.429   1.277
52459W        W24774  25.161  26.386  10.637
52460W        W24775  40.302  23.284  11.689
52461W        W24776  22.119  39.231  14.976
52462W        W24777  22.561  36.902  11.414
52463W        W24778  37.272  10.292   4.923
52464W        W24779  26.375  17.685   1.194
52465W        W24780  26.663  41.912   4.593
52466W        W24781   5.315  26.177  13.759
52467W        W24782   8.892  21.452  11.378
52468W        W24783   3.384  37.990   4.985
52469W        W24784  26.316   7.238   4.579
52470W        W24785  14.409  11.104  12.968
52471W        W24786  22.014  28.137  11.476
52472W        W24787  17.571  27.002   4.284
52473W        W24788   8.761  17.535   3.734
52474W        W24789  18.590  25.686   1.873
52475W        W24790   2.002  33.941   3.723
52476W        W24791   1.187  41.953  14.550
52477W        W24792  26.849  11.236   1.442
52478W        W24793   6.948   8.801   3.144
52479W        W24794  44.501  13.850  11.657
52480W        W24795  42.845   7.979   2.784
52481W        W24796  44.758   0.864  11.875
52482W        W24797  22.447  21.478   1.218
52483W        W24798  36.077  20.789   0.744
52484W        W24799  30.926  20.637   3.261
52485W        W24800  11.910  35.899   2.160
52486W        W24801   2.383  29.380  12.034
52487W        W24802  13.611  44.548   2.749
52488W        W24803  35.038  10.693  13.745
52489W        W24804  27.021  30.608   0.034
52490W        W24805  12.303  25.248   2.879
52491W        W24806  18.130   0.553  13.989
52492W        W24807   2.868  25.506   3.924
52493W        W24808  11.945  37.592  13.327
52494W        W24809  19.699  38.227  11.981
52495W        W24810  24.458  13.310   3.751
52496W        W24811  19.920  20.954  13.841
52497W        W24812   7.771  22.345   2.706
52498W        W24813  39.097  44.540  11.017
52499W        W24814  18.096   5.388   2.253
52500W        W24815   0.793   6.451  13.403
52501W        W24816  37.913  16.838  10.735
52502W        W24817   4.456  29.712  10.478
52503W        W24818  20.469  39.052  12.885
52504W        W24819  14.119  15.531   2.265
52505W        W24820  18.052  30.514  13.090
52506W        W24821  16.306   5.156   3.641
52507W        W24822  26.899  10.662  13.374
52508W        W24823   3.714   3.747   4.690
52509W        W24824   6.226  42.561   0.777
52510W        W24825   8.396  27.590  10.743
52511W        W24826  25.065  28.442   1.266
52512W        W24827  16.868  28.018  10.284
52513W        W24828  41.909   2.226   0.520
52514W        W24829   5.612  44.008  11.396
52515W        W24830   6.672  23.094   4.680
52516W        W24831  27.287   5.796   0.753
52517W        W24832  10.593  42.884  10.630
52518W        W24833   7.956  24.611  11.141
52519W        W24834   9.872  37.604   2.329
52520W        W24835  21.842  24.985   4.369
52521W        W24836  19.090  25.483   1.799
52522W        W24837  40.998  29.071  13.772
52523W        W24838   3.446  24.617  12.465
52524W        W24839  19.192  33.214  13.378
52525W        W24840   9.073   5.291  10.434
52526W        W24841  35.632   5.981  13.328
52527W        W24842  35.684  26.485  10.901
52528W        W24843  35.333   3.034  14.265
52529W        W24844  24.742  18.838   0.856
52530W        W24845  22.489  13.312   1.305
52531W        W24846   4.836  27.110   0.454
52532W        W24847  16.765  16.844   1.269
52533W        W24848  33.602   8.139   1.708
52534W        W24849   9.030  35.321   3.517
52535W        W24850  15.154  33.091   4.902
52536W        W24851  17.992  24.764   1.807
52537W        W24852  27.781   0.151  11.200
52538W        W24853   2.442  40.674   2.501
52539W        W24854  23.103   9.893  13.466
52540W        W24855  30.479  43.474  14.902
52541W        W24856  36.096   7.343   4.523
52542W        W24857  19.693  15.025  11.067
52543W        W24858   2.059  37.464  14.752
52544W        W24859  23.201   0.804   1.721
52545W        W24860  17.090   7.973  14.000
52546W        W24861   3.321  29.826  12.028
52547W        W24862  10.667  10.421   4.093
52548W        W24863  33.392  18.524  12.476
52549W        W24864   9.118  16.793  11.462
52550W        W24865   5.257   0.498  11.589
52551W        W24866  18.175  36.506   1.114
52552W        W24867  27.874  20.568   3.729
52553W        W24868  25.922  15.606   2.216
52554W        W24869  39.652  42.705  11.636
52555W        W24870  30.750  28.602  13.888
52556W        W24871  24.222  38.336   1.245
52557W        W24872  36.986   2.669  14.014
52558W        W24873  34.790  25.656  13.494
52559W        W24874  43.354  31.909   0.001
52560W        W24875  18.188  12.537  12.035
52561W        W24876  14.014  44.460   0.419
52562W        W24877  19.236  11.146  11.083
52563W        W24878  44.479  19.945   0.832
52564W        W24879  22.337  19.218   2.795
52565W        W24880  19.185  23.806   2.803
52566W        W24881   4.982  13.420  10.787
52567W        W24882  38.940  15.342  10.902
52568W        W24883  11.253  14.341   0.060
52569W        W24884  12.304   1.509   3.326
52570W        W24885  31.419  40.056   3.131
52571W        W24886  34.947  26.155  13.634
52572W        W24887  35.675   9.892   2.695
52573W        W24888  43.409  16.106   1.646
52574W        W24889  23.111  35.622  10.522
52575W        W24890  35.613  20.164   0.035
52576W        W24891  13.434   8.615   2.793
52577W        W24892  20.509   7.812  14.102
52578W        W24893  43.560  26.530   2.701
52579W        W24894   5.290  24.614   0.764
52580W        W24895  13.050  18.620   1.505
52581W        W24896  13.092  15.338   3.240
52582W        W24897  15.374   3.473  11.111
52583W        W24898  27.126  32.959   5.020
52584W        W24899  24.480  27.389   2.778
52585W        W24900  18.693  31.486   1.226
52586W        W24901  33.487   5.812  11.484
52587W        W24902   6.441  16.968   4.849
52588W        W24903  44.319  43.282  12.087
52589W        W24904  21.976   9.506  14.433
52590W        W24905  17.006  41.773   4.784
52591W        W24906  22.239  16.401  11.060
52592W        W24907  31.148  43.239  13.531
52593W        W24908  12.677  33.554   4.150
52594W        W24909   6.406  43.669   2.745
52595W        W24910  38.260   6.851   4.117
52596W        W24911  11.717   5.747   2.185
52597W        W24912  34.410   2.567  11.481
52598W        W24913  34.196  33.479  13.531
52599W        W24914  41.064   7.646   3.328
52600W        W24915  17.145   1.959  12.083
52601W        W24916   3.132  12.291   4.160
52602W        W24917   6.304  43.774  13.145
52603W        W24918  31.214  44.484   0.265
52604W        W24919  13.563   7.290   2.662
52605W        W24920  18.482   2.756  11.705
52606W        W24921  35.771   8.738   3.280
52607W        W24922   6.922  23.196   2.429
52608W        W24923  16.198  40.838  14.467
52609W        W24924  30.043  24.776  14.998
52610W        W24925  10.346  34.116   4.146
52611W        W24926   7.261   1.002  13.361
52612W        W24927  37.866  39.047   2.680
52613W        W24928  21.333   8.157  11.669
52614W        W24929   4.432  31.865  14.557
52615W        W24930  44.796  10.856   3.554
52616W        W24931  38.990  23.074   9.831
52617W        W24932  28.998   9.573  11.508
52618W        W24933  17.988   1.287  14.942
52619W        W24934   7.387  19.540   4.716
52620W        W24935   2.902  31.715   3.675
52621W        W24936  25.916   4.017   2.710
52622W        W24937  29.638  44.487   2.248
52623W        W24938  41.778  13.171   2.102
52624W        W24939  26.547  21.850  13.346
52625W        W24940   4.244   5.491   1.696
52626W        W24941   9.634  39.948  12.607
52627W        W24942  32.844  28.162   0.364
52628W        W24943  44.573  10.975   3.119
52629W        W24944  28.478  19.906  14.876
52630W        W24945  29.167  30.840   3.692
52631W        W24946   4.435  17.683   1.249
52632W        W24947  22.747  10.399   1.288
52633W        W24948  41.448  37.142  12.006
52634W        W24949  13.136   7.688   1.796
52635W        W24950  11.822  20.217  13.269
52636W        W24951  39.689  33.716  12.059
52637W        W24952  32.580   0.846  14.247
52638W        W24953  21.799  31.155  13.517
52639W        W24954  28.564  27.388   4.178
52640W        W24955  27.753  20.236  11.079
52641W        W24956   0.476  16.257   0.236
52642W        W24957  32.526  34.313  11.102
52643W        W24958  23.277  30.546  12.129
52644W        W24959  21.212  42.723   4.179
52645W        W24960  32.600  37.928  13.970
52646W        W24961  23.814  30.054   4.903
52647W        W24962  24.503   1.302  14.811
52648W        W24963  36.816   7.814  11.091
52649W        W24964  36.452   7.470   4.116
52650W        W24965   6.615  28.161   0.021
52651W        W24966   1.370  34.454  14.434
52652W        W24967  30.731  10.093   2.771
52653W        W24968  24.108  19.749   3.269
52654W        W24969  44.775  18.683   0.398
52655W        W24970  39.623  13.067   3.848
52656W        W24971   3.901  13.292  10.666
52657W        W24972  17.793  14.053   2.853
52658W        W24973  28.942  12.165  11.068
52659W        W24974  30.911  36.851  12.299
52660W        W24975  25.896  36.518  13.408
52661W        W24976  18.375  33.846   3.670
52662W        W24977  14.014   1.898  11.764
52663W        W24978   8.356  26.121   3.522
52664W        W24979   6.702  18.549  13.408
52665W        W24980  22.952  30.549   1.306
52666W        W24981  38.628   2.371  14.453
52667W        W24982  12.254  35.842   3.094
52668W        W24983  18.699  11.166   4.081
52669W        W24984  15.625  13.149   0.367
52670W        W24985  24.471  32.632  14.977
52671W        W24986  37.449  21.715  14.810
52672W        W24987  13.106  20.578  11.669
52673W        W24988  38.515  38.759   1.684
52674W        W24989  12.649   3.161  10.348
52675W        W24990   2.309  27.632   2.254
52676W        W24991  26.487  13.373  14.825
52677W        W24992  40.890  42.847  10.292
52678W        W24993   2.386  23.862  13.920
52679W        W24994  20.950  10.169  13.025
52680W        W24995  42.387  37.987  13.579
52681W        W24996  22.045  16.825   1.455
52682W        W24997  18.891  17.728  12.856
52683W        W24998   9.653  35.862  12.822
52684W        W24999  39.538  39.084   3.701
52685W        W25000   1.254  18.808  11.925
52686W        W25001   5.707  10.533   1.016
52687W        W25002  36.086   3.344   0.422
52688W        W25003   4.473   9.402  10.696
52689W        W25004  43.871  32.752  14.883
52690W        W25005  33.407  38.356   1.349
52691W        W25006   0.188  15.619  11.781
52692W        W25007  15.952  13.427   4.454
52693W        W25008   5.349   0.829  10.477
52694W        W25009  43.297  25.504   4.267
52695W        W25010  17.093   0.757  12.600
52696W        W25011  11.358  19.970   2.293
52697W        W25012  36.975  23.385   5.011
52698W        W25013  32.619  28.572   3.255
52699W        W25014  12.939   0.043   4.249
52700W        W25015  23.165  40.414   0.445
52701W        W25016  37.986  36.693   4.930
52702W        W25017  31.489  10.546  13.139
52703W        W25018   6.050  25.661   0.380
52704W        W25019  21.617  14.125  10.633
52705W        W25020  13.512   1.029  14.920
52706W        W25021  22.906  37.326   0.116
52707W        W25022  26.584  40.826   2.220
52708W        W25023   9.206  27.985  10.695
52709W        W25024  37.852  25.799  10.118
52710W        W25025  37.673   2.270  14.465
52711W        W25026  35.874  19.188  14.429
52712W        W25027  24.985  33.112  11.502
52713W        W25028   6.844  16.839   4.545
52714W        W25029  12.431  22.539  14.818
52715W        W25030  13.298   0.982   1.489
52716W        W25031  41.434  31.781  11.515
52717W        W25032   0.979  16.275  13.214
52718W        W25033  38.368  34.059   1.705
52719W        W25034  11.620  14.802  12.959
52720W        W25035  17.091   9.627   2.181
52721W        W25036   6.324   4.669  13.512
52722W        W25037  25.206   0.206   0.329
52723W        W25038  24.787  32.077  13.473
52724W        W25039  22.344  36.428   1.267
52725W        W25040  22.533  35.931  12.351
52726W        W25041   5.594  26.182  11.362
52727W        W25042   1.954  13.624  13.882
52728W        W25043  30.870  42.310   4.251
52729W        W25044   7.797  24.103  12.005
52730W        W25045  18.097  30.081   4.196
52731W        W25046  41.152  44.991  13.830
52732W        W25047   6.282  23.756   4.107
52733W        W25048  29.710   9.608  12.098
52734W        W25049  24.289  10.755   2.801
52735W        W25050  32.903   6.004  11.588
52736W        W25051  34.373   2.417   4.660
52737W        W25052  41.789  33.172   0.512
52738W        W25053  17.188  35.971   2.240
52739W        W25054  44.331  13.875   1.788
52740W        W25055  38.852   2.287  14.927
52741W        W25056  10.636  38.019   2.859
52742W        W25057  34.430  19.518  12.649
52743W        W25058  11.166  34.080   4.541
52744W        W25059  19.144   9.106   2.654
52745W        W25060  35.699  14.650   2.867
52746W        W25061  15.129   9.201  10.586
52747W        W25062   3.340   5.170   3.555
52748W        W25063  34.332  22.190  10.578
52749W        W25064   3.458  25.632  10.994
52750W        W25065  38.966  12.378  11.671
52751W        W25066  32.162  30.834   0.306
52752W        W25067  43.771  22.987   3.818
52753W        W25068  38.849  18.115  10.531
52754W        W25069  21.618  32.523  14.053
52755W        W25070  19.483  39.937  14.511
52756W        W25071  36.441  36.485  14.343
52757W        W25072  42.172  40.011   1.776
52758W        W25073  38.316  21.498  13.045
52759W        W25074  17.637  15.695   0.767
52760W        W25075  32.954  40.899  12.944
52761W        W25076  32.041   7.974  13.490
52762W        W25077  29.752  31.634   1.368
52763W        W25078   9.632  38.054  13.428
52764W        W25079  24.260  44.421  13.042
52765W        W25080  38.886   8.364   4.840
52766W        W25081  20.748  40.473  11.927
52767W        W25082  26.590  21.119  11.026
52768W        W25083  28.485  36.825   2.683
52769W        W25084  18.560  22.843  12.074
52770W        W25085  32.421  17.427  14.739
52771W        W25086   0.770  36.118  12.062
52772W        W25087   6.815  27.789  14.339
52773W        W25088  39.540  20.156  11.096
52774W        W25089  12.432  37.284  11.976
52775W        W25090  44.926  22.752   4.236
52776W        W25091  38.314  39.328  14.414
52777W        W25092  15.372  39.512  10.688
52778W        W25093  32.079  37.550  12.516
52779W        W25094  18.032  13.818   1.899
52780W        W25095  42.347   5.695  11.375
52781W        W25096  23.950  28.438  10.765
52782W        W25097  40.357  36.540   4.135
52783W        W25098  29.131   3.500  13.888
52784W        W25099  32.153  24.347  14.389
52785W        W25100  10.365  19.958  12.766
52786W        W25101  36.384   6.569   1.740
52787W        W25102  20.442  35.422  12.955
52788W        W25103  29.119  27.868  14.300
52789W        W25104  18.697  18.242   3.783
52790W        W25105   2.632   8.585   0.599
52791W        W25106  10.242  33.431   2.436
52792W        W25107  28.551  26.951  11.839
52793W        W25108   4.157  34.054   3.259
52794W        W25109   5.939  14.172  14.040
52795W        W25110  22.558   2.575   1.167
52796W        W25111   3.553  39.368  12.386
52797W        W25112  38.270  12.247   3.716
52798W        W25113  13.578  23.239  12.538
52799W        W25114  20.094   4.392   4.073
52800W        W25115  10.953  35.960  11.600
52801W        W25116  20.117  10.146  13.581
52802W        W25117  37.353  25.630   3.684
52803W        W25118  23.918  10.878   3.326
52804W        W25119   2.256  17.585   0.342
52805W        W25120  14.435   8.221   1.807
52806W        W25121  13.329  37.855   4.850
52807W        W25122  11.941  10.190  13.860
52808W        W25123   9.172   7.002   2.410
52809W        W25124  39.896  35.827  12.338
52810W        W25125  17.263   3.965   4.871
52811W        W25126  34.501  19.288   4.516
52812W        W25127  17.008  12.190   1.745
52813W        W25128  42.297  36.447   1.089
52814W        W25129  15.269   4.445  11.970
52815W        W25130  39.647   8.653   1.203
52816W        W25131  24.785   8.459   0.160
52817W        W25132  23.094   5.240   0.543
52818W        W25133  42.965  27.202  11.649
52819W        W25134  40.932   1.971  12.409
52820W        W25135  40.948   5.170  12.997
52821W        W25136  21.704   1.829  12.868
52822W        W25137  21.542   0.386  12.366
52823W        W25138  39.407  38.033   1.449
52824W        W25139  28.577  32.437   3.347
52825W        W25140  13.792  24.886   1.164
52826W        W25141  12.592  24.157   4.119
52827W        W25142   5.088  39.914   2.880
52828W        W25143  14.179  43.351  13.534
52829W        W25144  33.498   6.946  10.661
52830W        W25145  26.219  43.015   0.767
52831W        W25146  14.861  27.525  11.557
52832W        W25147  14.848  30.991   0.486
52833W        W25148  18.224  11.844  11.623
52834W        W25149   3.475  19.783   2.785
52835W        W25150   5.270  20.629   4.638
52836W        W25151   2.502  25.375   2.015
52837W        W25152   9.889  16.190   2.463
52838W        W25153  13.637  22.742  14.237
52839W        W25154  40.118  16.825  11.095
52840W        W25155  43.776   3.463  10.616
52841W        W25156  28.982  37.438  14.730
52842W        W25157  22.250   6.295   4.239
52843W        W25158  13.238  43.395   0.281
52844W        W25159   7.430   4.775   4.060
52845W        W25160  37.779  28.868  13.057
52846W        W25161  38.326   2.312   1.955
52847W        W25162  42.938  20.771   0.313
52848W        W25163  20.020  21.048   2.178
52849W        W25164  11.913   8.844   5.010
52850W        W25165   2.245  44.931   3.836
52851W        W25166  24.985   6.750   1.420
52852W        W25167   8.765  44.579  12.656
52853W        W25168  44.937  20.721   0.009
52854W        W25169  22.289  38.908  12.397
52855W        W25170  11.742   5.908   0.481
52856W        W25171  35.029  25.221   5.054
52857W        W25172  38.873  25.316  13.589
52858W        W25173  20.250   7.802   2.339
52859W        W25174  41.349   5.718  13.383
52860W        W25175  28.418  16.713  14.924
52861W        W25176  33.820  11.317   1.315
52862W        W25177  38.498  37.366  13.522
52863W        W25178  14.471  28.271  13.546
52864W        W25179  27.423  16.315   4.218
52865W        W25180  19.089  17.607   0.795
52866W        W25181  10.420  37.321  13.509
52867W        W25182  14.405  19.166   1.109
52868W        W25183   1.796  26.769  12.012
52869W        W25184  16.819  30.481  14.986
52870W        W25185  34.161   3.090   3.314
52871W        W25186  16.971  31.231  12.505
52872W        W25187   5.447  20.101  11.556
52873W        W25188  31.222  26.001   0.052
52874W        W25189  25.710  16.054  14.422
52875W        W25190  41.731  21.730  12.356
52876W        W25191   0.729  31.467   2.205
52877W        W25192  20.792  37.323   1.998
52878W        W25193  26.853  31.153  10.205
52879W        W25194  14.910  19.536   3.937
52880W        W25195  26.504  17.665   0.327
52881W        W25196  38.282   2.775  13.882
52882W        W25197  17.221  44.367  10.489
52883W        W25198  26.916   1.832   4.538
52884W        W25199  10.128  17.546  11.152
52885W        W25200   0.988   0.175  13.850
52886W        W25201  34.141   9.231   1.480
52887W        W25202  13.712  30.825  14.897
52888W        W25203  41.270   0.397   4.092
52889W        W25204   6.132   9.288   0.932
52890W        W25205  10.824  39.544   3.578
52891W        W25206  34.579  38.813   5.159
52892W        W25207  14.070  36.052  14.574
52893W        W25208  10.199  24.178   3.731
52894W        W25209  42.025  33.369   2.828
52895W        W25210  29.424   9.954  12.420
52896W        W25211   9.275  41.848  14.349
52897W        W25212  21.273   7.756   2.268
52898W        W25213   6.739  12.797  13.535
52899W        W25214   4.089   5.427   0.872
52900W        W25215   9.736  15.629   0.187
52901W        W25216  34.415  38.517  11.105
52902W        W25217  26.148  16.529  14.861
52903W        W25218  28.572  44.561   2.773
52904W        W25219  12.784  31.434  11.961
52905W        W25220  25.550  17.143  14.986
52906W        W25221  43.220  41.676   3.659
52907W        W25222  23.755  39.121   4.168
52908W        W25223   5.187   9.668  11.953
52909W        W25224  44.851  30.550   0.485
52910W        W25225  43.960  27.761   1.275
52911W        W25226  44.654  44.577   4.622
52912W        W25227  13.101   9.389   3.170
52913W        W25228   7.947  23.093   1.627
52914W        W25229  25.095   7.722   3.602
52915W        W25230  24.529  42.995   0.259
52916W        W25231  38.484  20.140   2.678
52917W        W25232  38.873  25.102  11.975
52918W        W25233  33.541  24.434  14.507
52919W        W25234  15.312  26.781  12.613
52920W        W25235   3.106   0.631  14.009
52921W        W25236  12.108  27.552   0.879
52922W        W25237   9.231  36.485   2.687
52923W        W25238  18.678   2.821   0.024
52924W        W25239  28.154  34.329   0.021
52925W        W25240  27.490  28.978   3.141
52926W        W25241   2.981  27.161   0.930
52927W        W25242  41.871  32.130   4.198
52928W        W25243  19.782  43.768   4.108
52929W        W25244   9.331   8.726  11.684
52930W        W25245  18.189  41.467  10.176
52931W        W25246  16.803  17.978  14.414
52932W        W25247  14.333  11.240   3.706
52933W        W25248  14.746  33.418   1.190
52934W        W25249   0.001  35.551  10.617
52935W        W25250  17.019  11.794  14.625
52936W        W25251   3.251  22.498   0.914
52937W        W25252   6.788  15.552  11.114
52938W        W25253   1.988   6.243  11.123
52939W        W25254  31.060  37.017   4.130
52940W        W25255   6.516  24.229   4.091
52941W        W25256  28.719   3.939  11.176
52942W        W25257  15.693  25.283   0.270
52943W        W25258  16.857   1.790  10.710
52944W        W25259  22.348  22.584   4.562
52945W        W25260  17.959  19.098   3.652
52946W        W25261  38.329   8.639  13.442
52947W        W25262  39.019  21.508  13.344
52948W        W25263  29.377  14.832   1.904
52949W        W25264  33.775  38.634   2.203
52950W        W25265  37.917  40.814  12.556
52951W        W25266  39.840  20.893  10.701
52952W        W25267  27.411  32.644   2.885
52953W        W25268  28.135  23.232  12.601
52954W        W25269  21.720  37.756   0.518
52955W        W25270  26.921  10.926   2.344
52956W        W25271   9.642   8.964   0.819
52957W        W25272  18.893  32.533   1.312
52958W        W25273  33.625  17.088  12.624
52959W        W25274  26.549  30.748  10.146
52960W        W25275  31.004  26.548  11.740
52961W        W25276  30.139  36.563   2.801
52962W        W25277  37.895   4.021  12.248
52963W        W25278  22.052  25.217  12.537
52964W        W25279  17.615   7.351   0.089
52965W        W25280  26.904  18.808  12.127
52966W        W25281  33.554   7.144   1.951
52967W        W25282  35.641  42.795  14.877
52968W        W25283  19.577  29.100   4.744
52969W        W25284   8.458  19.590  14.767
52970W        W25285  43.761  37.469   4.532
52971W        W25286   1.214  17.028   2.871
52972W        W25287  26.926  34.349   0.812
52973W        W25288  34.592  34.619  14.154
52974W        W25289  26.938  30.951   9.743
52975W        W25290  21.513   5.299  10.701
52976W        W25291   3.116   6.960   2.127
52977W        W25292  42.306  42.260   1.263
52978W        W25293  13.581  29.936   3.868
52979W        W25294  12.622  22.743  10.607
52980W        W25295   5.959   7.676   0.012
52981W        W25296   6.761  36.028   2.425
52982W        W25297   4.618  35.811  14.891
52983W        W25298   3.466  44.766  12.613
52984W        W25299  15.037   9.188   1.354
52985W        W25300  42.647  32.389  11.157
52986W        W25301  37.041  14.210   1.691
52987W        W25302  31.151  32.449   2.648
52988W        W25303  26.183  18.458   4.675
52989W        W25304  14.086   2.475  12.373
52990W        W25305  11.165  38.017   1.511
52991W        W25306  30.387  13.565   4.022
52992W        W25307  27.490  13.895  10.640
52993W        W25308   1.777  41.268  11.854
52994W        W25309  24.644  21.024   4.592
52995W        W25310  34.853  10.620  12.821
52996W        W25311  22.559  31.232  11.154
52997W        W25312  29.940   8.780   2.690
52998W        W25313  27.459   7.626   0.458
52999W        W25314  37.649  40.437   4.779
53000W        W25315  41.803  33.148   1.443
53001W        W25316   8.722  36.515   1.746
53002W        W25317  18.816  10.817   1.763
53003W        W25318  29.604  14.881  11.636
53004W        W25319   2.900  15.233  14.120
53005W        W25320  31.461   9.305  12.551
53006W        W25321  44.728   2.995  10.407
53007W        W25322  24.492   8.837  12.443
53008W        W25323  38.070  33.538   3.210
53009W        W25324  37.288   1.732   0.541
53010W        W25325   0.218  19.786   4.233
53011W        W25326  13.147  33.862   2.280
53012W        W25327  35.448  32.076   4.292
53013W        W25328  18.544  27.551   3.786
53014W        W25329  22.473  15.554  11.905
53015W        W25330   8.457   0.905  10.626
53016W        W25331  37.526  38.392  13.373
53017W        W25332  40.337  25.746  10.407
53018W        W25333   8.165  43.845  11.705
53019W        W25334   4.835  30.909  12.519
53020W        W25335  37.948  42.223  14.279
53021W        W25336  44.933  25.249   4.175
53022W        W25337   5.566  17.213   2.886
53023W        W25338  35.334  14.639   2.484
53024W        W25339  42.528   0.406  10.534
53025W        W25340  27.997  34.189  10.025
53026W        W25341   2.913  40.342   0.779
53027W        W25342  16.260  38.518   1.400
53028W        W25343  37.570   8.905  11.077
53029W        W25344   4.463  23.219   1.973
53030W        W25345   7.844  17.778  10.698
53031W        W25346  18.574   9.781  12.306
53032W        W25347  34.345  13.697  10.650
53033W        W25348   7.440  12.826   2.373
53034W        W25349  18.594  36.234   3.384
53035W        W25350   3.901   4.672  14.958
53036W        W25351  26.646  44.586  13.541
53037W        W25352  20.130   2.793   3.986
53038W        W25353  30.377  24.094   0.442
53039W        W25354  27.785   8.832   0.822
53040W        W25355  11.677   0.008   0.518
53041W        W25356  25.772  25.960   1.182
53042W        W25357  15.550  14.169   4.564
53043W        W25358  39.503   6.499   0.768
53044W        W25359  35.269  40.484   4.076
53045W        W25360   8.614   4.646   2.017
53046W        W25361  40.764  24.567  13.751
53047W        W25362  13.219   9.315  12.143
53048W        W25363  10.267  38.379  12.928
53049W        W25364  44.897  23.670  12.987
53050W        W25365  33.316  18.182  10.343
53051W        W25366  31.513  40.723  14.279
53052W        W25367  28.138  43.329  14.317
53053W        W25368  30.101   9.235  10.763
53054W        W25369  16.714  34.321  13.722
53055W        W25370  24.186  15.083   2.014
53056W        W25371   0.823  43.728  14.369
53057W        W25372  22.216   9.180  14.769
53058W        W25373  37.580  22.976  12.575
53059W        W25374  11.907  14.510  11.045
53060W        W25375  44.541  10.816   1.273
53061W        W25376  36.030  15.846   3.322
53062W        W25377  14.196   1.383  12.629
53063W        W25378  26.139  41.329   2.865
53064W        W25379  11.895  10.196   3.683
53065W        W25380  21.203  30.148  10.924
53066W        W25381  33.155  13.212   2.643
53067W        W25382  21.980  30.364   1.369
53068W        W25383  23.121  39.185  14.915
53069W        W25384  42.429  43.237  11.538
53070W        W25385  19.912  22.516  14.737
53071W        W25386   8.235  41.931   1.366
53072W        W25387  17.088  30.120   2.381
53073W        W25388  18.788  30.064  11.103
53074W        W25389  19.801  42.093   2.090
53075W        W25390  19.554  19.146   2.428
53076W        W25391  32.112  21.457  11.209
53077W        W25392  34.966  39.816   4.548
53078W        W25393   7.812  37.330  13.898
53079W        W25394  32.633  11.553   3.106
53080W        W25395  34.316  29.212  10.958
53081W        W25396  36.933  19.705   2.168
53082W        W25397  41.936  23.468  13.382
53083W        W25398   1.355  43.475   4.757
53084W        W25399  29.710  20.123  14.382
53085W        W25400  34.221  35.447   1.885
53086W        W25401  28.752  42.523   0.505
53087W        W25402  38.071  33.453  11.246
53088W        W25403  43.326  29.440   1.955
53089W        W25404  37.225  39.334  12.473
53090W        W25405  41.070  15.232  11.569
53091W        W25406  36.450  10.442  11.145
53092W        W25407  16.704   2.562   2.070
53093W        W25408  10.300  11.701   4.327
53094W        W25409   5.917  40.307  14.015
53095W        W25410  22.635  44.888  14.318
53096W        W25411  17.659  21.084  13.326
53097W        W25412  16.700   5.956  14.511
53098W        W25413  22.385  21.510   5.475
53099W        W25414   3.279   4.256  11.631
53100W        W25415  33.383  33.025  12.568
53101W        W25416  18.703  38.999   3.702
53102W        W25417  42.870  14.614   1.181
53103W        W25418  41.309   1.857  14.255
53104W        W25419  29.564  23.993   2.803
53105W        W25420  37.012  25.465  12.141
53106W        W25421   7.886  43.424  11.567
53107W        W25422  24.495  21.272  11.796
53108W        W25423  17.666  27.283  10.656
53109W        W25424   3.238  24.035  14.164
53110W        W25425  42.747  18.347  10.820
53111W        W25426  41.763  37.298   2.333
53112W        W25427   6.444  24.820   2.815
53113W        W25428  13.294  10.040   4.514
53114W        W25429  35.566  23.310   1.972
53115W        W25430   4.824   7.755  10.506
53116W        W25431  21.591   1.160  13.604
53117W        W25432   4.410   6.952   2.727
53118W        W25433  42.828  24.402  11.599
53119W        W25434   3.298   1.660  12.843
53120W        W25435  11.154  26.712  14.522
53121W        W25436  38.800  39.848   1.009
53122W        W25437  11.599  17.885  10.730
53123W        W25438  36.179  27.507   1.658
53124W        W25439  30.485   2.388  12.206
53125W        W25440   6.230  22.761   4.184
53126W        W25441  37.606  42.339  12.626
53127W        W25442  14.829  40.886   4.591
53128W        W25443  11.360  22.960  12.832
53129W        W25444  41.856  13.461  13.726
53130W        W25445   3.320   1.057   4.976
53131W        W25446  22.952  10.346  13.206
53132W        W25447  11.226  14.796   1.185
53133W        W25448  34.307  33.166   4.614
53134W        W25449  36.033  16.733   3.716
53135W        W25450   8.879  11.610  12.901
53136W        W25451  31.558  41.112  11.106
53137W        W25452  40.748  15.183  14.422
53138W        W25453  35.090  43.850  10.985
53139W        W25454  14.818  40.414   1.150
53140W        W25455  31.511  36.523  12.979
53141W        W25456  30.125  12.355  13.081
53142W        W25457  11.193  39.548  11.492
53143W        W25458  16.124  14.940  13.328
53144W        W25459   7.966  32.650  11.084
53145W        W25460   2.310  41.159   2.862
53146W        W25461  30.720   1.056   0.091
53147W        W25462  28.956  27.029   4.677
53148W        W25463  24.328  30.495   1.516
53149W        W25464  33.115  27.444   2.298
53150W        W25465  33.140  38.444   4.256
53151W        W25466  24.716  40.139   3.978
53152W        W25467  19.764  37.389   1.772
53153W        W25468  34.114   5.901   3.630
53154W        W25469  15.128  34.485   1.105
53155W        W25470  33.643  43.067  14.000
53156W        W25471  41.834  18.198   0.421
53157W        W25472  12.511   6.975   4.736
53158W        W25473  43.186  19.765  13.743
53159W        W25474  26.228   2.368   3.386
53160W        W25475  33.167  31.619  14.383
53161W        W25476  41.079  38.415   1.312
53162W        W25477  11.635   3.157   2.769
53163W        W25478  35.803  42.601   0.321
53164W        W25479  37.493  28.229  14.722
53165W        W25480  24.598  40.548   3.143
53166W        W25481  33.611   2.128   3.234
53167W        W25482  18.225   1.277   1.381
53168W        W25483  11.560   8.459  11.239
53169W        W25484  24.670  30.350   4.678
53170W        W25485  17.166  10.691  11.630
53171W        W25486  10.285  44.775   4.590
53172W        W25487  19.333  29.677  14.315
53173W        W25488  42.966   0.731   1.303
53174W        W25489   6.757  31.699   2.885
53175W        W25490  36.777  24.061   5.109
53176W        W25491  42.286  13.169  13.899
53177W        W25492  18.757  23.658   1.324
53178W        W25493  40.640  43.202   1.811
53179W        W25494  28.943   8.359   0.323
53180W        W25495   9.680  11.657  13.356
53181W        W25496  16.109  35.193   0.772
53182W        W25497   3.755  31.470  14.729
53183W        W25498  36.987   0.793   4.868
53184W        W25499  13.843  12.608   0.525
53185W        W25500   6.246  32.026  12.792
53186W        W25501  27.774   2.498  13.943
53187W        W25502   5.366  13.634   2.908
53188W        W25503  31.930  39.038  11.098
53189W        W25504  26.018   9.603  14.844
53190W        W25505  16.862  41.544   3.113
53191W        W25506  18.920  27.719   0.244
53192W        W25507  32.115   4.699  11.149
53193W        W25508  10.479   2.020   4.255
53194W        W25509   6.746   4.492  10.636
53195W        W25510  30.796  29.088   0.519
53196W        W25511   9.625  38.419   4.336
53197W        W25512  13.483  16.216   9.734
53198W        W25513  39.548  12.608   0.637
53199W        W25514  12.444  15.343  13.862
53200W        W25515   3.885  14.869   1.408
53201W        W25516  17.704  27.028  11.562
53202W        W25517  22.486   0.228   3.108
53203W        W25518  24.601  18.935   9.936
53204W        W25519   3.853  15.117   0.974
53205W        W25520  11.194  15.119  12.978
53206W        W25521  24.506  21.209  10.629
53207W        W25522   2.827  34.819   4.563
53208W        W25523  10.675  31.662  10.457
53209W        W25524  15.098  29.568   1.705
53210W        W25525  37.798   6.830   4.382
53211W        W25526  14.081  29.456  12.985
53212W        W25527   9.629  42.896  10.415
53213W        W25528  15.850  17.701  14.335
53214W        W25529  44.478  28.038   0.637
53215W        W25530  29.598  21.903   2.880
53216W        W25531  41.032   4.341  14.894
53217W        W25532  12.295  30.460   0.727
53218W        W25533  28.402   8.897  10.496
53219W        W25534  31.802  11.658   2.231
53220W        W25535  19.091   4.586   1.303
53221W        W25536  14.251  33.384   3.219
53222W        W25537  43.421   5.682  12.754
53223W        W25538   7.342  13.279  10.804
53224W        W25539  32.329  24.508   1.976
53225W        W25540   8.899  15.084  13.364
53226W        W25541  14.257  32.776  12.563
53227W        W25542  24.857  28.440  14.061
53228W        W25543   0.078  25.220  11.112
53229W        W25544  10.434  34.852   1.691
53230W        W25545   5.545  29.222  10.871
53231W        W25546  41.732  23.106  10.376
53232W        W25547  14.738  43.781  11.120
53233W        W25548  25.257  16.268  14.978
53234W        W25549   1.427  42.475  14.331
53235W        W25550  27.990   4.689   2.195
53236W        W25551  31.661  29.135   4.664
53237W        W25552   5.774  22.284  12.633
53238W        W25553  20.473   9.981   4.287
53239W        W25554  29.860  31.405   3.845
53240W        W25555   1.902  25.728  11.169
53241W        W25556  22.181  15.946   2.919
53242W        W25557  33.647  39.171   3.661
53243W        W25558  14.228   7.625  12.404
53244W        W25559  26.241  30.746  10.570
53245W        W25560  16.149  29.705  14.248
53246W        W25561  13.344  36.395  10.716
53247W        W25562  32.101   0.481  12.595
53248W        W25563  44.233  38.254   3.726
53249W        W25564  38.325  22.555  13.798
53250W        W25565   7.880  13.888   3.387
53251W        W25566  34.424   4.422   4.272
53252W        W25567  43.981  31.400   3.181
53253W        W25568  11.281   7.582  11.508
53254W        W25569  25.742  42.805   0.801
53255W        W25570  15.745   7.175  10.648
53256W        W25571  27.001  41.590   2.227
53257W        W25572   5.152  18.219  11.190
53258W        W25573  36.873  26.463   2.371
53259W        W25574  18.305   0.960  14.645
53260W        W25575  40.296  12.299  10.994
53261W        W25576  25.272   4.528   3.249
53262W        W25577  29.386  29.529  13.952
53263W        W25578   6.386  15.588   1.262
53264W        W25579  42.338   2.457   3.704
53265W        W25580  44.171  28.507  12.656
53266W        W25581  37.879  10.686  12.324
53267W        W25582  23.617  22.904  13.089
53268W        W25583  24.723  31.857  11.932
53269W        W25584  27.653  31.238  10.653
53270W        W25585   4.743   2.167  11.213
53271W        W25586  20.588  18.024  14.018
53272W        W25587  25.691  25.426  13.771
53273W        W25588  21.883  19.677  14.803
53274W        W25589  40.411  21.478   4.352
53275W        W25590  34.148  16.607   1.753
53276W        W25591  33.305  11.356  13.636
53277W        W25592  30.051  34.217   1.632
53278W        W25593  28.622  36.952  10.684
53279W        W25594   2.518   9.635   0.743
53280W        W25595  20.744  29.772   3.265
53281W        W25596  29.044  38.571   4.848
53282W        W25597   6.708  41.267   1.220
53283W        W25598   4.449  43.316  10.605
53284W        W25599  17.998  30.527   0.479
53285W        W25600  38.681  19.916  13.457
53286W        W25601  37.127  37.527   1.724
53287W        W25602   8.829  23.144  14.204
53288W        W25603  21.559   9.329   4.541
53289W        W25604  35.972  16.215  14.224
53290W        W25605   7.286  12.598   0.328
53291W        W25606  35.264   8.697   3.286
53292W        W25607  14.956  14.421   2.356
53293W        W25608  14.075  22.621  11.537
53294W        W25609  20.026  27.460   5.013
53295W        W25610  28.014  27.166   0.596
53296W        W25611  36.871  23.614  13.139
53297W        W25612  37.048  25.067   1.289
53298W        W25613  39.293  17.353   4.870
53299W        W25614  12.578  25.657  10.792
53300W        W25615  20.288  14.373   1.252
53301W        W25616  16.602  21.063   1.692
53302W        W25617  32.441  27.216   1.296
53303W        W25618   1.200  18.705   3.242
53304W        W25619   1.419   1.718  14.535
53305W        W25620  21.082  43.912  14.343
53306W        W25621  39.738  38.116  14.464
53307W        W25622  13.354  37.030   1.001
53308W        W25623  41.561  22.492  14.876
53309W        W25624  43.272  18.437  10.713
53310W        W25625  11.124  14.271   0.944
53311W        W25626  40.056  15.855  12.098
53312W        W25627  42.541  40.960   1.666
53313W        W25628   4.033  20.643   2.862
53314W        W25629  27.885  20.495   1.272
53315W        W25630  23.621  29.591   4.714
53316W        W25631  36.327  36.855   4.039
53317W        W25632  20.267  17.614   2.234
53318W        W25633  35.607   5.828  13.809
53319W        W25634  25.296  12.731   3.650
53320W        W25635  10.197  21.762  13.874
53321W        W25636  32.625  21.059  12.941
53322W        W25637   4.377  26.159   1.978
53323W        W25638  18.536  23.654  14.054
53324W        W25639   8.643  18.796  13.098
53325W        W25640  17.884  17.296   1.921
53326W        W25641  10.098  43.750   5.017
53327W        W25642  21.564  26.884   1.886
53328W        W25643   7.670   3.044  14.096
53329W        W25644   2.933   9.167   2.674
53330W        W25645   9.440  34.790  13.389
53331W        W25646  10.662  27.948   4.608
53332W        W25647  18.273  40.615   4.992
53333W        W25648  30.112   3.793   0.348
53334W        W25649  35.566  28.577   3.672
53335W        W25650  13.097  21.399   2.798
53336W        W25651  25.813   9.326   1.736
53337W        W25652   2.076  29.541   4.561
53338W        W25653   1.321  44.657   0.741
53339W        W25654  31.983  32.028   3.006
53340W        W25655   0.061  37.576   4.172
53341W        W25656  11.174  43.928  12.046
53342W        W25657  24.147  38.117  14.320
53343W        W25658  20.734   5.744  13.140
53344W        W25659  39.466  18.435   3.690
53345W        W25660   1.368  37.742   0.336
53346W        W25661  38.975  25.786   1.833
53347W        W25662  25.255   9.732  14.509
53348W        W25663  13.760  36.844  12.243
53349W        W25664   3.625  44.063   1.705
53350W        W25665  25.544  36.425  14.081
53351W        W25666   1.217  22.696   2.096
53352W        W25667   9.156  10.084  12.423
53353W        W25668  22.703  13.741  11.048
53354W        W25669  28.723  13.615   1.392
53355W        W25670  27.853   1.799   4.061
53356W        W25671   5.761  22.729  14.469
53357W        W25672  23.185  40.428   1.416
53358W        W25673   5.291   2.848  11.096
53359W        W25674  25.067  32.648   0.853
53360W        W25675  23.033  30.895   3.808
53361W        W25676  12.609  36.772   2.853
53362W        W25677   5.060  14.709  14.062
53363W        W25678  28.804  16.860   1.721
53364W        W25679  42.041  29.465   2.936
53365W        W25680  26.620  10.229   3.305
53366W        W25681  44.168   9.162  11.022
53367W        W25682  26.152   5.290  11.379
53368W        W25683  28.927  42.603  14.674
53369W        W25684  12.904  30.549   3.242
53370W        W25685   5.667  13.304  13.521
53371W        W25686  37.857  32.140  12.498
53372W        W25687  36.860  22.870  10.924
53373W        W25688  42.760   8.020  14.595
53374W        W25689  10.133  13.176   3.639
53375W        W25690  26.670  32.902   1.274
53376W        W25691  16.735   0.789  11.859
53377W        W25692  12.671   7.594  13.699
53378W        W25693  27.721  28.433  10.681
53379W        W25694  35.125  30.448   4.549
53380W        W25695  38.497   7.764  13.904
53381W        W25696   4.862   1.419   4.652
53382W        W25697  17.758   2.437   3.298
53383W        W25698  21.527  35.524   1.138
53384W        W25699   6.225  34.445  10.742
53385W        W25700   5.379  29.480  14.502
53386W        W25701   8.447  39.055  14.015
53387W        W25702  37.638  38.294  14.952
53388W        W25703  34.470  32.649   0.760
53389W        W25704   5.300   1.946   2.859
53390W        W25705   1.694   1.287  14.340
53391W        W25706  31.511  16.161   4.751
53392W        W25707  15.132   7.799  14.488
53393W        W25708  30.875  15.602  11.956
53394W        W25709  28.986   7.281   2.469
53395W        W25710  33.001  22.989  13.883
53396W        W25711  25.989  16.731   0.332
53397W        W25712  25.203  21.854   2.628
53398W        W25713  36.954  12.663   0.270
53399W        W25714  31.316  34.508   1.809
53400W        W25715  42.894   2.666  14.607
53401W        W25716  42.975  33.888  13.841
53402W        W25717  10.331  11.833   0.340
53403W        W25718  17.623   9.453  11.549
53404W        W25719  29.359  20.642   4.080
53405W        W25720   0.728  13.804  13.269
53406W        W25721  27.156   3.924   9.701
53407W        W25722  17.246  26.950  12.934
53408W        W25723  44.480  34.408  12.391
53409W        W25724  30.235  13.286   1.841
53410W        W25725  37.510  21.546   1.695
53411W        W25726  22.696  12.359  14.264
53412W        W25727  37.251  32.107   3.061
53413W        W25728  19.473   5.009  13.854
53414W        W25729  33.658  27.205   4.325
53415W        W25730   6.719  28.879  11.558
53416W        W25731  13.009  23.563   2.775
53417W        W25732  10.994  26.505  13.511
53418W        W25733  12.828   0.890   4.664
53419W        W25734  42.033  33.447   3.845
53420W        W25735  20.008  18.914   0.948
53421W        W25736  24.045  42.344   2.806
53422W        W25737  31.350   8.717  11.165
53423W        W25738   1.888  19.207  12.927
53424W        W25739  24.177  17.193  13.336
53425W        W25740  38.944  33.607   3.251
53426W        W25741  14.182  31.618  14.822
53427W        W25742  33.562  44.902   3.121
53428W        W25743   0.818   1.253  14.963
53429W        W25744  18.154  30.385  11.799
53430W        W25745  16.040  14.791  12.434
53431W        W25746  15.239  21.368  12.481
53432W        W25747  20.552   1.874   1.715
53433W        W25748   7.200   9.162  10.743
53434W        W25749  23.570  38.444  13.000
53435W        W25750  38.030  16.057   0.706
53436W        W25751   6.991   6.877   0.389
53437W        W25752   6.383  37.851   0.613
53438W        W25753   9.769  15.297   4.732
53439W        W25754  36.019   3.267  13.926
53440W        W25755  26.537  19.651   4.517
53441W        W25756  43.322   2.700   4.612
53442W        W25757  21.736  36.015   4.628
53443W        W25758  28.856  22.987   2.858
53444W        W25759   3.521  25.897  11.835
53445W        W25760   8.656   0.918  11.376
53446W        W25761  29.459  43.268   0.875
53447W        W25762  28.644  43.653   4.042
53448W        W25763  29.697  17.932   3.424
53449W        W25764  31.417  40.437   0.703
53450W        W25765   5.271  20.098  13.565
53451W        W25766  34.320  36.179   0.294
53452W        W25767  25.384  37.776  14.845
53453W        W25768  28.706  23.926   2.244
53454W        W25769   9.183  35.018  13.805
53455W        W25770   9.339  38.604  11.480
53456W        W25771  29.150  15.211  14.514
53457W        W25772  16.865   4.806  14.539
53458W        W25773  19.765  35.663  13.875
53459W        W25774  23.959  16.334  13.529
53460W        W25775  40.451  15.282   1.955
53461W        W25776  32.638  35.985   4.960
53462W        W25777  21.774   0.755  10.986
53463W        W25778  36.582   5.758  11.607
53464W        W25779   3.016  44.346   3.361
53465W        W25780  39.828  10.851  10.916
53466W        W25781  21.222  10.593   0.410
53467W        W25782  25.116  10.309   2.433
53468W        W25783  20.722  37.966  11.457
53469W        W25784  35.169   1.798   4.165
53470W        W25785   8.401  15.346  11.932
53471W        W25786  39.971  19.709   0.470
53472W        W25787   4.704  42.778  14.360
53473W        W25788  25.602  32.191   3.276
53474W        W25789  13.231  11.796  12.683
53475W        W25790  17.774  32.441  14.899
53476W        W25791  22.687   4.499   0.430
53477W        W25792  43.707  42.576  14.493
53478W        W25793  44.245  39.247   4.308
53479W        W25794   2.626  40.277  10.703
53480W        W25795  34.544  23.101  14.070
53481W        W25796  15.318  10.656   0.490
53482W        W25797  21.640  22.558   3.147
53483W        W25798  35.241  28.095   9.814
53484W        W25799  42.195  29.696   1.286
53485W        W25800  30.914  15.276  14.963
53486W        W25801   3.777  15.591  13.010
53487W        W25802  13.336  29.020   1.780
53488W        W25803   7.294  17.529  12.442
53489W        W25804  28.303  28.783  14.543
53490W        W25805  14.772  28.917   0.369
53491W        W25806   3.773  16.355   2.681
53492W        W25807  27.496  43.308   2.466
53493W        W25808   6.479  35.896  12.973
53494W        W25809  23.305  26.174  13.540
53495W        W25810   8.113  25.055   3.352
53496W        W25811  11.074  44.270  13.996
53497W        W25812  25.702  34.373   3.734
53498W        W25813  14.106  32.062  11.838
53499W        W25814  20.653  29.021  11.947
53500W        W25815  37.343  31.034  13.509
53501W        W25816   5.269  12.596   1.417
53502W        W25817  39.337  19.527   2.702
53503W        W25818  42.913  19.644   2.210
53504W        W25819  18.869  15.800  10.109
53505W        W25820  40.152  30.351  12.154
53506W        W25821  40.437  40.841  11.876
53507W        W25822  44.784  35.829   1.813
53508W        W25823   8.443  39.528   2.318
53509W        W25824  15.819  37.990  11.941
53510W        W25825  43.610   8.690   3.764
53511W        W25826  29.809  33.642   0.269
53512W        W25827  22.676   8.008   0.754
53513W        W25828  39.782  33.988   3.217
53514W        W25829   9.337  14.147   5.064
53515W        W25830  32.454  41.921  14.986
53516W        W25831  40.867  42.555  11.615
53517W        W25832   0.235  26.483  12.917
53518W        W25833  15.746   2.954  14.862
53519W        W25834  13.773  17.989  11.524
53520W        W25835  16.142   1.391   2.616
53521W        W25836  19.619  12.396   0.029
53522W        W25837  43.244  24.336   0.212
53523W        W25838  16.046  13.290  11.719
53524W        W25839  39.581  11.165   2.714
53525W        W25840  23.493  24.109  11.138
53526W        W25841  14.195   3.138   0.788
53527W        W25842   0.986   0.266  14.749
53528W        W25843  13.335  30.670  11.171
53529W        W25844  24.147  44.408   1.447
53530W        W25845  13.786  13.722  12.846
53531W        W25846  31.903  40.718  12.892
53532W        W25847  40.805  19.025  14.234
53533W        W25848  17.298   8.703   2.156
53534W        W25849  24.285  27.412   0.868
53535W        W25850  35.570  15.136   0.281
53536W        W25851  27.012  17.800  11.162
53537W        W25852  21.734  42.339   1.407
53538W        W25853  33.343  11.678  14.386
53539W        W25854  15.619  19.634  14.512
53540W        W25855   5.729   9.352   2.849
53541W        W25856   6.292  27.008  14.289
53542W        W25857  23.750   3.401   4.189
53543W        W25858  32.397  41.497  11.894
53544W        W25859  18.436  44.125  13.347
53545W        W25860  20.100  28.703  12.165
53546W        W25861  39.454  18.239   1.256
53547W        W25862  17.832  16.246   2.230
53548W        W25863  37.321  40.981  11.193
53549W        W25864  43.675   8.760  10.677
53550W        W25865  26.029  17.810  11.151
53551W        W25866  20.536  19.321   4.577
53552W        W25867  13.034  15.779   5.215
53553W        W25868   7.651  44.401  10.334
53554W        W25869  31.146  10.401   0.386
53555W        W25870  31.397  41.772  11.638
53556W        W25871  12.280  29.918  10.394
53557W        W25872  36.305  32.690   1.031
53558W        W25873  10.129  33.082  14.770
53559W        W25874  17.258  13.196   0.814
53560W        W25875  25.651  18.791  14.479
53561W        W25876  11.163  21.577   4.506
53562W        W25877  41.841   0.981   5.224
53563W        W25878  32.516  10.771  13.856
53564W        W25879  13.639  11.620  12.359
53565W        W25880  16.303  30.569  11.908
53566W        W25881  23.068   4.158  12.136
53567W        W25882  44.764   2.218   0.338
53568W        W25883  38.352  24.669  10.038
53569W        W25884   3.228  24.899   3.687
53570W        W25885  43.223  20.779  10.628
53571W        W25886  34.586   2.207  12.003
53572W        W25887  22.960  10.947   0.940
53573W        W25888  31.053   3.341  12.940
53574W        W25889  18.288  41.446   4.575
53575W        W25890   6.923  37.216   5.023
53576W        W25891  23.825  22.822  11.899
53577W        W25892  43.752  41.552   1.803
53578W        W25893  27.118   5.903  12.786
53579W        W25894  16.731  40.894   2.664
53580W        W25895  29.191  30.028   0.287
53581W        W25896  13.280  30.924  10.733
53582W        W25897  26.250   8.314   1.453
53583W        W25898  29.012  39.560  11.399
53584W        W25899  14.567  40.725  14.950
53585W        W25900  18.464  26.268  12.452
53586W        W25901  34.938  25.477  11.983
53587W        W25902  16.729  40.191   1.346
53588W        W25903  18.311   9.091  10.876
53589W        W25904  16.354   6.430   3.539
53590W        W25905  12.144  24.282  13.775
53591W        W25906  18.970  35.967   0.369
53592W        W25907  31.422   5.966   1.918
53593W        W25908   0.743  22.129  11.502
53594W        W25909  21.488  32.517   4.064
53595W        W25910  15.533   1.734   5.231
53596W        W25911   1.003   1.859   3.369
53597W        W25912  23.848  37.207  14.519
53598W        W25913  21.016  41.426   1.799
53599W        W25914  44.730  18.198   4.778
53600W        W25915  30.437  22.662  13.357
53601W        W25916  41.920  35.986   4.094
53602W        W25917   2.449  38.528  12.049
53603W        W25918  44.010  43.087   2.685
53604W        W25919  25.596   3.041  13.473
53605W        W25920   9.454  43.752  13.692
53606W        W25921  38.782  25.587   3.727
53607W        W25922   9.756  21.477  14.013
53608W        W25923  20.714  31.917  13.999
53609W        W25924  15.392   6.679  13.745
53610W        W25925  37.159   5.603  12.623
53611W        W25926  13.336  42.210   0.232
53612W        W25927  27.551  24.110   0.760
53613W        W25928  12.375  31.207  12.868
53614W        W25929  17.333  30.870   9.598
53615W        W25930  28.962   4.413  11.482
53616W        W25931   3.442  34.578   2.121
53617W        W25932  39.537  31.012  14.897
53618W        W25933  13.850   9.045   4.517
53619W        W25934  40.386  14.283   0.707
53620W        W25935  39.725  16.800  12.483
53621W        W25936  23.673  40.478   0.370
53622W        W25937  30.692  23.994  14.905
53623W        W25938  38.715  26.112   3.522
53624W        W25939   7.121  27.204   3.885
53625W        W25940  39.470  37.011  13.783
53626W        W25941  27.994  28.116   0.694
53627W        W25942  28.965  22.718  14.447
53628W        W25943   5.753  34.223   1.925
53629W        W25944  27.965   4.793   5.234
53630W        W25945  44.136  36.019  13.767
53631W        W25946  35.482   2.478  14.980
53632W        W25947  12.865   9.665  11.975
53633W        W25948  36.045  17.070  12.166
53634W        W25949   1.077  27.976   1.674
53635W        W25950  27.752  39.116  14.320
53636W        W25951   8.333  38.944  11.612
53637W        W25952  43.901  32.029  10.993
53638W        W25953  14.859  20.009   0.285
53639W        W25954  25.588  14.163  14.122
53640W        W25955  26.057  23.960   4.330
53641W        W25956  13.416  26.059  10.842
53642W        W25957  32.550  21.196   3.233
53643W        W25958  29.278  20.252  14.962
53644W        W25959  13.836  41.559  12.585
53645W        W25960  36.095  30.574   0.033
53646W        W25961  31.516  40.902  14.770
53647W        W25962   7.415  35.807   0.834
53648W        W25963  32.906   8.311  11.032
53649W        W25964   0.236  31.616   2.288
53650W        W25965  37.825   1.987   2.151
53651W        W25966  37.621  34.178  11.153
53652W        W25967   0.133  41.592   3.693
53653W        W25968  11.764  19.350   5.113
53654W        W25969  21.194  16.372   0.711
53655W        W25970  24.797  22.470  10.538
53656W        W25971  13.031  24.003  13.957
53657W        W25972  43.412   6.823  12.021
53658W        W25973  35.324  13.149   4.220
53659W        W25974  36.302  24.561   1.362
53660W        W25975  40.700   9.168  13.047
53661W        W25976  21.861  13.686  10.445
53662W        W25977  13.616   4.880  12.043
53663W        W25978  17.876  13.806  10.686
53664W        W25979   1.474  22.339  12.152
53665W        W25980  34.931  18.047   0.834
53666W        W25981  18.622   8.638   2.392
53667W        W25982  17.290  40.472  14.366
53668W        W25983  11.759  23.109  13.539
53669W        W25984  25.281  15.642   3.628
53670W        W25985  14.391  13.754   0.029
53671W        W25986  14.335  43.976   1.876
53672W        W25987  40.718  30.144   1.506
53673W        W25988  29.179  43.275   2.146
53674W        W25989  19.944   2.716   3.522
53675W        W25990  31.966   5.717  11.088
53676W        W25991  24.735  39.343   2.740
53677W        W25992   8.373  31.932   4.295
53678W        W25993  17.335  29.469  13.955
53679W        W25994  15.722  26.197  11.593
53680W        W25995  39.969  43.670  13.592
53681W        W25996  41.371   7.859  13.391
53682W        W25997  42.930  14.400  12.217
53683W        W25998  36.493  29.193   1.719
53684W        W25999  18.806  19.086  13.474
53685W        W26000  44.230  31.516  13.506
53686W        W26001  24.817  18.511  14.481
53687W        W26002  17.189  40.506   4.811
53688W        W26003  22.748  42.815  10.200
53689W        W26004  24.725  14.030   2.869
53690W        W26005  20.108  22.003   2.356
53691W        W26006   3.231  36.035  13.980
53692W        W26007  33.119   4.138   3.810
53693W        W26008   6.344  24.055   1.238
53694W        W26009   9.112  15.342   1.740
53695W        W26010  23.056  19.726  10.666
53696W        W26011  10.342  14.235   3.308
53697W        W26012   2.923  36.428  13.868
53698W        W26013  44.545  17.060  10.189
53699W        W26014  19.288  34.151   0.864
53700W        W26015  19.389  39.520  10.159
53701W        W26016  44.225  11.548   4.509
53702W        W26017   9.858  11.187  13.638
53703W        W26018  38.137  42.289   0.969
53704W        W26019   4.486   1.946   1.245
53705W        W26020  30.707  24.086  13.316
53706W        W26021  20.592  20.567  11.439
53707W        W26022  24.216  16.686   4.165
53708W        W26023  31.191   2.163  12.477
53709W        W26024   6.352  33.150  13.324
53710W        W26025  37.727   8.273  11.620
53711W        W26026   3.115  41.882  11.088
53712W        W26027  13.688   4.259   4.674
53713W        W26028  17.036  41.593   3.587
53714W        W26029  13.146   4.889  14.315
53715W        W26030  18.661  11.774  12.177
53716W        W26031  22.986  44.499  12.556
53717W        W26032  23.972  22.705  11.420
53718W        W26033   5.906   1.566   0.752
53719W        W26034  30.489   8.229   2.311
53720W        W26035   1.509  30.442  11.540
53721W        W26036  36.501  13.288   4.620
53722W        W26037  15.882  16.565  11.887
53723W        W26038   6.490   9.623   0.335
53724W        W26039   2.072  40.400  11.568
53725W        W26040  16.805  27.252   0.317
53726W        W26041  12.173  19.298   5.465
53727W        W26042  31.961  10.147  11.448
53728W        W26043   9.533  26.731   3.132
53729W        W26044  29.950  17.134   2.787
53730W        W26045  27.014   5.190  13.351
53731W        W26046  27.255  42.996  14.298
53732W        W26047  14.302   2.420  13.126
53733W        W26048  19.190  23.770  11.989
53734W        W26049  18.079  30.221   1.346
53735W        W26050   9.492   9.248   3.738
53736W        W26051   2.042  22.806  12.525
53737W        W26052  11.079  33.278  11.603
53738W        W26053   1.386  20.303   4.960
53739W        W26054   0.311  14.274  11.519
53740W        W26055  40.570   0.898   2.224
53741W        W26056  20.035  11.090  12.023
53742W        W26057  36.797  34.901   0.445
53743W        W26058  31.435  34.835  11.639
53744W        W26059  36.811  24.126   4.216
53745W        W26060  17.815  37.950   2.818
53746W        W26061  41.129   6.334   1.220
53747W        W26062  21.098  40.753  13.048
53748W        W26063  44.489  33.677  12.843
53749W        W26064  42.217  33.148  11.626
53750W        W26065  30.947  33.615   0.985
53751W        W26066  24.512  33.879   0.742
53752W        W26067  44.725  42.001   3.615
53753W        W26068  28.920  25.546   2.250
53754W        W26069   5.254   9.225   3.183
53755W        W26070  39.361  22.648   0.319
53756W        W26071  31.575  22.451   2.243
53757W        W26072  19.164   3.716  11.499
53758W        W26073  28.973   3.309  10.986
53759W        W26074  32.966  24.097   4.578
53760W        W26075  23.657  25.163   4.678
53761W        W26076  21.257   5.717  12.999
53762W        W26077  43.969  15.704  11.048
53763W        W26078  12.977   5.049   1.933
53764W        W26079   4.354  35.041  12.566
53765W        W26080   7.348  17.244   0.949
53766W        W26081  41.081  13.158  13.277
53767W        W26082   7.967  19.162  14.655
53768W        W26083  13.365  31.157   1.735
53769W        W26084  15.935  21.707   3.199
53770W        W26085  19.368  39.996   4.211
53771W        W26086  33.302  29.829  13.446
53772W        W26087  20.520  14.220  11.508
53773W        W26088  16.276  36.361   2.896
53774W        W26089  20.668  15.819  10.751
53775W        W26090  32.668   4.661  12.113
53776W        W26091  26.031   5.202   0.478
53777W        W26092  13.645   9.908  11.591
53778W        W26093  24.506  43.899   3.263
53779W        W26094   3.785  31.449   3.746
53780W        W26095  29.061   7.532   0.702
53781W        W26096  40.405   7.449  12.580
53782W        W26097  18.622   2.716   2.472
53783W        W26098  22.266  30.672   3.173
53784W        W26099   8.578  42.631  13.667
53785W        W26100   3.171  31.259  13.332
53786W        W26101   9.170  17.100  12.715
53787W        W26102  12.970  29.429   4.427
53788W        W26103  35.254   6.166   5.003
53789W        W26104  13.823  41.812  13.482
53790W        W26105  42.398  41.290  14.793
53791W        W26106  30.824   5.858  11.302
53792W        W26107  20.355  18.635  12.974
53793W        W26108  39.224  26.128   2.181
53794W        W26109  31.087  10.068   2.336
53795W        W26110  44.961  28.516   1.226
53796W        W26111  10.664   8.815   4.528
53797W        W26112   0.660   9.187  13.001
53798W        W26113  24.766  11.405   3.173
53799W        W26114  23.007  15.721  10.615
53800W        W26115  30.697   7.133  10.729
53801W        W26116   2.762  31.054   0.379
53802W        W26117   6.975  10.076   2.346
53803W        W26118   7.807   8.461  14.486
53804W        W26119  29.129  20.563  11.233
53805W        W26120  30.610  13.217  12.163
53806W        W26121  37.466  15.885   3.256
53807W        W26122  13.211  21.410   5.038
53808W        W26123  17.348  12.095   3.114
53809W        W26124  22.885  19.584   5.457
53810W        W26125   9.824   8.170   1.166
53811W        W26126  36.253  32.092   3.186
53812W        W26127  13.294  12.850  13.575
53813W        W26128  38.243  38.390   2.672
53814W        W26129   7.624  23.016  12.600
53815W        W26130  24.700  35.936   4.629
53816W        W26131   3.900  27.505  14.931
53817W        W26132   4.793  20.514  11.185
53818W        W26133  26.509  30.414   2.269
53819W        W26134  37.575   9.934  12.483
53820W        W26135   2.839  13.310   2.712
53821W        W26136  29.897   0.753  14.990
53822W        W26137  27.880  13.724  11.512
53823W        W26138  38.064  43.865  11.902
53824W        W26139  33.002  21.527  14.028
53825W        W26140  22.310  26.582   1.432
53826W        W26141  18.164  12.181   2.796
53827W        W26142   8.861  38.854  14.412
53828W        W26143  39.852  20.197   2.159
53829W        W26144  44.531  11.403   0.875
53830W        W26145  19.284  10.568   1.810
53831W        W26146  21.222   5.809   2.905
53832W        W26147  43.978  16.639  14.118
53833W        W26148   2.688  21.947  13.915
53834W        W26149   9.604  11.254   3.391
53835W        W26150  24.931   2.819   3.050
53836W        W26151  33.604   1.843  13.529
53837W        W26152  28.227  27.944  13.872
53838W        W26153   9.289  34.600   2.377
53839W        W26154  24.471  22.929   4.561
53840W        W26155  24.723  13.124   4.190
53841W        W26156  41.452  11.587  13.837
53842W        W26157   8.347  44.079  10.864
53843W        W26158  44.378  43.956   3.050
53844W        W26159  40.987   0.506   2.678
53845W        W26160  27.944  20.232  14.423
53846W        W26161  32.092  29.424   4.609
53847W        W26162  21.831  39.894  10.731
53848W        W26163  41.330  34.050   1.453
53849W        W26164   6.823  24.655   4.087
53850W        W26165  29.710  31.491   2.216
53851W        W26166  27.396  41.522   1.329
53852W        W26167   6.820  33.343  13.458
53853W        W26168  32.182  30.484   4.020
53854W        W26169   5.253  17.679  12.023
53855W        W26170  36.963  30.979   2.290
53856W        W26171   7.319  16.883   3.109
53857W        W26172  25.503  14.012  14.597
53858W        W26173  11.567  21.958  14.140
53859W        W26174   3.329   0.153   1.346
53860W        W26175  12.660  14.603   1.244
53861W        W26176   4.467  35.298  11.093
53862W        W26177  18.093  15.735   1.635
53863W        W26178   1.014  44.658   1.157
53864W        W26179   8.948  13.322  11.996
53865W        W26180   5.485  33.121  13.486
53866W        W26181  36.967   5.417   0.439
53867W        W26182  24.051  19.111   5.218
53868W        W26183  12.824  33.909   3.753
53869W        W26184  28.055   7.766   0.838
53870W        W26185   6.793  37.663   3.027
53871W        W26186  16.357  38.023  11.924
53872W        W26187  34.788  27.248   5.016
53873W        W26188   6.665  28.616  11.999
53874W        W26189  31.552  31.340   3.447
53875W        W26190   9.560  18.023   2.725
53876W        W26191  12.646  14.565   3.431
53877W        W26192  35.144  33.138  13.250
53878W        W26193   4.013  19.146   3.908
53879W        W26194  37.574  12.747   0.578
53880W        W26195   4.803  10.214  10.734
53881W        W26196  32.291  33.475  10.795
53882W        W26197  27.160  10.725  12.917
53883W        W26198  41.961  44.313  11.828
53884W        W26199  26.982  21.205   2.610
53885W        W26200  33.404  28.564   2.784
53886W        W26201  25.423   2.907   2.172
53887W        W26202  30.139  37.941   3.039
53888W        W26203  31.443  12.548  12.530
53889W        W26204  25.855  26.873   1.183
53890W        W26205   2.875  24.566   1.908
53891W        W26206  24.165  20.079  14.713
53892W        W26207  38.978   1.314   2.674
53893W        W26208  44.960  36.068   3.351
53894W        W26209   0.848  36.311  11.603
53895W        W26210   9.792  35.298   1.870
53896W        W26211  14.558  13.073   4.072
53897W        W26212  35.409  25.562  10.427
53898W        W26213  43.175  13.577   3.634
53899W        W26214  27.356   5.925   3.269
53900W        W26215  17.323   5.317   3.617
53901W        W26216   7.661  11.128  11.209
53902W        W26217  31.902  12.726  10.390
53903W        W26218  25.602  16.658  13.667
53904W        W26219  18.287  26.095   2.821
53905W        W26220  24.210  32.720   0.587
53906W        W26221   4.010   0.881  13.985
53907W        W26222   9.158   3.792  13.769
53908W        W26223  18.771  25.183   4.343
53909W        W26224  19.214   3.960   4.744
53910W        W26225  28.143  41.715  10.716
53911W        W26226  27.120  44.986   3.681
53912W        W26227  23.609  42.972   0.274
53913W        W26228  33.885  21.694   4.755
53914W        W26229   6.288  11.794  13.869
53915W        W26230  16.298  10.118   3.148
53916W        W26231   4.623  41.120  13.390
53917W        W26232  22.659  35.923  10.913
53918W        W26233  35.979  28.646  13.375
53919W        W26234  21.717  18.990   1.940
53920W        W26235  41.957  30.615  12.052
53921W        W26236  17.256  40.262   1.247
53922W        W26237  19.051  29.658   2.273
53923W        W26238  34.649  22.220   0.013
53924W        W26239  18.354  41.949   5.105
53925W        W26240  42.441   3.908  12.271
53926W        W26241   7.783  21.588   4.168
53927W        W26242  26.430  28.596  13.331
53928W        W26243  21.153  26.739  14.346
53929W        W26244   3.284  16.770   3.283
53930W        W26245  39.023  39.906  11.200
53931W        W26246  41.520  27.091   2.156
53932W        W26247  23.154  20.277   0.479
53933W        W26248  43.984  38.005   1.924
53934W        W26249   8.177  37.526   3.623
53935W        W26250  30.622  30.629   3.689
53936W        W26251  24.131  16.942   4.984
53937W        W26252  24.578  35.272   3.742
53938W        W26253  25.168   4.171   2.797
53939W        W26254   2.698   1.270  10.753
53940W        W26255  27.092  18.548   1.168
53941W        W26256  33.599  12.790   4.144
53942W        W26257   4.809  28.907   4.352
53943W        W26258   2.189  26.496   3.432
53944W        W26259  25.427  31.965  11.209
53945W        W26260  29.918  43.948  13.074
53946W        W26261   0.830  36.436   0.824
53947W        W26262  18.077  28.478   5.019
53948W        W26263  28.650  21.559   0.424
53949W        W26264  24.264  31.577  12.038
53950W        W26265  25.459  17.678   3.392
53951W        W26266  30.626   4.513   1.893
53952W        W26267  12.943  11.062  11.054
53953W        W26268   0.851  32.015   2.296
53954W        W26269  40.926  30.868   3.365
53955W        W26270  34.924  24.960  11.873
53956W        W26271  22.383  16.427   0.843
53957W        W26272  21.088  25.376  14.447
53958W        W26273  19.567  43.851   1.174
53959W        W26274  39.663  35.947  10.941
53960W        W26275   2.514  22.602   3.531
53961W        W26276  34.484  30.365   1.318
53962W        W26277  25.556  25.226   3.814
53963W        W26278  26.426  30.601  13.430
53964W        W26279  24.419  11.612  12.777
53965W        W26280  11.743  17.203  13.765
53966W        W26281  19.022  17.136   1.382
53967W        W26282  28.450   6.446   9.731
53968W        W26283  21.057  23.668  12.611
53969W        W26284  40.364  36.798  11.753
53970W        W26285  44.958   1.334   1.012
53971W        W26286  40.146  29.732   1.276
53972W        W26287  32.520  40.012  13.835
53973W        W26288  24.744  19.545  13.265
53974W        W26289  29.824  31.021   0.859
53975W        W26290  22.814  12.230  13.753
53976W        W26291  26.341  21.124   4.883
53977W        W26292  14.630   8.376  11.593
53978W        W26293  14.670  24.538  13.414
53979W        W26294  19.812   7.286   1.190
53980W        W26295  21.256  23.594  10.800
53981W        W26296  19.785  42.243  11.027
53982W        W26297   4.880  33.879   0.431
53983W        W26298  33.991  36.649  11.576
53984W        W26299   5.403  41.054   4.314
53985W        W26300  34.500   7.909  13.962
53986W        W26301   0.097  30.053   3.747
53987W        W26302   2.249  26.887  11.436
53988W        W26303  26.805  16.344  12.133
53989W        W26304  28.977  41.120   3.583
53990W        W26305  11.641  33.482  12.394
53991W        W26306  38.553  29.716  10.653
53992W        W26307  35.628   9.755   3.195
53993W        W26308  24.443  11.387   1.320
53994W        W26309  12.232  42.237  12.611
53995W        W26310  12.182  23.516   1.716
53996W        W26311  31.055  18.396  14.695
53997W        W26312  39.513  26.657  12.821
53998W        W26313   6.227  18.564  13.036
53999W        W26314  15.522   8.383  11.579
54000W        W26315   4.480  34.381   0.236
54001W        W26316   3.536   9.520   0.862
54002W        W26317  24.242   4.972   3.196
54003W        W26318  15.544   1.259  13.517
54004W        W26319  42.940   9.456   3.105
54005W        W26320  38.500  32.098   1.349
54006W        W26321  24.188  18.048  11.983
54007W        W26322  32.297  13.737  11.196
54008W        W26323   8.829  33.093   3.359
54009W        W26324  29.900   7.553   0.217
54010W        W26325  30.028  37.611   0.810
54011W        W26326  23.576   5.743   3.233
54012W        W26327  13.342  36.304   1.254
54013W        W26328   0.352   4.237  10.560
54014W        W26329  24.548   2.498  11.984
54015W        W26330  39.335  16.915   3.623
54016W        W26331  25.681  19.073  12.092
54017W        W26332  14.008  20.653   3.315
54018W        W26333  43.751  18.615  10.618
54019W        W26334  12.647   3.591   1.897
54020W        W26335  14.299  36.641   1.874
54021W        W26336  40.794  20.597   0.801
54022W        W26337  14.883  31.885  11.590
54023W        W26338   4.926  31.075  11.605
54024W        W26339  29.506  18.293  14.158
54025W        W26340  21.357  44.301   0.453
54026W        W26341  11.288  27.957   4.182
54027W        W26342  15.281  26.058  14.754
54028W        W26343  35.371  42.928   3.507
54029W        W26344  39.598  13.702  13.912
54030W        W26345  34.902  39.811  14.827
54031W        W26346  14.688  15.681   5.024
54032W        W26347   0.709  44.574  11.945
54033W        W26348   2.693  37.999   3.832
54034W        W26349  37.631  18.901   1.988
54035W        W26350  37.506  18.084   4.147
54036W        W26351  39.926  44.549  13.905
54037W        W26352  30.486  41.419   0.971
54038W        W26353  35.835  37.092   0.041
54039W        W26354  27.918  11.700  11.057
54040W        W26355  18.145  27.522  10.616
54041W        W26356   8.309  28.515  11.965
54042W        W26357  20.174  26.166  11.804
54043W        W26358  27.716  42.993   1.405
54044W        W26359   6.854  36.551   3.856
54045W        W26360  44.911  32.229   0.551
54046W        W26361  25.585  14.128  12.598
54047W        W26362   5.328  17.819  13.429
54048W        W26363   3.808  37.502   1.543
54049W        W26364  18.089  14.653  12.998
54050W        W26365   7.683  32.483   1.304
54051W        W26366   2.897  39.826   2.249
54052W        W26367   1.758   3.334   0.839
54053W        W26368  39.661  15.401   4.615
54054W        W26369  10.869  27.666  11.925
54055W        W26370   3.919  28.591  10.978
54056W        W26371  10.192  43.303  14.289
54057W        W26372  25.406  23.661  12.114
54058W        W26373  25.213  42.846   2.433
54059W        W26374  26.973  29.955  13.083
54060W        W26375   0.184  16.684   1.884
54061W        W26376   3.307  30.578   4.115
54062W        W26377   1.555  22.784  12.427
54063W        W26378  28.173  14.096  12.478
54064W        W26379  24.386  44.369  14.306
54065W        W26380  10.717  10.382   3.190
54066W        W26381  32.563  10.404   1.491
54067W        W26382  19.307   4.783  10.236
54068W        W26383  30.612   5.256  14.321
54069W        W26384  18.583  19.066   1.387
54070W        W26385  21.354  29.664  14.557
54071W        W26386  25.013  36.976   0.238
54072W        W26387   4.947  24.198   4.318
54073W        W26388   8.768  23.322   2.301
54074W        W26389  42.093  43.060   3.180
54075W        W26390  38.230  32.937   4.473
54076W        W26391  17.762  11.814  11.889
54077W        W26392   4.169  18.713   1.848
54078W        W26393  41.115   2.884   4.349
54079W        W26394   5.953  22.466   2.994
54080W        W26395  20.099  29.727  12.175
54081W        W26396  44.961  33.526  12.621
54082W        W26397  30.603  11.531  13.265
54083W        W26398  40.706  31.940   2.136
54084W        W26399  38.920   5.807   4.595
54085W        W26400  38.985   7.200  14.259
54086W        W26401  20.631  38.083   2.503
54087W        W26402  21.599  11.588   4.017
54088W        W26403  33.115  35.862  12.479
54089W        W26404  24.083  39.825  11.973
54090W        W26405  10.091  35.081  14.055
54091W        W26406  31.536  38.057   0.436
54092W        W26407  30.180  14.709   4.830
54093W        W26408  42.374   9.706   0.808
54094W        W26409  30.980   0.496   2.832
54095W        W26410  12.170   1.915  11.349
54096W        W26411  15.599   0.906   0.791
54097W        W26412   2.566  15.191   0.454
54098W        W26413  35.546   6.930  13.432
54099W        W26414  26.935  26.503   3.704
54100W        W26415   5.503  25.610  13.455
54101W        W26416   3.232  32.868   1.856
54102W        W26417  22.284  34.611  12.815
54103W        W26418  44.749   3.814   1.506
54104W        W26419  21.702   5.724  11.516
54105W        W26420  27.414   7.880   0.025
54106W        W26421  23.060  27.957   2.469
54107W        W26422  27.618  44.931   0.003
54108W        W26423  20.250   7.180  11.076
54109W        W26424  12.423   3.197  11.510
54110W        W26425  23.751   6.787  13.504
54111W        W26426  17.296  20.018  13.953
54112W        W26427  37.076  25.170   2.885
54113W        W26428  20.771  23.516   0.471
54114W        W26429  34.486  21.800   0.787
54115W        W26430  35.994  28.881   3.743
54116W        W26431  36.134   1.457  14.572
54117W        W26432  31.616  35.517  10.580
54118W        W26433  38.098  35.583  11.517
54119W        W26434  38.338  32.027  13.395
54120W        W26435   0.314  19.790   0.257
54121W        W26436  16.691   3.850   0.504
54122W        W26437  37.477   7.990  10.684
54123W        W26438  31.888  36.165  13.342
54124W        W26439  23.798  34.402   4.131
54125W        W26440   4.354  17.921   4.168
54126W        W26441  19.797   5.676   1.156
54127W        W26442  38.909  33.885  11.618
54128W        W26443  39.773  15.280   2.151
54129W        W26444   8.817   9.869  14.222
54130W        W26445  22.590  32.928   3.414
54131W        W26446  44.200  41.770   0.242
54132W        W26447  17.456  15.695  13.404
54133W        W26448  24.622  22.237  13.995
54134W        W26449   3.382   5.705   5.039
54135W        W26450  40.000   5.161   4.212
54136W        W26451  15.155  33.019  14.453
54137W        W26452  29.388  16.763   0.728
54138W        W26453  33.490  37.984  13.404
54139W        W26454  20.093  36.381   2.754
54140W        W26455  31.482  14.667   1.584
54141W        W26456  12.572  17.469   1.832
54142W        W26457  37.094  25.940   1.209
54143W        W26458  23.446  34.646   1.794
54144W        W26459   4.514  33.014  10.379
54145W        W26460  26.183   5.203  11.932
54146W        W26461  27.116  35.258   0.332
54147W        W26462  18.532  40.140   4.550
54148W        W26463  44.221  12.212   5.164
54149W        W26464  29.940   6.977  13.626
54150W        W26465  13.203  42.404  13.918
54151W        W26466  17.328  33.598  11.589
54152W        W26467  20.905  32.462  11.503
54153W        W26468  34.515   2.064  12.497
54154W        W26469  29.994  18.754   2.353
54155W        W26470   9.674  22.254  14.490
54156W        W26471  18.205   2.971   4.947
54157W        W26472  31.594  36.015   0.907
54158W        W26473  19.360  39.212   0.985
54159W        W26474  15.658  28.159   1.919
54160W        W26475  39.020   3.279   1.911
54161W        W26476  39.732  20.343  13.400
54162W        W26477   5.852  19.743  12.472
54163W        W26478  16.687  38.815   1.431
54164W        W26479   3.746  27.808  12.399
54165W        W26480  43.444  19.185  12.873
54166W        W26481  28.364   3.944   0.851
54167W        W26482  27.122  20.732   0.248
54168W        W26483  25.451  44.407   4.152
54169W        W26484  18.510  38.862   4.977
54170W        W26485  19.589  33.882   1.251
54171W        W26486  35.811  29.209  11.787
54172W        W26487   4.383  28.937  11.501
54173W        W26488  28.410  24.923  12.149
54174W        W26489  15.817  20.233  13.024
54175W        W26490   3.267  10.039   1.855
54176W        W26491  22.649  38.620   0.419
54177W        W26492   3.777  43.883  13.482
54178W        W26493  23.685   4.450   2.798
54179W        W26494   0.729  33.637   3.850
54180W        W26495  27.060  44.363   1.204
54181W        W26496  18.749  12.185  11.157
54182W        W26497  22.153   5.836  11.740
54183W        W26498  31.532  10.614   4.560
54184W        W26499  39.422  40.270   1.908
54185W        W26500   6.886  32.286  13.427
54186W        W26501   9.736  24.799   3.378
54187W        W26502  12.680  30.003  14.550
54188W        W26503  42.722  25.989   4.808
54189W        W26504  44.061  29.068   4.686
54190W        W26505  23.272  44.429   9.907
54191W        W26506  23.807   0.252   1.518
54192W        W26507   8.864  25.656   2.336
54193W        W26508   3.491  32.199  13.357
54194W        W26509  40.087  38.320  11.125
54195W        W26510  14.276  38.307  11.682
54196W        W26511  11.942  29.697   2.657
54197W        W26512  29.622  14.223   3.787
54198W        W26513   3.821  21.215   1.763
54199W        W26514   2.682  33.916  13.556
54200W        W26515   1.163   0.572   0.864
54201W        W26516  14.092  19.703  11.400
54202W        W26517  22.010   5.762   2.086
54203W        W26518   4.358  16.909   4.192
54204W        W26519  20.795   1.823  13.856
54205W        W26520   7.935   4.120   3.831
54206W        W26521  18.546  23.426   2.203
54207W        W26522  32.453  41.013   2.335
54208W        W26523  44.890  34.697  12.399
54209W        W26524  10.287  39.107  14.830
54210W        W26525  28.081  16.073  12.449
54211W        W26526   5.153  22.271   0.830
54212W        W26527  16.873  40.893   4.631
54213W        W26528  23.271  25.615  12.541
54214W        W26529  34.116  42.492   4.845
54215W        W26530   0.878  19.358   0.065
54216W        W26531  43.979  27.380   0.896
54217W        W26532  35.162   1.338   3.722
54218W        W26533  16.177  42.374   2.219
54219W        W26534  18.706  17.517   2.770
54220W        W26535  27.721  25.509   0.363
54221W        W26536  14.678  43.211  13.702
54222W        W26537   7.002  37.337  11.468
54223W        W26538  39.103  36.079   3.804
54224W        W26539  28.370  22.000   0.251
54225W        W26540  25.112  21.953  13.921
54226W        W26541  21.594  11.325  13.160
54227W        W26542  31.917  40.043   1.341
54228W        W26543   7.148  10.251   3.247
54229W        W26544  44.041   4.658   2.437
54230W        W26545  25.188  32.323   4.201
54231W        W26546  30.989  12.204   2.797
54232W        W26547  17.780  10.172   1.234
54233W        W26548  42.978   1.723   4.677
54234W        W26549  40.277  40.802   1.429
54235W        W26550  25.090   6.992   2.403
54236W        W26551  37.905   6.658  11.474
54237W        W26552  37.257  35.810   0.493
54238W        W26553  36.439  21.180  14.648
54239W        W26554  29.238  23.922  12.424
54240W        W26555  15.387  14.855   4.650
54241W        W26556  20.681  26.489  13.901
54242W        W26557   3.920  10.251  11.442
54243W        W26558  43.890  36.054   1.940
54244W        W26559  31.964   9.265  12.301
54245W        W26560  16.088  14.586   1.880
54246W        W26561   8.329   0.858  13.183
54247W        W26562   5.594  35.867   3.329
54248W        W26563   8.010  33.979   4.737
54249W        W26564   6.818  22.128  12.597
54250W        W26565  27.683  30.444  11.938
54251W        W26566  43.334  36.021   2.426
54252W        W26567  12.815  40.868  13.425
54253W        W26568   1.496   3.268   3.142
54254W        W26569  12.781   1.514  13.427
54255W        W26570  34.664  36.358   2.705
54256W        W26571  44.914  35.043  11.259
54257W        W26572   2.833  25.104  13.071
54258W        W26573   6.504  10.620  11.967
54259W        W26574  24.099  22.170  12.902
54260W        W26575  25.174  21.549  12.845
54261W        W26576   0.507  15.320  14.546
54262W        W26577   8.856   0.937   4.777
54263W        W26578  36.536  15.154   3.356
54264W        W26579  43.996  19.050  14.994
54265W        W26580   5.514  25.609  12.508
54266W        W26581  42.824  26.302  14.921
54267W        W26582  17.122  40.546   3.777
54268W        W26583  39.508  26.983   2.879
54269W        W26584   4.701  38.528   3.827
54270W        W26585  35.075  18.379  13.031
54271W        W26586  35.793  19.676  14.291
54272W        W26587  36.429   5.393  13.744
54273W        W26588  20.494  22.481   3.554
54274W        W26589   2.349  44.432  13.403
54275W        W26590  19.653  41.676   3.991
54276W        W26591  23.651  37.092   0.198
54277W        W26592   5.825   4.221  14.917
54278W        W26593  23.265  12.347   4.075
54279W        W26594  17.564  14.619   0.200
54280W        W26595  41.304  14.729  14.904
54281W        W26596  28.531  32.514  13.001
54282W        W26597   1.915  34.211  10.924
54283W        W26598  20.615   0.295  14.961
54284W        W26599  35.056   2.825  12.163
54285W        W26600   5.969  19.757   2.760
54286W        W26601   7.982  36.540  13.425
54287W        W26602  20.708  20.990   3.445
54288W        W26603  35.852  11.824   4.643
54289W        W26604  20.144  14.011  13.916
54290W        W26605   1.996  33.036   0.392
54291W        W26606  21.765  25.850  11.062
54292W        W26607  19.739  26.940  11.211
54293W        W26608   1.790  22.302   1.319
54294W        W26609  43.952  40.983  11.489
54295W        W26610  35.809  17.037   5.242
54296W        W26611  27.100  36.804  11.143
54297W        W26612  15.909  20.813  10.672
54298W        W26613  30.416   0.660  14.995
54299W        W26614  23.231  27.626  13.450
54300W        W26615  13.974   9.677  14.269
54301W        W26616  36.173  41.240  10.781
54302W        W26617  30.138   4.900  11.553
54303W        W26618  13.434  27.321  13.103
54304W        W26619  12.711   4.947  12.990
54305W        W26620  18.153  38.106   1.657
54306W        W26621  26.715  15.674   4.152
54307W        W26622  37.978   6.002  14.196
54308W        W26623  43.810  10.685  11.076
54309W        W26624  17.687  21.554   2.928
54310W        W26625  11.140  40.847  12.335
54311W        W26626   1.773  30.549  13.384
54312W        W26627  24.341  42.562  13.456
54313W        W26628  40.466  25.810  13.338
54314W        W26629  16.287  26.867   4.562
54315W        W26630  22.529   0.922   1.408
54316W        W26631  14.296  12.757   0.323
54317W        W26632  35.120  20.103  13.307
54318W        W26633   8.772  25.592  12.346
54319W        W26634  12.654  30.884  14.066
54320W        W26635  35.209  31.772  14.486
54321W        W26636  43.651  12.266  11.315
54322W        W26637  10.744  34.879   0.329
54323W        W26638  43.268   1.037  13.192
54324W        W26639  20.317   0.963   2.799
54325W        W26640  16.133   5.311  11.649
54326W        W26641  40.986  42.610   0.980
54327W        W26642  28.540  20.958  12.389
54328W        W26643  14.390  38.314   3.657
54329W        W26644  33.948   3.911   5.078
54330W        W26645  42.470  21.040   1.047
54331W        W26646  33.583  39.140  14.316
54332W        W26647   8.341  38.919  14.520
54333W        W26648  34.365  39.591  14.043
54334W        W26649  33.159  20.548  13.003
54335W        W26650  15.708  41.639  12.677
54336W        W26651  11.444  28.662   1.031
54337W        W26652   4.526  30.853   0.862
54338W        W26653  37.998  20.340   4.707
54339W        W26654  44.788  39.690  11.639
54340W        W26655   4.824  13.613   1.788
54341W        W26656  37.693  38.884  13.306
54342W        W26657  13.783  30.508  13.776
54343W        W26658   6.885  29.254  14.924
54344W        W26659  20.209   3.899   4.077
54345W        W26660  13.840   1.147  11.824
54346W        W26661  40.289  19.850   2.282
54347W        W26662  26.851  43.837   2.100
54348W        W26663   7.661  17.666  13.524
54349W        W26664  21.697  26.116  13.008
54350W        W26665  44.971  44.417   1.204
54351W        W26666  34.357   9.876   1.962
54352W        W26667  15.073  30.454   4.263
54353W        W26668  33.593   0.440  13.845
54354W        W26669  42.802  11.259   1.211
54355W        W26670   3.780  25.724   0.955
54356W        W26671  19.017  39.949   2.309
54357W        W26672  26.142   5.786   4.004
54358W        W26673  40.996   9.898  13.421
54359W        W26674  17.275   5.398   2.709
54360W        W26675  19.283  33.954   3.555
54361W        W26676  43.606  39.531   3.551
54362W        W26677  43.931  28.537  10.774
54363W        W26678  22.499   7.728   2.769
54364W        W26679  12.059   2.842  11.418
54365W        W26680  24.769  25.193  13.949
54366W        W26681  33.118  18.771   2.812
54367W        W26682  15.775  30.524   4.503
54368W        W26683   6.681   3.534  11.514
54369W        W26684  42.788   2.506   2.306
54370W        W26685  14.701   5.798  13.077
54371W        W26686  18.096  19.470  12.979
54372W        W26687  21.778   8.284   1.719
54373W        W26688  19.705  22.046  14.799
54374W        W26689  40.304   3.885  11.224
54375W        W26690  29.259  21.415   1.240
54376W        W26691  19.607   4.763  10.663
54377W        W26692  27.420  37.491   0.522
54378W        W26693  24.405  43.819  11.584
54379W        W26694  11.885  35.883  11.579
54380W        W26695  41.761  19.601  14.316
54381W        W26696   3.740  26.512   4.196
54382W        W26697  23.369  38.367   0.836
54383W        W26698  32.380   9.853  11.470
54384W        W26699  24.780  40.990   4.154
54385W        W26700  28.548   3.439   3.636
54386W        W26701   9.335   8.673  14.312
54387W        W26702  19.478   7.730   3.374
54388W        W26703  26.021  22.827  10.581
54389W        W26704  18.995  38.024   1.848
54390W        W26705  36.116   6.493   0.527
54391W        W26706  19.982  11.883   4.253
54392W        W26707  23.964  31.390  11.661
54393W        W26708  13.730  18.824  14.603
54394W        W26709  12.822  29.827   2.624
54395W        W26710   9.335  24.877   1.316
54396W        W26711  30.404  39.514  12.457
54397W        W26712   3.410  41.462  12.092
54398W        W26713   9.689  27.471   0.535
54399W        W26714  22.501  38.494   2.335
54400W        W26715   6.428  23.665   3.241
54401W        W26716  44.850  28.413  14.810
54402W        W26717  19.476  44.095   0.308
54403W        W26718  27.325   2.269  14.012
54404W        W26719  25.954   4.917   2.754
54405W        W26720  23.032  27.147  13.409
54406W        W26721  40.535  14.760   4.148
54407W        W26722  18.247  22.227  14.836
54408W        W26723   4.365  37.105  14.282
54409W        W26724  33.604  28.164   4.796
54410W        W26725  24.011  36.277   0.299
54411W        W26726  27.646  25.085   4.548
54412W        W26727   8.354  36.063   4.400
54413W        W26728  13.695   8.084   4.399
54414W        W26729  11.848  12.672  14.780
54415W        W26730   2.813  39.030  14.568
54416W        W26731  15.773  42.060   0.893
54417W        W26732  28.616  33.903  13.175
54418W        W26733  22.645  35.854  14.807
54419W        W26734  21.008  42.454  14.473
54420W        W26735  43.250   5.007  14.957
54421W        W26736  31.576  40.486  13.796
54422W        W26737  28.018  37.013  11.179
54423W        W26738  40.476  11.273   2.376
54424W        W26739  22.753  28.721   1.375
54425W        W26740  24.495  18.156  10.515
54426W        W26741  32.904  40.680  14.927
54427W        W26742  18.229  27.505  14.763
54428W        W26743  30.365  18.805  13.531
54429W        W26744  28.191  18.509   5.039
54430W        W26745  40.062  11.246  12.156
54431W        W26746  28.659   8.395   0.916
54432W        W26747  22.989   8.633   3.761
54433W        W26748   7.886   3.392  12.953
54434W        W26749  25.355   0.362   3.012
54435W        W26750  13.431  21.725  14.608
54436W        W26751  27.425  10.339  14.934
54437W        W26752  30.172   7.091   2.255
54438W        W26753  16.826  34.885   0.033
54439W        W26754  42.837  41.105  10.597
54440W        W26755  33.829  14.226   0.514
54441W        W26756   6.902   5.447   2.418
54442W        W26757  43.196  13.721  11.470
54443W        W26758   1.405  44.404   1.446
54444W        W26759   5.271  16.488  12.929
54445W        W26760  20.403  20.282  14.506
54446W        W26761  44.902  30.683  11.951
54447W        W26762   6.674  42.535   1.985
54448W        W26763  16.782   8.083  11.965
54449W        W26764  21.540  29.053   3.655
54450W        W26765  10.519  39.966   2.892
54451W        W26766   7.499  25.248   4.174
54452W        W26767   7.221   7.722  12.387
54453W        W26768  11.541  19.089  10.105
54454W        W26769  28.873   3.246   1.882
54455W        W26770  26.676   1.848  12.932
54456W        W26771  16.367  40.824   4.757
54457W        W26772  32.014  18.034  12.551
54458W        W26773  31.010  15.128  11.024
54459W        W26774  12.914  14.308  13.349
54460W        W26775  18.634  13.299   3.672
54461W        W26776  40.892  41.866  14.737
54462W        W26777  16.799  40.622  14.300
54463W        W26778  41.920  42.538   0.990
54464W        W26779  32.445  13.535  13.391
54465W        W26780  10.291  35.861  13.329
54466W        W26781  43.427  42.086   3.223
54467W        W26782  27.023  42.874  12.044
54468W        W26783  35.275  17.738  12.812
54469W        W26784  30.104  30.048   0.001
54470W        W26785   7.348  18.829  11.326
54471W        W26786  13.789   1.464  14.924
54472W        W26787  17.490   8.579  12.401
54473W        W26788  34.348  33.477   1.368
54474W        W26789  12.270   8.234  10.636
54475W        W26790   1.653  32.317   3.709
54476W        W26791  24.380   3.748   2.690
54477W        W26792  18.550   1.326  11.135
54478W        W26793  15.869  40.348   0.839
54479W        W26794  39.749   3.235   1.366
54480W        W26795  30.567  41.481   4.198
54481W        W26796  31.521  12.899  12.925
54482W        W26797  15.728  29.739   5.637
54483W        W26798  22.054   7.538  12.112
54484W        W26799   5.274  30.424  13.536
54485W        W26800  32.581  13.873   2.652
54486W        W26801  40.056  39.795   4.683
54487W        W26802  25.251  11.575   3.269
54488W        W26803  13.043  44.384  12.388
54489W        W26804  22.968  39.285  10.240
54490W        W26805  16.015   1.085  12.484
54491W        W26806  29.123  32.916   9.723
54492W        W26807  25.707   4.799   0.583
54493W        W26808  34.349  18.717  10.993
54494W        W26809   0.244  34.399   3.976
54495W        W26810  18.047  26.967   4.056
54496W        W26811  13.771  39.476  13.795
54497W        W26812  41.769  36.917   3.703
54498W        W26813  29.662  25.622  14.833
54499W        W26814  17.109  24.265   1.661
54500W        W26815  43.943  24.711  14.902
54501W        W26816  17.706  22.501   3.339
54502W        W26817  27.806  37.868  10.890
54503W        W26818  38.288  29.106   4.985
54504W        W26819   8.437  25.581   4.173
54505W        W26820   1.516  39.537  14.881
54506W        W26821   1.248   7.748   3.203
54507W        W26822  31.010  27.629   2.193
54508W        W26823  25.115  15.915  13.002
54509W        W26824   8.516  43.012   2.756
54510W        W26825  43.922  28.517   2.500
54511W        W26826   6.962  20.030  14.115
54512W        W26827  30.094  13.900  13.110
54513W        W26828   1.897  28.166   3.956
54514W        W26829   5.092  37.690   1.771
54515W        W26830  22.205  21.617   1.688
54516W        W26831  11.334   6.331  13.635
54517W        W26832  11.119  25.439   1.452
54518W        W26833  13.478   2.255   4.195
54519W        W26834  40.463  39.987   0.889
54520W        W26835  11.709  22.963   0.009
54521W        W26836  36.490  12.103  13.476
54522W        W26837  40.386  13.172  11.074
54523W        W26838  21.473  12.259   3.718
54524W        W26839   6.181   9.444   2.296
54525W        W26840  12.677   5.674  11.917
54526W        W26841  41.561   2.822   4.101
54527W        W26842  10.021  26.577   3.111
54528W        W26843  36.540  31.338  10.500
54529W        W26844  10.061   1.188  11.200
54530W        W26845  13.457   9.702   1.238
54531W        W26846  30.933  39.853   0.317
54532W        W26847   7.322  28.443  11.894
54533W        W26848  13.212  27.918   0.790
54534W        W26849  31.371  15.862  12.944
54535W        W26850  16.665  44.704   4.653
54536W        W26851   2.185  12.260  11.674
54537W        W26852   7.863  13.416  11.980
54538W        W26853  39.505  16.274  14.353
54539W        W26854  23.030  43.954   0.797
54540W        W26855  13.290  39.045   2.305
54541W        W26856  17.270  40.611  13.331
54542W        W26857  30.416   8.684   1.355
54543W        W26858   8.896  22.424  14.765
54544W        W26859  16.890   7.660   3.634
54545W        W26860  16.106  36.823   2.379
54546W        W26861  20.153  15.146  14.088
54547W        W26862  28.984  10.748   4.797
54548W        W26863   7.829  10.238   2.648
54549W        W26864   9.378  43.950   1.396
54550W        W26865  26.222   8.787   2.247
54551W        W26866  29.116  20.639  10.717
54552W        W26867  16.581   3.784   4.124
54553W        W26868  13.699  20.600   0.816
54554W        W26869  13.032  23.448  12.530
54555W        W26870   9.201  33.402  13.360
54556W        W26871  39.270  16.013   2.777
54557W        W26872   3.251  20.199   3.084
54558W        W26873  20.424  15.884   3.657
54559W        W26874  17.476  12.164  13.947
54560W        W26875  20.694   2.244   1.162
54561W        W26876   5.967   9.483   0.238
54562W        W26877   7.722  44.798  13.502
54563W        W26878   1.703  17.721   1.780
54564W        W26879  33.930   3.612   4.567
54565W        W26880  40.556  20.659  13.547
54566W        W26881   0.536  30.248  14.913
54567W        W26882  19.688  14.735   1.043
54568W        W26883  20.146  36.403   0.035
54569W        W26884  22.882  42.488  12.045
54570W        W26885   4.599   6.134   0.418
54571W        W26886  37.216  16.613  11.439
54572W        W26887  27.894   5.923  14.866
54573W        W26888  22.803  29.075   4.860
54574W        W26889  15.119  31.145  13.393
54575W        W26890  39.010  22.643  10.140
54576W        W26891  36.534  20.759   4.026
54577W        W26892   7.671   5.374  14.310
54578W        W26893  16.459   8.744  12.479
54579W        W26894   9.543  44.444  14.270
54580W        W26895  24.304   9.780  12.713
54581W        W26896  11.138  44.420   0.947
54582W        W26897  42.659  13.193  10.603
54583W        W26898   9.257  24.409  11.831
54584W        W26899   6.006   4.959   2.400
54585W        W26900   4.594  19.538   2.397
54586W        W26901   0.878  12.217   4.914
54587W        W26902  35.929  22.557   4.523
54588W        W26903  17.175  37.560  12.981
54589W        W26904  10.231  35.537   1.728
54590W        W26905   1.090  13.114  11.455
54591W        W26906  22.674  30.756  12.482
54592W        W26907  16.827  16.720  11.942
54593W        W26908  31.463  25.818   2.618
54594W        W26909  42.119   6.389   1.398
54595W        W26910   1.091  12.359   2.687
54596W        W26911  26.993  22.727   0.991
54597W        W26912  43.719  13.321  14.380
54598W        W26913   3.810  22.544   4.087
54599W        W26914  25.438  40.468   0.351
54600W        W26915   6.461  22.730  13.905
54601W        W26916  40.198  41.614  10.269
54602W        W26917   7.909   3.682  14.564
54603W        W26918  18.194  38.162  12.439
54604W        W26919  11.899  14.630   4.829
54605W        W26920  11.323  24.627  11.120
54606W        W26921   8.691   3.725  14.903
54607W        W26922  16.834  44.446   3.197
54608W        W26923  12.784   6.428   3.855
54609W        W26924  41.029  34.072   4.193
54610W        W26925  17.064  18.648   1.736
54611W        W26926  15.177  26.617   1.370
54612W        W26927   1.489  20.979  10.177
54613W        W26928   4.289  25.553   0.815
54614W        W26929  14.576  32.289   3.253
54615W        W26930  29.105  31.985   0.422
54616W        W26931   9.279   6.703   1.969
54617W        W26932  33.870   4.071   3.272
54618W        W26933  19.058  13.769  11.093
54619W        W26934  22.794  13.714   1.180
54620W        W26935  40.965  36.335   2.296
54621W        W26936  15.107  22.243  14.985
54622W        W26937  21.644   9.466   1.936
54623W        W26938  26.575  36.185  12.821
54624W        W26939   1.946  27.608  12.972
54625W        W26940  31.970  22.214  10.182
54626W        W26941  38.127  20.769  10.622
54627W        W26942  27.599  43.256  11.524
54628W        W26943  32.432  16.755  13.574
54629W        W26944  17.306   1.088   9.866
54630W        W26945  19.808   7.536  10.263
54631W        W26946  40.517   3.269  13.724
54632W        W26947  44.202  41.634   4.500
54633W        W26948  20.081   2.778  14.567
54634W        W26949  43.437  12.402   0.109
54635W        W26950  44.759   9.850  13.870
54636W        W26951  20.810  28.105  12.098
54637W        W26952  31.994   0.941  14.770
54638W        W26953  23.155  13.830   4.821
54639W        W26954  21.995  24.591   0.482
54640W        W26955  11.996  20.585   3.143
54641W        W26956   1.479  19.531   1.240
54642W        W26957  16.103  30.425  10.391
54643W        W26958  26.520  21.417   0.731
54644W        W26959  42.896  27.181  12.290
54645W        W26960  15.756   3.508   3.266
54646W        W26961   7.820  16.355  11.765
54647W        W26962  33.502  21.029   2.025
54648W        W26963  17.378  16.914   5.082
54649W        W26964  40.629  42.410   1.875
54650W        W26965  14.324  14.822  11.043
54651W        W26966   4.924  31.438   2.809
54652W        W26967  24.578  44.811  14.463
54653W        W26968  40.909  27.901   0.344
54654W        W26969  39.550  31.037   3.676
54655W        W26970  20.562  19.290  11.980
54656W        W26971   5.957  40.694   0.500
54657W        W26972  41.088  18.159   2.625
54658W        W26973  30.509  22.952  11.960
54659W        W26974  39.999   0.716  10.720
54660W        W26975  17.231  32.902  11.944
54661W        W26976  37.981  44.529   4.128
54662W        W26977  38.315  41.500   0.434
54663W        W26978  37.959  18.368  12.901
54664W        W26979  34.099   1.109   4.637
54665W        W26980  22.164  34.540  13.821
54666W        W26981   1.292  15.842  13.832
54667W        W26982   2.904   8.345  11.833
54668W        W26983  41.887  43.358  13.333
54669W        W26984  31.945   4.685  13.356
54670W        W26985  16.857  18.808  11.058
54671W        W26986  36.561  44.921   2.720
54672W        W26987  14.812  36.557   4.674
54673W        W26988  18.637  31.166  11.839
54674W        W26989  26.182  25.724  14.030
54675W        W26990  24.236  28.488  13.492
54676W        W26991  13.865  26.129  12.133
54677W        W26992  32.870  13.553   2.908
54678W        W26993  23.143  34.808  14.282
54679W        W26994   9.323  22.363  12.109
54680W        W26995   0.323  26.106  14.271
54681W        W26996  10.445  12.903   1.809
54682W        W26997   7.217  12.824  13.681
54683W        W26998   5.103  14.795  13.096
54684W        W26999  22.548  15.436   9.997
54685W        W27000   2.023   6.358   0.787
54686W        W27001  35.837  37.064  10.752
54687W        W27002  40.353  28.714  12.440
54688W        W27003  40.932  15.596  13.956
54689W        W27004  37.320  35.909  10.719
54690W        W27005  42.462  23.417   3.615
54691W        W27006   9.319  38.527  13.398
54692W        W27007   6.753   3.356   2.407
54693W        W27008  26.714  15.490   0.379
54694W        W27009   2.850  27.821  12.497
54695W        W27010  41.954  14.018  10.017
54696W        W27011   7.908  17.673  13.990
54697W        W27012  30.845  16.553  12.452
54698W        W27013  20.590   8.644  14.701
54699W        W27014  18.825  41.833  14.011
54700W        W27015  41.331  13.301   1.861
54701W        W27016  41.950  44.008   3.274
54702W        W27017  29.355  26.998   5.021
54703W        W27018  11.214  27.360   2.870
54704W        W27019  22.495  31.622  14.262
54705W        W27020  28.592  31.636   3.763
54706W        W27021  32.510  25.508   3.366
54707W        W27022  13.067  16.766   0.281
54708W        W27023  18.304  10.905   9.732
54709W        W27024   3.188  28.674   4.971
54710W        W27025  35.923   8.224  11.194
54711W        W27026  16.148  38.002   2.113
54712W        W27027  22.431  39.497   0.771
54713W        W27028  28.629  18.660  13.994
54714W        W27029  42.807  25.285  14.851
54715W        W27030   8.765  31.162  11.159
54716W        W27031  31.839   9.877   3.396
54717W        W27032  40.444  24.990  11.154
54718W        W27033  26.168  30.626   3.913
54719W        W27034  28.078  37.129   0.019
54720W        W27035   4.401  35.473   4.288
54721W        W27036  27.679   2.219  14.393
54722W        W27037  20.204  34.254   0.783
54723W        W27038  37.522  19.570  10.794
54724W        W27039   7.927  37.493   1.385
54725W        W27040  43.056  18.668  11.122
54726W        W27041  32.479  22.772  14.996
54727W        W27042  10.801  13.402   4.456
54728W        W27043  20.228  11.241   3.103
54729W        W27044  30.952  17.622  11.173
54730W        W27045  31.154  23.173   4.207
54731W        W27046  43.704  43.078  14.522
54732W        W27047  16.572   9.222   0.580
54733W        W27048   8.469  33.923   2.747
54734W        W27049  31.145   2.533  14.381
54735W        W27050  17.533  14.428   9.914
54736W        W27051  41.245   5.127  11.289
54737W        W27052  25.220  38.037  13.539
54738W        W27053  28.650  40.338  11.034
54739W        W27054  37.383   6.941   0.796
54740W        W27055  32.114  10.162   2.199
54741W        W27056  29.564  17.168  11.544
54742W        W27057   7.946  28.490   3.670
54743W        W27058  38.673  29.455   4.905
54744W        W27059  38.327  43.264  13.105
54745W        W27060   6.122  17.261   3.456
54746W        W27061  34.296   7.874   3.607
54747W        W27062   4.431  11.325   2.374
54748W        W27063   5.232   6.477  12.417
54749W        W27064  33.595   6.844   0.438
54750W        W27065  13.533  22.204  14.329
54751W        W27066  25.075   6.955   4.280
54752W        W27067  33.311  32.963   4.657
54753W        W27068   5.141   9.912  11.213
54754W        W27069  16.284  41.259  12.003
54755W        W27070  32.792   1.873   4.708
54756W        W27071  17.689  27.764  13.791
54757W        W27072  37.382  29.762  14.912
54758W        W27073  35.976   0.960  13.414
54759W        W27074   1.019  26.554  13.992
54760W        W27075   4.799  20.110   2.548
54761W        W27076  34.496  21.703  13.255
54762W        W27077   2.707  39.446   0.507
54763W        W27078  29.229  14.908  11.974
54764W        W27079  40.370  38.443   1.742
54765W        W27080  40.019  22.576  10.722
54766W        W27081   7.737   7.346   4.074
54767W        W27082   5.855  25.592   4.173
54768W        W27083  33.858   0.201   3.494
54769W        W27084  41.674  44.393   3.071
54770W        W27085   4.199  42.268   3.357
54771W        W27086   5.768  32.808  11.700
54772W        W27087  24.687  34.734   3.820
54773W        W27088  35.056  37.406  11.104
54774W        W27089  15.230  23.153   4.512
54775W        W27090  29.241  42.982  10.699
54776W        W27091  20.408  43.914  13.317
54777W        W27092  23.682   9.746   2.306
54778W        W27093  40.382  36.144   3.366
54779W        W27094  30.804  39.296   0.221
54780W        W27095   5.261  15.853   3.180
54781W        W27096  36.362  18.923   4.099
54782W        W27097  30.696   4.982   3.676
54783W        W27098  44.488   8.719  11.036
54784W        W27099  11.597  25.082  14.096
54785W        W27100   2.367  29.431   3.656
54786W        W27101   8.019  42.471   0.691
54787W        W27102  42.257  26.129  13.919
54788W        W27103  32.673  27.591  14.351
54789W        W27104  44.257  28.055  14.234
54790W        W27105  16.313  33.322  13.549
54791W        W27106  42.176   1.767  13.924
54792W        W27107  16.137   2.859  14.003
54793W        W27108  29.471  33.658   1.740
54794W        W27109  37.831   4.148  14.521
54795W        W27110  38.786   1.052  13.012
54796W        W27111  36.999  39.240   4.211
54797W        W27112  33.681  24.484   1.438
54798W        W27113  15.206  40.108  14.012
54799W        W27114  13.041  34.966   0.804
54800W        W27115   3.256  23.889  10.743
54801W        W27116   2.315  29.441  13.896
54802W        W27117   6.333  33.651  13.329
54803W        W27118  19.575  27.254  10.746
54804W        W27119   5.134   1.018   2.898
54805W        W27120  31.760  15.662   2.769
54806W        W27121  31.934  42.994   4.085
54807W        W27122  22.810  33.434  13.306
54808W        W27123  10.703  19.310   2.202
54809W        W27124  37.535  44.559   3.821
54810W        W27125  15.300  25.479   0.555
54811W        W27126  44.821  12.718   5.489
54812W        W27127   3.873  32.545  10.846
54813W        W27128  40.913  38.089   3.834
54814W        W27129  15.932  38.983  13.038
54815W        W27130  24.705   1.948   1.526
54816W        W27131   6.746  33.499  12.053
54817W        W27132   5.422  38.898   0.605
54818W        W27133  34.435  32.165   1.710
54819W        W27134  11.266  18.015   0.458
54820W        W27135  10.749  38.451   3.094
54821W        W27136   9.848   9.435   0.945
54822W        W27137   3.225  15.632  11.624
54823W        W27138   5.924  18.634   0.991
54824W        W27139  43.036  43.105   3.711
54825W        W27140  20.803   9.382   3.222
54826W        W27141  15.483  26.876   2.657
54827W        W27142  43.130  44.051   1.742
54828W        W27143  42.634  43.426   3.638
54829W        W27144   0.366  15.204   3.392
54830W        W27145  35.555  10.905   2.130
54831W        W27146   1.413  10.900   2.750
54832W        W27147  20.868  18.173  12.465
54833W        W27148   0.185   4.820   3.921
54834W        W27149   9.951  10.711  11.371
54835W        W27150  12.831   9.288   4.437
54836W        W27151  18.605  10.241  11.997
54837W        W27152  32.230  37.724   5.137
54838W        W27153  41.391  36.440   1.234
54839W        W27154  18.515   5.444  11.107
54840W        W27155   4.380   8.867   2.400
54841W        W27156   6.566  32.601  11.597
54842W        W27157  38.021  25.158   1.264
54843W        W27158  44.673   4.579  14.852
54844W        W27159  39.194  35.577  13.013
54845W        W27160  18.677  25.982  14.299
54846W        W27161  36.151  42.942  14.819
54847W        W27162  44.505   0.853  11.423
54848W        W27163  35.801  11.681  11.689
54849W        W27164  32.144   3.531  11.562
54850W        W27165  12.779  36.281   2.853
54851W        W27166  22.996  30.775  10.461
54852W        W27167   0.384   5.512   4.255
54853W        W27168  18.953  20.735  11.809
54854W        W27169  18.516  43.809  14.643
54855W        W27170  19.005  29.282  14.457
54856W        W27171  17.052  29.803  14.272
54857W        W27172  21.408  42.265   4.306
54858W        W27173  23.081  16.146   3.090
54859W        W27174   6.293  27.893   0.511
54860W        W27175  42.418  43.404  14.457
54861W        W27176  21.293  10.791  13.427
54862W        W27177  23.454  14.845   3.318
54863W        W27178  41.025  28.472  12.027
54864W        W27179  23.705  43.746   1.365
54865W        W27180  37.559  41.548   0.935
54866W        W27181  12.133  36.548   2.823
54867W        W27182  35.798  14.745  11.605
54868W        W27183  19.650  32.428   4.713
54869W        W27184  24.156  36.460   1.392
54870W        W27185  24.206  12.177  14.776
54871W        W27186  39.924  28.942   0.315
54872W        W27187  21.083  35.967  14.553
54873W        W27188  14.170  37.591  10.480
54874W        W27189   0.013  29.930  13.550
54875W        W27190  27.185   2.927  10.808
54876W        W27191  11.960  27.128  14.249
54877W        W27192  31.650  37.073  10.669
54878W        W27193  40.563  36.507   4.623
54879W        W27194  22.187   4.244   1.860
54880W        W27195  38.947   2.439  12.406
54881W        W27196   9.766  25.276  11.536
54882W        W27197   4.893  32.173  12.874
54883W        W27198  18.575  19.127   1.901
54884W        W27199  10.751  10.920   2.218
54885W        W27200  41.032  30.903   0.955
54886W        W27201  19.839  17.163   0.803
54887W        W27202  32.067  30.557  14.563
54888W        W27203  41.815  30.332  11.228
54889W        W27204  42.004  20.781   0.987
54890W        W27205  28.548   1.208  12.323
54891W        W27206  29.658  33.006   1.211
54892W        W27207  28.963  20.183  10.479
54893W        W27208   6.809  37.324  14.290
54894W        W27209   9.518  43.111   2.677
54895W        W27210   1.451  17.500  11.221
54896W        W27211   5.803  10.429   0.509
54897W        W27212  30.809  28.909   4.119
54898W        W27213  16.391  23.703  11.011
54899W        W27214  34.493  25.926   0.011
54900W        W27215  43.316  23.082   3.616
54901W        W27216  31.396  25.762  11.991
54902W        W27217  17.576   8.342   5.000
54903W        W27218  18.086  21.988   4.578
54904W        W27219  24.594  26.768  14.448
54905W        W27220   0.444  16.958   0.080
54906W        W27221  27.624  21.491  12.369
54907W        W27222  38.991   9.559   4.572
54908W        W27223  32.663  43.142   3.525
54909W        W27224   4.660   6.146   4.140
54910W        W27225  34.256   8.637   2.153
54911W        W27226  36.830  20.799   0.312
54912W        W27227  44.761  13.289  14.548
54913W        W27228   3.178  36.903   4.041
54914W        W27229  16.812  23.933   3.449
54915W        W27230  36.626  41.045  11.521
54916W        W27231  29.989   4.315  13.530
54917W        W27232   9.218   2.219  11.926
54918W        W27233  11.417   1.922  14.357
54919W        W27234   2.655   5.449   1.807
54920W        W27235  11.818   2.226   3.031
54921W        W27236  43.985   1.295   0.823
54922W        W27237   3.230  44.561  11.520
54923W        W27238  23.904  30.937  11.090
54924W        W27239  42.788  24.651   1.252
54925W        W27240   4.365  32.986  10.892
54926W        W27241   4.144  26.116   1.022
54927W        W27242   3.296  39.045   2.564
54928W        W27243  33.916  17.191  13.194
54929W        W27244  13.524  21.770   2.756
54930W        W27245  43.270  32.439  12.027
54931W        W27246  15.736   0.994  10.476
54932W        W27247  37.508  11.549   4.322
54933W        W27248  16.382  36.937  14.460
54934W        W27249  40.357   3.201  10.680
54935W        W27250  20.490  42.453   4.469
54936W        W27251  15.790  11.881  12.903
54937W        W27252  40.753  44.786   3.130
54938W        W27253  15.064   5.909   0.897
54939W        W27254  33.040  43.315   3.852
54940W        W27255  18.130  17.200   0.700
54941W        W27256  19.057  23.057   4.475
54942W        W27257  30.655  23.146  13.344
54943W        W27258   5.527  34.715  11.296
54944W        W27259  40.867  14.200   0.921
54945W        W27260  37.821  18.347   4.481
54946W        W27261  40.815  19.304   0.541
54947W        W27262  14.300  39.111   0.278
54948W        W27263  10.076  26.906  14.939
54949W        W27264  35.560  21.935   0.428
54950W        W27265  23.025  15.457  10.166
54951W        W27266  11.261   3.556  13.857
54952W        W27267   8.616  13.680  13.095
54953W        W27268   3.815  29.139  10.834
54954W        W27269   8.249  38.406  12.270
54955W        W27270  42.868   0.760  13.437
54956W        W27271  37.465  10.428  12.514
54957W        W27272  38.127   4.246  14.927
54958W        W27273  31.976  19.821  13.767
54959W        W27274   4.341  44.517   0.345
54960W        W27275  26.733   8.799   3.166
54961W        W27276  44.029  42.802  12.140
54962W        W27277  41.409  39.329  13.373
54963W        W27278  18.080  11.036  11.153
54964W        W27279  37.020   1.179  14.030
54965W        W27280   4.364  18.711   0.066
54966W        W27281  15.508  11.781  14.278
54967W        W27282  27.023   5.429  11.865
54968W        W27283   4.798  32.569  12.577
54969W        W27284  17.206  36.860  12.522
54970W        W27285  19.277   0.499   1.202
54971W        W27286  23.222  19.216   2.673
54972W        W27287  30.500  28.443  13.448
54973W        W27288   0.756  14.813  13.261
54974W        W27289   8.254  15.290  14.271
54975W        W27290   6.978  11.111   5.269
54976W        W27291  20.023  20.207   2.223
54977W        W27292  40.525  24.567  12.842
54978W        W27293  17.330  11.791   4.707
54979W        W27294  40.091  25.101   4.260
54980W        W27295  39.636  38.929  10.649
54981W        W27296  17.239  40.801  14.900
54982W        W27297  18.196   0.228   2.302
54983W        W27298   2.349  32.347   2.771
54984W        W27299  15.651  28.894  13.128
54985W        W27300  18.798  22.054  11.122
54986W        W27301  10.060  20.654   4.830
54987W        W27302  28.554  39.094   3.172
54988W        W27303  11.126  14.339  10.588
54989W        W27304   1.394  10.160   4.902
54990W        W27305   6.609  17.410   3.675
54991W        W27306  30.385  33.642  12.010
54992W        W27307  25.051  15.137   1.847
54993W        W27308  21.274  18.616   2.373
54994W        W27309  25.462  38.371   1.772
54995W        W27310  26.132   5.137   3.199
54996W        W27311  32.164  19.731   3.613
54997W        W27312  34.309   6.804  14.920
54998W        W27313  12.567   7.899  14.547
54999W        W27314  26.031  21.970   2.286
55000W        W27315  19.091  18.184  11.105
55001W        W27316  43.885  37.381   3.218
55002W        W27317  14.867  39.815  11.113
55003W        W27318  23.153  42.597   3.162
55004W        W27319  34.846  12.765  10.412
55005W        W27320   2.368  24.706  12.837
55006W        W27321  27.420  33.419   2.123
55007W        W27322   7.973  28.959  12.206
55008W        W27323   4.003  16.239  14.281
55009W        W27324  28.129  10.535  11.503
55010W        W27325  18.500  28.468   1.130
55011W        W27326   2.795  44.083   3.744
55012W        W27327  32.936  42.380  10.727
55013W        W27328  37.235  41.381  10.774
55014W        W27329  12.146  16.117  11.745
55015W        W27330   4.772  16.217  13.895
55016W        W27331  27.639  43.057   4.535
55017W        W27332   1.839  22.303   2.734
55018W        W27333   0.693  41.539  14.055
55019W        W27334  12.330  41.120   4.145
55020W        W27335  44.032  23.773  13.955
55021W        W27336  17.013  17.709  14.826
55022W        W27337   6.330  18.327   5.131
55023W        W27338  37.123   5.214   1.956
55024W        W27339  27.607  31.943   5.299
55025W        W27340  35.409  34.260  11.497
55026W        W27341  14.355  10.728  13.348
55027W        W27342  18.298   8.329   3.775
55028W        W27343  12.370  17.828  13.993
55029W        W27344  21.184  18.555   3.245
55030W        W27345  29.020  17.117  11.639
55031W        W27346  24.685   0.522  13.685
55032W        W27347   8.408  13.345   0.752
55033W        W27348  10.217   6.899   4.151
55034W        W27349  42.777  32.334   0.461
55035W        W27350  20.941  36.484   2.602
55036W        W27351  27.758   8.988   1.836
55037W        W27352  25.172  34.939   0.470
55038W        W27353  37.479  11.411   0.745
55039W        W27354   0.990   3.122  12.486
55040W        W27355  27.348  31.611  10.802
55041W        W27356  20.612  27.818   3.860
55042W        W27357  44.236   9.124  12.121
55043W        W27358  23.276   2.976  10.781
55044W        W27359  16.774  23.445   3.254
55045W        W27360  38.717  12.536   9.830
55046W        W27361   1.674  44.396  12.225
55047W        W27362  44.273   7.907   4.399
55048W        W27363  42.222  33.396  11.140
55049W        W27364  27.255  38.460  14.803
55050W        W27365   6.926  26.907  11.549
55051W        W27366  29.944   0.555  12.057
55052W        W27367  18.900  31.126   0.786
55053W        W27368  16.992  26.534   4.130
55054W        W27369  25.397  10.613  12.378
55055W        W27370  19.737   4.634   3.799
55056W        W27371   5.165  31.106   2.301
55057W        W27372  29.261  41.817  12.023
55058W        W27373  28.613   0.396  13.326
55059W        W27374  35.145  28.120   4.670
55060W        W27375  27.304  22.805   1.407
55061W        W27376  39.076  33.393  10.920
55062W        W27377  28.008  37.198   1.956
55063W        W27378  20.704  34.562  12.309
55064W        W27379  12.042  13.748   3.888
55065W        W27380   5.928   0.347   3.831
55066W        W27381  41.264  25.123  10.711
55067W        W27382  42.016   0.824   3.234
55068W        W27383   6.660   0.879   0.356
55069W        W27384  39.409  32.220   2.362
55070W        W27385  36.864  28.480  14.772
55071W        W27386  38.152  14.721  13.028
55072W        W27387  30.020  24.366  14.670
55073W        W27388  10.722  27.380  10.628
55074W        W27389  42.699  42.461   0.974
55075W        W27390   6.996  42.916   2.119
55076W        W27391  37.588  41.874  11.861
55077W        W27392   7.656  24.099   3.237
55078W        W27393  40.513  23.345  10.801
55079W        W27394  29.636  42.510  11.677
55080W        W27395   0.921  13.192   1.861
55081W        W27396  43.775  37.817   4.142
55082W        W27397  12.635  23.061  14.722
55083W        W27398  25.284  38.465   0.221
55084W        W27399  42.744   3.412   2.300
55085W        W27400  29.642  44.491  12.233
55086W        W27401  36.383  18.974   1.681
55087W        W27402  24.783   2.014  11.926
55088W        W27403   0.551  25.493   0.273
55089W        W27404  18.803   1.852   2.693
55090W        W27405   7.684  20.761   0.899
55091W        W27406   1.644   5.756   3.046
55092W        W27407   5.655  11.299   3.285
55093W        W27408  28.202  33.098   1.457
55094W        W27409   0.354  11.048   1.194
55095W        W27410  27.122  17.467   0.863
55096W        W27411  11.014  23.992   3.121
55097W        W27412  15.987  43.381   0.499
55098W        W27413  16.320  33.066   3.075
55099W        W27414  40.005   6.005  12.622
55100W        W27415   0.877  19.204   1.035
55101W        W27416   2.169  14.874   4.401
55102W        W27417  19.690   7.935   0.904
55103W        W27418  15.608  12.377  12.024
55104W        W27419  42.007  44.997   2.248
55105W        W27420  12.144  23.482  11.027
55106W        W27421   2.383  25.276   3.771
55107W        W27422  18.753  12.642   1.425
55108W        W27423  15.155  23.770  13.971
55109W        W27424  13.194   5.365  10.925
55110W        W27425  34.392   5.391   4.104
55111W        W27426  31.587  11.755  12.944
55112W        W27427   6.204  31.085  12.448
55113W        W27428  29.158  20.157   2.742
55114W        W27429  41.248  19.236  14.498
55115W        W27430  39.287  25.047  13.353
55116W        W27431  32.587   5.541  14.403
55117W        W27432  23.671   0.767   3.202
55118W        W27433  15.516  33.058   0.831
55119W        W27434  15.967   7.825  13.112
55120W        W27435  14.143  37.519   1.382
55121W        W27436  18.726  29.691  13.785
55122W        W27437  13.276  32.717  14.246
55123W        W27438  34.432   8.782  10.373
55124W        W27439  17.616  21.028  10.392
55125W        W27440  32.784  38.973  13.541
55126W        W27441  27.976  18.089   1.908
55127W        W27442  29.413  10.156  13.578
55128W        W27443  30.296   5.901  14.959
55129W        W27444  36.368   6.748   2.224
55130W        W27445  33.896  31.731  12.533
55131W        W27446   7.656  25.441  12.066
55132W        W27447  37.641  30.939  13.043
55133W        W27448  12.740  25.947   3.684
55134W        W27449  28.462  28.305   1.905
55135W        W27450  33.636   9.953   4.676
55136W        W27451   8.222  40.945  12.790
55137W        W27452   4.171  24.592  13.496
55138W        W27453   3.711   5.831  13.623
55139W        W27454  21.229  38.918  11.469
55140W        W27455  37.928  39.955   4.729
55141W        W27456  21.733  24.161   3.994
55142W        W27457  11.125  24.943   1.319
55143W        W27458  30.144  26.081  13.880
55144W        W27459  37.745   5.779  13.786
55145W        W27460  38.237  19.646  14.475
55146W        W27461  19.105  20.198   3.096
55147W        W27462  20.214   8.531  10.714
55148W        W27463  23.618  28.842  10.713
55149W        W27464   3.311  26.215   4.072
55150W        W27465  32.527   5.697   1.868
55151W        W27466   0.963  15.153  11.749
55152W        W27467  13.262   1.690  13.349
55153W        W27468  20.410   1.952  10.345
55154W        W27469  13.321   5.947  14.384
55155W        W27470  18.088  18.563   0.941
55156W        W27471  32.930  42.469  14.328
55157W        W27472  13.158  42.918  14.564
55158W        W27473   3.510  17.228   0.244
55159W        W27474  33.074  33.829   0.749
55160W        W27475  11.723  18.457  14.357
55161W        W27476  38.359  25.398  11.079
55162W        W27477  27.000   5.479  14.393
55163W        W27478  23.560   6.582  11.073
55164W        W27479  10.321  32.041   4.928
55165W        W27480   5.486  32.277  11.697
55166W        W27481  27.276  21.776  14.403
55167W        W27482  37.880   0.301  12.567
55168W        W27483  27.649  39.776  12.505
55169W        W27484  34.411  35.407  12.573
55170W        W27485  25.650  30.318   2.383
55171W        W27486   2.021  12.285   3.776
55172W        W27487  27.032  14.312  14.889
55173W        W27488   2.630   5.825   3.239
55174W        W27489   7.236  18.347  11.146
55175W        W27490   0.306  27.959   1.270
55176W        W27491   4.781  44.314   1.829
55177W        W27492  36.987  39.398  14.946
55178W        W27493  29.377  38.793  10.812
55179W        W27494  18.528  11.741   3.349
55180W        W27495  33.653  22.712  12.966
55181W        W27496  33.107  23.117   4.813
55182W        W27497  15.851   0.458   1.904
55183W        W27498  21.585   5.217  11.572
55184W        W27499  23.670   0.687   0.806
55185W        W27500  42.997  26.235   3.233
55186W        W27501  13.306  23.432   1.347
55187W        W27502  26.378   6.377  13.719
55188W        W27503   2.350  23.449   4.541
55189W        W27504  13.775  19.575   1.761
55190W        W27505  43.514  40.558  12.538
55191W        W27506  32.249  12.138   0.444
55192W        W27507  29.520  34.888   2.088
55193W        W27508  42.596  43.177   3.183
55194W        W27509  14.637  44.526   3.909
55195W        W27510  22.595  30.155   0.186
55196W        W27511  12.113  34.612  12.584
55197W        W27512  11.198   5.679   1.346
55198W        W27513  34.861   4.142   4.129
55199W        W27514  13.750   7.735  12.580
55200W        W27515  11.362   6.419   3.370
55201W        W27516  44.965  43.540  10.481
55202W        W27517   3.017  30.761   2.807
55203W        W27518   4.517  31.450   0.359
55204W        W27519   1.186  38.611   2.787
55205W        W27520   0.631   2.537   1.573
55206W        W27521  44.982  25.140   2.199
55207W        W27522  17.636   3.015  14.951
55208W        W27523  16.339  27.928  10.660
55209W        W27524  17.813  43.752   1.945
55210W        W27525  30.531  28.085  14.972
55211W        W27526  11.159  13.259  12.197
55212W        W27527  27.935  29.458  13.928
55213W        W27528  15.607  44.969   3.205
55214W        W27529  31.852   5.786   1.695
55215W        W27530  24.755  19.578   4.580
55216W        W27531   2.308  13.166  11.716
55217W        W27532  36.811  35.881  10.755
55218W        W27533  31.051  27.147  11.844
55219W        W27534  30.914  11.750   0.430
55220W        W27535  35.764  26.194  14.267
55221W        W27536  38.966  32.983   4.080
55222W        W27537  16.147  31.798   1.178
55223W        W27538  44.709  30.979   3.896
55224W        W27539  43.034  20.676  11.105
55225W        W27540  28.452   2.273  11.012
55226W        W27541   9.721  35.862   0.326
55227W        W27542  15.375  36.823   0.189
55228W        W27543  40.399  43.793  14.936
55229W        W27544  24.138  31.407   3.258
55230W        W27545  33.919   8.160   2.148
55231W        W27546  22.955  26.598   0.812
55232W        W27547  25.515  30.496  13.108
55233W        W27548  18.838  23.308   1.770
55234W        W27549   4.779  16.259   4.515
55235W        W27550  28.951   4.872  12.496
55236W        W27551  24.998  21.628  10.108
55237W        W27552  18.931  41.580   0.835
55238W        W27553  32.209   5.849  13.804
55239W        W27554  35.837  34.479   1.817
55240W        W27555  34.086  28.163   0.588
55241W        W27556  30.497  16.378  13.907
55242W        W27557   7.878   0.503   3.913
55243W        W27558  18.735  23.851   3.721
55244W        W27559  44.096  25.822  14.292
55245W        W27560  20.126  24.317   0.761
55246W        W27561  24.565  10.435  13.265
55247W        W27562  11.755  14.164  13.962
55248W        W27563   9.453  43.292   4.064
55249W        W27564  38.421  31.956  14.782
55250W        W27565  14.715  33.262  14.378
55251W        W27566  30.618  39.082   4.331
55252W        W27567  20.662   6.005  12.212
55253W        W27568  11.207  32.124   0.130
55254W        W27569  35.946  29.909   2.754
55255W        W27570  32.700  30.018  12.349
55256W        W27571  32.986   9.740   2.775
55257W        W27572   7.878   9.210  13.877
55258W        W27573  13.058  13.124  11.122
55259W        W27574  10.225   1.591   1.238
55260W        W27575  23.404  10.898   3.279
55261W        W27576  26.002  41.992   3.571
55262W        W27577  10.185   5.191   4.700
55263W        W27578  17.973  11.818  14.918
55264W        W27579  30.675  17.237   3.181
55265W        W27580  22.678  33.940   0.252
55266W        W27581  15.886  44.282   1.839
55267W        W27582  24.540  10.182  12.445
55268W        W27583  24.712  30.310   0.593
55269W        W27584  10.145   0.725  14.300
55270W        W27585   7.933  31.378  11.555
55271W        W27586  24.690  17.144  13.463
55272W        W27587  30.454  25.519   3.238
55273W        W27588  30.751  30.991  12.078
55274W        W27589  41.862  31.018   3.239
55275W        W27590  25.019  40.541   4.177
55276W        W27591  39.926   5.747  11.578
55277W        W27592  12.369   4.941  10.377
55278W        W27593  30.251  41.312  10.966
55279W        W27594  11.243  14.866  12.024
55280W        W27595  20.659   2.156  12.111
55281W        W27596  38.387   6.002   0.873
55282W        W27597  24.685   4.218  13.601
55283W        W27598  19.650  25.896  11.134
55284W        W27599  33.852  29.578  14.357
55285W        W27600  19.042  21.107   4.159
55286W        W27601  38.019   7.743   3.921
55287W        W27602  37.829  28.315   4.137
55288W        W27603  38.978  33.840  10.630
55289W        W27604   0.761  30.127   4.744
55290W        W27605  40.576  31.831   5.037
55291W        W27606  44.841  31.666   1.014
55292W        W27607   4.224  37.311   4.631
55293W        W27608  38.052  38.847   3.313
55294W        W27609  44.801   4.164  12.493
55295W        W27610   1.296  27.000   0.269
55296W        W27611   1.971  18.522  14.976
55297W        W27612  11.950   4.945  10.791
55298W        W27613  12.446  14.788  10.817
55299W        W27614  14.545   8.163  14.897
55300W        W27615  37.952  40.228   3.800
55301W        W27616  29.676  16.781   0.295
55302W        W27617   3.085  31.005   1.134
55303W        W27618  43.867  20.527   3.676
55304W        W27619  36.863  18.831   4.218
55305W        W27620  21.601  34.963   4.828
55306W        W27621  13.589  37.856  13.875
55307W        W27622  28.198   3.667   2.246
55308W        W27623   7.835   6.276   0.565
55309W        W27624  21.317   1.788  13.895
55310W        W27625   6.232  35.361  11.026
55311W        W27626  12.141  22.624  14.362
55312W        W27627  33.466  38.386  10.669
55313W        W27628   6.300   5.639   4.789
55314W        W27629  34.730  19.540   3.552
55315W        W27630  20.060  43.696  12.015
55316W        W27631   3.795  15.636   3.437
55317W        W27632   3.877  40.474   2.163
55318W        W27633  16.259  16.117   4.372
55319W        W27634  17.162  33.276   2.760
55320W        W27635  12.597  33.259  13.323
55321W        W27636  26.339   8.354   4.059
55322W        W27637  24.216   6.200   3.609
55323W        W27638  43.876  32.576  12.576
55324W        W27639   1.901  22.090  11.997
55325W        W27640  17.589  36.940  11.556
55326W        W27641   1.041  22.139  11.929
55327W        W27642   8.904  37.355  14.348
55328W        W27643   6.300  14.265  10.020
55329W        W27644  41.129  28.700   0.400
55330W        W27645   4.087   0.818  11.668
55331W        W27646  43.321  11.874  11.300
55332W        W27647  28.524  33.617  10.696
55333W        W27648   6.269   3.238   3.675
55334W        W27649  40.053  34.977  14.764
55335W        W27650  17.170   1.461  14.453
55336W        W27651  37.501   4.803  11.358
55337W        W27652  30.812  42.852  11.537
55338W        W27653   9.261  44.063   2.931
55339W        W27654   2.066  18.565   3.707
55340W        W27655  17.136  23.754   1.753
55341W        W27656  23.511  21.053  14.907
55342W        W27657  43.937   0.998  10.665
55343W        W27658  17.138  25.471   2.663
55344W        W27659   7.905  42.009  13.453
55345W        W27660  28.075  28.719   3.185
55346W        W27661  21.599  43.294   4.390
55347W        W27662  26.200  17.477  13.967
55348W        W27663  10.943   8.312   4.963
55349W        W27664  38.919  31.259  11.458
55350W        W27665   9.075  16.646  10.973
55351W        W27666  44.292  37.342   4.547
55352W        W27667  21.975   3.298  13.552
55353W        W27668  25.248  43.337  11.845
55354W        W27669   2.340  44.744  14.980
55355W        W27670  11.501  25.651   2.912
55356W        W27671  42.879  44.436   2.369
55357W        W27672  14.380  37.495   2.452
55358W        W27673   8.286  15.609  11.116
55359W        W27674   9.741   6.703   4.076
55360W        W27675  26.802  29.875   3.680
55361W        W27676   1.405  23.258  13.744
55362W        W27677  30.101  42.422  13.004
55363W        W27678  25.545  32.767  13.525
55364W        W27679  15.191  35.272   2.819
55365W        W27680  34.848  20.958  13.499
55366W        W27681  42.549  38.861   2.374
55367W        W27682   7.373  25.500  12.523
55368W        W27683  20.653   3.034   0.926
55369W        W27684  30.016  38.050  14.012
55370W        W27685  33.027  12.120  14.838
55371W        W27686  21.255  34.120  14.046
55372W        W27687   9.730  31.596  11.018
55373W        W27688  31.693  23.551   0.718
55374W        W27689  30.546  11.439   3.210
55375W        W27690  13.555  41.896   1.403
55376W        W27691   3.854  12.397  11.071
55377W        W27692  36.151   9.995  13.743
55378W        W27693   9.256  10.085  14.448
55379W        W27694   9.340  41.538   1.127
55380W        W27695   8.323  41.982  12.885
55381W        W27696  13.201  16.230   3.449
55382W        W27697  38.069  30.734  12.415
55383W        W27698  24.175   5.900  12.582
55384W        W27699  24.893  21.091  11.557
55385W        W27700  18.125   5.118   2.682
55386W        W27701  31.562   7.435  12.617
55387W        W27702  19.252   6.670   4.581
55388W        W27703  14.061  17.368   1.343
55389W        W27704  41.829  29.783  13.340
55390W        W27705  19.543  29.454   0.322
55391W        W27706  24.154  44.760   3.319
55392W        W27707  10.816  36.432   2.413
55393W        W27708  22.971  11.800  12.067
55394W        W27709  19.265  33.508   3.825
55395W        W27710  14.601   1.431   3.765
55396W        W27711   4.732   6.301  13.999
55397W        W27712   4.431  23.104  11.566
55398W        W27713  11.607  11.567   0.732
55399W        W27714   6.203  26.654  12.985
55400W        W27715  29.077  11.170  13.999
55401W        W27716  32.073  17.798  14.058
55402W        W27717  42.302  37.110  14.416
55403W        W27718  33.480   2.265   0.365
55404W        W27719  44.981  21.003   1.829
55405W        W27720   7.222  21.785  10.980
55406W        W27721  23.710  38.998   0.722
55407W        W27722  26.144  23.968   3.298
55408W        W27723  17.310  17.918  14.447
55409W        W27724  39.615   2.985  11.659
55410W        W27725  20.838   1.618   0.373
55411W        W27726  23.673  25.642   1.248
55412W        W27727  13.886  15.075  13.774
55413W        W27728   8.420  36.154   3.875
55414W        W27729  35.425  42.954   5.002
55415W        W27730   6.366  35.533   1.166
55416W        W27731  22.445  25.909   4.579
55417W        W27732   1.686  36.503   3.275
55418W        W27733  12.642  19.299   2.206
55419W        W27734  43.337   3.555   0.879
55420W        W27735   0.002  23.661   0.478
55421W        W27736  27.511  22.677  12.953
55422W        W27737   3.640  30.181  12.962
55423W        W27738  22.045  24.324   1.834
55424W        W27739  36.465   2.534  12.005
55425W        W27740  16.090  21.154   3.146
55426W        W27741  26.685  19.329  11.118
55427W        W27742  25.102  11.656  11.974
55428W        W27743  15.116  32.693   1.497
55429W        W27744   0.750  37.810  12.472
55430W        W27745   7.304  38.787  12.332
55431W        W27746   6.758   7.700   4.720
55432W        W27747   5.173  33.868  14.845
55433W        W27748  17.855  27.724  11.009
55434W        W27749  37.603  34.491   4.555
55435W        W27750  37.222  37.366   5.055
55436W        W27751   4.208  13.563   1.079
55437W        W27752  34.469  22.016  12.356
55438W        W27753  11.927   1.941   0.082
55439W        W27754  28.163   6.372   0.816
55440W        W27755  15.837   7.436   3.603
55441W        W27756  25.248   7.190  14.246
55442W        W27757   2.325  32.968   0.807
55443W        W27758  38.306  10.111   3.359
55444W        W27759   1.881  19.271  14.794
55445W        W27760  43.397  35.986  11.239
55446W        W27761   0.673  35.134   2.006
55447W        W27762  40.961   0.355   0.926
55448W        W27763  33.372  17.508  12.438
55449W        W27764  35.313  32.150   2.728
55450W        W27765   1.698  19.735  13.441
55451W        W27766  41.845  31.195  14.796
55452W        W27767  32.444   5.125   0.813
55453W        W27768  30.586  41.489  12.541
55454W        W27769  43.909  34.455   2.803
55455W        W27770  37.409   0.766  11.179
55456W        W27771  42.899  41.424  14.879
55457W        W27772  34.902  11.177   3.257
55458W        W27773   4.205   1.852   3.596
55459W        W27774   5.323  33.793  11.431
55460W        W27775  26.262  12.387   3.094
55461W        W27776   8.375   3.496  12.876
55462W        W27777  18.861   4.839   3.939
55463W        W27778  28.037  25.178   1.240
55464W        W27779  40.636  37.443   4.558
55465W        W27780  25.110  23.911  11.451
55466W        W27781  30.377   5.447   3.657
55467W        W27782  23.135  12.936  12.194
55468W        W27783  38.478  11.627   3.353
55469W        W27784  22.471  24.907  12.599
55470W        W27785  33.002  22.791   0.252
55471W        W27786  38.387   0.309  13.332
55472W        W27787  32.592  37.796   3.651
55473W        W27788  19.776  23.512   0.439
55474W        W27789   5.416  44.372   0.466
55475W        W27790  40.018  27.973  10.515
55476W        W27791  33.483  18.652  11.581
55477W        W27792   9.165  30.589   1.306
55478W        W27793  34.594  23.072  12.253
55479W        W27794  23.698  37.401  12.609
55480W        W27795  33.844  20.009   2.606
55481W        W27796   9.752  28.808  12.911
55482W        W27797   7.256   5.464   1.873
55483W        W27798   9.935  11.320  14.629
55484W        W27799  20.013  17.632  10.740
55485W        W27800  43.638  12.360  14.377
55486W        W27801  11.872  43.026  13.678
55487W        W27802  18.274  29.274   2.651
55488W        W27803  25.154  30.850   4.159
55489W        W27804  39.548   7.294  12.970
55490W        W27805  26.887   3.711   0.282
55491W        W27806  19.300  35.344   2.753
55492W        W27807  23.263   3.492  10.785
55493W        W27808  23.443   7.895  12.107
55494W        W27809  35.844  25.554  14.945
55495W        W27810  26.503  44.876  13.945
55496W        W27811  19.926  23.882  14.216
55497W        W27812   8.132  31.126  12.436
55498W        W27813  26.137   9.382  14.346
55499W        W27814  39.402   4.496   0.789
55500W        W27815   0.455  36.614   1.891
55501W        W27816  12.295   0.178   1.740
55502W        W27817   1.880  30.748  13.854
55503W        W27818  33.715  38.382   0.024
55504W        W27819  21.539  11.090  14.027
55505W        W27820   5.925  42.672   4.103
55506W        W27821  36.909   7.278   3.198
55507W        W27822  44.726  31.375  14.400
55508W        W27823  12.091  42.603  12.959
55509W        W27824   8.911   2.278  14.301
55510W        W27825  36.561  37.618  11.158
55511W        W27826  43.782  25.016  14.511
55512W        W27827  27.494   0.438   4.287
55513W        W27828   4.614  15.228  10.915
55514W        W27829   6.342  34.149  13.350
55515W        W27830  38.807   5.281  10.254
55516W        W27831  18.238   3.508   0.380
55517W        W27832  17.664  44.982   4.841
55518W        W27833  25.906  22.707   2.045
55519W        W27834  34.059  31.840   0.865
55520W        W27835  27.125  34.669   1.169
55521W        W27836  34.753  14.718   2.867
55522W        W27837  38.398  32.888   3.513
55523W        W27838  19.711  17.017  11.989
55524W        W27839  34.862  18.989  10.764
55525W        W27840  15.610  25.707  10.733
55526W        W27841  20.450  44.881  11.052
55527W        W27842  16.840  14.449  14.498
55528W        W27843  42.443   7.285  14.014
55529W        W27844  33.396  20.098   2.217
55530W        W27845  37.069   3.455  14.412
55531W        W27846  28.028  29.169  12.083
55532W        W27847  38.468  16.341   0.814
55533W        W27848   3.522  24.037  14.570
55534W        W27849  42.320  31.641  13.856
55535W        W27850   1.478   5.839  10.723
55536W        W27851  12.673  36.614   2.370
55537W        W27852  30.953  19.609   2.300
55538W        W27853   6.377  31.008   3.689
55539W        W27854   0.304  19.598   3.698
55540W        W27855  30.210  35.555  11.971
55541W        W27856   9.609   1.314  12.509
55542W        W27857  44.834  29.237  11.573
55543W        W27858  33.102  18.038   2.173
55544W        W27859  24.203  42.332  11.572
55545W        W27860  16.077  44.350   3.868
55546W        W27861  37.938   2.714   3.519
55547W        W27862  39.779  22.159   4.882
55548W        W27863   3.859  43.392  11.410
55549W        W27864  25.040  15.369  13.415
55550W        W27865  20.711  23.961   4.646
55551W        W27866  22.518  24.182   0.007
55552W        W27867  44.214  35.503   0.395
55553W        W27868  33.557  34.341   1.792
55554W        W27869  22.101  26.458   0.558
55555W        W27870  21.231  14.319   4.068
55556W        W27871   0.999   7.307  13.815
55557W        W27872   0.442  44.192  13.647
55558W        W27873  41.810  13.570   1.772
55559W        W27874  23.083  44.702  13.202
55560W        W27875  30.839  20.576   0.539
55561W        W27876  35.065  18.512  11.836
55562W        W27877  43.477  42.862   3.898
55563W        W27878   8.831  14.240   3.155
55564W        W27879  44.461  37.651  14.150
55565W        W27880  28.727  16.085   4.371
55566W        W27881   2.021  40.403   2.348
55567W        W27882  38.130  14.929  11.426
55568W        W27883  38.852   1.876   1.460
55569W        W27884  11.203  26.832   2.896
55570W        W27885  14.850  31.567   3.865
55571W        W27886  24.537  37.385  12.003
55572W        W27887  32.691  26.118   4.201
55573W        W27888   4.231  37.653   0.832
55574W        W27889   9.837   7.241   4.067
55575W        W27890   7.878   7.383  10.745
55576W        W27891  34.881  19.491  14.426
55577W        W27892  40.946  12.806   0.843
55578W        W27893  15.607  14.950  10.076
55579W        W27894  28.475  37.076   1.751
55580W        W27895   6.191  14.525   4.871
55581W        W27896  42.777  23.672   3.260
55582W        W27897  34.564   5.366   0.199
55583W        W27898  18.419  40.310   5.374
55584W        W27899  27.118  21.939  13.275
55585W        W27900  22.190  14.987  12.458
55586W        W27901  16.856  24.724  11.492
55587W        W27902  11.770  12.102  10.557
55588W        W27903  36.933  37.540   0.206
55589W        W27904  24.509  36.968  12.349
55590W        W27905  17.160   2.230  14.011
55591W        W27906  24.290   8.471   0.042
55592W        W27907  38.276  11.218   1.754
55593W        W27908  39.707  27.017  14.456
55594W        W27909  35.766  17.813  14.298
55595W        W27910  30.211   7.209   0.456
55596W        W27911  32.623  13.744   4.154
55597W        W27912   4.232  31.206   1.087
55598W        W27913  27.369   3.333   2.194
55599W        W27914  21.174  43.905  11.576
55600W        W27915  37.589  16.010   2.735
55601W        W27916  20.157  34.312  13.970
55602W        W27917   5.674  10.376   3.648
55603W        W27918  34.041  34.540  13.434
55604W        W27919  39.967  23.629   2.084
55605W        W27920  25.912  13.667   4.138
55606W        W27921   8.808  41.800  14.151
55607W        W27922   6.293  40.966   1.433
55608W        W27923  44.447  41.991   3.171
55609W        W27924  29.527  27.089   1.323
55610W        W27925  10.848  15.525  14.055
55611W        W27926  33.142  27.171  13.738
55612W        W27927  30.028   2.239   3.422
55613W        W27928   8.677   2.170   1.841
55614W        W27929  40.547   6.112  13.900
55615W        W27930  36.785  24.639   1.236
55616W        W27931  31.654  23.388   4.949
55617W        W27932  41.764  33.466  12.796
55618W        W27933  37.499  35.205  14.331
55619W        W27934   4.268  14.094   1.192
55620W        W27935   1.823   9.629   1.174
55621W        W27936  15.153  12.907   3.759
55622W        W27937  16.889  12.381   2.239
55623W        W27938   7.230  17.382   1.469
55624W        W27939  35.010  13.372   3.360
55625W        W27940  24.239  35.562  13.432
55626W        W27941   1.383  19.085  12.890
55627W        W27942  42.344  21.402  14.373
55628W        W27943  16.457   7.773  12.916
55629W        W27944  21.631   4.229   2.337
55630W        W27945  38.509  10.460  11.791
55631W        W27946  16.828  16.309   3.210
55632W        W27947  10.169  41.961   0.462
55633W        W27948  17.685  20.053  14.516
55634W        W27949  19.007  39.847   5.057
55635W        W27950  40.145   9.772  12.421
55636W        W27951   6.511   0.558   3.689
55637W        W27952   0.396   6.726  14.086
55638W        W27953  29.882  39.332  11.504
55639W        W27954  36.096  24.797  10.717
55640W        W27955  14.231   4.866  14.969
55641W        W27956  19.817  24.434  14.976
55642W        W27957  31.144  26.021  10.406
55643W        W27958  14.061  30.710  12.452
55644W        W27959   2.905  22.794  13.962
55645W        W27960  10.908  22.255   2.760
55646W        W27961  36.302  27.933   1.924
55647W        W27962   9.213  36.875   3.027
55648W        W27963  30.229  38.548   1.808
55649W        W27964  39.358  22.569  13.863
55650W        W27965   7.174   1.691  11.557
55651W        W27966  44.451   7.641   3.253
55652W        W27967   8.387   6.527   1.842
55653W        W27968   8.804  16.781   0.135
55654W        W27969  21.091  30.516  12.637
55655W        W27970  40.485  41.842   2.766
55656W        W27971  38.980  43.125   3.793
55657W        W27972  14.132  35.642   0.954
55658W        W27973   7.871  32.407  12.496
55659W        W27974   6.619  21.139  14.443
55660W        W27975   8.666   2.238  14.755
55661W        W27976  42.281  29.872  13.570
55662W        W27977  44.986   5.706   0.289
55663W        W27978   3.192  34.399  12.892
55664W        W27979  28.036   6.679   4.780
55665W        W27980  38.491  44.252  11.476
55666W        W27981  20.134   7.954  11.607
55667W        W27982   6.681  38.563   3.745
55668W        W27983  14.580  15.965  11.180
55669W        W27984  38.584  19.976  11.215
55670W        W27985  11.811  31.844  11.105
55671W        W27986  23.655  35.824   0.790
55672W        W27987  31.420  44.075   3.294
55673W        W27988  15.208   0.572  11.644
55674W        W27989  34.013  21.481  13.117
55675W        W27990  27.495  29.980   4.375
55676W        W27991   3.455  18.110   0.715
55677W        W27992  24.219  25.265   0.468
55678W        W27993   0.564  43.711  12.496
55679W        W27994   8.957  36.401   2.230
55680W        W27995   6.310  42.894   3.336
55681W        W27996   5.172  19.244   2.581
55682W        W27997  14.522  44.949  11.613
55683W        W27998  22.867  25.954  13.356
55684W        W27999  29.553  43.189  12.851
55685W        W28000   6.083  19.552  12.898
55686W        W28001  19.781  16.521   4.104
55687W        W28002  17.372  35.010  10.257
55688W        W28003  38.268  31.954   3.186
55689W        W28004  19.731  23.926   5.059
55690W        W28005   5.672   2.732   1.376
55691W        W28006  29.626  16.662   2.770
55692W        W28007   6.088  20.224  12.367
55693W        W28008   7.240  19.222   2.104
55694W        W28009   0.438   1.361  11.154
55695W        W28010  38.063  27.923   2.323
55696W        W28011  29.042   7.852   4.153
55697W        W28012  24.956  34.808   3.347
55698W        W28013  39.900  15.053  11.534
55699W        W28014  12.700   4.422  13.644
55700W        W28015   7.400  19.256   3.652
55701W        W28016  41.428  10.873  12.037
55702W        W28017  33.536  15.635   9.954
55703W        W28018   8.220   9.012  11.109
55704W        W28019  38.397  25.854   1.802
55705W        W28020  37.010   2.829   1.391
55706W        W28021  23.485  12.455  11.050
55707W        W28022  12.507   8.886  12.545
55708W        W28023  30.661   6.456   3.590
55709W        W28024  23.223  17.726   2.198
55710W        W28025  24.650  26.537   2.845
55711W        W28026  30.114  38.005   4.048
55712W        W28027  28.130  26.886  14.341
55713W        W28028  26.980   8.044  13.131
55714W        W28029  10.115  16.446  10.221
55715W        W28030   4.017  26.232   3.609
55716W        W28031   6.435  42.827  13.014
55717W        W28032  34.278  16.178   3.791
55718W        W28033  33.092  13.702   2.470
55719W        W28034  17.752  32.939  14.727
55720W        W28035  14.828  29.726   0.856
55721W        W28036  29.541  19.144   0.689
55722W        W28037  31.690   4.450   0.813
55723W        W28038  12.854  13.750  12.708
55724W        W28039  32.012  36.398   2.383
55725W        W28040  31.920  14.862  13.543
55726W        W28041   7.790  25.649   1.142
55727W        W28042  20.775  31.674   0.711
55728W        W28043   5.411  34.049   0.812
55729W        W28044  27.126  26.706   4.150
55730W        W28045  18.605  13.091  10.640
55731W        W28046   1.480  34.559  12.398
55732W        W28047   0.816  28.195   4.637
55733W        W28048  17.066  21.057   4.701
55734W        W28049  33.017  12.252   3.546
55735W        W28050  37.587   2.725  11.467
55736W        W28051   3.862  28.683   2.823
55737W        W28052  32.545  44.210   0.387
55738W        W28053   9.187  40.870   0.433
55739W        W28054  29.024  16.656  10.742
55740W        W28055   0.918   2.812  10.271
55741W        W28056  20.195  31.615  12.047
55742W        W28057  19.289  32.568  13.800
55743W        W28058   7.764  21.546   0.407
55744W        W28059   2.291  12.181  13.510
55745W        W28060  20.122  22.554  14.261
55746W        W28061  27.546  36.998  10.972
55747W        W28062   5.661  37.720  13.106
55748W        W28063  17.271  27.745   2.710
55749W        W28064  31.722   4.653  14.536
55750W        W28065  12.212  18.207   4.145
55751W        W28066  33.030  16.589   3.126
55752W        W28067  29.955  43.353   1.827
55753W        W28068  31.179  41.296   3.589
55754W        W28069  16.544   8.146  11.498
55755W        W28070  14.696  12.246  12.074
55756W        W28071  39.622  25.869   1.312
55757W        W28072  19.238  33.529   2.800
55758W        W28073  36.098  25.111  14.805
55759W        W28074   5.528   2.547  14.456
55760W        W28075  34.893   2.803  12.652
55761W        W28076  43.807  32.952  10.834
55762W        W28077  19.132   3.838  13.432
55763W        W28078  33.470  38.135  13.938
55764W        W28079  41.867  41.800   1.833
55765W        W28080  41.616   5.383  13.994
55766W        W28081  22.727  38.721  10.618
55767W        W28082  26.665   5.693  10.999
55768W        W28083   1.928   2.991   1.196
55769W        W28084  12.543  34.338  14.539
55770W        W28085  16.125  25.030   2.147
55771W        W28086  20.226  26.031   3.840
55772W        W28087  25.074   7.880  11.455
55773W        W28088  10.768  32.260  14.376
55774W        W28089  36.952  39.904  14.857
55775W        W28090  44.817  14.665  14.147
55776W        W28091  17.957   2.322  14.930
55777W        W28092  43.235  27.149  11.015
55778W        W28093  29.401   8.901  14.447
55779W        W28094   4.670   3.261   1.325
55780W        W28095  25.575  27.077  14.321
55781W        W28096  15.300   3.284  13.378
55782W        W28097   9.767  42.395   2.876
55783W        W28098  29.962  16.602   3.552
55784W        W28099  42.119  39.387   2.779
55785W        W28100   9.482  26.341  11.061
55786W        W28101   6.251   2.892   2.816
55787W        W28102  25.171   0.748   0.428
55788W        W28103  39.256  21.197  12.972
55789W        W28104  43.367   2.329  12.118
55790W        W28105  27.372   4.882   4.053
55791W        W28106   3.974   6.037   2.802
55792W        W28107  28.119  23.201  13.398
55793W        W28108  17.645  28.780   0.444
55794W        W28109  30.905   6.686   0.713
55795W        W28110  44.457  42.351   1.162
55796W        W28111  27.141   7.293   9.571
55797W        W28112  41.435  32.823  13.467
55798W        W28113   0.883   6.921   1.877
55799W        W28114  39.447  24.992   1.696
55800W        W28115  18.071  42.460  12.046
55801W        W28116  33.919  19.736   4.071
55802W        W28117  43.321  32.921   0.000
55803W        W28118  41.280  29.557   2.276
55804W        W28119  18.928  30.851  11.566
55805W        W28120  29.715  18.086  12.637
55806W        W28121  26.716  22.572  11.053
55807W        W28122  30.720  27.218  11.465
55808W        W28123  19.518   0.001   3.767
55809W        W28124  20.176   6.242   4.076
55810W        W28125   3.256  23.146  11.461
55811W        W28126   2.959  33.952   2.151
55812W        W28127   5.033  17.316   0.317
55813W        W28128   7.216  31.782  13.891
55814W        W28129   6.843   1.525   3.821
55815W        W28130  42.355   3.456  10.948
55816W        W28131  15.984  24.969  13.763
55817W        W28132  44.413   7.365  14.260
55818W        W28133  27.039  16.993   0.077
55819W        W28134  24.130  40.290  13.203
55820W        W28135  13.911  34.640   2.715
55821W        W28136   4.445  26.596   1.699
55822W        W28137  10.519  15.686   2.831
55823W        W28138   1.521  20.597  10.579
55824W        W28139  43.546  38.255   2.863
55825W        W28140   2.787  11.815  11.971
55826W        W28141   3.770  38.462  14.055
55827W        W28142  41.145  20.620   2.696
55828W        W28143  33.220  25.675   2.774
55829W        W28144  40.031   8.933  11.173
55830W        W28145  27.796   8.884  11.089
55831W        W28146  34.734  36.171   9.864
55832W        W28147  27.018  16.390   2.788
55833W        W28148  36.028  43.708  14.383
55834W        W28149  16.822  40.899  12.981
55835W        W28150  39.243  22.220   0.027
55836W        W28151  36.680  37.385   4.050
55837W        W28152  14.358  33.088  14.736
55838W        W28153  22.210   3.710   1.839
55839W        W28154  30.341   1.862   0.467
55840W        W28155   3.304   2.455   4.631
55841W        W28156  17.028  40.162  13.209
55842W        W28157  26.458   8.858   4.288
55843W        W28158  18.611  26.912   4.053
55844W        W28159  21.519  38.256  14.107
55845W        W28160  27.796  26.324  13.979
55846W        W28161  31.190  25.593  13.678
55847W        W28162  30.499  33.166   2.795
55848W        W28163  16.818  30.608  11.039
55849W        W28164  44.928  11.871   4.143
55850W        W28165  24.017  15.707   0.827
55851W        W28166  17.012  30.136  14.657
55852W        W28167  24.036  39.044  10.881
55853W        W28168  28.101   3.480  11.445
55854W        W28169  39.385  29.872   1.794
55855W        W28170  30.190  38.627   0.905
55856W        W28171  36.496  38.123  11.079
55857W        W28172  21.576   4.902   3.074
55858W        W28173  34.442   2.963   3.873
55859W        W28174  35.057  44.284   1.812
55860W        W28175  44.965  19.040  12.951
55861W        W28176  18.770   4.914   1.860
55862W        W28177  16.362  17.827   1.842
55863W        W28178   5.936  10.283  10.798
55864W        W28179   6.663  20.749  10.999
55865W        W28180  30.439  12.565   1.220
55866W        W28181  36.827  25.986  11.035
55867W        W28182   2.392  10.374   1.500
55868W        W28183  28.180  21.669  10.998
55869W        W28184  28.412  11.170  11.900
55870W        W28185  37.013  16.832  13.238
55871W        W28186  41.975  19.267  13.350
55872W        W28187   2.798  40.645  12.384
55873W        W28188  39.369  38.842  11.081
55874W        W28189  13.995   3.755   2.216
55875W        W28190  19.760  30.714  11.732
55876W        W28191  39.188   3.041   0.995
55877W        W28192  17.144  43.531  14.188
55878W        W28193  17.824  12.856   2.844
55879W        W28194  36.920   4.410  10.548
55880W        W28195   1.116  10.687   2.243
55881W        W28196  18.348  12.675   2.872
55882W        W28197  32.421  38.594   0.382
55883W        W28198   1.768  23.264  12.501
55884W        W28199   6.133  20.062  13.723
55885W        W28200  26.940   3.857  12.973
55886W        W28201  24.206   4.453  12.184
55887W        W28202  28.759   1.767   1.988
55888W        W28203  20.110  18.515   3.618
55889W        W28204  10.931   4.401   3.730
55890W        W28205  36.500  26.257   4.532
55891W        W28206  34.893  30.615   4.107
55892W        W28207  42.524  29.632   3.181
55893W        W28208  22.603  34.278  13.765
55894W        W28209   7.720  36.552  12.539
55895W        W28210  30.075  12.601  12.474
55896W        W28211   3.881  38.359  10.519
55897W        W28212  12.074  15.623  13.576
55898W        W28213  18.794  42.823  14.766
55899W        W28214  17.548  26.625   5.055
55900W        W28215  40.529  41.321  12.246
55901W        W28216   9.886  11.758   4.691
55902W        W28217   7.998  29.322   4.253
55903W        W28218  42.761  39.908  12.450
55904W        W28219  21.701   3.959   0.982
55905W        W28220   7.462  13.028   2.860
55906W        W28221  42.147  12.649  13.984
55907W        W28222  39.115   7.071   1.858
55908W        W28223  22.220  16.913  11.112
55909W        W28224   5.970  41.504  13.428
55910W        W28225  18.522  20.240  12.577
55911W        W28226   4.749  18.758  14.015
55912W        W28227  42.941  25.032  13.009
55913W        W28228   4.726  11.338  13.472
55914W        W28229  30.129   6.326   0.417
55915W        W28230  39.253  44.493   0.971
55916W        W28231  23.659   3.916  11.725
55917W        W28232  38.905  19.826   2.663
55918W        W28233   5.897   3.348  12.091
55919W        W28234  22.695  28.969   3.793
55920W        W28235  24.736  30.105  12.926
55921W        W28236  36.625  37.506  12.648
55922W        W28237  16.609   2.497  11.702
55923W        W28238   7.281  38.365   2.110
55924W        W28239  29.918   9.978   3.050
55925W        W28240  19.026   9.685  14.784
55926W        W28241   2.013  24.033  12.132
55927W        W28242  12.935  24.191   0.515
55928W        W28243  29.564  24.769   3.683
55929W        W28244   9.622  15.172   0.406
55930W        W28245  24.034  29.940   4.139
55931W        W28246   4.600  35.783   3.280
55932W        W28247  29.262  20.174   3.778
55933W        W28248   0.905  41.107  14.270
55934W        W28249  37.898  28.456  10.871
55935W        W28250  38.675  38.091  11.102
55936W        W28251   4.900   3.179  11.217
55937W        W28252   9.213  14.358   3.694
55938W        W28253  13.705   7.173   3.904
55939W        W28254  41.073  38.993   4.164
55940W        W28255  18.553  19.259   2.402
55941W        W28256  39.544  21.534  13.244
55942W        W28257  24.013   0.073  11.028
55943W        W28258   5.247  36.834   2.116
55944W        W28259   1.243  24.624   4.080
55945W        W28260  12.802  22.655   1.857
55946W        W28261  10.134  34.573   2.715
55947W        W28262  38.791  39.052  13.345
55948W        W28263  42.862   4.429  12.478
55949W        W28264  39.773  17.836   1.713
55950W        W28265  11.573   1.919   2.085
55951W        W28266  21.152   5.802   3.423
55952W        W28267  24.780  20.841   5.059
55953W        W28268  39.934  31.394  14.233
55954W        W28269  22.087  17.023  14.840
55955W        W28270  43.877  14.277  14.358
55956W        W28271  19.655  22.790  13.477
55957W        W28272  31.201  40.994   2.847
55958W        W28273  21.519  42.354   0.923
55959W        W28274  32.519  27.762   1.286
55960W        W28275  12.601  32.929  14.975
55961W        W28276   1.810  40.930  11.400
55962W        W28277  42.814  29.027  12.945
55963W        W28278  31.903  37.801   1.715
55964W        W28279   5.972  30.097  13.105
55965W        W28280  44.490   1.283   1.925
55966W        W28281  36.968   3.914   0.310
55967W        W28282  26.218   1.778   1.910
55968W        W28283   9.436   5.978   3.960
55969W        W28284  34.457  31.407  11.521
55970W        W28285  11.921   0.390   3.696
55971W        W28286  30.695  22.526   2.030
55972W        W28287  36.109  16.202   1.637
55973W        W28288  42.105   7.432   1.788
55974W        W28289   0.295  35.126   1.009
55975W        W28290  42.002  22.454  13.459
55976W        W28291  26.493  22.255   0.234
55977W        W28292   9.578   4.984  11.669
55978W        W28293  22.224   1.635   1.999
55979W        W28294   0.773  39.986  13.267
55980W        W28295  16.175   9.385   2.704
55981W        W28296  14.119  10.294   1.486
55982W        W28297   9.611  39.299  12.104
55983W        W28298  18.673  31.510   3.091
55984W        W28299  22.739  17.215   0.445
55985W        W28300  14.870  20.978  11.195
55986W        W28301  21.053   5.637  13.909
55987W        W28302   4.400  28.594   0.375
55988W        W28303  31.396  44.253   4.529
55989W        W28304  27.486  37.986  11.867
55990W        W28305  25.076  34.375   3.095
55991W        W28306  21.085  14.676  11.501
55992W        W28307  42.307  29.388  13.429
55993W        W28308  28.623  42.679  11.960
55994W        W28309   8.669  21.774   4.247
55995W        W28310  26.999  39.562   1.503
55996W        W28311  43.766  27.934  14.925
55997W        W28312  34.323  12.266   4.113
55998W        W28313  40.318  24.692   4.996
55999W        W28314  10.399   1.905  10.772
56000W        W28315   8.706  21.123   3.879
56001W        W28316  11.103  15.093   0.777
56002W        W28317  31.120  40.737  13.942
56003W        W28318   4.746  20.529   3.531
56004W        W28319  37.438   5.302   2.860
56005W        W28320  41.435  22.522  12.061
56006W        W28321   3.821  24.042   4.571
56007W        W28322  43.283   5.757   1.528
56008W        W28323  11.509  11.305   4.592
56009W        W28324  39.790  20.545   0.808
56010W        W28325  12.750  32.552   2.503
56011W        W28326  32.401  16.319   3.239
56012W        W28327  15.012  37.494  12.605
56013W        W28328  21.070   3.530  13.500
56014W        W28329  22.115  31.560   0.452
56015W        W28330   8.412   1.667   1.796
56016W        W28331  38.354   8.921   0.900
56017W        W28332   7.962   8.504   0.826
56018W        W28333  23.017   8.369   2.470
56019W        W28334   2.235  10.681   4.756
56020W        W28335  11.217  31.361   0.857
56021W        W28336  19.464  37.809   1.864
56022W        W28337  15.716  42.583  13.665
56023W        W28338  37.579  39.608  11.080
56024W        W28339  27.143  25.112  14.343
56025W        W28340   3.878  35.308  12.455
56026W        W28341  40.086   6.311  12.202
56027W        W28342  35.262  22.901   0.847
56028W        W28343   1.506  20.262  14.864
56029W        W28344  18.133   2.916   3.912
56030W        W28345  29.277  41.378  14.506
56031W        W28346   4.868  10.819   0.705
56032W        W28347  39.515  12.599   1.989
56033W        W28348  40.320  34.632   1.812
56034W        W28349  20.174   8.660  14.998
56035W        W28350   3.446  39.309   4.609
56036W        W28351  20.973   8.303  14.921
56037W        W28352   4.810  35.163  13.490
56038W        W28353  44.751   7.036  12.078
56039W        W28354   7.945   6.671  11.180
56040W        W28355  40.447  36.846   0.428
56041W        W28356   5.775   2.209  14.905
56042W        W28357   5.427  28.409  11.889
56043W        W28358  25.055  32.543   5.154
56044W        W28359   4.544   4.569   4.014
56045W        W28360  26.364  35.200   3.398
56046W        W28361  34.658  35.475   0.894
56047W        W28362  16.809  10.735   1.833
56048W        W28363   5.774   2.294   2.194
56049W        W28364  25.231  19.701   3.688
56050W        W28365  11.727  38.038   1.014
56051W        W28366  14.311   0.413   1.014
56052W        W28367  15.023  20.193  10.737
56053W        W28368  40.384   1.273   4.567
56054W        W28369   4.137  34.649   2.593
56055W        W28370  38.445  37.227   0.634
56056W        W28371  35.317  19.579   4.641
56057W        W28372  42.268  44.172  13.775
56058W        W28373  35.010  13.098  12.837
56059W        W28374   7.728  27.715  11.817
56060W        W28375  41.271  34.799  12.979
56061W        W28376  31.506   6.597  14.838
56062W        W28377  44.999   6.504   0.491
56063W        W28378  16.205  24.081   2.216
56064W        W28379  28.365  37.546   4.026
56065W        W28380  24.621   2.994  10.957
56066W        W28381   5.812  44.576  14.286
56067W        W28382  40.236  30.995   2.708
56068W        W28383  40.494  11.376  10.481
56069W        W28384  18.139  29.728   2.460
56070W        W28385  15.535  29.246   5.512
56071W        W28386   5.738  29.130  13.023
56072W        W28387   9.857  23.168   4.283
56073W        W28388   8.395  28.458   0.269
56074W        W28389  40.438  11.833  10.761
56075W        W28390  21.480   4.520  13.427
56076W        W28391  39.365  16.068  13.038
56077W        W28392  18.959   8.089   2.658
56078W        W28393  35.112  24.647   3.817
56079W        W28394  16.237  23.476   0.395
56080W        W28395  32.661  25.075  12.293
56081W        W28396  12.095  41.586   4.279
56082W        W28397  10.901  12.193  10.391
56083W        W28398  40.268  29.075  12.814
56084W        W28399  10.714  33.848  14.734
56085W        W28400  33.545  23.419   0.554
56086W        W28401  15.352  28.476   0.339
56087W        W28402  15.687  29.751   3.681
56088W        W28403  16.350  39.901   1.734
56089W        W28404   5.866  33.877  12.577
56090W        W28405  15.722   3.942   3.656
56091W        W28406   3.530  23.905  12.632
56092W        W28407  19.450   8.303   1.352
56093W        W28408  30.101  11.211   3.920
56094W        W28409  35.337  16.904   4.108
56095W        W28410  15.700  18.003   1.675
56096W        W28411  13.072  11.782  13.977
56097W        W28412  31.648  13.624   3.575
56098W        W28413  32.847  39.027   2.214
56099W        W28414  14.198  21.034  11.137
56100W        W28415  23.514  34.314  13.359
56101W        W28416  11.689  11.720   3.399
56102W        W28417   4.513  24.722  12.343
56103W        W28418  33.529   9.675   4.253
56104W        W28419  44.428   5.168  12.919
56105W        W28420  17.108  24.349   2.169
56106W        W28421  12.346  39.992   3.083
56107W        W28422  14.814  25.374  14.352
56108W        W28423  21.764  14.557   1.526
56109W        W28424  12.703   1.629   2.555
56110W        W28425  38.971  20.201  11.498
56111W        W28426  27.266  26.103   1.872
56112W        W28427  36.880  37.146   1.433
56113W        W28428  13.866  33.120  14.540
56114W        W28429  29.617  26.430  12.282
56115W        W28430  17.893   6.805  14.694
56116W        W28431  34.588  19.059  14.585
56117W        W28432  23.955  25.178   1.896
56118W        W28433  20.995  16.730  10.418
56119W        W28434  42.671   9.184   1.786
56120W        W28435  40.874  12.147  11.792
56121W        W28436   9.585  12.091  14.108
56122W        W28437  40.948   1.826   1.924
56123W        W28438  39.784  34.081   2.317
56124W        W28439  37.276   9.301   4.716
56125W        W28440  43.460  18.369   3.604
56126W        W28441  18.294   3.889   1.233
56127W        W28442   0.872   8.036   0.275
56128W        W28443  16.711  43.642   0.917
56129W        W28444  15.173  26.434   3.784
56130W        W28445  13.301  41.908  11.077
56131W        W28446  20.443   1.490   3.927
56132W        W28447  26.301  15.581   1.887
56133W        W28448  27.583  43.585   4.471
56134W        W28449  42.512  37.293  14.869
56135W        W28450   6.786  28.229   2.761
56136W        W28451  11.236  37.325   3.845
56137W        W28452  39.608   2.319  12.963
56138W        W28453  15.554  43.456   0.765
56139W        W28454   1.258   3.982  13.402
56140W        W28455  23.387  40.885   0.211
56141W        W28456  40.303  34.425   4.456
56142W        W28457  23.465  38.407  14.936
56143W        W28458  34.870  12.760   4.777
56144W        W28459   2.799  36.953  13.435
56145W        W28460   5.666  21.485   3.104
56146W        W28461  26.904  12.069  12.856
56147W        W28462  34.168  41.870   1.918
56148W        W28463  22.441   7.224  10.259
56149W        W28464  21.278  37.532   0.390
56150W        W28465  41.056  43.914  11.075
56151W        W28466  35.947  17.850   4.948
56152W        W28467  26.762   3.277  13.560
56153W        W28468   1.421   5.254   1.459
56154W        W28469  24.104  12.837  13.389
56155W        W28470  21.496  28.539   3.688
56156W        W28471  22.936  11.651   2.856
56157W        W28472  17.302  15.548   0.318
56158W        W28473   5.855  11.327  14.248
56159W        W28474   7.318  40.813  10.710
56160W        W28475   8.171  30.095  12.474
56161W        W28476  26.233  22.457  14.817
56162W        W28477  41.074  39.995   1.028
56163W        W28478  38.938   0.315  12.632
56164W        W28479  23.957  30.067   0.352
56165W        W28480   2.568  23.264   0.424
56166W        W28481   0.364   0.430   2.640
56167W        W28482  41.961  43.243  14.740
56168W        W28483   4.426  12.584  13.536
56169W        W28484  19.131  32.073  10.740
56170W        W28485  33.988  23.043  11.560
56171W        W28486  20.291  23.625   1.385
56172W        W28487  25.449  39.668   0.864
56173W        W28488  10.221  38.338  11.595
56174W        W28489  32.420  19.964   4.566
56175W        W28490   8.371  28.197   4.715
56176W        W28491  23.758  40.287  12.548
56177W        W28492  38.365  29.107  12.604
56178W        W28493  16.736   7.896   1.449
56179W        W28494   2.864  19.026   3.336
56180W        W28495   4.207  39.311   4.141
56181W        W28496  21.993  41.508   1.161
56182W        W28497  35.491  31.880  13.815
56183W        W28498  36.155   3.182   1.920
56184W        W28499  16.442  13.026   3.377
56185W        W28500   1.304  40.562   0.805
56186W        W28501   1.735  42.375  10.345
56187W        W28502   0.378  27.880   0.345
56188W        W28503  37.505  14.579   0.447
56189W        W28504  31.769  27.532  13.075
56190W        W28505   9.685  15.384   2.774
56191W        W28506   6.649  17.930   3.842
56192W        W28507  37.353  17.019   4.185
56193W        W28508   1.743  43.766   1.843
56194W        W28509   2.046  25.035  11.564
56195W        W28510  11.401  20.558   4.623
56196W        W28511   4.606  16.057  13.410
56197W        W28512  37.946  14.495   2.402
56198W        W28513  19.749   7.737  13.490
56199W        W28514  30.705   4.245  13.871
56200W        W28515   3.911  25.177  10.204
56201W        W28516   1.856  26.997   1.447
56202W        W28517  22.127  44.822   4.355
56203W        W28518  26.178   6.187   0.317
56204W        W28519  38.514  14.084   1.796
56205W        W28520  43.831  10.191   5.414
56206W        W28521  36.946  32.257  14.826
56207W        W28522  10.871  13.135   0.421
56208W        W28523   9.558   1.131   2.372
56209W        W28524   8.820   3.719  11.225
56210W        W28525  22.403  42.666  11.928
56211W        W28526  37.389  36.461   3.312
56212W        W28527  25.159   8.872   1.437
56213W        W28528  14.812   0.984   1.222
56214W        W28529  35.538  40.607  11.192
56215W        W28530  32.690   7.270   3.001
56216W        W28531   3.723  43.071   1.851
56217W        W28532  27.876   3.643  14.515
56218W        W28533   9.786   2.604  12.704
56219W        W28534  26.041  36.073  13.606
56220W        W28535  44.485  24.416   2.725
56221W        W28536  37.703  10.187   2.393
56222W        W28537  32.959  29.128   1.070
56223W        W28538  30.092  23.699  10.943
56224W        W28539  23.071  21.044   4.973
56225W        W28540  34.656  25.379   0.297
56226W        W28541  23.620  29.316  13.088
56227W        W28542  29.689  16.943   3.207
56228W        W28543   9.777   4.882  14.927
56229W        W28544  41.600   6.590  12.468
56230W        W28545  43.107  41.581  10.576
56231W        W28546  31.616  30.140   0.319
56232W        W28547  13.850  20.316   3.692
56233W        W28548   9.341   6.519   2.428
56234W        W28549  39.924  19.748   0.985
56235W        W28550  12.222   5.238  11.225
56236W        W28551  34.669   6.417  12.906
56237W        W28552  17.731   8.926  10.701
56238W        W28553   9.220  15.325   0.724
56239W        W28554  21.686  23.513   1.915
56240W        W28555  33.915  20.160  14.657
56241W        W28556  26.468  40.335   4.033
56242W        W28557  35.333  18.739  11.470
56243W        W28558  43.782  28.733   0.381
56244W        W28559  10.073  33.681   4.204
56245W        W28560  43.896  20.748  13.470
56246W        W28561  18.020   4.174   0.883
56247W        W28562  13.826  42.331  13.474
56248W        W28563   2.244  16.783  14.863
56249W        W28564  35.700  43.455   4.870
56250W        W28565  44.292  34.469   4.222
56251W        W28566  19.019  15.108   0.731
56252W        W28567  36.941   0.527  12.737
56253W        W28568  13.929  38.798  13.495
56254W        W28569  21.607  13.855   2.810
56255W        W28570  19.803   8.680   1.330
56256W        W28571  38.094   1.744  11.629
56257W        W28572  37.660  35.046  14.818
56258W        W28573  10.577   6.050  11.755
56259W        W28574  37.860   2.513   1.893
56260W        W28575   4.135  15.583  13.808
56261W        W28576   5.283  23.497   4.649
56262W        W28577  10.450   0.865  13.816
56263W        W28578  39.866  38.451  10.680
56264W        W28579  26.323  26.388   4.526
56265W        W28580   5.063  33.015   0.218
56266W        W28581  42.342   9.068   4.699
56267W        W28582  31.471   1.051  13.833
56268W        W28583  20.307  38.330  12.780
56269W        W28584  37.235  17.296  13.182
56270W        W28585  37.253  16.147  12.595
56271W        W28586  18.821   9.745  11.861
56272W        W28587   5.180   9.865   0.339
56273W        W28588  43.345  41.627   4.726
56274W        W28589  42.431  11.706  13.838
56275W        W28590  18.015  39.677  14.585
56276W        W28591   0.225   5.033   1.863
56277W        W28592   5.931  39.780   4.497
56278W        W28593  20.084  31.574   2.231
56279W        W28594  26.771  18.941   3.929
56280W        W28595  36.701   3.486  12.294
56281W        W28596   8.371  14.512   4.314
56282W        W28597   6.444  42.938   1.207
56283W        W28598  44.343  28.188   4.245
56284W        W28599  26.174  15.571   3.219
56285W        W28600   7.801  25.124   1.887
56286W        W28601  30.183  17.919  14.802
56287W        W28602  12.660  38.051   4.530
56288W        W28603  28.540  17.077  11.995
56289W        W28604  19.211  13.778  13.279
56290W        W28605  15.979  32.233   4.087
56291W        W28606  23.332  22.611  11.933
56292W        W28607  25.220   9.362   2.765
56293W        W28608  10.710  12.578  11.980
56294W        W28609   0.536  28.953   1.506
56295W        W28610   6.681   7.223  14.518
56296W        W28611  28.172   8.229   3.574
56297W        W28612   4.912  29.857   0.680
56298W        W28613  18.808   1.333   4.658
56299W        W28614  42.890  22.239  13.432
56300W        W28615  22.666  41.011   4.619
56301W        W28616   6.327  37.832   2.147
56302W        W28617  16.086  11.642  14.817
56303W        W28618  17.589  24.802   3.805
56304W        W28619  31.356  32.595  12.129
56305W        W28620  14.020  34.713  11.591
56306W        W28621  32.898  15.484   1.902
56307W        W28622  25.652  20.177  10.936
56308W        W28623  32.045  43.340  12.643
56309W        W28624  25.444  36.596   3.261
56310W        W28625  38.840   3.176  11.699
56311W        W28626  34.054   8.742   2.648
56312W        W28627  39.502  34.177   1.856
56313W        W28628   0.423   1.950   2.425
56314W        W28629   2.860  17.606  12.992
56315W        W28630  37.123  15.317   0.377
56316W        W28631  37.853  32.875   1.284
56317W        W28632   1.247   9.125   3.254
56318W        W28633  11.598  29.697   0.821
56319W        W28634  14.968  22.255   2.495
56320W        W28635  11.166  26.563  14.021
56321W        W28636  26.088   4.623  13.337
56322W        W28637   3.449  41.885   2.881
56323W        W28638   7.231  21.587  11.446
56324W        W28639   5.711  12.644   1.710
56325W        W28640  33.911  12.689  14.076
56326W        W28641  27.067   2.152   2.326
56327W        W28642  38.293   4.543  10.369
56328W        W28643  12.176  12.189  10.899
56329W        W28644  43.701  29.100  14.545
56330W        W28645  41.839   2.864  10.462
56331W        W28646  16.490  10.340   9.775
56332W        W28647  38.283  41.471  13.261
56333W        W28648  29.889  25.264   1.818
56334W        W28649  36.122  25.728   1.929
56335W        W28650  26.959  27.041  12.990
56336W        W28651  12.766   3.791   2.367
56337W        W28652  13.751  38.112   2.385
56338W        W28653  30.353  30.956   0.838
56339W        W28654  33.636  27.157  13.951
56340W        W28655  16.297  38.439   2.320
56341W        W28656  30.023  14.115  13.584
56342W        W28657  35.572  43.825   3.149
56343W        W28658  10.093   7.284  10.719
56344W        W28659  39.028  32.162   2.844
56345W        W28660   8.669  42.297  14.904
56346W        W28661  23.965   0.886   1.198
56347W        W28662   7.793  18.175  14.261
56348W        W28663  14.085   3.686  12.903
56349W        W28664  10.091  34.395  14.353
56350W        W28665   4.707   3.981   0.696
56351W        W28666   5.727  17.166   0.865
56352W        W28667  43.078  14.776   3.263
56353W        W28668   4.815  34.020  13.593
56354W        W28669   7.813  31.638  12.925
56355W        W28670  25.749   7.055  10.432
56356W        W28671  31.403  38.574   0.416
56357W        W28672  22.438   4.357   0.876
56358W        W28673   7.576  20.121   0.416
56359W        W28674  34.140  19.530   0.746
56360W        W28675  21.121  36.684  11.545
56361W        W28676  44.816  11.063  12.591
56362W        W28677  27.231   1.172  11.077
56363W        W28678  12.383  28.109   4.655
56364W        W28679  18.772  44.776  13.007
56365W        W28680  34.651  32.412  10.759
56366W        W28681   6.826  44.904  14.414
56367W        W28682   8.872  12.741   1.186
56368W        W28683  31.156  32.507   1.756
56369W        W28684  42.527  26.488  11.083
56370W        W28685  15.801  44.326  14.600
56371W        W28686  12.423   5.774  14.771
56372W        W28687  31.093  22.221   1.256
56373W        W28688  38.273  40.762  14.500
56374W        W28689  32.605   5.857   2.820
56375W        W28690  17.051  44.250   2.730
56376W        W28691  26.489  25.591   3.764
56377W        W28692  42.205  13.133   2.405
56378W        W28693  44.376  23.231  11.566
56379W        W28694  30.938   3.350  11.917
56380W        W28695  14.286  18.080   2.714
56381W        W28696   5.266  38.041   3.343
56382W        W28697  14.804  25.440   0.368
56383W        W28698  40.966   3.971   1.377
56384W        W28699  21.531   5.891   1.929
56385W        W28700  42.010   3.933   1.314
56386W        W28701  35.931  26.666  13.353
56387W        W28702   4.385  22.262  12.570
56388W        W28703  28.171  40.642  12.373
56389W        W28704   2.350  35.172  13.202
56390W        W28705  36.121  41.073  11.454
56391W        W28706  37.254   2.407  14.814
56392W        W28707  42.936  23.173   1.435
56393W        W28708   4.785   4.444   0.926
56394W        W28709   7.922  44.320  11.771
56395W        W28710  42.431  10.993   0.947
56396W        W28711   3.377  15.841   3.695
56397W        W28712  20.263  42.973   3.195
56398W        W28713  36.567  33.627  11.021
56399W        W28714  40.913  14.845   4.670
56400W        W28715  38.842  44.792  12.177
56401W        W28716  41.556  17.986  14.834
56402W        W28717  21.716  19.775   1.714
56403W        W28718  26.149  32.842  14.809
56404W        W28719  43.377   6.677   2.701
56405W        W28720  36.076  17.197   3.095
56406W        W28721   1.870  38.803  14.458
56407W        W28722  14.560  42.422  14.742
56408W        W28723  15.662  40.882  10.673
56409W        W28724  19.667  21.546   3.739
56410W        W28725   2.883  22.038   3.633
56411W        W28726  34.385   6.940   4.554
56412W        W28727   4.220  41.017  14.188
56413W        W28728  28.623  28.523  14.245
56414W        W28729  38.566  36.389  13.877
56415W        W28730  40.545  30.754  12.134
56416W        W28731   4.176  38.265   2.164
56417W        W28732  44.659  15.172   4.126
56418W        W28733  30.422  15.672   1.769
56419W        W28734  44.481  31.612  14.782
56420W        W28735   7.093  43.502  14.175
56421W        W28736   8.900  34.549   4.162
56422W        W28737  12.709  42.588  11.044
56423W        W28738  11.257  11.817  12.371
56424W        W28739  33.627   6.159  12.904
56425W        W28740  16.690  31.905  10.041
56426W        W28741  17.931  28.085   1.502
56427W        W28742  23.065  42.086   4.064
56428W        W28743   6.478  41.539  13.406
56429W        W28744   2.446  36.809  13.079
56430W        W28745   9.790  32.632  10.905
56431W        W28746   4.663  33.965  14.960
56432W        W28747  36.525   1.499   2.824
56433W        W28748  34.477  39.108   3.133
56434W        W28749  37.634  12.178  12.215
56435W        W28750  42.593   6.344  14.027
56436W        W28751  35.285  26.958   4.235
56437W        W28752   5.621  13.318   2.495
56438W        W28753  21.288  30.962   0.843
56439W        W28754  41.792  25.164   1.820
56440W        W28755  22.310  22.794   4.083
56441W        W28756  34.924  19.196   1.385
56442W        W28757  27.105   0.342  10.689
56443W        W28758  29.121  40.254   1.414
56444W        W28759   3.438  14.087  11.571
56445W        W28760   8.845  28.423   4.636
56446W        W28761   9.455  35.057   3.141
56447W        W28762  20.115  12.450   2.562
56448W        W28763  27.592   2.170  12.581
56449W        W28764  42.855  19.160  12.016
56450W        W28765  44.909  22.809  11.111
56451W        W28766   4.779  30.515   3.357
56452W        W28767  43.748  35.157  11.097
56453W        W28768  33.945  40.529  10.622
56454W        W28769  31.401  24.451   0.028
56455W        W28770   0.280  10.242  11.586
56456W        W28771  27.110  41.881  12.551
56457W        W28772   1.986  16.007  11.906
56458W        W28773  26.381  31.264  10.530
56459W        W28774  43.430  27.471   3.195
56460W        W28775   2.224   8.163  11.501
56461W        W28776  37.648  11.334  11.506
56462W        W28777   1.027   9.704  12.445
56463W        W28778   8.270  44.384   3.205
56464W        W28779  15.247  22.879   2.246
56465W        W28780  11.906  18.659   4.684
56466W        W28781  34.537  26.016  12.655
56467W        W28782  24.467  40.617   0.958
56468W        W28783  36.564  39.980  10.683
56469W        W28784  35.287  40.123   2.417
56470W        W28785   3.668  28.841   4.866
56471W        W28786  39.334   5.007   0.883
56472W        W28787   6.396   8.328  13.866
56473W        W28788  33.236   2.269  14.126
56474W        W28789  19.477  34.698   3.687
56475W        W28790  42.010  27.915   3.375
56476W        W28791  18.663  14.573   3.212
56477W        W28792  27.047  18.624  10.747
56478W        W28793  12.141  44.334   0.469
56479W        W28794  36.066  34.912  12.969
56480W        W28795  40.300  20.282  13.336
56481W        W28796   9.662  36.590   4.844
56482W        W28797  21.088  37.422   3.893
56483W        W28798  42.736  10.162  13.868
56484W        W28799   2.926  28.941   1.163
56485W        W28800  41.099  21.579  12.076
56486W        W28801  31.590  12.262  12.056
56487W        W28802   5.208   2.377  11.240
56488W        W28803  20.956  10.714   9.732
56489W        W28804  13.851   1.858   2.690
56490W        W28805  41.036  35.630  13.223
56491W        W28806   2.608  22.648  14.812
56492W        W28807   7.877   3.164   5.041
56493W        W28808  20.859   3.976  12.469
56494W        W28809  11.692  11.098  11.200
56495W        W28810   3.003  21.100   2.583
56496W        W28811  14.435  15.629  10.714
56497W        W28812  42.467  24.290  14.942
56498W        W28813  24.548  38.537  11.820
56499W        W28814   1.968  10.758  12.414
56500W        W28815  33.258   5.764  14.915
56501W        W28816   9.392  22.997  12.920
56502W        W28817  23.998  15.364   2.821
56503W        W28818  40.921  27.125  12.805
56504W        W28819   9.663  12.302   4.711
56505W        W28820  13.824  13.106   2.725
56506W        W28821  16.853  15.091   4.574
56507W        W28822  10.990  41.881  12.760
56508W        W28823  39.958  28.541   2.988
56509W        W28824  36.346   6.903   0.949
56510W        W28825  44.339  25.712  11.598
56511W        W28826  38.413  30.193  14.349
56512W        W28827  24.420  23.087   2.131
56513W        W28828  41.051  23.716  12.838
56514W        W28829  11.003  35.525  10.679
56515W        W28830  32.142  41.675  12.311
56516W        W28831  31.753   2.017   0.290
56517W        W28832  22.036   9.829  11.339
56518W        W28833  14.173  41.385  10.850
56519W        W28834  17.360   2.735   3.224
56520W        W28835  27.607   1.453   4.812
56521W        W28836  42.292  39.866   2.259
56522W        W28837  42.978   8.077  14.128
56523W        W28838  44.049   8.183   0.440
56524W        W28839   0.802  36.487   0.275
56525W        W28840  31.115  14.538   3.333
56526W        W28841  13.614   1.278  13.371
56527W        W28842  23.146  43.563  10.354
56528W        W28843  25.275  25.168  13.959
56529W        W28844  29.943  23.800   0.361
56530W        W28845   3.072   3.275   0.434
56531W        W28846  27.643  27.983   4.600
56532W        W28847  12.250  18.068  12.732
56533W        W28848  12.219   4.553   2.834
56534W        W28849  31.181  35.243  11.811
56535W        W28850  15.494  27.756   3.862
56536W        W28851  29.153  42.454   4.392
56537W        W28852  12.753  36.840  12.683
56538W        W28853   7.280  14.716   2.041
56539W        W28854  32.952  35.011   4.504
56540W        W28855  19.566   7.189  14.414
56541W        W28856  21.291  41.871   3.611
56542W        W28857  41.585  38.971   1.707
56543W        W28858  17.139  27.499  14.494
56544W        W28859  23.630  37.573  11.188
56545W        W28860  32.499  26.966  11.077
56546W        W28861  29.743  10.440   2.161
56547W        W28862  10.382  38.571  14.908
56548W        W28863  28.486  44.358  14.819
56549W        W28864  43.631  10.456  13.493
56550W        W28865   3.771  20.307   0.210
56551W        W28866  10.361  31.706  12.617
56552W        W28867  35.885  11.074   4.231
56553W        W28868  13.912  24.482   4.255
56554W        W28869   4.296  33.121  11.948
56555W        W28870  16.463  34.082  11.422
56556W        W28871   0.554  35.668   1.805
56557W        W28872   3.490  33.332  11.388
56558W        W28873   6.814  28.109  10.706
56559W        W28874   8.762  32.395  11.595
56560W        W28875  29.624  15.936  13.517
56561W        W28876  30.233  23.306   1.746
56562W        W28877  28.682  19.742   0.736
56563W        W28878   4.922  23.043  14.580
56564W        W28879  35.610  11.840   4.176
56565W        W28880  39.027  31.069   3.259
56566W        W28881  41.165  41.437   3.365
56567W        W28882   3.181  40.784   0.707
56568W        W28883  40.140  21.126  11.057
56569W        W28884  13.900  39.376  14.299
56570W        W28885  26.522  43.285  12.625
56571W        W28886  34.115  15.415   4.223
56572W        W28887  13.134  41.385  13.070
56573W        W28888  15.153  44.901  10.400
56574W        W28889  34.941  44.672   2.890
56575W        W28890  30.329  44.175  12.870
56576W        W28891  43.868   3.851   2.021
56577W        W28892   9.857  34.045   3.459
56578W        W28893  43.300  28.493   0.319
56579W        W28894  25.105   1.996   0.435
56580W        W28895  16.139  29.600   3.893
56581W        W28896  25.068  19.677  14.257
56582W        W28897  28.477  44.659   4.289
56583W        W28898  41.549  22.280  10.687
56584W        W28899   1.440   1.468  11.185
56585W        W28900  41.309  42.320  11.547
56586W        W28901  18.048  24.803  14.425
56587W        W28902  20.503  13.925  11.086
56588W        W28903  42.508   2.622  11.960
56589W        W28904   1.999  39.919  11.132
56590W        W28905  43.990  44.298  12.533
56591W        W28906  38.974  13.332   2.406
56592W        W28907  34.329  42.020   1.398
56593W        W28908  42.745  28.195  14.866
56594W        W28909  17.035  27.437  13.021
56595W        W28910   7.662   6.879  10.818
56596W        W28911   4.979  26.030  12.791
56597W        W28912  34.031  18.276  10.906
56598W        W28913  21.777  37.180  12.009
56599W        W28914   0.902   6.821   3.116
56600W        W28915  32.795  37.392   2.796
56601W        W28916  35.002  22.031   1.776
56602W        W28917  31.529   5.407   2.767
56603W        W28918  13.110  37.601  12.627
56604W        W28919  44.819  29.737  11.692
56605W        W28920  20.793  37.724  13.879
56606W        W28921  32.530  42.420  11.551
56607W        W28922  22.887  20.200   0.041
56608W        W28923  10.708  10.287   0.747
56609W        W28924  18.965  39.807  14.563
56610W        W28925  15.268  13.090  12.938
56611W        W28926  26.569  42.971  14.929
56612W        W28927  10.745  40.683   3.336
56613W        W28928   7.484  40.786  13.329
56614W        W28929  30.031  42.920   0.354
56615W        W28930   2.986  34.805   2.131
56616W        W28931  20.636  17.508   1.300
56617W        W28932   8.822  13.632  13.572
56618W        W28933   4.791   4.529  10.745
56619W        W28934   0.200  39.130  13.389
56620W        W28935  43.811  28.244   4.338
56621W        W28936  28.393  40.744   0.712
56622W        W28937  22.928   7.935  12.992
56623W        W28938  43.634  22.513  13.757
56624W        W28939  22.379  31.550   3.789
56625W        W28940  38.428  15.411  14.878
56626W        W28941  17.741  11.358  13.170
56627W        W28942  21.663  34.119   1.797
56628W        W28943  27.128  43.864   3.096
56629W        W28944  26.970   2.424  11.574
56630W        W28945   3.697   3.987  13.978
56631W        W28946  33.926  38.826   4.000
56632W        W28947  34.600  42.430  11.165
56633W        W28948  22.156   5.280   1.981
56634W        W28949  13.478   3.951   4.297
56635W        W28950  12.357  18.537  12.543
56636W        W28951  17.237  10.090   2.386
56637W        W28952  36.061  43.916   3.229
56638W        W28953  13.262  20.088   2.390
56639W        W28954  39.911  36.920   0.559
56640W        W28955  37.162  25.773   4.961
56641W        W28956  44.861  37.569   3.697
56642W        W28957  38.971  29.514  11.382
56643W        W28958  36.061  10.902  14.453
56644W        W28959  31.628  42.300  14.819
56645W        W28960   5.241  40.162  11.558
56646W        W28961   2.938  15.210  13.538
56647W        W28962  37.031  11.036   4.579
56648W        W28963   0.342  44.429   4.399
56649W        W28964  11.326  30.417  10.102
56650W        W28965  10.264  30.457   2.753
56651W        W28966   7.779  40.365   0.903
56652W        W28967  36.910  42.583   0.914
56653W        W28968  19.879  32.862   4.542
56654W        W28969   1.072   8.850  14.941
56655W        W28970   4.358  43.808   2.217
56656W        W28971  17.391  28.424  12.201
56657W        W28972  15.644   5.973   2.544
56658W        W28973   5.766  20.093  13.363
56659W        W28974  34.984  31.624   0.381
56660W        W28975  37.823  22.620  13.907
56661W        W28976  35.769  12.316   0.983
56662W        W28977  17.331   8.804   5.077
56663W        W28978  13.109  13.060  12.124
56664W        W28979  27.771   2.774  12.961
56665W        W28980  34.108  24.928   4.263
56666W        W28981  31.070  20.032   1.802
56667W        W28982  37.204  11.990  12.013
56668W        W28983  11.182   2.671   3.102
56669W        W28984  22.443  44.855   2.352
56670W        W28985   2.141  31.119  11.593
56671W        W28986   1.520  30.755   0.994
56672W        W28987   7.278  18.067  14.313
56673W        W28988  42.574  37.671   1.564
56674W        W28989   8.941   0.714   0.931
56675W        W28990  35.620   4.855  11.898
56676W        W28991   7.837   4.216   4.674
56677W        W28992  26.018  21.888  10.835
56678W        W28993   8.379  34.606   4.232
56679W        W28994  34.953  34.902  12.369
56680W        W28995  16.735  19.807   0.057
56681W        W28996  18.167   2.498   1.697
56682W        W28997  37.317  16.408   0.948
56683W        W28998   3.562  26.954   1.762
56684W        W28999  35.211  39.960   0.202
56685W        W29000   2.246  34.402  11.909
56686W        W29001  36.874  10.892   1.880
56687W        W29002  36.416   2.929  14.791
56688W        W29003  42.554  19.295   4.121
56689W        W29004  18.139  20.037  10.420
56690W        W29005  26.814  26.184  14.000
56691W        W29006   5.223  41.426  12.141
56692W        W29007  18.535  15.793  10.946
56693W        W29008  28.079  26.930  11.583
56694W        W29009  33.917  34.060   3.389
56695W        W29010   3.802  43.407  12.443
56696W        W29011  30.283  35.334   0.370
56697W        W29012  42.452   7.408   4.110
56698W        W29013   5.772  19.063   4.495
56699W        W29014   2.807  44.639  13.252
56700W        W29015   2.692  36.429  13.401
56701W        W29016  29.680  37.303   1.491
56702W        W29017  34.618  10.475   0.397
56703W        W29018  15.265  26.252   4.240
56704W        W29019  38.361  27.640  11.722
56705W        W29020  21.010  38.460  11.390
56706W        W29021  11.385   0.843   0.857
56707W        W29022   3.409  16.326  12.032
56708W        W29023  35.056  34.402   3.256
56709W        W29024  21.224  34.675   1.269
56710W        W29025  31.389   6.918   2.960
56711W        W29026  36.886  28.959   0.396
56712W        W29027  22.134  10.050  10.184
56713W        W29028  41.818  14.101  11.955
56714W        W29029  23.565  21.070   0.930
56715W        W29030   7.316  34.470   1.176
56716W        W29031  40.738  12.637   1.331
56717W        W29032  21.101  35.491   2.338
56718W        W29033  32.083  23.045  14.755
56719W        W29034  37.807  34.052   2.747
56720W        W29035  15.752  12.853   2.198
56721W        W29036  16.367  10.089  12.819
56722W        W29037  22.943  20.715  14.894
56723W        W29038  42.835  13.871  11.093
56724W        W29039  13.441  22.693  14.797
56725W        W29040  32.934  36.437   3.844
56726W        W29041   6.741  34.947  12.466
56727W        W29042  41.278  24.688  11.527
56728W        W29043  27.489   5.407   3.249
56729W        W29044  32.909   7.171   1.320
56730W        W29045  23.536   4.950   3.767
56731W        W29046  32.199  10.153   4.526
56732W        W29047  25.383   8.974  14.338
56733W        W29048  36.390  10.943  11.196
56734W        W29049  23.696  26.682  14.376
56735W        W29050  26.492  29.922  12.900
56736W        W29051  15.783   5.618  11.904
56737W        W29052   5.306  14.277  11.219
56738W        W29053  41.256   4.340   0.375
56739W        W29054  21.906  23.591   3.149
56740W        W29055  33.827  33.132  13.472
56741W        W29056  26.113  16.023   1.712
56742W        W29057  37.960   2.788   4.018
56743W        W29058  17.783  32.452   1.578
56744W        W29059  20.722  18.003   0.372
56745W        W29060   2.152  30.601   4.512
56746W        W29061  34.883  39.659   3.674
56747W        W29062  36.612  32.624  13.063
56748W        W29063  28.643   9.383  14.001
56749W        W29064   9.662  37.578  13.092
56750W        W29065  33.579  18.999   1.421
56751W        W29066  39.617  13.051   0.376
56752W        W29067  30.449  39.003  13.329
56753W        W29068  10.897   8.302  14.811
56754W        W29069  10.174  22.500   4.627
56755W        W29070   9.181   0.468  11.834
56756W        W29071  41.219  41.285   1.950
56757W        W29072   1.818  22.064  10.695
56758W        W29073  14.281  21.636  13.933
56759W        W29074  20.268   5.286  12.624
56760W        W29075   3.639  11.665  10.293
56761W        W29076  36.882  20.709   1.211
56762W        W29077   0.922  14.183   4.037
56763W        W29078   9.845   5.198   2.375
56764W        W29079  35.905  27.013  13.745
56765W        W29080   9.838  11.368  10.804
56766W        W29081  30.488  23.661   1.342
56767W        W29082   8.116  28.559   3.194
56768W        W29083  27.670  22.670  12.054
56769W        W29084  16.159  20.274   3.721
56770W        W29085   8.943  28.607  11.487
56771W        W29086  24.418  16.193  11.182
56772W        W29087   9.272   1.253   4.545
56773W        W29088  27.434  10.639   2.725
56774W        W29089   7.168  11.356  13.006
56775W        W29090  43.021   3.456  13.378
56776W        W29091  36.873  29.083  14.893
56777W        W29092  12.099  36.700   3.575
56778W        W29093  30.175  20.575  14.012
56779W        W29094  42.462  34.176   2.452
56780W        W29095  20.253  38.575  13.789
56781W        W29096  18.840  17.147  11.119
56782W        W29097  28.279  39.061  14.311
56783W        W29098  13.347   3.899  13.358
56784W        W29099   7.101   5.891   2.823
56785W        W29100  16.655  40.502   5.495
56786W        W29101  35.008  43.371  11.189
56787W        W29102  36.188  37.500   4.098
56788W        W29103  33.160  28.618  12.934
56789W        W29104  21.993   8.701  14.773
56790W        W29105  20.498   0.842  13.955
56791W        W29106  40.871   7.421  11.170
56792W        W29107   3.116  37.722   1.400
56793W        W29108   7.119  20.612   1.558
56794W        W29109  15.787   9.575  14.261
56795W        W29110  33.660  18.035   2.814
56796W        W29111  24.246  30.564   3.741
56797W        W29112  16.409  13.410   1.792
56798W        W29113   2.901  28.455  11.166
56799W        W29114   0.800  38.999  12.127
56800W        W29115  16.371  29.725  11.477
56801W        W29116  22.126  12.422  14.982
56802W        W29117  34.281   6.474   2.740
56803W        W29118  15.419  13.919  14.863
56804W        W29119   8.069  31.958  10.261
56805W        W29120  30.961  11.341  14.872
56806W        W29121  23.086  13.749   2.138
56807W        W29122  32.410   0.946   2.847
56808W        W29123  41.257  44.764  11.607
56809W        W29124   8.037   6.795   3.715
56810W        W29125  25.159  11.800   0.437
56811W        W29126  27.813  39.345   4.171
56812W        W29127   1.254  32.637  13.985
56813W        W29128  25.650   6.271  14.391
56814W        W29129  26.112  39.315   1.447
56815W        W29130  13.802   1.084  12.824
56816W        W29131  26.502  23.985  12.528
56817W        W29132  31.927   4.486  11.577
56818W        W29133  33.630   9.157   2.232
56819W        W29134   9.222   4.728   3.715
56820W        W29135  13.304  28.967  11.434
56821W        W29136   9.316   6.382   1.326
56822W        W29137  36.950   8.695   4.923
56823W        W29138  20.917   1.547  10.465
56824W        W29139  44.196  34.469  14.834
56825W        W29140  22.443  34.432   0.389
56826W        W29141   8.876  22.524   0.279
56827W        W29142  27.506  37.922  10.484
56828W        W29143  44.735  41.563  11.998
56829W        W29144   0.928  27.661  13.243
56830W        W29145  43.567  10.595  12.530
56831W        W29146   2.815   7.223  12.779
56832W        W29147  17.710  38.445   2.989
56833W        W29148  23.437  15.149  12.611
56834W        W29149  22.693  25.590   3.388
56835W        W29150   6.907  38.823  13.853
56836W        W29151  10.787  32.911   0.402
56837W        W29152  27.120  31.757   5.468
56838W        W29153  20.648  33.000   3.753
56839W        W29154   5.286  25.055   0.051
56840W        W29155  35.010  25.773  13.983
56841W        W29156   8.794  27.452   1.249
56842W        W29157  19.298  16.853   2.710
56843W        W29158  36.182  14.279   4.501
56844W        W29159   1.989   3.519   2.302
56845W        W29160   4.065  26.899  13.189
56846W        W29161   3.868  26.992  11.099
56847W        W29162  10.786   8.336  12.927
56848W        W29163   3.399  15.680   4.203
56849W        W29164  44.251  44.655   1.355
56850W        W29165   0.886   5.560   3.532
56851W        W29166  24.437  30.994   0.353
56852W        W29167   1.892   4.992  14.424
56853W        W29168  29.175  38.591   1.451
56854W        W29169   8.512  35.035   1.952
56855W        W29170  28.931  39.267   2.858
56856W        W29171  19.632  27.520  13.749
56857W        W29172  15.552  11.177   2.756
56858W        W29173  36.657  18.746   1.248
56859W        W29174   9.695  20.518   3.262
56860W        W29175  18.788  32.049  12.071
56861W        W29176   3.274  18.659  14.606
56862W        W29177   5.837   6.415  11.640
56863W        W29178   9.306   0.875   1.944
56864W        W29179   0.644  33.697   1.448
56865W        W29180   4.694  10.500   1.982
56866W        W29181  27.990   6.487  11.500
56867W        W29182  24.979  12.749   2.212
56868W        W29183  24.964  29.916   0.057
56869W        W29184  31.189  23.660   0.751
56870W        W29185  16.572   3.796  11.712
56871W        W29186   7.381  22.097   1.226
56872W        W29187  23.616  14.666  12.350
56873W        W29188  19.769  44.008  14.865
56874W        W29189  44.008   7.622  11.913
56875W        W29190   5.192  29.996  11.116
56876W        W29191  11.595  16.054  12.688
56877W        W29192  35.794  10.236   2.321
56878W        W29193  29.132  26.283  12.489
56879W        W29194  42.106   1.746   0.800
56880W        W29195   9.801  15.545   0.700
56881W        W29196  11.743   1.387   4.026
56882W        W29197  17.613  31.021  11.225
56883W        W29198  13.757  34.604   0.460
56884W        W29199  15.605  36.798   2.272
56885W        W29200  35.112  34.447  11.107
56886W        W29201   9.787  34.454  12.113
56887W        W29202  10.395  39.139   1.421
56888W        W29203  15.816  19.712  11.006
56889W        W29204  25.175  16.535   3.206
56890W        W29205  31.893  29.778  10.730
56891W        W29206   3.207  18.042  10.624
56892W        W29207  12.398  18.821   2.201
56893W        W29208  33.405   1.047   4.244
56894W        W29209   2.505   6.643  13.806
56895W        W29210  41.428  18.037   1.197
56896W        W29211  32.324  42.976  13.641
56897W        W29212  24.845  37.528   2.203
56898W        W29213   9.333  41.261   3.157
56899W        W29214   7.711  42.042   0.567
56900W        W29215  38.099  41.296   4.588
56901W        W29216  39.208  17.667  11.509
56902W        W29217  42.105  17.530   1.474
56903W        W29218   4.001  24.070   0.828
56904W        W29219  10.989  15.772   3.781
56905W        W29220  31.189  21.670  10.925
56906W        W29221  30.074  41.435  10.512
56907W        W29222  32.941   0.843   0.995
56908W        W29223  33.562  43.254   1.853
56909W        W29224  44.903  15.223  12.324
56910W        W29225  41.393  23.449   1.502
56911W        W29226  16.557  32.573  11.955
56912W        W29227  30.612   8.116   0.446
56913W        W29228  15.479  23.748   3.913
56914W        W29229  27.982  43.552  14.872
56915W        W29230  12.945  16.761  13.634
56916W        W29231  22.435  43.950   0.363
56917W        W29232  28.177   7.167  14.458
56918W        W29233  37.771  10.297   4.689
56919W        W29234  29.200  43.964   3.326
56920W        W29235  30.570  37.905   3.800
56921W        W29236  13.274  42.115  14.335
56922W        W29237  32.861  22.008  13.816
56923W        W29238   3.406  34.234   9.833
56924W        W29239  19.695  15.862  13.076
56925W        W29240  38.069  39.594  13.138
56926W        W29241  40.056  10.801  12.905
56927W        W29242   3.398   1.562   1.668
56928W        W29243  42.192   6.669   3.744
56929W        W29244  21.156  27.355  10.229
56930W        W29245  35.444  12.646   0.714
56931W        W29246  40.400   4.203   0.960
56932W        W29247  35.660  12.449  13.813
56933W        W29248   4.281  40.732  11.040
56934W        W29249  22.160  11.136  10.479
56935W        W29250  12.288  44.804  12.930
56936W        W29251   5.737   4.127   2.639
56937W        W29252  12.272   3.445  11.081
56938W        W29253  14.828  34.513   1.979
56939W        W29254  40.287  25.716   4.634
56940W        W29255  42.291  25.131   2.382
56941W        W29256  42.517  26.416  12.712
56942W        W29257  32.859   9.686   3.277
56943W        W29258   1.969  31.067   4.218
56944W        W29259  13.359  29.427   0.819
56945W        W29260   1.534  13.520  13.562
56946W        W29261   6.898  37.266   4.514
56947W        W29262  34.338   4.660   1.784
56948W        W29263  15.497  35.719  13.390
56949W        W29264   5.459  27.563   3.275
56950W        W29265  35.076  42.744  12.976
56951W        W29266  43.856  23.776   4.600
56952W        W29267  42.234   5.419   4.282
56953W        W29268  20.748  23.954   0.206
56954W        W29269  14.458  36.521   2.802
56955W        W29270  32.604  30.557   3.178
56956W        W29271  43.389  40.432  14.905
56957W        W29272  41.101  34.503   1.392
56958W        W29273  11.918  42.352  14.286
56959W        W29274  16.023  31.278   1.237
56960W        W29275   0.523  31.116  13.848
56961W        W29276   8.708  25.608   1.786
56962W        W29277  16.843  40.135   3.883
56963W        W29278   8.878  23.220  10.735
56964W        W29279  21.727  14.317   4.203
56965W        W29280  37.655   1.383   3.356
56966W        W29281  28.993  10.515  10.592
56967W        W29282  31.850  10.581   1.624
56968W        W29283  11.793  32.145   4.510
56969W        W29284  39.484   5.385  12.526
56970W        W29285  38.069  15.563   1.483
56971W        W29286  11.741   5.389  13.048
56972W        W29287  39.630  22.932   3.627
56973W        W29288  40.284  31.583   1.874
56974W        W29289  32.444  28.957   1.929
56975W        W29290  13.829  27.166   4.623
56976W        W29291  40.772  23.444  12.495
56977W        W29292  23.738   6.333   4.525
56978W        W29293  31.138  17.670   2.866
56979W        W29294  18.359  43.697  11.588
56980W        W29295  15.655   9.076  13.382
56981W        W29296  43.918  25.163  10.732
56982W        W29297   7.342  39.344   0.223
56983W        W29298   1.710  33.324   5.462
56984W        W29299  20.234  40.086  12.950
56985W        W29300  26.686   4.129  14.137
56986W        W29301   9.904  17.609   0.970
56987W        W29302  38.582  42.801  11.449
56988W        W29303  13.243  16.605   4.793
56989W        W29304  30.378  34.708   3.489
56990W        W29305  40.977  13.904  11.258
56991W        W29306   0.349  38.748   1.362
56992W        W29307  40.430   4.218  14.391
56993W        W29308  40.364  13.850   3.654
56994W        W29309  31.801   0.946  14.282
56995W        W29310   4.240  34.669   1.397
56996W        W29311  30.043  34.484  13.571
56997W        W29312  17.273  24.809   0.749
56998W        W29313  28.061  12.146   1.487
56999W        W29314  35.593  26.749   4.603
57000W        W29315  35.058  40.374   4.529
57001W        W29316  18.405  15.407  10.196
57002W        W29317  38.036  13.276   4.578
57003W        W29318  35.949  24.109   3.666
57004W        W29319  39.493  19.268   2.275
57005W        W29320  35.920  39.716  11.190
57006W        W29321   3.957  21.267  14.019
57007W        W29322  13.134  38.260   4.539
57008W        W29323  19.670  27.945  12.032
57009W        W29324  14.349  18.880  11.600
57010W        W29325  10.135   6.416  14.967
57011W        W29326   7.894  30.040   4.148
57012W        W29327  43.584   3.713   0.446
57013W        W29328  28.816  11.394  13.308
57014W        W29329  39.148   7.200   4.191
57015W        W29330  36.588   3.812  11.920
57016W        W29331  41.823  30.048  13.788
57017W        W29332   2.274  37.567  11.075
57018W        W29333   1.316   6.777  12.427
57019W        W29334  11.894  36.235  13.443
57020W        W29335  24.483  44.521   2.455
57021W        W29336  36.891  36.771  14.205
57022W        W29337  29.950  17.638   2.583
57023W        W29338  33.411   9.226   5.035
57024W        W29339  20.900  42.744   0.407
57025W        W29340  44.289  37.759   0.358
57026W        W29341  38.027   7.415  13.907
57027W        W29342  12.067  27.140  13.062
57028W        W29343  43.493  37.704  14.964
57029W        W29344   2.367   1.937  11.987
57030W        W29345  36.712  22.102  14.348
57031W        W29346   2.370  38.942  14.329
57032W        W29347  19.205  40.788   5.015
57033W        W29348  30.921   6.737  11.473
57034W        W29349  31.621   2.042  12.821
57035W        W29350  40.089   1.013  12.666
57036W        W29351  42.199  19.683  11.494
57037W        W29352  21.754   4.341  13.871
57038W        W29353  43.427   2.745  13.869
57039W        W29354  30.523   4.699   3.250
57040W        W29355  32.124  36.961  14.171
57041W        W29356   4.965  13.390  14.362
57042W        W29357  13.612  14.179   3.148
57043W        W29358  24.928  34.344  13.733
57044W        W29359   5.600   1.273  12.871
57045W        W29360  20.350  44.576   1.730
57046W        W29361  24.175  23.467  13.260
57047W        W29362  41.006  24.559  12.424
57048W        W29363  27.036  41.198   0.952
57049W        W29364  26.008  15.156   1.886
57050W        W29365  28.678  15.625  12.036
57051W        W29366  41.922   3.025  14.859
57052W        W29367  36.144   4.782  13.819
57053W        W29368   4.657  37.831   3.659
57054W        W29369   5.996  36.870   4.349
57055W        W29370   6.789  36.804  13.907
57056W        W29371  23.125  16.597  12.126
57057W        W29372  12.956   6.559  11.504
57058W        W29373  10.605  41.413  14.771
57059W        W29374  41.886  12.949  13.600
57060W        W29375  16.200   6.690   0.405
57061W        W29376   9.620  33.083  13.334
57062W        W29377  42.694   2.041   2.052
57063W        W29378  12.503  19.350  13.469
57064W        W29379  25.216  42.087   1.771
57065W        W29380   1.719  43.930  14.327
57066W        W29381  18.337  27.069  13.439
57067W        W29382   9.825  42.319  12.329
57068W        W29383  40.279   5.301   3.774
57069W        W29384  39.318  18.828  13.988
57070W        W29385  28.148  26.464   1.876
57071W        W29386  44.375  19.526   0.568
57072W        W29387  18.544  24.049  13.002
57073W        W29388  29.773  24.528  12.403
57074W        W29389  22.232  40.245  12.483
57075W        W29390   5.470  30.081  13.879
57076W        W29391  24.966  32.506   4.649
57077W        W29392  19.094  24.168   1.042
57078W        W29393  17.002   2.788   1.138
57079W        W29394  28.653  21.410  10.952
57080W        W29395  43.729  12.499  10.679
57081W        W29396  31.717  41.404  14.740
57082W        W29397  16.088   6.743   4.765
57083W        W29398  34.158  28.571   1.481
57084W        W29399  19.328  23.952   4.743
57085W        W29400   5.552  13.501  12.047
57086W        W29401  36.106  42.926   4.270
57087W        W29402  34.230   3.195   0.515
57088W        W29403  15.894  25.048  10.647
57089W        W29404   7.622  18.755  13.975
57090W        W29405  22.428  18.303   2.029
57091W        W29406  28.856  28.214  14.583
57092W        W29407  28.242  18.487  12.294
57093W        W29408  35.452  38.432   1.414
57094W        W29409  40.849  12.052   0.318
57095W        W29410  27.162  27.722  12.435
57096W        W29411  11.962  36.476   4.315
57097W        W29412  27.132  13.157  14.388
57098W        W29413   4.273   6.190  13.731
57099W        W29414  17.972  32.855  14.250
57100W        W29415   2.393  32.864  13.577
57101W        W29416  17.055  14.141   1.862
57102W        W29417  41.851   5.829  14.158
57103W        W29418  17.319  44.033   0.498
57104W        W29419  41.390  19.620  12.095
57105W        W29420  29.961   9.720  10.993
57106W        W29421  27.616  15.658  13.966
57107W        W29422  19.427  35.621  14.460
57108W        W29423  29.118   8.581   0.753
57109W        W29424  30.061  32.478   4.941
57110W        W29425  22.128  10.338  11.189
57111W        W29426   1.158  28.078   4.238
57112W        W29427   9.219  20.628  11.962
57113W        W29428  18.675   3.204  10.050
57114W        W29429  25.545  22.219  13.977
57115W        W29430   5.297  30.541   1.957
57116W        W29431  21.078   8.641  10.129
57117W        W29432   8.221   3.123   4.638
57118W        W29433  29.868   9.444   1.275
57119W        W29434   8.345   6.133  14.816
57120W        W29435  22.715  17.758  12.424
57121W        W29436   2.469   7.756   4.562
57122W        W29437   3.707   0.824  12.611
57123W        W29438  11.206  19.804   3.174
57124W        W29439  26.961  27.363   2.858
57125W        W29440   8.256  11.999  13.894
57126W        W29441   5.750  29.187  14.307
57127W        W29442   1.943  17.132  13.053
57128W        W29443  17.165  26.594  14.472
57129W        W29444  26.203  42.385   4.484
57130W        W29445  35.979  17.596  13.885
57131W        W29446   3.779  30.497  13.422
57132W        W29447   0.381  22.990  11.048
57133W        W29448  37.678  33.857  13.533
57134W        W29449  20.578  37.877  14.336
57135W        W29450  20.777  28.775   4.109
57136W        W29451  31.701  17.722  11.847
57137W        W29452   1.883   9.432  13.955
57138W        W29453  33.679  43.900  12.969
57139W        W29454  32.508  39.592  12.027
57140W        W29455  19.137   9.765   1.438
57141W        W29456  21.263  12.173   1.931
57142W        W29457   8.412   0.792  12.678
57143W        W29458   1.962   8.042  11.085
57144W        W29459  12.901  42.298   2.294
57145W        W29460  39.708   3.208  11.189
57146W        W29461  29.888  37.857   2.086
57147W        W29462  15.596  21.947  14.856
57148W        W29463  25.940  14.664  10.753
57149W        W29464   2.462  20.799  10.808
57150W        W29465   0.005  12.877   3.328
57151W        W29466  33.129  41.719   2.330
57152W        W29467  40.839  44.978  12.440
57153W        W29468  28.850   9.958   1.705
57154W        W29469  17.401  13.085  12.392
57155W        W29470  26.063  39.468  14.773
57156W        W29471  42.185  32.053  11.955
57157W        W29472   5.859  22.445   4.006
57158W        W29473  29.962   9.147  13.598
57159W        W29474  39.960  27.033   3.157
57160W        W29475  20.960   1.502   3.792
57161W        W29476  34.350  21.234  13.457
57162W        W29477  41.256  29.140   4.107
57163W        W29478  21.638  16.554  14.536
57164W        W29479  29.503   8.650   1.964
57165W        W29480   1.885  20.060   2.235
57166W        W29481  21.312   4.258  14.817
57167W        W29482  29.168   9.143   0.785
57168W        W29483  41.248  15.002  14.476
57169W        W29484  23.493  42.967  10.634
57170W        W29485  18.747  33.836   1.647
57171W        W29486  35.147  41.741   0.742
57172W        W29487  28.326  26.029   2.755
57173W        W29488  35.797  39.469  10.725
57174W        W29489  37.514  12.596  11.973
57175W        W29490  17.855  35.943  14.355
57176W        W29491  39.265   6.223  10.682
57177W        W29492  32.060  41.432   0.718
57178W        W29493  25.660  42.859   1.698
57179W        W29494   9.831  34.534   4.270
57180W        W29495  25.660  15.658   3.987
57181W        W29496   9.885   1.960   1.839
57182W        W29497  32.158  27.529   2.152
57183W        W29498  21.524   5.374   0.851
57184W        W29499  41.917  30.371   2.780
57185W        W29500  29.073  33.971  11.444
57186W        W29501  10.226  12.315   1.245
57187W        W29502  28.195   8.105   3.095
57188W        W29503  23.327  21.268   0.370
57189W        W29504  18.004   8.177   0.013
57190W        W29505  40.147  42.716  14.485
57191W        W29506  11.371  17.075  12.939
57192W        W29507  11.927  20.500  14.879
57193W        W29508  25.005  25.204  13.474
57194W        W29509  28.057  17.804   0.562
57195W        W29510  10.648  21.065  14.241
57196W        W29511  40.065  42.169  11.174
57197W        W29512  12.380   6.294   0.465
57198W        W29513  15.341  28.617  11.513
57199W        W29514  30.934   2.894   4.625
57200W        W29515  27.449  32.925   3.348
57201W        W29516  32.535  38.517   1.855
57202W        W29517  24.159   9.360   0.377
57203W        W29518  12.577   3.945  14.889
57204W        W29519  17.807   0.193   3.699
57205W        W29520  25.205  10.668  10.360
57206W        W29521  10.671  39.928   2.381
57207W        W29522   7.792  14.210   1.538
57208W        W29523  44.816  35.131   4.206
57209W        W29524  34.604  23.818  13.493
57210W        W29525  33.556   1.804  12.997
57211W        W29526  35.281  22.749  12.885
57212W        W29527   5.469  16.668   2.838
57213W        W29528  41.545  20.063   4.311
57214W        W29529  33.668  31.437   0.717
57215W        W29530  31.072  21.786   4.055
57216W        W29531  26.459   6.436  11.439
57217W        W29532  27.994  29.002   3.718
57218W        W29533  26.101  22.073   4.583
57219W        W29534   2.182   7.816   2.215
57220W        W29535  33.402  27.236   3.140
57221W        W29536  21.140  23.753  13.924
57222W        W29537  23.242  22.797   4.206
57223W        W29538   0.649  29.106   1.038
57224W        W29539  36.689   8.369  12.991
57225W        W29540   8.771  24.524  12.552
57226W        W29541  15.814  16.138  10.678
57227W        W29542   8.150  23.694   2.586
57228W        W29543  19.685  15.984   4.048
57229W        W29544   4.862  20.878   1.747
57230W        W29545  24.640  36.461  12.245
57231W        W29546   3.064  41.964   0.638
57232W        W29547   5.570  43.635   3.832
57233W        W29548  33.364  35.173   4.215
57234W        W29549  32.072  20.492   2.294
57235W        W29550  32.683  25.200   4.030
57236W        W29551   3.152  27.048   3.733
57237W        W29552  30.700   3.783   4.736
57238W        W29553  38.013   2.956  12.623
57239W        W29554  33.988  13.357   2.192
57240W        W29555   3.781  19.130   3.180
57241W        W29556  35.148   6.919   3.537
57242W        W29557  32.196   4.161   2.917
57243W        W29558  13.242  25.237  13.495
57244W        W29559  22.990   3.487  14.971
57245W        W29560  15.012  26.861   2.914
57246W        W29561  25.011  21.678  14.480
57247W        W29562  16.276   0.670   2.160
57248W        W29563  15.160  31.974   0.739
57249W        W29564  30.480  28.979  13.437
57250W        W29565  40.363  17.615   0.359
57251W        W29566  12.580  44.708   0.430
57252W        W29567  32.132  36.561  12.523
57253W        W29568   7.586  37.354  13.056
57254W        W29569   0.196  31.937  10.933
57255W        W29570  18.686  23.542  13.117
57256W        W29571   5.123  15.365   3.343
57257W        W29572  39.966  35.630   0.445
57258W        W29573  24.078  41.803  11.630
57259W        W29574  22.748  34.978  11.603
57260W        W29575  42.800   9.666   1.424
57261W        W29576  26.559  40.287   2.169
57262W        W29577  24.242  42.747  13.950
57263W        W29578  35.600  33.127  12.825
57264W        W29579  32.160  42.321  14.831
57265W        W29580  43.076  29.910   2.672
57266W        W29581  39.098  11.810   0.260
57267W        W29582  10.680  29.524   1.263
57268W        W29583   2.405  18.129  14.490
57269W        W29584  30.149  30.448   3.558
57270W        W29585   9.911  13.298  12.234
57271W        W29586  10.586  14.201   0.819
57272W        W29587  14.716  39.659   4.371
57273W        W29588  42.042  38.383  12.293
57274W        W29589  21.569  17.612  11.146
57275W        W29590  42.723  32.070   4.834
57276W        W29591  14.736  14.286  12.474
57277W        W29592   4.505  23.176   0.818
57278W        W29593  39.366  18.167  14.282
57279W        W29594  25.390  29.373  12.110
57280W        W29595   8.475  20.094   4.725
57281W        W29596  19.608  33.256  12.519
57282W        W29597  39.441  39.258   0.050
57283W        W29598  13.850   1.794  12.611
57284W        W29599  13.619  22.036  13.846
57285W        W29600  20.310   7.967  10.696
57286W        W29601  30.614  14.757   3.278
57287W        W29602  28.372  13.079  12.211
57288W        W29603  37.342  41.291   3.160
57289W        W29604   2.418   8.148   3.609
57290W        W29605  21.786   7.154   0.410
57291W        W29606   3.969  31.404  11.633
57292W        W29607  43.085   9.718  11.543
57293W        W29608  43.190  25.882  12.119
57294W        W29609   7.915   6.182   2.010
57295W        W29610  16.707  28.397   5.014
57296W        W29611  25.610  14.857  13.105
57297W        W29612   9.609  44.204  11.196
57298W        W29613   9.797  26.477  14.928
57299W        W29614  26.111  16.087  10.831
57300W        W29615  23.507  18.862   2.106
57301W        W29616  16.252  11.616   4.816
57302W        W29617  35.536  20.717  11.875
57303W        W29618  16.002  18.629   1.446
57304W        W29619  26.511  41.397  13.993
57305W        W29620   7.661  34.067   2.836
57306W        W29621  36.381   0.773   2.139
57307W        W29622   3.444  31.700   4.330
57308W        W29623   5.998  25.024  10.424
57309W        W29624  20.943  24.283  11.138
57310W        W29625  34.661  18.697   1.431
57311W        W29626  30.778   1.064  10.398
57312W        W29627  40.624  24.317   4.507
57313W        W29628  41.100   8.478   2.306
57314W        W29629  10.854   4.856  10.728
57315W        W29630   6.703  11.095  13.668
57316W        W29631  20.951   3.423  11.148
57317W        W29632   9.269  22.333   3.769
57318W        W29633  41.045  26.138   3.674
57319W        W29634  13.095  14.060  11.227
57320W        W29635   8.478   8.230  12.216
57321W        W29636   9.328  31.657  11.559
57322W        W29637   4.891   6.954   0.382
57323W        W29638   6.939  37.532  13.321
57324W        W29639  25.274  31.127  14.329
57325W        W29640   9.932  29.959  14.879
57326W        W29641  23.924  13.299   3.629
57327W        W29642  25.012  43.846  13.049
57328W        W29643  24.798  34.957  13.782
57329W        W29644  41.362  42.936   0.347
57330W        W29645  36.579  42.490  14.222
57331W        W29646   7.312  23.181   0.304
57332W        W29647  16.887   2.501   4.176
57333W        W29648  28.229  36.028   4.705
57334W        W29649  39.252  34.639   1.806
57335W        W29650  17.949  30.098  13.402
57336W        W29651  20.701  35.664  13.877
57337W        W29652  22.105  37.687  10.160
57338W        W29653  42.855  29.214   3.247
57339W        W29654   9.591  37.045   3.333
57340W        W29655  21.571  21.462   0.214
57341W        W29656  38.592  44.551  11.073
57342W        W29657  41.831   6.413  10.928
57343W        W29658  22.200  15.480  12.350
57344W        W29659  37.423   4.267   3.115
57345W        W29660  10.795  15.375   2.466
57346W        W29661  44.871   1.089   4.573
57347W        W29662   1.832  16.103   1.384
57348W        W29663  21.572  33.720   2.289
57349W        W29664  37.583  28.210   0.226
57350W        W29665   0.070  17.032  10.058
57351W        W29666  31.727  43.754  14.892
57352W        W29667  16.089  15.486   3.687
57353W        W29668   4.726  17.893   1.739
57354W        W29669   4.489   4.653  11.170
57355W        W29670  24.085  34.896  11.055
57356W        W29671  25.601  15.141   4.810
57357W        W29672  20.675  22.662  11.193
57358W        W29673  16.640  26.123   1.425
57359W        W29674  38.136  23.227   3.658
57360W        W29675  31.082  29.364   3.956
57361W        W29676   3.227  41.532  10.722
57362W        W29677  29.426  27.195  14.520
57363W        W29678  23.499  41.733   2.271
57364W        W29679  32.902  39.229  14.002
57365W        W29680  21.999  24.505   4.622
57366W        W29681   8.718  17.264  10.796
57367W        W29682  39.958  33.867   3.675
57368W        W29683  24.473  37.468   2.571
57369W        W29684  25.658   0.888   4.742
57370W        W29685  19.068  12.774  11.921
57371W        W29686  12.776  41.697  11.929
57372W        W29687   8.721   8.724   1.364
57373W        W29688  17.826  18.126  11.595
57374W        W29689  44.528   8.381   2.313
57375W        W29690  19.163   5.317   2.721
57376W        W29691  42.772   3.362  12.435
57377W        W29692  25.179  25.630  13.731
57378W        W29693  33.036  25.434   0.520
57379W        W29694  11.864  10.697  12.401
57380W        W29695  21.948  38.724   0.759
57381W        W29696  15.921  27.144  13.380
57382W        W29697  31.764  20.789  11.728
57383W        W29698  41.151  36.884   0.946
57384W        W29699   2.167  24.493   3.403
57385W        W29700  38.304  13.260  14.952
57386W        W29701  38.965  38.389   4.120
57387W        W29702   5.652   0.910  12.482
57388W        W29703  20.294   4.146   2.619
57389W        W29704  34.591  18.262   2.284
57390W        W29705  41.025   2.814   2.244
57391W        W29706   1.857  23.666   0.268
57392W        W29707  22.569  22.010   5.436
57393W        W29708   4.982   4.306   2.180
57394W        W29709  33.626  16.524   4.591
57395W        W29710  14.452  38.856  12.437
57396W        W29711   0.351  29.850   3.078
57397W        W29712   5.423  18.823  13.304
57398W        W29713  11.412   2.772  11.991
57399W        W29714  25.893  27.965  10.692
57400W        W29715  40.756  19.350   1.322
57401W        W29716   9.657  36.655  13.497
57402W        W29717   7.720  40.236  12.821
57403W        W29718  11.620  35.223  14.951
57404W        W29719  42.999   8.336  12.594
57405W        W29720  32.373   8.485  11.199
57406W        W29721  20.422  28.928  10.435
57407W        W29722  26.806  31.669  10.183
57408W        W29723  38.297  32.377  10.599
57409W        W29724   2.841  43.741   0.694
57410W        W29725   0.408  30.145  10.933
57411W        W29726   5.153  10.906  11.648
57412W        W29727   8.692  22.678   4.153
57413W        W29728  23.482  13.622   3.659
57414W        W29729  37.003  17.791  13.847
57415W        W29730  23.258  31.586  11.006
57416W        W29731   6.300   7.110  11.079
57417W        W29732   3.936  12.714   3.940
57418W        W29733  19.154  13.248  11.664
57419W        W29734   8.160  22.811  13.497
57420W        W29735   1.324   7.300  11.489
57421W        W29736  23.640  11.641  13.939
57422W        W29737   7.393   1.188  13.951
57423W        W29738  38.059  25.002  13.498
57424W        W29739  10.906  16.331  14.375
57425W        W29740  22.313  14.120   3.363
57426W        W29741  17.127   9.272   4.997
57427W        W29742   6.948  25.167  10.573
57428W        W29743  18.083  25.284   1.802
57429W        W29744  25.547  10.145   2.169
57430W        W29745  39.117  21.294   4.211
57431W        W29746  10.854  26.265  14.427
57432W        W29747  28.078   8.861  12.185
57433W        W29748   4.803  26.423   4.161
57434W        W29749  20.401   7.417   5.095
57435W        W29750   3.723  19.564  10.196
57436W        W29751  24.207   0.767  13.515
57437W        W29752  16.674   2.074   2.263
57438W        W29753  34.948  32.126   4.141
57439W        W29754   6.164   5.426   2.736
57440W        W29755  24.638  34.939  12.901
57441W        W29756  23.825  17.803   4.185
57442W        W29757  34.593  29.974  13.998
57443W        W29758  38.850  37.989   0.418
57444W        W29759  10.811   3.339   0.192
57445W        W29760   9.751  43.358  11.216
57446W        W29761   1.551  42.152   3.290
57447W        W29762  34.523  43.903   4.813
57448W        W29763  21.888  42.459  13.813
57449W        W29764  15.741  43.275  14.350
57450W        W29765  43.761   6.462   0.566
57451W        W29766  19.847  12.686   3.945
57452W        W29767  34.303  27.536   1.340
57453W        W29768  34.134   0.794   2.333
57454W        W29769  12.254  21.410   1.915
57455W        W29770  12.915  25.135   0.513
57456W        W29771  11.774  30.664  10.179
57457W        W29772  20.989  37.929  14.628
57458W        W29773   5.794  15.786   0.366
57459W        W29774  35.969  20.919   2.355
57460W        W29775  35.735  18.734  10.737
57461W        W29776  33.754  23.537  13.135
57462W        W29777  18.356   5.007   3.123
57463W        W29778  28.002  32.157  12.404
57464W        W29779  16.129  36.039  13.844
57465W        W29780   1.287   0.769   2.337
57466W        W29781  23.533  42.404   1.080
57467W        W29782  12.615  38.574   4.678
57468W        W29783  41.005  19.764   0.392
57469W        W29784  18.177   9.430  12.217
57470W        W29785  40.437  14.842  12.722
57471W        W29786  12.597  18.491   0.749
57472W        W29787   0.217  32.562   4.160
57473W        W29788   0.773  32.737  10.593
57474W        W29789  36.567  23.946   3.416
57475W        W29790   4.817  14.727   0.723
57476W        W29791  21.589  25.680  11.509
57477W        W29792  26.383  20.810  13.184
57478W        W29793  33.199  42.386   3.385
57479W        W29794  32.547  28.655   2.352
57480W        W29795   0.891  13.219   3.734
57481W        W29796  29.732  44.879  10.895
57482W        W29797  27.096  19.838   0.818
57483W        W29798  10.701  11.048   1.272
57484W        W29799  32.108   8.231  10.825
57485W        W29800   8.662   5.072  11.173
57486W        W29801  43.029  26.183  12.524
57487W        W29802  33.542  10.217  13.083
57488W        W29803  13.389  40.068   3.205
57489W        W29804   6.333  29.908  10.731
57490W        W29805   8.169   5.337  14.356
57491W        W29806  11.840  33.849  14.520
57492W        W29807   2.609  12.983   4.104
57493W        W29808  10.380  22.749   0.349
57494W        W29809  29.152  39.574   1.914
57495W        W29810  32.136  33.484  11.405
57496W        W29811  41.346  37.707  14.970
57497W        W29812  39.861  43.039   3.674
57498W        W29813  39.528   5.178  10.582
57499W        W29814  34.426  20.286   0.429
57500W        W29815  20.572   0.842  11.596
57501W        W29816   5.422   1.397   0.676
57502W        W29817  14.858   4.912   3.657
57503W        W29818  40.137   2.865   1.207
57504W        W29819  37.533  31.536  13.456
57505W        W29820   0.384  15.370   4.288
57506W        W29821  14.415  15.207   4.599
57507W        W29822  10.082  26.003   0.219
57508W        W29823  31.508  20.092   2.866
57509W        W29824  15.258   8.053   2.124
57510W        W29825  28.631  33.899   3.121
57511W        W29826   3.395  21.223   1.275
57512W        W29827  21.661  15.234   4.394
57513W        W29828  18.190  41.934   4.226
57514W        W29829  17.920  34.849  13.857
57515W        W29830   2.486   1.405  13.096
57516W        W29831  14.874   1.263   3.371
57517W        W29832  11.358  37.816  11.283
57518W        W29833  36.034  44.840   2.700
57519W        W29834  13.809  31.054   1.394
57520W        W29835  20.573  14.504   1.650
57521W        W29836  21.064  20.073  14.677
57522W        W29837  21.830  44.364   1.889
57523W        W29838  40.488  16.725  12.050
57524W        W29839  42.340  37.242   1.677
57525W        W29840  44.939  23.541   1.296
57526W        W29841   7.303   2.330   1.127
57527W        W29842  31.407  27.994  13.107
57528W        W29843  10.412  26.985   1.165
57529W        W29844  21.355  40.030   1.879
57530W        W29845  15.384  12.250  14.875
57531W        W29846   6.292   2.617   2.364
57532W        W29847   0.762  19.015   2.449
57533W        W29848   8.903  29.986  11.153
57534W        W29849  12.586  10.951   3.742
57535W        W29850  12.767  32.432   0.988
57536W        W29851   4.701  24.973  11.080
57537W        W29852   1.221  23.285   3.579
57538W        W29853  33.891  20.120   2.096
57539W        W29854   3.422  19.533  12.931
57540W        W29855   8.141  12.294  12.872
57541W        W29856  41.371  27.611  10.734
57542W        W29857   7.344   5.113   1.340
57543W        W29858  22.262   5.779   0.002
57544W        W29859  33.446  16.559   1.382
57545W        W29860   0.710  31.190   4.656
57546W        W29861  20.585  17.306   3.175
57547W        W29862   2.505  11.130   3.046
57548W        W29863  25.749  31.734  13.572
57549W        W29864   3.957  23.538   4.520
57550W        W29865  17.586   4.670   3.906
57551W        W29866  15.877   6.673  11.353
57552W        W29867  31.850  38.948   4.219
57553W        W29868  10.702   6.431   2.421
57554W        W29869   7.000  31.343  11.663
57555W        W29870   0.779  28.019  14.764
57556W        W29871  22.784   6.401   3.495
57557W        W29872  33.673  26.377  13.393
57558W        W29873  37.605   1.729   1.601
57559W        W29874  16.102  38.030  13.793
57560W        W29875  34.132  23.739  10.900
57561W        W29876  25.490   0.819   3.789
57562W        W29877   8.447  42.509  10.772
57563W        W29878  41.516  14.749   3.290
57564W        W29879  20.105  31.091  12.767
57565W        W29880  22.568   1.697  14.854
57566W        W29881  25.980   2.960   1.313
57567W        W29882  27.577  36.994   0.719
57568W        W29883   6.462  25.957  12.447
57569W        W29884   0.564  34.193   0.669
57570W        W29885   6.521   2.164  12.431
57571W        W29886   9.908  14.629  12.473
57572W        W29887  17.663  19.595   0.418
57573W        W29888  36.484   0.531   4.283
57574W        W29889  36.167  11.786  10.763
57575W        W29890  32.412  22.999  12.057
57576W        W29891   3.517  31.991  11.510
57577W        W29892  18.893   4.493  10.401
57578W        W29893  42.576  34.862   1.678
57579W        W29894   4.856  31.298   3.658
57580W        W29895  32.443   5.105  12.050
57581W        W29896  15.182  24.739  13.903
57582W        W29897  25.069  43.789   4.697
57583W        W29898  39.073  11.511   0.706
57584W        W29899  22.951  41.962  13.373
57585W        W29900  13.739  23.507   0.749
57586W        W29901  28.914  36.497  14.243
57587W        W29902  38.885  17.919   3.381
57588W        W29903  13.005   6.180   2.854
57589W        W29904  30.127  13.180   0.164
57590W        W29905  27.403  11.672  11.090
57591W        W29906  37.460  42.075  14.969
57592W        W29907  15.367  12.568  13.019
57593W        W29908  33.639  25.004   1.303
57594W        W29909  27.787  44.060   4.309
57595W        W29910   2.767  41.510  10.976
57596W        W29911  15.491  39.381  10.168
57597W        W29912  34.475   5.356   3.230
57598W        W29913   9.397  21.344   1.830
57599W        W29914  23.049  16.772  11.602
57600W        W29915  28.339  23.663  14.978
57601W        W29916  21.638  36.995  10.566
57602W        W29917   5.900   2.810  12.111
57603W        W29918   5.407  26.071   3.631
57604W        W29919  14.428  23.573   2.883
57605W        W29920  38.008  34.358  11.836
57606W        W29921  19.842  15.492   5.117
57607W        W29922  31.558  34.845  14.832
57608W        W29923   5.974  43.060  13.027
57609W        W29924  20.486  28.512  11.882
57610W        W29925  39.038  32.012  10.714
57611W        W29926  17.764  33.593   4.885
57612W        W29927   5.218  33.428   2.760
57613W        W29928  39.409  28.405   0.853
57614W        W29929  17.264  21.988  11.908
57615W        W29930  14.816  37.072  14.333
57616W        W29931  37.342  36.400   0.918
57617W        W29932  26.122  41.510   3.387
57618W        W29933  44.339  15.208   2.190
57619W        W29934  31.036  22.204  13.634
57620W        W29935   8.171  11.724  10.871
57621W        W29936  24.683  44.234  11.710
57622W        W29937   2.339  29.913  14.826
57623W        W29938  10.826   3.692  14.161
57624W        W29939  26.737   2.845   4.534
57625W        W29940  32.381  39.160   0.888
57626W        W29941  21.562  42.127  14.023
57627W        W29942   9.837  11.806   1.844
57628W        W29943  37.070  28.133   4.627
57629W        W29944  28.176  29.475   2.342
57630W        W29945  38.831  17.624  14.372
57631W        W29946  15.703  34.101  14.011
57632W        W29947  21.134  35.626   1.459
57633W        W29948  22.493  26.838  14.569
57634W        W29949  36.828  34.148   0.164
57635W        W29950  30.738  42.512   2.451
57636W        W29951  40.179  39.874   1.383
57637W        W29952   1.957  17.891   4.549
57638W        W29953  21.697   1.703  13.561
57639W        W29954  24.259  36.135  11.636
57640W        W29955  13.421  35.663   0.433
57641W        W29956  40.636   1.377   1.324
57642W        W29957   4.828  24.747  11.525
57643W        W29958  23.277  42.828  11.885
57644W        W29959  30.964  10.387  11.950
57645W        W29960  27.873  16.146  14.035
57646W        W29961  21.187   2.069  12.060
57647W        W29962  38.532  32.961   0.769
57648W        W29963  42.370  44.574   3.258
57649W        W29964  35.101  33.554  11.171
57650W        W29965  43.086  16.972   2.301
57651W        W29966  17.555  30.651   0.748
57652W        W29967   7.767  24.413   0.759
57653W        W29968  31.679   9.691  13.498
57654W        W29969  29.640  40.544  11.180
57655W        W29970  16.786   3.186  14.052
57656W        W29971  11.741  34.190   0.818
57657W        W29972  26.669  31.552   5.114
57658W        W29973  20.634  43.251  12.489
57659W        W29974  29.564  37.978  12.359
57660W        W29975  26.482  36.370  11.752
57661W        W29976  14.993  27.642   3.149
57662W        W29977   2.794  41.874  14.155
57663W        W29978   2.416  31.948  13.047
57664W        W29979  15.653   5.122  11.881
57665W        W29980  37.413  23.051  14.593
57666W        W29981  12.733  13.287   3.748
57667W        W29982  31.706  19.522   2.235
57668W        W29983  20.546  10.254   3.869
57669W        W29984  37.905  22.133  10.744
57670W        W29985  40.076  27.653   4.728
57671W        W29986  29.447   5.627  11.459
57672W        W29987   9.825  35.214  10.974
57673W        W29988  16.854  40.856   5.142
57674W        W29989  28.983   3.753   1.902
57675W        W29990  10.356   5.752  10.814
57676W        W29991  33.914  11.041  13.085
57677W        W29992  43.527  40.769   0.876
57678W        W29993  14.559  24.045   4.499
57679W        W29994  37.412   4.259  14.234
57680W        W29995  18.814  32.942  11.982
57681W        W29996  26.784  25.992   3.900
57682W        W29997  15.345   3.726  10.636
57683W        W29998  31.117  44.540  14.271
57684W        W29999  41.361  32.616   3.617
57685W        W30000  13.539  11.930   4.109
57686W        W30001  27.390  26.340  12.949
57687W        W30002  15.079  37.338   1.921
57688W        W30003   4.491  34.733   2.995
57689W        W30004  32.678  17.619   4.778
57690W        W30005  43.766  15.171  11.396
57691W        W30006  19.114  22.002   0.917
57692W        W30007   4.273  13.269  11.572
57693W        W30008  44.924   0.726   3.248
57694W        W30009  21.620  40.402  11.399
57695W        W30010   1.432   7.964  14.060
57696W        W30011  44.342  26.445   3.396
57697W        W30012  12.358  37.908   3.117
57698W        W30013  43.800  41.293  14.977
57699W        W30014   5.271  14.597  13.576
57700W        W30015  15.284  37.263   3.063
57701W        W30016  24.182  15.990   1.326
57702W        W30017  36.844  37.651   1.301
57703W        W30018  32.421  44.217   0.908
57704W        W30019  43.925  10.968  10.633
57705W        W30020   9.229   9.647   0.388
57706W        W30021  39.760  36.560   4.110
57707W        W30022   5.642  18.284  11.289
57708W        W30023   9.429  37.882   4.701
57709W        W30024  37.840  32.585   2.818
57710W        W30025   2.797  22.127  13.375
57711W        W30026  14.264  15.241  14.868
57712W        W30027  30.143  36.451   4.877
57713W        W30028  43.516  14.571  11.204
57714W        W30029  20.580   7.822   4.134
57715W        W30030  24.087  18.704  12.571
57716W        W30031  23.303   9.132  13.403
57717W        W30032  44.450  11.741   5.314
57718W        W30033  23.444  10.196  13.195
57719W        W30034  34.229   6.904   3.572
57720W        W30035   1.008   9.118  11.102
57721W        W30036  44.640  32.674  11.145
57722W        W30037  43.258  22.099   1.307
57723W        W30038  44.097  24.178   4.860
57724W        W30039  26.113  13.039  12.968
57725W        W30040  23.982  38.018  12.484
57726W        W30041   1.808  23.438  14.299
57727W        W30042  27.688  33.032  10.700
57728W        W30043  11.891  40.258  11.664
57729W        W30044  43.343  34.461  11.556
57730W        W30045   4.843  14.766   3.139
57731W        W30046  37.507  14.649   4.615
57732W        W30047  10.408  38.495   4.746
57733W        W30048  28.539   1.019   3.206
57734W        W30049  21.084   4.953  10.648
57735W        W30050  21.646  16.152   2.377
57736W        W30051   8.816  39.642  12.924
57737W        W30052  43.484   1.386  11.931
57738W        W30053   9.202  26.612  13.119
57739W        W30054   7.645  17.042   1.359
57740W        W30055   1.015  29.198   1.511
57741W        W30056   2.793  11.334  12.561
57742W        W30057  35.108  26.547   1.796
57743W        W30058   6.662  18.659  14.796
57744W        W30059  43.963  25.403  11.197
57745W        W30060  43.505  34.483  12.191
57746W        W30061  34.508  13.107   3.232
57747W        W30062  24.296  24.758  13.091
57748W        W30063  43.181   4.615   4.752
57749W        W30064   4.934  12.577   0.292
57750W        W30065   8.831  33.710  12.455
57751W        W30066  32.741  29.994   4.791
57752W        W30067  15.787   2.389   1.199
57753W        W30068  28.962  34.455  11.559
57754W        W30069  26.030  39.104   2.402
57755W        W30070  14.718   9.854  14.913
57756W        W30071  29.955  21.028  11.656
57757W        W30072  36.459   2.706  13.460
57758W        W30073  43.754   6.762  13.799
57759W        W30074  31.549  43.355   2.742
57760W        W30075  42.894  18.148  14.490
57761W        W30076  25.912  21.759  12.339
57762W        W30077  32.148  22.504   1.743
57763W        W30078  29.134  16.136  10.762
57764W        W30079   7.862  14.239  14.687
57765W        W30080  26.529  41.892   2.247
57766W        W30081  41.262  39.874   2.048
57767W        W30082  16.526  30.837   2.135
57768W        W30083  31.425  23.628   0.275
57769W        W30084  28.522  23.452   2.124
57770W        W30085  17.697  31.518  14.689
57771W        W30086   3.661  44.823  11.721
57772W        W30087  35.964  10.070   0.459
57773W        W30088  39.202  19.793   1.395
57774W        W30089  27.982  27.665   3.207
57775W        W30090   5.968  28.399  13.644
57776W        W30091  12.042  41.703  11.599
57777W        W30092  15.281  11.163   2.235
57778W        W30093  40.502  10.685  12.631
57779W        W30094   3.970   1.729   0.007
57780W        W30095   5.773   5.980  10.336
57781W        W30096  25.744   9.913  14.531
57782W        W30097  41.499  31.955  13.590
57783W        W30098  30.827   6.168   3.161
57784W        W30099  15.335  15.333  14.898
57785W        W30100  20.564  21.141   2.977
57786W        W30101   3.393  14.603  10.617
57787W        W30102  26.021  14.618  14.905
57788W        W30103  18.341  26.149  11.964
57789W        W30104   1.411  39.435  10.542
57790W        W30105  10.477  16.666   2.753
57791W        W30106  44.511  28.273   0.174
57792W        W30107  21.996  39.228   0.894
57793W        W30108  16.636   1.067  12.317
57794W        W30109  10.324  20.991   4.495
57795W        W30110   2.288  25.978   4.705
57796W        W30111  19.748   8.999  12.755
57797W        W30112   1.985  30.067  13.338
57798W        W30113  29.062  43.038   5.112
57799W        W30114  42.467  10.610  14.891
57800W        W30115  17.638  27.543  12.374
57801W        W30116  40.077  25.708   0.556
57802W        W30117   5.479  12.886  10.540
57803W        W30118  11.600  13.092  11.992
57804W        W30119  26.527   2.706   3.097
57805W        W30120  28.083  31.046   9.681
57806W        W30121  29.064  21.506   3.575
57807W        W30122  26.224   1.467  12.552
57808W        W30123  43.964  16.734  11.193
57809W        W30124  16.589  33.563   0.790
57810W        W30125   2.385   7.212  11.634
57811W        W30126  25.050  12.372   3.006
57812W        W30127  41.796  26.963  13.140
57813W        W30128   8.985  13.685  14.545
57814W        W30129  18.555  23.198  12.729
57815W        W30130  33.482  38.867  10.881
57816W        W30131  33.639  14.093   4.310
57817W        W30132   8.434  15.663  13.951
57818W        W30133  30.600  26.069  14.129
57819W        W30134  17.960   1.766  12.572
57820W        W30135  22.681  13.324  10.692
57821W        W30136  14.666  43.363   1.334
57822W        W30137  30.816   7.873  13.005
57823W        W30138  26.643   7.479  10.625
57824W        W30139  22.219  17.373  13.595
57825W        W30140   7.669  11.205   3.455
57826W        W30141  21.232   1.367  11.391
57827W        W30142  10.785  39.187  14.950
57828W        W30143  20.749   4.890   3.113
57829W        W30144  21.021  40.538   4.541
57830W        W30145  15.072   1.222  14.428
57831W        W30146  25.155   9.691  10.518
57832W        W30147  14.125   0.444   2.956
57833W        W30148  20.059  22.194   1.351
57834W        W30149   3.730  18.526  13.824
57835W        W30150  16.607  44.819   1.897
57836W        W30151   6.085  11.227   2.659
57837W        W30152   1.712  17.747   4.127
57838W        W30153  37.311  26.302   0.286
57839W        W30154  44.227  44.747  11.880
57840W        W30155  36.376  10.906  13.272
57841W        W30156  30.958   1.133  12.574
57842W        W30157  30.962  24.505  12.938
57843W        W30158  19.279  18.040  12.546
57844W        W30159   3.327  26.225   5.001
57845W        W30160  19.401  10.917   0.320
57846W        W30161  35.937  15.909  14.667
57847W        W30162  38.100  10.385  13.111
57848W        W30163   6.916  18.856  14.349
57849W        W30164   0.691  39.471   3.796
57850W        W30165   4.839  11.089  12.455
57851W        W30166   0.027  42.508  11.138
57852W        W30167  33.843   9.247   2.725
57853W        W30168  21.202   7.786  12.436
57854W        W30169   4.714  18.596   3.755
57855W        W30170  14.679   6.259  13.315
57856W        W30171  36.388  10.717  13.756
57857W        W30172  25.064  32.331  11.197
57858W        W30173   4.335  23.526  14.295
57859W        W30174  41.567  42.618   2.712
57860W        W30175  18.268   1.938   4.217
57861W        W30176  40.272  33.097  11.189
57862W        W30177   5.020  14.000   2.751
57863W        W30178  43.739   4.740   1.900
57864W        W30179   8.105  11.109   4.462
57865W        W30180  25.778  15.338  11.200
57866W        W30181  18.851  18.770  14.851
57867W        W30182  25.342  31.522   3.652
57868W        W30183   2.766  27.521   4.339
57869W        W30184  17.799  31.887  12.112
57870W        W30185  44.331  27.095   0.657
57871W        W30186   2.650   6.933   2.439
57872W        W30187  33.577  35.894   3.233
57873W        W30188   6.431   1.209   1.787
57874W        W30189  17.112   1.835  12.581
57875W        W30190   9.184  43.023   2.270
57876W        W30191  31.858  20.154   0.011
57877W        W30192  22.518  36.390  12.607
57878W        W30193  18.760  33.492   3.699
57879W        W30194  26.393  20.159  10.563
57880W        W30195  44.040  42.461   0.880
57881W        W30196  16.023  17.686  13.441
57882W        W30197   7.997  21.801   0.842
57883W        W30198  27.973  43.909  10.767
57884W        W30199  12.692  37.160  14.048
57885W        W30200  20.192  11.322   4.994
57886W        W30201  24.497   1.012  11.090
57887W        W30202  17.496  11.285   1.672
57888W        W30203  18.105  40.336  10.244
57889W        W30204  36.538  19.043  13.105
57890W        W30205  44.754  42.088  12.070
57891W        W30206  10.520  28.309  14.754
57892W        W30207  15.055  44.207   4.140
57893W        W30208  44.343  22.046  10.676
57894W        W30209  27.015   2.973   1.390
57895W        W30210  44.704  32.006  12.721
57896W        W30211  25.109   6.732  12.948
57897W        W30212  27.249  37.912   3.779
57898W        W30213  17.078  42.327   0.970
57899W        W30214  44.541   2.545  11.100
57900W        W30215  34.463  28.038   1.004
57901W        W30216  39.841  33.535   2.789
57902W        W30217  30.473  12.344  12.720
57903W        W30218  25.470  34.479  11.001
57904W        W30219  32.387   3.601   4.657
57905W        W30220  16.146  44.851   4.598
57906W        W30221  25.101  12.748  13.289
57907W        W30222  20.629  31.484  13.756
57908W        W30223  14.885  37.020   0.225
57909W        W30224  11.139   1.403  12.569
57910W        W30225  34.149  21.637   4.268
57911W        W30226   9.785   0.865  13.907
57912W        W30227  11.021  39.901   2.774
57913W        W30228   5.368  22.134   4.453
57914W        W30229  25.074  39.788   3.795
57915W        W30230  27.418  16.649   0.016
57916W        W30231  37.756   6.131   0.352
57917W        W30232  44.312  41.889   1.375
57918W        W30233  25.096  43.481  14.867
57919W        W30234  23.613  32.121  11.196
57920W        W30235  18.719  18.129   0.407
57921W        W30236  31.074  11.448   4.679
57922W        W30237  29.135  26.026  13.902
57923W        W30238  37.590  31.382   0.823
57924W        W30239   8.894  31.901   3.606
57925W        W30240  26.045   3.238  14.367
57926W        W30241  37.696  40.534  11.932
57927W        W30242  22.506  32.700   1.062
57928W        W30243  19.671  11.618  11.940
57929W        W30244   3.977  31.678  12.919
57930W        W30245  41.493  20.660   3.657
57931W        W30246  19.207  12.404   1.340
57932W        W30247   7.669  38.027   2.216
57933W        W30248  18.932  31.991  14.406
57934W        W30249  13.093  30.146  10.187
57935W        W30250   0.222  40.767   3.217
57936W        W30251  33.289  27.916   3.928
57937W        W30252  35.949  34.562  14.810
57938W        W30253  26.152   6.834  13.804
57939W        W30254   1.943  42.163   2.942
57940W        W30255  20.519  14.827   2.948
57941W        W30256  41.469  42.769   4.175
57942W        W30257  40.080  43.087   4.168
57943W        W30258  10.683   6.139  10.872
57944W        W30259  33.609  18.016  13.053
57945W        W30260  25.332   5.447   4.714
57946W        W30261   1.274  41.450  11.960
57947W        W30262   7.885  36.861   1.921
57948W        W30263  34.434   8.490   4.852
57949W        W30264  39.735  17.719  11.620
57950W        W30265  39.383  43.884   3.591
57951W        W30266  41.768   1.227  14.012
57952W        W30267   5.856  41.121  12.569
57953W        W30268  15.246   0.880   3.312
57954W        W30269   1.279  20.287  12.203
57955W        W30270  29.590  34.654   3.610
57956W        W30271  44.680  35.098  12.071
57957W        W30272  16.744  14.317   3.695
57958W        W30273  17.300  19.708   1.676
57959W        W30274  12.838  19.288  11.540
57960W        W30275  17.722  16.559  12.452
57961W        W30276  25.321  24.108  10.492
57962W        W30277  17.832  38.914   9.966
57963W        W30278   1.847  33.971  10.492
57964W        W30279  44.883   2.961  10.913
57965W        W30280  23.716  25.531   3.322
57966W        W30281  15.093   3.266  10.744
57967W        W30282  43.354  41.268  13.994
57968W        W30283  28.432  27.848   3.312
57969W        W30284   9.255   3.397   2.307
57970W        W30285   3.512  34.327  14.421
57971W        W30286  41.781   0.296   4.073
57972W        W30287  18.996  16.252   4.281
57973W        W30288  34.392  29.544  11.512
57974W        W30289  20.635  27.537  10.934
57975W        W30290  36.484   8.578   1.992
57976W        W30291   4.065  29.310   3.663
57977W        W30292   7.603  10.048  12.388
57978W        W30293  29.022  41.941   0.852
57979W        W30294  20.021   5.461  13.072
57980W        W30295  32.976  37.843   4.451
57981W        W30296   9.129  29.559  12.335
57982W        W30297  17.840  21.018  11.357
57983W        W30298  10.423  35.060   2.797
57984W        W30299  26.270  15.724   0.246
57985W        W30300  34.525  26.995   3.832
57986W        W30301  19.866  25.299   4.242
57987W        W30302  42.758  20.575   4.279
57988W        W30303  25.543  12.669  14.409
57989W        W30304  35.423   2.331  10.649
57990W        W30305  35.154   8.376   2.731
57991W        W30306   9.664  18.440   4.663
57992W        W30307  10.944  38.908   0.358
57993W        W30308  39.239   5.986   2.458
57994W        W30309  10.081  18.630  13.932
57995W        W30310   6.721  17.939  12.253
57996W        W30311   7.329  13.646  11.157
57997W        W30312  12.617   5.380   1.058
57998W        W30313  31.975  16.580   3.158
57999W        W30314   8.556  11.190   3.207
58000W        W30315  12.697  34.128   2.353
58001W        W30316  43.643   1.322   0.335
58002W        W30317  24.584  22.183  12.212
58003W        W30318  29.623  23.168   1.103
58004W        W30319  17.131  27.650  12.530
58005W        W30320  25.692  21.823   2.856
58006W        W30321  33.675  43.276   3.198
58007W        W30322   3.865   0.209   0.350
58008W        W30323  28.508  25.145   1.447
58009W        W30324  37.577  42.376  11.606
58010W        W30325   0.431  15.109  13.607
58011W        W30326  33.169  19.748   0.080
58012W        W30327  26.812  41.514  12.816
58013W        W30328  15.639  28.355  12.464
58014W        W30329   2.416  15.152  12.597
58015W        W30330  20.560  37.438  10.291
58016W        W30331   1.550  13.482  12.132
58017W        W30332  18.988  34.893   2.786
58018W        W30333  10.552  15.591   0.430
58019W        W30334  37.930  35.540  14.929
58020W        W30335  34.590  32.114  13.715
58021W        W30336   9.887  42.808   4.305
58022W        W30337   4.304   3.747  11.147
58023W        W30338   9.826  30.683   1.890
58024W        W30339  24.726  40.911  13.679
58025W        W30340  24.655  20.618   4.271
58026W        W30341   3.827  40.373   2.676
58027W        W30342  40.023  10.731  12.399
58028W        W30343  37.708   7.268   3.586
58029W        W30344  26.460  12.107   4.220
58030W        W30345  11.264  16.114   5.017
58031W        W30346  29.511   6.196  12.580
58032W        W30347  28.438  22.893  13.116
58033W        W30348  36.862   9.598   3.712
58034W        W30349   0.530   8.957   1.289
58035W        W30350  18.337  17.259   1.606
58036W        W30351  10.337   6.856   4.661
58037W        W30352  24.061  40.024   0.833
58038W        W30353  38.752  41.963  13.947
58039W        W30354  26.344  40.419   3.517
58040W        W30355  27.418  22.615  14.412
58041W        W30356  32.469  12.645  10.689
58042W        W30357   3.043  38.992  11.119
58043W        W30358  12.086  15.269   4.198
58044W        W30359   2.821  33.436   1.954
58045W        W30360  38.729  30.187   1.353
58046W        W30361  27.597  22.891   1.812
58047W        W30362  29.220  37.360  10.540
58048W        W30363  14.093   0.505   4.819
58049W        W30364  32.804  37.402  14.827
58050W        W30365   9.095   7.859  14.999
58051W        W30366   7.936  22.174   1.230
58052W        W30367  26.076  20.066  14.885
58053W        W30368  25.260  36.071   4.676
58054W        W30369   4.978  30.925   2.796
58055W        W30370   2.279  27.252   1.259
58056W        W30371  28.496  39.418  11.974
58057W        W30372   2.462  30.451  12.075
58058W        W30373   6.131   4.740  11.999
58059W        W30374   3.876  26.622   0.968
58060W        W30375   0.385  31.069  10.394
58061W        W30376  20.119   4.692   0.405
58062W        W30377  21.311   5.402  14.303
58063W        W30378  20.338  27.633   0.406
58064W        W30379  13.906  11.004   3.949
58065W        W30380  17.311  23.035  14.220
58066W        W30381  17.301  41.466   4.502
58067W        W30382  40.859  35.631   5.135
58068W        W30383   4.316  43.907  13.539
58069W        W30384   8.074   4.968  12.800
58070W        W30385  29.110  29.872  11.620
58071W        W30386  36.998  14.806   3.783
58072W        W30387  43.736  33.477   4.578
58073W        W30388  15.221  36.978  11.580
58074W        W30389  31.028   4.556  13.220
58075W        W30390  40.533  21.067   0.771
58076W        W30391  38.416  14.277  12.942
58077W        W30392  32.614  41.875  13.555
58078W        W30393  29.545  32.704   0.334
58079W        W30394  21.792  28.136  12.807
58080W        W30395   8.546   8.188  13.520
58081W        W30396   4.684   6.352  14.507
58082W        W30397   4.744  29.374   4.131
58083W        W30398  39.368   8.804   3.996
58084W        W30399  27.452  29.928  14.075
58085W        W30400  12.839  20.931   2.110
58086W        W30401  21.189  21.174  13.744
58087W        W30402  15.717  39.614  11.589
58088W        W30403  26.970   1.429  12.991
58089W        W30404  18.265  15.343  13.189
58090W        W30405  40.780  37.356   2.161
58091W        W30406   0.822  33.444  13.642
58092W        W30407  16.790   6.004   1.318
58093W        W30408  42.840  15.165  10.955
58094W        W30409  15.689   8.890   2.398
58095W        W30410  11.705  30.379  12.801
58096W        W30411  20.163   9.976   2.727
58097W        W30412  26.686  10.122   0.242
58098W        W30413  16.467  35.918  12.900
58099W        W30414  16.382  26.648  14.277
58100W        W30415  23.068   4.695   3.636
58101W        W30416  24.707  23.264  11.596
58102W        W30417  15.575   7.403   4.048
58103W        W30418  11.624  43.305  14.027
58104W        W30419  21.122  40.038   4.492
58105W        W30420  11.539  20.447   2.415
58106W        W30421  10.170  15.028   4.939
58107W        W30422  40.475  15.122  14.942
58108W        W30423  35.925  32.836   1.638
58109W        W30424  37.153  36.564  11.987
58110W        W30425  19.641   9.419   1.799
58111W        W30426  11.945  24.926  13.644
58112W        W30427  42.211  18.051  12.880
58113W        W30428   4.729  24.055   2.196
58114W        W30429   9.344  34.514  11.869
58115W        W30430   6.873  30.881   0.796
58116W        W30431   3.241   4.751   2.019
58117W        W30432  40.863  28.133  13.875
58118W        W30433  37.551   1.792  11.616
58119W        W30434   5.272  38.462  10.685
58120W        W30435  16.434  25.576   4.102
58121W        W30436  39.179  25.931   3.701
58122W        W30437  38.919   6.734  10.674
58123W        W30438  13.105   3.024   4.420
58124W        W30439  24.502  16.745  12.004
58125W        W30440   1.184  10.921  12.080
58126W        W30441  43.918  43.795   3.220
58127W        W30442  31.899  29.603   1.953
58128W        W30443   2.516  19.309  10.782
58129W        W30444  23.110   3.671  11.237
58130W        W30445  13.993  25.050  12.479
58131W        W30446   1.700  21.847   0.017
58132W        W30447  37.621  11.822   3.370
58133W        W30448  44.435  20.733  13.409
58134W        W30449  19.016  44.299   0.441
58135W        W30450   1.994   3.518  12.945
58136W        W30451   4.810  25.429   0.957
58137W        W30452  16.767  16.050   4.210
58138W        W30453  29.400  28.650   1.406
58139W        W30454  30.426  33.124  11.050
58140W        W30455  33.553  18.322  12.033
58141W        W30456  32.398  10.321  11.659
58142W        W30457  39.038  28.211   2.009
58143W        W30458   4.552  13.164   2.732
58144W        W30459  36.280   7.853   1.401
58145W        W30460  30.468  14.701  10.750
58146W        W30461  23.113  36.869   2.308
58147W        W30462  27.154   6.758   5.320
58148W        W30463  22.775  43.074   0.213
58149W        W30464   8.783   4.231   0.499
58150W        W30465   6.256  35.138  13.467
58151W        W30466  26.472  44.395   4.164
58152W        W30467  23.252  41.512  13.385
58153W        W30468  29.244  32.001   2.712
58154W        W30469   9.654  33.236   1.154
58155W        W30470  30.270  16.599  14.617
58156W        W30471  25.017  20.102  14.545
58157W        W30472  31.517  17.281   1.809
58158W        W30473   3.431  30.063   2.946
58159W        W30474  40.741  23.988  10.578
58160W        W30475  32.194  36.502   1.332
58161W        W30476   2.191   6.937   2.671
58162W        W30477  25.749   4.160  12.043
58163W        W30478  18.345  42.325  11.630
58164W        W30479   6.198  16.914  11.933
58165W        W30480   2.446  22.323   0.519
58166W        W30481  41.827  30.396   0.225
58167W        W30482  13.810  12.825  11.502
58168W        W30483  40.641   8.707  13.959
58169W        W30484  20.056  44.946  11.986
58170W        W30485  33.635  39.564  13.536
58171W        W30486  23.004  10.683   1.832
58172W        W30487  18.034  42.286  13.897
58173W        W30488  27.355  11.740   3.797
58174W        W30489  34.464  15.772  10.453
58175W        W30490  21.530  39.831  12.143
58176W        W30491  31.652   0.117   1.311
58177W        W30492  10.561   3.025   1.078
58178W        W30493  13.263  17.816  11.543
58179W        W30494  37.067  28.674   3.193
58180W        W30495  42.195  30.925   3.859
58181W        W30496   2.976   0.115   0.196
58182W        W30497  10.704  38.031  11.026
58183W        W30498  38.415  15.855  13.040
58184W        W30499   0.988  13.330  10.606
58185W        W30500  31.363  35.543   0.847
58186W        W30501  11.141  30.065  12.774
58187W        W30502  31.718  25.686   3.762
58188W        W30503  23.945  40.441   1.697
58189W        W30504   2.016  26.580   2.792
58190W        W30505  38.285  36.591  13.506
58191W        W30506  18.157  26.163  14.490
58192W        W30507   0.318  26.860   0.319
58193W        W30508  35.763  13.739   2.652
58194W        W30509  27.614   3.436  12.013
58195W        W30510  34.638  37.586  12.890
58196W        W30511  26.184   4.195   5.454
58197W        W30512   1.430  44.868  10.737
58198W        W30513  30.742  23.186  14.507
58199W        W30514  35.377  20.639   1.205
58200W        W30515  37.904  22.050   0.065
58201W        W30516  16.475  31.085   4.864
58202W        W30517  20.792  12.022   3.161
58203W        W30518  15.238   1.946  13.118
58204W        W30519  33.031  30.477   4.089
58205W        W30520  39.746  28.172   2.214
58206W        W30521  38.751  10.200   3.660
58207W        W30522  35.823   8.839  13.044
58208W        W30523  20.752  14.814  11.077
58209W        W30524  22.970  39.548   0.249
58210W        W30525  35.808   0.451   0.427
58211W        W30526  40.076  42.966  13.890
58212W        W30527  39.149   9.687   0.890
58213W        W30528  29.965  32.508   3.116
58214W        W30529  15.058   4.936  11.923
58215W        W30530   8.697  14.900  12.845
58216W        W30531   6.325  44.765   5.080
58217W        W30532  43.314  14.642   3.747
58218W        W30533  16.127  41.473   2.427
58219W        W30534  15.820  41.945  11.958
58220W        W30535  41.181   1.302  11.908
58221W        W30536  14.127  21.049   3.032
58222W        W30537  10.915  38.595   0.784
58223W        W30538  18.064  14.348   1.606
58224W        W30539  10.618  28.810  14.920
58225W        W30540   7.554  40.463   2.330
58226W        W30541  40.667   5.529  11.921
58227W        W30542  25.446   2.951   1.260
58228W        W30543  34.632  28.819  10.764
58229W        W30544   2.341   6.762  11.905
58230W        W30545  22.577   5.687  13.822
58231W        W30546  26.613   2.353  12.426
58232W        W30547  35.320   6.109   1.910
58233W        W30548   9.940   5.608  11.144
58234W        W30549  20.742  14.407   0.986
58235W        W30550  24.663  33.526  11.635
58236W        W30551   4.978  44.864   2.389
58237W        W30552   8.182   2.607  13.149
58238W        W30553  41.017  12.838  11.057
58239W        W30554  36.566  11.357  11.775
58240W        W30555  30.370   5.749   4.223
58241W        W30556  34.461  38.338  12.172
58242W        W30557  23.541  17.275   2.240
58243W        W30558  37.648  29.653  14.283
58244W        W30559   9.752  13.797  11.990
58245W        W30560  27.548  41.817   4.083
58246W        W30561   4.891  11.313   4.720
58247W        W30562  44.412  28.147   2.757
58248W        W30563   1.891  29.691  12.978
58249W        W30564  16.171   9.370   4.702
58250W        W30565  31.661  13.332  11.066
58251W        W30566  11.234   4.514   3.331
58252W        W30567  35.835  24.209  12.477
58253W        W30568  39.290  39.024  14.627
58254W        W30569   8.867  18.279   0.251
58255W        W30570  40.749  14.854   3.286
58256W        W30571  21.009   6.207  13.054
58257W        W30572  25.726   7.698  13.561
58258W        W30573  26.704  40.527  10.841
58259W        W30574  15.398  41.850   2.242
58260W        W30575  32.336   7.775  10.666
58261W        W30576  26.509  26.267  12.958
58262W        W30577  37.523  18.331  11.820
58263W        W30578   2.738   2.741  14.386
58264W        W30579  13.592  30.359  10.865
58265W        W30580  34.828   5.929   4.868
58266W        W30581  34.140   8.931  11.677
58267W        W30582  41.620  14.740   4.167
58268W        W30583   1.191  20.344  13.571
58269W        W30584  39.983   7.703  12.371
58270W        W30585   5.083  31.573  14.494
58271W        W30586  32.574   3.672   1.022
58272W        W30587  13.185  15.219   4.696
58273W        W30588  37.914  14.569   3.809
58274W        W30589  24.919  11.626   0.875
58275W        W30590  44.354  34.885   3.530
58276W        W30591  11.657  15.235  10.781
58277W        W30592  26.537  22.044   2.428
58278W        W30593   7.344  23.384   2.822
58279W        W30594   4.177  32.426   1.920
58280W        W30595  24.207  37.896  13.840
58281W        W30596  25.037  31.916  13.920
58282W        W30597   2.844   7.387   2.312
58283W        W30598  36.618  37.477   3.192
58284W        W30599   8.688  12.228  13.676
58285W        W30600  18.558  14.597   1.635
58286W        W30601  12.823  21.555  14.006
58287W        W30602  33.319   4.092   0.637
58288W        W30603  18.272   1.464  13.909
58289W        W30604   8.331  16.980   4.507
58290W        W30605  42.739   6.785  13.786
58291W        W30606   4.561  18.012   4.991
58292W        W30607  19.386  33.005   4.646
58293W        W30608  38.033  18.539  10.611
58294W        W30609  28.156   8.190  14.107
58295W        W30610  23.096   8.231   0.512
58296W        W30611  26.194   9.001   4.721
58297W        W30612  34.783  14.738  13.333
58298W        W30613  20.755  27.210   0.767
58299W        W30614   4.920  41.364  12.602
58300W        W30615  39.270  22.239  12.108
58301W        W30616  10.551  26.011   2.851
58302W        W30617  11.878  26.148  14.388
58303W        W30618  42.753   7.624   0.466
58304W        W30619  29.120  27.918   1.601
58305W        W30620  40.828  24.933  11.989
58306W        W30621  39.314  27.727  12.067
58307W        W30622  14.612  34.895   2.276
58308W        W30623  26.190  37.826   4.832
58309W        W30624  27.599  22.966  13.379
58310W        W30625   7.426  12.778  12.714
58311W        W30626  42.292  35.668   0.493
58312W        W30627  44.930   7.709   3.101
58313W        W30628  25.951   7.194  11.396
58314W        W30629  40.073   9.100   2.310
58315W        W30630  32.632  10.597   0.489
58316W        W30631  11.101   7.741  14.692
58317W        W30632  16.836   2.909  14.512
58318W        W30633  21.126  29.997  11.401
58319W        W30634   1.558  37.429  10.065
58320W        W30635  20.524   3.304   0.089
58321W        W30636  29.236  30.903  10.606
58322W        W30637   3.279  13.107   3.592
58323W        W30638  12.554   9.140   3.217
58324W        W30639  40.698  19.697  11.388
58325W        W30640  36.349  19.469   0.254
58326W        W30641  37.431  27.618  12.667
58327W        W30642  19.558  18.093   2.827
58328W        W30643  23.170  42.256  11.704
58329W        W30644  34.899  25.006   4.624
58330W        W30645  41.330  12.879  11.673
58331W        W30646  31.225  21.279  13.838
58332W        W30647   9.647   0.321  14.079
58333W        W30648  10.472  40.682   0.913
58334W        W30649   0.727   6.208   0.285
58335W        W30650  32.637  44.515   3.228
58336W        W30651  18.016  25.202  12.063
58337W        W30652  29.901   5.402   4.571
58338W        W30653  20.246  42.487  12.764
58339W        W30654   1.856  11.475   4.833
58340W        W30655  34.383  27.041  12.788
58341W        W30656  43.797  13.287   2.376
58342W        W30657   9.308   0.406  12.840
58343W        W30658  14.084   7.432   1.791
58344W        W30659  31.544  31.751   4.237
58345W        W30660   1.307   3.754   2.215
58346W        W30661   4.147  35.905   1.704
58347W        W30662  29.559  36.303  11.988
58348W        W30663  14.654  27.746  11.102
58349W        W30664  44.216  30.764  14.894
58350W        W30665   3.510  42.044  13.390
58351W        W30666  20.644  34.132   1.407
58352W        W30667  44.318  36.476  11.092
58353W        W30668  30.689   9.442  13.263
58354W        W30669  40.370  12.849  13.534
58355W        W30670  11.796   7.140   2.757
58356W        W30671  28.808  35.570   4.148
58357W        W30672  28.661  28.461   0.925
58358W        W30673  26.530  29.000   0.319
58359W        W30674   1.209  43.893  13.411
58360W        W30675  40.889   1.372   3.363
58361W        W30676  31.889  34.050   1.215
58362W        W30677  33.496  27.331   0.243
58363W        W30678  20.565  43.355   2.581
58364W        W30679   9.545  23.499  14.396
58365W        W30680  33.654  13.284   3.398
58366W        W30681  25.204  15.359  12.914
58367W        W30682   1.307  23.455  11.112
58368W        W30683  35.009  19.804   4.996
58369W        W30684  32.985  34.066   2.886
58370W        W30685  37.285   8.399   1.006
58371W        W30686  15.684  11.430  12.048
58372W        W30687  34.014   0.906   0.415
58373W        W30688  15.735  37.801   0.839
58374W        W30689   2.766  10.638   4.644
58375W        W30690  36.945  34.460   3.319
58376W        W30691  14.706  23.686   1.512
58377W        W30692   6.151   9.113  13.344
58378W        W30693  33.813  19.192   0.523
58379W        W30694  18.040  17.174  13.040
58380W        W30695  13.715  36.324   4.297
58381W        W30696   0.264  14.866   4.142
58382W        W30697  20.496  39.300  10.389
58383W        W30698  11.595  19.611  13.388
58384W        W30699   0.287  27.522  10.325
58385W        W30700  39.560  13.236   1.308
58386W        W30701  43.380  25.260  14.262
58387W        W30702  20.117  35.639  10.674
58388W        W30703  13.036  26.435  11.219
58389W        W30704  35.782   4.717   0.641
58390W        W30705  44.748  22.064   1.394
58391W        W30706   7.658   7.668  12.650
58392W        W30707   8.181   7.321   1.293
58393W        W30708  12.819  37.494   1.119
58394W        W30709  44.880  41.698  13.931
58395W        W30710  20.719  32.825   2.182
58396W        W30711   5.767  43.003   0.215
58397W        W30712  10.597  35.081  10.638
58398W        W30713  20.882  33.534  13.405
58399W        W30714   0.286  28.028  10.497
58400W        W30715  19.666  16.868   2.286
58401W        W30716  15.035  17.288  13.096
58402W        W30717  12.728  31.428   4.135
58403W        W30718  23.763  40.919   4.938
58404W        W30719  43.106  37.124  13.929
58405W        W30720  41.319  40.338   1.829
58406W        W30721  35.148  39.608   4.113
58407W        W30722  28.956  10.178   4.418
58408W        W30723  44.739  31.883  14.429
58409W        W30724  20.429  33.309  13.027
58410W        W30725  18.108  16.176   4.533
58411W        W30726  22.542  18.173  14.381
58412W        W30727   0.656  12.237  12.611
58413W        W30728  15.082  41.346  12.826
58414W        W30729   6.186  13.880  11.294
58415W        W30730   6.114  14.570   0.811
58416W        W30731  19.331   4.278  12.511
58417W        W30732   0.177  35.941  12.858
58418W        W30733  17.771  36.122   0.765
58419W        W30734  44.805  43.052  10.562
58420W        W30735   0.856  33.591  10.260
58421W        W30736  43.503   3.930  10.715
58422W        W30737   5.933  41.904  11.717
58423W        W30738  39.195  19.517  10.610
58424W        W30739  33.494  19.668  10.734
58425W        W30740  29.765  15.669  13.938
58426W        W30741  41.238  36.838  11.581
58427W        W30742  18.147  32.172  13.774
58428W        W30743  32.370  12.080  14.467
58429W        W30744  30.229  31.157   3.085
58430W        W30745  44.922   3.442   2.267
58431W        W30746  34.864   1.151  14.782
58432W        W30747   1.888  13.200  11.414
58433W        W30748  33.337   9.302   2.669
58434W        W30749  18.472   2.367  14.810
58435W        W30750  33.099  23.520   4.028
58436W        W30751  15.331  20.607  13.234
58437W        W30752  40.105  43.722  14.296
58438W        W30753  21.657   4.362   2.885
58439W        W30754  10.726  24.214   3.694
58440W        W30755  36.631   0.942   2.984
58441W        W30756  14.503  25.137  12.593
58442W        W30757  13.104  42.586   1.890
58443W        W30758  43.805  11.921  12.280
58444W        W30759   1.725  20.751  11.021
58445W        W30760  39.881   8.763   4.094
58446W        W30761   0.412  13.246  14.222
58447W        W30762  40.818  24.468   1.352
58448W        W30763  38.556  38.378  14.898
58449W        W30764   6.244  10.347   3.667
58450W        W30765  28.632  23.823   0.379
58451W        W30766   9.385  43.921  10.042
58452W        W30767  15.850  39.588  14.572
58453W        W30768  29.665  14.278  12.461
58454W        W30769  18.873  24.963  14.667
58455W        W30770  11.646   5.296  10.476
58456W        W30771  18.092  36.831   2.215
58457W        W30772  43.453  20.279  11.635
58458W        W30773   3.778  26.276  14.059
58459W        W30774  16.822   2.265   1.678
58460W        W30775  16.068   6.281   1.755
58461W        W30776  19.696  19.048   0.026
58462W        W30777  13.681  36.807  10.828
58463W        W30778   7.443  10.055   1.284
58464W        W30779   9.892  15.756  13.641
58465W        W30780  32.193  36.907   1.671
58466W        W30781  25.892   1.359   1.746
58467W        W30782  24.299  41.938  10.661
58468W        W30783  18.904  15.764   3.798
58469W        W30784  44.878  29.332   4.984
58470W        W30785   7.664  26.509   1.754
58471W        W30786  26.650  23.593   4.628
58472W        W30787  34.396  19.727   4.810
58473W        W30788  23.031  13.417   0.834
58474W        W30789  33.495  19.472   1.200
58475W        W30790   0.673  34.922  13.753
58476W        W30791  27.338  31.613   5.018
58477W        W30792   6.459  17.321   2.126
58478W        W30793  26.162  20.713   1.923
58479W        W30794  38.028  43.104  11.185
58480W        W30795  35.779  19.110   2.545
58481W        W30796  39.057  10.405   1.687
58482W        W30797  41.054  27.571  12.074
58483W        W30798   4.721  42.910   1.945
58484W        W30799  12.779  18.456  10.240
58485W        W30800  15.262  29.130   3.027
58486W        W30801   6.441   7.888   3.761
58487W        W30802  17.303  34.758  13.181
58488W        W30803  11.815   5.426  10.940
58489W        W30804   4.296   3.026  12.634
58490W        W30805   2.336  40.125   3.210
58491W        W30806  28.345  31.156  14.964
58492W        W30807  23.284  21.890   2.807
58493W        W30808  22.196  20.663   2.126
58494W        W30809  15.836  30.077  10.677
58495W        W30810  43.868   0.429  11.973
58496W        W30811  16.731  16.139  14.740
58497W        W30812   5.754  16.566  14.079
58498W        W30813   2.133  41.852   1.048
58499W        W30814   2.415  21.576   1.684
58500W        W30815  42.763  21.041   4.931
58501W        W30816  42.274  33.167  13.047
58502W        W30817  31.854   4.229  12.014
58503W        W30818  43.362   2.225   3.754
58504W        W30819   6.490  19.534  12.062
58505W        W30820  41.688  20.681  10.816
58506W        W30821   6.606  31.425   3.924
58507W        W30822  26.826  27.987  14.892
58508W        W30823  44.589  17.589   3.451
58509W        W30824  14.088  25.976   0.303
58510W        W30825  19.238  27.650   1.288
58511W        W30826  39.851  15.698   0.717
58512W        W30827  36.287   0.879   1.221
58513W        W30828  15.443  35.382   4.120
58514W        W30829  35.108  34.652   0.420
58515W        W30830   4.643   2.148  13.514
58516W        W30831  19.574   0.914   3.050
58517W        W30832  36.393  33.878  14.485
58518W        W30833  24.086  37.533   1.119
58519W        W30834  23.814  25.897   2.270
58520W        W30835  20.750  12.047  11.390
58521W        W30836  21.239  43.003   2.826
58522W        W30837  18.292  28.919  13.406
58523W        W30838  21.692  18.665   9.973
58524W        W30839  27.921   1.455   0.321
58525W        W30840  32.585  11.283   3.611
58526W        W30841  27.409  23.385  14.978
58527W        W30842  37.354  42.983  14.727
58528W        W30843  41.117  27.449   0.245
58529W        W30844  42.011  17.616   3.232
58530W        W30845  27.135   4.931  13.794
58531W        W30846  37.096   0.445   3.257
58532W        W30847  31.234  35.366   4.180
58533W        W30848   7.486   9.970   2.335
58534W        W30849  21.680  14.361   2.778
58535W        W30850   7.506  26.391   2.415
58536W        W30851  40.885   7.179   3.112
58537W        W30852  30.913  26.427  11.137
58538W        W30853  32.312  19.253   3.711
58539W        W30854  20.149   0.136   3.049
58540W        W30855  24.721  17.138   1.391
58541W        W30856  18.635  22.188   1.000
58542W        W30857  25.962  11.586   4.528
58543W        W30858  20.466  17.211   4.824
58544W        W30859  22.289  42.852  13.829
58545W        W30860   8.358  18.792   2.750
58546W        W30861  38.853  44.187   1.086
58547W        W30862   9.384   0.870  11.571
58548W        W30863  42.422  44.345  11.568
58549W        W30864   3.806  14.835  13.491
58550W        W30865  21.600  10.666   4.239
58551W        W30866  31.062   0.375   4.679
58552W        W30867  18.164  16.974  12.130
58553W        W30868   1.192  17.192  11.593
58554W        W30869   3.403  35.655   3.611
58555W        W30870  10.725  39.410  13.531
58556W        W30871  23.281  27.003   2.363
58557W        W30872  20.987  14.296  13.387
58558W        W30873  26.265  27.383  13.528
58559W        W30874  33.917  36.610  10.667
58560W        W30875  38.785   8.340  10.095
58561W        W30876  35.547  10.602   2.580
58562W        W30877  43.470  15.824  13.885
58563W        W30878  35.989  29.060  14.862
58564W        W30879  12.723  15.815   2.767
58565W        W30880   3.109  37.377  10.522
58566W        W30881  13.860  10.222   0.357
58567W        W30882  39.945   9.634  12.868
58568W        W30883  39.891  20.708   0.333
58569W        W30884  10.053  22.271  12.545
58570W        W30885  39.931   6.801   0.782
58571W        W30886  18.670   5.944   1.795
58572W        W30887   1.330  41.445   1.866
58573W        W30888  22.467  27.362  10.513
58574W        W30889  21.681  13.243  10.706
58575W        W30890  42.836  27.038  14.370
58576W        W30891  21.055  21.586  12.078
58577W        W30892  28.495  18.031   1.928
58578W        W30893  11.351  29.958  10.915
58579W        W30894  12.649  17.751  12.002
58580W        W30895  21.067   5.776   1.748
58581W        W30896   8.761  19.267   1.202
58582W        W30897  30.370  29.639  14.767
58583W        W30898  30.071  29.670   0.392
58584W        W30899  28.460  13.029   0.749
58585W        W30900  22.801  35.173   5.062
58586W        W30901  44.668  38.399   2.808
58587W        W30902  16.325   7.266  12.418
58588W        W30903  30.756  18.705  12.067
58589W        W30904  23.246  24.307   4.117
58590W        W30905  40.236  26.585  11.921
58591W        W30906  18.160  22.305  14.317
58592W        W30907  16.080  13.225   2.322
58593W        W30908  44.999   5.957  12.002
58594W        W30909  10.020   5.919  13.951
58595W        W30910  15.296  36.119   0.943
58596W        W30911   1.367  35.956  10.626
58597W        W30912   4.494  10.119  13.302
58598W        W30913   2.009  11.756  13.354
58599W        W30914  43.839   8.810  13.573
58600W        W30915  14.618  28.650   4.690
58601W        W30916  27.297  19.761   4.086
58602W        W30917  31.593  24.399  10.778
58603W        W30918  19.271  14.979   4.683
58604W        W30919  14.430   6.265  10.710
58605W        W30920  42.057   9.887   4.594
58606W        W30921  38.833   8.650  10.565
58607W        W30922  37.889   1.154  11.946
58608W        W30923  33.965   3.961   2.242
58609W        W30924  29.614   0.445  13.096
58610W        W30925  11.312  27.445  11.197
58611W        W30926   4.284  34.414   1.841
58612W        W30927  12.166  24.774   0.738
58613W        W30928  37.553  43.882   2.202
58614W        W30929  25.540  39.578  12.348
58615W        W30930  37.900  15.063  14.234
58616W        W30931  19.461   8.309   2.227
58617W        W30932  38.805  17.461   3.128
58618W        W30933  27.155  20.516   1.814
58619W        W30934  25.542  10.764   3.486
58620W        W30935  38.673  27.995  14.709
58621W        W30936  23.799  28.444  11.628
58622W        W30937  21.633  28.476   2.707
58623W        W30938   5.517  44.051  12.618
58624W        W30939  25.422  40.569  11.891
58625W        W30940   2.740  36.202   3.929
58626W        W30941   4.835  32.820   3.725
58627W        W30942  36.591   6.734   2.681
58628W        W30943  33.860  29.502   4.060
58629W        W30944  13.916  22.516   3.255
58630W        W30945  24.975  39.909   0.952
58631W        W30946  44.732  38.516  10.514
58632W        W30947   9.675  31.887  14.828
58633W        W30948  18.163   9.917   4.528
58634W        W30949  25.396  35.030   3.131
58635W        W30950  40.787  42.277  12.032
58636W        W30951  22.681  30.223   2.162
58637W        W30952   8.873  35.601   4.865
58638W        W30953  11.541  25.045   3.300
58639W        W30954  33.479   8.132  13.897
58640W        W30955  18.693  35.952  12.486
58641W        W30956  41.523  26.393  14.015
58642W        W30957  14.010  21.635   4.792
58643W        W30958  15.536   1.488   4.073
58644W        W30959  13.466  43.327   3.226
58645W        W30960  18.028  43.871  14.461
58646W        W30961  40.512   4.666   0.742
58647W        W30962  38.045  30.648   2.145
58648W        W30963  19.814  18.866   3.333
58649W        W30964  25.676  28.535   2.101
58650W        W30965  13.564  41.247   3.302
58651W        W30966  38.532  37.950   2.780
58652W        W30967  23.600   6.261  14.509
58653W        W30968  12.369  38.814   0.392
58654W        W30969  28.942  21.115   2.230
58655W        W30970  20.135  37.487   2.368
58656W        W30971  13.043   0.769   4.157
58657W        W30972  19.330  10.237   1.378
58658W        W30973  32.992   9.867  10.658
58659W        W30974  13.496  21.680  11.046
58660W        W30975  34.638  34.923  14.591
58661W        W30976  30.389  13.742  10.476
58662W        W30977  14.378  34.036   4.059
58663W        W30978  13.092  30.087  11.971
58664W        W30979  20.350   4.061   3.526
58665W        W30980   2.600   4.337  10.657
58666W        W30981  20.624  36.007   0.840
58667W        W30982  20.950  28.351  11.481
58668W        W30983   0.591  20.408   3.875
58669W        W30984  22.280  26.224   3.827
58670W        W30985  11.408   4.860  10.672
58671W        W30986   1.036  33.964   4.994
58672W        W30987   3.971  14.475   0.439
58673W        W30988  22.620  40.859  12.858
58674W        W30989  19.380  40.714  11.011
58675W        W30990  43.333  11.906   0.004
58676W        W30991  12.233  26.642   2.250
58677W        W30992  29.435  16.234   1.859
58678W        W30993  36.624  41.877  12.123
58679W        W30994   6.957  32.252  10.729
58680W        W30995  36.540  25.668  12.227
58681W        W30996   4.835  29.968   3.402
58682W        W30997   9.654  31.720  11.933
58683W        W30998  11.899  44.639   0.853
58684W        W30999   1.210  12.743  14.935
58685W        W31000  42.175  24.402  13.521
58686W        W31001  39.044  41.807  13.502
58687W        W31002  11.736  24.112  13.544
58688W        W31003  37.850  17.627   0.270
58689W        W31004   8.267  20.949  10.105
58690W        W31005  27.627  12.426  12.357
58691W        W31006   2.266  17.912   4.967
58692W        W31007  14.147   8.918   1.255
58693W        W31008  29.024  28.842  13.967
58694W        W31009  42.304   2.544  11.339
58695W        W31010  31.977  26.390   2.738
58696W        W31011  10.701  42.581  12.085
58697W        W31012  44.308   9.132  13.530
58698W        W31013  24.140  28.703   1.397
58699W        W31014  19.249  34.133  12.488
58700W        W31015  15.789  34.605   2.948
58701W        W31016  44.479  31.283   1.971
58702W        W31017  36.311  39.109   2.842
58703W        W31018  40.860  26.631   3.822
58704W        W31019  15.731   0.746  12.194
58705W        W31020  27.101  31.069  14.466
58706W        W31021  22.615  38.694   1.381
58707W        W31022  24.504  18.318  14.870
58708W        W31023   6.674  44.453  12.007
58709W        W31024  24.452  16.195   3.504
58710W        W31025  16.722   1.800  14.776
58711W        W31026  31.054  29.417   2.698
58712W        W31027  35.877  15.750  11.580
58713W        W31028  37.984  14.348   4.669
58714W        W31029  37.709  23.239  12.150
58715W        W31030   1.507  21.611  13.753
58716W        W31031  44.738  13.164  11.016
58717W        W31032   6.476  18.164  12.640
58718W        W31033  40.895  24.060  11.074
58719W        W31034  14.480   7.173  12.490
58720W        W31035  16.759  38.590  13.382
58721W        W31036  22.602  16.214   2.801
58722W        W31037  44.831  15.192   4.601
58723W        W31038  42.828  32.127   3.220
58724W        W31039   1.767  17.014   4.550
58725W        W31040  10.659  23.282   3.601
58726W        W31041   9.239  29.977  14.319
58727W        W31042  42.461  26.399  13.224
58728W        W31043   4.994   5.462  11.602
58729W        W31044  20.981  33.736   4.231
58730W        W31045  20.958  41.276   4.096
58731W        W31046  38.089   9.719  14.406
58732W        W31047  28.713  43.017  14.385
58733W        W31048  13.840  27.429   4.165
58734W        W31049  23.147  21.648   1.638
58735W        W31050  38.887  44.682   1.281
58736W        W31051  24.037  13.134   0.707
58737W        W31052  32.092   5.662   4.172
58738W        W31053  29.423   7.834   3.809
58739W        W31054   5.161   8.192   4.046
58740W        W31055  17.129  13.332   4.098
58741W        W31056  19.776  28.119   3.874
58742W        W31057  43.508   2.871  12.071
58743W        W31058  44.853  12.590   0.893
58744W        W31059   2.545  19.629   4.718
58745W        W31060  23.739  20.209  13.271
58746W        W31061  13.991  19.650  12.151
58747W        W31062  14.776  39.242   0.483
58748W        W31063   8.294  15.867   3.197
58749W        W31064  15.639  18.729  12.311
58750W        W31065  25.076   5.727   5.056
58751W        W31066  16.166  36.176  12.528
58752W        W31067  34.656  41.949  13.753
58753W        W31068  14.708  25.177  11.170
58754W        W31069  42.821  13.641   2.801
58755W        W31070  24.004  25.754  12.939
58756W        W31071  36.771  25.907  14.508
58757W        W31072  10.780   4.364   1.280
58758W        W31073  29.198  37.879   4.146
58759W        W31074  29.767  35.802  11.135
58760W        W31075  44.885  16.206   3.337
58761W        W31076  11.223  18.269   2.410
58762W        W31077   0.207  42.990  11.326
58763W        W31078   7.912  32.278   0.300
58764W        W31079  34.879  34.706   9.867
58765W        W31080   2.050  41.783  12.638
58766W        W31081   4.017  31.949   1.360
58767W        W31082  21.350  17.988  12.524
58768W        W31083  18.229  29.344  12.563
58769W        W31084  21.747  13.523  13.708
58770W        W31085  10.236  32.551  14.858
58771W        W31086   8.287  13.697  13.500
58772W        W31087  44.713  33.967  12.494
58773W        W31088   4.343  14.252  11.222
58774W        W31089  35.502  38.513  13.407
58775W        W31090  16.629   0.994   0.822
58776W        W31091  23.242  19.694  13.764
58777W        W31092  44.510  38.335  13.550
58778W        W31093  13.846  34.477  12.023
58779W        W31094   4.304   3.706   0.863
58780W        W31095  15.780   1.735   0.375
58781W        W31096   8.819  39.483   3.638
58782W        W31097   0.714  13.179   5.017
58783W        W31098  28.280  30.367   3.947
58784W        W31099  14.059  24.327  11.656
58785W        W31100   7.455   8.262  11.907
58786W        W31101  34.666  26.867   4.654
58787W        W31102   0.262  16.655  13.387
58788W        W31103  41.952  25.841   4.136
58789W        W31104  16.179   8.426   1.681
58790W        W31105  15.130  41.461   2.421
58791W        W31106  23.504  32.004  13.276
58792W        W31107   0.860  33.343   2.792
58793W        W31108  11.991  28.457   3.819
58794W        W31109  34.436  37.240   2.724
58795W        W31110  23.246  40.125  12.404
58796W        W31111  10.434  31.679  11.563
58797W        W31112   5.363   2.853   0.944
58798W        W31113  18.570  18.338   0.891
58799W        W31114  43.462  23.241  13.659
58800W        W31115  25.452  10.787   4.914
58801W        W31116  20.094   8.938   0.427
58802W        W31117  17.505  39.345   3.007
58803W        W31118   4.824  10.117  12.482
58804W        W31119  35.451  15.391   3.669
58805W        W31120  36.348  20.530   0.368
58806W        W31121   5.741   6.798  14.003
58807W        W31122  32.371  35.404  13.315
58808W        W31123  28.078  42.412   4.590
58809W        W31124  16.546  20.970  12.790
58810W        W31125  33.953  27.493   4.733
58811W        W31126   0.543  30.170  11.442
58812W        W31127  38.997  36.950  10.885
58813W        W31128  18.599  44.802  11.110
58814W        W31129  12.387   7.164  12.559
58815W        W31130  42.214  38.459   4.596
58816W        W31131  29.456  26.437   2.244
58817W        W31132  44.823  37.554   2.690
58818W        W31133  12.700  26.635  12.986
58819W        W31134  38.498  19.148   4.192
58820W        W31135  33.956  10.516  13.055
58821W        W31136  41.563   3.969  12.966
58822W        W31137  26.666  27.684  13.674
58823W        W31138  23.221  26.605  12.569
58824W        W31139  27.669  25.123  14.397
58825W        W31140  37.410  40.515   2.741
58826W        W31141  19.970  44.002  13.082
58827W        W31142   8.888   6.378  14.002
58828W        W31143  29.445  14.189   0.247
58829W        W31144  10.130  28.104  11.647
58830W        W31145  22.111  27.133   2.670
58831W        W31146  19.849   0.418   4.490
58832W        W31147  42.863   8.246  13.649
58833W        W31148  25.976   0.791  12.088
58834W        W31149  14.707  26.678  11.995
58835W        W31150  25.491  13.556   0.849
58836W        W31151  35.286  12.055  13.497
58837W        W31152  17.912  41.030  11.999
58838W        W31153   2.960  10.979   4.280
58839W        W31154  23.743  35.957  14.979
58840W        W31155   8.778  26.290  13.988
58841W        W31156  42.533  40.162  14.584
58842W        W31157  27.083   4.395  12.856
58843W        W31158  31.104  42.267   0.733
58844W        W31159  15.593  11.163  13.681
58845W        W31160  11.344  20.221   1.410
58846W        W31161  18.859   4.917   0.935
58847W        W31162   9.310  12.304   1.198
58848W        W31163  25.024  23.088   1.256
58849W        W31164   0.039  24.835  12.327
58850W        W31165  12.196  14.153   0.331
58851W        W31166  36.924  37.904  10.900
58852W        W31167   4.975  39.311   3.311
58853W        W31168  26.259  11.629  12.642
58854W        W31169  15.021  29.480  11.574
58855W        W31170  13.750   0.740   0.280
58856W        W31171  41.774  38.469   3.451
58857W        W31172  39.929  13.815   3.982
58858W        W31173  36.460   4.160   1.744
58859W        W31174  26.072  18.458  14.781
58860W        W31175  28.212  26.648   1.386
58861W        W31176  26.363   6.938   5.046
58862W        W31177  14.583  38.370   0.028
58863W        W31178  32.406  15.203   4.821
58864W        W31179   1.810  32.834   3.642
58865W        W31180   7.107  28.383   5.148
58866W        W31181  11.512  15.781   5.364
58867W        W31182   4.776   3.908   3.102
58868W        W31183   3.279  33.591  12.360
58869W        W31184  29.461  14.349  11.953
58870W        W31185  26.247  34.846  13.742
58871W        W31186  23.967  42.831  11.490
58872W        W31187  21.178  31.107   0.272
58873W        W31188  29.751   7.666  11.641
58874W        W31189  22.432  41.976  11.234
58875W        W31190   0.691  20.815  11.643
58876W        W31191  29.953  39.444   4.533
58877W        W31192  14.396  24.102   1.710
58878W        W31193  30.338  42.002   3.719
58879W        W31194  14.793  18.885   0.814
58880W        W31195  36.680   1.047   4.033
58881W        W31196   9.771  42.666   5.249
58882W        W31197  40.345  16.598   2.874
58883W        W31198  39.741  11.279   3.636
58884W        W31199  39.457  11.699   3.439
58885W        W31200   2.232  42.966   3.214
58886W        W31201  17.659  11.627  10.410
58887W        W31202  34.450  33.653   0.875
58888W        W31203  43.977  36.474   2.303
58889W        W31204  26.747  38.485   2.796
58890W        W31205  13.943  31.100  14.488
58891W        W31206  16.886   4.805   0.416
58892W        W31207  13.856  22.549   4.101
58893W        W31208  25.056   4.994  12.546
58894W        W31209   6.226  26.683   2.438
58895W        W31210  37.253  44.865  13.483
58896W        W31211  13.680  39.405   3.343
58897W        W31212  21.030   2.411  12.652
58898W        W31213   3.492  17.338  13.290
58899W        W31214  17.098  30.945   3.646
58900W        W31215   5.463  38.715  11.106
58901W        W31216   3.976  44.435  10.999
58902W        W31217   4.900  21.027  14.290
58903W        W31218  40.761  11.175   3.690
58904W        W31219  21.994  12.230   3.788
58905W        W31220  39.888  40.450   1.708
58906W        W31221  10.930  18.569   4.352
58907W        W31222  32.688   5.276   4.567
58908W        W31223  24.000   6.502  14.228
58909W        W31224  19.015  20.481   0.303
58910W        W31225  41.351   9.907  13.027
58911W        W31226  32.599   9.468   4.316
58912W        W31227   3.851  34.553   4.535
58913W        W31228  25.190   4.434   4.571
58914W        W31229  27.938  26.653   0.361
58915W        W31230  39.801  30.583   0.683
58916W        W31231  38.998  25.157  10.754
58917W        W31232  35.596  41.547   3.072
58918W        W31233  17.819   5.013  14.528
58919W        W31234  15.508  27.444   4.663
58920W        W31235  26.168  11.379  12.184
58921W        W31236  36.452  44.028  10.989
58922W        W31237  39.400  43.774   0.391
58923W        W31238  35.163  29.528  11.942
58924W        W31239  17.101   5.248  10.592
58925W        W31240  14.288  28.853   4.296
58926W        W31241  25.461  14.193   1.009
58927W        W31242   2.401  27.651  12.697
58928W        W31243   7.181  32.912  10.658
58929W        W31244  15.292   8.568   2.183
58930W        W31245  10.608  15.171   3.825
58931W        W31246  44.027  27.719  14.552
58932W        W31247  31.149  25.479   0.764
58933W        W31248   0.724  20.685   3.419
58934W        W31249  22.623   4.985   2.678
58935W        W31250   4.491  18.671   4.885
58936W        W31251   8.792  24.506   3.785
58937W        W31252  18.018  12.684  11.085
58938W        W31253  23.120  34.875  11.257
58939W        W31254  33.453  20.147  11.931
58940W        W31255   4.982  38.535  11.102
58941W        W31256  32.999  38.603   2.658
58942W        W31257  31.111   1.864   3.662
58943W        W31258   3.655  36.611   1.767
58944W        W31259  37.920  33.398  14.152
58945W        W31260  34.044   8.762   0.236
58946W        W31261   9.924  18.746  13.458
58947W        W31262  21.245  40.281  14.994
58948W        W31263  34.655  26.414   0.014
58949W        W31264  33.477  37.473  10.726
58950W        W31265  29.082  43.652   1.813
58951W        W31266   5.437  35.990  11.643
58952W        W31267  36.923  27.677   2.946
58953W        W31268  41.219  20.561  13.053
58954W        W31269   1.731  10.794  13.445
58955W        W31270  29.254  25.403   0.909
58956W        W31271  24.489  13.134   0.982
58957W        W31272  24.666  23.426  13.454
58958W        W31273  21.178  11.405  14.897
58959W        W31274  35.106  25.171   2.626
58960W        W31275   7.257  29.181   4.811
58961W        W31276  14.714  34.113  11.293
58962W        W31277  24.927  26.085   0.778
58963W        W31278  32.285  16.087  14.736
58964W        W31279  29.094  16.615   3.377
58965W        W31280  23.608  43.422  13.502
58966W        W31281  16.354   0.710  12.550
58967W        W31282  35.302  19.214   0.299
58968W        W31283   0.992  10.444  11.552
58969W        W31284  42.396  31.565   2.659
58970W        W31285   7.560  36.553  11.641
58971W        W31286  15.495  28.481   0.921
58972W        W31287  32.627   3.368   3.365
58973W        W31288  30.409  42.990   4.120
58974W        W31289  12.222  30.328  11.967
58975W        W31290  38.909  36.027  12.962
58976W        W31291   9.958  35.482   0.066
58977W        W31292  35.042   8.304  12.858
58978W        W31293  37.901  12.077   0.807
58979W        W31294  32.870  28.651  10.663
58980W        W31295  11.402  14.766  10.724
58981W        W31296   5.859  38.632  14.350
58982W        W31297  26.455  17.530  11.052
58983W        W31298   5.014  11.381  14.366
58984W        W31299  39.262  34.037   2.330
58985W        W31300  28.408  31.026   2.599
58986W        W31301  10.886  24.514  13.901
58987W        W31302  37.653  39.730  13.547
58988W        W31303  13.992  23.930  13.631
58989W        W31304   4.645   1.865  12.532
58990W        W31305   6.445  32.325   0.937
58991W        W31306  34.600  15.839  11.928
58992W        W31307  35.804  44.770   3.161
58993W        W31308   3.921  24.095  12.358
58994W        W31309  44.365  37.463   2.419
58995W        W31310  33.852  37.052   0.306
58996W        W31311  20.720   3.412   0.560
58997W        W31312  43.909  34.057   4.466
58998W        W31313  39.101  38.345  12.009
58999W        W31314  29.303  25.529  13.869
59000W        W31315  39.931  43.496  12.022
59001W        W31316  41.718  32.639  12.449
59002W        W31317  32.575  40.095  11.976
59003W        W31318  11.541  25.236  12.820
59004W        W31319  39.867  43.573  11.542
59005W        W31320  30.515  40.560  14.935
59006W        W31321  14.814  15.307   4.192
59007W        W31322  37.324   6.429   0.791
59008W        W31323  43.794   0.794   3.840
59009W        W31324  24.725  39.645   4.144
59010W        W31325  22.835  44.349   3.962
59011W        W31326  22.305  18.713  13.848
59012W        W31327  24.079  36.848   2.267
59013W        W31328  34.111  28.650  14.389
59014W        W31329  21.681  15.532  14.609
59015W        W31330   0.453   9.669   1.890
59016W        W31331   6.840  29.729  10.667
59017W        W31332  29.378   2.642   3.120
59018W        W31333  13.249  31.484   2.864
59019W        W31334   2.698  22.639   1.703
59020W        W31335  42.064  44.522  12.287
59021W        W31336  20.962  35.069  10.312
59022W        W31337  18.802  31.633  13.860
59023W        W31338  41.946   4.734  10.218
59024W        W31339   6.015   4.321  14.408
59025W        W31340  37.840  35.408  11.936
59026W        W31341  39.986  18.627  10.897
59027W        W31342  10.594  27.975  13.495
59028W        W31343  37.927  34.338  12.775
59029W        W31344  30.972  15.579   3.242
59030W        W31345  12.280  26.808  11.796
59031W        W31346  28.862  12.656   4.051
59032W        W31347  10.261   2.424  11.795
59033W        W31348  44.280  20.749  10.769
59034W        W31349  21.935   8.273   2.679
59035W        W31350  36.539  16.914   2.914
59036W        W31351  37.793  23.041  13.051
59037W        W31352  14.816  21.768  10.723
59038W        W31353   0.219  43.370  13.133
59039W        W31354   7.957  16.768  13.862
59040W        W31355  22.298  13.512   3.453
59041W        W31356  41.282   7.427  14.217
59042W        W31357  43.247  19.510   1.769
59043W        W31358  20.901  28.849  10.606
59044W        W31359  41.442  42.824  10.257
59045W        W31360  26.045  35.562  13.588
59046W        W31361  21.843  35.515   3.727
59047W        W31362  25.615  16.488   1.998
59048W        W31363  26.964  30.653  14.176
59049W        W31364  27.577   7.698  12.186
59050W        W31365   7.154  19.985   4.449
59051W        W31366   5.866  36.407  13.630
59052W        W31367  21.697   4.591  11.176
59053W        W31368  32.689  14.259   4.160
59054W        W31369  32.118  39.886   4.320
59055W        W31370  43.463  39.917  13.726
59056W        W31371  42.807  28.919   4.350
59057W        W31372  15.888   0.703   3.824
59058W        W31373   4.822  42.767  11.241
59059W        W31374   2.293   4.064   4.653
59060W        W31375  41.276  25.143   2.674
59061W        W31376  38.352  43.778   0.270
59062W        W31377  24.556  14.558  13.397
59063W        W31378  33.327   6.572  13.910
59064W        W31379  38.466   9.169  12.378
59065W        W31380  33.153   1.452   0.243
59066W        W31381  12.421   9.230  10.658
59067W        W31382   5.182  15.224   2.422
59068W        W31383  27.582   7.374  10.440
59069W        W31384  34.536   4.029  11.623
59070W        W31385   0.869   4.974  11.591
59071W        W31386  35.923   8.590   0.990
59072W        W31387  33.821  18.330  10.443
59073W        W31388  35.816  41.976  13.256
59074W        W31389  19.688  38.053  10.956
59075W        W31390  40.033  26.055  14.508
59076W        W31391  16.947  24.558  13.825
59077W        W31392  12.228   6.884  12.118
59078W        W31393  26.435   8.358   3.263
59079W        W31394  10.003  36.579   1.423
59080W        W31395  19.068  20.028   0.030
59081W        W31396  32.463  11.844   4.735
59082W        W31397  17.759  19.844  13.127
59083W        W31398  12.114  42.606   1.613
59084W        W31399  32.130  14.199  11.021
59085W        W31400  43.547  44.485   0.867
59086W        W31401  41.335   8.381  11.210
59087W        W31402   6.947   9.577  11.474
59088W        W31403  39.042  20.276  12.840
59089W        W31404   2.756  18.537   0.343
59090W        W31405  30.226   3.187   2.150
59091W        W31406   8.090  37.759   0.247
59092W        W31407  23.241   7.807   3.301
59093W        W31408  38.975  42.853   1.442
59094W        W31409  30.686  35.918  14.397
59095W        W31410  33.410  19.269   0.050
59096W        W31411   7.125  22.095   3.712
59097W        W31412  40.375   9.083   3.550
59098W        W31413  13.832   6.926   2.050
59099W        W31414  27.853   1.734  14.480
59100W        W31415  42.232  32.569  13.788
59101W        W31416  22.103  40.867  14.033
59102W        W31417  28.498   0.246   0.318
59103W        W31418  10.924  39.509  12.682
59104W        W31419  44.906  37.983   1.884
59105W        W31420  17.575   2.438  14.293
59106W        W31421  28.395  22.115   4.426
59107W        W31422  27.960   6.406   1.687
59108W        W31423   6.323  35.400   3.393
59109W        W31424  42.295  20.519  14.178
59110W        W31425  36.425   2.777   2.572
59111W        W31426  38.861  26.358   9.987
59112W        W31427  31.521  12.828   1.294
59113W        W31428  31.226  14.933   2.493
59114W        W31429  31.912  12.421   4.195
59115W        W31430   9.709  41.480  13.488
59116W        W31431  19.229  39.487  14.244
59117W        W31432  38.083  38.440  14.004
59118W        W31433  25.984  35.939   2.282
59119W        W31434  23.624  37.627   2.445
59120W        W31435  12.289  25.956  14.115
59121W        W31436  15.162  15.322  13.536
59122W        W31437  26.762   6.757  12.462
59123W        W31438  20.692  36.398   3.397
59124W        W31439  15.502  42.815   1.768
59125W        W31440   8.998  16.533   2.884
59126W        W31441  27.474   5.494  14.582
59127W        W31442  39.080  43.501   2.843
59128W        W31443   5.533   4.495  14.450
59129W        W31444  17.095  43.371  12.383
59130W        W31445  26.640  32.416  11.671
59131W        W31446  41.694  10.846  13.503
59132W        W31447  29.094   8.367   3.189
59133W        W31448  20.000  31.142   3.423
59134W        W31449  22.726   3.321   2.792
59135W        W31450  35.943  15.665  13.969
59136W        W31451  22.462  39.691   1.315
59137W        W31452  19.785  17.490  11.279
59138W        W31453  17.553  38.629  11.920
59139W        W31454  32.517  13.342   0.821
59140W        W31455  26.135  14.294  13.411
59141W        W31456  43.044  38.531   1.421
59142W        W31457  38.844  17.085   3.505
59143W        W31458   8.297  26.040  13.362
59144W        W31459  10.383  21.137  13.362
59145W        W31460  28.773  17.803  12.484
59146W        W31461   5.474  38.600  13.403
59147W        W31462  43.359   0.177  14.795
59148W        W31463  12.077  27.233   4.623
59149W        W31464  15.369  15.605  11.652
59150W        W31465  32.438   3.403   2.464
59151W        W31466  36.016  40.887  14.416
59152W        W31467   3.364  12.842  12.674
59153W        W31468  21.673  32.277   0.042
59154W        W31469   2.244  43.069  14.449
59155W        W31470  10.912   1.322   3.638
59156W        W31471  27.631  39.804   0.452
59157W        W31472  26.888  26.577  10.151
59158W        W31473  20.227  42.050   0.346
59159W        W31474  17.268  17.605  14.047
59160W        W31475  16.361  34.664   1.673
59161W        W31476  10.137  34.488  13.516
59162W        W31477  26.771   9.290  14.893
59163W        W31478   5.917   5.485  11.092
59164W        W31479  16.674  30.939  14.276
59165W        W31480   3.209   3.235  13.605
59166W        W31481  43.096   2.343   1.916
59167W        W31482   2.853  29.469   4.909
59168W        W31483  43.998   0.944   0.218
59169W        W31484  42.785  27.397  12.740
59170W        W31485  40.893   7.705  13.603
59171W        W31486  27.031  24.424   3.109
59172W        W31487   2.796  18.563  14.803
59173W        W31488   2.522   0.843   2.854
59174W        W31489   9.589  20.580   0.766
59175W        W31490  26.929  19.026   1.258
59176W        W31491  35.815  43.943  11.618
59177W        W31492  32.892   4.760   3.195
59178W        W31493  39.322   1.318  13.882
59179W        W31494  14.826  24.038  14.818
59180W        W31495   6.654   7.795  11.981
59181W        W31496  16.354  34.062   2.781
59182W        W31497  20.432  30.927  11.024
59183W        W31498   3.500  15.489   5.204
59184W        W31499   1.480  28.280   0.881
59185W        W31500   3.352  21.265   2.933
59186W        W31501  43.096   2.459  10.817
59187W        W31502  38.914  16.745   1.954
59188W        W31503  26.552   1.186   3.766
59189W        W31504  13.773  35.169   2.223
59190W        W31505  29.108   6.983  13.211
59191W        W31506  44.836  26.168  14.082
59192W        W31507  20.608   9.415  12.323
59193W        W31508  16.319  22.602  13.439
59194W        W31509  44.300  27.577   0.495
59195W        W31510  41.982   6.817  10.655
59196W        W31511  23.111   7.091  14.942
59197W        W31512  34.180  11.175  14.469
59198W        W31513  38.114  10.297   0.702
59199W        W31514  20.484  15.142   4.093
59200W        W31515  29.045  17.298   3.205
59201W        W31516   5.249  42.081   0.327
59202W        W31517  30.434  30.681  14.805
59203W        W31518  13.247  32.941  12.059
59204W        W31519   7.254  34.117   0.795
59205W        W31520  23.837   9.228   1.437
59206W        W31521  18.718  34.812  12.025
59207W        W31522  29.592  32.148  13.423
59208W        W31523   8.665  43.491  14.036
59209W        W31524  18.305  15.836  13.010
59210W        W31525  23.129  42.815  13.355
59211W        W31526   2.182  34.418  12.880
59212W        W31527  44.442  15.167  11.993
59213W        W31528   2.423  33.168   2.284
59214W        W31529   7.391  10.688  10.493
59215W        W31530  38.964  12.390   2.276
59216W        W31531  34.478  25.027  12.586
59217W        W31532   8.840  31.898  11.625
59218W        W31533  37.180  43.143  12.433
59219W        W31534  40.359  43.717   2.698
59220W        W31535  26.429  26.668   0.369
59221W        W31536  11.648  37.561   0.140
59222W        W31537  18.526  12.866  13.071
59223W        W31538  33.451   6.514   0.860
59224W        W31539  31.045  28.419  10.335
59225W        W31540  36.889  27.034  12.577
59226W        W31541  30.727   4.922  13.423
59227W        W31542  23.639  11.240  10.782
59228W        W31543  10.751  25.170  14.684
59229W        W31544  12.212   6.934   2.957
59230W        W31545  30.639  39.993  13.561
59231W        W31546  32.717  10.665  14.326
59232W        W31547   3.072  27.432  11.091
59233W        W31548  12.690  36.281  14.376
59234W        W31549  17.151  20.299  13.372
59235W        W31550  16.054  15.433  13.191
59236W        W31551   6.370   3.184   4.717
59237W        W31552  22.179  23.507  12.104
59238W        W31553  40.702  39.872   1.375
59239W        W31554  35.788  39.098   2.839
59240W        W31555  39.943  16.544  12.879
59241W        W31556  26.697  14.384   3.393
59242W        W31557  17.323  42.250  11.611
59243W        W31558  30.628  27.674  12.407
59244W        W31559  26.130   7.883  13.846
59245W        W31560   7.023  12.411   3.548
59246W        W31561   4.576  30.460  12.942
59247W        W31562  25.465  36.977  14.978
59248W        W31563  30.653   0.379   0.910
59249W        W31564   3.983  22.636   1.448
59250W        W31565  12.205   9.299  12.600
59251W        W31566  26.959  32.903  12.462
59252W        W31567  14.815  31.098   2.355
59253W        W31568  33.003  41.299   0.803
59254W        W31569  11.051  42.276   3.096
59255W        W31570  26.681  20.697  14.001
59256W        W31571  38.023  11.081   2.919
59257W        W31572  25.231   5.046   3.152
59258W        W31573   9.770  44.185   4.109
59259W        W31574  39.960  31.480  11.417
59260W        W31575  34.676  29.488   4.598
59261W        W31576  19.747  28.958   4.224
59262W        W31577  34.682   5.694  14.214
59263W        W31578  20.130  17.605   4.934
59264W        W31579  37.941  35.437   4.192
59265W        W31580  33.576  30.909   0.318
59266W        W31581   7.847  11.577  10.486
59267W        W31582  25.219  36.929  10.711
59268W        W31583  28.609  26.270  11.136
59269W        W31584  41.055  19.950  11.157
59270W        W31585  40.060  26.901   1.695
59271W        W31586  28.651   5.852   0.437
59272W        W31587   8.230  29.387   1.168
59273W        W31588  33.962  28.372  10.794
59274W        W31589   0.139   4.807   2.382
59275W        W31590  39.220  27.968   1.405
59276W        W31591   8.141   6.053   2.822
59277W        W31592   9.827   0.876  11.814
59278W        W31593  42.213  31.868   3.031
59279W        W31594  20.137   1.859   3.636
59280W        W31595  24.016   7.277  13.624
59281W        W31596   3.882   5.865  13.104
59282W        W31597  21.271  32.460   2.894
59283W        W31598  32.104  11.295   0.580
59284W        W31599  21.583  32.431   1.218
59285W        W31600   9.650  38.486   0.418
59286W        W31601  37.107  41.776  13.331
59287W        W31602  36.395  15.383  12.767
59288W        W31603  30.274   0.868  13.361
59289W        W31604  33.110  33.399   4.879
59290W        W31605  44.021   8.655   2.865
59291W        W31606   2.384  43.262   1.246
59292W        W31607   7.077  11.517   2.789
59293W        W31608  12.833  24.688   1.358
59294W        W31609  17.641  41.476  12.044
59295W        W31610   4.914  20.588   3.033
59296W        W31611  11.863   3.023  12.140
59297W        W31612  28.638  37.906   0.404
59298W        W31613  41.893  17.569  14.951
59299W        W31614  25.092  24.923  10.650
59300W        W31615  26.570  32.342  14.498
59301W        W31616  39.475  37.051  10.701
59302W        W31617  39.366  43.700  11.582
59303W        W31618   1.741  34.777  13.879
59304W        W31619   5.414  15.362  11.153
59305W        W31620  28.927  26.081   0.996
59306W        W31621  31.598  25.720  14.233
59307W        W31622  40.623  26.036   1.355
59308W        W31623   6.320  29.955   2.505
59309W        W31624  43.051  27.486   1.336
59310W        W31625  30.206   7.944  12.594
59311W        W31626  30.144   6.928  12.342
59312W        W31627  14.775   3.195   0.892
59313W        W31628  10.113  23.685   4.077
59314W        W31629  35.410  21.219   4.582
59315W        W31630  11.607  29.499  11.412
59316W        W31631  32.205   3.328   0.863
59317W        W31632  25.843  13.614   0.450
59318W        W31633  22.265   8.259   3.554
59319W        W31634   2.840  22.895  11.600
59320W        W31635  13.890  23.582  10.732
59321W        W31636   5.606  23.393   0.067
59322W        W31637  20.042  16.620  11.544
59323W        W31638  11.168  25.205   1.915
59324W        W31639  18.624   4.257  10.778
59325W        W31640  37.036  44.256   0.231
59326W        W31641  19.474  20.125  12.881
59327W        W31642  12.859  11.633   0.398
59328W        W31643  35.306  23.631   0.441
59329W        W31644   1.281  31.088   4.664
59330W        W31645   9.608  31.735   4.095
59331W        W31646  33.873  44.939  12.034
59332W        W31647  11.756  17.085  13.262
59333W        W31648   9.136  36.409   0.858
59334W        W31649  23.320  24.052  12.087
59335W        W31650  39.352  24.203   2.685
59336W        W31651   3.749  33.038  10.996
59337W        W31652   6.464  12.886  11.653
59338W        W31653  34.708  39.453   2.788
59339W        W31654  44.746  11.716   3.680
59340W        W31655  19.341   9.161   0.500
59341W        W31656  44.445   6.958  13.307
59342W        W31657  36.120  24.030  13.451
59343W        W31658  18.076  34.467   3.361
59344W        W31659   4.987  39.181   2.387
59345W        W31660  43.842  16.181  14.307
59346W        W31661  32.712   9.379   1.711
59347W        W31662  38.808  35.972  14.695
59348W        W31663  19.838  37.874   1.492
59349W        W31664  33.493  43.509   3.622
59350W        W31665  37.066  44.307   3.681
59351W        W31666   2.472  42.386  11.562
59352W        W31667  30.465  36.164   2.954
59353W        W31668  24.650  31.125  12.418
59354W        W31669  39.903  21.811  12.459
59355W        W31670   6.141  14.513   3.348
59356W        W31671  27.204  14.302  13.520
59357W        W31672  26.781   9.627  14.478
59358W        W31673  24.946  15.804  12.128
59359W        W31674   7.955  14.305   2.564
59360W        W31675  31.022  13.175   4.778
59361W        W31676   5.413   6.953  12.545
59362W        W31677  17.529  25.030   4.628
59363W        W31678   1.240  23.546  14.531
59364W        W31679  39.764  36.084  13.313
59365W        W31680  28.075  14.507   0.424
59366W        W31681   6.340   2.478   0.306
59367W        W31682   3.647  42.553   3.371
59368W        W31683  26.420  22.646   5.172
59369W        W31684   4.368  23.420  11.166
59370W        W31685  22.539  34.147  12.841
59371W        W31686  44.974  20.473  11.279
59372W        W31687  39.993  37.100  11.971
59373W        W31688  39.295  11.586  12.640
59374W        W31689  26.707  18.698  14.409
59375W        W31690   8.151  22.284   0.755
59376W        W31691   0.157  32.067  14.165
59377W        W31692  43.336   1.409   3.268
59378W        W31693  39.431  43.197   2.601
59379W        W31694  14.106   4.750   0.872
59380W        W31695  28.436   2.011   2.293
59381W        W31696  36.308  12.732  11.554
59382W        W31697  20.817   2.900  11.149
59383W        W31698  28.517   9.696   2.722
59384W        W31699  44.383  43.377  12.596
59385W        W31700   4.875  33.611  10.678
59386W        W31701  15.241   3.331   3.228
59387W        W31702  16.828  35.455   2.226
59388W        W31703  30.048  30.728   1.208
59389W        W31704   5.298  13.309   0.128
59390W        W31705  34.381  34.670  12.127
59391W        W31706   9.630  35.090  11.413
59392W        W31707  34.551  16.994   0.333
59393W        W31708   7.820  31.001  11.153
59394W        W31709  12.354  15.440  14.848
59395W        W31710  21.105  39.024   2.661
59396W        W31711  11.076  16.058  12.726
59397W        W31712  37.366  12.860   4.975
59398W        W31713  12.096  30.958   4.081
59399W        W31714  18.249  12.044   1.252
59400W        W31715  21.275   6.331   1.780
59401W        W31716  22.308  10.638   2.358
59402W        W31717  17.750  40.880  14.792
59403W        W31718   3.106   2.444  14.968
59404W        W31719  42.490  12.240   0.296
59405W        W31720  12.667  40.351   1.293
59406W        W31721  14.377  40.678  12.465
59407W        W31722  24.279  19.167   1.746
59408W        W31723  41.328  10.328  14.769
59409W        W31724  20.158  16.221   0.381
59410W        W31725   7.430   1.396  12.609
59411W        W31726  11.353  39.526  12.390
59412W        W31727   1.431  29.954   1.406
59413W        W31728  19.215  28.347   2.281
59414W        W31729  44.231  11.828   0.245
59415W        W31730  36.929  11.031  12.033
59416W        W31731  34.471  36.327   1.430
59417W        W31732  23.603  43.961  14.267
59418W        W31733  33.756  23.180   0.124
59419W        W31734  34.870  17.516   1.777
59420W        W31735  38.060  28.462   0.243
59421W        W31736  36.468  19.699  12.439
59422W        W31737   5.214  19.656  11.747
59423W        W31738  18.189   8.621  10.030
59424W        W31739  40.546  25.514   5.022
59425W        W31740  11.624   3.517   0.467
59426W        W31741  13.206  18.820   2.720
59427W        W31742  43.927  29.916  10.765
59428W        W31743  35.315  41.890  13.030
59429W        W31744  44.370  33.070  14.362
59430W        W31745  31.106  12.244   2.312
59431W        W31746   5.236   1.070   3.559
59432W        W31747  22.821  11.339  14.363
59433W        W31748  29.619  30.671  13.790
59434W        W31749  36.458  29.658   0.911
59435W        W31750  24.691  10.276   2.714
59436W        W31751  20.301  11.524   2.196
59437W        W31752  23.076  38.801   1.749
59438W        W31753  23.166  12.391   0.926
59439W        W31754  27.245   1.870   3.031
59440W        W31755  36.322  34.799   3.589
59441W        W31756  33.965  43.981   2.192
59442W        W31757   3.121   6.901  14.855
59443W        W31758  32.211   8.257  12.219
59444W        W31759  11.394  19.005  10.586
59445W        W31760  42.614  18.274  11.954
59446W        W31761   3.323  33.597  10.658
59447W        W31762  42.300  43.069  13.434
59448W        W31763  16.791  42.195  12.906
59449W        W31764  21.776  38.838  10.839
59450W        W31765  10.207  10.429   1.968
59451W        W31766  26.889   8.452  13.442
59452W        W31767   3.936   9.250  13.120
59453W        W31768   6.003   2.277  14.414
59454W        W31769  12.862  34.318   1.755
59455W        W31770  11.203  37.377  14.953
59456W        W31771  41.724  30.659   1.678
59457W        W31772  10.650  32.639  11.106
59458W        W31773  38.411  32.929  14.853
59459W        W31774  15.572  34.984  13.837
59460W        W31775  24.279  23.787  14.207
59461W        W31776  31.879   8.806   3.528
59462W        W31777  17.072  37.284  14.512
59463W        W31778   3.437  21.773  13.733
59464W        W31779  39.641  26.473   0.691
59465W        W31780   7.137  11.177   4.757
59466W        W31781  15.592  44.997  11.492
59467W        W31782  41.811   1.692  14.287
59468W        W31783  32.197   9.424  10.267
59469W        W31784  16.818  43.340  13.378
59470W        W31785   4.476  35.656   2.318
59471W        W31786   1.039  44.607   2.343
59472W        W31787  15.469  38.456   1.911
59473W        W31788  24.086  33.842   1.429
59474W        W31789   2.433  29.118   1.164
59475W        W31790  35.662  42.994   1.503
59476W        W31791  31.415  31.944  10.645
59477W        W31792  25.243  14.663   1.131
59478W        W31793  28.570  17.931  14.438
59479W        W31794  26.787  35.675   4.829
59480W        W31795  18.438  34.100   4.107
59481W        W31796   0.352   9.374  10.275
59482W        W31797   1.973   7.316  11.175
59483W        W31798  20.436  38.712   1.660
59484W        W31799  32.650  43.716   0.275
59485W        W31800  36.332  37.031  13.427
59486W        W31801  31.479  34.377   1.216
59487W        W31802  26.076   3.905   9.923
59488W        W31803  26.584  16.230  11.701
59489W        W31804  28.030  29.173  11.569
59490W        W31805  23.607  42.354   1.649
59491W        W31806  27.575  27.515   4.401
59492W        W31807   7.991  10.887   1.808
59493W        W31808   9.364  36.215   3.711
59494W        W31809  33.356  15.662  12.189
59495W        W31810  34.107  42.763  13.628
59496W        W31811  26.592   5.820   2.865
59497W        W31812  44.504  21.230   1.799
59498W        W31813  36.815  14.919  13.458
59499W        W31814  13.282  23.486  11.231
59500W        W31815  12.051  31.892   3.364
59501W        W31816  16.309  26.690   2.433
59502W        W31817  17.180  10.676   9.775
59503W        W31818   5.401  12.225  11.671
59504W        W31819  43.502   9.114  14.774
59505W        W31820  13.565   9.984  14.350
59506W        W31821   1.452  13.558   0.434
59507W        W31822  14.273  24.698   3.045
59508W        W31823   0.853   8.244  12.843
59509W        W31824   1.773  43.546  14.990
59510W        W31825  33.672  35.433  13.913
59511W        W31826  31.896  43.708  11.665
59512W        W31827   3.243  26.595  13.003
59513W        W31828  24.718  15.566  13.051
59514W        W31829   0.211  34.316  11.131
59515W        W31830  41.604  39.112  10.794
59516W        W31831   2.761  28.658  11.641
59517W        W31832  27.126   2.092   0.167
59518W        W31833  16.199  16.268   2.867
59519W        W31834   6.394  24.327   2.746
59520W        W31835  32.528  11.336   4.575
59521W        W31836  36.433  41.893   0.506
59522W        W31837   1.256  30.021  12.110
59523W        W31838  13.176  40.480  13.467
59524W        W31839  27.599  21.182  14.062
59525W        W31840  13.653  30.029   1.287
59526W        W31841  23.562  11.552   3.631
59527W        W31842  26.700  33.414   3.643
59528W        W31843  33.509  15.159   0.467
59529W        W31844  33.709  37.501  13.348
59530W        W31845  40.608  21.339   2.059
59531W        W31846  24.563  15.270   1.640
59532W        W31847  11.808  12.798   3.221
59533W        W31848  24.029   8.733  14.049
59534W        W31849  21.529  20.540   0.305
59535W        W31850  41.868  21.740   0.434
59536W        W31851   3.107  17.611   2.671
59537W        W31852  35.986  13.785   1.370
59538W        W31853  41.049  20.916   4.157
59539W        W31854  17.035  26.454  13.538
59540W        W31855  35.165  23.586   2.763
59541W        W31856  23.275  38.552  14.337
59542W        W31857  33.993   5.698  12.082
59543W        W31858  40.094   6.868  13.756
59544W        W31859  13.855  24.802   0.237
59545W        W31860  38.930  36.099   2.350
59546W        W31861  15.289  11.734  12.982
59547W        W31862   7.606  43.910   4.059
59548W        W31863   0.518  17.479  12.202
59549W        W31864  44.874   5.440   3.424
59550W        W31865   7.762   2.027  13.952
59551W        W31866  37.375  25.084   2.424
59552W        W31867  41.164  41.054  13.413
59553W        W31868  21.466  25.633  13.007
59554W        W31869  41.882  10.797   4.328
59555W        W31870  41.453  19.651  11.110
59556W        W31871   7.832  13.247  12.784
59557W        W31872  16.214   0.977  12.969
59558W        W31873  26.078   0.061  14.407
59559W        W31874   0.548  41.929   1.896
59560W        W31875  32.430   4.992   3.094
59561W        W31876  38.939  29.048   0.422
59562W        W31877  27.738  32.896   1.346
59563W        W31878  22.026  22.191   2.320
59564W        W31879  16.030   6.644   2.341
59565W        W31880  29.468  39.643   4.530
59566W        W31881  25.219   6.475   4.662
59567W        W31882  24.048  31.077  12.059
59568W        W31883  17.554   3.426   1.349
59569W        W31884   8.222   3.629  13.392
59570W        W31885  13.154   7.206  12.958
59571W        W31886  32.958   1.919   3.420
59572W        W31887   6.365   3.321   4.180
59573W        W31888  16.754  30.992   1.224
59574W        W31889  12.807  25.698  12.482
59575W        W31890  10.102  39.562  14.614
59576W        W31891  44.446   4.786  14.447
59577W        W31892  36.432  13.815  13.068
59578W        W31893  23.508  19.573  12.583
59579W        W31894  32.724   1.733   0.347
59580W        W31895  21.613  12.123  11.439
59581W        W31896   2.881  38.299   4.294
59582W        W31897  18.292   8.871  11.753
59583W        W31898  35.294   3.151  12.482
59584W        W31899  24.620  30.905   0.843
59585W        W31900  38.217   7.208   3.695
59586W        W31901   6.709  26.476  10.800
59587W        W31902   6.428  12.287  14.989
59588W        W31903  32.945  21.745   2.644
59589W        W31904  16.040  20.058  11.646
59590W        W31905  36.903  24.563  12.234
59591W        W31906  14.311  13.428   0.469
59592W        W31907  31.423  25.739   4.165
59593W        W31908  21.520  20.980  14.987
59594W        W31909  12.559  16.245   0.897
59595W        W31910  27.662  29.489  10.682
59596W        W31911   8.325  35.388   2.726
59597W        W31912  38.054  25.169  14.008
59598W        W31913   9.898  17.298  13.336
59599W        W31914  22.561  34.382   2.926
59600W        W31915  44.193  39.584  12.405
59601W        W31916  42.340  31.712  12.442
59602W        W31917  44.271   4.761   3.362
59603W        W31918  39.638  38.770   0.946
59604W        W31919  38.395  15.175  14.395
59605W        W31920  42.324  34.049   1.251
59606W        W31921  42.862  12.116  14.959
59607W        W31922  22.667  42.576   0.448
59608W        W31923   9.727  26.616   0.891
59609W        W31924   9.786  33.478  12.020
59610W        W31925  43.315  25.105  14.755
59611W        W31926  27.442  13.273   1.218
59612W        W31927  11.674  20.945   0.048
59613W        W31928  29.816   1.460   4.090
59614W        W31929  32.632   8.728  11.565
59615W        W31930  34.024  14.896   3.341
59616W        W31931  10.139  21.969   4.537
59617W        W31932   6.561   4.330  14.359
59618W        W31933  15.846  30.970  11.825
59619W        W31934  36.396  19.477   1.641
59620W        W31935  38.503  37.901  10.635
59621W        W31936  10.185  42.693  12.420
59622W        W31937  13.168   4.919   2.763
59623W        W31938  21.102  24.701   1.214
59624W        W31939  34.907  12.104  14.842
59625W        W31940  37.939  42.962   2.914
59626W        W31941   5.812  34.092  12.119
59627W        W31942  25.520  18.768   1.515
59628W        W31943  33.262  41.257   2.066
59629W        W31944  22.529  10.697   3.208
59630W        W31945   7.494   0.177  14.982
59631W        W31946  35.894   1.943   3.257
59632W        W31947  26.102  30.109   2.236
59633W        W31948  32.924  44.735   2.858
59634W        W31949  20.710  18.354   4.826
59635W        W31950  14.472   9.508   5.200
59636W        W31951  26.589  19.802   0.993
59637W        W31952  15.152  13.660   4.692
59638W        W31953   2.362   7.398   2.476
59639W        W31954  33.776  44.322   4.533
59640W        W31955  29.925   4.216  10.621
59641W        W31956  43.840   9.303  13.374
59642W        W31957  41.701  44.043  13.805
59643W        W31958  11.324   4.152  12.974
59644W        W31959  10.982  28.152   3.237
59645W        W31960  22.549  24.134   3.131
59646W        W31961  28.715  38.866   1.635
59647W        W31962   1.400   9.425  10.941
59648W        W31963  43.646  26.689   1.795
59649W        W31964  35.681   1.287  12.591
59650W        W31965   7.259  10.860  13.079
59651W        W31966  34.581  41.246   2.877
59652W        W31967  11.415  32.560   0.308
59653W        W31968  20.921  25.771   3.869
59654W        W31969  10.173  34.127  11.995
59655W        W31970   9.703   0.027  12.402
59656W        W31971  27.506  25.052   3.467
59657W        W31972   2.964   2.518   1.793
59658W        W31973  16.581  15.747  13.838
59659W        W31974   9.496  40.789   4.147
59660W        W31975   8.581  12.548   2.129
59661W        W31976  42.943  12.820   3.158
59662W        W31977  39.801  10.630   2.645
59663W        W31978  44.280  31.600  12.574
59664W        W31979  29.289   8.693  13.601
59665W        W31980   5.346  36.510  14.781
59666W        W31981  27.884  28.456   2.757
59667W        W31982  27.910  21.253  11.122
59668W        W31983  43.033  44.349  14.636
59669W        W31984   5.145  42.963  11.637
59670W        W31985   9.115  12.998   3.628
59671W        W31986   1.562  22.504   3.125
59672W        W31987  16.061  31.580  10.325
59673W        W31988  17.785  40.018   3.688
59674W        W31989  10.608  38.976  11.126
59675W        W31990  25.696  44.571   0.371
59676W        W31991  25.496  19.553  11.187
59677W        W31992  24.155  12.241  13.470
59678W        W31993  22.704  33.801  14.763
59679W        W31994  19.740  41.751  13.762
59680W        W31995  32.965   7.122  12.567
59681W        W31996  38.009  44.323  11.607
59682W        W31997  38.732  12.135   1.875
59683W        W31998  31.023  19.238   3.217
59684W        W31999   5.354  19.689   0.900
59685W        W32000  39.453  34.410  13.181
59686W        W32001  22.243   2.767  12.381
59687W        W32002  18.641  13.360   4.494
59688W        W32003  23.521   6.343   2.838
59689W        W32004   0.724  22.004  12.972
59690W        W32005  40.970  44.591  14.123
59691W        W32006  38.344   8.387  11.037
59692W        W32007  32.477   6.222  14.112
59693W        W32008  18.747  35.485  11.439
59694W        W32009  15.663  42.025   2.924
59695W        W32010  27.720  21.523  14.467
59696W        W32011  22.739   1.185  13.972
59697W        W32012  24.518  39.472  10.435
59698W        W32013  22.403  31.571   1.688
59699W        W32014  11.223  35.977  14.383
59700W        W32015   1.282  26.004   1.825
59701W        W32016  33.174  17.709   4.630
59702W        W32017  12.652  38.066  14.954
59703W        W32018  16.705  29.953   1.458
59704W        W32019  38.848  17.341   0.038
59705W        W32020   4.779  10.717  10.680
59706W        W32021  41.303   8.025   4.617
59707W        W32022  39.925  39.119   3.171
59708W        W32023  24.495   1.407   1.769
59709W        W32024  30.039  18.115  11.501
59710W        W32025  36.552  32.504   2.377
59711W        W32026  31.964   9.210  11.790
59712W        W32027  30.147  29.460   2.714
59713W        W32028  16.441   2.957   1.865
59714W        W32029   3.270  25.501  14.317
59715W        W32030  11.409  42.385  14.290
59716W        W32031  28.466   3.407  12.007
59717W        W32032  34.406  35.826  10.720
59718W        W32033  35.842  39.957   4.517
59719W        W32034  12.190  43.941   1.460
59720W        W32035  25.179  18.166   2.125
59721W        W32036   6.472  36.051   4.129
59722W        W32037   4.680  29.596   1.068
59723W        W32038   1.347   0.951  11.174
59724W        W32039  29.623  34.143   1.947
59725W        W32040  14.558  21.720   1.920
59726W        W32041  29.602  27.595  10.883
59727W        W32042  42.014   4.236   3.556
59728W        W32043  25.503   1.172  12.186
59729W        W32044  17.611   0.356   4.168
59730W        W32045  16.142  40.507  12.526
59731W        W32046  30.008  35.366   4.633
59732W        W32047  40.247   3.338   4.306
59733W        W32048  38.078  22.772  10.309
59734W        W32049  27.195   1.372  13.459
59735W        W32050   5.444  40.453  14.280
59736W        W32051   0.599  28.068  13.358
59737W        W32052  14.299  21.594  14.452
59738W        W32053  23.788   5.883  13.045
59739W        W32054  31.941  41.332   4.406
59740W        W32055  40.893   9.140  11.218
59741W        W32056  16.134  18.981   0.750
59742W        W32057  13.199  21.538  13.134
59743W        W32058  29.849  22.145   3.297
59744W        W32059  30.875  20.080   4.563
59745W        W32060  17.107  28.192  11.356
59746W        W32061  42.602  19.277   3.302
59747W        W32062   0.218  42.875  12.311
59748W        W32063  24.639  34.572  10.633
59749W        W32064  18.297   2.796  14.174
59750W        W32065  31.589  14.241   1.913
59751W        W32066   8.429  12.802  12.553
59752W        W32067   4.022  26.720   3.808
59753W        W32068  39.009  24.366  10.305
59754W        W32069  44.008  36.947  13.903
59755W        W32070   3.201  15.279   3.971
59756W        W32071  22.215  37.601  11.043
59757W        W32072  32.582  40.078  14.839
59758W        W32073  38.979   7.607  10.330
59759W        W32074  12.325  39.275   3.647
59760W        W32075  16.082  39.848  13.348
59761W        W32076  26.286   1.043  10.846
59762W        W32077  17.219  38.872   1.405
59763W        W32078  14.873  24.742   2.374
59764W        W32079  43.895   4.264  13.513
59765W        W32080  25.230  26.626   1.336
59766W        W32081  15.698  30.923   2.665
59767W        W32082  36.976  28.201  13.840
59768W        W32083  10.253  34.881   3.757
59769W        W32084  15.150  36.136  13.579
59770W        W32085  32.618  38.275  13.563
59771W        W32086  28.617  11.353  11.468
59772W        W32087   6.309   3.647   2.313
59773W        W32088  38.298  42.684   3.220
59774W        W32089  39.108   6.511  11.166
59775W        W32090  16.951  20.896   3.375
59776W        W32091  32.895  36.553   3.340
59777W        W32092  19.189  15.641  13.988
59778W        W32093  35.068   7.120  12.482
59779W        W32094  43.206  23.136   0.475
59780W        W32095  22.949  27.074   0.491
59781W        W32096  32.586  16.035  14.326
59782W        W32097  30.212  20.069  14.200
59783W        W32098  43.061  13.742   2.343
59784W        W32099  29.425   1.805   4.252
59785W        W32100  15.126   5.287  10.584
59786W        W32101  22.073   9.090  13.858
59787W        W32102  36.083  24.619   3.742
59788W        W32103  16.177  28.147   5.001
59789W        W32104   5.808  18.949   2.345
59790W        W32105  20.069  27.674  12.941
59791W        W32106  40.272  14.641  11.516
59792W        W32107  27.944   3.974   3.143
59793W        W32108  11.503  30.777   2.838
59794W        W32109   5.287  27.730   2.829
59795W        W32110  32.901  24.750   4.238
59796W        W32111  25.102  37.870   4.279
59797W        W32112  34.857  32.767   4.054
59798W        W32113  30.406  14.298  12.974
59799W        W32114  33.665   2.464   1.271
59800W        W32115  44.063  40.606   3.883
59801W        W32116  26.274  44.944   0.972
59802W        W32117   7.361  37.484  12.415
59803W        W32118  33.737  40.681  11.080
59804W        W32119   4.104  44.935   1.472
59805W        W32120  27.223  39.057  12.036
59806W        W32121   1.257  16.589   3.610
59807W        W32122   6.671  15.179  11.461
59808W        W32123  41.305   8.839   1.981
59809W        W32124  35.351  12.570  13.429
59810W        W32125  42.266  14.589   0.066
59811W        W32126  26.724  11.208   0.805
59812W        W32127  36.485  32.455  14.497
59813W        W32128  41.112  43.460   1.133
59814W        W32129   0.011  12.858  14.431
59815W        W32130  43.435   7.646  12.622
59816W        W32131   2.223  10.722  13.314
59817W        W32132   9.550   3.084   1.275
59818W        W32133   8.200  35.607  12.534
59819W        W32134  25.573  30.957   3.814
59820W        W32135   6.945  35.247   1.763
59821W        W32136  41.747  18.610  14.698
59822W        W32137  11.206  11.183  11.091
59823W        W32138  21.100   6.452   0.150
59824W        W32139   8.176  38.122   2.056
59825W        W32140  32.604  23.366   0.831
59826W        W32141   9.541  11.102   0.428
59827W        W32142  31.585   9.573   0.713
59828W        W32143  22.627  19.196  12.982
59829W        W32144  37.830  21.958  11.762
59830W        W32145  26.488  37.505  11.369
59831W        W32146  18.216  22.018  12.006
59832W        W32147  12.704  34.617  14.933
59833W        W32148   2.359  17.115  12.460
59834W        W32149  15.540  13.722   4.305
59835W        W32150  14.496  26.204   3.102
59836W        W32151  44.005  30.895   3.341
59837W        W32152  39.091  27.120   2.593
59838W        W32153  31.653   8.438  10.728
59839W        W32154   1.309  12.831   1.839
59840W        W32155   1.016   8.440   3.711
59841W        W32156  20.145   7.324  12.819
59842W        W32157  31.192  32.030   1.466
59843W        W32158   9.223   0.347  12.341
59844W        W32159  12.882  30.987   1.632
59845W        W32160  17.033   6.116  14.933
59846W        W32161  42.570  11.797  14.389
59847W        W32162   4.710  39.984   4.463
59848W        W32163  43.618   5.357   2.638
59849W        W32164  28.278  29.205  14.232
59850W        W32165  29.466   8.338  11.182
59851W        W32166   8.216  23.753   4.086
59852W        W32167  11.283  21.019  11.237
59853W        W32168  19.777  27.071   1.869
59854W        W32169  38.783   6.283  10.860
59855W        W32170   8.798  20.764   2.897
59856W        W32171  29.558  15.767  11.934
59857W        W32172  40.958  25.969   2.638
59858W        W32173  11.629  26.786  10.671
59859W        W32174  25.019  18.999   2.273
59860W        W32175  20.998  29.968   4.564
59861W        W32176  22.000  39.960   3.229
59862W        W32177  11.333  14.356  12.021
59863W        W32178  41.795   4.481   3.129
59864W        W32179  25.274  31.920   0.272
59865W        W32180  16.122  20.684   3.360
59866W        W32181  31.660  17.609  12.829
59867W        W32182  20.748  32.118   0.985
59868W        W32183  18.871  25.512   2.279
59869W        W32184  23.954  42.685   5.022
59870W        W32185  27.899   9.385  13.537
59871W        W32186  25.937  30.434  12.391
59872W        W32187  21.005  14.832  13.357
59873W        W32188  43.452  39.829   0.700
59874W        W32189  18.706  19.678  11.948
59875W        W32190  32.561  21.674  11.467
59876W        W32191   9.879  31.551   0.476
59877W        W32192   6.985   8.842  14.188
59878W        W32193   3.852  30.101  11.235
59879W        W32194  24.450   6.883   4.280
59880W        W32195  13.328  34.593   1.817
59881W        W32196  43.024  18.088   3.633
59882W        W32197  35.130  13.087   1.888
59883W        W32198  19.288  24.920  12.176
59884W        W32199   2.470  43.935   0.368
59885W        W32200   7.819  37.438   3.236
59886W        W32201  15.853  35.455   3.581
59887W        W32202  37.471  14.812   4.109
59888W        W32203   7.588  22.610   4.351
59889W        W32204  32.794  25.562  12.391
59890W        W32205  23.650   0.672   4.996
59891W        W32206  21.068  22.198   1.770
59892W        W32207   7.593  19.272   1.646
59893W        W32208  12.832  15.060   0.531
59894W        W32209  16.902  33.447  12.555
59895W        W32210  10.349  23.669  11.634
59896W        W32211  16.213  21.087   0.297
59897W        W32212  21.666  11.899   1.731
59898W        W32213   6.430  13.304   4.075
59899W        W32214   3.322   7.730   1.256
59900W        W32215  22.543  11.641   2.244
59901W        W32216  14.191  14.835   0.272
59902W        W32217  25.606   9.298   4.206
59903W        W32218   8.098  34.521  14.365
59904W        W32219  13.638  28.106  14.513
59905W        W32220   1.933  11.889   0.647
59906W        W32221  37.983  13.831  11.540
59907W        W32222  11.473  19.887  14.075
59908W        W32223   9.185  44.530  12.000
59909W        W32224  22.542  44.995  11.646
59910W        W32225  24.680  15.300   2.157
59911W        W32226   0.873  37.348  12.650
59912W        W32227  33.974   2.444   2.368
59913W        W32228  14.596  40.977   0.416
59914W        W32229  11.481   0.965  10.129
59915W        W32230  27.151  32.888   4.203
59916W        W32231  23.591  26.682  10.177
59917W        W32232  39.095   9.819  12.037
59918W        W32233   8.263   8.828   1.673
59919W        W32234   1.461  35.886   3.755
59920W        W32235  20.039   9.732   4.162
59921W        W32236  18.870   7.773  14.387
59922W        W32237  37.888  40.400  14.679
59923W        W32238  43.788   3.313   4.597
59924W        W32239  40.785  39.574   0.906
59925W        W32240  15.269  30.238   2.205
59926W        W32241  10.602   6.613  10.648
59927W        W32242  37.328  15.110  14.100
59928W        W32243   6.812  13.211  14.832
59929W        W32244  21.548  18.722   0.601
59930W        W32245  21.620  40.262  12.436
59931W        W32246  12.854  43.339  10.620
59932W        W32247  14.881  40.393  13.399
59933W        W32248  40.098   6.372   1.024
59934W        W32249  24.237  37.176  10.610
59935W        W32250  35.590  24.148   1.641
59936W        W32251   4.189  38.091  14.891
59937W        W32252  41.647  36.280   3.609
59938W        W32253  40.118  31.009   0.710
59939W        W32254  43.266  20.110   0.404
59940W        W32255  41.505  25.311  12.493
59941W        W32256  20.716  32.095  14.949
59942W        W32257  20.288  11.423  10.578
59943W        W32258  17.739  35.322  11.293
59944W        W32259  42.078  40.018  13.784
59945W        W32260   2.134  22.291   3.168
59946W        W32261  27.885   3.286   2.154
59947W        W32262  33.413  17.057  13.081
59948W        W32263  15.546  42.366  11.989
59949W        W32264  31.107  44.709  12.783
59950W        W32265  30.633  32.675  12.147
59951W        W32266  33.800  16.156   0.514
59952W        W32267  22.174  20.790  11.160
59953W        W32268  20.820  16.356  10.738
59954W        W32269  17.980  21.801  14.832
59955W        W32270  20.553   9.201   2.820
59956W        W32271  11.364  11.687   5.292
59957W        W32272  26.628  27.915   0.836
59958W        W32273   5.256   6.353  14.846
59959W        W32274  13.664  32.261  11.682
59960W        W32275  35.002   3.921  13.372
59961W        W32276  33.166  31.804  13.063
59962W        W32277  18.234  19.757   2.842
59963W        W32278  29.093  15.595   3.104
59964W        W32279  20.958  39.452  14.002
59965W        W32280  14.560  30.142  11.131
59966W        W32281  28.961  26.062  12.046
59967W        W32282  29.235   1.204  13.081
59968W        W32283  34.968  22.091   3.354
59969W        W32284  20.752  12.172  12.594
59970W        W32285  32.179  39.882  11.691
59971W        W32286   1.521  11.841   5.018
59972W        W32287  40.128  37.752   0.752
59973W        W32288   0.393  28.416   1.536
59974W        W32289  41.040  35.801   2.909
59975W        W32290  25.588  33.883   9.806
59976W        W32291   4.414  41.418  12.502
59977W        W32292   4.246   7.814   0.293
59978W        W32293  35.362  41.042   1.346
59979W        W32294  40.466  41.403   2.243
59980W        W32295   5.245   1.889   0.504
59981W        W32296   8.409  15.170   1.407
59982W        W32297  25.133   4.411  13.814
59983W        W32298  16.592  28.579  14.824
59984W        W32299   4.806   6.529   0.085
59985W        W32300  18.257  16.700  13.112
59986W        W32301   2.948  41.315   4.476
59987W        W32302  20.420   4.898  13.999
59988W        W32303  23.898  14.075  13.956
59989W        W32304  29.972   0.416  13.481
59990W        W32305  36.120  41.810   0.922
59991W        W32306  37.199  36.486   2.804
59992W        W32307  31.698  41.856  13.427
59993W        W32308   7.316  31.086   1.869
59994W        W32309   7.904   3.702   0.470
59995W        W32310  33.326  13.737  12.829
59996W        W32311  14.819   9.695   4.267
59997W        W32312  36.288  34.894   1.287
59998W        W32313   4.888   6.261  12.105
59999W        W32314  36.462  29.163   1.194
60000W        W32315  39.084  37.965  12.377
60001W        W32316   3.497  36.078  11.599
60002W        W32317  44.467   0.261  14.180
60003W        W32318   7.380  13.574  12.077
60004W        W32319  29.971  36.364   0.496
60005W        W32320  19.855  33.419   2.248
60006W        W32321  39.812   3.294  12.070
60007W        W32322  41.125  32.604  11.017
60008W        W32323  32.692  32.111  13.022
60009W        W32324  40.891  31.174   0.212
60010W        W32325  28.197  23.176   1.228
60011W        W32326  39.898  31.006  12.575
60012W        W32327  18.316  22.049  13.877
60013W        W32328  24.547  20.490  14.482
60014W        W32329  42.105  21.082  10.984
60015W        W32330  16.948  16.557  14.508
60016W        W32331  28.013  17.148   2.950
60017W        W32332  19.169   0.641   4.267
60018W        W32333  40.862  27.161  14.903
60019W        W32334  41.478  12.445  10.414
60020W        W32335  23.730  30.905  11.609
60021W        W32336   7.858   6.683   2.049
60022W        W32337   6.302  33.925  10.957
60023W        W32338  18.134  10.265  13.482
60024W        W32339   8.741  27.080   0.379
60025W        W32340   7.248  43.357  14.643
60026W        W32341  26.459  43.593   1.324
60027W        W32342   5.128  42.359   3.339
60028W        W32343  42.479  44.394   0.942
60029W        W32344  28.280  21.266  14.478
60030W        W32345  38.049  31.876  10.574
60031W        W32346  16.066  38.017   4.324
60032W        W32347  21.280  13.030   3.273
60033W        W32348  14.104   3.235  11.625
60034W        W32349  13.036  15.112  11.491
60035W        W32350  14.812  11.176   3.106
60036W        W32351  41.737  28.571  12.586
60037W        W32352  42.552  14.735  11.484
60038W        W32353  25.835  29.400  11.837
60039W        W32354   7.300  23.912  14.285
60040W        W32355   7.803  32.323   2.824
60041W        W32356  13.056  26.469   1.800
60042W        W32357  29.073  21.409  13.679
60043W        W32358  38.938  35.849  14.217
60044W        W32359   4.283  43.275   1.651
60045W        W32360  38.504  17.031   0.280
60046W        W32361   2.306   4.608  11.924
60047W        W32362   4.179  14.995  11.984
60048W        W32363  14.386  16.709   2.640
60049W        W32364  33.541  38.962  11.855
60050W        W32365  29.384   8.794   3.782
60051W        W32366   1.969  40.466   0.818
60052W        W32367  38.116  27.566  10.395
60053W        W32368  31.580   0.683  10.642
60054W        W32369  29.621  21.852   4.824
60055W        W32370   1.009  25.553   2.767
60056W        W32371   2.746  28.159   3.528
60057W        W32372   6.320  30.342   1.813
60058W        W32373  18.210  20.728  11.144
60059W        W32374  29.198  19.650   0.636
60060W        W32375  36.604  31.158  12.983
60061W        W32376  39.865   8.803  11.632
60062W        W32377  15.759  39.071  14.554
60063W        W32378  42.215  28.207   0.809
60064W        W32379  24.632  35.084   0.339
60065W        W32380  29.001  32.982  10.579
60066W        W32381   8.854  27.429   3.681
60067W        W32382   8.741  41.945  13.655
60068W        W32383   3.068  42.065   2.148
60069W        W32384  33.924  23.549  11.709
60070W        W32385  44.941  30.913   1.865
60071W        W32386  29.229  14.130  11.530
60072W        W32387  15.341  28.203  10.252
60073W        W32388   6.140  37.789  12.919
60074W        W32389  28.474   7.151   2.143
60075W        W32390  14.195  22.634   3.688
60076W        W32391   8.328  30.474   3.162
60077W        W32392  13.845   9.751   1.606
60078W        W32393  30.882  41.039   1.132
60079W        W32394  33.541   8.666   0.841
60080W        W32395   4.351   9.085  13.424
60081W        W32396  15.536  20.729   1.467
60082W        W32397  31.439   6.227   2.365
60083W        W32398  10.823   5.404  12.915
60084W        W32399  19.295  14.321   3.011
60085W        W32400  17.775  28.196  10.776
60086W        W32401   5.713  25.924  12.165
60087W        W32402  18.112  23.506  10.692
60088W        W32403  26.174  34.599   3.434
60089W        W32404  13.315  19.296  12.593
60090W        W32405  30.168  10.163   2.107
60091W        W32406  40.623  17.598   3.052
60092W        W32407   9.927   4.379   1.696
60093W        W32408  36.964  29.867   0.255
60094W        W32409  38.869   5.882  11.993
60095W        W32410  14.309  21.869   4.403
60096W        W32411  37.779   6.704   1.972
60097W        W32412  23.078   5.888  13.946
60098W        W32413  32.602  37.573  12.514
60099W        W32414  25.486  14.235  11.505
60100W        W32415  23.824  36.948  12.849
60101W        W32416  41.242  30.736  11.609
60102W        W32417  39.982  14.187   2.466
60103W        W32418  17.452   8.246  10.291
60104W        W32419  42.925  18.670  14.364
60105W        W32420   9.762  35.866  14.762
60106W        W32421  25.142  26.096  11.975
60107W        W32422  13.117  43.353  11.125
60108W        W32423   4.454  12.413  12.576
60109W        W32424  32.989  10.656   2.388
60110W        W32425   2.471  40.320   2.110
60111W        W32426  17.284  22.681   3.570
60112W        W32427  12.676  18.516  13.414
60113W        W32428  44.337  21.257  10.670
60114W        W32429  23.473  24.247  11.647
60115W        W32430  30.350  13.747   0.954
60116W        W32431  10.181  25.021  11.641
60117W        W32432  41.903  19.039  12.894
60118W        W32433   7.273  33.105  13.556
60119W        W32434  27.484  37.763   4.228
60120W        W32435  38.923   3.309  12.191
60121W        W32436  37.538   5.288  13.799
60122W        W32437  31.028  29.703   2.273
60123W        W32438  20.680  28.910  12.821
60124W        W32439  42.590  40.552   1.346
60125W        W32440  12.488   1.252   3.750
60126W        W32441   9.264   2.350  10.975
60127W        W32442   9.657  32.009   0.341
60128W        W32443  19.112  18.084   3.085
60129W        W32444  30.430  28.395  12.082
60130W        W32445   3.430  41.895  14.878
60131W        W32446  27.737   9.332   0.961
60132W        W32447  37.370  17.316   4.630
60133W        W32448  36.842  34.908   3.596
60134W        W32449  32.376  36.611   4.109
60135W        W32450  42.226  15.633   3.036
60136W        W32451  31.061   7.452  12.821
60137W        W32452  23.714  39.518  13.814
60138W        W32453  44.579   0.540   3.611
60139W        W32454  22.065  36.514   3.939
60140W        W32455  12.206  44.831  11.531
60141W        W32456  15.291  18.727  13.568
60142W        W32457  32.941  35.942   4.541
60143W        W32458  26.991   8.167   0.881
60144W        W32459   3.155  21.233  12.009
60145W        W32460  40.884  15.672  14.950
60146W        W32461  40.391   0.565  11.063
60147W        W32462  18.327  35.902  12.869
60148W        W32463  24.148  42.434   3.325
60149W        W32464  16.470  39.396   1.673
60150W        W32465   0.016  22.492   1.241
60151W        W32466  27.478  31.922  14.298
60152W        W32467   6.421  32.986   2.812
60153W        W32468   2.668  29.002  12.946
60154W        W32469  28.603   6.252  14.482
60155W        W32470  32.382  18.646   0.795
60156W        W32471   6.453  41.547  12.019
60157W        W32472  14.830  40.512  11.542
60158W        W32473  17.260  25.713   0.015
60159W        W32474  26.760  24.297   5.026
60160W        W32475  19.340  23.985  12.445
60161W        W32476  24.093  16.150  10.765
60162W        W32477  30.942  30.527  14.929
60163W        W32478  39.096  25.411   0.462
60164W        W32479  12.120  34.831   4.247
60165W        W32480  35.595  13.270   2.792
60166W        W32481  15.739  31.192  14.380
60167W        W32482  30.102  27.644   3.716
60168W        W32483   1.428   8.890  10.978
60169W        W32484  10.652  14.646  13.803
60170W        W32485   5.372  23.264  12.998
60171W        W32486  11.058  43.963   0.014
60172W        W32487  25.632  31.928  13.109
60173W        W32488  15.684   8.631   1.387
60174W        W32489   8.275  20.808   3.159
60175W        W32490  23.450  15.805  14.537
60176W        W32491  10.277   5.137   0.795
60177W        W32492   8.372  37.332  14.359
60178W        W32493  38.941  32.025   5.024
60179W        W32494  21.706  38.999  14.772
60180W        W32495  27.566  44.906  12.031
60181W        W32496   1.869   1.432   2.713
60182W        W32497   1.711  35.798  14.977
60183W        W32498  44.399  36.641   2.828
60184W        W32499  26.590   6.857  10.496
60185W        W32500   5.217  20.776   3.417
60186W        W32501   1.622  42.472  13.488
60187W        W32502  15.261  28.976  13.798
60188W        W32503  20.314  42.381  10.401
60189W        W32504   4.282  34.525   3.402
60190W        W32505   4.325  33.490  14.228
60191W        W32506  12.287  10.569  13.972
60192W        W32507  43.239   9.293   2.659
60193W        W32508  11.384  18.707  14.051
60194W        W32509  11.406  24.752  12.959
60195W        W32510   2.067  37.244   3.455
60196W        W32511   6.752  11.555  13.961
60197W        W32512  10.117  12.086  12.463
60198W        W32513  38.381  31.468   2.735
60199W        W32514  15.176   8.902  13.591
60200W        W32515   1.811  22.783   0.939
60201W        W32516  32.530  11.726  14.010
60202W        W32517   8.152  26.994   0.339
60203W        W32518  34.276  15.559   1.906
60204W        W32519   8.149  32.126   3.313
60205W        W32520  27.105  24.098   0.462
60206W        W32521  43.762  24.353   0.239
60207W        W32522  34.883   4.428  13.455
60208W        W32523  44.555  28.260  12.328
60209W        W32524   9.716  21.243  10.419
60210W        W32525  42.711  24.600  11.076
60211W        W32526  43.107  32.644  13.268
60212W        W32527  43.175  36.831  11.669
60213W        W32528  26.415  40.023   0.792
60214W        W32529  19.143   3.392   2.107
60215W        W32530   3.199  21.659   3.773
60216W        W32531  21.968  35.070  10.472
60217W        W32532  27.460   7.832  13.109
60218W        W32533  28.514  35.518   0.916
60219W        W32534  13.334   3.365   4.097
60220W        W32535  14.965  28.641  10.056
60221W        W32536  13.563  30.415   0.230
60222W        W32537  23.449  30.144   2.151
60223W        W32538   1.118   8.126  10.798
60224W        W32539  33.834  11.456   3.171
60225W        W32540  11.362  14.388   2.782
60226W        W32541   6.017  42.593  12.605
60227W        W32542  30.251  43.584   1.427
60228W        W32543  37.423  44.787  14.842
60229W        W32544  30.058  43.600  12.076
60230W        W32545   3.887  42.770   2.270
60231W        W32546   9.610  17.525   2.614
60232W        W32547  13.662   9.824  13.872
60233W        W32548  27.092  27.999   0.508
60234W        W32549   7.640  30.884  12.473
60235W        W32550  29.484  31.242   1.799
60236W        W32551  13.057   8.854   3.171
60237W        W32552  18.215  18.284   2.723
60238W        W32553  10.347  31.163   0.786
60239W        W32554   8.860  27.578   0.226
60240W        W32555   2.687  30.668  13.796
60241W        W32556  25.317  42.529   1.485
60242W        W32557   7.686  12.305   0.772
60243W        W32558  10.576  16.601   0.524
60244W        W32559  28.667  27.669   3.741
60245W        W32560  36.263   4.886   0.729
60246W        W32561   2.764  14.555  11.218
60247W        W32562  14.695  20.128  12.006
60248W        W32563  22.519  44.253  14.957
60249W        W32564   6.387  20.187   0.507
60250W        W32565  13.527   4.525  14.227
60251W        W32566  29.881   5.838  11.226
60252W        W32567  19.050  21.416  13.564
60253W        W32568   9.223  18.471  12.525
60254W        W32569  26.295  17.058  11.168
60255W        W32570  17.549   5.822  13.563
60256W        W32571  15.860  44.450  10.722
60257W        W32572   3.791  14.741   4.501
60258W        W32573  25.506   5.182   0.863
60259W        W32574  13.356  39.145  13.849
60260W        W32575  21.283  11.349  10.765
60261W        W32576   4.580   8.712  11.133
60262W        W32577  31.369  15.507   4.177
60263W        W32578   6.291   3.919  14.583
60264W        W32579  27.469   6.214  13.778
60265W        W32580   5.719  41.449  11.625
60266W        W32581  14.127   2.885   3.229
60267W        W32582  19.675  11.637  10.463
60268W        W32583  39.349  10.227  12.833
60269W        W32584  41.339  10.315  13.361
60270W        W32585  26.553  26.212  11.066
60271W        W32586   1.938   7.856   0.845
60272W        W32587  39.690  19.641  12.897
60273W        W32588   1.450  16.569   2.774
60274W        W32589  16.113  25.856  11.704
60275W        W32590  17.777  32.708   0.721
60276W        W32591  41.323  11.881  11.899
60277W        W32592  18.741  37.132   0.989
60278W        W32593  21.972  38.580   2.520
60279W        W32594  33.246  41.872   4.142
60280W        W32595  42.473   7.668   4.811
60281W        W32596   2.816  43.683  14.424
60282W        W32597   5.019  26.374   1.781
60283W        W32598  35.655   8.800   1.573
60284W        W32599  35.952   9.207   1.690
60285W        W32600  43.973  33.382  14.544
60286W        W32601  30.873  25.132   4.477
60287W        W32602  16.341  37.409  13.568
60288W        W32603  44.234  10.735   4.580
60289W        W32604  20.118   6.240  14.035
60290W        W32605  40.749  28.737   1.387
60291W        W32606  13.588  44.958   1.870
60292W        W32607  12.901  34.570  10.919
60293W        W32608  22.718   6.802   0.508
60294W        W32609   6.790   5.842  11.059
60295W        W32610  42.999  37.534  14.875
60296W        W32611   4.671  38.477   9.844
60297W        W32612  17.592  17.625  11.150
60298W        W32613  32.729  44.737  13.433
60299W        W32614  18.855  22.302   4.174
60300W        W32615  34.848  14.071   1.759
60301W        W32616   9.606  24.240   0.831
60302W        W32617   4.923  34.834  12.547
60303W        W32618  19.116  18.871   2.624
60304W        W32619   1.398  20.843   2.024
60305W        W32620  28.416  16.873  12.467
60306W        W32621  33.594  25.465  12.029
60307W        W32622  16.838  44.579  11.614
60308W        W32623  32.300  10.662   1.873
60309W        W32624  35.441  26.189  11.979
60310W        W32625   8.248  19.271  11.251
60311W        W32626   6.306  12.531   4.528
60312W        W32627   8.454  40.955   4.130
60313W        W32628   5.929  42.943   1.203
60314W        W32629  29.607  21.015   1.037
60315W        W32630  35.289  16.817   3.167
60316W        W32631  15.268  39.217  12.874
60317W        W32632  30.860  27.561   2.692
60318W        W32633  29.789   2.981   1.860
60319W        W32634   7.719  33.869   0.992
60320W        W32635   8.181  11.401   3.558
60321W        W32636   2.659  23.755  11.130
60322W        W32637  22.007  21.136  10.590
60323W        W32638  41.537   4.186   2.683
60324W        W32639  28.631   7.458  14.385
60325W        W32640  21.322   8.656  11.600
60326W        W32641  38.927  25.154   2.402
60327W        W32642  20.163  21.839   0.444
60328W        W32643  26.084   2.675  13.050
60329W        W32644  23.538  42.519   2.692
60330W        W32645   6.781  44.670   3.689
60331W        W32646  17.795  17.742   3.268
60332W        W32647  43.329  15.233   1.214
60333W        W32648  36.058  20.253   2.798
60334W        W32649  10.431  38.370   0.857
60335W        W32650  29.387   0.896   0.075
60336W        W32651  24.958  41.439  12.108
60337W        W32652  39.126  33.834  12.107
60338W        W32653  37.360  13.740  11.966
60339W        W32654  15.153  28.620  12.421
60340W        W32655  10.890  15.679  12.188
60341W        W32656  13.356  37.791  11.142
60342W        W32657   4.853   9.375  13.012
60343W        W32658  25.130  15.646  13.857
60344W        W32659   9.171  35.922  10.113
60345W        W32660  15.524   3.952   4.172
60346W        W32661  24.116  18.608  13.998
60347W        W32662  40.116  33.844  10.213
60348W        W32663  20.239   1.328   1.179
60349W        W32664  17.117   6.857  12.587
60350W        W32665   7.583  18.797  14.877
60351W        W32666  39.526  23.753  12.980
60352W        W32667   7.233   7.951  12.850
60353W        W32668  36.311  39.548  11.484
60354W        W32669  12.069  28.926   4.543
60355W        W32670  10.797  28.720   4.096
60356W        W32671  35.364  31.882   2.281
60357W        W32672  24.675   5.014   4.273
60358W        W32673   1.503  33.832  13.997
60359W        W32674   0.106   3.467   1.724
60360W        W32675  37.653   0.805  13.412
60361W        W32676   6.094   9.377  14.767
60362W        W32677  30.728  10.217   1.295
60363W        W32678  23.847   8.158  11.969
60364W        W32679   2.475  40.446   1.598
60365W        W32680  40.344  37.457   4.973
60366W        W32681  35.042  34.159   0.317
60367W        W32682  12.693  21.574   4.948
60368W        W32683   8.947  24.165  10.567
60369W        W32684  19.814   0.453  13.919
60370W        W32685  18.317  24.106  13.940
60371W        W32686  22.824  24.952   0.958
60372W        W32687  13.084  12.621  13.163
60373W        W32688  26.599   7.671   4.563
60374W        W32689  10.924  44.455   3.676
60375W        W32690   6.628  36.917   2.332
60376W        W32691  35.163  21.583   4.265
60377W        W32692  20.526  12.422   2.227
60378W        W32693   8.501  21.145  12.610
60379W        W32694  39.492  18.721   2.251
60380W        W32695  35.093  17.988   1.814
60381W        W32696  29.930   1.239  10.475
60382W        W32697  20.411  40.939  11.979
60383W        W32698  26.561  32.164  13.019
60384W        W32699  17.249  42.958   4.225
60385W        W32700  43.518  38.959  10.319
60386W        W32701  12.147  16.117   4.658
60387W        W32702  23.266   3.083   2.672
60388W        W32703  22.669   0.248  12.921
60389W        W32704  10.667  11.279  12.839
60390W        W32705  17.046  24.406   2.687
60391W        W32706  19.758  18.617  10.751
60392W        W32707   9.713  20.063  14.444
60393W        W32708  23.471  19.279   1.326
60394W        W32709  39.482   0.640   3.208
60395W        W32710  36.240  39.911   3.249
60396W        W32711  42.356  14.101  10.887
60397W        W32712  22.529  32.165   0.957
60398W        W32713  23.197  13.768  11.223
60399W        W32714  16.867  29.612  14.749
60400W        W32715  30.481  36.653   0.299
60401W        W32716   4.508  19.372   1.230
60402W        W32717  16.679  20.368  14.988
60403W        W32718  16.964  36.130   1.210
60404W        W32719  11.175  33.835   0.840
60405W        W32720  27.626  32.399  11.083
60406W        W32721  30.982  35.428   2.271
60407W        W32722  11.600  15.642  14.327
60408W        W32723  19.695  24.092  10.712
60409W        W32724  13.796  18.788   2.237
60410W        W32725  24.948  12.158  14.528
60411W        W32726  21.549  40.108  13.888
60412W        W32727  30.539  33.688   2.731
60413W        W32728   1.422  39.309  13.512
60414W        W32729  20.416  28.482   3.631
60415W        W32730  34.762  37.944   2.788
60416W        W32731  13.472  41.035  10.499
60417W        W32732  35.275  25.578  10.925
60418W        W32733  29.445   5.993   0.867
60419W        W32734  24.219  10.930   1.357
60420W        W32735  13.678  28.415  10.802
60421W        W32736  21.818  40.293  13.456
60422W        W32737  44.850  16.278  11.735
60423W        W32738   9.246  24.042  11.412
60424W        W32739   8.209  12.177   3.233
60425W        W32740  39.432  13.284  13.562
60426W        W32741  29.449  20.516   1.182
60427W        W32742  31.920  43.331   1.869
60428W        W32743   5.255  11.351  11.193
60429W        W32744  37.765  24.233  12.147
60430W        W32745  38.406  30.707   0.254
60431W        W32746   8.891  16.962   0.802
60432W        W32747  14.337  33.139   0.985
60433W        W32748  38.972   0.221   1.846
60434W        W32749   7.299   4.944   1.838
60435W        W32750  14.322   8.189   2.335
60436W        W32751  21.916  11.914   2.916
60437W        W32752  40.914  44.002   2.444
60438W        W32753   5.326  41.008   4.818
60439W        W32754  39.629  41.368   0.793
60440W        W32755   1.722  27.201   3.688
60441W        W32756  18.492  37.848   3.220
60442W        W32757  37.307  43.340  14.364
60443W        W32758  30.652  30.388  14.395
60444W        W32759  21.380  44.383   1.607
60445W        W32760  18.972   8.595   1.725
60446W        W32761   3.278  31.753  13.487
60447W        W32762  36.471  34.900  14.507
60448W        W32763  23.567  19.240  12.003
60449W        W32764   4.434  22.197  11.589
60450W        W32765  23.674  41.396  14.457
60451W        W32766  12.760  25.985  10.418
60452W        W32767   0.570   8.667  12.942
60453W        W32768   6.802  22.549  10.756
60454W        W32769   9.204  30.144   4.886
60455W        W32770  40.532  30.842  14.349
60456W        W32771  22.681  22.024   0.939
60457W        W32772  44.242  28.046  12.013
60458W        W32773  35.072  14.273   1.344
60459W        W32774   5.229  43.128   1.799
60460W        W32775  44.687  10.908  12.114
60461W        W32776  41.799  24.571  13.846
60462W        W32777  35.001  21.947   0.765
60463W        W32778  29.252  21.236   0.727
60464W        W32779   9.803  14.589  13.547
60465W        W32780  20.646  35.604   1.220
60466W        W32781  18.187   2.421  10.976
60467W        W32782   8.889  30.879  11.566
60468W        W32783  15.878   4.752  14.360
60469W        W32784  19.018   7.448   0.694
60470W        W32785   1.579  41.748   2.442
60471W        W32786  30.178  14.191  12.526
60472W        W32787  23.385   9.063  12.084
60473W        W32788  31.172  36.456   1.333
60474W        W32789   0.610  15.234   1.657
60475W        W32790   4.157  16.367   0.792
60476W        W32791  23.910   2.417  10.717
60477W        W32792   7.816  10.355   2.145
60478W        W32793   5.247  34.854   4.189
60479W        W32794  10.283  35.606   4.216
60480W        W32795  34.331  16.657  14.926
60481W        W32796  34.917  11.203   1.305
60482W        W32797  44.777  35.627   2.459
60483W        W32798  27.274  32.879  10.381
60484W        W32799  29.970  30.256  11.986
60485W        W32800  40.900  12.318  14.848
60486W        W32801   7.832   0.042  13.942
60487W        W32802   3.106  30.473   4.813
60488W        W32803  15.206  30.085   3.263
60489W        W32804  36.007  28.446   0.698
60490W        W32805  31.701  44.503   3.180
60491W        W32806   0.844   1.451   4.014
60492W        W32807  29.359  10.463  12.392
60493W        W32808  16.111   5.907   0.877
60494W        W32809  10.863   9.770   1.861
60495W        W32810  44.234  15.297  11.129
60496W        W32811  10.230  14.139   4.566
60497W        W32812  40.911  36.857   2.245
60498W        W32813   0.858   1.457  14.352
60499W        W32814   4.872   3.937   2.576
60500W        W32815   1.503  23.205  11.927
60501W        W32816  35.487   2.177  11.144
60502W        W32817  20.130  35.277   4.150
60503W        W32818   5.852  37.547  10.676
60504W        W32819  41.819  12.396  11.007
60505W        W32820   0.855  39.388  11.470
60506W        W32821  17.446  21.357  12.927
60507W        W32822  30.981  27.105   2.914
60508W        W32823  13.799   7.441   1.346
60509W        W32824  27.540  40.701  11.439
60510W        W32825   4.909   5.479  13.767
60511W        W32826  31.855  33.718   1.899
60512W        W32827  25.150  23.784  10.845
60513W        W32828  17.528  22.729  11.884
60514W        W32829  13.843  26.651   3.748
60515W        W32830  16.585  18.486   1.895
60516W        W32831  26.112   3.887   4.045
60517W        W32832   5.234  43.422   4.186
60518W        W32833  19.294   6.920  11.102
60519W        W32834   8.853  38.456   1.427
60520W        W32835  38.984  34.864  11.207
60521W        W32836  18.587   9.035   0.476
60522W        W32837   9.196  29.612   3.223
60523W        W32838  41.875  13.533  11.753
60524W        W32839  10.121  42.004   2.801
60525W        W32840  13.271  35.334  13.105
60526W        W32841  40.445  24.404  10.617
60527W        W32842   7.362  28.511  13.274
60528W        W32843  18.974  15.649  13.535
60529W        W32844  36.247  17.370   4.159
60530W        W32845  11.190  14.115  12.449
60531W        W32846   2.691  28.554  12.159
60532W        W32847  11.115  44.414  13.036
60533W        W32848   6.836  12.608   3.986
60534W        W32849  10.322  18.453  14.405
60535W        W32850   7.302  10.068  11.955
60536W        W32851  31.255   2.112   0.383
60537W        W32852  40.252   5.180   0.014
60538W        W32853  13.686   4.443   0.777
60539W        W32854  25.742  32.045   4.698
60540W        W32855  33.674  32.038  10.004
60541W        W32856  40.440  44.488   5.121
60542W        W32857   8.299  38.796   3.542
60543W        W32858  22.164   8.390   4.030
60544W        W32859  12.624   4.952   1.360
60545W        W32860  20.923  21.297   2.248
60546W        W32861   5.707  39.456   2.707
60547W        W32862  42.288  28.133  10.585
60548W        W32863  33.021   9.259  13.432
60549W        W32864  15.997  11.660  14.323
60550W        W32865  17.067  13.103  14.285
60551W        W32866  39.830  24.700  14.072
60552W        W32867  39.772  28.095   4.636
60553W        W32868   2.238   4.407   2.894
60554W        W32869  16.056  31.763   5.126
60555W        W32870  17.699   2.555   4.622
60556W        W32871  33.097  26.968  11.579
60557W        W32872  23.574  29.569   3.333
60558W        W32873   3.339  37.572  13.261
60559W        W32874  24.071   7.201   3.163
60560W        W32875  36.119  39.421   0.166
60561W        W32876  22.595   5.812   2.317
60562W        W32877  13.462  15.747   4.455
60563W        W32878  15.856  13.603   3.922
60564W        W32879  20.706  12.793   0.676
60565W        W32880  26.042  28.262   4.252
60566W        W32881  33.425   7.886  13.450
60567W        W32882  16.230  12.695   2.346
60568W        W32883  42.286   6.221   4.628
60569W        W32884  18.991  28.974   3.662
60570W        W32885  40.415   6.828   1.160
60571W        W32886  23.546  27.887  14.814
60572W        W32887  27.918  42.365  10.695
60573W        W32888  33.486   6.152  11.102
60574W        W32889   3.418  26.186  13.276
60575W        W32890  24.739  44.958   0.844
60576W        W32891  23.513  29.103  14.070
60577W        W32892  24.026   1.030   4.221
60578W        W32893  42.036   9.128  13.091
60579W        W32894   8.225  31.916   1.916
60580W        W32895  26.042  15.374  11.630
60581W        W32896  29.515  28.859  14.735
60582W        W32897  28.105  15.337   1.875
60583W        W32898  18.759  13.823   0.690
60584W        W32899  42.359   5.324   0.166
60585W        W32900  21.769  25.838   4.179
60586W        W32901  42.958  19.185   2.490
60587W        W32902   3.205  19.975   2.047
60588W        W32903   2.019  30.485  11.597
60589W        W32904   5.908  38.458  12.056
60590W        W32905  34.845  22.478  13.046
60591W        W32906  19.090  19.298  11.986
60592W        W32907  15.774  30.273   2.079
60593W        W32908  28.567  39.179   0.831
60594W        W32909  16.059  44.434  13.797
60595W        W32910  39.983  32.993  11.620
60596W        W32911   2.437  29.195  12.516
60597W        W32912  33.527   3.862   3.611
60598W        W32913  43.260   0.691   4.758
60599W        W32914   9.949  19.053  13.024
60600W        W32915  42.136  26.536  10.758
60601W        W32916  44.905  15.782  10.953
60602W        W32917  10.343  34.628  13.959
60603W        W32918  40.982  22.906   3.266
60604W        W32919  35.987  37.556  10.625
60605W        W32920  15.175   5.614   2.158
60606W        W32921  34.199  32.750  12.405
60607W        W32922   5.851   7.192   4.618
60608W        W32923  22.560  30.035   3.850
60609W        W32924   5.249  35.530  12.444
60610W        W32925   1.452  24.260   3.775
60611W        W32926  28.399  23.350   0.402
60612W        W32927  18.605   8.822  14.286
60613W        W32928  30.460  39.074  11.366
60614W        W32929  34.551  28.513   2.728
60615W        W32930   5.554  11.837  12.483
60616W        W32931  40.549   4.960   1.420
60617W        W32932   1.662   7.783   2.859
60618W        W32933   8.218  22.262   2.211
60619W        W32934  43.393   5.412  11.686
60620W        W32935  26.638  29.877  14.492
60621W        W32936  21.378   0.837  14.946
60622W        W32937  25.486  27.629  10.649
60623W        W32938  44.769   6.651   4.643
60624W        W32939  34.424  20.519  11.100
60625W        W32940   7.218  26.589   1.474
60626W        W32941   3.955  27.503  11.072
60627W        W32942  15.623   5.796   4.964
60628W        W32943  20.852  23.699   2.272
60629W        W32944  44.862  41.814   1.057
60630W        W32945  27.319  24.423   0.114
60631W        W32946  21.671  40.309  14.337
60632W        W32947  28.160  11.234   0.980
60633W        W32948   8.595  25.769   3.219
60634W        W32949   0.465  25.498  12.043
60635W        W32950  12.234  31.070  13.806
60636W        W32951  16.071  18.121  12.036
60637W        W32952  19.241   5.771  13.189
60638W        W32953  10.507  43.128  10.075
60639W        W32954  13.284  32.480   3.770
60640W        W32955  20.037  30.428   3.185
60641W        W32956  19.594  22.004  13.042
60642W        W32957   4.204  29.462   0.863
60643W        W32958  17.060  23.459  13.935
60644W        W32959  20.405  40.941   0.020
60645W        W32960  12.844  13.144  11.643
60646W        W32961  25.708  38.590  13.864
60647W        W32962  14.868  14.218  11.589
60648W        W32963   7.387   4.911  14.409
60649W        W32964   4.521   5.939  12.356
60650W        W32965   2.706  29.257   4.046
60651W        W32966   1.440  31.047  13.960
60652W        W32967  21.271  40.784   3.300
60653W        W32968  23.544  40.968  12.870
60654W        W32969  13.436  31.158   3.658
60655W        W32970  22.641  23.181  12.949
60656W        W32971  19.741  40.004  10.699
60657W        W32972  34.332  33.650   2.447
60658W        W32973  32.081  20.217  10.541
60659W        W32974  15.907  25.512  12.590
60660W        W32975  37.308  10.660  12.978
60661W        W32976  28.714  28.608  11.583
60662W        W32977   6.646   0.648  12.666
60663W        W32978   2.250  35.604   0.032
60664W        W32979  15.951   9.650   3.127
60665W        W32980  44.268  37.112   1.675
60666W        W32981  11.879  43.049  12.691
60667W        W32982  16.742   0.312  11.024
60668W        W32983   3.434  42.863  14.504
60669W        W32984  40.782  39.830  14.294
60670W        W32985  20.209   4.506  12.940
60671W        W32986  20.160   8.642   4.994
60672W        W32987   2.354  33.483  12.931
60673W        W32988  29.478  21.416   2.901
60674W        W32989  31.407  10.698   1.862
60675W        W32990  38.762  36.276  11.207
60676W        W32991   9.804  32.357   4.906
60677W        W32992  19.106  22.166  10.718
60678W        W32993  10.480   4.327  11.379
60679W        W32994  23.451  28.100   1.751
60680W        W32995  30.091  41.721  13.730
60681W        W32996  32.700  12.649   3.671
60682W        W32997  11.137  10.556  12.839
60683W        W32998  24.590   2.945  13.020
60684W        W32999  28.145  28.622   4.077
60685W        W33000  38.380  22.209  12.032
60686W        W33001  17.771   0.494   1.263
60687W        W33002  29.865  43.367   3.794
60688W        W33003  18.666  43.114   2.783
60689W        W33004  43.078  22.716  11.090
60690W        W33005  26.903   1.692  11.927
60691W        W33006  18.692  41.754  13.521
60692W        W33007  21.824  30.626  12.520
60693W        W33008  43.260   9.229   3.558
60694W        W33009  32.022  10.861   4.092
60695W        W33010  35.603  24.592   4.536
60696W        W33011  11.575  31.372  11.172
60697W        W33012  33.462  17.693  11.442
60698W        W33013  15.197   9.390   0.896
60699W        W33014  35.613  35.512  10.540
60700W        W33015  28.604  10.355   3.191
60701W        W33016  25.068  14.904  12.111
60702W        W33017   4.435   2.015  14.430
60703W        W33018  17.974  33.596  10.664
60704W        W33019  16.766  29.814  10.639
60705W        W33020  23.503  29.883  12.590
60706W        W33021  31.859  11.935   5.081
60707W        W33022  31.683  18.117  12.942
60708W        W33023  21.500  10.914  12.867
60709W        W33024  36.097   5.372   0.028
60710W        W33025   2.457   3.596  14.330
60711W        W33026  26.656  36.284  12.242
60712W        W33027   5.895  10.366  11.605
60713W        W33028  38.072   9.178   4.305
60714W        W33029  16.025  37.617  12.533
60715W        W33030  44.721  44.797  13.411
60716W        W33031  33.218  16.640  10.732
60717W        W33032  22.430  40.508  11.947
60718W        W33033  12.239  38.747   3.637
60719W        W33034  10.077  31.574   0.964
60720W        W33035  18.064   6.398   2.552
60721W        W33036  42.320  39.755  10.730
60722W        W33037  13.301  28.412   0.791
60723W        W33038  42.996  15.026   4.591
60724W        W33039  27.639  32.950  12.892
60725W        W33040  20.480  22.578  13.091
60726W        W33041  10.976  35.666   3.761
60727W        W33042  31.047  23.146   3.172
60728W        W33043  39.005   9.802  14.378
60729W        W33044  11.790  23.263  14.497
60730W        W33045  16.660  24.105   2.478
60731W        W33046  40.146  42.081   3.759
60732W        W33047  16.656  25.651   4.568
60733W        W33048  42.907  26.729  13.959
60734W        W33049   8.152  40.852   4.560
60735W        W33050  16.140  31.524  14.383
60736W        W33051  39.730   8.514  11.183
60737W        W33052  35.130   3.948   4.544
60738W        W33053  37.717  16.591  11.561
60739W        W33054  26.638  15.787  11.449
60740W        W33055  12.731  29.187   0.373
60741W        W33056  28.033   1.790   3.156
60742W        W33057  43.437  14.757   1.016
60743W        W33058   7.931  18.084   1.329
60744W        W33059   3.454  14.838   1.751
60745W        W33060  32.127   6.455   0.371
60746W        W33061  26.985  34.205   1.341
60747W        W33062  13.249  35.991  10.347
60748W        W33063  38.743  34.309  14.333
60749W        W33064  14.180  12.097  11.634
60750W        W33065  36.182   4.728  12.294
60751W        W33066   9.074  34.052  10.591
60752W        W33067  14.717   2.710  12.012
60753W        W33068  29.721  32.767   4.602
60754W        W33069   8.782   8.417  10.785
60755W        W33070  38.793  29.885  11.084
60756W        W33071   7.079  10.897   2.170
60757W        W33072  26.500  30.559   3.177
60758W        W33073  28.147  39.697  10.359
60759W        W33074  13.726   0.872  10.450
60760W        W33075  33.731  21.271   5.027
60761W        W33076   4.005  38.362  13.325
60762W        W33077  40.947   7.241   4.708
60763W        W33078  21.403   2.364  10.360
60764W        W33079   4.098  43.292   2.163
60765W        W33080  34.430  32.128   3.636
60766W        W33081   1.278  28.752  10.766
60767W        W33082  11.812  40.921  14.365
60768W        W33083  22.782  17.338   5.018
60769W        W33084   9.848  25.156   0.138
60770W        W33085  27.456  19.528  11.522
60771W        W33086  23.013  32.589  12.484
60772W        W33087   4.781  19.566   3.785
60773W        W33088  26.607   3.309   2.878
60774W        W33089   3.534  34.021   3.583
60775W        W33090   3.463  43.960   4.543
60776W        W33091  29.559  18.519  11.255
60777W        W33092  10.826  21.622   1.203
60778W        W33093  36.474  35.540   2.246
60779W        W33094  17.180  37.852   1.343
60780W        W33095  24.332   3.195  12.559
60781W        W33096  11.251  20.663  14.537
60782W        W33097  24.155  38.406  11.509
60783W        W33098   5.704  27.299  12.457
60784W        W33099  43.068  26.830  11.965
60785W        W33100  25.190  18.752  14.790
60786W        W33101  38.101   5.596  12.501
60787W        W33102  28.528  21.616   2.829
60788W        W33103  38.309   7.225  11.993
60789W        W33104  13.161  35.800   1.294
60790W        W33105  11.202   6.729   4.888
60791W        W33106   5.415  11.036  14.329
60792W        W33107  34.825  41.180   3.822
60793W        W33108  41.228  17.620   4.957
60794W        W33109  28.593   6.371   0.330
60795W        W33110   5.790  16.107   4.163
60796W        W33111  11.259   5.453  13.464
60797W        W33112  41.548  20.978   4.077
60798W        W33113  16.859  33.962   2.801
60799W        W33114  20.135   5.281   4.122
60800W        W33115   3.911  29.582  14.493
60801W        W33116   5.375  18.318  13.347
60802W        W33117  20.334  29.963   1.884
60803W        W33118  25.875  35.022   3.337
60804W        W33119   8.778  27.143  14.443
60805W        W33120  43.259  27.614   0.320
60806W        W33121  22.261   4.309  12.124
60807W        W33122   6.597  37.425  11.758
60808W        W33123  41.334  24.045   4.576
60809W        W33124   3.400  19.756   3.327
60810W        W33125  42.547  27.128   2.299
60811W        W33126  25.550   0.764  14.708
60812W        W33127  41.586   9.866  11.543
60813W        W33128   9.439  11.431  14.380
60814W        W33129  43.483  15.720  10.857
60815W        W33130  33.489   2.331   4.557
60816W        W33131  11.325   4.185  11.688
60817W        W33132   8.918   8.360  12.592
60818W        W33133  12.176  43.887  13.522
60819W        W33134  39.868  40.215  13.986
60820W        W33135  39.366  20.049   2.698
60821W        W33136  44.498  13.821   3.168
60822W        W33137  26.701  25.558   1.238
60823W        W33138  17.486  44.873  12.602
60824W        W33139   3.886  28.826   3.616
60825W        W33140  15.289  23.254  13.129
60826W        W33141  26.021   6.295  12.399
60827W        W33142  33.942   2.741  12.326
60828W        W33143   0.008  39.101   1.811
60829W        W33144  25.457  10.085  12.414
60830W        W33145  24.403   6.947  12.084
60831W        W33146  30.300  17.702  11.682
60832W        W33147   3.959  21.186   0.430
60833W        W33148  36.900  23.206   4.116
60834W        W33149  33.916  26.508   3.176
60835W        W33150  24.727   2.716  13.486
60836W        W33151  24.806  13.052  11.623
60837W        W33152  43.351  33.337  14.023
60838W        W33153  24.542  38.862   2.876
60839W        W33154  42.506  33.094   2.868
60840W        W33155   7.655  34.930  12.460
60841W        W33156  19.497   5.345   4.695
60842W        W33157  36.310   8.951  11.491
60843W        W33158  34.440  40.417   0.242
60844W        W33159  37.566  36.490  11.702
60845W        W33160  29.225   8.658  10.856
60846W        W33161   5.390  43.616   1.791
60847W        W33162   8.860  22.576   1.292
60848W        W33163  41.559  21.500  14.929
60849W        W33164   0.890  26.714  11.692
60850W        W33165  41.608  15.724  14.539
60851W        W33166  35.303  35.153   1.298
60852W        W33167  19.896   9.096   4.988
60853W        W33168   8.294  23.737  11.517
60854W        W33169  17.854  32.595  13.816
60855W        W33170  21.179  32.943  10.585
60856W        W33171   4.306  27.875  12.979
60857W        W33172  23.984  12.267   3.563
60858W        W33173   3.418  36.992  10.708
60859W        W33174   5.847  33.813  11.168
60860W        W33175   8.758  35.441  11.681
60861W        W33176   1.341   1.973   2.410
60862W        W33177  31.858  32.489  12.150
60863W        W33178  33.864   1.379  14.013
60864W        W33179   1.937  15.674  11.132
60865W        W33180   0.808  39.573   4.773
60866W        W33181  32.376  13.993  14.216
60867W        W33182  23.297  27.438   3.764
60868W        W33183   8.743  25.552  13.373
60869W        W33184  30.271  14.273  14.498
60870W        W33185  23.301  15.327  11.283
60871W        W33186  37.015  33.419   2.362
60872W        W33187  41.567  27.240   0.149
60873W        W33188  11.345   8.668  13.384
60874W        W33189   2.704  40.013   0.429
60875W        W33190   3.915   7.439  14.476
60876W        W33191  36.659  26.551   0.870
60877W        W33192   9.768   6.652  11.067
60878W        W33193  12.702  20.318  10.720
60879W        W33194   9.478   1.345   1.037
60880W        W33195  40.277  37.019  11.270
60881W        W33196   3.548  21.658   4.969
60882W        W33197   1.061  35.010  14.642
60883W        W33198  27.153   8.145  10.835
60884W        W33199  26.884  19.094   3.404
60885W        W33200  27.866  42.806  11.607
60886W        W33201  14.904  39.489  14.496
60887W        W33202  35.928   0.890  10.731
60888W        W33203   6.592  36.081   3.208
60889W        W33204  21.409  43.126  11.934
60890W        W33205  26.725   6.732  14.539
60891W        W33206  34.846   3.465  12.444
60892W        W33207   2.470  20.277  11.573
60893W        W33208  21.583  31.022   1.471
60894W        W33209  19.880  14.509  12.038
60895W        W33210  16.804  29.011   0.938
60896W        W33211  31.375  10.860  11.805
60897W        W33212  38.925  35.545  14.976
60898W        W33213   1.804  44.193   4.101
60899W        W33214  33.981  44.175  11.587
60900W        W33215  43.306  24.430  12.221
60901W        W33216  35.689  19.489   2.883
60902W        W33217  34.032  14.540   0.878
60903W        W33218  19.142  12.682   4.760
60904W        W33219   9.795  18.049  12.128
60905W        W33220  33.694  19.296  14.017
60906W        W33221  14.209  15.661   3.621
60907W        W33222  44.512   3.858  13.958
60908W        W33223  31.400  27.069   3.650
60909W        W33224   6.201  17.702   2.381
60910W        W33225   8.554  44.220   4.888
60911W        W33226   3.841  16.247  11.619
60912W        W33227  32.798  10.273   4.958
60913W        W33228  35.056  14.243   0.829
60914W        W33229  22.223  19.539   4.977
60915W        W33230  31.442  25.874  13.313
60916W        W33231  33.388  43.991  10.541
60917W        W33232   7.834   7.803  11.688
60918W        W33233  36.943  16.192   0.111
60919W        W33234  36.792  32.630   0.849
60920W        W33235  32.362  31.624  10.621
60921W        W33236   3.018  13.853   3.956
60922W        W33237   6.288  12.302   3.518
60923W        W33238   0.181   1.848  11.099
60924W        W33239  19.740   7.838  11.278
60925W        W33240   1.621   8.084  10.695
60926W        W33241  36.546   9.834   4.202
60927W        W33242  39.476   5.689  10.671
60928W        W33243  27.515   9.791   2.271
60929W        W33244  40.805  39.372  12.504
60930W        W33245  26.038  26.048   1.614
60931W        W33246   9.739  34.071   4.517
60932W        W33247   9.437  42.014  12.163
60933W        W33248  18.640  20.637  10.435
60934W        W33249   4.978   1.816  14.880
60935W        W33250  36.440   5.920  13.959
60936W        W33251  22.247  25.024  13.039
60937W        W33252   0.363  42.774  12.809
60938W        W33253  39.369  44.688   4.757
60939W        W33254  30.645  20.339   4.151
60940W        W33255  28.856  13.553   0.419
60941W        W33256  36.009  35.770  12.371
60942W        W33257   8.034   7.255   4.536
60943W        W33258  22.923  35.027   4.579
60944W        W33259  13.145  27.244  13.514
60945W        W33260  28.423  29.638  13.974
60946W        W33261   1.359  41.238   2.482
60947W        W33262  40.199  33.385   3.670
60948W        W33263   1.740  34.421  11.960
60949W        W33264  40.384  24.444   4.071
60950W        W33265  35.376   9.299   2.954
60951W        W33266  14.595  21.342  10.967
60952W        W33267  30.862  19.231  11.079
60953W        W33268  29.212  22.251   4.048
60954W        W33269  32.631  36.743   1.419
60955W        W33270  10.188  35.943   2.899
60956W        W33271  36.988  38.607   3.601
60957W        W33272   7.667  22.647   3.148
60958W        W33273  34.868  28.224  11.607
60959W        W33274   6.913   3.579  12.477
60960W        W33275  36.915   2.160   2.280
60961W        W33276  39.618  31.927  13.810
60962W        W33277  18.812  44.652  13.956
60963W        W33278  29.958  15.586   1.988
60964W        W33279   3.214  42.891   3.221
60965W        W33280  16.797  13.820   3.599
60966W        W33281  14.051  24.482   2.585
60967W        W33282  40.780  11.483  14.427
60968W        W33283  43.979  38.295   1.519
60969W        W33284  42.814  13.365  11.070
60970W        W33285  36.492  24.500  10.896
60971W        W33286  24.686  24.580  10.752
60972W        W33287  35.985  37.872  14.522
60973W        W33288  12.580  38.315   1.423
60974W        W33289  14.150  43.355   1.333
60975W        W33290  15.196  34.828  14.587
60976W        W33291  28.739   8.643   1.825
60977W        W33292  37.352  17.564   2.700
60978W        W33293  25.077  44.920  14.388
60979W        W33294  39.902  41.859  14.909
60980W        W33295   6.158   3.336  13.249
60981W        W33296  39.478   9.624  14.246
60982W        W33297  20.994   1.396   4.625
60983W        W33298   6.209  39.603  14.645
60984W        W33299  39.838  15.607  10.843
60985W        W33300  23.584  23.189  11.149
60986W        W33301  26.081   7.308   4.127
60987W        W33302  15.281  23.901   2.159
60988W        W33303  30.682  33.448  10.220
60989W        W33304   5.331  35.874   2.653
60990W        W33305   8.353  21.236  11.089
60991W        W33306  13.187  20.850  14.517
60992W        W33307   7.710  36.445   4.382
60993W        W33308  15.611  14.873  14.974
60994W        W33309  13.355  41.589  13.510
60995W        W33310  11.171  14.352   1.450
60996W        W33311  30.712  19.114  14.768
60997W        W33312  31.285  39.474   0.292
60998W        W33313   4.772  12.673   0.781
60999W        W33314  43.980  19.189  13.097
61000W        W33315  10.172  39.824   0.831
61001W        W33316  19.960   6.740   1.248
61002W        W33317  21.850  21.274  11.871
61003W        W33318  41.909  20.562   1.975
61004W        W33319   3.822  28.814  12.533
61005W        W33320  24.624  21.780   1.840
61006W        W33321  18.268   9.757   3.638
61007W        W33322  18.650  42.056   0.627
61008W        W33323  18.843  27.358   4.175
61009W        W33324  13.194  15.808  14.445
61010W        W33325   2.671  31.007   2.023
61011W        W33326  11.624  26.779   3.238
61012W        W33327  43.349  27.977   1.446
61013W        W33328  38.378  34.179   3.557
61014W        W33329  38.925  30.619  12.668
61015W        W33330   9.161  20.151   2.356
61016W        W33331  18.296  28.940  10.069
61017W        W33332  42.878  30.105   0.798
61018W        W33333  17.784  43.520  10.747
61019W        W33334  11.579   6.273   0.086
61020W        W33335  38.661   2.198  10.024
61021W        W33336  14.946  27.425   3.811
61022W        W33337  30.961  24.698  13.411
61023W        W33338  39.062  24.676   0.018
61024W        W33339  13.505  21.356   9.880
61025W        W33340  13.290  42.781   4.952
61026W        W33341   3.744  20.085   3.974
61027W        W33342  30.124  17.396  14.751
61028W        W33343  21.301  43.559   2.344
61029W        W33344  11.324  17.118   0.430
61030W        W33345  27.394  14.617   2.662
61031W        W33346  21.525  25.591   1.809
61032W        W33347  19.048   2.011  12.777
61033W        W33348   3.591  13.717   2.280
61034W        W33349  36.364  43.197   0.490
61035W        W33350  32.497  10.792   0.040
61036W        W33351   4.826   8.832  14.656
61037W        W33352  29.562  38.057   4.821
61038W        W33353  40.824  18.206   3.693
61039W        W33354  44.455  19.137  10.078
61040W        W33355   7.787  19.333  10.685
61041W        W33356  41.009  31.053   3.841
61042W        W33357  30.608  19.930   2.836
61043W        W33358   1.480  26.195   4.140
61044W        W33359   3.727   3.940   3.324
61045W        W33360  33.332  40.249   4.647
61046W        W33361   3.782  25.880   2.427
61047W        W33362   5.610  29.376  13.446
61048W        W33363  38.971  19.548  14.520
61049W        W33364  36.501   3.761  11.422
61050W        W33365   2.275  40.894  11.655
61051W        W33366  37.385  11.063  10.692
61052W        W33367  28.164  12.042   3.842
61053W        W33368  28.588  17.521  13.294
61054W        W33369  40.919   9.653  12.938
61055W        W33370  42.770  37.027  13.480
61056W        W33371  23.745  43.973  13.362
61057W        W33372  22.033  42.139  14.298
61058W        W33373  15.179  24.404   2.142
61059W        W33374  14.276  29.187  13.463
61060W        W33375  19.803   9.085   3.275
61061W        W33376  13.674  32.078  11.188
61062W        W33377  37.790  39.749   3.377
61063W        W33378   5.230  26.420  10.325
61064W        W33379  40.633  27.839  11.061
61065W        W33380   1.188  40.723   3.264
61066W        W33381  15.544   4.042  14.922
61067W        W33382  31.609   1.363   3.397
61068W        W33383  43.984   9.631  11.894
61069W        W33384  28.134  23.559  12.111
61070W        W33385  22.205  11.543   0.950
61071W        W33386  24.691   9.173   1.147
61072W        W33387  42.007  28.976  12.413
61073W        W33388  25.514  15.211   3.788
61074W        W33389  15.247  32.683   2.814
61075W        W33390  11.530  24.628   3.608
61076W        W33391   1.774  14.141   1.175
61077W        W33392  37.321  41.855   4.253
61078W        W33393  14.296   9.659   2.336
61079W        W33394  37.244  31.853  13.131
61080W        W33395  18.771  28.880  12.506
61081W        W33396   4.924   1.850   4.341
61082W        W33397  19.396  13.741   1.907
61083W        W33398   6.627  20.451  14.019
61084W        W33399  20.712  37.381   1.490
61085W        W33400  32.235  41.458  14.807
61086W        W33401  40.441  37.299  11.690
61087W        W33402  25.408  20.249   2.574
61088W        W33403  13.325   3.253   2.977
61089W        W33404  29.090   8.435  13.116
61090W        W33405  24.821  36.394  12.711
61091W        W33406  12.936   4.685   2.344
61092W        W33407  44.741  40.037   2.403
61093W        W33408  11.830  11.823   0.291
61094W        W33409  12.809  17.281  13.749
61095W        W33410  16.715  14.336  11.088
61096W        W33411  14.399  18.657  14.043
61097W        W33412  43.694  29.958  12.515
61098W        W33413  18.066   2.850  13.307
61099W        W33414  11.299  31.546  14.356
61100W        W33415  40.791  32.432  13.687
61101W        W33416  18.795  12.234   2.132
61102W        W33417  11.611  31.021   4.264
61103W        W33418  16.836   5.627  14.893
61104W        W33419  27.674   8.283   4.337
61105W        W33420  16.541  10.688  10.200
61106W        W33421   4.679  21.056  14.930
61107W        W33422   8.212  13.022   1.292
61108W        W33423  31.607  44.459  14.077
61109W        W33424   7.140  40.199   3.207
61110W        W33425  39.835  33.197   2.134
61111W        W33426   5.624   6.719  12.139
61112W        W33427  36.734   5.909  12.083
61113W        W33428   4.234  31.211   3.121
61114W        W33429  18.550  35.211  14.859
61115W        W33430   6.981   9.145  12.103
61116W        W33431  40.070  36.639  12.169
61117W        W33432  25.790  21.815  10.155
61118W        W33433  13.567   7.939  14.648
61119W        W33434   0.282  15.751  10.613
61120W        W33435  39.544  40.038   2.919
61121W        W33436  11.277  42.763   4.306
61122W        W33437  35.950  26.550  12.479
61123W        W33438   9.415  30.587   2.182
61124W        W33439  34.848   4.416  14.352
61125W        W33440  30.163  18.462  14.857
61126W        W33441   8.236  12.307   0.797
61127W        W33442  11.794  12.940  13.358
61128W        W33443  13.008  29.231   3.215
61129W        W33444  29.616  14.845   1.421
61130W        W33445  14.463   7.673   4.557
61131W        W33446  30.937   8.152   4.102
61132W        W33447  35.157   3.273   5.348
61133W        W33448  29.091  25.258  13.487
61134W        W33449   1.917  29.095   1.360
61135W        W33450  19.723  38.631   0.220
61136W        W33451  18.994  23.716  10.677
61137W        W33452  42.482  21.211  12.184
61138W        W33453  10.693  43.396  14.387
61139W        W33454  11.185   1.855   4.735
61140W        W33455  12.217  35.776  11.200
61141W        W33456  10.000  44.989   0.977
61142W        W33457  22.843  10.005  10.032
61143W        W33458   0.398  20.326  12.898
61144W        W33459  36.609  10.639  12.009
61145W        W33460   2.005  21.062  12.845
61146W        W33461  25.379  35.175   0.010
61147W        W33462  30.483  44.850  14.722
61148W        W33463  42.554  44.484  14.754
61149W        W33464  32.544   9.217  10.673
61150W        W33465  21.093  28.428   2.256
61151W        W33466  21.086  14.300  14.260
61152W        W33467   4.422  24.927   4.493
61153W        W33468  41.772  30.679   0.657
61154W        W33469   5.354   5.440  14.010
61155W        W33470  39.405  15.263   1.035
61156W        W33471  11.162  44.834   1.375
61157W        W33472  10.163   4.527  14.961
61158W        W33473  35.455  34.786  11.586
61159W        W33474  29.575  44.744   1.792
61160W        W33475  39.346   8.594  10.630
61161W        W33476   3.414   4.652   1.027
61162W        W33477   5.225   3.398   3.613
61163W        W33478   0.339  15.544  14.999
61164W        W33479  16.160  23.898  13.720
61165W        W33480  42.018  30.956  14.341
61166W        W33481  24.465  33.141  12.542
61167W        W33482  35.623  43.038  10.586
61168W        W33483  36.978  37.857  12.456
61169W        W33484  31.369   0.405   4.246
61170W        W33485   5.264   6.651  10.758
61171W        W33486   4.473  12.394  11.702
61172W        W33487  19.643  23.557  11.537
61173W        W33488   8.098   1.805   1.303
61174W        W33489   1.009  13.323   0.491
61175W        W33490  30.979  35.115   1.528
61176W        W33491   7.797  13.896  10.054
61177W        W33492  26.423  22.954  12.626
61178W        W33493   4.841  23.393  12.853
61179W        W33494  29.543  36.198  13.463
61180W        W33495   2.836  27.626  11.872
61181W        W33496  41.957  37.924  12.572
61182W        W33497   2.165  40.210  12.489
61183W        W33498  34.500  18.041  14.410
61184W        W33499  29.567  14.065   1.793
61185W        W33500   3.260   6.783  14.378
61186W        W33501  17.080  42.550  11.955
61187W        W33502  44.218  33.507   0.160
61188W        W33503  11.351  33.477  13.510
61189W        W33504  24.046  11.821  14.200
61190W        W33505  15.116  42.829   4.760
61191W        W33506  16.560  23.196   2.453
61192W        W33507  41.489  33.908  14.356
61193W        W33508   1.334   7.918   4.139
61194W        W33509  22.729   2.344   2.171
61195W        W33510   2.773   8.882  14.821
61196W        W33511  31.256  17.527   4.934
61197W        W33512   5.853  13.825   1.619
61198W        W33513  22.223  13.817  11.262
61199W        W33514   0.188  43.348  14.021
61200W        W33515  11.737  33.017  12.587
61201W        W33516  35.338  16.747  14.778
61202W        W33517   0.999  23.696   3.318
61203W        W33518  30.907  20.097   0.329
61204W        W33519  14.679  33.515   3.463
61205W        W33520  29.541  33.208   0.302
61206W        W33521  13.971  29.590   3.339
61207W        W33522  19.289  28.000   3.652
61208W        W33523  25.084  21.880   5.490
61209W        W33524  41.024  27.697   4.541
61210W        W33525  21.536  33.323  10.598
61211W        W33526  43.310   8.956   1.535
61212W        W33527  17.055  12.440   0.334
61213W        W33528   8.156  33.664   3.119
61214W        W33529  35.066   5.401   2.043
61215W        W33530  24.079  32.468   3.327
61216W        W33531  25.878  40.910   0.941
61217W        W33532  36.060  41.243   0.866
61218W        W33533  42.610   0.432  12.515
61219W        W33534  35.411  18.526   1.806
61220W        W33535  20.583  10.332  13.348
61221W        W33536   2.539  33.032  14.045
61222W        W33537  23.533  32.974   3.854
61223W        W33538  39.938  18.451  14.244
61224W        W33539  16.345  41.578  14.875
61225W        W33540  33.658  34.880  11.543
61226W        W33541  29.034  33.169  14.472
61227W        W33542   1.757  12.229  13.477
61228W        W33543  21.210   7.423   1.844
61229W        W33544   5.767   3.657  12.909
61230W        W33545  23.182   8.169   3.770
61231W        W33546  42.872  43.301   0.443
61232W        W33547  44.372   4.981  11.930
61233W        W33548   6.129  28.368  10.241
61234W        W33549  28.561  22.007  12.587
61235W        W33550  31.203  35.959  14.449
61236W        W33551  30.970  16.134  14.026
61237W        W33552   5.827  18.175  14.669
61238W        W33553  43.872   9.876   3.125
61239W        W33554  10.638   3.832   4.582
61240W        W33555  35.509  29.206   2.254
61241W        W33556  41.842  21.496  13.824
61242W        W33557  24.184  36.347   2.928
61243W        W33558   6.860  44.325  12.580
61244W        W33559  41.984  37.671   3.202
61245W        W33560  32.189  24.476  11.101
61246W        W33561  41.597  22.638   3.179
61247W        W33562  13.328  29.595   2.458
61248W        W33563  16.662   7.631  11.502
61249W        W33564  19.561  10.108   0.487
61250W        W33565  19.477  17.471   0.029
61251W        W33566  37.066  14.521   4.886
61252W        W33567  38.566  18.076   4.717
61253W        W33568  17.023  10.213   2.857
61254W        W33569  14.800   6.443  14.347
61255W        W33570  22.344  40.900   4.216
61256W        W33571  29.726  29.534   2.309
61257W        W33572  20.287  24.724  10.391
61258W        W33573  27.386  10.910   3.165
61259W        W33574   7.298  11.893  11.888
61260W        W33575  38.862  33.222  13.971
61261W        W33576   3.897   8.426   4.541
61262W        W33577  24.974  43.832  10.718
61263W        W33578   8.321  37.187  13.877
61264W        W33579  18.010  27.928  11.557
61265W        W33580  14.783   2.578  12.988
61266W        W33581  21.447   8.088  14.989
61267W        W33582  10.376  34.856  13.073
61268W        W33583  18.432  14.589   1.123
61269W        W33584  13.277   0.569  14.927
61270W        W33585  15.804  31.224   0.713
61271W        W33586  22.710  21.986  10.017
61272W        W33587   0.796  12.838  14.061
61273W        W33588  34.372  44.282   1.299
61274W        W33589  30.719  12.819   4.248
61275W        W33590  11.741  27.756  12.529
61276W        W33591  30.620   9.171  10.839
61277W        W33592  16.463  39.269   4.087
61278W        W33593  21.592  25.616   0.389
61279W        W33594  40.360  44.150  12.927
61280W        W33595  41.782  18.291   3.824
61281W        W33596   7.286   2.769  14.858
61282W        W33597  19.437  29.434  14.805
61283W        W33598  44.723   7.212   1.135
61284W        W33599   9.356   3.731   0.419
61285W        W33600  11.703  32.025   0.304
61286W        W33601  18.641  21.309   4.988
61287W        W33602   8.301  12.648   3.433
61288W        W33603   6.755  39.833  13.967
61289W        W33604  41.129  21.235   5.029
61290W        W33605  27.739  14.725  10.564
61291W        W33606  34.662   5.897   1.309
61292W        W33607  21.588   8.416  12.035
61293W        W33608  29.561  26.527   3.275
61294W        W33609  29.502   4.702   0.854
61295W        W33610  29.123  10.437  13.084
61296W        W33611  40.549  35.579   4.674
61297W        W33612  28.511   5.307   1.287
61298W        W33613  34.616  37.194   2.243
61299W        W33614  40.420  33.349  11.602
61300W        W33615  17.929  11.623  13.605
61301W        W33616  29.461   6.609   4.214
61302W        W33617  36.541   4.258   3.612
61303W        W33618  19.045  13.227  14.610
61304W        W33619  31.450  36.266  11.175
61305W        W33620   9.682  22.446   2.157
61306W        W33621   9.121  44.722  14.116
61307W        W33622  40.139  26.160   5.089
61308W        W33623  36.485  10.860   2.223
61309W        W33624   4.078  40.133  12.901
61310W        W33625   3.338  13.174   2.805
61311W        W33626  15.681  20.731  12.881
61312W        W33627  42.424   6.298   2.417
61313W        W33628  33.140  31.527  11.020
61314W        W33629  25.595  42.294  14.057
61315W        W33630   4.236   1.490  12.473
61316W        W33631  10.623  41.326   2.263
61317W        W33632  14.574  25.030  14.051
61318W        W33633  22.928  11.237   9.937
61319W        W33634   7.792   4.256   1.920
61320W        W33635  39.847  43.013  14.776
61321W        W33636   8.302  44.199   0.060
61322W        W33637  15.292  24.578  11.923
61323W        W33638  15.338  15.679  14.498
61324W        W33639  27.097   3.829  14.833
61325W        W33640  41.779  28.488   2.760
61326W        W33641   7.640  15.058   1.864
61327W        W33642  35.517  20.624  13.896
61328W        W33643   5.333  27.578   1.476
61329W        W33644   2.969  33.081  13.591
61330W        W33645  25.157  39.052   2.580
61331W        W33646  10.686  30.136   1.805
61332W        W33647  26.627  38.330  10.471
61333W        W33648  19.715  14.330  14.790
61334W        W33649  35.601   6.614   3.685
61335W        W33650  11.858  16.371   2.876
61336W        W33651  30.215  17.547  12.886
61337W        W33652   5.316  33.838  10.889
61338W        W33653  22.431  23.594   3.135
61339W        W33654   5.217  10.470  12.459
61340W        W33655  44.689  21.308   4.954
61341W        W33656  25.172  16.622  13.940
61342W        W33657   9.648  27.378   1.551
61343W        W33658  18.723   7.407   1.664
61344W        W33659  31.959   0.976   1.271
61345W        W33660  37.660  37.397  14.698
61346W        W33661  25.614  27.514  12.465
61347W        W33662   7.495  12.467   1.255
61348W        W33663  17.147  35.690   1.396
61349W        W33664  27.740  39.364  13.529
61350W        W33665  35.924  26.501  13.846
61351W        W33666   0.981   9.709   0.929
61352W        W33667  13.928  34.374  14.844
61353W        W33668  17.771  44.681   3.911
61354W        W33669  21.346  10.662   2.270
61355W        W33670  23.420  41.986   3.103
61356W        W33671   0.862  22.957   2.860
61357W        W33672  11.783  22.086  13.192
61358W        W33673  42.276  18.663  14.776
61359W        W33674  23.100  25.749   1.142
61360W        W33675  22.524  11.089   4.047
61361W        W33676   5.681  41.863  11.255
61362W        W33677  41.677  42.324  13.441
61363W        W33678  14.736   8.148  13.424
61364W        W33679   2.863   8.670   1.268
61365W        W33680   8.173   9.671  13.060
61366W        W33681  11.144   8.319   0.852
61367W        W33682  19.563  10.209  10.575
61368W        W33683  21.810  42.957  13.983
61369W        W33684  35.471  10.173   3.508
61370W        W33685  27.839  13.714  12.423
61371W        W33686  37.063  22.786  14.931
61372W        W33687  33.513  37.962   4.498
61373W        W33688  43.073  28.271   3.021
61374W        W33689  33.422  27.026   2.251
61375W        W33690  28.560  40.079  13.568
61376W        W33691  22.350   1.768   0.432
61377W        W33692  12.440  22.581  12.227
61378W        W33693  11.647  42.370   2.385
61379W        W33694  19.673  37.344   2.724
61380W        W33695  13.385  31.076  11.985
61381W        W33696  14.491  20.174  12.770
61382W        W33697  39.853   1.665  10.656
61383W        W33698   7.854  20.265  11.927
61384W        W33699  40.421  19.344   2.296
61385W        W33700  21.070   9.933   2.614
61386W        W33701   3.470  30.111   4.903
61387W        W33702  27.372  31.574   4.324
61388W        W33703   2.313  14.761   1.340
61389W        W33704  18.488  26.418   4.097
61390W        W33705  29.096  20.635   0.349
61391W        W33706  19.834   8.184  10.635
61392W        W33707  41.883  16.372   2.787
61393W        W33708  42.780   7.350  12.118
61394W        W33709  12.696  13.571   3.323
61395W        W33710  27.142   6.769   9.651
61396W        W33711  42.923   8.696   0.910
61397W        W33712  17.407  17.979   3.636
61398W        W33713  11.698  34.112   4.492
61399W        W33714  20.595  29.176  11.439
61400W        W33715   1.769  10.747  12.923
61401W        W33716   8.751  42.637   0.313
61402W        W33717  13.045  37.364   4.635
61403W        W33718   6.579  40.534  13.385
61404W        W33719  14.009  11.873   2.346
61405W        W33720  43.714  16.547   0.626
61406W        W33721  23.964  35.563  10.490
61407W        W33722  11.109   3.774  11.455
61408W        W33723  30.992  17.089   5.021
61409W        W33724  33.837  16.377  12.598
61410W        W33725  15.123  34.925  13.568
61411W        W33726  29.359  21.159   3.328
61412W        W33727  28.948   7.230   3.498
61413W        W33728  28.094  41.002  14.914
61414W        W33729  17.374  18.892  11.058
61415W        W33730  18.330   2.910   3.387
61416W        W33731  23.008  22.014  11.189
61417W        W33732  22.982  41.448  13.849
61418W        W33733   6.606   4.010  12.425
61419W        W33734  37.365  26.898   2.742
61420W        W33735   9.752   5.289  12.575
61421W        W33736   3.248  23.106   4.102
61422W        W33737   5.670  43.633  11.733
61423W        W33738   6.824  22.281   1.186
61424W        W33739   0.897   7.923  13.779
61425W        W33740  25.795  39.511  13.315
61426W        W33741  33.333  19.131   3.663
61427W        W33742  28.132  44.411   3.577
61428W        W33743   0.335   5.123   2.782
61429W        W33744  33.796  34.384  11.542
61430W        W33745  32.332  40.384   1.504
61431W        W33746  37.618   8.199  12.988
61432W        W33747  32.953   0.490   3.822
61433W        W33748  25.059   4.539  11.457
61434W        W33749   1.214  10.713   4.567
61435W        W33750  17.117  30.080   0.155
61436W        W33751  13.075   0.005   1.700
61437W        W33752  23.120  27.051   4.110
61438W        W33753  12.780  21.938   2.300
61439W        W33754  10.355  33.323  13.001
61440W        W33755  32.221  31.120  14.787
61441W        W33756  33.517   4.661  13.996
61442W        W33757  10.296  39.927   4.726
61443W        W33758  38.536  33.091  13.559
61444W        W33759  30.429   7.423  13.008
61445W        W33760  37.331  15.268  13.020
61446W        W33761  41.784   7.294   0.768
61447W        W33762  39.093  25.952   1.306
61448W        W33763   0.346  21.641  14.508
61449W        W33764  36.881   8.197   0.744
61450W        W33765  38.038  44.705   0.399
61451W        W33766  12.839  40.048  11.047
61452W        W33767  17.097  32.427  13.012
61453W        W33768  41.786  14.846  12.434
61454W        W33769  21.661   8.151  12.486
61455W        W33770  13.744  19.103  13.832
61456W        W33771  24.533   3.480  14.831
61457W        W33772  18.750  35.654   0.768
61458W        W33773  11.940  36.109  12.526
61459W        W33774  36.048  12.718   0.053
61460W        W33775  21.765  19.237   4.943
61461W        W33776  32.331  20.158  14.804
61462W        W33777  39.197   5.891  11.073
61463W        W33778   9.916  32.982   2.181
61464W        W33779   1.498  20.779   0.269
61465W        W33780  37.493  20.269   2.615
61466W        W33781   2.743  34.908   1.702
61467W        W33782   5.434  15.959   1.243
61468W        W33783   1.441  10.298   3.835
61469W        W33784  27.450   1.802  13.671
61470W        W33785  12.397  19.114  12.442
61471W        W33786  40.414   4.221   3.211
61472W        W33787  27.454   3.952  14.460
61473W        W33788  26.097   4.592  14.604
61474W        W33789   6.207  42.469   1.293
61475W        W33790  37.814   8.667  14.697
61476W        W33791  11.242  10.342   0.495
61477W        W33792  27.571  41.698  11.636
61478W        W33793  34.648  18.267  11.559
61479W        W33794  26.190   4.125  13.278
61480W        W33795  25.639  16.626  14.952
61481W        W33796  41.359  13.167   0.874
61482W        W33797  34.533  44.379   5.025
61483W        W33798  40.423  41.943  14.978
61484W        W33799  13.160  18.432  14.533
61485W        W33800   7.881   2.774  12.205
61486W        W33801  23.695   1.681   2.314
61487W        W33802  44.808   7.177   3.946
61488W        W33803  27.611   2.971   3.607
61489W        W33804   9.460  11.330  10.427
61490W        W33805  13.670  26.988  10.690
61491W        W33806  30.097  16.100   4.636
61492W        W33807  23.449  28.576  13.928
61493W        W33808   8.656  20.163   1.731
61494W        W33809  11.690  39.089   0.896
61495W        W33810  42.284  44.687   3.759
61496W        W33811  31.480  23.092   0.492
61497W        W33812  22.023  43.330  12.399
61498W        W33813  39.923  21.597  14.260
61499W        W33814  29.451  31.246  13.034
61500W        W33815  31.638  43.941   1.411
61501W        W33816  25.173   7.899  10.922
61502W        W33817  27.558   2.689  12.476
61503W        W33818   6.592   7.235   1.621
61504W        W33819  38.544  23.804   0.146
61505W        W33820  23.016   0.972   1.210
61506W        W33821  28.081  27.334  12.535
61507W        W33822  32.133   6.606  13.414
61508W        W33823  40.464  15.531  12.147
61509W        W33824  19.083   5.768   0.606
61510W        W33825  22.834  37.406   4.634
61511W        W33826   2.693   6.324  13.013
61512W        W33827  36.935  23.523  12.116
61513W        W33828   3.317  23.671   2.825
61514W        W33829   8.356  23.121   1.935
61515W        W33830  21.309  33.970  14.875
61516W        W33831  13.086  25.792   4.610
61517W        W33832  37.449  13.206   3.026
61518W        W33833   4.681   7.331  11.013
61519W        W33834  13.750  37.210   2.238
61520W        W33835   4.281  40.120  13.779
61521W        W33836  32.614  22.366  13.503
61522W        W33837   0.275  11.132   3.731
61523W        W33838  12.791   2.246  14.244
61524W        W33839  38.540   9.728   3.647
61525W        W33840  21.275  39.043  12.371
61526W        W33841  31.049  38.789  13.960
61527W        W33842  34.840   7.930  11.905
61528W        W33843  34.041  23.701   1.259
61529W        W33844  36.564   2.218  13.378
61530W        W33845  31.508  38.071   4.700
61531W        W33846   2.806   1.539   2.686
61532W        W33847   0.372   1.338  13.544
61533W        W33848  25.556   9.732  14.091
61534W        W33849   5.840  10.331  14.524
61535W        W33850  34.371  42.464  13.276
61536W        W33851  32.504   2.755   0.704
61537W        W33852  16.289   9.662   3.514
61538W        W33853  24.833  41.907   4.353
61539W        W33854  16.091  32.639   3.254
61540W        W33855  33.854  11.482   0.075
61541W        W33856  32.658  12.230  14.049
61542W        W33857   3.526  37.871   1.780
61543W        W33858  21.147  12.252  11.704
61544W        W33859  32.335  42.000  13.125
61545W        W33860   0.038  26.682   4.407
61546W        W33861   8.318  39.415  12.882
61547W        W33862  29.582   8.701   0.928
61548W        W33863   0.495   2.922  12.553
61549W        W33864  21.649  29.401  14.021
61550W        W33865   6.395  23.152   2.401
61551W        W33866  16.676   9.374   3.335
61552W        W33867   0.423   1.304   3.714
61553W        W33868  31.603   7.751   2.305
61554W        W33869  29.675  42.674  14.412
61555W        W33870   4.300   1.426   0.282
61556W        W33871  23.690   4.775   4.255
61557W        W33872  30.050  32.461  11.542
61558W        W33873  21.101  44.911   1.985
61559W        W33874  14.063   5.391  13.441
61560W        W33875  43.258  44.516   4.194
61561W        W33876  36.852  18.768   1.742
61562W        W33877  43.887  34.673   2.298
61563W        W33878  22.150  41.180  13.437
61564W        W33879  41.952  10.681  13.992
61565W        W33880   6.331  44.534   0.531
61566W        W33881   1.315   0.270   3.889
61567W        W33882   6.533   3.889   1.908
61568W        W33883  41.588  34.142  10.697
61569W        W33884   1.296  31.086   2.127
61570W        W33885  39.836   9.775  11.552
61571W        W33886  18.263   6.792   0.043
61572W        W33887  35.112  33.319   5.038
61573W        W33888  39.711  24.042   1.916
61574W        W33889  21.440   4.643   1.388
61575W        W33890  36.915   0.609  13.246
61576W        W33891   3.708  42.956  13.583
61577W        W33892  11.505  38.486   3.334
61578W        W33893   6.683  43.800   3.647
61579W        W33894  28.964  42.787   2.888
61580W        W33895  10.806  28.617  14.460
61581W        W33896  42.373  12.312   1.868
61582W        W33897  37.018  13.775   4.177
61583W        W33898  32.925  31.172   2.721
61584W        W33899   1.730  40.217  13.345
61585W        W33900  10.239   6.502   0.993
61586W        W33901  10.037  35.973  13.791
61587W        W33902   6.241  31.707  11.353
61588W        W33903  32.409  33.981  14.225
61589W        W33904  33.079  23.709   1.904
61590W        W33905  42.216  16.266  10.515
61591W        W33906  21.331  25.125   1.966
61592W        W33907  34.915   8.269   4.772
61593W        W33908   5.735  33.622   2.926
61594W        W33909  42.015  15.298   1.731
61595W        W33910  28.643  42.489  14.257
61596W        W33911  16.800  16.283   2.166
61597W        W33912  28.186  38.566  11.131
61598W        W33913  20.825  14.128  11.898
61599W        W33914  36.879  40.984   2.786
61600W        W33915  18.790  21.929  12.817
61601W        W33916  16.703  27.985   0.896
61602W        W33917  15.397  19.617   4.188
61603W        W33918   3.434  32.115   4.658
61604W        W33919  40.149  25.167   5.147
61605W        W33920  35.461  12.711   1.725
61606W        W33921  29.629  13.218  11.725
61607W        W33922  38.598  40.887  11.588
61608W        W33923  20.080  25.888   1.712
61609W        W33924  34.357   3.553  11.734
61610W        W33925  16.022  32.628   1.817
61611W        W33926   6.692  30.081   0.649
61612W        W33927  17.358  14.404   4.177
61613W        W33928   9.231  18.529   1.514
61614W        W33929  19.992   2.822   2.626
61615W        W33930  30.989  43.935   4.373
61616W        W33931  13.056  12.361  13.612
61617W        W33932  24.694  34.415  12.890
61618W        W33933  15.322  43.127  10.691
61619W        W33934  19.120  15.700   3.315
61620W        W33935  38.308  39.272  10.676
61621W        W33936  44.820  27.097  14.454
61622W        W33937   2.478  15.700  11.986
61623W        W33938   3.721  16.749  10.591
61624W        W33939  17.790  15.317   1.599
61625W        W33940  39.946  42.783  12.540
61626W        W33941  21.264  14.398   1.314
61627W        W33942  13.841  20.233   4.641
61628W        W33943  17.629   9.941   1.822
61629W        W33944  38.885  17.496   1.351
61630W        W33945  25.220  27.200  12.313
61631W        W33946   3.943  25.628  11.898
61632W        W33947  27.160  19.571   3.187
61633W        W33948  29.946  41.212   4.206
61634W        W33949  24.133  37.818   2.420
61635W        W33950  26.269   0.224   1.901
61636W        W33951  16.711  26.883   3.267
61637W        W33952  42.054  15.206  14.870
61638W        W33953   3.396  31.037   2.578
61639W        W33954  29.532  10.675  12.845
61640W        W33955  34.439  37.324  12.479
61641W        W33956  25.684  12.874  14.875
61642W        W33957  31.132  36.870  13.083
61643W        W33958  28.388  30.956  12.046
61644W        W33959   5.546   3.302   0.743
61645W        W33960   7.867  30.955   3.738
61646W        W33961  32.610   9.191   3.867
61647W        W33962  17.378  31.055  11.713
61648W        W33963  24.691  16.645  12.495
61649W        W33964   1.383  29.479   3.814
61650W        W33965   7.671  12.137  12.132
61651W        W33966  41.931  28.510   4.001
61652W        W33967  31.032  23.772  10.500
61653W        W33968   8.033  44.092   2.294
61654W        W33969   2.726  25.028  12.109
61655W        W33970  41.297  26.798   2.970
61656W        W33971  41.852  18.726  14.190
61657W        W33972  26.993  40.819  14.534
61658W        W33973  25.492  27.207   3.761
61659W        W33974  26.906  19.707   0.342
61660W        W33975  43.101   3.134  10.306
61661W        W33976   6.736  40.801  14.760
61662W        W33977  32.397   3.079   4.596
61663W        W33978  24.478  43.483   0.520
61664W        W33979  27.500  10.536   4.564
61665W        W33980   0.881  41.149  10.460
61666W        W33981  42.938  10.388   2.370
61667W        W33982  25.600  22.298   1.428
61668W        W33983  22.263  22.105   9.745
61669W        W33984  42.476  12.657   4.080
61670W        W33985   3.765  31.558  10.707
61671W        W33986  30.980  39.527   4.393
61672W        W33987  11.300  17.782   4.097
61673W        W33988   4.797   9.780  14.189
61674W        W33989  27.446   8.176   0.481
61675W        W33990  23.527  38.391  12.483
61676W        W33991   6.181  12.651   0.869
61677W        W33992  10.943  13.707  11.637
61678W        W33993  34.432   3.523   1.301
61679W        W33994  40.500  22.323   0.576
61680W        W33995  30.149   6.878   1.737
61681W        W33996   4.411  44.214  11.631
61682W        W33997  19.831  41.873   0.735
61683W        W33998  21.672  41.824   1.428
61684W        W33999  14.339  37.916  12.046
61685W        W34000   6.713   0.907  13.510
61686W        W34001  40.304  20.559   0.940
61687W        W34002  13.575  34.153   2.303
61688W        W34003   9.175  32.047   3.144
61689W        W34004  42.316  27.333   0.707
61690W        W34005  11.789   2.342   1.243
61691W        W34006   1.934   4.360  13.923
61692W        W34007   2.699   5.324  11.490
61693W        W34008  23.696   4.366  11.465
61694W        W34009  29.189  28.897   2.438
61695W        W34010  38.366  44.743  11.550
61696W        W34011  13.771  41.989  11.961
61697W        W34012  26.636  43.968   1.643
61698W        W34013  24.951  44.763  10.881
61699W        W34014  36.488  35.451  12.419
61700W        W34015   4.319  26.554  14.819
61701W        W34016  12.007  39.329  13.772
61702W        W34017   4.541  36.366   3.764
61703W        W34018   0.096  22.022  12.354
61704W        W34019  35.953  30.361  13.024
61705W        W34020  17.086  34.548  11.874
61706W        W34021   7.671  21.321   0.898
61707W        W34022  39.880  23.724   4.051
61708W        W34023  17.006  22.862   0.947
61709W        W34024  21.570   7.395  12.019
61710W        W34025  39.859  34.835  14.317
61711W        W34026  30.579  44.847  14.192
61712W        W34027  30.403  19.090  12.041
61713W        W34028  30.620   2.489   2.631
61714W        W34029  20.707  13.103  12.543
61715W        W34030  28.203   5.935   1.788
61716W        W34031   6.791  43.281  13.793
61717W        W34032  44.245   2.942  10.181
61718W        W34033  41.958  10.442  14.471
61719W        W34034   8.854  23.436  10.256
61720W        W34035  33.288  29.063   2.830
61721W        W34036  15.544  24.429  12.635
61722W        W34037  31.193  13.243   4.307
61723W        W34038  12.272  21.248   0.433
61724W        W34039  24.147   1.344  14.432
61725W        W34040  19.302  22.857   3.626
61726W        W34041   9.786  20.624   1.258
61727W        W34042  42.763  12.675   4.495
61728W        W34043  22.673   7.616  11.040
61729W        W34044  32.997   6.889   4.071
61730W        W34045  41.525   3.316   4.188
61731W        W34046  11.092  15.039   2.160
61732W        W34047  36.650  43.306   2.766
61733W        W34048  36.450  16.145   3.268
61734W        W34049  10.703   5.703   4.158
61735W        W34050  38.334  30.880   0.747
61736W        W34051  29.906  12.635   3.307
61737W        W34052  44.475  35.126   3.089
61738W        W34053  23.662  18.872  14.021
61739W        W34054  39.063  18.728   3.113
61740W        W34055  16.201  32.467   4.492
61741W        W34056  43.783  17.427  13.778
61742W        W34057   0.975  11.862  11.506
61743W        W34058  29.395  30.141   0.752
61744W        W34059  20.964  10.113   5.524
61745W        W34060  30.764   0.245   2.367
61746W        W34061  40.708  11.871  13.547
61747W        W34062   9.553  39.673   3.712
61748W        W34063   3.275  18.648  13.579
61749W        W34064   1.295  31.413  13.435
61750W        W34065   7.746   0.671   3.174
61751W        W34066  38.274   6.342  10.088
61752W        W34067  10.665   7.936   1.130
61753W        W34068  10.476  35.925   2.453
61754W        W34069   2.011  25.143   4.616
61755W        W34070  20.622  21.440   1.806
61756W        W34071  14.457  30.988   2.707
61757W        W34072   9.857  32.562  12.501
61758W        W34073  28.916  16.624  13.468
61759W        W34074  11.862   4.902   2.769
61760W        W34075  38.358  21.766  11.749
61761W        W34076  40.533  11.934  14.439
61762W        W34077   2.208  14.942  10.906
61763W        W34078  40.411   0.260  12.446
61764W        W34079   6.304   9.397   1.395
61765W        W34080  11.953  44.775  12.104
61766W        W34081  34.117  38.870  13.036
61767W        W34082  30.454  27.366  14.342
61768W        W34083  12.949   9.638  11.113
61769W        W34084  41.100  21.499   3.229
61770W        W34085  19.663  29.840  12.477
61771W        W34086  43.982  12.799   3.251
61772W        W34087  11.834  41.110  13.038
61773W        W34088  39.257  27.908  12.895
61774W        W34089  14.639  29.636  11.262
61775W        W34090   9.393  42.449  14.446
61776W        W34091  32.701  24.434   2.316
61777W        W34092  11.650  18.100  13.608
61778W        W34093  33.886  10.964   3.299
61779W        W34094  42.110  24.948   1.304
61780W        W34095  12.124   4.493  11.927
61781W        W34096  13.877  21.569   3.530
61782W        W34097  33.403  38.191  12.895
61783W        W34098  26.667   7.006   9.708
61784W        W34099  25.257  16.257  12.129
61785W        W34100  44.019  44.062  14.931
61786W        W34101  11.384  31.320   0.375
61787W        W34102   1.702  10.382  11.242
61788W        W34103  15.229  18.382  11.208
61789W        W34104   9.169   6.467  14.771
61790W        W34105  26.120   0.698  12.939
61791W        W34106   9.329  36.033   4.298
61792W        W34107   7.892  20.600  12.319
61793W        W34108  24.261  42.083  14.358
61794W        W34109  15.304  15.786   1.294
61795W        W34110  13.805   2.076   1.761
61796W        W34111  11.676  21.618   4.488
61797W        W34112  36.881  29.150  13.497
61798W        W34113  11.739  32.471  13.997
61799W        W34114   6.433  25.226  10.675
61800W        W34115  10.332  43.048   4.191
61801W        W34116   1.875  42.670   1.684
61802W        W34117  12.267  18.418  13.113
61803W        W34118  15.318   5.504   0.710
61804W        W34119  19.608  24.258  14.334
61805W        W34120  12.207  39.541  14.696
61806W        W34121  42.457  16.100  11.516
61807W        W34122  12.277   9.173   1.305
61808W        W34123   4.872  23.127   3.680
61809W        W34124  41.380  29.935  13.559
61810W        W34125  18.109  31.171   1.118
61811W        W34126  13.605  25.766   0.415
61812W        W34127   0.358  17.863  10.410
61813W        W34128  12.538  29.489  10.887
61814W        W34129   2.547  41.598  12.659
61815W        W34130  25.621   5.831  13.751
61816W        W34131  10.687  29.233  12.852
61817W        W34132  33.091  13.647  13.598
61818W        W34133   1.337  26.887  11.010
61819W        W34134  17.959  12.794  13.419
61820W        W34135  32.511  32.124  11.602
61821W        W34136   1.684  34.238   3.317
61822W        W34137  30.921  42.531  10.818
61823W        W34138  18.816  36.086  12.978
61824W        W34139  21.939  32.604   0.428
61825W        W34140  29.862   8.544   0.518
61826W        W34141  15.620  33.440   2.535
61827W        W34142   5.638  28.310  10.951
61828W        W34143  22.527  33.849   3.082
61829W        W34144  20.805   5.899   2.608
61830W        W34145  11.936  21.816   3.503
61831W        W34146  13.213   5.460  10.409
61832W        W34147  41.873   8.402   2.721
61833W        W34148  14.610   0.750   1.639
61834W        W34149   5.168  29.967  12.477
61835W        W34150   7.184  37.600  11.940
61836W        W34151  36.198   4.657  11.046
61837W        W34152  21.264  15.380  12.565
61838W        W34153  33.197  19.950   1.324
61839W        W34154  41.359  18.158   3.542
61840W        W34155  43.383  18.099   4.387
61841W        W34156   0.544  16.467  13.000
61842W        W34157  33.862  13.215   4.025
61843W        W34158  35.875  15.653   2.813
61844W        W34159   1.395  22.387  13.508
61845W        W34160  37.394  16.354   0.374
61846W        W34161  41.075  13.089   0.421
61847W        W34162  34.522  25.639  11.706
61848W        W34163  40.120  41.382   0.631
61849W        W34164  10.025  10.165  10.324
61850W        W34165   4.494  30.721   3.711
61851W        W34166  18.542  18.732  11.529
61852W        W34167  39.502   2.002   3.169
61853W        W34168   9.742  37.408   1.206
61854W        W34169  41.451  38.930  12.916
61855W        W34170  16.504  26.183  10.925
61856W        W34171  28.887   0.391  12.880
61857W        W34172  23.811  15.606   4.583
61858W        W34173  33.065  26.672   1.961
61859W        W34174  29.014  13.973   3.655
61860W        W34175   9.038  13.886  11.513
61861W        W34176  38.414  14.139   2.842
61862W        W34177  35.103   5.420   0.234
61863W        W34178  16.024  44.893  12.183
61864W        W34179   2.256  20.515   1.841
61865W        W34180   6.176   2.853  12.990
61866W        W34181  10.709  21.781   0.718
61867W        W34182  18.592   7.934   1.440
61868W        W34183  11.622  24.965   1.457
61869W        W34184  33.090   9.899  13.698
61870W        W34185  28.883  27.434   1.446
61871W        W34186  42.245  29.928  12.978
61872W        W34187  22.270  40.181  14.778
61873W        W34188   2.190  35.342   1.031
61874W        W34189  10.459  30.931   2.880
61875W        W34190  31.662  20.711   2.015
61876W        W34191  32.834  44.819  11.727
61877W        W34192  15.592  15.183  13.269
61878W        W34193  19.627  28.591   0.936
61879W        W34194  21.369  44.466   2.133
61880W        W34195  30.683   9.477   0.925
61881W        W34196  17.613  35.960  11.004
61882W        W34197  10.255  23.377  10.110
61883W        W34198   8.909  10.133  12.856
61884W        W34199  29.561   4.202  11.154
61885W        W34200   6.562  37.258   2.714
61886W        W34201  13.642  31.965  12.114
61887W        W34202  35.698  15.550  14.992
61888W        W34203   5.951  23.468  13.582
61889W        W34204  26.103  12.655   2.678
61890W        W34205  10.861  16.500  12.500
61891W        W34206   6.868  17.142   2.838
61892W        W34207  16.137  30.678  12.731
61893W        W34208  32.511   5.028  11.188
61894W        W34209  24.377  19.829  13.928
61895W        W34210  33.354  33.527   1.931
61896W        W34211  31.582  19.299  10.510
61897W        W34212   7.771  39.200   2.785
61898W        W34213  12.475  28.556   3.735
61899W        W34214   7.314  23.982   0.230
61900W        W34215   5.733   0.305  12.004
61901W        W34216  12.217  20.202   0.199
61902W        W34217   8.154  40.085   4.043
61903W        W34218  30.068   7.540  13.382
61904W        W34219  23.630  19.423   5.032
61905W        W34220  30.020  44.679   0.875
61906W        W34221  42.884  41.838   4.613
61907W        W34222   6.897  13.063   4.198
61908W        W34223  26.661  12.304   4.651
61909W        W34224  31.924  36.466  14.475
61910W        W34225  42.962  11.234  13.262
61911W        W34226  36.947   0.479  12.222
61912W        W34227   7.803  21.064   3.991
61913W        W34228  20.803  33.574   2.695
61914W        W34229   2.886  31.664  11.926
61915W        W34230  24.235  11.215   4.552
61916W        W34231  20.996  10.246  14.481
61917W        W34232   3.873   7.136  10.625
61918W        W34233  19.617  12.941   0.023
61919W        W34234  31.172  26.300   1.963
61920W        W34235  28.271   2.843  14.798
61921W        W34236  22.177   5.795  10.726
61922W        W34237  41.092  23.682  10.773
61923W        W34238   2.212  31.545   2.217
61924W        W34239  39.728  10.039   2.337
61925W        W34240  19.302  22.943  12.056
61926W        W34241  18.802  41.376  10.771
61927W        W34242  37.025  19.896  14.686
61928W        W34243  21.953  32.497  11.648
61929W        W34244  32.546  34.801   3.712
61930W        W34245  34.207  12.862  11.111
61931W        W34246   8.939  19.654  13.317
61932W        W34247   3.749   1.790  13.088
61933W        W34248  28.996  13.707  12.229
61934W        W34249  29.594  31.733  13.107
61935W        W34250  44.923  13.137   4.660
61936W        W34251  14.644   5.719   3.170
61937W        W34252  10.617  11.326  12.319
61938W        W34253  17.162  23.931   2.804
61939W        W34254  36.836  12.146   0.237
61940W        W34255  15.652  26.573   1.107
61941W        W34256   1.772  43.205   2.719
61942W        W34257   4.305  23.652   0.798
61943W        W34258  35.821  24.058  14.378
61944W        W34259  27.782  40.122   1.671
61945W        W34260  38.421  35.914  10.536
61946W        W34261  17.477  22.438   2.875
61947W        W34262  42.935  39.448  12.966
61948W        W34263  37.364  30.062  12.572
61949W        W34264   1.023  36.152   9.783
61950W        W34265   1.002  17.172  13.602
61951W        W34266  21.450   3.793   1.419
61952W        W34267  22.347   6.316  11.515
61953W        W34268  23.688  43.474   0.516
61954W        W34269  28.225  42.389   4.101
61955W        W34270  28.244  24.516  14.901
61956W        W34271   1.441  16.170   4.279
61957W        W34272  20.084  33.965  14.341
61958W        W34273   6.345  14.769  10.981
61959W        W34274  20.400  44.172   3.398
61960W        W34275  20.061  26.111  13.255
61961W        W34276  35.926  19.804  13.444
61962W        W34277  43.418  33.035  13.103
61963W        W34278   4.678  31.628  14.174
61964W        W34279   3.307  25.420  13.806
61965W        W34280  18.362  10.660   3.684
61966W        W34281  17.637  22.197   0.692
61967W        W34282  11.327   0.316   0.837
61968W        W34283  11.591  28.497   4.615
61969W        W34284  12.435  35.420   0.244
61970W        W34285  35.344  38.540  11.629
61971W        W34286  21.586  35.025   3.749
61972W        W34287  28.458  26.514  13.546
61973W        W34288  39.517  35.445   2.220
61974W        W34289  38.933  23.762  12.539
61975W        W34290   5.990  20.073  12.872
61976W        W34291  16.643  17.861  12.574
61977W        W34292  38.879   4.725   1.855
61978W        W34293   4.729   8.883  10.657
61979W        W34294   0.421   9.491   1.335
61980W        W34295   6.811  10.185  13.624
61981W        W34296  37.829  21.294   2.923
61982W        W34297  25.694  37.995   1.484
61983W        W34298  44.984  29.008  12.597
61984W        W34299  23.526  17.899  14.446
61985W        W34300  44.123  43.807  12.464
61986W        W34301   7.909  30.093   3.635
61987W        W34302  21.632  34.471  12.493
61988W        W34303  37.122  39.779  10.938
61989W        W34304  22.699   0.512  11.586
61990W        W34305  32.986  10.673   1.276
61991W        W34306  32.855  16.581   4.054
61992W        W34307  18.212  25.065   0.334
61993W        W34308   4.707   5.940   4.615
61994W        W34309  28.358  16.352  14.422
61995W        W34310  27.675  28.931   1.690
61996W        W34311  13.871   8.628  13.387
61997W        W34312  38.946  20.231   2.969
61998W        W34313  22.767  28.992  12.900
61999W        W34314   6.293  33.040   1.847
62000W        W34315   2.136  25.358   2.394
62001W        W34316   6.845  18.411   3.848
62002W        W34317  42.347   3.825  13.867
62003W        W34318  31.574   1.217  10.685
62004W        W34319  41.576  11.396   2.656
62005W        W34320  27.160  31.156   4.064
62006W        W34321  25.735  14.993  14.347
62007W        W34322  25.799  21.526   5.037
62008W        W34323   3.962  24.722  11.739
62009W        W34324  31.082  16.094   3.228
62010W        W34325  12.195  21.067   2.308
62011W        W34326  35.131  40.508  14.905
62012W        W34327  42.094  27.481   1.165
62013W        W34328  32.981   0.193  14.905
62014W        W34329  31.033  25.013   2.659
62015W        W34330  16.177  33.984  10.988
62016W        W34331  30.629   4.387  14.361
62017W        W34332   9.240  24.123   4.343
62018W        W34333  10.549   8.853   2.355
62019W        W34334   1.750   6.905  13.378
62020W        W34335  32.937  19.071  12.505
62021W        W34336   0.024  10.197  13.081
62022W        W34337   5.124  19.231  11.124
62023W        W34338  13.229   6.877   2.771
62024W        W34339   7.040  38.392  13.548
62025W        W34340   4.416  29.958   0.761
62026W        W34341   6.653  11.639   3.738
62027W        W34342   6.391  44.768  13.545
62028W        W34343  14.312   9.195   2.082
62029W        W34344  17.301   3.925  11.073
62030W        W34345  28.212  22.250  14.818
62031W        W34346  15.325  27.641  12.810
62032W        W34347  13.826   0.366   4.321
62033W        W34348  40.416  28.846  11.197
62034W        W34349  27.439  39.061  13.892
62035W        W34350   7.137  17.758  13.528
62036W        W34351  31.561   1.466  11.952
62037W        W34352  36.685  16.873  12.688
62038W        W34353  33.887  38.923  14.973
62039W        W34354  40.897  34.955  14.990
62040W        W34355  14.536  21.431   0.358
62041W        W34356  39.699  31.726   3.194
62042W        W34357  29.443  40.530  14.120
62043W        W34358  13.937   5.859  14.018
62044W        W34359  23.811   0.229  14.080
62045W        W34360  15.045  15.334   1.367
62046W        W34361  35.521  33.041  10.554
62047W        W34362  34.813  41.104  14.038
62048W        W34363   7.178  38.342   3.050
62049W        W34364  38.397  44.855  12.581
62050W        W34365   4.805  36.749  10.306
62051W        W34366   5.917  16.826  11.526
62052W        W34367  44.876  22.310  10.999
62053W        W34368  43.727  16.386  13.273
62054W        W34369  35.298  12.117   1.033
62055W        W34370   5.231  37.998   0.021
62056W        W34371  37.696  36.542   4.523
62057W        W34372  24.569   7.158  13.421
62058W        W34373  37.451   4.802  12.441
62059W        W34374   1.255  36.373  14.339
62060W        W34375   0.220   8.042  11.356
62061W        W34376  34.788  20.275   3.060
62062W        W34377   8.249  27.961   0.404
62063W        W34378  23.752  26.168   3.963
62064W        W34379  43.245   7.289  11.881
62065W        W34380  18.230  30.781   2.870
62066W        W34381  19.150  10.261  14.514
62067W        W34382  33.444   8.910   1.794
62068W        W34383  22.197  34.005   1.724
62069W        W34384  15.566  37.897  12.385
62070W        W34385  22.794  13.641  11.547
62071W        W34386   9.301   6.215  13.301
62072W        W34387  36.498   7.336  14.112
62073W        W34388  40.959  25.749  13.570
62074W        W34389   6.742  33.371  12.556
62075W        W34390  13.493  32.827   2.159
62076W        W34391   3.190  21.241   4.103
62077W        W34392  40.357  29.878  11.152
62078W        W34393  23.089  21.226   2.689
62079W        W34394  33.807  41.721   2.759
62080W        W34395  36.937  30.003   2.243
62081W        W34396  18.241  22.582  13.802
62082W        W34397  39.553  10.220   2.828
62083W        W34398  13.115   3.741  13.824
62084W        W34399  44.931  39.461  10.467
62085W        W34400  25.480  40.621  12.735
62086W        W34401   0.799  31.627  13.470
62087W        W34402  11.763  20.866  11.418
62088W        W34403  27.212  21.155   4.076
62089W        W34404  41.546  29.928   0.644
62090W        W34405  28.877   8.740   3.740
62091W        W34406  36.837  44.790   2.297
62092W        W34407  44.295  40.951  13.391
62093W        W34408  41.431  39.339  13.926
62094W        W34409  25.502  33.096   2.199
62095W        W34410  12.263   7.077  14.331
62096W        W34411   2.198   7.366   4.363
62097W        W34412  11.720  23.906  13.062
62098W        W34413  40.835  21.287   1.413
62099W        W34414   3.379   8.197  13.052
62100W        W34415  33.903   6.635   3.148
62101W        W34416  30.667   5.243  12.854
62102W        W34417  38.895  26.407   0.449
62103W        W34418   2.774  31.752  12.750
62104W        W34419  19.965  30.922  13.992
62105W        W34420   9.302  44.383  10.339
62106W        W34421   1.529  30.813   4.268
62107W        W34422  38.120  40.322  11.113
62108W        W34423  21.067  36.395  13.333
62109W        W34424  15.588   8.082  10.699
62110W        W34425  13.231  28.542   4.338
62111W        W34426  31.046   4.661   2.747
62112W        W34427  11.715  43.606   3.952
62113W        W34428  30.104  43.455   3.316
62114W        W34429  32.942   8.385   2.307
62115W        W34430  25.617  12.790   1.346
62116W        W34431   5.497  25.160   4.098
62117W        W34432  33.552  11.234   1.750
62118W        W34433  39.080   5.306  13.827
62119W        W34434  19.098  17.164   3.134
62120W        W34435  39.029  20.324  14.712
62121W        W34436  13.046  15.594  14.910
62122W        W34437  22.222  28.061   4.643
62123W        W34438   6.525  13.309   2.794
62124W        W34439  42.969   0.376  10.196
62125W        W34440  21.785  37.344  14.627
62126W        W34441   6.750  33.947  14.280
62127W        W34442  21.545  27.735   4.511
62128W        W34443  14.958  16.323   2.252
62129W        W34444  22.366   7.170  14.755
62130W        W34445   9.337  29.572  10.255
62131W        W34446  43.839  38.979   4.566
62132W        W34447  29.943  43.956   3.427
62133W        W34448  36.208   1.353   3.806
62134W        W34449  16.851  27.918  13.545
62135W        W34450  32.291  21.084  10.338
62136W        W34451  21.260  31.943  10.301
62137W        W34452  11.690  34.394   3.187
62138W        W34453  13.373  28.990  12.954
62139W        W34454  42.425  42.406  12.955
62140W        W34455   3.504  39.046   3.337
62141W        W34456  16.021  26.629  13.450
62142W        W34457  36.066  25.939   3.251
62143W        W34458   0.395  18.322   0.861
62144W        W34459   2.719   2.395   0.928
62145W        W34460  18.075  14.738   4.902
62146W        W34461   8.796  26.727  10.261
62147W        W34462  15.836  39.909   1.791
62148W        W34463  15.844  20.588   2.365
62149W        W34464  33.977  15.414  12.472
62150W        W34465  27.388  20.857   3.655
62151W        W34466  29.818  11.092   2.769
62152W        W34467  35.530  24.973   3.623
62153W        W34468  18.802  10.698   9.737
62154W        W34469  34.389   1.991  11.579
62155W        W34470  41.632   5.755   0.004
62156W        W34471  26.135   5.100   4.859
62157W        W34472  34.531  39.907  10.851
62158W        W34473   0.945   2.927  11.661
62159W        W34474  23.022  16.503   2.708
62160W        W34475  11.771  35.419   4.191
62161W        W34476  43.855  34.609  13.862
62162W        W34477  16.753  21.049   3.890
62163W        W34478  24.036  34.614   0.941
62164W        W34479  29.867  21.506   4.123
62165W        W34480  38.131  10.617  14.103
62166W        W34481  17.222  43.324  13.720
62167W        W34482  44.421  28.489  13.094
62168W        W34483   1.793  16.653  14.589
62169W        W34484  33.059  21.499  11.577
62170W        W34485  18.740  20.808  14.341
62171W        W34486  42.591  39.415  14.126
62172W        W34487  26.746  40.078   9.921
62173W        W34488  37.673  36.623   3.743
62174W        W34489  42.551  35.962  12.104
62175W        W34490  17.429   0.389   0.849
62176W        W34491  29.348  18.863   1.603
62177W        W34492  25.639  36.466   4.554
62178W        W34493  15.395   3.911  10.080
62179W        W34494  39.917  13.282  14.428
62180W        W34495  44.231  29.172   1.864
62181W        W34496  15.934  33.100  12.469
62182W        W34497  35.237  31.114   2.757
62183W        W34498  39.346  13.317  11.137
62184W        W34499  28.282  26.484  14.026
62185W        W34500  19.239   7.362   2.955
62186W        W34501  24.689  23.546  10.677
62187W        W34502  24.660  17.821  14.798
62188W        W34503  36.103  11.921   1.450
62189W        W34504  13.729  16.718  11.000
62190W        W34505  26.171  39.622   2.471
62191W        W34506  31.622  42.903   0.305
62192W        W34507  18.732  42.383   3.175
62193W        W34508  26.399  13.298  10.876
62194W        W34509  18.365  28.423  14.816
62195W        W34510   5.484  31.637   4.276
62196W        W34511  32.472   5.836  13.297
62197W        W34512   5.790   3.985   4.168
62198W        W34513   1.704  11.620  12.901
62199W        W34514  20.556  16.228  14.565
62200W        W34515  39.397  43.997  12.480
62201W        W34516  40.487  35.468   0.378
62202W        W34517  32.406  11.011   2.380
62203W        W34518  12.359  41.592   2.279
62204W        W34519  17.026   9.147  10.391
62205W        W34520  31.127  20.893  11.064
62206W        W34521  22.557  15.646   4.596
62207W        W34522  28.690  12.762   2.779
62208W        W34523   2.965  24.032   4.351
62209W        W34524  35.431  24.390   3.002
62210W        W34525  15.888  43.484  12.797
62211W        W34526  44.526  42.555   0.701
62212W        W34527   9.983  22.288  14.916
62213W        W34528  22.847   0.168  13.880
62214W        W34529  21.215   0.398   1.207
62215W        W34530  37.851  39.050   0.009
62216W        W34531  39.454  30.258  10.891
62217W        W34532  26.934  24.301  11.667
62218W        W34533  23.503  11.206  11.623
62219W        W34534   9.790  29.337  12.887
62220W        W34535  14.605   2.691   1.842
62221W        W34536  30.898   3.365  14.938
62222W        W34537  21.781   2.534   3.868
62223W        W34538   1.991  23.119  12.076
62224W        W34539   7.548  16.036  10.970
62225W        W34540  23.512  31.803  12.463
62226W        W34541  14.335  29.963  10.718
62227W        W34542  18.011  34.141   4.366
62228W        W34543  16.654  32.992  13.787
62229W        W34544  10.386  35.443   1.233
62230W        W34545  14.037  30.025   0.909
62231W        W34546  42.985   6.389   1.065
62232W        W34547  31.533  19.490  13.931
62233W        W34548   9.401   4.253   3.683
62234W        W34549  22.973  10.120  10.550
62235W        W34550  11.027  32.157  12.091
62236W        W34551  27.055   4.492   2.200
62237W        W34552  15.256  22.104   1.418
62238W        W34553  25.222   6.986  12.485
62239W        W34554  31.860  42.792  10.304
62240W        W34555  13.846  21.975  10.750
62241W        W34556  37.854   9.630   4.430
62242W        W34557  26.988  26.181  12.034
62243W        W34558  16.831  23.655   4.613
62244W        W34559  18.263   9.714   1.954
62245W        W34560  21.743  19.409  10.583
62246W        W34561  39.234  11.378   1.201
62247W        W34562   7.586  11.648   2.737
62248W        W34563  42.062  16.681  11.419
62249W        W34564  44.246  22.148   1.280
62250W        W34565   9.667  32.877   0.239
62251W        W34566  13.120  35.302  14.955
62252W        W34567  33.018   8.656  14.284
62253W        W34568  23.253  35.441   3.390
62254W        W34569  34.667  15.175   1.192
62255W        W34570  22.246   3.141   2.671
62256W        W34571  25.104  15.556  11.314
62257W        W34572  43.962   9.380  14.836
62258W        W34573  42.264   1.834  12.919
62259W        W34574   7.788  26.672  11.756
62260W        W34575   8.260   4.249   2.781
62261W        W34576  11.594   0.365  14.015
62262W        W34577  24.024  18.671   3.377
62263W        W34578  24.538  36.807  13.969
62264W        W34579  40.382  24.906  13.210
62265W        W34580  21.061  26.423  12.496
62266W        W34581   0.696  29.114   4.341
62267W        W34582   5.438   8.315   1.365
62268W        W34583  40.424  39.045  13.519
62269W        W34584  22.791  26.439  13.539
62270W        W34585   2.247   4.376  11.436
62271W        W34586  14.867   0.342   4.403
62272W        W34587  22.673   8.364   0.206
62273W        W34588   4.360  38.492  11.340
62274W        W34589   5.837  43.260  14.758
62275W        W34590  28.598  34.508  12.571
62276W        W34591   9.909  26.379   2.258
62277W        W34592  12.760  40.911   4.325
62278W        W34593  32.759  24.492  14.057
62279W        W34594  27.985  31.976  14.360
62280W        W34595  44.381  42.590   4.755
62281W        W34596  21.121  43.805   0.472
62282W        W34597  10.721  13.097  14.365
62283W        W34598   0.957  21.022  12.902
62284W        W34599  14.856   2.239   0.363
62285W        W34600   9.447  14.528   2.858
62286W        W34601  42.496   2.958   4.508
62287W        W34602   3.436  41.748   0.916
62288W        W34603  10.329  35.643  14.756
62289W        W34604  12.918  35.791  11.447
62290W        W34605  38.537   7.333   4.820
62291W        W34606  42.762  35.309  11.369
62292W        W34607  33.116  44.737   3.336
62293W        W34608   3.774  38.838  10.689
62294W        W34609  16.132  23.046  13.259
62295W        W34610  15.328   3.942   0.714
62296W        W34611  21.865  44.325   1.341
62297W        W34612  18.151  40.567  11.953
62298W        W34613  41.985  37.151   1.220
62299W        W34614  36.476  26.882  14.548
62300W        W34615  23.353   6.870   2.247
62301W        W34616  17.777   6.772  12.855
62302W        W34617  33.386  23.863   0.315
62303W        W34618   1.978  30.110  12.355
62304W        W34619  34.661  22.198  14.502
62305W        W34620  11.456  41.509  14.062
62306W        W34621  13.227  23.820   4.458
62307W        W34622  29.525  10.316   3.106
62308W        W34623  34.121  24.623   0.472
62309W        W34624   1.257  41.170   3.537
62310W        W34625   4.420  19.093  13.791
62311W        W34626   8.671  17.053  11.260
62312W        W34627  19.130  13.281  14.093
62313W        W34628  15.164  12.201   2.168
62314W        W34629  44.903  17.289   2.693
62315W        W34630  24.022  11.796  11.902
62316W        W34631  28.796  41.413  11.372
62317W        W34632   5.632  33.495   2.326
62318W        W34633  40.833  16.609   0.933
62319W        W34634   8.663  14.130  12.525
62320W        W34635   3.922  35.156   1.814
62321W        W34636   6.402   1.821  12.045
62322W        W34637  20.569   8.745  13.718
62323W        W34638  31.331   8.782  12.464
62324W        W34639  21.993  38.583   3.023
62325W        W34640   4.105  40.526  11.516
62326W        W34641   6.831  33.664  14.950
62327W        W34642  42.643  43.879   1.680
62328W        W34643   4.417  41.605  13.549
62329W        W34644   1.359   7.461   4.354
62330W        W34645  26.018  11.168  12.647
62331W        W34646  23.575  13.416  14.864
62332W        W34647  14.089  24.693   0.772
62333W        W34648  32.030  41.845   2.863
62334W        W34649  44.435  13.249  14.972
62335W        W34650  14.375  22.743   2.021
62336W        W34651  44.828  15.292  13.880
62337W        W34652   5.460  39.247   0.165
62338W        W34653   5.850  34.405  14.280
62339W        W34654  31.367  21.229  14.803
62340W        W34655   9.156  32.139   1.757
62341W        W34656  23.228  44.263  12.995
62342W        W34657  19.667  32.930  14.668
62343W        W34658  22.105  20.484  13.534
62344W        W34659  14.260  24.009   2.652
62345W        W34660  19.182  31.870   1.360
62346W        W34661   3.184  18.144  12.709
62347W        W34662  38.497  14.137   2.332
62348W        W34663  10.823   7.454   0.377
62349W        W34664  20.342   2.003  11.184
62350W        W34665  29.620  11.788  14.333
62351W        W34666  19.233  14.317   0.062
62352W        W34667  10.581  42.562   1.750
62353W        W34668  26.105  41.009   4.639
62354W        W34669  43.421  20.769   3.707
62355W        W34670  42.299  41.555   2.743
62356W        W34671   5.028   2.727   1.940
62357W        W34672  10.374   9.671  14.527
62358W        W34673  41.960  11.618  10.691
62359W        W34674   7.646  27.321   1.162
62360W        W34675   7.022  26.745  10.082
62361W        W34676  27.070  32.271  12.873
62362W        W34677  35.339  20.715  14.374
62363W        W34678   0.485  34.870   3.894
62364W        W34679  18.808  25.234   1.221
62365W        W34680   1.951   0.287  14.316
62366W        W34681  28.491  42.569   2.754
62367W        W34682  15.337   6.359   0.880
62368W        W34683  21.638  18.797  12.659
62369W        W34684  21.556  35.956   3.732
62370W        W34685  13.772  24.176  14.964
62371W        W34686   6.620   3.643  13.393
62372W        W34687  40.486  22.032   4.850
62373W        W34688  23.682   4.364  13.357
62374W        W34689  43.982  35.035   0.341
62375W        W34690   0.285  43.331   1.701
62376W        W34691   5.271  40.087  14.624
62377W        W34692  17.672  13.656  13.604
62378W        W34693  19.619  44.927   0.486
62379W        W34694  35.599   5.451   1.346
62380W        W34695  33.796  38.512  13.885
62381W        W34696  42.593  34.532   2.092
62382W        W34697   3.244   4.082   1.902
62383W        W34698  42.096  30.551   3.225
62384W        W34699  26.942  35.401   3.574
62385W        W34700   1.919  41.752   0.568
62386W        W34701  34.645  42.485   3.756
62387W        W34702  42.801  14.032   3.655
62388W        W34703  21.039  14.460   4.523
62389W        W34704   2.206  38.239   2.734
62390W        W34705   6.771  25.587   4.171
62391W        W34706   5.905   3.998   0.433
62392W        W34707  22.921  37.766  12.448
62393W        W34708  41.066  28.669   2.237
62394W        W34709  15.693   9.013   0.373
62395W        W34710  19.577   0.852   4.582
62396W        W34711   5.017   0.442   3.672
62397W        W34712  12.616  27.106  11.521
62398W        W34713  17.706  20.930   0.829
62399W        W34714  33.057  27.659   0.260
62400W        W34715   0.864  33.341   0.198
62401W        W34716  43.020  24.632   2.364
62402W        W34717  44.007  27.429  11.528
62403W        W34718  41.493  29.197  10.604
62404W        W34719  20.115  33.947   2.701
62405W        W34720  24.779   4.717   4.679
62406W        W34721  22.173   1.767   4.326
62407W        W34722  35.590  14.279   0.821
62408W        W34723   6.868   1.311   1.522
62409W        W34724  37.303  13.373   0.654
62410W        W34725  17.178  41.473  13.595
62411W        W34726  23.766   9.685   1.215
62412W        W34727  42.423  18.882  13.022
62413W        W34728  31.337  17.076   2.710
62414W        W34729   8.754  27.182  10.969
62415W        W34730  38.396  22.195   0.144
62416W        W34731   7.200   1.975  11.136
62417W        W34732  37.579  13.380  13.872
62418W        W34733   5.439  44.249  13.495
62419W        W34734  24.219  32.087   1.823
62420W        W34735   4.273  16.866  11.910
62421W        W34736  21.117  28.379  10.718
62422W        W34737   1.383  35.409  14.304
62423W        W34738  21.209  32.990   2.141
62424W        W34739  18.960  16.675  10.635
62425W        W34740  14.657  31.829   0.651
62426W        W34741  39.307  22.510   3.658
62427W        W34742  30.320   5.681  14.087
62428W        W34743   4.187  25.194   4.110
62429W        W34744  11.879  17.185   3.041
62430W        W34745   8.814  11.208  12.530
62431W        W34746  33.116  28.481   2.345
62432W        W34747  39.009  37.984  10.706
62433W        W34748  33.045  27.686   2.759
62434W        W34749   2.444  26.996   3.209
62435W        W34750  31.102  17.693   0.304
62436W        W34751  13.317   7.297   3.104
62437W        W34752  22.698  27.950  11.966
62438W        W34753  12.809   0.912   1.166
62439W        W34754  33.395  43.009   2.861
62440W        W34755  22.661   2.395  11.278
62441W        W34756  12.839   5.444  14.811
62442W        W34757  29.189  29.623   3.106
62443W        W34758   5.928  36.995  12.392
62444W        W34759  16.085  41.809  11.548
62445W        W34760  25.448  32.733  12.591
62446W        W34761  13.383  38.614  12.654
62447W        W34762  34.753   9.584  12.973
62448W        W34763  29.045  32.472   3.633
62449W        W34764  19.292  40.826  13.863
62450W        W34765  13.316  10.335  11.624
62451W        W34766   3.490  19.126  12.405
62452W        W34767   8.612  32.645   0.862
62453W        W34768   3.232  29.256   4.066
62454W        W34769  10.461  32.470   0.335
62455W        W34770  35.415  29.888   0.347
62456W        W34771  43.893  43.075  13.133
62457W        W34772  36.376  44.366   3.911
62458W        W34773  27.106  14.111  11.017
62459W        W34774  25.618  38.880   4.485
62460W        W34775  11.724  22.549   0.318
62461W        W34776  44.373  36.519  10.225
62462W        W34777  41.820  26.293  10.443
62463W        W34778  41.147  22.233  14.710
62464W        W34779  30.410  25.127   0.539
62465W        W34780   4.272  10.190   0.864
62466W        W34781  14.814  39.768   0.374
62467W        W34782  30.353  34.508   4.204
62468W        W34783  15.667   0.196  12.908
62469W        W34784  31.574  14.737  12.147
62470W        W34785   7.597   4.293   4.187
62471W        W34786  25.636   8.769   3.639
62472W        W34787   9.399  41.441   2.660
62473W        W34788  25.400   7.064  10.058
62474W        W34789  26.983  19.551   1.236
62475W        W34790  37.875  20.868   1.821
62476W        W34791  22.952  14.823  13.505
62477W        W34792  32.853  33.701  14.272
62478W        W34793  36.368   2.421  11.117
62479W        W34794  32.098  11.394  11.989
62480W        W34795  33.692  13.849   5.070
62481W        W34796  44.932   7.862  10.987
62482W        W34797  40.552   4.232   3.742
62483W        W34798  24.982   5.209   0.872
62484W        W34799  21.568  13.520   0.081
62485W        W34800  38.871  40.546  13.938
62486W        W34801   3.215  35.586   4.156
62487W        W34802  25.143  23.498  14.877
62488W        W34803  30.521   7.634  10.737
62489W        W34804  27.701  29.578   4.665
62490W        W34805  41.263  18.151   1.695
62491W        W34806  22.563  11.403   0.202
62492W        W34807  26.847  10.445  12.123
62493W        W34808  44.584  10.008  12.506
62494W        W34809  24.557  36.580   2.068
62495W        W34810  37.975  42.325   2.342
62496W        W34811  44.478   6.709  11.669
62497W        W34812   9.579  18.848  12.585
62498W        W34813  17.748  22.274  12.016
62499W        W34814  19.318   2.189   3.965
62500W        W34815  16.564  33.427  11.885
62501W        W34816  41.428  41.409   4.601
62502W        W34817  34.552  35.171   3.233
62503W        W34818  31.642  41.939   0.372
62504W        W34819  28.163  36.381  13.453
62505W        W34820  32.182  39.245  14.767
62506W        W34821  33.304   6.491   2.713
62507W        W34822  40.006  24.472   0.936
62508W        W34823  23.036  27.896   1.955
62509W        W34824  27.721  18.807  13.533
62510W        W34825  41.323   1.226  14.993
62511W        W34826  28.939   1.762   3.324
62512W        W34827  12.122  44.117  11.244
62513W        W34828   4.672   8.829   2.854
62514W        W34829  18.847  21.535  11.159
62515W        W34830   7.117  37.089  13.110
62516W        W34831  38.288  12.621   3.345
62517W        W34832  39.393   9.362   3.642
62518W        W34833   4.931  12.910  10.772
62519W        W34834  17.545  26.524   1.871
62520W        W34835   1.784  14.567  14.738
62521W        W34836  33.566   0.171   1.178
62522W        W34837  24.209   6.415  12.660
62523W        W34838  17.269  24.558  11.931
62524W        W34839   2.312  26.116   2.659
62525W        W34840  43.839  31.877   1.717
62526W        W34841  44.767  10.184   5.172
62527W        W34842  35.791   7.263  12.922
62528W        W34843   9.658  28.622   3.410
62529W        W34844  40.889   5.083  12.201
62530W        W34845   5.212   8.895  12.324
62531W        W34846  31.854  11.839  11.987
62532W        W34847  35.311  22.782   0.054
62533W        W34848  29.622  15.243  11.996
62534W        W34849  16.355  43.073  13.063
62535W        W34850  17.247  21.162   3.722
62536W        W34851  16.056   7.213  13.565
62537W        W34852  31.677  25.508   4.630
62538W        W34853  25.122   8.847   4.598
62539W        W34854  16.201  24.967   0.637
62540W        W34855  11.751  33.916  12.100
62541W        W34856  12.116  27.469  10.604
62542W        W34857  11.214  38.593  11.600
62543W        W34858  31.796  13.830  11.276
62544W        W34859  17.125   4.860   3.825
62545W        W34860  33.810  16.658   0.816
62546W        W34861   3.211  29.663   1.255
62547W        W34862  14.763  31.438   1.696
62548W        W34863  20.096  41.088   4.601
62549W        W34864  34.946   2.288  10.463
62550W        W34865   6.392  21.525  10.389
62551W        W34866  41.261  25.756  12.540
62552W        W34867   2.531  36.038   2.170
62553W        W34868  32.857   5.755  10.661
62554W        W34869  11.643  21.652  12.955
62555W        W34870  42.524  21.940   3.616
62556W        W34871   5.283   1.459   2.657
62557W        W34872  13.490   9.446  13.139
62558W        W34873  15.765  22.923   4.478
62559W        W34874   4.355  11.212  14.875
62560W        W34875  44.087   4.738   1.513
62561W        W34876   0.698  23.162   0.326
62562W        W34877  28.483  43.009  13.369
62563W        W34878  20.328   6.500  14.449
62564W        W34879  23.050  23.928  14.238
62565W        W34880  10.714  39.033   3.097
62566W        W34881  16.776   7.449  12.626
62567W        W34882  28.917   3.275   4.145
62568W        W34883  32.755  18.615  12.946
62569W        W34884  29.176  29.946   2.709
62570W        W34885  16.313   3.966   2.252
62571W        W34886  12.193  31.172   3.612
62572W        W34887  25.120  18.309   4.356
62573W        W34888  12.424  42.452  14.337
62574W        W34889  38.885  14.788  10.145
62575W        W34890  44.008   1.351  12.887
62576W        W34891   0.801  27.483  10.450
62577W        W34892   8.466  28.960   1.367
62578W        W34893   9.214  15.784   1.010
62579W        W34894  16.379  18.850  11.223
62580W        W34895  29.115  40.099   1.910
62581W        W34896  17.987  28.625  13.000
62582W        W34897  11.541  21.288  12.189
62583W        W34898  38.473  39.244  12.964
62584W        W34899  19.644  32.428   0.375
62585W        W34900  40.427  22.460   0.074
62586W        W34901  42.745  17.234   3.203
62587W        W34902   2.376  32.459  11.983
62588W        W34903  22.281  35.159   0.791
62589W        W34904  31.637  21.381  12.637
62590W        W34905  25.975  37.592  11.355
62591W        W34906  32.373  34.635  12.965
62592W        W34907  18.164  14.320   2.662
62593W        W34908  40.806  14.138  14.060
62594W        W34909  34.088  35.041   3.413
62595W        W34910   0.996  33.975  11.190
62596W        W34911   1.585  23.208  11.440
62597W        W34912  19.663  13.331   1.716
62598W        W34913  10.540  25.578  10.493
62599W        W34914  30.268  29.000   3.371
62600W        W34915  42.217  39.315  11.528
62601W        W34916  23.513  28.175  14.284
62602W        W34917   4.953  29.345   4.626
62603W        W34918  44.449  33.178   4.878
62604W        W34919  17.254  16.706   1.409
62605W        W34920  44.449   0.251   1.650
62606W        W34921  12.434  40.848   2.289
62607W        W34922  29.528  27.088  10.730
62608W        W34923  12.603  14.223  12.400
62609W        W34924  22.939  22.250  10.752
62610W        W34925  10.095  38.983   3.608
62611W        W34926  23.675  24.731   0.882
62612W        W34927  41.515  10.637   0.179
62613W        W34928   8.112  43.323   2.823
62614W        W34929  24.887  34.650   2.168
62615W        W34930   2.263   0.865   2.364
62616W        W34931  22.106   6.278  10.483
62617W        W34932  33.013  24.695  13.481
62618W        W34933  44.800  34.512  10.627
62619W        W34934   2.266  12.095   1.750
62620W        W34935  26.803  20.730  12.007
62621W        W34936  14.619   2.441  11.582
62622W        W34937  38.504  36.523  10.481
62623W        W34938  10.423  19.669   2.438
62624W        W34939  12.660   0.244  13.047
62625W        W34940  29.558   6.832   0.973
62626W        W34941  39.582  24.602   0.039
62627W        W34942   5.116  36.847  11.133
62628W        W34943  33.290   6.998   0.957
62629W        W34944  15.854  38.070   3.856
62630W        W34945  32.476  19.540   0.937
62631W        W34946  28.534  13.631  11.002
62632W        W34947  35.817  42.368   2.448
62633W        W34948  23.123  21.253  11.627
62634W        W34949  26.200  37.480  14.816
62635W        W34950  41.609  13.649   0.921
62636W        W34951  20.647  39.354   4.680
62637W        W34952  41.737  26.169  10.959
62638W        W34953  30.878  16.140   2.756
62639W        W34954  12.654  28.283   2.284
62640W        W34955   8.668  41.318  14.390
62641W        W34956   0.915  11.820  12.498
62642W        W34957   8.891  19.816  13.812
62643W        W34958  15.245   7.868  13.468
62644W        W34959  33.615  34.401   0.350
62645W        W34960  34.372  20.554   1.971
62646W        W34961  30.186   1.596   2.861
62647W        W34962   9.832  13.416  14.467
62648W        W34963   8.581  40.393   3.208
62649W        W34964  41.897  37.931  10.399
62650W        W34965  21.793  34.635   1.289
62651W        W34966   3.496  23.574  11.567
62652W        W34967  31.793   0.865  13.481
62653W        W34968  26.977  23.440   0.282
62654W        W34969  15.394   5.822  11.617
62655W        W34970   3.495  18.682   2.351
62656W        W34971  37.159  44.994   0.688
62657W        W34972  26.494  37.370   0.248
62658W        W34973  34.432  34.122   2.609
62659W        W34974  43.465  29.155  10.542
62660W        W34975  30.886  14.383  13.545
62661W        W34976   9.131  38.477   0.421
62662W        W34977  15.199   9.210   0.404
62663W        W34978  12.426   1.873  14.301
62664W        W34979  30.420  14.606  11.264
62665W        W34980  30.397  14.618   2.808
62666W        W34981  42.933  44.771  11.804
62667W        W34982  43.758   7.195  12.023
62668W        W34983  44.892  39.551   3.744
62669W        W34984   1.861  41.948   4.608
62670W        W34985  37.256  23.035  10.617
62671W        W34986  26.587   8.982   3.790
62672W        W34987  26.859  15.017  13.094
62673W        W34988   5.256  25.788   1.755
62674W        W34989  27.652   0.035   1.818
62675W        W34990  10.891   7.832   4.756
62676W        W34991  40.775  39.833   2.250
62677W        W34992  40.108  13.223   0.309
62678W        W34993   6.869   7.830   2.209
62679W        W34994   3.746  34.922  10.681
62680W        W34995  17.590  13.837  11.152
62681W        W34996  26.124  43.293  14.944
62682W        W34997  18.971   0.964   1.876
62683W        W34998  19.097   3.947  12.926
62684W        W34999   2.192  35.985   0.425
62685W        W35000  11.211  29.797  14.339
62686W        W35001  25.195  12.949   4.090
62687W        W35002  42.699  36.586   2.737
62688W        W35003  39.928  19.784   3.841
62689W        W35004  43.865   3.686  12.197
62690W        W35005   7.312  40.850   0.420
62691W        W35006   5.790  40.237   3.285
62692W        W35007   8.749  35.547  12.646
62693W        W35008   2.440  42.819  14.041
62694W        W35009  14.613  12.188  10.497
62695W        W35010   2.848   9.094   1.812
62696W        W35011   8.688   3.346   2.200
62697W        W35012  24.992   2.396  14.663
62698W        W35013  21.280   8.489   1.753
62699W        W35014  32.922   1.104   2.823
62700W        W35015  21.777  26.396   4.803
62701W        W35016  24.282  22.542   4.116
62702W        W35017  44.942   4.914  10.653
62703W        W35018  24.740  27.491   4.325
62704W        W35019  17.007  10.171   9.834
62705W        W35020   1.659  36.688  14.303
62706W        W35021  42.439  22.976  14.546
62707W        W35022   2.457  13.736   3.618
62708W        W35023  23.062  18.925  11.017
62709W        W35024  38.786  20.747  12.941
62710W        W35025  11.187  39.280  11.040
62711W        W35026   0.027  12.289  10.702
62712W        W35027  36.061  17.080  13.899
62713W        W35028  32.991  24.609  14.507
62714W        W35029  14.652  13.564  10.833
62715W        W35030  15.347   0.731   0.330
62716W        W35031  16.112   3.220   4.569
62717W        W35032  28.718   9.552   0.332
62718W        W35033   0.783  13.912  12.239
62719W        W35034  41.053  19.349   0.021
62720W        W35035  41.213  21.118   3.674
62721W        W35036  23.930   3.791  13.088
62722W        W35037   7.685  28.187   2.698
62723W        W35038   1.980  22.503   4.948
62724W        W35039   5.411   5.758  10.642
62725W        W35040  14.121  44.722  11.160
62726W        W35041  34.971  30.184   2.959
62727W        W35042  21.782  13.335  14.209
62728W        W35043  39.160  24.523  12.618
62729W        W35044  39.274  35.860   4.304
62730W        W35045  10.435  18.481   4.244
62731W        W35046  16.620   6.673  10.382
62732W        W35047  20.074  27.114   1.336
62733W        W35048  42.642   1.305   2.631
62734W        W35049   8.747  34.710   4.616
62735W        W35050   7.679   4.341  11.609
62736W        W35051  34.047  38.947  13.969
62737W        W35052  33.856  24.907   1.782
62738W        W35053  14.109  36.496  12.069
62739W        W35054  26.508  38.051  12.139
62740W        W35055  22.794  43.997  12.491
62741W        W35056  37.555  24.677   0.593
62742W        W35057   0.772  36.171   2.627
62743W        W35058  11.651  43.502   4.444
62744W        W35059  40.547   5.186   2.386
62745W        W35060  22.091  27.399  13.001
62746W        W35061   0.223  13.795   1.535
62747W        W35062   5.963  24.137  11.452
62748W        W35063  21.480   9.950  11.993
62749W        W35064  43.008  31.942   1.843
62750W        W35065  14.741   3.548  12.619
62751W        W35066  44.720  39.166  13.180
62752W        W35067  11.145  39.518  13.248
62753W        W35068   2.275  19.841   0.229
62754W        W35069  34.040  26.469   1.784
62755W        W35070  18.159  35.657   1.989
62756W        W35071  13.950  14.697  10.726
62757W        W35072  22.011  15.646   4.662
62758W        W35073   0.543  26.950   2.091
62759W        W35074  26.199  41.919  10.736
62760W        W35075  28.994  26.988   1.758
62761W        W35076  15.406  42.229  10.346
62762W        W35077  35.401  17.451  10.997
62763W        W35078  39.503   1.489   0.192
62764W        W35079  31.028  15.066   3.327
62765W        W35080  32.210  40.989  12.010
62766W        W35081  10.418  29.380  14.017
62767W        W35082  21.449  33.571  11.562
62768W        W35083  21.671  31.551  11.624
62769W        W35084  28.872  18.843  14.404
62770W        W35085   3.764  11.974   1.735
62771W        W35086  10.405   1.282   0.799
62772W        W35087  39.243  13.505  12.338
62773W        W35088  27.391  43.305   3.700
62774W        W35089  32.586  22.993   4.822
62775W        W35090   2.736   3.779   4.622
62776W        W35091  38.809  32.206  14.543
62777W        W35092  24.953  28.000  14.364
62778W        W35093  24.895  34.063  10.515
62779W        W35094   4.242  28.485  11.689
62780W        W35095  41.300  14.200  14.051
62781W        W35096   0.288  14.784  12.213
62782W        W35097  28.744  11.141   4.516
62783W        W35098  27.906  30.031   1.076
62784W        W35099   8.229   2.796   0.906
62785W        W35100  30.137  42.132  11.893
62786W        W35101  22.005  44.882  14.036
62787W        W35102   1.998  33.789  12.646
62788W        W35103  16.153   3.754  10.722
62789W        W35104  30.422  42.004  11.139
62790W        W35105   0.594  37.146   3.823
62791W        W35106  43.927  12.904   4.199
62792W        W35107  22.603  41.818   4.104
62793W        W35108  26.428   2.784  10.899
62794W        W35109   9.850  15.196  14.935
62795W        W35110  17.767  17.863  10.720
62796W        W35111   7.875  29.460   0.720
62797W        W35112  11.585  28.146  12.856
62798W        W35113  11.337   3.109  12.912
62799W        W35114   2.789   4.856  10.724
62800W        W35115  31.694  25.902   1.022
62801W        W35116  44.417   0.698  10.481
62802W        W35117  19.210  23.607   2.278
62803W        W35118  22.199   2.351   2.281
62804W        W35119  16.068  41.284  11.056
62805W        W35120   1.215  27.879  11.172
62806W        W35121  29.825   7.512   2.447
62807W        W35122  27.626  32.621   3.718
62808W        W35123  16.213  39.084  13.907
62809W        W35124  35.020  41.199  13.543
62810W        W35125  35.916  33.745  14.364
62811W        W35126  37.081   8.593  14.062
62812W        W35127  37.117  31.420  11.444
62813W        W35128  21.067  22.852   4.852
62814W        W35129  10.873  14.766  10.728
62815W        W35130  40.086  42.434  10.735
62816W        W35131  11.239  20.340   1.910
62817W        W35132  44.005   9.137  13.962
62818W        W35133   0.283  24.587   4.162
62819W        W35134  29.181  37.680   1.884
62820W        W35135  26.973  27.879  11.959
62821W        W35136  29.420  33.343   9.810
62822W        W35137   7.300  24.249  12.103
62823W        W35138  21.271  29.394   3.304
62824W        W35139  29.421  12.110   4.357
62825W        W35140  13.859  27.060   2.452
62826W        W35141  20.479   4.233   4.880
62827W        W35142   2.808  32.618  12.509
62828W        W35143  41.825  38.822   4.554
62829W        W35144   0.941   0.439   0.334
62830W        W35145  13.260  33.073   2.979
62831W        W35146  18.309  11.245   2.599
62832W        W35147   1.345  11.918   3.603
62833W        W35148  18.097  18.087   0.745
62834W        W35149   7.954  22.044   4.351
62835W        W35150  42.639  10.248   0.258
62836W        W35151   9.851  43.313   1.736
62837W        W35152  21.596  15.156   2.285
62838W        W35153  27.264  11.819   1.302
62839W        W35154  43.144  28.492  14.013
62840W        W35155  15.819  32.220  13.698
62841W        W35156  41.124   3.884   2.830
62842W        W35157  12.553  34.890  12.600
62843W        W35158  15.829  12.256   1.394
62844W        W35159  35.980  11.586   1.813
62845W        W35160  21.483  37.251   2.752
62846W        W35161  38.461  24.854   2.898
62847W        W35162   5.330  15.585   0.554
62848W        W35163  41.941   3.610   4.231
62849W        W35164   9.164   3.503  10.886
62850W        W35165  36.417  28.166   0.441
62851W        W35166  22.062  20.135  10.565
62852W        W35167  28.553  11.117   1.784
62853W        W35168   9.120  40.781  13.946
62854W        W35169  22.454  43.998   2.769
62855W        W35170  21.502  19.072   2.446
62856W        W35171  43.683  10.749   0.492
62857W        W35172  28.076  39.484   2.649
62858W        W35173  32.769  17.806   1.850
62859W        W35174  16.325  38.655  12.959
62860W        W35175   9.025   4.281   2.049
62861W        W35176  27.075  25.470  11.001
62862W        W35177  40.987   6.609  10.806
62863W        W35178  23.086  20.447   2.276
62864W        W35179   8.330  39.312   3.697
62865W        W35180  40.560  41.061   2.802
62866W        W35181  34.824  25.517   2.295
62867W        W35182  28.665   5.749  11.871
62868W        W35183  34.498  12.708   4.401
62869W        W35184   1.142   0.485   4.867
62870W        W35185  26.820  31.037   4.432
62871W        W35186  24.075  28.625   4.310
62872W        W35187  19.384  32.553  10.719
62873W        W35188   5.306  26.107   4.957
62874W        W35189  38.381  36.420  12.602
62875W        W35190  25.382  28.130  10.704
62876W        W35191   3.864  18.299   2.769
62877W        W35192  10.828   4.624  11.630
62878W        W35193   7.673  29.259   9.832
62879W        W35194  37.628  22.746   4.121
62880W        W35195  11.573  41.436   0.947
62881W        W35196  41.865  41.721  13.054
62882W        W35197  28.680  32.365  14.515
62883W        W35198  24.695  22.491   2.361
62884W        W35199  14.702   1.985   1.432
62885W        W35200  31.658  42.695   4.418
62886W        W35201  37.585  42.936  12.800
62887W        W35202   1.948  29.907   4.224
62888W        W35203  44.347  36.557  14.998
62889W        W35204  31.435   3.568   3.327
62890W        W35205   9.424  26.031   0.811
62891W        W35206  27.914   6.543  12.974
62892W        W35207  12.288  31.324   4.891
62893W        W35208  40.415   1.860  13.212
62894W        W35209  44.641   7.183  11.510
62895W        W35210  14.347  27.468  11.627
62896W        W35211  12.185  16.124  13.506
62897W        W35212  19.110  30.204  10.286
62898W        W35213   7.420  17.097   0.419
62899W        W35214   5.681  29.176  12.503
62900W        W35215  39.073  26.708   4.981
62901W        W35216  24.718  16.843  13.868
62902W        W35217  35.267   8.576  12.465
62903W        W35218  21.728  28.966  14.821
62904W        W35219  34.622   0.398  12.457
62905W        W35220  33.407  11.897  13.369
62906W        W35221  31.922  20.630   3.557
62907W        W35222  30.529  34.556  13.429
62908W        W35223  12.839  38.555  12.413
62909W        W35224   9.095  10.297  14.889
62910W        W35225  24.209  42.001   0.743
62911W        W35226  13.124  40.247   0.508
62912W        W35227  29.923   1.902  11.476
62913W        W35228   1.994  28.634  13.766
62914W        W35229  22.598   2.544  11.769
62915W        W35230  19.101   3.419  13.100
62916W        W35231  34.600  43.556  12.721
62917W        W35232  20.583  12.290   2.748
62918W        W35233  27.872  27.071  12.942
62919W        W35234  37.494  34.286   4.074
62920W        W35235   6.685  29.260   2.656
62921W        W35236   1.435   5.808   0.669
62922W        W35237  13.626  17.786  12.850
62923W        W35238  32.598  16.226  12.770
62924W        W35239  34.362   1.978   3.705
62925W        W35240   2.482  37.181   1.799
62926W        W35241  30.609  37.314  13.646
62927W        W35242   3.517  25.474   2.691
62928W        W35243  44.259   0.732  10.970
62929W        W35244  17.130  15.880   1.304
62930W        W35245   0.049  14.199   2.817
62931W        W35246  28.041  13.864  13.497
62932W        W35247  42.956  31.777   1.360
62933W        W35248  21.524  25.506   2.342
62934W        W35249  12.123   1.060   3.114
62935W        W35250  18.565  22.055  10.653
62936W        W35251   8.785  14.711   4.588
62937W        W35252  34.767   8.642   3.385
62938W        W35253  10.817   7.152  12.432
62939W        W35254  36.312   0.247  11.570
62940W        W35255  40.854  38.887   1.357
62941W        W35256   9.325   3.245  12.346
62942W        W35257  24.664  20.011  13.545
62943W        W35258  23.425  33.383  13.370
62944W        W35259  28.684   2.802  13.829
62945W        W35260  44.724  41.898   0.350
62946W        W35261  21.191  35.994   2.942
62947W        W35262  14.558  11.548   3.362
62948W        W35263  31.841  15.049   3.385
62949W        W35264  32.414  26.443  11.118
62950W        W35265  30.137  19.813   0.250
62951W        W35266   9.843  29.208  11.516
62952W        W35267  40.500  25.854   3.298
62953W        W35268   8.924  23.974  14.496
62954W        W35269   7.917  12.837  13.907
62955W        W35270  43.741  42.453  10.654
62956W        W35271  27.058   9.928   3.220
62957W        W35272   4.299  15.381  12.301
62958W        W35273  27.247  43.264   3.197
62959W        W35274  27.438   3.979   1.311
62960W        W35275  14.340  18.136  13.882
62961W        W35276   4.519   4.271  12.981
62962W        W35277   6.451  23.978   3.652
62963W        W35278   1.774  35.850  12.096
62964W        W35279  36.651  34.396   1.393
62965W        W35280  29.066   4.252  10.976
62966W        W35281  37.627  26.777   3.166
62967W        W35282  23.260   2.215  14.423
62968W        W35283  40.238  39.682  10.778
62969W        W35284  19.504  16.345  12.978
62970W        W35285  27.644  25.537  12.572
62971W        W35286  32.942  38.968  10.004
62972W        W35287   4.838  12.640  13.882
62973W        W35288  13.685  19.198   0.453
62974W        W35289   5.634  10.264  12.042
62975W        W35290   7.185  41.065   0.880
62976W        W35291  17.234  11.238  10.931
62977W        W35292  37.775  23.178   4.676
62978W        W35293  18.266  20.444  10.732
62979W        W35294  23.757  21.992  14.824
62980W        W35295  39.146   8.794  14.964
62981W        W35296  15.559  31.861  13.984
62982W        W35297  30.978  21.763  13.946
62983W        W35298   7.706   4.909   2.192
62984W        W35299   6.547  40.913  10.685
62985W        W35300  28.120   3.024  11.206
62986W        W35301   2.320  25.828  14.555
62987W        W35302  39.333   5.907  14.537
62988W        W35303   2.974  20.163  11.036
62989W        W35304   7.369  36.999   4.660
62990W        W35305  22.833  36.327  14.816
62991W        W35306  27.555  22.501  10.778
62992W        W35307  41.401  12.969  14.439
62993W        W35308   4.281   3.447   3.619
62994W        W35309   4.254   4.726  10.726
62995W        W35310  15.457  41.024   4.911
62996W        W35311  43.392  31.703  11.622
62997W        W35312  39.184  39.937  13.564
62998W        W35313  26.493   2.300  11.037
62999W        W35314  18.024  30.885  14.182
63000W        W35315   3.410  21.086  12.910
63001W        W35316  44.230   2.948   2.855
63002W        W35317  44.160  37.516  10.253
63003W        W35318   5.486  32.613  13.488
63004W        W35319  43.740  10.592   1.727
63005W        W35320  41.257  23.643  14.049
63006W        W35321  30.620  37.345   1.037
63007W        W35322   7.787   5.374  12.677
63008W        W35323  31.047  39.588  12.904
63009W        W35324  38.623  23.608   5.384
63010W        W35325  18.535  18.627  13.315
63011W        W35326  27.576  17.841   0.247
63012W        W35327  12.672   6.118   0.876
63013W        W35328  21.597  28.491   0.057
63014W        W35329  16.920  15.284   0.011
63015W        W35330   3.197   0.770   4.259
63016W        W35331   9.087   4.776  11.650
63017W        W35332  16.080   3.767  14.259
63018W        W35333   1.416   5.123   4.614
63019W        W35334  35.565   5.950  10.989
63020W        W35335  28.609  41.719  12.608
63021W        W35336  20.033  16.952  12.440
63022W        W35337  43.085  40.149   1.434
63023W        W35338  15.807  19.399   3.953
63024W        W35339  41.563   2.306   4.285
63025W        W35340   9.987  27.092   0.849
63026W        W35341   0.333  43.769   1.263
63027W        W35342  14.271  40.334  12.809
63028W        W35343  23.054   5.250   1.858
63029W        W35344   9.690  20.645  12.880
63030W        W35345  29.425  27.334  11.790
63031W        W35346  41.565  38.418   1.481
63032W        W35347  36.173  41.600  12.212
63033W        W35348  36.124  17.209   3.605
63034W        W35349  28.934  12.803  14.847
63035W        W35350  21.601  20.676   4.801
63036W        W35351  41.415  26.466  11.257
63037W        W35352  30.496   3.270   4.777
63038W        W35353  13.864  44.212   3.641
63039W        W35354   9.688   4.973   2.835
63040W        W35355  29.745  35.009  14.392
63041W        W35356  18.285  16.504   2.257
63042W        W35357   1.999  13.078  14.430
63043W        W35358  34.183  17.301  12.776
63044W        W35359   4.877  37.798  12.563
63045W        W35360  42.651  31.847  12.048
63046W        W35361  18.992  30.038   1.437
63047W        W35362  39.069  13.631   1.713
63048W        W35363   8.357  33.489   3.582
63049W        W35364  39.426   1.317   3.860
63050W        W35365   4.912  26.042   0.855
63051W        W35366  11.171  30.724   2.412
63052W        W35367  33.589  33.449   5.081
63053W        W35368  14.791  36.039   0.778
63054W        W35369  28.992  27.062  10.680
63055W        W35370  44.188  27.123  10.522
63056W        W35371  10.652  10.745   4.505
63057W        W35372  25.945  42.306   0.839
63058W        W35373   2.133  29.950  11.621
63059W        W35374  12.192   3.251  10.604
63060W        W35375  15.841  27.875  11.561
63061W        W35376  38.634  37.603   4.106
63062W        W35377  16.635  40.813   0.754
63063W        W35378  14.238  27.502   2.593
63064W        W35379  26.432  42.565  10.876
63065W        W35380  31.163   3.354   2.929
63066W        W35381  10.228  26.610  13.088
63067W        W35382  41.462  41.551  11.068
63068W        W35383  34.838   5.289  14.774
63069W        W35384  43.581  26.747  11.967
63070W        W35385  11.114   6.358   1.599
63071W        W35386  29.692  37.587   2.467
63072W        W35387  28.102  41.757   1.900
63073W        W35388  23.763   7.716  13.452
63074W        W35389  32.245  34.400  10.675
63075W        W35390   3.242  11.894   3.287
63076W        W35391   1.551  19.240  13.903
63077W        W35392  39.404  11.870   1.345
63078W        W35393  23.563   9.287  10.725
63079W        W35394  29.242  29.334   3.581
63080W        W35395   9.721  25.089   2.947
63081W        W35396   1.366   8.051   1.735
63082W        W35397  14.843  32.170  13.424
63083W        W35398  18.668  23.145   4.819
63084W        W35399  29.156  19.337  10.456
63085W        W35400  11.415  13.620  14.013
63086W        W35401  20.619  29.994   0.425
63087W        W35402  16.199   9.237   0.955
63088W        W35403  15.094   4.291   0.003
63089W        W35404  15.141  33.466  10.490
63090W        W35405   7.691  21.792  10.711
63091W        W35406  30.548  30.488   0.720
63092W        W35407  23.972  12.569   2.303
63093W        W35408  21.715  39.862   0.262
63094W        W35409  10.191  21.098  11.914
63095W        W35410   3.235  18.848  11.090
63096W        W35411   6.123  31.443  14.314
63097W        W35412  28.889   9.692  10.978
63098W        W35413  17.252  21.550   2.163
63099W        W35414   9.848  40.953  13.473
63100W        W35415  13.662  41.219  10.960
63101W        W35416  42.772  28.578  12.673
63102W        W35417  33.660  10.285  10.727
63103W        W35418  23.251  41.099  11.080
63104W        W35419  17.687   2.554  12.447
63105W        W35420  10.797  36.419  11.768
63106W        W35421   4.254  26.592   2.183
63107W        W35422   4.606  38.162  11.683
63108W        W35423  43.391  27.637  10.865
63109W        W35424  12.363  14.187   2.604
63110W        W35425   2.443  21.564  11.510
63111W        W35426  40.695  43.899  12.462
63112W        W35427   5.574  37.107  11.087
63113W        W35428   1.389  19.028   1.337
63114W        W35429  43.468  21.751  10.983
63115W        W35430  44.408  25.943  10.573
63116W        W35431  30.995  30.630   0.454
63117W        W35432  19.666   9.756  11.589
63118W        W35433  39.970  44.178  13.536
63119W        W35434  31.955  44.590  14.449
63120W        W35435  25.034  36.338  14.325
63121W        W35436   0.226  40.396  11.659
63122W        W35437  38.300  29.024   2.304
63123W        W35438  16.101  19.292  11.118
63124W        W35439  24.188   9.320   2.706
63125W        W35440  16.878  10.211   1.767
63126W        W35441  15.364  10.128   0.474
63127W        W35442  18.959  30.210  13.441
63128W        W35443  28.946  21.475  11.669
63129W        W35444  20.750  44.831   4.608
63130W        W35445  23.258  25.689   4.691
63131W        W35446  30.714  23.447   0.919
63132W        W35447  22.906  29.376   2.167
63133W        W35448  37.119  38.404   0.859
63134W        W35449   8.670  10.343   4.617
63135W        W35450  36.009  22.351   2.087
63136W        W35451  35.366  25.714   4.722
63137W        W35452  23.608  32.474  14.430
63138W        W35453  32.642  26.556  13.277
63139W        W35454   5.803  30.508   1.838
63140W        W35455  37.937  24.923  10.288
63141W        W35456  41.471  42.775   5.066
63142W        W35457  33.342   9.644   0.469
63143W        W35458   8.413   7.460  12.384
63144W        W35459  33.362  10.262   5.014
63145W        W35460  31.596   2.234   1.980
63146W        W35461  11.842  44.881   1.335
63147W        W35462   5.732  35.079  13.500
63148W        W35463  30.104   1.814   0.940
63149W        W35464   0.512  35.128  13.138
63150W        W35465  13.378  11.912  13.550
63151W        W35466  31.925   8.783   4.050
63152W        W35467  28.540  30.515   2.930
63153W        W35468  16.269  34.101   3.760
63154W        W35469   9.271  35.652  12.494
63155W        W35470  34.527   0.948   0.294
63156W        W35471  37.473   5.356  11.915
63157W        W35472  10.641   0.377   0.477
63158W        W35473  37.928  41.883  12.618
63159W        W35474   8.178  44.224  11.330
63160W        W35475  18.323  42.750  12.405
63161W        W35476  41.367  12.717   4.076
63162W        W35477   0.763   1.033  13.993
63163W        W35478   7.665  25.493   0.131
63164W        W35479  26.389  25.191  11.156
63165W        W35480  31.377  37.768   4.316
63166W        W35481  26.853  26.443  13.557
63167W        W35482   6.785  14.593   4.226
63168W        W35483  44.264  28.957  11.974
63169W        W35484   3.416  15.537   4.695
63170W        W35485  32.705  42.374  14.834
63171W        W35486  18.213   4.386   3.551
63172W        W35487  23.295   3.387   1.271
63173W        W35488  31.672  10.744   0.733
63174W        W35489  24.169  21.038  10.250
63175W        W35490   1.304  42.384  14.824
63176W        W35491  20.990  23.314  14.488
63177W        W35492  17.130  33.981  14.585
63178W        W35493  23.590   7.241  14.391
63179W        W35494  42.160   2.485  13.503
63180W        W35495  37.002   6.183  10.909
63181W        W35496   3.319  32.141  14.893
63182W        W35497  18.772  12.842   5.157
63183W        W35498  11.218  44.719   0.512
63184W        W35499  37.186   7.332   3.617
63185W        W35500   1.466  25.684   0.799
63186W        W35501  32.115  15.568  12.470
63187W        W35502  19.801  24.107   0.405
63188W        W35503  12.740   5.982   2.211
63189W        W35504  19.540  24.063   2.409
63190W        W35505  13.188  27.730  13.354
63191W        W35506  23.517  18.690   3.299
63192W        W35507  39.563  19.987  12.472
63193W        W35508  12.223   7.939   2.785
63194W        W35509  28.304  24.655   1.352
63195W        W35510  31.040  13.623  14.409
63196W        W35511  26.701  26.439   2.698
63197W        W35512   5.809  36.347  11.609
63198W        W35513  20.000   5.821  11.450
63199W        W35514   1.380  40.068   0.659
63200W        W35515  19.622  44.229   2.907
63201W        W35516   1.532  37.221  14.391
63202W        W35517  27.069  36.125  10.632
63203W        W35518  36.432  17.946   1.763
63204W        W35519  41.711  18.250  14.344
63205W        W35520  40.599   6.587  12.951
63206W        W35521  15.271   7.260  14.423
63207W        W35522  38.846  15.389  11.424
63208W        W35523  23.922  41.412  12.600
63209W        W35524  19.096  44.392  13.184
63210W        W35525  10.565  32.539   3.325
63211W        W35526  12.624  16.070  12.589
63212W        W35527  26.844  23.295   4.210
63213W        W35528  10.880  29.085   3.173
63214W        W35529  42.775  43.529   4.275
63215W        W35530   6.365   5.204  11.053
63216W        W35531  23.687  44.913   4.344
63217W        W35532   7.708  42.951   2.863
63218W        W35533  38.710  38.549   4.548
63219W        W35534  42.419   1.890   1.207
63220W        W35535  28.085  37.345   2.633
63221W        W35536   6.769   6.674  14.011
63222W        W35537  43.212  12.425   1.481
63223W        W35538  41.426  18.786  10.642
63224W        W35539  18.821  24.723  13.415
63225W        W35540  19.088   9.444  12.481
63226W        W35541   6.718  36.477   4.352
63227W        W35542  43.602  19.101  11.636
63228W        W35543  22.312  44.195  12.111
63229W        W35544  22.587  28.701   2.830
63230W        W35545  20.536  26.251  11.089
63231W        W35546   6.605   9.682   9.930
63232W        W35547  22.666  10.162   0.803
63233W        W35548  19.082  34.841  10.748
63234W        W35549  29.414   3.930   2.801
63235W        W35550  44.522  44.273   5.025
63236W        W35551  23.518  31.343   0.874
63237W        W35552  13.090  23.583   0.885
63238W        W35553  39.598   2.556  10.713
63239W        W35554  33.938  18.384   1.389
63240W        W35555   3.905  28.969  14.779
63241W        W35556   1.844  25.733  12.041
63242W        W35557  30.118  17.609   1.240
63243W        W35558  32.941   0.208  12.147
63244W        W35559  28.484  32.903  12.010
63245W        W35560  39.213  25.439  14.591
63246W        W35561   2.997  24.046   1.872
63247W        W35562  39.746  19.020   3.669
63248W        W35563  27.968  43.117  10.312
63249W        W35564   8.165   0.253   0.830
63250W        W35565  15.394   2.470  12.941
63251W        W35566  31.979   3.685  11.060
63252W        W35567  13.064  15.130  12.342
63253W        W35568  30.352  16.094   3.661
63254W        W35569  11.385   1.249  11.144
63255W        W35570  12.219  14.667   0.290
63256W        W35571  40.125  14.264   4.295
63257W        W35572  36.844  20.847   3.233
63258W        W35573  10.096  11.994   2.854
63259W        W35574  17.767   4.888   0.483
63260W        W35575  27.920   5.275  12.868
63261W        W35576  15.092  23.607   4.256
63262W        W35577  19.102  20.938  13.347
63263W        W35578  41.389  33.758  11.582
63264W        W35579  43.878  11.423   2.348
63265W        W35580   7.075   5.125  13.449
63266W        W35581  31.585   2.468   2.900
63267W        W35582   2.672  44.532   5.003
63268W        W35583  38.947  43.878   1.915
63269W        W35584   6.880  28.153  12.129
63270W        W35585   3.378  43.046   0.465
63271W        W35586  33.851  28.013  12.086
63272W        W35587  23.386  19.509   5.484
63273W        W35588   8.565  36.580  11.569
63274W        W35589  13.064   5.417   4.513
63275W        W35590   1.482  11.173  13.100
63276W        W35591  29.090   2.357  14.384
63277W        W35592   5.172   2.855   1.419
63278W        W35593   4.230  23.786  13.858
63279W        W35594  14.145  21.962   2.860
63280W        W35595  41.918  44.483   2.156
63281W        W35596  26.622  14.803  11.979
63282W        W35597   0.938  29.338  12.824
63283W        W35598  13.345   5.010   5.051
63284W        W35599  21.260  10.280  11.682
63285W        W35600  18.363  13.313  13.298
63286W        W35601  22.748  16.633  12.826
63287W        W35602  33.064  18.256  14.743
63288W        W35603  32.072   3.679   1.273
63289W        W35604  17.302  43.226  13.198
63290W        W35605   5.046  14.738   5.216
63291W        W35606   1.448  20.314   2.338
63292W        W35607  39.921  43.771   0.181
63293W        W35608  15.543  34.597  14.270
63294W        W35609  44.859  36.488   3.699
63295W        W35610   1.490  18.505  10.960
63296W        W35611  22.931  25.627  12.156
63297W        W35612  15.540  43.028  13.459
63298W        W35613  16.266   7.402  14.886
63299W        W35614  39.822  32.493  10.704
63300W        W35615  41.779  10.117   1.942
63301W        W35616  18.944  24.873  10.399
63302W        W35617   3.008  31.879   1.352
63303W        W35618   2.809  39.827   0.920
63304W        W35619   6.442  15.047  13.336
63305W        W35620   9.864  34.463  13.099
63306W        W35621  18.272  31.934  11.915
63307W        W35622   9.183  38.843   1.303
63308W        W35623  25.159   3.271  12.007
63309W        W35624  44.471   1.280  11.961
63310W        W35625  24.405   3.320  13.966
63311W        W35626  33.015  42.099  11.902
63312W        W35627  29.719  14.742  12.126
63313W        W35628  22.116  37.944   0.803
63314W        W35629  14.719  12.136  13.509
63315W        W35630  35.803  28.044   1.927
63316W        W35631  11.862  37.725  11.258
63317W        W35632  37.847   0.293   1.799
63318W        W35633  19.354   2.639   3.163
63319W        W35634  34.566  22.290   1.034
63320W        W35635  33.291   3.983  11.140
63321W        W35636   6.265  43.272  14.406
63322W        W35637  16.275  23.552   1.289
63323W        W35638  35.907  31.855  13.047
63324W        W35639  16.690  10.343  14.259
63325W        W35640  37.454  28.480   1.916
63326W        W35641  43.901  38.608  12.004
63327W        W35642   0.380  39.915  14.231
63328W        W35643   0.950  43.407  10.615
63329W        W35644  33.554  23.600  14.884
63330W        W35645  28.132   6.313  11.028
63331W        W35646  24.152   9.540   2.237
63332W        W35647  38.866  19.526   4.163
63333W        W35648  42.844  19.101  13.246
63334W        W35649  34.628  36.607  11.122
63335W        W35650  35.765  31.101  13.445
63336W        W35651  18.786   7.868   1.938
63337W        W35652  22.481  42.944   2.161
63338W        W35653  43.965   9.044   4.171
63339W        W35654  22.170  14.311  11.441
63340W        W35655  22.741  30.883  11.528
63341W        W35656  13.247   3.543   4.595
63342W        W35657  29.087   7.509  13.250
63343W        W35658  12.878   4.898  13.476
63344W        W35659  18.094  43.328   1.823
63345W        W35660  42.324  37.203  10.055
63346W        W35661   3.316  33.385   1.828
63347W        W35662  41.013  35.913  10.489
63348W        W35663   9.332  27.497   2.928
63349W        W35664   0.607  40.862   2.865
63350W        W35665  30.579  42.579  13.863
63351W        W35666  19.857  44.684  12.908
63352W        W35667   6.848  10.185  12.623
63353W        W35668   5.780  20.799  10.811
63354W        W35669  33.909   9.950  14.803
63355W        W35670  26.459  17.779   1.713
63356W        W35671  31.389   9.825  12.361
63357W        W35672  27.691  34.527   3.641
63358W        W35673  33.967  39.896  14.671
63359W        W35674   6.358  12.182   0.524
63360W        W35675  22.634  32.172   5.109
63361W        W35676  43.900  19.678   0.385
63362W        W35677  38.031  28.931   3.552
63363W        W35678  23.242  24.441   0.935
63364W        W35679  25.605   3.645   4.615
63365W        W35680  44.977  18.732   2.252
63366W        W35681  14.281  43.724  10.926
63367W        W35682   4.115  12.816  10.533
63368W        W35683  20.547  26.582   4.031
63369W        W35684  30.444  10.678   4.674
63370W        W35685  10.271   2.667   2.583
63371W        W35686  24.173  26.089  11.939
63372W        W35687  12.412  14.622  14.409
63373W        W35688  15.700   3.985  13.975
63374W        W35689  10.093  23.533  13.170
63375W        W35690  25.556  25.457   1.733
63376W        W35691  19.719   6.303   2.346
63377W        W35692  44.217   2.741   3.600
63378W        W35693  36.566  39.495   2.562
63379W        W35694  35.045  15.920   0.901
63380W        W35695  26.057  19.475   4.470
63381W        W35696  29.433  13.851   3.364
63382W        W35697  18.813  32.871   0.913
63383W        W35698  44.808   7.770   0.226
63384W        W35699  18.877  15.266  14.850
63385W        W35700  18.037  30.812  12.432
63386W        W35701  32.071  34.955   1.891
63387W        W35702  12.767  42.320   1.376
63388W        W35703  38.408  15.253   1.274
63389W        W35704   3.250  22.652  12.847
63390W        W35705  37.578  33.478   1.411
63391W        W35706  25.195   9.895  12.847
63392W        W35707  38.551   0.967   0.306
63393W        W35708  10.278   9.423   1.718
63394W        W35709  31.009  11.679   4.212
63395W        W35710  22.136  10.052  13.735
63396W        W35711  30.584   6.593  12.647
63397W        W35712  14.600  31.999  13.999
63398W        W35713  16.754  29.424  13.352
63399W        W35714  17.498   0.665  12.192
63400W        W35715  29.318  18.049   4.371
63401W        W35716  40.239  21.217  13.182
63402W        W35717  26.230  12.241   0.029
63403W        W35718  12.163  13.205  14.248
63404W        W35719  10.863   3.054   3.240
63405W        W35720  37.006  13.581  13.805
63406W        W35721  39.569  37.764  14.865
63407W        W35722  25.887  12.724  10.348
63408W        W35723   9.255  25.189   5.172
63409W        W35724  15.687  15.325   1.956
63410W        W35725   1.763  43.797   4.694
63411W        W35726  14.344   8.750   1.769
63412W        W35727  34.118  20.113  11.120
63413W        W35728  27.537  19.720  12.973
63414W        W35729  14.169   9.750   3.380
63415W        W35730  42.278  26.601   3.563
63416W        W35731   8.389   3.237  11.886
63417W        W35732  17.708  28.619  14.259
63418W        W35733  23.048   8.653   1.517
63419W        W35734  39.479  35.053  12.456
63420W        W35735  14.839  33.235   2.151
63421W        W35736  37.098   2.909  10.614
63422W        W35737  17.324   8.803   0.211
63423W        W35738  39.531  38.044  10.669
63424W        W35739  33.253  18.378  13.810
63425W        W35740  27.995  44.289   1.605
63426W        W35741  19.965   8.841  13.360
63427W        W35742  10.939   0.987  11.121
63428W        W35743   9.055  30.945   0.484
63429W        W35744  30.543  21.534   3.823
63430W        W35745  37.323  33.335   4.362
63431W        W35746  38.734  32.036  13.013
63432W        W35747   5.195  20.576   1.458
63433W        W35748  11.373  28.907  13.822
63434W        W35749  14.585  32.870  10.737
63435W        W35750  21.254  25.553   4.198
63436W        W35751   3.355   5.486   4.538
63437W        W35752  19.627   7.779   1.400
63438W        W35753  21.965  35.296   1.269
63439W        W35754  22.970  26.580  11.686
63440W        W35755  32.616   6.382   3.500
63441W        W35756   4.711  44.694  10.794
63442W        W35757  35.091  26.476   2.626
63443W        W35758   9.453  40.355  11.200
63444W        W35759  16.313  13.626  12.011
63445W        W35760  12.134  17.648  11.936
63446W        W35761  16.357   2.835   4.813
63447W        W35762  18.051  39.905   1.242
63448W        W35763  12.297  10.213  10.175
63449W        W35764  34.763  33.140  14.395
63450W        W35765  28.006   5.807  12.131
63451W        W35766  24.098   1.566   4.169
63452W        W35767  44.729  39.628  12.536
63453W        W35768  18.002  41.815   0.494
63454W        W35769  13.857  39.745  11.095
63455W        W35770  16.091  26.345   3.733
63456W        W35771   8.078  15.276  11.451
63457W        W35772  30.585   2.064  14.863
63458W        W35773  17.818  33.966  12.434
63459W        W35774  39.187  26.712   0.770
63460W        W35775  27.993  24.660   4.604
63461W        W35776  13.687  31.630   2.620
63462W        W35777  26.266  10.117   2.685
63463W        W35778  18.618  14.351   3.756
63464W        W35779  44.968  44.777   4.209
63465W        W35780   3.310  27.442   1.778
63466W        W35781  27.708  23.650   3.579
63467W        W35782   1.555  12.547  10.924
63468W        W35783   7.238   5.517  11.040
63469W        W35784  38.936   4.246   4.548
63470W        W35785  44.799  31.423   4.648
63471W        W35786  31.622  43.355  11.358
63472W        W35787  35.627  30.950   2.432
63473W        W35788  42.346  36.533  14.422
63474W        W35789  35.317  25.590   2.852
63475W        W35790  28.733  42.085  12.962
63476W        W35791  44.801  10.579  14.498
63477W        W35792  11.365  22.091   4.604
63478W        W35793   9.172   6.200   2.781
63479W        W35794   8.828  28.107   5.062
63480W        W35795  28.997  42.501  13.886
63481W        W35796  21.607  21.979   0.343
63482W        W35797  10.822  34.533  10.676
63483W        W35798   2.947  41.344  14.458
63484W        W35799  12.649  38.894   1.726
63485W        W35800   7.726  35.539  11.696
63486W        W35801  11.394  20.156  13.588
63487W        W35802  23.646  24.743   1.848
63488W        W35803  38.932  38.451  12.516
63489W        W35804   3.362  20.521   2.308
63490W        W35805  11.072  37.517  12.081
63491W        W35806  44.306  33.872   1.470
63492W        W35807  16.583  41.395   1.649
63493W        W35808   8.799  26.885  12.147
63494W        W35809   8.733  39.330   2.691
63495W        W35810  39.313  13.050  14.929
63496W        W35811  38.946  41.070  11.960
63497W        W35812  13.134  14.329  10.478
63498W        W35813  19.063  25.060  10.863
63499W        W35814  19.191   6.251  13.375
63500W        W35815  39.664  27.574   0.335
63501W        W35816  42.986  16.324   0.969
63502W        W35817   0.353   1.794   4.957
63503W        W35818  38.965  35.783   2.769
63504W        W35819   2.668   1.437   1.135
63505W        W35820  13.409  24.861  14.411
63506W        W35821  30.040  37.526  10.103
63507W        W35822   7.633  30.140  10.707
63508W        W35823  21.178  14.824  14.887
63509W        W35824  16.864  32.570  13.997
63510W        W35825  19.939  35.475  13.010
63511W        W35826  15.634  43.138  14.867
63512W        W35827  16.322  17.308  13.628
63513W        W35828   6.729  38.158   4.569
63514W        W35829  32.573   4.657  14.141
63515W        W35830  10.577  17.093   1.750
63516W        W35831  30.497  33.683   1.841
63517W        W35832   6.767  16.045  14.107
63518W        W35833   8.134  28.210  14.163
63519W        W35834  31.461  39.306   4.249
63520W        W35835  10.883   4.867  12.943
63521W        W35836   7.255  39.831   3.591
63522W        W35837  39.811   3.435  10.741
63523W        W35838  11.339  19.125  13.268
63524W        W35839  18.992   6.662  13.610
63525W        W35840  22.943  42.857   3.669
63526W        W35841   1.380  10.815  10.590
63527W        W35842  29.653  27.953   3.022
63528W        W35843  19.683  16.226  10.647
63529W        W35844  21.572  37.495   3.737
63530W        W35845  34.631  37.046   4.722
63531W        W35846  15.109  19.975   1.928
63532W        W35847   4.889  24.957   0.606
63533W        W35848   1.805  28.106  10.940
63534W        W35849  38.686  17.599  11.421
63535W        W35850  17.966  18.988  13.057
63536W        W35851   8.081   3.986  11.687
63537W        W35852   6.761  26.324   1.250
63538W        W35853   8.500  11.587  11.222
63539W        W35854   8.319  41.435   3.310
63540W        W35855  41.827  18.858  13.678
63541W        W35856  24.904  42.547   2.689
63542W        W35857   1.384  33.080   1.227
63543W        W35858  35.915   6.612   0.987
63544W        W35859  32.023  18.979  10.709
63545W        W35860   9.307  41.082   4.529
63546W        W35861  35.054  12.880   0.956
63547W        W35862  39.856  11.599   2.682
63548W        W35863  19.405  15.650   2.893
63549W        W35864  27.597  13.165   3.676
63550W        W35865  23.132  25.683   3.057
63551W        W35866  27.990   5.848   4.313
63552W        W35867  32.126  13.357   2.341
63553W        W35868   1.289  30.420  13.473
63554W        W35869   9.121  19.156   0.345
63555W        W35870  43.935  33.884  11.243
63556W        W35871  16.536  27.776   4.608
63557W        W35872  36.598   2.269   0.804
63558W        W35873  34.236  27.223  11.783
63559W        W35874  42.893  42.828  11.440
63560W        W35875  21.320  17.654  14.883
63561W        W35876  36.561  30.502  12.505
63562W        W35877  41.543  11.279  11.046
63563W        W35878  26.735   6.001   5.145
63564W        W35879  13.119   5.284  11.431
63565W        W35880  11.289  26.776   2.124
63566W        W35881  33.914  17.330   1.381
63567W        W35882  42.213  14.113  12.870
63568W        W35883  21.691  40.818  14.355
63569W        W35884  11.258  17.551   3.640
63570W        W35885  43.090   9.852   0.045
63571W        W35886  35.618   2.237  14.125
63572W        W35887  26.225  34.152  14.446
63573W        W35888  11.215  16.779   2.416
63574W        W35889  44.022  29.013  14.980
63575W        W35890   6.226   8.934   2.355
63576W        W35891  27.346  31.430  14.821
63577W        W35892  28.995  42.152  14.998
63578W        W35893  27.998  33.741   3.277
63579W        W35894  17.235   9.414   4.503
63580W        W35895  33.091  19.132   1.205
63581W        W35896  41.795  14.315   3.229
63582W        W35897  25.171   7.436  10.589
63583W        W35898  10.793  36.927  10.646
63584W        W35899  14.385  12.669   4.385
63585W        W35900  17.604   8.681  11.128
63586W        W35901   5.224  34.611   3.724
63587W        W35902  17.550  20.833  12.885
63588W        W35903   6.535  31.570  11.742
63589W        W35904  24.209  34.502  12.670
63590W        W35905  14.500  15.702   4.499
63591W        W35906  17.072  11.124   0.549
63592W        W35907  14.208   2.362  11.907
63593W        W35908  41.403  19.659   0.774
63594W        W35909  23.813   8.277  14.802
63595W        W35910  40.253  11.810  13.334
63596W        W35911  13.574  33.261   0.901
63597W        W35912   3.374  42.863  12.933
63598W        W35913  21.412  14.150   4.679
63599W        W35914  31.636  32.149   0.313
63600W        W35915  10.243  30.174   2.321
63601W        W35916  14.323   6.718   1.892
63602W        W35917  29.289  41.928   2.682
63603W        W35918  22.265  33.188   3.099
63604W        W35919  44.964  40.127   1.947
63605W        W35920  20.606  11.147   3.713
63606W        W35921  44.284  38.823  12.456
63607W        W35922  25.586  32.657   4.133
63608W        W35923  20.758  28.753   0.015
63609W        W35924  12.418  39.906  14.988
63610W        W35925  40.272  30.254   3.862
63611W        W35926  42.854  43.351  13.695
63612W        W35927  41.990   3.101   4.331
63613W        W35928  21.858  38.317   1.080
63614W        W35929  33.608   8.252   3.816
63615W        W35930  35.069  38.368   1.758
63616W        W35931  17.889  15.589   3.846
63617W        W35932  28.597  36.860   0.749
63618W        W35933  24.749  11.114   4.427
63619W        W35934  35.078  17.390   4.682
63620W        W35935  27.161  21.140  13.168
63621W        W35936  41.998  41.300   0.449
63622W        W35937  26.217  30.461   4.406
63623W        W35938  13.306  16.746   4.275
63624W        W35939  18.235  21.656  12.383
63625W        W35940  19.403  42.723  13.971
63626W        W35941  31.125  44.086  13.963
63627W        W35942   8.966   4.927   3.298
63628W        W35943  36.576  41.763   1.900
63629W        W35944  30.224   4.303  14.026
63630W        W35945  27.979  26.684  13.663
63631W        W35946  35.355  28.627   4.663
63632W        W35947  25.681  17.493  14.019
63633W        W35948  14.677  22.593  14.844
63634W        W35949  32.244  35.465  14.050
63635W        W35950  19.407  31.209   0.848
63636W        W35951  17.839  21.082  11.875
63637W        W35952  18.047  24.555  13.944
63638W        W35953   2.521  34.345  11.483
63639W        W35954  38.379  12.214  10.956
63640W        W35955  18.932  31.190  14.324
63641W        W35956   2.601  16.323  14.196
63642W        W35957  36.036  37.808   2.374
63643W        W35958  41.446  22.794  10.735
63644W        W35959  16.558  32.039  14.940
63645W        W35960   4.935  38.787   3.382
63646W        W35961  17.522   6.844  14.340
63647W        W35962  32.692   9.750   2.259
63648W        W35963  17.626  29.931   1.379
63649W        W35964  36.938   6.745  14.887
63650W        W35965  10.337  34.617   4.220
63651W        W35966  18.089  27.759   1.903
63652W        W35967   9.895  28.073   2.050
63653W        W35968  20.760  12.124   1.895
63654W        W35969  20.514  33.423   0.034
63655W        W35970  21.653  43.946   1.640
63656W        W35971  41.055  39.114   0.917
63657W        W35972  25.754  44.276  14.935
63658W        W35973  17.846  36.925   0.236
63659W        W35974  25.160  22.619   1.480
63660W        W35975  35.434   1.473  11.710
63661W        W35976  23.590  32.076  14.774
63662W        W35977  11.886  22.410   2.681
63663W        W35978  22.794  30.478   4.697
63664W        W35979  11.197  23.334   0.744
63665W        W35980  11.209  11.138   2.399
63666W        W35981  10.468   7.389  14.924
63667W        W35982  43.872   7.872  12.353
63668W        W35983   0.384  35.580   4.649
63669W        W35984  36.337  34.091  11.123
63670W        W35985  14.637  18.065  13.438
63671W        W35986  31.480   7.622   1.399
63672W        W35987  29.980  21.563  13.457
63673W        W35988  25.622  41.843  13.623
63674W        W35989  39.870  21.823   2.619
63675W        W35990  44.346  18.937   2.221
63676W        W35991   6.961  13.308   4.666
63677W        W35992  26.802  13.316  11.205
63678W        W35993   3.978   9.756   3.060
63679W        W35994   5.338  32.131  12.599
63680W        W35995  32.172  20.772  13.051
63681W        W35996   5.910  33.381  12.518
63682W        W35997  24.210  44.438   2.910
63683W        W35998   7.377  27.005  14.383
63684W        W35999  30.424  15.367  12.004
63685W        W36000  26.400   2.988  10.119
63686W        W36001  24.424  31.941   2.655
63687W        W36002   0.263  28.324   4.239
63688W        W36003  43.806  39.122   4.073
63689W        W36004  38.340  24.776   3.703
63690W        W36005   8.876   9.364  10.955
63691W        W36006  26.488  30.062   4.608
63692W        W36007  27.287   3.221  13.645
63693W        W36008   6.208   0.380  11.223
63694W        W36009  23.183   5.682   4.047
63695W        W36010  40.717  41.700   3.426
63696W        W36011  10.009  12.132   4.358
63697W        W36012  11.372  20.010  13.083
63698W        W36013  31.133  12.479   1.557
63699W        W36014  34.656   5.901  13.697
63700W        W36015   1.189  24.184  13.875
63701W        W36016   1.819  14.208  11.113
63702W        W36017   4.966  43.312  13.643
63703W        W36018  36.484  39.040   0.274
63704W        W36019   9.927  42.846   2.469
63705W        W36020  23.298   5.009   0.085
63706W        W36021  30.003  11.790  12.224
63707W        W36022  20.224  30.523   4.560
63708W        W36023  13.429  13.818  11.548
63709W        W36024  13.681   4.413  13.424
63710W        W36025   3.876  37.024  14.942
63711W        W36026  40.691  19.153   3.580
63712W        W36027  17.453  44.959  12.071
63713W        W36028  25.655  19.750   0.024
63714W        W36029  13.948  31.363   3.364
63715W        W36030  44.881  42.225  13.805
63716W        W36031   1.748  37.570   3.141
63717W        W36032  36.121  41.233  12.577
63718W        W36033  13.311  27.997   3.586
63719W        W36034  33.460  26.716  13.720
63720W        W36035   7.277  18.820  10.410
63721W        W36036   9.794   6.315   2.260
63722W        W36037   2.192  37.313   2.275
63723W        W36038  15.350  44.495  10.661
63724W        W36039  30.920  23.271   1.421
63725W        W36040   3.888  34.041   0.719
63726W        W36041  24.918  17.507  14.444
63727W        W36042  20.558   5.902   2.152
63728W        W36043  38.975   7.638  12.511
63729W        W36044  40.577  38.444  11.192
63730W        W36045  37.682  22.565   0.760
63731W        W36046  17.128  10.036   5.187
63732W        W36047  16.402   1.384  12.652
63733W        W36048  27.634  40.859   4.514
63734W        W36049  25.396  35.132  12.133
63735W        W36050  22.691  14.394  10.591
63736W        W36051  41.707  43.236   2.841
63737W        W36052  21.736   6.946   3.254
63738W        W36053   4.478  37.670  11.857
63739W        W36054  14.343  26.865   0.787
63740W        W36055  13.759   5.057   2.663
63741W        W36056  10.297   8.779   2.825
63742W        W36057  35.988  22.075   3.894
63743W        W36058  39.838   2.626  13.478
63744W        W36059   7.850  19.154   0.151
63745W        W36060  43.978  38.511   0.519
63746W        W36061   8.753  42.258   3.617
63747W        W36062  31.533   6.833   3.470
63748W        W36063  31.511   5.161  12.821
63749W        W36064  44.357   6.192  12.618
63750W        W36065  37.556  32.548   2.321
63751W        W36066   3.735  21.599  10.688
63752W        W36067  26.942  41.044  11.580
63753W        W36068  43.776  26.386   0.781
63754W        W36069  31.303  22.957  11.046
63755W        W36070   2.172  41.929   5.087
63756W        W36071  31.693   4.454  13.970
63757W        W36072   6.424   7.035  11.639
63758W        W36073  41.344   2.344  12.050
63759W        W36074  34.731  13.368  12.000
63760W        W36075  17.249  44.319   1.298
63761W        W36076   7.843  19.086   3.904
63762W        W36077  22.438  23.292  14.527
63763W        W36078  12.616  29.241   1.417
63764W        W36079  37.820  20.072   0.457
63765W        W36080  37.927  41.252   4.084
63766W        W36081  15.850  29.334  14.861
63767W        W36082  39.523  35.996   1.789
63768W        W36083  24.734  13.043   1.870
63769W        W36084  34.508  24.981  13.972
63770W        W36085  44.559   3.353   1.366
63771W        W36086   5.182  44.500  13.913
63772W        W36087  31.957   8.314   4.257
63773W        W36088  12.283  35.847   1.249
63774W        W36089  21.083  32.526   4.886
63775W        W36090  30.941   5.755   2.828
63776W        W36091  16.524  12.821   0.979
63777W        W36092  35.723  43.287  11.126
63778W        W36093  25.071  33.158   0.907
63779W        W36094  10.639  27.629  12.845
63780W        W36095  18.202  10.932  10.631
63781W        W36096  33.499  22.420  14.007
63782W        W36097  25.454   1.263  14.732
63783W        W36098  42.322   5.345   1.348
63784W        W36099  33.121  15.614  13.468
63785W        W36100  12.534  41.836  11.463
63786W        W36101  44.745  13.202  10.104
63787W        W36102  15.340  35.048  12.104
63788W        W36103  38.294   3.668   1.047
63789W        W36104  15.580  40.516   4.947
63790W        W36105  31.668  13.898  12.816
63791W        W36106  14.421  10.950   1.797
63792W        W36107  34.649   6.982   0.261
63793W        W36108  30.988  22.766  13.413
63794W        W36109  24.573  41.047  11.951
63795W        W36110  20.462  39.547   2.742
63796W        W36111  44.809   5.362   4.789
63797W        W36112  24.309  25.957  11.426
63798W        W36113   9.422  35.480  14.357
63799W        W36114  29.468   7.359   4.792
63800W        W36115  41.582  12.236   4.250
63801W        W36116  25.694  44.052  14.467
63802W        W36117  34.021  36.900  14.831
63803W        W36118  34.420  43.835   0.979
63804W        W36119  17.160  12.802   4.145
63805W        W36120  12.119   0.815  13.357
63806W        W36121   2.843  10.399  10.570
63807W        W36122  19.979   5.409  14.977
63808W        W36123  40.740  25.094   2.588
63809W        W36124   9.083  23.746  13.015
63810W        W36125   6.742  19.749  14.516
63811W        W36126  32.423  41.801  14.473
63812W        W36127   4.314   3.471   1.664
63813W        W36128   8.729  28.136  12.914
63814W        W36129  35.362  30.252   4.134
63815W        W36130  35.035  24.557   0.308
63816W        W36131  21.597  12.904   4.507
63817W        W36132  32.175   6.290   3.765
63818W        W36133  32.938  14.325  14.222
63819W        W36134  22.650  14.106   4.610
63820W        W36135  28.053  41.490   5.154
63821W        W36136  13.649  20.131  12.639
63822W        W36137  12.814  28.390  11.942
63823W        W36138  29.133  33.299  14.980
63824W        W36139   0.588  39.942  13.746
63825W        W36140  16.930  28.681  12.237
63826W        W36141  16.551  39.979  11.506
63827W        W36142  36.548  21.246   3.447
63828W        W36143  38.393   9.248  10.747
63829W        W36144  13.628  35.926  14.833
63830W        W36145  33.989   7.382  12.905
63831W        W36146  16.201  35.458  14.499
63832W        W36147  20.298  31.548   2.697
63833W        W36148  16.620   4.673  14.994
63834W        W36149  35.613   8.327  12.180
63835W        W36150  28.518  36.220  11.179
63836W        W36151  36.629   9.857   3.300
63837W        W36152  15.884  34.851   0.461
63838W        W36153   8.476  29.301  11.241
63839W        W36154  15.759  12.091   2.805
63840W        W36155  44.975  39.166  12.532
63841W        W36156  29.507  26.146  14.398
63842W        W36157   7.793  16.739   3.285
63843W        W36158  22.317  18.635  11.845
63844W        W36159  10.939  31.586   1.909
63845W        W36160  39.915  30.870   2.253
63846W        W36161  33.876  35.962  12.044
63847W        W36162  30.681  24.086  12.788
63848W        W36163   9.759   3.431   2.746
63849W        W36164  13.850  42.329   0.214
63850W        W36165  20.628  23.991  10.856
63851W        W36166   0.925  21.239   0.743
63852W        W36167  41.663   9.245  12.761
63853W        W36168   5.379   9.133  11.250
63854W        W36169  10.285  22.911  10.334
63855W        W36170  32.044   2.648  13.500
63856W        W36171  12.763  16.022  12.086
63857W        W36172  24.767  33.489  14.447
63858W        W36173  18.827  15.123   4.395
63859W        W36174  14.209  38.521   4.127
63860W        W36175  41.518  32.919   1.059
63861W        W36176  23.931   1.228   3.239
63862W        W36177   4.192  29.492   2.454
63863W        W36178   0.961  16.142   3.806
63864W        W36179   1.123   3.445  13.466
63865W        W36180  29.330  31.640  12.232
63866W        W36181  40.615  20.824   1.248
63867W        W36182  36.017   3.393   0.951
63868W        W36183  20.520  13.271  14.013
63869W        W36184  36.854  24.065   5.634
63870W        W36185  13.764  20.219   3.170
63871W        W36186  16.690   4.867  13.038
63872W        W36187  19.880  21.075   5.081
63873W        W36188   0.750  17.227  11.130
63874W        W36189  11.168  44.476  10.272
63875W        W36190  25.764   5.386  12.155
63876W        W36191  38.438  43.758  13.096
63877W        W36192  40.342  31.611  10.671
63878W        W36193  34.935  43.921   4.051
63879W        W36194  10.173  15.776  11.060
63880W        W36195  42.300  13.786   1.740
63881W        W36196  14.407   6.246  11.542
63882W        W36197  24.778   1.304   4.256
63883W        W36198  13.252  22.642   1.239
63884W        W36199  42.961  33.366   2.859
63885W        W36200  21.811  42.692  11.576
63886W        W36201  34.690  13.655  12.438
63887W        W36202  10.415  25.182  13.522
63888W        W36203   5.473  37.747   4.130
63889W        W36204  10.582   8.815  12.931
63890W        W36205  22.180  14.767   3.813
63891W        W36206  38.550  39.757  12.989
63892W        W36207  10.191   1.215  13.504
63893W        W36208   5.808  40.365  11.597
63894W        W36209  15.227  14.130  12.610
63895W        W36210  35.633  36.230  11.069
63896W        W36211  43.299  18.763   0.729
63897W        W36212  41.022  37.889   3.329
63898W        W36213  19.909  35.693  11.149
63899W        W36214  23.703   6.321  11.656
63900W        W36215   2.235  38.508   3.164
63901W        W36216  32.606  27.418   2.941
63902W        W36217  36.478  16.404  12.966
63903W        W36218  37.584   2.015   5.051
63904W        W36219  24.984  14.535   4.296
63905W        W36220  17.062   7.302  11.357
63906W        W36221   8.615  35.952  13.407
63907W        W36222  37.665  19.596   5.030
63908W        W36223  39.246  19.768   4.946
63909W        W36224   5.722  19.323   1.239
63910W        W36225  37.772  22.537  12.919
63911W        W36226  31.575  35.038   4.010
63912W        W36227  19.795  42.945   4.613
63913W        W36228  38.013   4.445  11.341
63914W        W36229  10.896   5.758  10.582
63915W        W36230  21.510  11.959  11.951
63916W        W36231   5.503  29.409   3.386
63917W        W36232  44.251  14.004   3.700
63918W        W36233   4.984  14.620  11.002
63919W        W36234   1.435  12.189  12.127
63920W        W36235   4.709   2.514   0.612
63921W        W36236  38.570  30.771  11.520
63922W        W36237  25.816  34.607   1.811
63923W        W36238  25.474  42.038   1.330
63924W        W36239  11.807  39.372  12.662
63925W        W36240  42.803  11.707   4.056
63926W        W36241  38.176  10.197  12.111
63927W        W36242   3.399  25.382   1.755
63928W        W36243   6.265  17.720  12.443
63929W        W36244  22.985   2.787   0.405
63930W        W36245   8.408  38.391  11.765
63931W        W36246  10.687  20.985  12.069
63932W        W36247  10.692  38.330  13.370
63933W        W36248  32.358  14.807   1.769
63934W        W36249  39.649  32.711   2.305
63935W        W36250  13.723   5.859   0.393
63936W        W36251  10.316   5.755  13.008
63937W        W36252   7.805   5.499  12.177
63938W        W36253  42.749  13.889  14.858
63939W        W36254  22.745  35.404   0.916
63940W        W36255  11.936  33.609   9.909
63941W        W36256   2.254  14.526  13.349
63942W        W36257  44.210   8.443   3.330
63943W        W36258   0.908  16.085   4.316
63944W        W36259  25.692   0.072   0.243
63945W        W36260  42.833   8.672   4.243
63946W        W36261  13.305   9.274  11.230
63947W        W36262  37.630  42.808  11.321
63948W        W36263   8.424  10.208   2.292
63949W        W36264  27.125  32.081  13.360
63950W        W36265  15.107  21.887   2.825
63951W        W36266   6.605  18.415  12.079
63952W        W36267  39.499  24.514  10.408
63953W        W36268  15.958   1.614   4.957
63954W        W36269  11.273  30.839   4.613
63955W        W36270  38.201   4.994  10.592
63956W        W36271  15.758  37.159   3.288
63957W        W36272  38.489  34.215  11.629
63958W        W36273  25.067   6.492  12.465
63959W        W36274   7.169  33.265   4.771
63960W        W36275  22.063  22.225   0.387
63961W        W36276   2.115  22.704  14.928
63962W        W36277  40.467  44.447  13.914
63963W        W36278  28.283  39.923   1.735
63964W        W36279  10.271  44.840  11.063
63965W        W36280  23.786  15.792   2.286
63966W        W36281  28.205  25.143  14.292
63967W        W36282   8.266  17.480   1.822
63968W        W36283  28.016  18.265  10.715
63969W        W36284  34.215  17.578   0.107
63970W        W36285  13.703  34.498   3.871
63971W        W36286  24.755  10.872   3.025
63972W        W36287  36.923  22.493   4.678
63973W        W36288  26.572  10.597   4.147
63974W        W36289  36.624  39.802   0.789
63975W        W36290  15.749  27.153  14.271
63976W        W36291  41.998  40.305   3.320
63977W        W36292  28.141  23.731  13.431
63978W        W36293  40.463  23.540   1.992
63979W        W36294  37.902  20.773   1.304
63980W        W36295  30.608  19.012   0.265
63981W        W36296  42.317   4.322   3.131
63982W        W36297  15.643  20.498   2.865
63983W        W36298  42.498  29.012  12.536
63984W        W36299   1.737  13.172   3.924
63985W        W36300  32.455  33.359  13.364
63986W        W36301   1.359  13.547  14.047
63987W        W36302  35.561  41.357   4.062
63988W        W36303  32.540  41.913  11.623
63989W        W36304  14.184  42.337   3.762
63990W        W36305  16.310  36.520   0.918
63991W        W36306  44.819   3.116   4.805
63992W        W36307  37.091  34.391   4.829
63993W        W36308  32.158  42.753   3.127
63994W        W36309  42.845   6.392  11.923
63995W        W36310  28.503   3.931  12.022
63996W        W36311  25.227   9.074   3.697
63997W        W36312  25.504  26.403   4.103
63998W        W36313  31.143  18.510  12.336
63999W        W36314   2.892  17.851  12.364
64000W        W36315  13.342  15.568  12.470
64001W        W36316  10.634  35.006   4.085
64002W        W36317  41.613   2.884   0.920
64003W        W36318   6.774  26.034   1.922
64004W        W36319  30.409  10.163  10.766
64005W        W36320  22.510  21.969  14.416
64006W        W36321  37.810  22.161  13.270
64007W        W36322  23.939  33.333  13.523
64008W        W36323   7.615  22.026  14.355
64009W        W36324  10.100  29.500   3.691
64010W        W36325  23.220  18.391   0.292
64011W        W36326  24.707  41.021   0.199
64012W        W36327   2.881  42.868   0.345
64013W        W36328  34.116  37.785  11.263
64014W        W36329   2.975  42.235   4.940
64015W        W36330   3.378  16.878  12.988
64016W        W36331  23.676  19.335  14.250
64017W        W36332  18.593  44.412  10.168
64018W        W36333   4.202  30.000  14.326
64019W        W36334  42.451  10.695   4.957
64020W        W36335  43.248  34.562   4.612
64021W        W36336   1.984  44.301  10.499
64022W        W36337  13.877   9.680  13.423
64023W        W36338  42.927   4.030  14.934
64024W        W36339   0.761   3.700   0.000
64025W        W36340   3.476  42.005   4.706
64026W        W36341  15.473  18.167  13.027
64027W        W36342  18.297  25.113   4.157
64028W        W36343  44.049  29.957  14.957
64029W        W36344  23.361  33.995   1.975
64030W        W36345  24.160  40.836   1.936
64031W        W36346  41.973  44.030   4.306
64032W        W36347   5.390  15.617  14.526
64033W        W36348  27.261  18.217   0.368
64034W        W36349  19.089  10.719  10.232
64035W        W36350   8.914  25.479   4.243
64036W        W36351   2.543  33.890   1.842
64037W        W36352  42.491  42.743   1.869
64038W        W36353  37.747  23.162  10.418
64039W        W36354  40.070   7.210  10.654
64040W        W36355  20.304  28.132  12.995
64041W        W36356  30.874  10.253   0.799
64042W        W36357   4.017  31.978   2.236
64043W        W36358  25.986  25.924  14.467
64044W        W36359  39.969  42.819   0.900
64045W        W36360  27.491  33.386  14.134
64046W        W36361  12.789  26.094   4.962
64047W        W36362  41.565  44.386   0.753
64048W        W36363  11.846  44.257   1.723
64049W        W36364  12.292  22.707   2.834
64050W        W36365  12.991  20.620   3.251
64051W        W36366  18.978  14.874   1.768
64052W        W36367   3.901  36.889  12.518
64053W        W36368  29.198  18.708   2.731
64054W        W36369  40.913  39.958  10.730
64055W        W36370   6.954  20.700   2.838
64056W        W36371   4.882  33.511  11.559
64057W        W36372   9.824  40.651  14.797
64058W        W36373   8.415  30.497  10.714
64059W        W36374   0.828  38.954   3.537
64060W        W36375  11.475  44.921  10.303
64061W        W36376  34.986  29.549   5.027
64062W        W36377  13.486  33.125  11.641
64063W        W36378  28.919  35.961  14.107
64064W        W36379  33.149   3.293  11.113
64065W        W36380  22.077   2.852   3.256
64066W        W36381  28.599  44.878  14.889
64067W        W36382  12.377  21.842   1.147
64068W        W36383  38.761  34.793   4.325
64069W        W36384  10.363  40.307   2.184
64070W        W36385   6.409   7.314   2.382
64071W        W36386  23.092   4.214   2.752
64072W        W36387   5.021  20.146  12.408
64073W        W36388  12.558   8.223   0.846
64074W        W36389  33.646  40.285   2.682
64075W        W36390  29.054  40.630   1.907
64076W        W36391  22.544  12.063  13.315
64077W        W36392  17.352  40.154  11.095
64078W        W36393  22.407  20.108   0.247
64079W        W36394  25.163  29.913  14.010
64080W        W36395  22.912  18.643   4.561
64081W        W36396  14.088  36.593  12.617
64082W        W36397   7.680  27.979  10.057
64083W        W36398   2.440   4.299   4.215
64084W        W36399   0.099  29.078   4.598
64085W        W36400  19.811  32.851  10.883
64086W        W36401  23.937  31.841  10.911
64087W        W36402  11.812   4.725   3.268
64088W        W36403  13.160  33.837  10.425
64089W        W36404   4.417  13.273   4.955
64090W        W36405  39.681  11.209  13.434
64091W        W36406  24.252   3.930  13.496
64092W        W36407   6.609   5.676   2.756
64093W        W36408  31.489  35.320  11.388
64094W        W36409  19.103  32.212   0.965
64095W        W36410  36.909  24.627   9.753
64096W        W36411  21.247  22.638  12.834
64097W        W36412   4.422  42.550   3.768
64098W        W36413   1.030  32.966   2.424
64099W        W36414   3.216  37.849  10.691
64100W        W36415  39.342  26.574   0.266
64101W        W36416  33.070  30.702   0.303
64102W        W36417  10.182  41.843  14.529
64103W        W36418   8.590  28.042  13.939
64104W        W36419  36.966  13.267   4.362
64105W        W36420   8.088   6.984   1.705
64106W        W36421  22.510  15.194   2.615
64107W        W36422   9.277  17.771   4.685
64108W        W36423   9.420  28.052  10.212
64109W        W36424  25.186  40.431  14.268
64110W        W36425  14.139  25.201  12.014
64111W        W36426  14.299  44.884   0.428
64112W        W36427  27.179   2.824  13.974
64113W        W36428  31.115  27.649  14.756
64114W        W36429  20.621  22.543   0.461
64115W        W36430  10.744  37.330  13.925
64116W        W36431  23.719  19.755  13.510
64117W        W36432  42.204   1.393   1.212
64118W        W36433   6.696  35.555   4.052
64119W        W36434  44.465   7.536   1.444
64120W        W36435  34.741  28.103  12.532
64121W        W36436  30.399  36.850  12.156
64122W        W36437  38.207  31.691   2.267
64123W        W36438  10.474  22.412   9.879
64124W        W36439  32.025  20.589  10.919
64125W        W36440  10.156  15.175   0.837
64126W        W36441   8.431   9.890  12.014
64127W        W36442  23.197  27.500   0.716
64128W        W36443  28.572  44.884   1.872
64129W        W36444  30.501  17.381  11.225
64130W        W36445  15.311   4.477   1.773
64131W        W36446  15.865  21.634  13.019
64132W        W36447  43.877  26.945  14.247
64133W        W36448  23.217  43.046  14.942
64134W        W36449  22.763  42.431  11.058
64135W        W36450  24.655  10.354  11.949
64136W        W36451  19.214  26.092  13.572
64137W        W36452   6.242   1.850  11.200
64138W        W36453  39.537  35.414   4.504
64139W        W36454  23.055  37.578   3.642
64140W        W36455  42.091  10.541   3.390
64141W        W36456  12.752   7.182  13.384
64142W        W36457  25.522   5.739  11.844
64143W        W36458  32.231  33.538   0.389
64144W        W36459  15.166  21.248   0.317
64145W        W36460  26.622  16.868   4.549
64146W        W36461   8.672  38.078   2.313
64147W        W36462  30.591   4.524  11.145
64148W        W36463  31.489  41.304  10.627
64149W        W36464  22.648  31.542  12.155
64150W        W36465  14.092  19.167  14.660
64151W        W36466  16.782  13.071  13.798
64152W        W36467  17.348  43.954   3.916
64153W        W36468  10.538  41.126   4.098
64154W        W36469  15.560  15.595   0.844
64155W        W36470  28.388  30.669  12.467
64156W        W36471  34.887  30.121  14.497
64157W        W36472   1.671  15.125  12.879
64158W        W36473  27.284  32.905  13.880
64159W        W36474  38.960  41.497  13.039
64160W        W36475  25.680  41.237   1.769
64161W        W36476  26.234  11.607   2.736
64162W        W36477  17.628  17.351  12.024
64163W        W36478  32.077  33.165   4.158
64164W        W36479  14.323  12.215  14.726
64165W        W36480  13.262   3.069   2.189
64166W        W36481  34.603  28.987   3.489
64167W        W36482  18.805  35.631  14.074
64168W        W36483  18.332   6.668   1.959
64169W        W36484  19.586  36.097  11.071
64170W        W36485  33.285  40.909  10.997
64171W        W36486  42.791  38.868  13.658
64172W        W36487  28.671  28.605   4.066
64173W        W36488  16.819  13.723  12.233
64174W        W36489  26.177   4.329  10.215
64175W        W36490  23.542   0.330   4.649
64176W        W36491   7.442   7.662   3.565
64177W        W36492  25.426  14.708  10.744
64178W        W36493  37.384  25.746  11.922
64179W        W36494  23.083  42.769   2.678
64180W        W36495  21.067  23.894   2.723
64181W        W36496  28.102  11.636  12.488
64182W        W36497  16.000  12.124  14.028
64183W        W36498   8.493  27.564   2.270
64184W        W36499  16.533  13.544  14.507
64185W        W36500  31.247  36.695  14.049
64186W        W36501  36.183  38.355   4.190
64187W        W36502   4.897  34.098   0.918
64188W        W36503  10.217  25.046  10.692
64189W        W36504  25.149  24.644  11.066
64190W        W36505  42.071  31.569   4.284
64191W        W36506  23.639  23.960  13.122
64192W        W36507  12.196  37.820   0.176
64193W        W36508  44.528  37.531  12.094
64194W        W36509   3.209  27.992  14.817
64195W        W36510  12.543  17.137   3.660
64196W        W36511  30.890  14.768   3.736
64197W        W36512  24.542  42.373  10.799
64198W        W36513   2.023  11.327  12.080
64199W        W36514  31.954  41.246  12.980
64200W        W36515  15.588  27.148  11.929
64201W        W36516  22.871  19.811   3.719
64202W        W36517  18.147  27.137  11.901
64203W        W36518  24.702  15.729   0.412
64204W        W36519  33.643   9.363   1.627
64205W        W36520  36.440  34.501   3.184
64206W        W36521  19.036  12.161   0.313
64207W        W36522  20.773  20.441  13.893
64208W        W36523  43.649  36.135  13.936
64209W        W36524  37.618   5.772   3.030
64210W        W36525  14.612  21.707   2.802
64211W        W36526  24.029  42.494   0.817
64212W        W36527  30.393  15.314   2.195
64213W        W36528  33.334  10.707   1.657
64214W        W36529   5.243  38.413  12.951
64215W        W36530  42.697  23.092   0.507
64216W        W36531   8.215  10.608   4.587
64217W        W36532  28.494   4.447   4.722
64218W        W36533  15.867  31.212  10.002
64219W        W36534   7.157   8.270  11.382
64220W        W36535   0.954  13.856   1.205
64221W        W36536  17.701  27.451   2.716
64222W        W36537   7.135  31.908  11.176
64223W        W36538  41.405  41.789  12.408
64224W        W36539   9.240  37.819  12.938
64225W        W36540  31.864   1.695   4.882
64226W        W36541  44.546   8.529   1.376
64227W        W36542  37.354  30.616  12.018
64228W        W36543  22.130   5.005   9.911
64229W        W36544  14.652  33.294   0.613
64230W        W36545  25.552  21.482   0.984
64231W        W36546  17.794  17.735  14.373
64232W        W36547  28.557  43.763   1.849
64233W        W36548   0.949   8.714  13.358
64234W        W36549  40.310  23.205  12.201
64235W        W36550  35.016  34.177   1.185
64236W        W36551  18.942  20.089   1.399
64237W        W36552  10.882  30.496  12.428
64238W        W36553   2.697  27.881  13.557
64239W        W36554  16.873   1.485  13.999
64240W        W36555   1.483  26.528   0.356
64241W        W36556  22.034  38.958  14.379
64242W        W36557   0.829   2.651   0.083
64243W        W36558  42.043   2.743  10.929
64244W        W36559   4.947   7.890   3.637
64245W        W36560  12.716   5.839   0.190
64246W        W36561  24.260  13.864   2.748
64247W        W36562  28.044   4.164   2.217
64248W        W36563   9.827  43.067  11.648
64249W        W36564  13.106  38.503  14.502
64250W        W36565  41.042   5.880  12.018
64251W        W36566  11.405   7.702  13.730
64252W        W36567  20.092  31.973  12.582
64253W        W36568  18.119  15.582   3.371
64254W        W36569  19.610  25.940   0.017
64255W        W36570  44.993   1.580   3.690
64256W        W36571  38.841  10.722   2.288
64257W        W36572  22.738   6.758   2.754
64258W        W36573  39.449  23.488  14.805
64259W        W36574   2.066  12.118   9.737
64260W        W36575   4.466  44.870   1.094
64261W        W36576  23.688  27.120  11.467
64262W        W36577  37.970  22.751   4.502
64263W        W36578   9.134  18.715   2.284
64264W        W36579  24.513  37.310  13.970
64265W        W36580  22.546  39.347   4.657
64266W        W36581   5.988  41.390  14.760
64267W        W36582  31.962  30.231   3.619
64268W        W36583  25.070  27.326   2.965
64269W        W36584  44.265  33.068  14.873
64270W        W36585  19.036  35.766   1.829
64271W        W36586  12.966   3.822  12.495
64272W        W36587  27.874  11.187  12.543
64273W        W36588   2.473   9.845  14.176
64274W        W36589  15.181  19.166   0.018
64275W        W36590  13.761  33.114  11.157
64276W        W36591  20.640  20.289  12.845
64277W        W36592  19.989   2.742   1.499
64278W        W36593  26.716  38.524   4.644
64279W        W36594  15.230  38.379  14.215
64280W        W36595   5.430  15.667   3.621
64281W        W36596   9.691  11.331  12.677
64282W        W36597   9.549   8.789   2.409
64283W        W36598  13.834  39.939  14.980
64284W        W36599  43.431  42.671   3.020
64285W        W36600  29.435  42.837  13.239
64286W        W36601  44.724   6.635   2.341
64287W        W36602  21.086   7.899  11.326
64288W        W36603  15.446  25.692   1.463
64289W        W36604   0.714   4.727  13.898
64290W        W36605  43.915  27.098   0.372
64291W        W36606  20.642  25.637   2.584
64292W        W36607   0.302  28.062  14.349
64293W        W36608  31.570  10.793   1.243
64294W        W36609  22.287  29.600   1.527
64295W        W36610  12.151  32.516  11.619
64296W        W36611   7.213  20.558   0.758
64297W        W36612  13.887  14.965  12.650
64298W        W36613   0.460  18.265   1.861
64299W        W36614  42.745  30.614   3.814
64300W        W36615  10.835  16.322  11.500
64301W        W36616  35.668  20.740   4.601
64302W        W36617  17.621   0.680   1.739
64303W        W36618  39.000  38.598  14.402
64304W        W36619   2.672  32.942  11.608
64305W        W36620  30.957  27.612  13.776
64306W        W36621  34.634  10.859  13.459
64307W        W36622  36.582   8.436   4.095
64308W        W36623   4.078  40.236  11.021
64309W        W36624  10.831   0.305   0.007
64310W        W36625  38.048  29.422   0.643
64311W        W36626  12.273  44.225  10.708
64312W        W36627  12.879  17.745  10.709
64313W        W36628  38.634  19.130  12.431
64314W        W36629   6.320  24.939  12.589
64315W        W36630   4.054  28.459  12.901
64316W        W36631  12.502  43.915   2.392
64317W        W36632  43.201  12.875   0.074
64318W        W36633  23.949  23.216  10.762
64319W        W36634  26.691  43.463   1.780
64320W        W36635  18.628  18.366  12.042
64321W        W36636  41.159  33.490  11.199
64322W        W36637  38.964  18.454   3.581
64323W        W36638  14.774  26.971  10.707
64324W        W36639   0.244  21.501   3.287
64325W        W36640  37.023  32.936  13.853
64326W        W36641  43.436  44.803  12.497
64327W        W36642  27.724  16.511  10.985
64328W        W36643  19.231  29.029  11.570
64329W        W36644   3.164  25.574  12.440
64330W        W36645  29.600  26.413   0.786
64331W        W36646  14.033  41.953  11.507
64332W        W36647   0.753   1.969  10.610
64333W        W36648  28.953  37.816   3.303
64334W        W36649  12.817  18.253   0.315
64335W        W36650   9.743  15.607   4.312
64336W        W36651  34.913   1.800   3.697
64337W        W36652   6.949  41.578   3.469
64338W        W36653  29.079   7.850   3.139
64339W        W36654  15.756   7.125  11.173
64340W        W36655   7.458  33.850  13.986
64341W        W36656  39.920  15.877   3.265
64342W        W36657  38.408  14.421   4.952
64343W        W36658   3.237  30.494   2.321
64344W        W36659  33.144  44.494   0.814
64345W        W36660  28.773  11.599  14.476
64346W        W36661  28.479  29.597  11.193
64347W        W36662  22.683  25.676  11.439
64348W        W36663  37.992  23.599  10.566
64349W        W36664  25.300   8.731  12.038
64350W        W36665  23.192   0.859  12.843
64351W        W36666  23.489  29.163   0.197
64352W        W36667   6.308  34.665  14.303
64353W        W36668   3.447  22.022  10.734
64354W        W36669  20.573  10.533   2.105
64355W        W36670   0.715  27.584   0.021
64356W        W36671  16.997   3.521  11.978
64357W        W36672  16.991   9.112   2.160
64358W        W36673  34.288  11.149  12.577
64359W        W36674   6.037  29.104  11.020
64360W        W36675  30.955  23.973   2.720
64361W        W36676  18.161   8.955   1.274
64362W        W36677   0.389  42.700   3.136
64363W        W36678   8.704  33.528  13.423
64364W        W36679  37.170  35.387  12.408
64365W        W36680   2.432  14.288  11.540
64366W        W36681  16.864  38.201   4.872
64367W        W36682  22.007  13.718   1.605
64368W        W36683  26.292  31.169   1.777
64369W        W36684  41.103  17.759  12.340
64370W        W36685  39.826  14.667  14.607
64371W        W36686  21.723  28.656  11.522
64372W        W36687  39.173  18.144  13.649
64373W        W36688  11.920   1.771   3.575
64374W        W36689  43.700   6.764  11.087
64375W        W36690   5.833  39.945  10.850
64376W        W36691  39.999  25.244   3.779
64377W        W36692  40.527   1.544   1.801
64378W        W36693   2.326  39.687  12.446
64379W        W36694   9.613  24.038   2.920
64380W        W36695  29.680  36.408   1.314
64381W        W36696  35.421   9.201  10.556
64382W        W36697  19.993  22.806  13.049
64383W        W36698  27.928   2.267   3.845
64384W        W36699  39.964  12.148  13.762
64385W        W36700  29.693   9.844  11.611
64386W        W36701  15.007  44.726  14.975
64387W        W36702  19.268  25.055   0.493
64388W        W36703  31.075  35.863   0.081
64389W        W36704  31.302  40.401   2.269
64390W        W36705  15.757  26.655  11.867
64391W        W36706  24.535  23.519   4.597
64392W        W36707  39.373   0.460   3.669
64393W        W36708  15.086  38.029  12.519
64394W        W36709   4.459  39.232   2.455
64395W        W36710  39.762   1.926   2.731
64396W        W36711  17.564  35.786  13.943
64397W        W36712  40.002   8.294  11.562
64398W        W36713  27.814   2.725  11.535
64399W        W36714  28.395   7.290  13.973
64400W        W36715  30.166  14.764   1.409
64401W        W36716  35.403  28.145  11.632
64402W        W36717  10.584  16.511   5.442
64403W        W36718  25.573  20.770   4.595
64404W        W36719  14.832  27.057  13.092
64405W        W36720  10.391   5.555  11.738
64406W        W36721  15.315  27.728   1.304
64407W        W36722  31.060  31.266  14.406
64408W        W36723   3.325  35.259   4.976
64409W        W36724  19.907  13.788   1.788
64410W        W36725  25.544   8.824   0.355
64411W        W36726  34.088  39.793   1.760
64412W        W36727  33.029  16.232   2.713
64413W        W36728  26.575  38.573   1.077
64414W        W36729  36.639  19.243  12.639
64415W        W36730  40.040  18.152  13.807
64416W        W36731   0.933  10.444   1.766
64417W        W36732  42.844  16.661  12.694
64418W        W36733  39.344  44.514   0.103
64419W        W36734  33.834   5.837   2.362
64420W        W36735  22.483  12.367   3.695
64421W        W36736   4.261  20.295   3.674
64422W        W36737  28.446  12.632  11.956
64423W        W36738  38.387  36.927   1.610
64424W        W36739  29.586  25.460  13.439
64425W        W36740  33.176  22.118  11.973
64426W        W36741   6.703  37.110   0.328
64427W        W36742  24.396   3.817  14.416
64428W        W36743  18.546  14.233  10.180
64429W        W36744  19.238  15.825   4.207
64430W        W36745   5.943  22.683  10.988
64431W        W36746  33.138  12.448   0.275
64432W        W36747  11.891  13.431  13.475
64433W        W36748  28.359  10.871   3.219
64434W        W36749  28.708  34.332   1.851
64435W        W36750  28.614  30.630  10.751
64436W        W36751  20.543  34.666   4.754
64437W        W36752  27.505  20.988  11.468
64438W        W36753   0.848  21.230  11.401
64439W        W36754  15.644  35.199  13.361
64440W        W36755   9.717   4.217  12.511
64441W        W36756  41.640  20.384  12.831
64442W        W36757  21.164   1.971   3.877
64443W        W36758  35.579  17.631  12.403
64444W        W36759  42.274  28.093   2.386
64445W        W36760  44.887  30.437  10.407
64446W        W36761  18.110  36.778  10.630
64447W        W36762  25.870  17.224   0.408
64448W        W36763  25.495  41.470  12.488
64449W        W36764   5.083   4.687  12.339
64450W        W36765  41.013  24.649   4.306
64451W        W36766   9.382  28.774   0.226
64452W        W36767  39.952  29.442  13.006
64453W        W36768  42.739   9.051  12.095
64454W        W36769  32.645  15.478   4.445
64455W        W36770   4.756  39.966  14.545
64456W        W36771   2.979   6.766  13.943
64457W        W36772   5.134   5.502   1.817
64458W        W36773   4.913   8.963  11.442
64459W        W36774  41.075  18.098   0.782
64460W        W36775  14.750  37.234   3.171
64461W        W36776  30.041  31.976   0.417
64462W        W36777   4.688  15.306   1.670
64463W        W36778  25.693  35.070   0.397
64464W        W36779   4.892  22.524   0.370
64465W        W36780  30.513  37.143  11.747
64466W        W36781  25.702  18.744  13.521
64467W        W36782   5.732  17.558   3.299
64468W        W36783  29.879  42.933  11.550
64469W        W36784   0.538  21.650  13.861
64470W        W36785  35.959   3.842  11.294
64471W        W36786  10.552  35.924  13.773
64472W        W36787  30.576  26.732  11.369
64473W        W36788   2.582  28.634  10.812
64474W        W36789  34.605  34.524   2.862
64475W        W36790  22.673   7.437  12.977
64476W        W36791  24.639  21.160  14.980
64477W        W36792  29.984  22.642  14.384
64478W        W36793  26.698  34.571  13.887
64479W        W36794   0.816  23.036   4.344
64480W        W36795  40.141   9.976  11.945
64481W        W36796  16.534  30.193   5.105
64482W        W36797  27.425   4.898   4.594
64483W        W36798   6.010  12.160  12.192
64484W        W36799  12.458  20.628   2.236
64485W        W36800  24.123  26.057   2.695
64486W        W36801  29.516  27.030   4.016
64487W        W36802  17.220  36.880  14.900
64488W        W36803  25.135   9.198  13.034
64489W        W36804  41.941  22.314   2.167
64490W        W36805   3.074  13.432   4.738
64491W        W36806  22.117  41.800   1.706
64492W        W36807   3.745  21.984   2.397
64493W        W36808  31.116  18.213   0.196
64494W        W36809  17.668  19.358   1.838
64495W        W36810   8.716  41.845   3.937
64496W        W36811   2.821   0.646  11.907
64497W        W36812   4.778  32.150  14.822
64498W        W36813   6.173  11.713  13.352
64499W        W36814  16.690   3.173   2.273
64500W        W36815  42.836  41.708   4.114
64501W        W36816  33.579  20.506   1.918
64502W        W36817   3.127  24.468   2.880
64503W        W36818   4.992   4.491  11.615
64504W        W36819   0.183   4.275   4.143
64505W        W36820  14.499  18.682   0.419
64506W        W36821  28.671   4.641   1.842
64507W        W36822  33.993  37.869  13.959
64508W        W36823  43.576  38.238  11.620
64509W        W36824  24.105  41.266  11.750
64510W        W36825  30.162  41.978   1.641
64511W        W36826  19.691  15.459   4.145
64512W        W36827  15.659  44.619  11.930
64513W        W36828  19.192  34.392  14.870
64514W        W36829  17.453  26.643  12.348
64515W        W36830   8.941  29.113   2.301
64516W        W36831   9.346  43.260  13.309
64517W        W36832  14.578  41.894  14.926
64518W        W36833  37.096  30.025  13.889
64519W        W36834  12.098  39.967  12.404
64520W        W36835  19.215  14.629   0.867
64521W        W36836   0.685   5.607  10.326
64522W        W36837  17.580  22.453  11.457
64523W        W36838  39.024   6.146  14.187
64524W        W36839  33.941  39.852   2.666
64525W        W36840  29.343  34.796  10.329
64526W        W36841   9.143  30.047  13.065
64527W        W36842  18.510  20.135   3.134
64528W        W36843  40.192   5.678  11.128
64529W        W36844   6.556   2.532  11.529
64530W        W36845  29.927  10.913  11.818
64531W        W36846   1.016  43.157   1.460
64532W        W36847  18.335  30.846   3.790
64533W        W36848  20.726  27.948   2.824
64534W        W36849  27.237  25.712   4.058
64535W        W36850   3.053  35.081   0.735
64536W        W36851  32.583  30.505   0.441
64537W        W36852  43.599   9.735   9.704
64538W        W36853  35.172  30.416   3.691
64539W        W36854  36.414   1.947   2.082
64540W        W36855  33.735  28.269   0.220
64541W        W36856  27.390  32.585  12.602
64542W        W36857  36.879   5.375   3.609
64543W        W36858  10.308  44.911   3.275
64544W        W36859  14.564   4.772  11.938
64545W        W36860  36.064  24.610  13.058
64546W        W36861  39.025  34.460   1.370
64547W        W36862  31.962  23.428   3.680
64548W        W36863  42.489   3.863   2.396
64549W        W36864  43.237  28.419   3.678
64550W        W36865  17.670  19.037   2.850
64551W        W36866  36.603   3.664  14.396
64552W        W36867  10.258  22.574   2.895
64553W        W36868  36.803  12.582  10.660
64554W        W36869  39.918  23.644  11.595
64555W        W36870  42.835  41.866   0.180
64556W        W36871  35.466   5.830   4.162
64557W        W36872  20.269   4.829   3.336
64558W        W36873  33.828  24.010   1.639
64559W        W36874  11.591  14.672  13.913
64560W        W36875   1.335  21.051   1.000
64561W        W36876   5.069   9.463   3.712
64562W        W36877   8.961  11.915  11.997
64563W        W36878  19.222   9.960  13.893
64564W        W36879   0.190  26.143   0.977
64565W        W36880   7.236  10.857  12.582
64566W        W36881   8.430  31.357   2.838
64567W        W36882  12.748   6.892  12.854
64568W        W36883  13.166  16.803   2.807
64569W        W36884  41.401  31.198   0.097
64570W        W36885   1.130  17.643  13.384
64571W        W36886  39.406   2.756   2.853
64572W        W36887  40.248  37.392  10.874
64573W        W36888  38.129  20.817   2.265
64574W        W36889  30.508  24.116  10.943
64575W        W36890  36.815  13.726  11.825
64576W        W36891  21.210  28.381  12.369
64577W        W36892  19.743   0.960  12.474
64578W        W36893  17.887   2.534   0.428
64579W        W36894  42.883   8.709  13.420
64580W        W36895   5.926  16.871   3.733
64581W        W36896  14.342  44.830   1.320
64582W        W36897  42.013  30.432  14.404
64583W        W36898  36.693  26.869  12.138
64584W        W36899  42.676  41.900  12.499
64585W        W36900  26.766   7.215  14.795
64586W        W36901  32.471  27.564  14.840
64587W        W36902  15.121   9.756  10.791
64588W        W36903  38.924   1.774  10.289
64589W        W36904  41.807   3.782  11.956
64590W        W36905  17.777   8.329  13.425
64591W        W36906   7.751  34.645   3.595
64592W        W36907   5.008  21.391   3.599
64593W        W36908  39.390  25.615   3.334
64594W        W36909  10.407   7.279   2.819
64595W        W36910  11.132  27.702   4.624
64596W        W36911   9.104  12.617   0.234
64597W        W36912  41.944  15.688   0.031
64598W        W36913  12.012  23.617  12.299
64599W        W36914   6.779  26.909   2.626
64600W        W36915   0.648  31.793   4.766
64601W        W36916  19.724  44.740   1.512
64602W        W36917  31.904  26.533   2.246
64603W        W36918  35.094  43.657   0.423
64604W        W36919   5.401   6.311  11.388
64605W        W36920  11.886  36.705  13.196
64606W        W36921  25.995  36.255  14.341
64607W        W36922  34.656  43.979  14.538
64608W        W36923  31.163  24.259   1.333
64609W        W36924  31.263  28.518  13.886
64610W        W36925  22.702   2.985   0.868
64611W        W36926  19.831  20.996   0.571
64612W        W36927  36.463  28.463   2.415
64613W        W36928  12.607  42.416   1.867
64614W        W36929  24.742  17.692  10.747
64615W        W36930  14.517  30.860   0.920
64616W        W36931   6.297  34.096   0.283
64617W        W36932  34.070  20.217  12.005
64618W        W36933  20.167  37.562  14.441
64619W        W36934  36.015  28.171   5.474
64620W        W36935   9.406  37.395  11.610
64621W        W36936  15.314  40.792   2.798
64622W        W36937  31.088   3.975  11.753
64623W        W36938  27.292   0.940   2.728
64624W        W36939  21.737  26.241   3.834
64625W        W36940  10.330  44.279  13.406
64626W        W36941  40.115  44.396   2.203
64627W        W36942  13.229  29.998  14.817
64628W        W36943  27.748  12.219  14.624
64629W        W36944  31.207  31.838  10.180
64630W        W36945  44.389  28.706  10.937
64631W        W36946  17.671  44.012  12.607
64632W        W36947   0.471   0.045  13.824
64633W        W36948   2.371   7.628   3.634
64634W        W36949  27.661  10.322   2.382
64635W        W36950   4.890  11.939   2.458
64636W        W36951   9.755  25.220   0.636
64637W        W36952  13.391  44.461  12.021
64638W        W36953  13.197  15.950  11.079
64639W        W36954   9.133  17.722   2.642
64640W        W36955  10.690   6.641  12.468
64641W        W36956   8.962   3.678  14.453
64642W        W36957  29.175  38.115   3.678
64643W        W36958  12.300   7.855  14.992
64644W        W36959  29.384   6.306  14.792
64645W        W36960  44.036  36.555  13.126
64646W        W36961  29.073  19.529   4.630
64647W        W36962   8.867  41.781  14.674
64648W        W36963  25.441  41.353  11.969
64649W        W36964  40.704  27.258   1.379
64650W        W36965  20.201   1.453  11.147
64651W        W36966  27.137  16.280  14.315
64652W        W36967  10.935  19.006  10.787
64653W        W36968  40.358  25.001   2.221
64654W        W36969  12.220  17.239   1.367
64655W        W36970  25.483   9.699   2.457
64656W        W36971  15.838  10.765  12.045
64657W        W36972   7.103  31.541   3.818
64658W        W36973  38.470  20.271  10.742
64659W        W36974  36.983  21.007   3.733
64660W        W36975  39.323  31.580   0.810
64661W        W36976  17.750  24.939   3.255
64662W        W36977  20.765  32.958   4.884
64663W        W36978  11.148  18.127   1.047
64664W        W36979  36.114  44.994   3.618
64665W        W36980   2.285  40.915  13.577
64666W        W36981  13.654  26.393  14.528
64667W        W36982   4.255  11.612  12.025
64668W        W36983  20.768  39.072  12.450
64669W        W36984   2.239  34.345   4.007
64670W        W36985  20.588  28.994   4.547
64671W        W36986  14.079  37.484  12.212
64672W        W36987   0.403  15.617  11.124
64673W        W36988  36.543   9.412   0.929
64674W        W36989   6.258  11.376  14.873
64675W        W36990   2.771   5.589  14.418
64676W        W36991   6.958  29.960   4.860
64677W        W36992  23.528  38.864  14.687
64678W        W36993  33.287  20.571   4.667
64679W        W36994  14.114  12.295   0.179
64680W        W36995  15.927   9.967  10.697
64681W        W36996  29.975  38.388   0.440
64682W        W36997  24.498  43.088   1.223
64683W        W36998   1.716  34.076  14.413
64684W        W36999  11.634   1.990  13.887
64685W        W37000  38.356  42.303   4.632
64686W        W37001  24.075  14.326   3.517
64687W        W37002  33.894  27.686  13.868
64688W        W37003  31.443  34.096   0.272
64689W        W37004  41.709   9.397   1.762
64690W        W37005   9.634   0.296   2.581
64691W        W37006   1.324   7.241  13.311
64692W        W37007   7.642  15.772  10.315
64693W        W37008  27.449  25.975   0.357
64694W        W37009  15.584   3.232   3.709
64695W        W37010  30.629   1.248  13.180
64696W        W37011   0.670  31.970  11.157
64697W        W37012  18.479  44.763  14.359
64698W        W37013  30.119  34.944   3.867
64699W        W37014  35.575   6.089   3.688
64700W        W37015  31.463  37.150  14.039
64701W        W37016  23.025   0.699   4.188
64702W        W37017   6.567  33.690   2.330
64703W        W37018  21.519  29.641   1.032
64704W        W37019  42.584  16.271  14.807
64705W        W37020   1.209   2.948  11.109
64706W        W37021   2.035   3.185   0.233
64707W        W37022  31.915   3.876   4.595
64708W        W37023  29.865  19.817   3.115
64709W        W37024   2.509  43.410   3.315
64710W        W37025  35.236  10.808  14.832
64711W        W37026  41.366  30.377   0.429
64712W        W37027  27.606  31.227   0.389
64713W        W37028  25.600  38.631  11.946
64714W        W37029  11.301  28.497   0.413
64715W        W37030  18.921  38.633  14.001
64716W        W37031  32.202  12.843   0.760
64717W        W37032  20.139   0.164  12.533
64718W        W37033  16.869   7.933  14.820
64719W        W37034   5.752   7.890  10.930
64720W        W37035  20.195  30.017  12.590
64721W        W37036  11.124  37.320  12.954
64722W        W37037  20.091  11.324  12.543
64723W        W37038   9.248   1.489  10.344
64724W        W37039  43.521  11.227   2.649
64725W        W37040  11.327  19.347  11.815
64726W        W37041  11.079  16.557   5.257
64727W        W37042   0.477  34.038  11.561
64728W        W37043  23.862  40.794  12.487
64729W        W37044  44.743  23.201   0.353
64730W        W37045   8.632   1.911   4.921
64731W        W37046  31.924  15.165   0.041
64732W        W37047  41.539  40.444   0.394
64733W        W37048  44.845  31.024  13.606
64734W        W37049  22.891  35.185  12.090
64735W        W37050  16.047  27.387  13.843
64736W        W37051  34.472  15.187   4.569
64737W        W37052  41.401  34.835  13.866
64738W        W37053   2.865  27.153   2.868
64739W        W37054  16.036  41.279  10.537
64740W        W37055  11.103  25.101   4.241
64741W        W37056  36.357   0.541  11.150
64742W        W37057  41.224   7.551  12.512
64743W        W37058  19.367  37.936   4.756
64744W        W37059  44.953  23.090   2.719
64745W        W37060  10.890  43.543   1.759
64746W        W37061  21.059  26.208   4.735
64747W        W37062   9.404  29.048  14.756
64748W        W37063  14.577  15.183  14.385
64749W        W37064  37.530   8.358   0.519
64750W        W37065  41.031  16.801   3.276
64751W        W37066   4.170  43.459  11.009
64752W        W37067  40.816  21.274   2.854
64753W        W37068  23.551  28.929  12.381
64754W        W37069  22.588  17.670   4.116
64755W        W37070  12.068  17.577  10.941
64756W        W37071  22.684  38.982  12.019
64757W        W37072   6.279  11.646   2.234
64758W        W37073  20.693  12.639  13.825
64759W        W37074   8.618  34.094   1.769
64760W        W37075   9.877  17.164  11.867
64761W        W37076  12.849  43.828   1.371
64762W        W37077  40.476   2.289   0.521
64763W        W37078  22.353  18.683  14.912
64764W        W37079  20.832   7.373   0.404
64765W        W37080  27.239   1.670   1.672
64766W        W37081  25.233   3.023  13.881
64767W        W37082  21.925  11.929  12.547
64768W        W37083  25.189  11.905   2.385
64769W        W37084  15.340   6.306  10.422
64770W        W37085  33.650  38.600  12.248
64771W        W37086  40.872  29.877  13.447
64772W        W37087  41.277  38.498   4.099
64773W        W37088  18.222   4.517  12.919
64774W        W37089  27.514   3.560   4.545
64775W        W37090  16.616   8.928   0.039
64776W        W37091  35.936   2.756   2.751
64777W        W37092  23.674  19.302   4.528
64778W        W37093  30.426  27.870   3.301
64779W        W37094  22.468   6.878   3.700
64780W        W37095  10.207  43.546  11.125
64781W        W37096  42.011  24.644   4.475
64782W        W37097  40.773  21.787   2.860
64783W        W37098  38.775   1.808   0.599
64784W        W37099  20.433  12.605   3.786
64785W        W37100  39.835  32.970   1.292
64786W        W37101  44.410  23.079  11.083
64787W        W37102  34.927   6.791   2.278
64788W        W37103  23.019  18.614   0.746
64789W        W37104   0.895   7.538  13.358
64790W        W37105  10.697  31.972   0.245
64791W        W37106   7.850  15.821  12.898
64792W        W37107  37.593  40.379   0.138
64793W        W37108  43.526  34.423   1.586
64794W        W37109  24.296   2.930  14.766
64795W        W37110  31.935  29.241  10.750
64796W        W37111  30.181  28.880  10.597
64797W        W37112  11.771  15.154   4.805
64798W        W37113  13.194  22.106   4.535
64799W        W37114   9.245  16.269   1.269
64800W        W37115  38.534  29.191   3.553
64801W        W37116  10.132  18.593   4.635
64802W        W37117  15.660  38.077   0.414
64803W        W37118   3.899  36.880  13.403
64804W        W37119  18.316  32.644   0.731
64805W        W37120  41.938  30.212   0.828
64806W        W37121  24.006  41.544   4.154
64807W        W37122   0.371  23.967  10.722
64808W        W37123  19.653  40.909   9.521
64809W        W37124  23.831  30.884  12.493
64810W        W37125  38.748  23.487  11.077
64811W        W37126  34.815   2.983   4.690
64812W        W37127   5.960  12.130  13.597
64813W        W37128  32.136  43.013  12.138
64814W        W37129  32.421  36.620  14.519
64815W        W37130   9.059  32.629   3.208
64816W        W37131  42.321  44.945  14.765
64817W        W37132  24.642  41.944   2.955
64818W        W37133  17.595   6.363   2.800
64819W        W37134  13.110  29.529   0.294
64820W        W37135   2.528  23.844  11.655
64821W        W37136  44.253  17.138   1.719
64822W        W37137  39.448  14.122   1.277
64823W        W37138  13.119  14.267  12.521
64824W        W37139  41.330  21.893  11.468
64825W        W37140  29.399  26.686   0.379
64826W        W37141  19.531   4.738  12.417
64827W        W37142  33.563   4.240   4.937
64828W        W37143  18.091  19.048  11.344
64829W        W37144  38.850  12.672  14.987
64830W        W37145  10.170  13.419  13.518
64831W        W37146  12.743  41.484   2.831
64832W        W37147  31.745  37.425  14.405
64833W        W37148  18.494   9.670  14.673
64834W        W37149  39.180  29.873   0.774
64835W        W37150   4.273  14.903  12.687
64836W        W37151   9.917   3.851   2.445
64837W        W37152   7.823  17.281  12.988
64838W        W37153  22.050  44.485  14.847
64839W        W37154  36.449  39.309  13.894
64840W        W37155  33.296  15.530   1.456
64841W        W37156  25.040  30.507  11.405
64842W        W37157  15.269  34.958  10.865
64843W        W37158  20.217  35.373  14.813
64844W        W37159  29.482  17.313   2.898
64845W        W37160  25.278  42.181   4.706
64846W        W37161  13.646  13.884  13.315
64847W        W37162  26.745  36.786   2.382
64848W        W37163  40.627   3.943   2.747
64849W        W37164  10.759   5.781  12.125
64850W        W37165  13.175  36.025  14.528
64851W        W37166  29.283  21.353  14.151
64852W        W37167  38.329  13.677   3.093
64853W        W37168   3.242  20.758   0.946
64854W        W37169  43.466  34.380  13.487
64855W        W37170   5.337  21.784  14.486
64856W        W37171   5.415  38.312   4.150
64857W        W37172   8.764  22.857  11.639
64858W        W37173  23.019  34.359   1.720
64859W        W37174  21.944  39.821  13.735
64860W        W37175  40.387  44.752  12.541
64861W        W37176  28.187  14.148   3.244
64862W        W37177  15.012  31.740   0.243
64863W        W37178  39.952  16.313   1.656
64864W        W37179  31.914  35.427   3.682
64865W        W37180  32.388  15.026  14.386
64866W        W37181   1.295  36.507   5.472
64867W        W37182  34.031   5.378  14.354
64868W        W37183   5.902  26.228   1.279
64869W        W37184  20.499  23.623  12.118
64870W        W37185  30.542   5.320   1.320
64871W        W37186  42.574   6.074  11.106
64872W        W37187  16.318  14.642   1.415
64873W        W37188  31.346  24.716  11.565
64874W        W37189  17.830  21.015  12.469
64875W        W37190   0.275  10.359  14.545
64876W        W37191  30.832  23.634  13.074
64877W        W37192  22.043  24.337  13.751
64878W        W37193  24.880  23.529   3.664
64879W        W37194   4.832  29.819   3.901
64880W        W37195  28.249  18.294   2.822
64881W        W37196  17.804  22.180   4.171
64882W        W37197   3.741  11.692   2.890
64883W        W37198   6.872  32.739   2.684
64884W        W37199  14.810   4.963  10.302
64885W        W37200  16.160  22.235  11.519
64886W        W37201   9.849   4.633  13.904
64887W        W37202  23.107  36.120  10.772
64888W        W37203  29.380  44.841  10.532
64889W        W37204  11.171   1.098  10.667
64890W        W37205  22.539  15.656   3.679
64891W        W37206  16.767  34.518  11.472
64892W        W37207   6.632   5.218   0.308
64893W        W37208  25.670   2.055   1.179
64894W        W37209  20.259  32.931  11.148
64895W        W37210   8.034   0.986   3.752
64896W        W37211  17.739  44.269  11.726
64897W        W37212  27.687  35.182   1.928
64898W        W37213  35.159  23.689  12.611
64899W        W37214   3.969  34.131  11.792
64900W        W37215  27.964  32.149   2.161
64901W        W37216   9.936  37.771  14.852
64902W        W37217  16.806   2.268  12.592
64903W        W37218  20.712   6.253   3.413
64904W        W37219  25.067  38.948   0.279
64905W        W37220  15.899  37.467  14.062
64906W        W37221  30.979  20.686  10.623
64907W        W37222  17.906   2.353   4.107
64908W        W37223  31.126  13.604   2.680
64909W        W37224  32.619  28.046  10.581
64910W        W37225  31.703   7.694   3.247
64911W        W37226  31.918   5.127  11.971
64912W        W37227   5.011  29.092   1.237
64913W        W37228   4.199   6.860  11.638
64914W        W37229  39.240  35.404   4.051
64915W        W37230  21.775  12.615  13.841
64916W        W37231   3.712  26.560  12.399
64917W        W37232  31.380   3.414  12.534
64918W        W37233  40.712   0.943   2.741
64919W        W37234  15.604  30.456   2.533
64920W        W37235  25.617   5.992   2.852
64921W        W37236   0.355  39.281   4.617
64922W        W37237   6.783  17.618  11.078
64923W        W37238  32.887  32.470   3.964
64924W        W37239  39.013  40.835   3.815
64925W        W37240  12.234  26.128  12.648
64926W        W37241  41.429  42.421   1.175
64927W        W37242   5.464  40.356  12.881
64928W        W37243   6.720  30.404   1.455
64929W        W37244  22.522  27.929  10.595
64930W        W37245  33.976  28.859  14.850
64931W        W37246  12.660  39.467   4.621
64932W        W37247  25.164  42.431   3.144
64933W        W37248  26.222  13.745   0.059
64934W        W37249   2.345  15.216  14.095
64935W        W37250  37.936   2.923   0.937
64936W        W37251  41.702  31.957   3.123
64937W        W37252  16.617  20.536   3.552
64938W        W37253  42.391   5.261  14.659
64939W        W37254  44.349  12.376   4.680
64940W        W37255  34.387  26.606  10.986
64941W        W37256  33.872  17.077   3.570
64942W        W37257  31.040  31.339  11.708
64943W        W37258  17.283  38.250   2.238
64944W        W37259   1.976  37.524  14.237
64945W        W37260  27.660   6.927  14.355
64946W        W37261   1.809   2.036  12.005
64947W        W37262  15.906  11.965  11.920
64948W        W37263  18.545  22.928   0.103
64949W        W37264  38.545  23.729  13.275
64950W        W37265  16.786  32.973   1.592
64951W        W37266  30.928  37.381   0.614
64952W        W37267  12.106  41.891  12.062
64953W        W37268  30.988   0.404  13.104
64954W        W37269  44.574  38.385   1.182
64955W        W37270  43.441  30.540  12.156
64956W        W37271  44.489  19.092  13.242
64957W        W37272  10.764  19.499   5.094
64958W        W37273  42.940  32.451  10.741
64959W        W37274   7.177  42.011  14.879
64960W        W37275  12.715   4.760  14.069
64961W        W37276  28.584   7.936  14.208
64962W        W37277   4.667  44.518  14.949
64963W        W37278   7.800   2.983  11.737
64964W        W37279  24.716  18.570   3.861
64965W        W37280  15.784  11.836   3.241
64966W        W37281  28.210  13.107   1.412
64967W        W37282  30.761  18.618  10.875
64968W        W37283  21.054  19.788  13.369
64969W        W37284  34.884  14.269  13.959
64970W        W37285  40.656  35.987  12.086
64971W        W37286  40.831  16.698   4.604
64972W        W37287  17.566  33.302  11.960
64973W        W37288  15.693  28.860  12.606
64974W        W37289  32.421   3.779   2.034
64975W        W37290   7.899  20.957   3.508
64976W        W37291  44.447  11.173   2.656
64977W        W37292   5.080  17.004   2.729
64978W        W37293  14.355  24.048   3.659
64979W        W37294  37.086  42.285  12.782
64980W        W37295  15.240  44.692  13.573
64981W        W37296  20.997  18.010   4.529
64982W        W37297   5.951  16.071   2.484
64983W        W37298   6.299  34.165  14.306
64984W        W37299  10.492   6.926  12.074
64985W        W37300  13.147  10.329   0.240
64986W        W37301  44.413  18.527   2.723
64987W        W37302  10.640   9.850  10.723
64988W        W37303  39.343  29.308  11.808
64989W        W37304  28.108  10.340  13.760
64990W        W37305  25.958  44.476   4.150
64991W        W37306  14.268   2.018  14.686
64992W        W37307  27.646  26.696  14.288
64993W        W37308  33.602  31.578   3.185
64994W        W37309   1.817  34.336   4.698
64995W        W37310  22.487   8.695   3.694
64996W        W37311  29.894   3.500   3.426
64997W        W37312  14.182  36.421   3.233
64998W        W37313  37.643  43.475   1.723
64999W        W37314   9.850  18.505   2.850
65000W        W37315   2.324  14.786  11.389
65001W        W37316   0.776  16.153  12.234
65002W        W37317  41.951  40.016  10.451
65003W        W37318  41.650  24.992  11.677
65004W        W37319  25.416  42.994   1.278
65005W        W37320  38.358  18.777  11.662
65006W        W37321   9.177  19.900   2.812
65007W        W37322  14.883  16.540   0.761
65008W        W37323  39.468  36.449  14.893
65009W        W37324  44.727  16.226  14.096
65010W        W37325  28.450   1.424   3.541
65011W        W37326   9.635  28.053  13.410
65012W        W37327   9.930  33.985  13.388
65013W        W37328   0.012   3.738   2.717
65014W        W37329  11.116  28.232   4.597
65015W        W37330  43.819  16.099   3.269
65016W        W37331  41.286  17.309  14.255
65017W        W37332  43.940   2.643   4.036
65018W        W37333  13.825  34.078   2.737
65019W        W37334   1.746  12.416  10.036
65020W        W37335  11.527  36.370  10.474
65021W        W37336  14.164  24.414   1.331
65022W        W37337  27.249  32.615   4.640
65023W        W37338  30.602   3.099   1.779
65024W        W37339  19.994   6.775   4.006
65025W        W37340  28.443  25.698  12.912
65026W        W37341   5.417   5.653   0.927
65027W        W37342  25.637  36.289   2.110
65028W        W37343  30.992  15.229  13.067
65029W        W37344  18.205  25.424  12.515
65030W        W37345  27.441  27.187   2.711
65031W        W37346  32.751  17.789   3.821
65032W        W37347  12.114  17.026   4.982
65033W        W37348  18.865  27.039  13.544
65034W        W37349  40.702  18.063   1.697
65035W        W37350  30.351  43.587  10.975
65036W        W37351  13.167  36.418   2.375
65037W        W37352  21.700   8.816   2.380
65038W        W37353  36.390   5.894   4.762
65039W        W37354  44.973  20.300  12.023
65040W        W37355   1.977  38.521   1.401
65041W        W37356  15.028  16.647   0.081
65042W        W37357  24.248  10.545   2.206
65043W        W37358  44.539  13.539   3.595
65044W        W37359  16.753   1.515   0.753
65045W        W37360   6.259  12.000   4.593
65046W        W37361  18.237  15.633   4.280
65047W        W37362  24.531  36.063  11.164
65048W        W37363  37.782   4.903  10.167
65049W        W37364  43.888   4.430   4.553
65050W        W37365  44.364  43.057   4.975
65051W        W37366  28.815   6.279   3.294
65052W        W37367  14.152  18.699  11.175
65053W        W37368   7.943   4.729   2.668
65054W        W37369  24.629  25.002  10.434
65055W        W37370  20.033  29.198   1.367
65056W        W37371  17.773  38.302  11.590
65057W        W37372   9.073   7.340   4.528
65058W        W37373  16.128   8.608   2.219
65059W        W37374  23.208   8.021  14.340
65060W        W37375  44.286  38.161  14.006
65061W        W37376  21.677   1.323  12.143
65062W        W37377  30.454  39.533   4.515
65063W        W37378  31.447  42.332  13.409
65064W        W37379   9.393  26.209   2.308
65065W        W37380  32.564  44.736  12.583
65066W        W37381  33.112   6.351   2.231
65067W        W37382  21.660  30.423  10.887
65068W        W37383  29.041  24.005  12.981
65069W        W37384  15.203  24.576  10.894
65070W        W37385  24.330  36.855  11.013
65071W        W37386   2.584  35.726  10.060
65072W        W37387  19.149  36.753   0.848
65073W        W37388   3.031  14.993  14.648
65074W        W37389   9.321  21.095   3.346
65075W        W37390  44.544  39.796  12.082
65076W        W37391  13.156  30.169  11.085
65077W        W37392  33.250  16.329   3.619
65078W        W37393  24.861  23.322   1.712
65079W        W37394  15.305  44.422   0.949
65080W        W37395   2.490  37.946  12.977
65081W        W37396  28.908  25.095  12.190
65082W        W37397  29.359  17.133   1.962
65083W        W37398  42.318  26.107  10.498
65084W        W37399  10.652  34.530  13.546
65085W        W37400  34.430   6.181   1.857
65086W        W37401   9.448   2.329   0.209
65087W        W37402  37.894  17.916  12.571
65088W        W37403  11.063  32.173   3.250
65089W        W37404  12.200  30.270  12.915
65090W        W37405  25.521  34.809   4.523
65091W        W37406   5.704  37.848  12.618
65092W        W37407  14.380   3.376  14.962
65093W        W37408  19.323  35.110  14.450
65094W        W37409  26.962  13.782  12.483
65095W        W37410  26.171  14.200  10.735
65096W        W37411  22.773  27.964  11.075
65097W        W37412   2.862  32.661   2.445
65098W        W37413  15.864   9.088  14.486
65099W        W37414  19.157  22.317   2.749
65100W        W37415  20.730  10.227  14.934
65101W        W37416   5.744   7.209  12.922
65102W        W37417  37.005  43.101  13.573
65103W        W37418   2.859  37.094  12.944
65104W        W37419  31.071  19.998  12.321
65105W        W37420   6.906  20.712  14.373
65106W        W37421  43.798  13.520  12.927
65107W        W37422  20.212  13.260  12.477
65108W        W37423  21.327  12.684  12.942
65109W        W37424   8.444  25.564  11.635
65110W        W37425  39.038  27.075   3.100
65111W        W37426  39.833   3.075   4.567
65112W        W37427  27.720   6.438  14.191
65113W        W37428   8.338  14.292   3.325
65114W        W37429   8.890  11.709   1.029
65115W        W37430  18.655  41.508  12.294
65116W        W37431   8.412  43.984   2.900
65117W        W37432   4.276  28.969  11.004
65118W        W37433  35.508  15.444  11.162
65119W        W37434  30.867   1.843   3.208
65120W        W37435  18.075  26.175  13.540
65121W        W37436  15.457  32.571   3.319
65122W        W37437  23.718   2.796  11.026
65123W        W37438  31.944   3.270  14.916
65124W        W37439  27.996  31.476  13.388
65125W        W37440  20.100   8.137  14.011
65126W        W37441  28.838  44.981   2.295
65127W        W37442   2.660  17.158  11.628
65128W        W37443  37.094  14.174  11.979
65129W        W37444   4.977  35.388  12.944
65130W        W37445   0.702  26.618   3.223
65131W        W37446  40.950  23.042   1.323
65132W        W37447   6.745  31.589   3.449
65133W        W37448  24.466  30.464   4.216
65134W        W37449   0.059   5.225   0.859
65135W        W37450  19.126  13.623   4.515
65136W        W37451   6.881  32.599  10.358
65137W        W37452  31.467  33.337  10.679
65138W        W37453   5.912  30.816   3.558
65139W        W37454   0.730  37.361   0.873
65140W        W37455   1.560  30.404   3.863
65141W        W37456  15.219  13.843   0.352
65142W        W37457  13.406  10.854   3.081
65143W        W37458   4.118  15.968   2.698
65144W        W37459  42.495  39.870   0.929
65145W        W37460  23.913  23.488   0.833
65146W        W37461  29.306   2.070   0.312
65147W        W37462   3.347  26.935   2.717
65148W        W37463  14.039   3.882   3.017
65149W        W37464  38.024  19.146  13.267
65150W        W37465  28.398  37.468   1.262
65151W        W37466  38.020   4.265  13.523
65152W        W37467  17.830  14.185  11.538
65153W        W37468  35.921  35.197  13.379
65154W        W37469  38.115  18.631   3.706
65155W        W37470  43.674  35.386  12.251
65156W        W37471  33.388  35.189   0.779
65157W        W37472  12.799  18.034  12.409
65158W        W37473  40.104   9.826   3.656
65159W        W37474  25.834  32.966  10.333
65160W        W37475  14.803  15.751   2.734
65161W        W37476   0.105  13.499   1.944
65162W        W37477  41.886  21.456   4.605
65163W        W37478   0.313  36.468  12.902
65164W        W37479  40.993   7.566   2.784
65165W        W37480   9.445   5.692  10.954
65166W        W37481  29.593  21.777  10.686
65167W        W37482  21.625  38.591   3.833
65168W        W37483  32.441  27.200   4.763
65169W        W37484  14.042  18.156  11.933
65170W        W37485  36.520   8.715   3.657
65171W        W37486  38.930  20.898   4.582
65172W        W37487  18.715  37.306   1.603
65173W        W37488  35.630  34.574  11.137
65174W        W37489  43.516  41.454   1.353
65175W        W37490  28.915   6.639  12.896
65176W        W37491  19.788  11.534   3.082
65177W        W37492   6.399  39.902  12.887
65178W        W37493  36.485   5.003   2.403
65179W        W37494   1.332  38.136  13.231
65180W        W37495   1.989  22.392  11.550
65181W        W37496  44.474  40.559  12.425
65182W        W37497  21.086   0.885  11.537
65183W        W37498  28.169  12.849   4.197
65184W        W37499  43.847   6.875  12.445
65185W        W37500  31.942   3.780   2.687
65186W        W37501  14.311  35.842  10.699
65187W        W37502  34.131   2.598   1.898
65188W        W37503  31.468   8.111  13.317
65189W        W37504  31.072   7.022   3.603
65190W        W37505  12.996  25.874  12.034
65191W        W37506  31.236  12.907   3.505
65192W        W37507  36.891  33.553  13.155
65193W        W37508   2.610  34.996  13.605
65194W        W37509  27.143  39.933   3.443
65195W        W37510  21.253  39.482   2.908
65196W        W37511  35.675  40.557  13.250
65197W        W37512  29.419  17.149   4.616
65198W        W37513  15.785  30.674  10.085
65199W        W37514  16.699  19.004   1.916
65200W        W37515  16.276  29.595  11.995
65201W        W37516  18.305  39.186   2.404
65202W        W37517  37.861  43.836   3.433
65203W        W37518  15.595  26.766  10.933
65204W        W37519  40.795  14.247   3.064
65205W        W37520   0.803  22.125  13.468
65206W        W37521  37.527   1.685  10.776
65207W        W37522  10.165  24.521   0.706
65208W        W37523  20.670  44.820   1.344
65209W        W37524   8.195  19.372  13.805
65210W        W37525  32.779  41.937  12.877
65211W        W37526  16.581   6.116   0.853
65212W        W37527  18.316  39.622  12.836
65213W        W37528  12.868  42.000   0.658
65214W        W37529  41.086  20.783  14.829
65215W        W37530  16.820  37.319  13.756
65216W        W37531  20.330  30.459   1.721
65217W        W37532  30.015   8.601   4.755
65218W        W37533  13.421   1.808  14.610
65219W        W37534  25.141   6.655   3.797
65220W        W37535  14.846  12.711   0.121
65221W        W37536  38.940   5.385  11.991
65222W        W37537  29.462  40.273  12.621
65223W        W37538  33.944  21.299  12.629
65224W        W37539  17.314  28.284  14.306
65225W        W37540  36.174  20.440   2.304
65226W        W37541  43.442  39.281  11.580
65227W        W37542  37.823   6.295  13.592
65228W        W37543  19.647  43.446   4.689
65229W        W37544  33.214  12.192   2.124
65230W        W37545  17.693  31.545   4.320
65231W        W37546  12.098  21.159  12.395
65232W        W37547  40.992  23.192  10.916
65233W        W37548  11.288  13.283   4.663
65234W        W37549  29.844  30.437  14.199
65235W        W37550  43.337  44.034  13.372
65236W        W37551  39.513  42.497   2.287
65237W        W37552   6.738  25.515  12.971
65238W        W37553   6.646  12.625   3.255
65239W        W37554   1.377  15.136   4.215
65240W        W37555  33.974   3.255   2.866
65241W        W37556  25.593   3.449  14.529
65242W        W37557  39.560  41.771  10.347
65243W        W37558  25.587  26.719   0.096
65244W        W37559  44.465  44.793   3.619
65245W        W37560   9.637  19.369  12.654
65246W        W37561  22.473  19.544   1.340
65247W        W37562   2.471   3.053  14.955
65248W        W37563  10.210  11.579  11.609
65249W        W37564  30.419   6.695  14.359
65250W        W37565  18.986  31.042   2.729
65251W        W37566  29.067   7.079   0.945
65252W        W37567  44.432  19.757  14.325
65253W        W37568  25.896  37.899  14.760
65254W        W37569  17.869  20.509  12.633
65255W        W37570  11.629  29.742   4.043
65256W        W37571   0.682  15.579  11.653
65257W        W37572   7.151   4.206   0.336
65258W        W37573  26.956  26.740  12.568
65259W        W37574  43.771  14.401  10.710
65260W        W37575  30.934  11.165  13.538
65261W        W37576   7.743  13.190   1.198
65262W        W37577  28.641  31.999   2.805
65263W        W37578  12.699  40.740  12.879
65264W        W37579  20.530  10.186  11.819
65265W        W37580  33.193  43.640   4.764
65266W        W37581  32.412   0.263   0.265
65267W        W37582  14.248   2.980  14.249
65268W        W37583  28.161  29.247  14.741
65269W        W37584   2.942  19.226  13.542
65270W        W37585   4.809   0.507  13.026
65271W        W37586  33.068   7.146  14.206
65272W        W37587   3.453   0.109   3.613
65273W        W37588  12.775  40.931   2.798
65274W        W37589  29.056  12.638   3.198
65275W        W37590  17.083  31.436   0.847
65276W        W37591   0.086  20.035  13.850
65277W        W37592  35.401  17.662   3.724
65278W        W37593  27.426  29.755   2.718
65279W        W37594  38.847   8.839  13.539
65280W        W37595   4.936   5.960  10.654
65281W        W37596  28.394  38.546  12.921
65282W        W37597  28.502  19.968   3.343
65283W        W37598  44.271   4.764   1.984
65284W        W37599  15.066  11.341   2.672
65285W        W37600  25.788  22.436   3.179
65286W        W37601  20.475  41.257   0.915
65287W        W37602   5.312  35.857  10.801
65288W        W37603   5.146  19.762  13.199
65289W        W37604  20.131  32.260  13.430
65290W        W37605  25.956  18.636  12.091
65291W        W37606  32.349   4.417   2.331
65292W        W37607  16.435  36.084   1.178
65293W        W37608  31.033  35.890  10.721
65294W        W37609   2.295  15.249   2.527
65295W        W37610  11.256  16.639  11.370
65296W        W37611  22.176  28.361   3.271
65297W        W37612  16.628  13.225  11.934
65298W        W37613   0.361  21.567   1.844
65299W        W37614  38.169   0.456  11.022
65300W        W37615  26.118  10.234  11.633
65301W        W37616  34.978  18.095  10.374
65302W        W37617  41.931   3.211  14.371
65303W        W37618   9.678   0.427   4.395
65304W        W37619  28.014  33.841  14.994
65305W        W37620  38.350   3.977  14.407
65306W        W37621  18.584  25.048  13.105
65307W        W37622  23.910  14.706  11.041
65308W        W37623  28.605   5.844  12.838
65309W        W37624  17.348  37.840   4.149
65310W        W37625  43.571  40.511   2.339
65311W        W37626   9.697  12.210  11.151
65312W        W37627  37.109  19.399  14.868
65313W        W37628  25.948  12.101   2.772
65314W        W37629  10.691  13.709   2.708
65315W        W37630  18.215  18.111   0.251
65316W        W37631  33.888  31.390   2.780
65317W        W37632  43.942  23.561   0.272
65318W        W37633  20.674  31.010   0.185
65319W        W37634  30.490  24.904  13.327
65320W        W37635  15.244   6.522   4.220
65321W        W37636  31.957   3.032   1.877
65322W        W37637  33.502  37.870   0.435
65323W        W37638  20.451  35.490  14.336
65324W        W37639  32.589   0.590  14.734
65325W        W37640  35.560  28.417  14.544
65326W        W37641  26.266  40.599   4.909
65327W        W37642  44.276  11.326  10.955
65328W        W37643  16.573  13.798  10.762
65329W        W37644  31.063  16.054  14.521
65330W        W37645  36.273  44.812  13.301
65331W        W37646  44.232  10.722   2.828
65332W        W37647  42.300  26.870   0.046
65333W        W37648   7.875  16.660  12.503
65334W        W37649  40.943   5.637   0.693
65335W        W37650   3.233  43.805   2.993
65336W        W37651  30.396  39.330   3.592
65337W        W37652  13.332   4.451   4.369
65338W        W37653  21.759  25.680  12.567
65339W        W37654  19.648  32.926  13.362
65340W        W37655  15.673  25.218   2.936
65341W        W37656  24.656   2.417   3.284
65342W        W37657  36.576   3.106   0.239
65343W        W37658  11.643  31.058   0.015
65344W        W37659  14.910  25.256  14.864
65345W        W37660  36.848  10.540   4.711
65346W        W37661  10.278  30.252   0.762
65347W        W37662  20.619  42.245  11.277
65348W        W37663  28.865   4.435  14.774
65349W        W37664   9.636   4.310   3.240
65350W        W37665   3.209   2.991  10.651
65351W        W37666  38.064  10.224  11.569
65352W        W37667  28.751  23.740   1.731
65353W        W37668  27.108  29.515   0.917
65354W        W37669  23.079  42.451   0.780
65355W        W37670   2.397  21.533  13.755
65356W        W37671   4.732  18.711  12.048
65357W        W37672   4.177  38.073  12.012
65358W        W37673  32.001  10.287  10.099
65359W        W37674  38.396  18.282  14.895
65360W        W37675  22.203   9.270   0.761
65361W        W37676  37.922   3.935  11.036
65362W        W37677  13.556  42.301   1.907
65363W        W37678  22.538  13.790   2.441
65364W        W37679  21.032  19.598  14.434
65365W        W37680  11.684  13.900  14.397
65366W        W37681  26.604  29.891   2.302
65367W        W37682   2.435   2.730   2.129
65368W        W37683  18.135   3.353   2.153
65369W        W37684   8.042  15.634  12.439
65370W        W37685  36.044  10.956   4.979
65371W        W37686  44.734  27.401   0.773
65372W        W37687  34.762  40.839  10.515
65373W        W37688  38.863   3.932   0.235
65374W        W37689  27.620  11.123   2.692
65375W        W37690  36.403   9.146   4.834
65376W        W37691   7.422  20.742   3.590
65377W        W37692   6.323   0.452   1.444
65378W        W37693  10.200  31.194  12.441
65379W        W37694   3.332  40.476  11.168
65380W        W37695  20.989  11.110  11.701
65381W        W37696  38.665   9.735   3.141
65382W        W37697   4.790  42.434   0.747
65383W        W37698   4.109  36.045   5.036
65384W        W37699  18.206  30.508   5.521
65385W        W37700   9.495  12.551   3.371
65386W        W37701   1.298  36.322   0.143
65387W        W37702  32.529  28.460   1.864
65388W        W37703  40.068  39.542  11.984
65389W        W37704  13.118  31.428  14.019
65390W        W37705  22.249  17.512  14.916
65391W        W37706  14.282  20.492  12.046
65392W        W37707   7.407  25.169   1.577
65393W        W37708  44.785  27.911  14.894
65394W        W37709  26.014  42.758  11.121
65395W        W37710  34.438  31.066  10.630
65396W        W37711  11.096  19.536  13.960
65397W        W37712   2.440  18.998  13.419
65398W        W37713  30.627  31.212  12.538
65399W        W37714  44.966  44.640   0.326
65400W        W37715  37.049  36.405   3.685
65401W        W37716  31.390   7.298   0.960
65402W        W37717  44.069  23.866   2.148
65403W        W37718   7.310  44.960  14.241
65404W        W37719  18.179  13.131  11.944
65405W        W37720  30.611  17.375   1.306
65406W        W37721  26.115  16.654   1.180
65407W        W37722  25.668   6.128  11.028
65408W        W37723  15.080   1.349  12.256
65409W        W37724  36.101  14.271   0.686
65410W        W37725  32.533  23.010   3.108
65411W        W37726  22.010  23.316  13.885
65412W        W37727  20.979  10.695   3.231
65413W        W37728  38.088  21.649  10.988
65414W        W37729  16.106  23.408  14.056
65415W        W37730  35.324  17.750  10.591
65416W        W37731  37.960  24.051   3.417
65417W        W37732   4.205  20.383  12.167
65418W        W37733  43.155  35.046  14.142
65419W        W37734  40.979   8.219  10.857
65420W        W37735  16.145  13.386   0.027
65421W        W37736  23.185  37.163  11.922
65422W        W37737  33.642  41.439  13.489
65423W        W37738  27.672   0.007   4.036
65424W        W37739   0.826  22.957   3.768
65425W        W37740  15.139  28.815  13.288
65426W        W37741   9.066  42.924  12.887
65427W        W37742  30.861  41.835   0.951
65428W        W37743  40.606  22.547   3.319
65429W        W37744   8.818  12.591  11.167
65430W        W37745  14.849   4.568  11.554
65431W        W37746  31.977  21.218   4.947
65432W        W37747  25.529  12.383  13.037
65433W        W37748  41.286  16.101  11.202
65434W        W37749  13.938   7.201  12.513
65435W        W37750  16.366  15.477   0.352
65436W        W37751  29.672  38.015   3.772
65437W        W37752  19.504  14.168  12.508
65438W        W37753  39.860  17.789   0.386
65439W        W37754   1.924  41.469   4.223
65440W        W37755   9.714  34.126   1.308
65441W        W37756  11.814  32.968   1.832
65442W        W37757  43.616   4.347   4.124
65443W        W37758  36.462  11.645  14.728
65444W        W37759  18.537  40.521  14.993
65445W        W37760  44.849  26.857  12.823
65446W        W37761  14.294  15.046  12.362
65447W        W37762  19.694  13.554  13.416
65448W        W37763   8.920  28.112   4.207
65449W        W37764  18.573  22.644  14.256
65450W        W37765  44.850  25.213   3.642
65451W        W37766  38.987  42.059  11.873
65452W        W37767  36.348  29.155  11.207
65453W        W37768   1.927   6.411  14.476
65454W        W37769  31.399  38.445  10.760
65455W        W37770  20.117  17.596   3.149
65456W        W37771  31.698  17.329   3.345
65457W        W37772  11.209  38.979  14.348
65458W        W37773  43.432  35.324  13.792
65459W        W37774  31.791  19.128   5.162
65460W        W37775  32.594  41.939   4.658
65461W        W37776  38.497   1.991   0.187
65462W        W37777  16.658   3.811  13.605
65463W        W37778   4.421   5.469   2.266
65464W        W37779   3.007  12.566  10.809
65465W        W37780  44.448  42.542  13.432
65466W        W37781   2.336  25.107   2.797
65467W        W37782  28.229  32.038  14.912
65468W        W37783  30.991  35.261  12.288
65469W        W37784  36.487  37.696   3.644
65470W        W37785  17.136  36.550   4.365
65471W        W37786  18.636  11.650   1.255
65472W        W37787  16.026  23.127   1.809
65473W        W37788  40.249  22.763   1.883
65474W        W37789  30.426  33.827  14.328
65475W        W37790  21.459  41.509  14.803
65476W        W37791  20.740  39.077  14.896
65477W        W37792  18.311   4.896  11.980
65478W        W37793  25.211  10.871   0.320
65479W        W37794   4.936  19.343  12.898
65480W        W37795   1.286  18.036  12.601
65481W        W37796  36.782  32.065  14.367
65482W        W37797  27.771  37.835   3.808
65483W        W37798  22.539  15.622  13.447
65484W        W37799   2.120  20.113   2.683
65485W        W37800  38.506  12.221   1.411
65486W        W37801  16.709  41.422   2.636
65487W        W37802  18.014  11.716   4.329
65488W        W37803  21.013  23.785   3.290
65489W        W37804  44.370   1.009  13.487
65490W        W37805  18.067  39.495   4.307
65491W        W37806  40.354  32.440   0.924
65492W        W37807  18.894  43.347   3.262
65493W        W37808   7.344   2.241  12.660
65494W        W37809  20.208  33.895  12.600
65495W        W37810  36.602  29.550  11.061
65496W        W37811  28.615  23.198   1.680
65497W        W37812  36.599  37.242  13.910
65498W        W37813  39.131  28.917   2.448
65499W        W37814  10.171  10.131  11.722
65500W        W37815  39.492  37.996   4.313
65501W        W37816  21.527  36.637  13.420
65502W        W37817  33.967  30.586   0.427
65503W        W37818  33.588  34.949   2.219
65504W        W37819  44.966  41.943  12.525
65505W        W37820  28.282  31.919   0.429
65506W        W37821  28.868  41.217   4.874
65507W        W37822   3.269  38.908  10.509
65508W        W37823  34.822  32.145  11.191
65509W        W37824  21.227  42.649   2.424
65510W        W37825  39.497   4.508  13.657
65511W        W37826  27.112  33.850   3.264
65512W        W37827   5.314  37.263   1.164
65513W        W37828   6.271  34.576  11.580
65514W        W37829  34.029  29.836  12.297
65515W        W37830   8.775  10.901  14.427
65516W        W37831  27.620   4.952  10.706
65517W        W37832   5.841  41.376   1.709
65518W        W37833  17.290  28.647   1.918
65519W        W37834   7.768   2.524   0.940
65520W        W37835  34.745  10.621  14.887
65521W        W37836  14.525   6.945  11.432
65522W        W37837  38.644   8.406  13.135
65523W        W37838  12.399  33.313  11.046
65524W        W37839  37.376  24.533  12.531
65525W        W37840  30.587  42.971   0.370
65526W        W37841  25.195  39.913  10.715
65527W        W37842  21.172  43.319  10.453
65528W        W37843  18.049  29.136   1.445
65529W        W37844  42.110  37.498   0.267
65530W        W37845  29.022   7.572   5.003
65531W        W37846   5.039  15.128   1.362
65532W        W37847  12.298   8.665   1.208
65533W        W37848  37.659  36.042   3.195
65534W        W37849   6.180  26.495  10.732
65535W        W37850  14.272  39.342   3.663
65536W        W37851  20.079  10.570   2.329
65537W        W37852  44.812   7.568  13.672
65538W        W37853  23.369   0.362   3.257
65539W        W37854  42.809  15.016   2.147
65540W        W37855  27.204  22.242   3.173
65541W        W37856   6.299  15.742  10.210
65542W        W37857  20.563  41.106   2.729
65543W        W37858  37.804  19.143  12.380
65544W        W37859  34.874  16.509  12.449
65545W        W37860   8.567  37.962  13.537
65546W        W37861  43.134   9.082  11.159
65547W        W37862  34.586  26.970  10.674
65548W        W37863  35.443  43.935   1.759
65549W        W37864  26.713  14.015  14.284
65550W        W37865  21.687  22.703  11.095
65551W        W37866   3.414  35.188   3.864
65552W        W37867   1.150  17.302  10.777
65553W        W37868  16.238  25.968   1.738
65554W        W37869  23.622  10.255  14.181
65555W        W37870  41.926   3.277  10.736
65556W        W37871  16.269  14.923  13.930
65557W        W37872  11.708  43.972   1.250
65558W        W37873   5.941  33.080   2.313
65559W        W37874  39.353  11.587   4.324
65560W        W37875   6.454   9.906  12.897
65561W        W37876  37.311  36.783  12.546
65562W        W37877  11.417  35.862  12.586
65563W        W37878  10.369  15.009  13.287
65564W        W37879  40.382  18.506   4.085
65565W        W37880  11.548  18.414   1.211
65566W        W37881  10.815  40.433   2.430
65567W        W37882   7.498  28.229   3.701
65568W        W37883   3.795  44.383  13.315
65569W        W37884  21.164  23.119   3.628
65570W        W37885  15.304  15.080   0.798
65571W        W37886  10.986  44.895  10.510
65572W        W37887  22.049  31.943   0.825
65573W        W37888  18.319   2.380  13.396
65574W        W37889  35.921  12.668   1.965
65575W        W37890   9.969  14.360  13.071
65576W        W37891   6.225  23.461   3.673
65577W        W37892  41.335  44.197   4.922
65578W        W37893   9.781  30.806  11.699
65579W        W37894  43.934  14.090   5.062
65580W        W37895   4.762  21.033  11.018
65581W        W37896  34.837  16.193   2.228
65582W        W37897  17.380  30.543   3.501
65583W        W37898  23.003  24.055  14.758
65584W        W37899   8.181  28.689  14.825
65585W        W37900  29.241  20.363  14.428
65586W        W37901  38.973  39.780  10.710
65587W        W37902  19.591  16.496   0.445
65588W        W37903   4.754   9.959   1.819
65589W        W37904  11.664  38.774  12.797
65590W        W37905  10.803   2.067   0.726
65591W        W37906  33.760   6.258   5.059
65592W        W37907  13.595  39.209  13.350
65593W        W37908  11.383   7.594   1.382
65594W        W37909  42.610  17.038   4.483
65595W        W37910  44.027  37.356   4.103
65596W        W37911  34.909  38.275  12.458
65597W        W37912  34.162  44.535  11.917
65598W        W37913   6.482  31.505   0.623
65599W        W37914  34.867  40.412  12.670
65600W        W37915  17.291  13.591  12.460
65601W        W37916  26.540  43.445   2.316
65602W        W37917  10.850  34.564   4.351
65603W        W37918  40.283  33.335   1.062
65604W        W37919  36.739   0.342  14.518
65605W        W37920  38.881  32.472  10.918
65606W        W37921   7.245  33.848   1.837
65607W        W37922  10.265  38.605  12.456
65608W        W37923  24.616  35.174   2.102
65609W        W37924  42.518  25.600   1.633
65610W        W37925  36.049  17.270  12.647
65611W        W37926  29.828  12.663  13.386
65612W        W37927  14.288  23.022  12.011
65613W        W37928  26.456   7.393   3.244
65614W        W37929  31.396  32.922  14.912
65615W        W37930  41.472   1.775  11.695
65616W        W37931   6.150  34.818  11.132
65617W        W37932   7.113  39.275  14.464
65618W        W37933  29.659  39.837  12.823
65619W        W37934  33.066  36.122  13.423
65620W        W37935  27.700  17.213   1.339
65621W        W37936  44.480  35.561   0.874
65622W        W37937  17.679   5.480  14.704
65623W        W37938  24.646  20.207   3.946
65624W        W37939  26.616  33.680   1.843
65625W        W37940   0.352  25.684  11.119
65626W        W37941  43.699   3.503  13.946
65627W        W37942   6.351  39.625   1.069
65628W        W37943  24.269  11.523  12.274
65629W        W37944  26.900  31.954   3.177
65630W        W37945  36.976  24.411   2.221
65631W        W37946  12.232   2.840  10.269
65632W        W37947  30.574  32.608   4.882
65633W        W37948  28.637  36.566  11.608
65634W        W37949  18.246  17.768   2.689
65635W        W37950  14.863   1.176  11.015
65636W        W37951  24.707  17.886  13.987
65637W        W37952  12.182  14.834   1.217
65638W        W37953  28.132  41.928   0.993
65639W        W37954  14.718  30.891  11.570
65640W        W37955   3.822   7.395  11.931
65641W        W37956  44.997   6.551  13.388
65642W        W37957  26.997  15.415   2.784
65643W        W37958  32.043   5.747   3.684
65644W        W37959  20.675   7.868  12.442
65645W        W37960  34.215  36.534   3.295
65646W        W37961  39.553  20.080   0.815
65647W        W37962  24.188  42.848  14.899
65648W        W37963  43.819  37.407   2.313
65649W        W37964   5.756  14.319   4.611
65650W        W37965  20.062   2.010   1.732
65651W        W37966  11.870  43.305  10.941
65652W        W37967  27.065  23.218   2.379
65653W        W37968  42.988  30.151   2.193
65654W        W37969  19.265   9.521  10.179
65655W        W37970  11.807  28.998   1.304
65656W        W37971  40.379   7.125   0.755
65657W        W37972   2.759  36.419   1.167
65658W        W37973  13.781  15.812   4.059
65659W        W37974  39.836   5.263  14.719
65660W        W37975  23.501  34.194  14.696
65661W        W37976  39.544  34.970   4.781
65662W        W37977  13.306  37.562  11.608
65663W        W37978   0.035   1.153   0.529
65664W        W37979  29.177  12.772  12.379
65665W        W37980  41.027   9.608  11.030
65666W        W37981  26.213   4.685  11.989
65667W        W37982  28.091  26.161  13.588
65668W        W37983  21.741  40.376  10.882
65669W        W37984   9.357  17.181  10.158
65670W        W37985   7.416  20.753  14.286
65671W        W37986  39.893  26.635   0.206
65672W        W37987  24.595  11.386   0.025
65673W        W37988  36.945  20.648   1.715
65674W        W37989   7.275  28.691   0.322
65675W        W37990  44.751  36.250   0.190
65676W        W37991   1.483  11.823   4.092
65677W        W37992  11.838  32.354  11.978
65678W        W37993  44.421  22.286  11.642
65679W        W37994  10.044   0.894  12.890
65680W        W37995  39.078  22.792  13.478
65681W        W37996   4.287  31.928   1.796
65682W        W37997  23.469  44.802   2.370
65683W        W37998  27.098  32.466   0.494
65684W        W37999  39.778   7.173  13.471
65685W        W38000  14.344  29.047   0.008
65686W        W38001  16.108  32.989   4.532
65687W        W38002  15.333  34.045   0.867
65688W        W38003  30.392  12.261   0.792
65689W        W38004   2.741  19.600   0.387
65690W        W38005  16.703  42.105  14.223
65691W        W38006  17.484  36.133   1.254
65692W        W38007   4.922  17.539   1.413
65693W        W38008  29.574  32.091  11.060
65694W        W38009   4.911  35.365  14.737
65695W        W38010  37.446  10.103   4.351
65696W        W38011  35.149  37.528   4.044
65697W        W38012  38.885  34.386  14.845
65698W        W38013  43.573   1.546  13.096
65699W        W38014   6.302  30.401  14.279
65700W        W38015  41.536  37.765  11.409
65701W        W38016  11.199   5.784   2.235
65702W        W38017  30.498  41.749  10.697
65703W        W38018  33.031  28.477  14.483
65704W        W38019  44.965  44.979  14.003
65705W        W38020  20.027  42.494   1.836
65706W        W38021  14.039  34.874   3.788
65707W        W38022  41.807   4.896   2.813
65708W        W38023   7.619  33.473   4.620
65709W        W38024  17.040  37.046   4.261
65710W        W38025  20.850   0.777  14.859
65711W        W38026   4.110  15.185   2.274
65712W        W38027  36.781  10.578  13.346
65713W        W38028  14.322   6.332   0.780
65714W        W38029  14.094  27.888  12.419
65715W        W38030  15.733   0.451   3.400
65716W        W38031  31.482  36.358   4.537
65717W        W38032  24.154  11.264   2.785
65718W        W38033  19.273  40.917  13.361
65719W        W38034  22.736   1.728   3.762
65720W        W38035  34.023  35.362   0.532
65721W        W38036  22.136  37.933   3.630
65722W        W38037   1.269  27.968   3.098
65723W        W38038  17.997  44.957  14.492
65724W        W38039  31.619  21.472  14.405
65725W        W38040  11.109   2.371  10.621
65726W        W38041   7.188  41.648  14.513
65727W        W38042  29.871  44.306   1.818
65728W        W38043  31.007  12.713   2.554
65729W        W38044   4.019   3.399  12.448
65730W        W38045  43.335   0.715  11.316
65731W        W38046   8.348  24.116  10.953
65732W        W38047  41.090  39.782   3.008
65733W        W38048   7.401  36.476  13.547
65734W        W38049   7.829   8.136  14.086
65735W        W38050  22.495  14.727  11.211
65736W        W38051  25.990   6.626  11.972
65737W        W38052   4.719   3.013  14.299
65738W        W38053  24.701   5.984   3.314
65739W        W38054  32.886  43.436  12.086
65740W        W38055  41.046  11.159  11.805
65741W        W38056  11.117  44.999  12.447
65742W        W38057  43.851  16.708   1.170
65743W        W38058  13.754  16.888  14.769
65744W        W38059  13.097  17.119   3.609
65745W        W38060  28.149  24.785  13.381
65746W        W38061  22.746  32.018   4.568
65747W        W38062  11.232   6.567   0.319
65748W        W38063  42.575  35.876  11.392
65749W        W38064   7.819  38.595   3.572
65750W        W38065  12.752   0.800  11.665
65751W        W38066   7.189  34.680  12.519
65752W        W38067  43.437   0.329  10.519
65753W        W38068  19.287  43.958   1.775
65754W        W38069  27.141  10.455   2.331
65755W        W38070  13.536  15.205  11.401
65756W        W38071  29.213   5.817  14.704
65757W        W38072  15.045  42.305  11.923
65758W        W38073  41.887   7.764   0.984
65759W        W38074  31.167  42.278   2.641
65760W        W38075   1.996   8.756  13.167
65761W        W38076  33.347  13.121   0.284
65762W        W38077  13.272  26.173   1.288
65763W        W38078  24.158  15.884  10.319
65764W        W38079   0.208  20.996  12.536
65765W        W38080  36.463  32.299   4.553
65766W        W38081  11.352  43.958  13.023
65767W        W38082  30.397  30.235   3.968
65768W        W38083  21.623  41.636  13.932
65769W        W38084  28.064   9.381   1.970
65770W        W38085  22.344  35.272  11.564
65771W        W38086   0.364  35.347  13.736
65772W        W38087  19.077   0.060   1.054
65773W        W38088   9.335  37.896   1.715
65774W        W38089  29.900  41.356   4.742
65775W        W38090   5.161   5.414  12.099
65776W        W38091  21.515  16.406   3.726
65777W        W38092  30.972  33.086   3.712
65778W        W38093  42.545  33.960   1.990
65779W        W38094  19.317  18.935  11.161
65780W        W38095  44.353  15.282   1.219
65781W        W38096  41.432  18.990  14.936
65782W        W38097  27.213  25.051  12.031
65783W        W38098   9.465  17.829   0.817
65784W        W38099  16.982  24.476   0.165
65785W        W38100  31.582  28.739   1.863
65786W        W38101  41.562  26.117   3.662
65787W        W38102  30.335   5.789  11.505
65788W        W38103  12.238  35.899  14.242
65789W        W38104  30.236   9.202  13.163
65790W        W38105   1.464  34.645   3.083
65791W        W38106   9.107  17.878  14.969
65792W        W38107  40.994  13.862  12.557
65793W        W38108  31.993   4.861   3.339
65794W        W38109  43.796   3.020  12.464
65795W        W38110  26.989  44.397   4.314
65796W        W38111  28.166   0.165   1.689
65797W        W38112  37.407  16.176  14.877
65798W        W38113  23.632  15.764   0.413
65799W        W38114  27.613  29.452  11.671
65800W        W38115  24.369   0.676  10.252
65801W        W38116   9.293  41.265  14.069
65802W        W38117   3.477  23.136  12.807
65803W        W38118  36.596  34.396  14.530
65804W        W38119  26.216  41.845  12.351
65805W        W38120  28.407  14.168  11.123
65806W        W38121  38.454  26.798  12.406
65807W        W38122  40.936  12.632  11.970
65808W        W38123  40.297  37.544  13.438
65809W        W38124  26.642  22.301   1.872
65810W        W38125   7.376  14.547  14.543
65811W        W38126  39.553  29.611   1.030
65812W        W38127  42.740  36.670   3.233
65813W        W38128  13.725  14.704   0.463
65814W        W38129  33.092   6.788   0.487
65815W        W38130  24.105  26.996  14.364
65816W        W38131  35.162  15.202   1.022
65817W        W38132  16.280  38.837  13.442
65818W        W38133  32.787  14.646  13.488
65819W        W38134  38.928  30.306   2.685
65820W        W38135  36.403  22.529   4.752
65821W        W38136  27.759  23.151   3.655
65822W        W38137  32.385  36.055  11.990
65823W        W38138   3.194  26.437  12.522
65824W        W38139  26.619  17.179  14.330
65825W        W38140  26.981   6.723   2.394
65826W        W38141  24.680  24.423  13.267
65827W        W38142   8.824  41.787   3.424
65828W        W38143  22.083  44.810   3.188
65829W        W38144  17.607   5.930  10.442
65830W        W38145  42.510  40.829   0.793
65831W        W38146  19.073  16.337  12.079
65832W        W38147   5.639   1.871  13.755
65833W        W38148  12.758   0.359   1.908
65834W        W38149  25.069  38.943  13.481
65835W        W38150  36.071  22.436   0.063
65836W        W38151  38.230  24.216  12.439
65837W        W38152  33.316  14.698  11.234
65838W        W38153  31.478  12.851  11.095
65839W        W38154  37.274  44.499   0.625
65840W        W38155  43.789  22.625  14.777
65841W        W38156  36.339  25.990  13.028
65842W        W38157   8.790   3.238  13.009
65843W        W38158   6.183   7.240   1.323
65844W        W38159  44.718  10.685   2.680
65845W        W38160   3.700  20.444   3.208
65846W        W38161  18.748  39.049  13.094
65847W        W38162  18.658  32.584   4.530
65848W        W38163  20.670  15.512   1.991
65849W        W38164  18.690  19.534  10.471
65850W        W38165  30.664  21.844  14.362
65851W        W38166   0.854  38.098   4.171
65852W        W38167  33.150  10.200   4.504
65853W        W38168  36.376   7.787   4.513
65854W        W38169  34.048  21.135  11.606
65855W        W38170   3.537  19.241  14.271
65856W        W38171   1.713  30.890  11.407
65857W        W38172  39.025  23.948  14.427
65858W        W38173   9.680  12.431  14.468
65859W        W38174   8.849   4.922   0.407
65860W        W38175  44.848   2.663   0.090
65861W        W38176  13.622  36.964  13.742
65862W        W38177  19.156  12.342  11.637
65863W        W38178  27.714  24.709  11.110
65864W        W38179  20.019  38.913   4.052
65865W        W38180  12.285  19.526  12.117
65866W        W38181   9.997   9.211   3.579
65867W        W38182   7.313  15.307   4.172
65868W        W38183  19.581  34.237  11.245
65869W        W38184  15.829   0.767   1.279
65870W        W38185  38.605  40.343   1.275
65871W        W38186   7.509  30.470  10.303
65872W        W38187  41.543  41.709  14.285
65873W        W38188  16.280   7.983  14.028
65874W        W38189   4.096  22.979  11.182
65875W        W38190  34.046  41.229   2.740
65876W        W38191  30.544  27.180   4.647
65877W        W38192  44.674   3.458  13.591
65878W        W38193  15.213  31.988  14.329
65879W        W38194  38.393  38.252   0.372
65880W        W38195  24.730  22.126   0.866
65881W        W38196  37.575  13.139   0.239
65882W        W38197  38.502  15.344   0.795
65883W        W38198  34.586  14.127   4.535
65884W        W38199  16.852  13.428  13.216
65885W        W38200  10.591  24.247   0.866
65886W        W38201  12.118   1.965   1.883
65887W        W38202  33.334  34.361  12.902
65888W        W38203  31.162  44.467  12.041
65889W        W38204  10.936  28.562   0.953
65890W        W38205  34.993   1.898  12.608
65891W        W38206  21.639  37.280   3.264
65892W        W38207  26.601  21.195  12.923
65893W        W38208   2.933  21.574   2.740
65894W        W38209  34.635   6.849  12.601
65895W        W38210   4.302  24.062  11.985
65896W        W38211  44.044  12.159   2.827
65897W        W38212  15.794   8.502   4.890
65898W        W38213   1.713  34.433  14.817
65899W        W38214  28.411  21.809   1.892
65900W        W38215  22.700  33.960  12.393
65901W        W38216  41.358  18.995   2.831
65902W        W38217  14.461  14.545   2.190
65903W        W38218  37.321  34.830   2.253
65904W        W38219  15.199  12.076  12.230
65905W        W38220  19.757   0.390   3.480
65906W        W38221   8.928  44.190  10.051
65907W        W38222  33.304   4.732   2.269
65908W        W38223  29.642  30.511  11.234
65909W        W38224   9.712   6.387   2.761
65910W        W38225  44.342   8.637   0.189
65911W        W38226   4.407   6.801  10.526
65912W        W38227  43.548  42.274  11.538
65913W        W38228   3.757  24.285   1.331
65914W        W38229   5.697  18.763   3.542
65915W        W38230   2.014   5.856   4.552
65916W        W38231  30.660   4.476   0.348
65917W        W38232   5.753   0.346   3.325
65918W        W38233  11.991  28.272   3.329
65919W        W38234  25.326   2.684  14.911
65920W        W38235  38.405  12.345  14.189
65921W        W38236  44.711  29.044   2.658
65922W        W38237  16.115   0.861   0.857
65923W        W38238  31.728   0.183  12.398
65924W        W38239  29.909  30.236  13.718
65925W        W38240  21.113  12.913   4.105
65926W        W38241   6.136  21.742   3.004
65927W        W38242  16.229  13.785  11.539
65928W        W38243  27.932  39.924  14.748
65929W        W38244  30.042  16.289  12.577
65930W        W38245   7.762   2.902   0.007
65931W        W38246  27.184  13.603  10.996
65932W        W38247  14.607  34.429  10.915
65933W        W38248   1.781  36.519   2.295
65934W        W38249   1.712  21.250  11.128
65935W        W38250  38.376  44.169   3.223
65936W        W38251  28.062   3.372   1.664
65937W        W38252  28.866  43.014  11.586
65938W        W38253  13.530  40.248   2.722
65939W        W38254   5.857  34.378   0.257
65940W        W38255   5.600   9.628  11.293
65941W        W38256  15.127   0.471   2.669
65942W        W38257   6.170  39.579   1.865
65943W        W38258  11.603  14.064   1.599
65944W        W38259  41.719  11.250   1.339
65945W        W38260   5.896  18.357   3.814
65946W        W38261  15.028  42.519   1.741
65947W        W38262  15.119  41.028  11.465
65948W        W38263  15.119   8.131  14.000
65949W        W38264  11.349  15.569  11.522
65950W        W38265  17.699  12.294   0.809
65951W        W38266  40.795  20.460  13.961
65952W        W38267   8.918  34.478   0.765
65953W        W38268  30.069  15.304  10.404
65954W        W38269  21.134   7.972   1.816
65955W        W38270  17.613  43.479   1.178
65956W        W38271   9.103  28.272  12.577
65957W        W38272  30.477  10.189  12.076
65958W        W38273  36.977  37.799   4.935
65959W        W38274  28.968  11.416  10.586
65960W        W38275  43.482  14.742   0.480
65961W        W38276  42.843   3.613  11.994
65962W        W38277   0.786   4.805  11.109
65963W        W38278  14.157  34.646   4.673
65964W        W38279  40.677  39.913  13.559
65965W        W38280   7.669  27.166   2.346
65966W        W38281  25.720  20.490   5.047
65967W        W38282  18.805  16.667   1.414
65968W        W38283   5.928  21.681  10.590
65969W        W38284  35.843  32.686   0.608
65970W        W38285  24.025  21.160   5.311
65971W        W38286  29.095   3.652  12.987
65972W        W38287  16.201  21.121  13.788
65973W        W38288  15.677   9.369  12.921
65974W        W38289   7.186  30.628  14.901
65975W        W38290  35.034  10.913   3.762
65976W        W38291  17.742  33.071   1.140
65977W        W38292   4.727  17.784  14.443
65978W        W38293  29.549  17.229   0.528
65979W        W38294   3.262   3.752  11.756
65980W        W38295  33.245  11.625  12.437
65981W        W38296  36.863   5.698  14.925
65982W        W38297  39.796  31.648   4.465
65983W        W38298  28.409  18.179   4.223
65984W        W38299  10.064  41.848  12.179
65985W        W38300  10.892  30.542   3.882
65986W        W38301   1.361  27.162  14.270
65987W        W38302  10.300   8.753  12.163
65988W        W38303  31.435  24.461   4.137
65989W        W38304  26.230  15.608  11.192
65990W        W38305  28.641  12.348   3.191
65991W        W38306  14.166  23.595  13.997
65992W        W38307  22.749  29.379   1.664
65993W        W38308   3.969  37.901   1.231
65994W        W38309  40.113  11.166   2.748
65995W        W38310  30.606  28.949  10.902
65996W        W38311  28.066  28.230   4.751
65997W        W38312  22.102   1.741   3.812
65998W        W38313  34.226   5.897  11.098
65999W        W38314  38.328  23.676   1.240
66000W        W38315  15.831  15.402   3.253
66001W        W38316  22.748  16.814   0.781
66002W        W38317  15.794   4.405  10.789
66003W        W38318  28.629   8.308  11.430
66004W        W38319  21.218  16.543   3.184
66005W        W38320  34.718  42.583   0.225
66006W        W38321  11.337   4.881  14.042
66007W        W38322  12.395  44.779   2.292
66008W        W38323   3.989  42.907  10.621
66009W        W38324  12.298  18.106  10.192
66010W        W38325  31.634  28.069   0.960
66011W        W38326  21.215  19.993  11.413
66012W        W38327   1.738  19.173   2.705
66013W        W38328  13.660  36.979   2.696
66014W        W38329  43.404  36.152  14.796
66015W        W38330  42.353   3.438   3.673
66016W        W38331   4.765   8.871  11.925
66017W        W38332   9.771  14.139   3.340
66018W        W38333  32.504  20.715   4.027
66019W        W38334  25.561  18.087   3.681
66020W        W38335  40.284  40.912   4.881
66021W        W38336   1.190  10.246  11.138
66022W        W38337  26.770  19.129   1.751
66023W        W38338   9.746  18.948   4.631
66024W        W38339  39.134  37.635   4.807
66025W        W38340  21.605  23.566  14.069
66026W        W38341  37.852  13.462  14.906
66027W        W38342   7.777  12.041  10.767
66028W        W38343  26.978  22.521   4.337
66029W        W38344   7.912  38.582  13.297
66030W        W38345   3.879  41.524  12.454
66031W        W38346  10.443  32.974   0.776
66032W        W38347   6.376  32.882   4.082
66033W        W38348  10.434  18.993  11.083
66034W        W38349  30.759  22.940   0.919
66035W        W38350   7.528  24.289   1.736
66036W        W38351  14.900   0.874   2.896
66037W        W38352  39.375  21.263  14.937
66038W        W38353  25.034   3.583   3.300
66039W        W38354  11.459  15.667  10.547
66040W        W38355  39.051  38.417  11.112
66041W        W38356  31.397   8.687   3.358
66042W        W38357   9.835  34.650  13.937
66043W        W38358  20.189  18.361  14.420
66044W        W38359  33.547  36.407  12.283
66045W        W38360  13.339   0.327   4.107
66046W        W38361  36.940   4.897  13.161
66047W        W38362  43.201  44.922   0.306
66048W        W38363  38.663   1.755   4.165
66049W        W38364  32.584  16.021   4.592
66050W        W38365  27.598  41.030  13.054
66051W        W38366   8.786  33.648   1.174
66052W        W38367  19.353  31.500  10.506
66053W        W38368  18.045  17.107   1.203
66054W        W38369  20.192  29.737  13.069
66055W        W38370  37.611  25.920   1.228
66056W        W38371  38.330   4.957   1.117
66057W        W38372  17.770  38.901  10.972
66058W        W38373  42.334  44.353   4.146
66059W        W38374  43.829  42.324   2.977
66060W        W38375  24.972  41.146  12.907
66061W        W38376  36.383  26.598   2.242
66062W        W38377  28.624  23.696  11.987
66063W        W38378  41.038   2.905  11.045
66064W        W38379   5.726  34.641   3.774
66065W        W38380  27.065   6.682   4.643
66066W        W38381  20.189   3.247  13.572
66067W        W38382  12.396  31.572  11.635
66068W        W38383   1.976  32.326   1.438
66069W        W38384  32.131  26.566   0.113
66070W        W38385  35.936  11.944   3.791
66071W        W38386   8.381  25.039  13.480
66072W        W38387   9.831   3.309  11.569
66073W        W38388  19.054  24.555  10.903
66074W        W38389   6.739   7.439   4.010
66075W        W38390  16.119  10.719   3.842
66076W        W38391   6.874  19.622   2.128
66077W        W38392   6.691  40.851   3.126
66078W        W38393  27.952  13.144  14.840
66079W        W38394  27.627  24.913   1.989
66080W        W38395  12.688  41.808   3.217
66081W        W38396  27.935  10.258  11.869
66082W        W38397   4.168   5.084  12.035
66083W        W38398  29.044  16.266  14.945
66084W        W38399  41.324  28.489   3.594
66085W        W38400  33.433  26.660   5.184
66086W        W38401   5.845  10.194  13.499
66087W        W38402  25.461  44.731  13.858
66088W        W38403  10.168  27.122  13.120
66089W        W38404   4.366  10.710  12.026
66090W        W38405  40.451  13.366  13.411
66091W        W38406  12.245  42.415   1.141
66092W        W38407  17.281  19.291  13.498
66093W        W38408  33.955  10.474  14.809
66094W        W38409  29.949  19.486   3.502
66095W        W38410  16.413  43.924  13.793
66096W        W38411  21.742  15.814   0.038
66097W        W38412  27.018  38.449  12.812
66098W        W38413  10.672  10.751  14.955
66099W        W38414  36.088  32.842   4.131
66100W        W38415   6.137  11.839   3.731
66101W        W38416  24.451  26.334   0.875
66102W        W38417  24.259  26.047  14.801
66103W        W38418   9.268   0.442   4.043
66104W        W38419   0.364  25.625  14.799
66105W        W38420   6.452  11.691   0.766
66106W        W38421  24.685  21.391   0.458
66107W        W38422   4.220  27.561  11.536
66108W        W38423  21.999  25.756  13.400
66109W        W38424  22.443  25.639  13.820
66110W        W38425  35.605  30.676   1.354
66111W        W38426  36.006  13.256  10.494
66112W        W38427   0.405   4.307  14.361
66113W        W38428  32.074  32.300   4.668
66114W        W38429  14.068  17.653  11.820
66115W        W38430  27.736  17.651  12.384
66116W        W38431  20.019  22.301  12.949
66117W        W38432   2.438  25.233  13.387
66118W        W38433  17.169  21.325  13.378
66119W        W38434  17.541  38.797  13.873
66120W        W38435   9.129  42.429   4.538
66121W        W38436   9.963  12.536  13.970
66122W        W38437   0.290   8.747  10.619
66123W        W38438  42.167   1.371  13.134
66124W        W38439  14.671  43.349   0.249
66125W        W38440  32.927  38.404  11.547
66126W        W38441  23.512  28.586   2.469
66127W        W38442  38.032  18.671  14.035
66128W        W38443   4.125  44.942   2.019
66129W        W38444  24.528  34.266   3.660
66130W        W38445   1.106  15.234   3.780
66131W        W38446  15.736  16.720  13.268
66132W        W38447  26.601  13.859   4.605
66133W        W38448  36.605  33.219  11.897
66134W        W38449  24.499  43.974   0.739
66135W        W38450  12.867  43.248   3.747
66136W        W38451  43.359  10.641  10.787
66137W        W38452  42.871  14.159  10.475
66138W        W38453  40.505  13.836   1.602
66139W        W38454  14.168  28.438   0.839
66140W        W38455  28.544  40.726  14.873
66141W        W38456  24.227  15.298  13.001
66142W        W38457  24.653  39.270   3.241
66143W        W38458  11.716   6.758  11.423
66144W        W38459  36.764   9.679  11.184
66145W        W38460   2.597   9.402  12.753
66146W        W38461  13.256  15.350  13.270
66147W        W38462  14.152  32.171  14.847
66148W        W38463   9.310  21.133  10.716
66149W        W38464  13.743  39.338   1.174
66150W        W38465  20.300   9.860  12.278
66151W        W38466   4.163  34.153  13.036
66152W        W38467   2.393  39.553  11.948
66153W        W38468   8.081  33.112  12.425
66154W        W38469  24.359  15.584  13.436
66155W        W38470  16.163  38.979   2.665
66156W        W38471  38.788  41.309  12.396
66157W        W38472  26.648  34.183   1.755
66158W        W38473   6.647  22.655  14.921
66159W        W38474  37.988   4.932  14.219
66160W        W38475  33.559  27.897  13.477
66161W        W38476  33.930   7.260   3.779
66162W        W38477  16.355  30.130  10.709
66163W        W38478  25.205  38.804   1.679
66164W        W38479  34.442  15.812   0.951
66165W        W38480   3.530  28.142  13.759
66166W        W38481  43.498  10.865  14.863
66167W        W38482  44.520  17.091  14.862
66168W        W38483  29.082  23.820   0.635
66169W        W38484  41.322  15.380  10.465
66170W        W38485  29.689   5.969   2.155
66171W        W38486  34.888   0.471  11.530
66172W        W38487   2.739  40.991   0.911
66173W        W38488  43.929  41.425  11.231
66174W        W38489  10.631   5.419   4.570
66175W        W38490  36.883  39.774  12.391
66176W        W38491   8.987   2.765   0.430
66177W        W38492  37.427  28.979   1.761
66178W        W38493  29.344  30.947   0.012
66179W        W38494  39.420  42.411   3.963
66180W        W38495   8.463  35.155  12.501
66181W        W38496  18.263  13.803  14.304
66182W        W38497  41.998  14.720  10.768
66183W        W38498  12.081  28.538  14.897
66184W        W38499  17.230  37.680  12.096
66185W        W38500  40.882  17.240   2.211
66186W        W38501  37.252  32.134  11.216
66187W        W38502  15.127   5.001   0.803
66188W        W38503  33.063  43.928  11.316
66189W        W38504   7.161   5.867   0.895
66190W        W38505  19.433   8.571  12.543
66191W        W38506  20.937  14.759   0.362
66192W        W38507  30.606  18.860  12.527
66193W        W38508  21.175  22.713   1.928
66194W        W38509   0.100  32.385  11.186
66195W        W38510  35.385  34.644  12.463
66196W        W38511  25.632  35.577   0.309
66197W        W38512  19.877   4.377  13.324
66198W        W38513   8.511  13.481  13.960
66199W        W38514  15.914  20.901   4.179
66200W        W38515  43.413  20.252   3.802
66201W        W38516  33.847  39.468  14.989
66202W        W38517   3.003  29.765   2.727
66203W        W38518  29.906  33.448  13.449
66204W        W38519  38.609  33.469   1.400
66205W        W38520  19.944  20.325  11.414
66206W        W38521  39.264  42.069   2.122
66207W        W38522  41.511  10.922   3.988
66208W        W38523  40.912  40.810  12.092
66209W        W38524  25.734  33.875   1.903
66210W        W38525  41.334  32.346   3.184
66211W        W38526  22.756  34.123   1.271
66212W        W38527  40.315  33.073  12.029
66213W        W38528  21.130  33.711  11.193
66214W        W38529  26.068  21.601   0.354
66215W        W38530   8.311   8.380  13.930
66216W        W38531  41.398  30.783   2.227
66217W        W38532  39.496  14.252  13.078
66218W        W38533  41.991  24.087  12.600
66219W        W38534  13.830   0.985   3.694
66220W        W38535  17.146  14.992  10.559
66221W        W38536  29.324  23.495  11.495
66222W        W38537  38.316  17.553   2.930
66223W        W38538  35.462  38.758   0.240
66224W        W38539  37.489  16.715  14.009
66225W        W38540  21.565  32.516  13.146
66226W        W38541  35.018  35.397   3.116
66227W        W38542  13.003  17.021  11.981
66228W        W38543  32.954  29.912  12.834
66229W        W38544  36.045  20.397   3.776
66230W        W38545   4.102  15.696  10.328
66231W        W38546  18.802  35.885   4.156
66232W        W38547  14.374  26.449  12.559
66233W        W38548  32.665  22.849   0.858
66234W        W38549   0.558  16.998   1.714
66235W        W38550  10.706  43.873   1.419
66236W        W38551  22.061   1.812   4.866
66237W        W38552  32.635  35.025   1.795
66238W        W38553  44.939  27.104   3.624
66239W        W38554  16.252  34.537   2.579
66240W        W38555  32.019  22.746   2.189
66241W        W38556   7.253  39.734   3.034
66242W        W38557  31.690  16.677   2.741
66243W        W38558   3.830  25.531   2.021
66244W        W38559  10.442  15.980  11.516
66245W        W38560  22.096  32.708  13.972
66246W        W38561  13.645   5.348  10.695
66247W        W38562   7.739  13.953  11.106
66248W        W38563  27.476   6.260  12.854
66249W        W38564   6.590  40.112  10.987
66250W        W38565   8.646   7.916  12.648
66251W        W38566  29.237  36.265   2.806
66252W        W38567  39.220  39.461  12.452
66253W        W38568  20.207  13.804  14.432
66254W        W38569  38.556  23.541  13.742
66255W        W38570  32.725  29.122   3.696
66256W        W38571  31.140  27.405   0.671
66257W        W38572  37.819  38.307   2.252
66258W        W38573  27.600  17.317   2.677
66259W        W38574  14.254  27.931  11.392
66260W        W38575  18.219  16.177   3.579
66261W        W38576   6.508   1.846   2.309
66262W        W38577  27.647  44.264  10.344
66263W        W38578  11.130  41.471   2.267
66264W        W38579  21.705  19.141   0.349
66265W        W38580  28.430  21.083   0.311
66266W        W38581  19.053  42.850   1.160
66267W        W38582  35.814  40.012   2.444
66268W        W38583   1.505  18.203   4.129
66269W        W38584  27.769  31.804  13.883
66270W        W38585  39.153  15.748   1.507
66271W        W38586  44.885  27.718  10.596
66272W        W38587  18.472  18.883   4.181
66273W        W38588   8.155  28.017  11.747
66274W        W38589   5.526   5.246   2.301
66275W        W38590  40.713  32.169   4.001
66276W        W38591  31.106  18.149  11.568
66277W        W38592   8.376   4.408   3.813
66278W        W38593   3.829   6.980   4.356
66279W        W38594  13.350   5.674  13.950
66280W        W38595  34.136   1.324  14.487
66281W        W38596  17.247   6.329  10.617
66282W        W38597  26.437  15.265  13.896
66283W        W38598  43.496  33.941  12.971
66284W        W38599  11.119  25.706   4.691
66285W        W38600   7.709  18.097  11.075
66286W        W38601  34.148   4.842   4.434
66287W        W38602  28.120   3.891  10.192
66288W        W38603  40.985  42.483   1.477
66289W        W38604  41.418  20.379   1.412
66290W        W38605  11.709   6.725   3.658
66291W        W38606   5.337  43.471  12.816
66292W        W38607  18.546   6.560  11.955
66293W        W38608  32.918   3.740   3.142
66294W        W38609  12.592  10.136   4.128
66295W        W38610   8.734  43.762  11.917
66296W        W38611   8.374   3.912   4.038
66297W        W38612   8.334   1.587  12.375
66298W        W38613  18.655  44.562  10.659
66299W        W38614  24.059  19.977  11.080
66300W        W38615  42.811  38.078   1.409
66301W        W38616   2.353  29.691   0.296
66302W        W38617  20.485   1.952   0.763
66303W        W38618   2.557  33.670   5.129
66304W        W38619   6.340  30.090   1.298
66305W        W38620  28.500  19.630  10.961
66306W        W38621  12.189  27.973  10.511
66307W        W38622  29.463  22.725  14.292
66308W        W38623  25.543   4.824   9.765
66309W        W38624  12.008  29.093  13.253
66310W        W38625  26.989   9.408   3.221
66311W        W38626  19.540  27.071   1.396
66312W        W38627  37.108  15.779   3.689
66313W        W38628  14.642  42.085   1.883
66314W        W38629   7.282   1.980   3.178
66315W        W38630  40.969  20.598   3.653
66316W        W38631  25.602  18.030  13.933
66317W        W38632  22.741  21.287   3.373
66318W        W38633  43.694  12.257   1.313
66319W        W38634  39.471  12.283  13.614
66320W        W38635  11.330   5.276   2.275
66321W        W38636  43.843  18.912   1.436
66322W        W38637  12.557  30.928   3.345
66323W        W38638   2.436  43.138  10.294
66324W        W38639  33.777  10.774   1.918
66325W        W38640  15.127  23.722  13.005
66326W        W38641  24.421   6.002  10.092
66327W        W38642  30.652  43.479   3.303
66328W        W38643  10.030  19.316  10.738
66329W        W38644  21.980  33.864  11.176
66330W        W38645  11.201  37.650  13.783
66331W        W38646  14.412   3.316  13.087
66332W        W38647  17.621   9.728   2.319
66333W        W38648  19.124  41.841   2.821
66334W        W38649  14.131  38.091  10.293
66335W        W38650  39.967  12.534  12.091
66336W        W38651   4.759  44.795   0.410
66337W        W38652   1.791  12.242   2.442
66338W        W38653  42.519  41.966   2.942
66339W        W38654  18.336  22.963  11.548
66340W        W38655  27.402  14.669  12.462
66341W        W38656   2.176  41.994  12.063
66342W        W38657  11.601  10.258   3.230
66343W        W38658  39.340  29.178  14.709
66344W        W38659  30.102  41.459   0.437
66345W        W38660   0.988  18.158   4.083
66346W        W38661  15.381  43.070   4.013
66347W        W38662   8.315   3.676   2.083
66348W        W38663  18.183   5.354   1.477
66349W        W38664   4.636  15.245  11.923
66350W        W38665   6.122  21.936  14.240
66351W        W38666  37.283  31.564   1.805
66352W        W38667  22.680  16.888   3.205
66353W        W38668  41.539  41.458   3.726
66354W        W38669  21.222  38.248  12.808
66355W        W38670   7.733  21.055  10.105
66356W        W38671  31.933  22.857   0.222
66357W        W38672   0.088  35.900  11.032
66358W        W38673   3.191   5.425   1.786
66359W        W38674  13.670  13.650   3.144
66360W        W38675  20.163  10.774   1.859
66361W        W38676  28.233  37.991   1.841
66362W        W38677  40.364   6.622  11.187
66363W        W38678   2.461  14.429   9.898
66364W        W38679  10.428  34.852  14.406
66365W        W38680  33.579  25.969  12.169
66366W        W38681   4.995  34.639   5.052
66367W        W38682  32.182   9.117   5.065
66368W        W38683  27.132  28.893  11.092
66369W        W38684  38.257  12.784  14.750
66370W        W38685  15.594   9.507   0.279
66371W        W38686  30.459  11.992   2.916
66372W        W38687   5.513  32.037   1.255
66373W        W38688  13.526  24.507  11.701
66374W        W38689   4.826  19.561   4.769
66375W        W38690  16.735  32.583   0.495
66376W        W38691   7.262  28.338   0.691
66377W        W38692   0.364  25.003  13.481
66378W        W38693  37.864  27.048   3.605
66379W        W38694  42.917  33.995  11.487
66380W        W38695  34.404  31.613   3.748
66381W        W38696  35.921  42.683   1.149
66382W        W38697  44.454  39.494   4.719
66383W        W38698  41.450  37.511   4.947
66384W        W38699  31.708  35.990  14.377
66385W        W38700  27.125  24.540  12.951
66386W        W38701  37.952  16.838   2.734
66387W        W38702  31.349  10.759  12.694
66388W        W38703  32.655  44.906  11.200
66389W        W38704   4.812  11.073  14.000
66390W        W38705  43.538   6.171   1.805
66391W        W38706  11.775  33.678   3.666
66392W        W38707  40.806  36.623   2.697
66393W        W38708  27.996  16.886   0.786
66394W        W38709   2.217  11.518   0.895
66395W        W38710  36.603  23.637   4.181
66396W        W38711  21.846  33.646   4.413
66397W        W38712   8.929   4.359  12.016
66398W        W38713  19.118   3.784  12.447
66399W        W38714  21.209  28.013  11.088
66400W        W38715  43.071  41.006   1.646
66401W        W38716  16.732   1.716   0.274
66402W        W38717  17.548  23.579   0.723
66403W        W38718   8.111  38.564  12.772
66404W        W38719   9.428   5.684   3.555
66405W        W38720   7.777  39.978  11.701
66406W        W38721  35.336  36.951  10.709
66407W        W38722  31.085  24.764   2.202
66408W        W38723  36.125  27.164   0.467
66409W        W38724  32.574  21.116   4.897
66410W        W38725   7.393  40.032   2.618
66411W        W38726  41.172   9.913  12.514
66412W        W38727  42.560   5.610   0.988
66413W        W38728  25.116  25.516  14.867
66414W        W38729  21.955  40.039  11.250
66415W        W38730  14.853  12.695   2.125
66416W        W38731  38.275  28.532   2.498
66417W        W38732  24.791  27.265   0.676
66418W        W38733   7.679  31.398  12.467
66419W        W38734  40.343  38.665  10.797
66420W        W38735  34.997   7.451   3.598
66421W        W38736  31.773  10.191   1.264
66422W        W38737  26.803  39.305  11.604
66423W        W38738  33.799   6.282   2.665
66424W        W38739   4.540  26.160  11.546
66425W        W38740  16.105   7.476   0.817
66426W        W38741  33.469  43.502   2.739
66427W        W38742  11.575   9.001  11.105
66428W        W38743  37.332  29.045   1.163
66429W        W38744  40.042  14.352   1.961
66430W        W38745  41.595   9.938   4.277
66431W        W38746  28.503  41.975  14.321
66432W        W38747  36.125  21.959  11.144
66433W        W38748   3.954  36.498  14.759
66434W        W38749  12.772  38.902  11.108
66435W        W38750   3.793   4.420  13.394
66436W        W38751  25.912   7.983  10.987
66437W        W38752  26.723  25.055   4.083
66438W        W38753  24.070  43.206   0.303
66439W        W38754   2.882   4.740  12.581
66440W        W38755  32.115   9.946  11.003
66441W        W38756  26.453  21.887   1.630
66442W        W38757  27.251   9.473  14.896
66443W        W38758  35.327  38.597  12.494
66444W        W38759  29.547  12.653   5.091
66445W        W38760  32.477  10.754  11.369
66446W        W38761  38.040  34.985   2.924
66447W        W38762  27.523  13.279  12.434
66448W        W38763  12.495  35.760  13.289
66449W        W38764  17.647  20.314   4.329
66450W        W38765  30.374   1.385   1.809
66451W        W38766  19.570  42.855  11.828
66452W        W38767   6.276  43.436  10.451
66453W        W38768  12.749  42.720  13.268
66454W        W38769  16.463  20.564   1.713
66455W        W38770   9.659  16.690   0.460
66456W        W38771  14.086  11.787  12.051
66457W        W38772  16.704  30.886  12.217
66458W        W38773  24.684  42.459  14.100
66459W        W38774  38.129   2.779   0.040
66460W        W38775  39.511  10.650  12.514
66461W        W38776  43.072   6.226   1.618
66462W        W38777  22.011  11.114   1.793
66463W        W38778  11.472  43.671   2.467
66464W        W38779   5.321   3.752   1.320
66465W        W38780  18.187   1.718   3.299
66466W        W38781   6.361   8.346   1.488
66467W        W38782  21.276  24.608   2.166
66468W        W38783  29.090  31.450   4.567
66469W        W38784  35.154  16.510   1.921
66470W        W38785   0.362  43.912  13.027
66471W        W38786  26.565  33.125  14.938
66472W        W38787  29.160  12.577   2.305
66473W        W38788  17.481  33.937   1.347
66474W        W38789   6.452   0.212   1.908
66475W        W38790   7.223  25.975   2.175
66476W        W38791  44.330  28.917   2.310
66477W        W38792   1.414  40.968  12.067
66478W        W38793  44.227  32.023  14.410
66479W        W38794  10.287  27.642  10.466
66480W        W38795  28.185  39.080  11.129
66481W        W38796   0.324  27.417  13.851
66482W        W38797  18.005  10.868  10.164
66483W        W38798   9.990  19.668   3.743
66484W        W38799  17.285  27.962  14.718
66485W        W38800  37.716  21.661   1.212
66486W        W38801   3.905  13.438   1.557
66487W        W38802  23.697   1.966  11.626
66488W        W38803  27.930  30.644  10.067
66489W        W38804  38.552  31.940  10.629
66490W        W38805  32.882  43.282   0.412
66491W        W38806  15.687  18.250  14.929
66492W        W38807  30.147  21.911  14.382
66493W        W38808  26.664  35.026   1.876
66494W        W38809  32.139  27.203  11.416
66495W        W38810  15.137  14.937   3.292
66496W        W38811  44.657  19.694   2.634
66497W        W38812  13.604  20.855  11.663
66498W        W38813  23.142  15.220   4.170
66499W        W38814  44.518  27.640  14.481
66500W        W38815  39.274  14.617  11.501
66501W        W38816   4.535  23.042  14.229
66502W        W38817  41.033   6.853  13.081
66503W        W38818  15.034  38.402  12.100
66504W        W38819  16.837  38.934   0.032
66505W        W38820  44.317  24.610  13.294
66506W        W38821  38.876  32.992  12.710
66507W        W38822  44.063   9.680   3.597
66508W        W38823   8.245  42.945  12.421
66509W        W38824  26.453  34.182   3.266
66510W        W38825   8.884  41.372   0.907
66511W        W38826  19.602  41.274   3.118
66512W        W38827  22.151   5.532   0.456
66513W        W38828  41.384  25.348  14.837
66514W        W38829  34.382  39.131  12.400
66515W        W38830  34.622  34.460   0.420
66516W        W38831  38.740   6.200  10.352
66517W        W38832  26.196  31.650   5.333
66518W        W38833  19.705   3.778  14.531
66519W        W38834  25.758  30.354  11.125
66520W        W38835  32.833  24.971   0.471
66521W        W38836   5.271  25.182  13.157
66522W        W38837  23.671  25.580   4.372
66523W        W38838  32.887  38.189  12.302
66524W        W38839  25.598  27.603   0.978
66525W        W38840  35.941  27.785  11.148
66526W        W38841  26.332  19.347  12.488
66527W        W38842  33.820  34.988   4.362
66528W        W38843  33.529  10.077  11.180
66529W        W38844  29.439  34.587  14.337
66530W        W38845  37.031  28.438  14.293
66531W        W38846  23.675   6.309   1.028
66532W        W38847   9.709   2.381   3.236
66533W        W38848  38.866  24.252   1.745
66534W        W38849  42.509  21.462   1.352
66535W        W38850   3.258  14.300  14.558
66536W        W38851  32.422  20.426   1.302
66537W        W38852   9.567  22.573  10.267
66538W        W38853  33.897  43.378  10.292
66539W        W38854  27.155  14.306  14.389
66540W        W38855  29.004  20.163  12.433
66541W        W38856  16.198  12.877   0.016
66542W        W38857   7.223  27.051   2.889
66543W        W38858  24.037   5.882   4.494
66544W        W38859  31.156   9.417  12.127
66545W        W38860   2.361  22.812  12.946
66546W        W38861  14.583  27.339  12.584
66547W        W38862  26.836   5.114   3.864
66548W        W38863   5.037   7.901   0.055
66549W        W38864  26.075  36.572  10.690
66550W        W38865  27.397  41.375  12.004
66551W        W38866  44.659   6.755   3.719
66552W        W38867  21.753   0.105   0.978
66553W        W38868   5.883  33.356  11.588
66554W        W38869  36.462  11.764   0.253
66555W        W38870  34.658  20.763   2.399
66556W        W38871  20.089  22.288  10.516
66557W        W38872  18.850  44.975   2.718
66558W        W38873  23.096  38.269   1.703
66559W        W38874  20.108   3.442  10.128
66560W        W38875  11.238  32.542  12.829
66561W        W38876  32.222  38.738  12.034
66562W        W38877  31.955  25.980   4.693
66563W        W38878  15.225   5.667  14.467
66564W        W38879  10.718  19.346  14.516
66565W        W38880   4.831   1.893   4.876
66566W        W38881  40.192   4.899  14.599
66567W        W38882  26.874  23.008  13.919
66568W        W38883  15.782  16.337  14.844
66569W        W38884  12.520  36.576  14.872
66570W        W38885  16.505  18.715  10.709
66571W        W38886   6.424   5.234   2.317
66572W        W38887   3.243  34.772  14.115
66573W        W38888  27.158   0.894   2.162
66574W        W38889  26.886  31.412  10.640
66575W        W38890  33.143  20.614  14.907
66576W        W38891  21.949  22.087   1.798
66577W        W38892  21.622  17.629  14.261
66578W        W38893  29.838  29.886   0.793
66579W        W38894  43.950   9.841  14.361
66580W        W38895  42.542  18.205  14.856
66581W        W38896  16.228   3.240  10.683
66582W        W38897  32.274   8.332  11.710
66583W        W38898   5.897   4.440  13.372
66584W        W38899  35.496  34.889   1.715
66585W        W38900  17.234  31.333   4.543
66586W        W38901  26.023  15.125   4.077
66587W        W38902   0.036   6.809  14.470
66588W        W38903  24.706   4.125   2.505
66589W        W38904  38.880   5.519   2.744
66590W        W38905   1.498  44.858   1.202
66591W        W38906  22.957  17.655  12.938
66592W        W38907   9.597  27.123  10.563
66593W        W38908  32.379  13.400   2.815
66594W        W38909  16.108   2.973   0.591
66595W        W38910   1.569   5.178  13.886
66596W        W38911  14.107  41.520  13.825
66597W        W38912  16.781  29.553   0.700
66598W        W38913  30.233  14.056  11.635
66599W        W38914  14.587   4.798  13.985
66600W        W38915  26.274  30.378   0.240
66601W        W38916  19.203  19.614   1.281
66602W        W38917  10.619  36.671  14.694
66603W        W38918  33.804  37.882  13.007
66604W        W38919  14.048  13.553   0.886
66605W        W38920  43.737   8.937   4.618
66606W        W38921   0.783  37.501   4.661
66607W        W38922  37.398  25.212  11.116
66608W        W38923  21.052  42.981  12.330
66609W        W38924  12.450  23.927  11.055
66610W        W38925  16.758  33.255   1.170
66611W        W38926   3.036  33.100  12.433
66612W        W38927  13.025  13.970  14.506
66613W        W38928  41.349  35.453   0.886
66614W        W38929  28.499  35.826   2.361
66615W        W38930  32.450   1.930   3.156
66616W        W38931  43.469  13.887   4.911
66617W        W38932  15.323   0.777  14.499
66618W        W38933  32.680   0.028  13.868
66619W        W38934  13.677  44.413   2.242
66620W        W38935  25.032  35.059  14.461
66621W        W38936  43.327  37.475   2.149
66622W        W38937   4.450  29.101  14.783
66623W        W38938  33.291  18.133  11.652
66624W        W38939  30.516  41.883  11.630
66625W        W38940  30.548  12.297  10.787
66626W        W38941  23.645   5.161  12.487
66627W        W38942  18.301  18.141  13.340
66628W        W38943   2.274  16.627  10.751
66629W        W38944   0.157  26.589  14.899
66630W        W38945  39.902  22.686   2.278
66631W        W38946  19.514  43.323   4.180
66632W        W38947  35.462  39.058  14.737
66633W        W38948  37.648  43.341  12.419
66634W        W38949  31.735  38.564  12.070
66635W        W38950  37.340   4.891   2.551
66636W        W38951  43.021   6.862   4.603
66637W        W38952  15.252  29.799  13.482
66638W        W38953  29.290  17.570  11.344
66639W        W38954  41.937  32.672   0.536
66640W        W38955  29.948  35.375   2.619
66641W        W38956  32.312  34.800  11.192
66642W        W38957   8.073  26.645   4.932
66643W        W38958  23.476   0.070  11.034
66644W        W38959   9.600  19.300   2.150
66645W        W38960  43.261  28.918  13.419
66646W        W38961  14.388  31.311  11.478
66647W        W38962  20.509  13.655   3.065
66648W        W38963  41.969  32.921   4.646
66649W        W38964  37.835  30.668  11.114
66650W        W38965  12.228   2.694   1.335
66651W        W38966  29.447  24.012   0.957
66652W        W38967  24.044  29.208   1.325
66653W        W38968   3.191  25.868   4.630
66654W        W38969  21.894  18.749   1.023
66655W        W38970  14.926   7.063  11.776
66656W        W38971  14.076  27.153   2.929
66657W        W38972   9.110  28.788   1.815
66658W        W38973  20.470  41.328  11.483
66659W        W38974   7.843  18.843  10.527
66660W        W38975  14.328  20.212   3.920
66661W        W38976  23.708  12.123  10.723
66662W        W38977   5.143  33.441   1.425
66663W        W38978  44.831   9.354   0.099
66664W        W38979   9.226  19.656  11.092
66665W        W38980   8.264  18.340  14.455
66666W        W38981  25.893  34.837   3.808
66667W        W38982  32.446   4.815  10.736
66668W        W38983  34.541  22.262   2.942
66669W        W38984  39.554  36.563   3.292
66670W        W38985  37.503  32.891  10.637
66671W        W38986  38.523  13.189  11.686
66672W        W38987  43.493   8.290  10.662
66673W        W38988  31.069   1.476  13.033
66674W        W38989  42.848  16.693   1.944
66675W        W38990  33.473  11.270  11.617
66676W        W38991  37.910   9.809  12.896
66677W        W38992  18.853  29.968   1.919
66678W        W38993  27.929  29.205   3.242
66679W        W38994  29.897  16.432  14.963
66680W        W38995  21.165  18.239   4.099
66681W        W38996  36.358  23.590   1.564
66682W        W38997  14.311  18.518  10.722
66683W        W38998   9.977  10.146   5.119
66684W        W38999  23.883  32.433   4.228
66685W        W39000  18.531  43.230  13.347
66686W        W39001  21.166  35.130  11.367
66687W        W39002  26.962  11.690   0.843
66688W        W39003  41.611  20.248   2.797
66689W        W39004  40.921  41.542  12.498
66690W        W39005   5.648  14.775  13.279
66691W        W39006  16.882   7.154   4.536
66692W        W39007   3.947  37.605  11.129
66693W        W39008  38.833  16.733  12.003
66694W        W39009  30.881  30.396   3.304
66695W        W39010  40.925  43.910   4.778
66696W        W39011  43.954   4.412   3.158
66697W        W39012  33.024  24.227  12.317
66698W        W39013  19.783  40.841  14.135
66699W        W39014  44.695  17.185   4.578
66700W        W39015  37.827   0.441  11.428
66701W        W39016  33.807  24.659   0.036
66702W        W39017   9.305  40.141  10.332
66703W        W39018  12.150  15.840   1.539
66704W        W39019  40.357   0.300  14.221
66705W        W39020  32.472  31.927  12.540
66706W        W39021  39.713  24.470   4.545
66707W        W39022  32.948  10.797   4.299
66708W        W39023  13.424  12.144   2.860
66709W        W39024  35.498  12.374  11.290
66710W        W39025   2.001  28.464  14.262
66711W        W39026   7.593  16.824  12.948
66712W        W39027  27.546  37.439  10.693
66713W        W39028   2.793   0.768  14.389
66714W        W39029   2.070  33.662   4.154
66715W        W39030  38.925   2.777   2.019
66716W        W39031  15.821  28.085   0.811
66717W        W39032   1.278  12.848   2.820
66718W        W39033   8.464  37.836   1.166
66719W        W39034   3.700   0.207   2.284
66720W        W39035  40.610  23.184  14.530
66721W        W39036  33.551  26.956  14.440
66722W        W39037  38.619  23.655  14.247
66723W        W39038  17.057  11.658  13.175
66724W        W39039   6.143  17.121  14.238
66725W        W39040  42.534  15.247   1.761
66726W        W39041  13.082  10.632  12.973
66727W        W39042   1.783  14.621   2.930
66728W        W39043  31.628  32.009   4.722
66729W        W39044   5.477   8.604  14.281
66730W        W39045   5.717  22.168  14.440
66731W        W39046  21.344  18.795  14.850
66732W        W39047  26.197   1.460  11.136
66733W        W39048  44.759  20.218   5.060
66734W        W39049  23.233  35.926   4.198
66735W        W39050  22.767  39.114   0.518
66736W        W39051  21.713   9.710  12.435
66737W        W39052  36.458  14.854  11.954
66738W        W39053   6.325  41.267   1.885
66739W        W39054  20.540   6.980  14.453
66740W        W39055   2.581  40.485  11.592
66741W        W39056  31.002   6.255   2.667
66742W        W39057  43.139  27.641   0.834
66743W        W39058  28.633  40.488  13.241
66744W        W39059  17.266  25.932   4.319
66745W        W39060   4.917   1.228   0.538
66746W        W39061  16.009  33.819   1.393
66747W        W39062   7.314  39.777   4.539
66748W        W39063   8.884  16.871   1.960
66749W        W39064  25.790  13.526   3.632
66750W        W39065  39.989  36.880   1.585
66751W        W39066  11.289  32.886   4.680
66752W        W39067  28.724  34.407  13.071
66753W        W39068  36.202  33.303   2.737
66754W        W39069  13.043   8.373   0.886
66755W        W39070   0.833  44.906   1.995
66756W        W39071   4.167  24.278  13.919
66757W        W39072  32.143  44.141  11.532
66758W        W39073   5.713  15.826   1.696
66759W        W39074  43.654  43.072  11.928
66760W        W39075  23.579  39.970   2.824
66761W        W39076  17.284  43.588  11.578
66762W        W39077  33.334  27.446  10.801
66763W        W39078  17.607  34.957   2.209
66764W        W39079  27.222  21.977  11.369
66765W        W39080   0.307  30.110  10.436
66766W        W39081   8.658   4.768   1.491
66767W        W39082  42.326  31.325  13.382
66768W        W39083   1.932   1.952   3.252
66769W        W39084  33.087  15.177   3.820
66770W        W39085  10.696  44.013  13.719
66771W        W39086  38.228  16.567   0.262
66772W        W39087  43.580  29.970  11.147
66773W        W39088  34.704   3.912  12.105
66774W        W39089  22.274   6.385   1.761
66775W        W39090  19.222  44.290  14.184
66776W        W39091  23.167  14.464   0.744
66777W        W39092  26.932  34.397  13.434
66778W        W39093  20.683  33.414  11.133
66779W        W39094  42.544  24.741  14.707
66780W        W39095  12.427  25.646   4.069
66781W        W39096  22.231  24.757   3.664
66782W        W39097  15.657  11.268  14.207
66783W        W39098  32.578   5.257   2.176
66784W        W39099  14.749  20.517   3.721
66785W        W39100   1.745  38.523   3.290
66786W        W39101  23.726  14.363   0.575
66787W        W39102  14.772  11.722   0.510
66788W        W39103   7.407  38.757   2.751
66789W        W39104  35.855  21.622  14.447
66790W        W39105  36.504   4.429  12.975
66791W        W39106  21.193  17.650  13.322
66792W        W39107  10.703  44.716   1.156
66793W        W39108  37.918  43.496  13.877
66794W        W39109  23.929  16.101   3.510
66795W        W39110   5.708  38.319  12.493
66796W        W39111   6.727  43.322   4.394
66797W        W39112   4.687  38.308   2.232
66798W        W39113  17.718   9.514  14.019
66799W        W39114  24.499   6.600  11.491
66800W        W39115  28.274  31.454   0.786
66801W        W39116  13.574  41.811   3.280
66802W        W39117  40.132  16.367   0.146
66803W        W39118  41.427  31.215  11.502
66804W        W39119  34.134  18.013   3.696
66805W        W39120  16.372  35.447   3.900
66806W        W39121  31.471  35.426  12.377
66807W        W39122  25.671  40.759  14.987
66808W        W39123  18.930   6.891  14.469
66809W        W39124  39.061   6.945   3.727
66810W        W39125   4.786  28.439  10.676
66811W        W39126  39.405  43.447  13.098
66812W        W39127  20.527  44.713  14.986
66813W        W39128  16.284  40.487  13.460
66814W        W39129  40.558  34.877  13.342
66815W        W39130   9.147  17.244  11.152
66816W        W39131  24.115  17.863  14.668
66817W        W39132  24.794   2.836  14.863
66818W        W39133  19.621  18.818   3.807
66819W        W39134   4.846   9.732  10.821
66820W        W39135  36.635  27.549  14.833
66821W        W39136   6.183  35.830   0.762
66822W        W39137  34.395  17.719  11.564
66823W        W39138  20.791  19.158  14.546
66824W        W39139  37.342   5.726   2.585
66825W        W39140  26.610  23.452  13.905
66826W        W39141  17.729  14.681   3.578
66827W        W39142  27.077  30.683   3.853
66828W        W39143  32.670  37.576   0.369
66829W        W39144  20.337  22.855   2.763
66830W        W39145  20.296  25.682  11.969
66831W        W39146  22.288  11.139   3.131
66832W        W39147  24.894  10.270  14.102
66833W        W39148  21.508  35.622  14.333
66834W        W39149  43.148  18.765  13.468
66835W        W39150  18.137  32.635   0.240
66836W        W39151  40.615  33.492  11.151
66837W        W39152  25.166  33.291   4.503
66838W        W39153  25.154  19.613   1.247
66839W        W39154   3.858   1.990  14.011
66840W        W39155   5.360  36.101  14.466
66841W        W39156  24.793  17.079   2.877
66842W        W39157  25.105   9.450  14.066
66843W        W39158  22.627  22.824  11.916
66844W        W39159  31.524  15.091   1.300
66845W        W39160  43.465  38.403  12.590
66846W        W39161  34.762  11.111  12.976
66847W        W39162  41.263  35.411   3.154
66848W        W39163  21.728  32.380   1.725
66849W        W39164   2.315  41.704  14.881
66850W        W39165  10.097  36.368  13.423
66851W        W39166   7.552  21.110  11.510
66852W        W39167  30.501   2.508  13.211
66853W        W39168  43.321  19.961   3.042
66854W        W39169  24.611   2.651  14.416
66855W        W39170  23.764  41.483   1.567
66856W        W39171  20.761  32.883  11.216
66857W        W39172  20.914   3.537   1.044
66858W        W39173   7.297  37.325   3.168
66859W        W39174   0.821  36.808  14.819
66860W        W39175  43.862  30.153   0.744
66861W        W39176  20.627   8.871  10.641
66862W        W39177  40.848  23.506   5.496
66863W        W39178  31.248  36.060   3.771
66864W        W39179  28.207   3.753   1.313
66865W        W39180  19.387   3.319   4.065
66866W        W39181  30.502  34.139   0.764
66867W        W39182   0.400  30.178   1.200
66868W        W39183  42.379  24.623  11.455
66869W        W39184  33.835  17.778  11.108
66870W        W39185  31.544  22.097  10.976
66871W        W39186  25.127  28.080  12.829
66872W        W39187   4.270   3.960   1.837
66873W        W39188  33.159   9.697  11.155
66874W        W39189  25.583   0.574   0.178
66875W        W39190  40.504   1.674   0.871
66876W        W39191  18.596  16.193  12.078
66877W        W39192  40.336   9.837   4.178
66878W        W39193  21.967   2.439  14.026
66879W        W39194  31.964  26.430  11.455
66880W        W39195   6.542  17.778   2.756
66881W        W39196  27.614  24.617   3.755
66882W        W39197  20.256  28.137   4.084
66883W        W39198  11.744  43.975  12.655
66884W        W39199  19.614  41.785   3.069
66885W        W39200  30.957  41.395   2.644
66886W        W39201  36.282   7.370  10.418
66887W        W39202  43.941  26.725   3.253
66888W        W39203  44.315  27.680  14.983
66889W        W39204   5.826  15.034   0.066
66890W        W39205  37.782  39.103   1.049
66891W        W39206   2.032  14.626   3.947
66892W        W39207   9.382  25.360   1.507
66893W        W39208  30.013   4.134  12.384
66894W        W39209  15.495  34.494   3.770
66895W        W39210   9.788  31.692   1.401
66896W        W39211   5.864  43.048   4.507
66897W        W39212   3.543  10.295  13.516
66898W        W39213  24.582  44.762  11.648
66899W        W39214  32.012   7.181  10.951
66900W        W39215  29.062  36.962  14.464
66901W        W39216  20.887  17.873   3.662
66902W        W39217  21.345  20.754   0.746
66903W        W39218  26.738  26.552   3.203
66904W        W39219  42.602   8.578  10.697
66905W        W39220  26.544  29.565   3.309
66906W        W39221  14.093  21.071   4.052
66907W        W39222  19.342  42.213  11.744
66908W        W39223  31.525  29.439   4.249
66909W        W39224  31.011  22.812  10.453
66910W        W39225  43.757  42.032   0.322
66911W        W39226  27.864  36.478   4.108
66912W        W39227  27.482  40.281  11.742
66913W        W39228  11.608  30.597  14.308
66914W        W39229  11.410   0.420  12.457
66915W        W39230  23.460  13.252  12.962
66916W        W39231   0.570  12.361   9.824
66917W        W39232   5.693   8.088  13.608
66918W        W39233  26.918   7.669  11.588
66919W        W39234  43.949  44.031  11.153
66920W        W39235  18.109  41.355   4.116
66921W        W39236  37.833   8.757   4.058
66922W        W39237   8.671  36.605   0.974
66923W        W39238  26.015   2.449   4.885
66924W        W39239  40.427  30.905   3.172
66925W        W39240  16.040  10.218  12.449
66926W        W39241  19.519  19.317   3.442
66927W        W39242  41.224  24.210  14.333
66928W        W39243  43.465  20.985   4.455
66929W        W39244  35.448  37.898   1.381
66930W        W39245  43.077  23.033   1.914
66931W        W39246  21.314  32.010   4.048
66932W        W39247  19.626  19.651  13.151
66933W        W39248  20.186  28.598  10.835
66934W        W39249  25.956  17.061  13.783
66935W        W39250  34.543   9.339  14.908
66936W        W39251  28.976  38.350  14.444
66937W        W39252  37.634   9.559  12.151
66938W        W39253  43.090  28.457   2.522
66939W        W39254  40.317  44.335  14.990
66940W        W39255  39.965   6.812   4.094
66941W        W39256  13.076   2.233   0.952
66942W        W39257  31.432  24.774   2.880
66943W        W39258  26.402  28.944   1.285
66944W        W39259   7.896   9.800  11.431
66945W        W39260   7.324  17.089  11.584
66946W        W39261   0.260  39.344  14.348
66947W        W39262  44.138  19.815  11.650
66948W        W39263  31.498   1.775  13.268
66949W        W39264  21.630   5.890   3.253
66950W        W39265   1.533  39.248   4.082
66951W        W39266  21.625  34.972   2.922
66952W        W39267  38.382  26.486  12.875
66953W        W39268  41.266  35.378  11.860
66954W        W39269  14.866   7.209  10.676
66955W        W39270  20.834  19.509  12.379
66956W        W39271  41.089  22.060   2.551
66957W        W39272   3.959  24.127  13.457
66958W        W39273  23.339   2.920  12.544
66959W        W39274  15.626  42.617   4.344
66960W        W39275  37.545  40.596   3.781
66961W        W39276  41.897  24.718  11.314
66962W        W39277  31.641   5.412   3.690
66963W        W39278  28.027  23.980  12.971
66964W        W39279  18.678  38.108   0.837
66965W        W39280  15.628  21.239   1.896
66966W        W39281  26.942  41.204   4.707
66967W        W39282   3.853  15.777   4.450
66968W        W39283  40.319   1.809  11.539
66969W        W39284  23.432  44.418  13.459
66970W        W39285  19.315  35.031   3.164
66971W        W39286  19.620  41.990  10.604
66972W        W39287  36.408  20.577   3.059
66973W        W39288  13.724   7.632   3.069
66974W        W39289   8.850  42.949   1.868
66975W        W39290  38.766  29.058  14.932
66976W        W39291   7.216  25.114   2.222
66977W        W39292  35.649  16.663  11.508
66978W        W39293  38.582  43.486   2.792
66979W        W39294  38.955   0.529  10.580
66980W        W39295  11.653  24.206  10.700
66981W        W39296  25.042  37.137   0.725
66982W        W39297  10.062  21.535   2.784
66983W        W39298  17.827  17.595  11.612
66984W        W39299  42.132  14.880  13.441
66985W        W39300  13.815  12.314  14.757
66986W        W39301  44.755  23.776   4.054
66987W        W39302  18.598  21.566   2.910
66988W        W39303  19.392  23.013  13.944
66989W        W39304  14.598  15.929  13.451
66990W        W39305  39.222   4.326  11.509
66991W        W39306  12.880  22.306  10.728
66992W        W39307  24.038  26.013  10.520
66993W        W39308  14.114  34.951  12.038
66994W        W39309  33.911  38.342  10.396
66995W        W39310   4.027  18.186   1.781
66996W        W39311  38.081  40.572   0.167
66997W        W39312  38.053  23.306  12.588
66998W        W39313  41.785  23.581  11.075
66999W        W39314  16.289  27.050  12.536
67000W        W39315  29.629  15.821   1.149
67001W        W39316  23.250  19.178   1.772
67002W        W39317  36.534  44.430   1.028
67003W        W39318   4.345  25.192  13.761
67004W        W39319   5.179  40.590  14.712
67005W        W39320  36.174  26.718   0.873
67006W        W39321  15.000  37.046  12.067
67007W        W39322  15.815  36.602   0.033
67008W        W39323  37.532  24.790   3.395
67009W        W39324  19.764  42.749  11.036
67010W        W39325  37.055  30.906  13.969
67011W        W39326  31.206  20.598  11.492
67012W        W39327  15.527  29.408  11.636
67013W        W39328   0.867   2.199  12.284
67014W        W39329   5.900  28.258  12.575
67015W        W39330  39.372  24.709   2.816
67016W        W39331  24.923   8.975   4.122
67017W        W39332   7.392  26.488  14.401
67018W        W39333   9.252  21.110  12.124
67019W        W39334  29.487  26.119   1.366
67020W        W39335  44.532  25.240  11.089
67021W        W39336  38.342  33.915   1.170
67022W        W39337  21.158   6.131  13.970
67023W        W39338  20.811  14.676  14.492
67024W        W39339  11.394  10.718   0.107
67025W        W39340  30.411  27.552  13.843
67026W        W39341  31.920  10.865   0.276
67027W        W39342   8.916  25.788  13.831
67028W        W39343   6.182  18.579   2.335
67029W        W39344   4.685  33.452  12.877
67030W        W39345  23.596  23.659  10.888
67031W        W39346  42.948  10.022  11.112
67032W        W39347  18.983  41.803   0.346
67033W        W39348  26.484  35.855   2.318
67034W        W39349   7.531  22.228   3.438
67035W        W39350  23.976  41.122  10.493
67036W        W39351   1.268  34.204   2.784
67037W        W39352  27.276   9.353  13.585
67038W        W39353  26.173  31.025  13.244
67039W        W39354   7.361  13.638   4.624
67040W        W39355  10.726  17.038   3.225
67041W        W39356   1.483  43.049  14.354
67042W        W39357  34.818  23.149  14.506
67043W        W39358  10.288  39.668   1.351
67044W        W39359   2.867  18.740  13.305
67045W        W39360  19.807   3.909   0.028
67046W        W39361  36.373  26.664  11.630
67047W        W39362   4.168  11.169   0.880
67048W        W39363  11.810  26.922  12.004
67049W        W39364   1.388  36.936   3.904
67050W        W39365   7.301   4.112   2.167
67051W        W39366  33.991  14.192   2.708
67052W        W39367  10.009  35.403   3.800
67053W        W39368  35.362  32.957   0.703
67054W        W39369  43.838  18.640  14.318
67055W        W39370  17.773  34.983   0.238
67056W        W39371  34.515  14.244  14.931
67057W        W39372  25.592  11.046   2.625
67058W        W39373   2.436   7.520   0.047
67059W        W39374  26.993  30.201   4.051
67060W        W39375  43.279  44.922  10.220
67061W        W39376  21.289   6.728  10.741
67062W        W39377  43.790  15.695   0.727
67063W        W39378  31.422   2.451  11.967
67064W        W39379  37.860  11.378   1.450
67065W        W39380   4.471  30.223   3.068
67066W        W39381  11.658   0.526   0.519
67067W        W39382  43.784  26.481  11.580
67068W        W39383  33.351   0.271   4.626
67069W        W39384  32.390  10.740  10.822
67070W        W39385  26.076  34.426   2.943
67071W        W39386  33.149  25.221  12.211
67072W        W39387  27.939  39.375  14.748
67073W        W39388  22.250  32.317  12.090
67074W        W39389   6.508  39.600  11.589
67075W        W39390  32.002  13.691  13.135
67076W        W39391  33.904  10.324   5.000
67077W        W39392  21.407  27.181   1.504
67078W        W39393  20.126   7.714   1.262
67079W        W39394  15.623  40.089  12.909
67080W        W39395  35.067   5.930  10.795
67081W        W39396  27.082  44.187   4.782
67082W        W39397  20.546  25.944  11.526
67083W        W39398  17.616  23.856  12.206
67084W        W39399  29.084   3.781   2.402
67085W        W39400   8.062  21.050   1.168
67086W        W39401  20.535  40.481   1.747
67087W        W39402  12.450  16.711   4.143
67088W        W39403  12.839  18.264   1.169
67089W        W39404  17.355  37.367   2.394
67090W        W39405  13.126  37.117  10.658
67091W        W39406  18.959  26.988  14.051
67092W        W39407  17.635  24.094  11.289
67093W        W39408   0.385  42.686   3.727
67094W        W39409  11.862   0.689  12.588
67095W        W39410   5.729  32.507  13.927
67096W        W39411   6.122   0.208   1.016
67097W        W39412  35.001  40.841   2.037
67098W        W39413  37.149  33.885   2.151
67099W        W39414  33.895  43.807  10.589
67100W        W39415  33.503  35.331   1.478
67101W        W39416  34.884  36.739  12.379
67102W        W39417  21.629  15.192  12.045
67103W        W39418  22.336  22.013  13.570
67104W        W39419  31.414  43.740   4.650
67105W        W39420  23.042  22.451   2.288
67106W        W39421  11.129   7.664  14.177
67107W        W39422  15.484  19.244   5.011
67108W        W39423  38.922   7.653   0.789
67109W        W39424  29.557  36.579   0.283
67110W        W39425  10.733  27.174  11.951
67111W        W39426  16.414   5.887   2.865
67112W        W39427  42.729  41.897   1.225
67113W        W39428   5.474  40.362  11.988
67114W        W39429  33.606  10.462   4.594
67115W        W39430   8.922  18.942   2.743
67116W        W39431  11.415  24.144   1.709
67117W        W39432  14.558   6.300   4.539
67118W        W39433   8.197  20.324  11.475
67119W        W39434   8.243  24.751   0.766
67120W        W39435  12.304  33.918  14.323
67121W        W39436  32.798  40.188   1.281
67122W        W39437   6.247   7.398   3.839
67123W        W39438  30.077  17.213  12.534
67124W        W39439  12.839   7.950   1.315
67125W        W39440  13.563  22.518  11.581
67126W        W39441  30.529  16.882   1.132
67127W        W39442  44.259   8.624   0.715
67128W        W39443  15.701  13.169   0.926
67129W        W39444  30.678  31.623   4.537
67130W        W39445  34.542   2.594  14.376
67131W        W39446   5.586   3.384  12.501
67132W        W39447  38.742  19.804  12.962
67133W        W39448   0.512  39.763   3.394
67134W        W39449  44.900  12.405  12.116
67135W        W39450  34.130  26.120   4.905
67136W        W39451  43.261  38.310   2.390
67137W        W39452   4.706  31.020   3.239
67138W        W39453  23.966  31.167   4.655
67139W        W39454   0.811  35.362  13.491
67140W        W39455  23.037  43.467   4.432
67141W        W39456  14.356  40.563   3.210
67142W        W39457  39.888   7.083   2.790
67143W        W39458  43.467  13.765  13.722
67144W        W39459   8.141  10.259  11.566
67145W        W39460  32.639   0.177   1.314
67146W        W39461  38.019  14.191   1.372
67147W        W39462  25.788   6.232   4.132
67148W        W39463  40.375   2.397   0.002
67149W        W39464  43.249   3.984  13.353
67150W        W39465  35.835  32.993  14.805
67151W        W39466   0.090   2.849   0.512
67152W        W39467  24.687  42.474   3.464
67153W        W39468  10.079  23.603  14.362
67154W        W39469  10.391   5.888  11.302
67155W        W39470  16.760  43.382   2.786
67156W        W39471   1.391   0.608   3.143
67157W        W39472   1.535  30.453   0.527
67158W        W39473   3.419  43.579  11.697
67159W        W39474  24.056  37.445  11.823
67160W        W39475   4.340  36.168  12.193
67161W        W39476   5.247  42.489   2.295
67162W        W39477  18.249   6.700  12.643
67163W        W39478  10.868  24.842  11.121
67164W        W39479  37.043   0.124  13.047
67165W        W39480  30.760  10.868  14.454
67166W        W39481   0.742  31.483   0.190
67167W        W39482  37.435  42.590   0.045
67168W        W39483  22.839   3.418  10.501
67169W        W39484  29.621   2.733  13.754
67170W        W39485  13.100  20.578   2.420
67171W        W39486   1.768   0.561   2.482
67172W        W39487  24.759  35.774   2.883
67173W        W39488  16.408  40.335  10.660
67174W        W39489  16.635  27.994   1.432
67175W        W39490  15.677   6.714  12.583
67176W        W39491  14.862  21.675   3.241
67177W        W39492  39.229  32.631  12.442
67178W        W39493  12.694  11.692   3.551
67179W        W39494   9.467  16.761   2.829
67180W        W39495  16.806  36.359   3.237
67181W        W39496  43.810  41.585  13.022
67182W        W39497  44.456  12.136   3.810
67183W        W39498  17.692  26.148   3.163
67184W        W39499  39.488  20.755   0.020
67185W        W39500  19.278  10.225   4.442
67186W        W39501   9.381  29.082   3.273
67187W        W39502  17.744  41.633   2.687
67188W        W39503  40.882  29.935   4.520
67189W        W39504  27.518  12.696   3.388
67190W        W39505  44.248   5.002  13.411
67191W        W39506   8.420  31.713  13.257
67192W        W39507  34.604  17.545   4.564
67193W        W39508  32.491   6.827  14.849
67194W        W39509  24.065  40.867  11.439
67195W        W39510  23.005  20.863  13.424
67196W        W39511  16.204   6.764  12.571
67197W        W39512  38.200  13.952   5.048
67198W        W39513  25.403  37.316  12.485
67199W        W39514  31.552  18.358   2.348
67200W        W39515  29.684  23.586   0.763
67201W        W39516  14.476  32.986   0.235
67202W        W39517  25.112   7.734  11.965
67203W        W39518  36.442  26.347   2.696
67204W        W39519  10.689   5.174   4.108
67205W        W39520  27.962  35.857   1.465
67206W        W39521  28.581  27.137  14.352
67207W        W39522  20.632  40.028   3.667
67208W        W39523  13.592  28.627  14.497
67209W        W39524  43.219  34.341  13.941
67210W        W39525  33.656  34.979  12.447
67211W        W39526  26.997  18.824  12.953
67212W        W39527  37.776  34.575   2.781
67213W        W39528  38.080  32.957  10.544
67214W        W39529  40.852   6.728   1.407
67215W        W39530  17.189   5.455   0.665
67216W        W39531  25.984  18.394   3.825
67217W        W39532   4.856  31.296   0.753
67218W        W39533  12.012  17.279   3.556
67219W        W39534  43.857   6.191  11.895
67220W        W39535   3.806   5.310   3.270
67221W        W39536  37.065  12.892  14.801
67222W        W39537  13.430   3.490   5.083
67223W        W39538  20.260  30.435   2.720
67224W        W39539  43.293  39.486  12.048
67225W        W39540  21.988  23.110  14.371
67226W        W39541  38.609  12.058  10.017
67227W        W39542  22.715  19.332   1.792
67228W        W39543  22.337   2.523  14.569
67229W        W39544  14.262   7.181  12.035
67230W        W39545   2.862  11.868   2.908
67231W        W39546   0.116  19.344  10.569
67232W        W39547  31.620  28.933  13.958
67233W        W39548  43.168  15.782  12.825
67234W        W39549   1.316  27.976   2.167
67235W        W39550   7.342   0.078  13.734
67236W        W39551  39.913  12.373   0.907
67237W        W39552   9.175  20.652  11.093
67238W        W39553  10.741  41.163   3.193
67239W        W39554  18.159  18.680  14.792
67240W        W39555  40.449  44.949   1.390
67241W        W39556  40.508  17.612  11.965
67242W        W39557  15.478  44.254   4.636
67243W        W39558  23.064   9.442  11.178
67244W        W39559  21.200  37.944  10.688
67245W        W39560  23.831  21.723  13.001
67246W        W39561   4.968  25.242  14.701
67247W        W39562  44.611  15.735   3.296
67248W        W39563  40.485   0.779  11.526
67249W        W39564   3.423   9.216   0.412
67250W        W39565  18.722  10.112  11.496
67251W        W39566   5.825  31.470  11.102
67252W        W39567  33.856   0.488  11.196
67253W        W39568  31.101  19.777   2.793
67254W        W39569  18.576  30.708   1.711
67255W        W39570  29.952  16.248   2.745
67256W        W39571  14.745  33.056  12.013
67257W        W39572  42.481  17.678   4.006
67258W        W39573  28.371  32.918   2.612
67259W        W39574  15.280  31.018   0.090
67260W        W39575  22.066  26.683   1.884
67261W        W39576   9.352   7.076  12.452
67262W        W39577  26.609  24.122   4.566
67263W        W39578  11.624   3.649   4.324
67264W        W39579   6.276  18.816  13.502
67265W        W39580  16.285  19.813   1.802
67266W        W39581   1.908   7.677  12.563
67267W        W39582  40.530  38.424  12.484
67268W        W39583  23.955  21.730   4.574
67269W        W39584  16.090  24.215  13.310
67270W        W39585   6.440  21.310   4.573
67271W        W39586  11.144   8.865   4.110
67272W        W39587  36.523  23.749   2.932
67273W        W39588  25.260  38.246   1.308
67274W        W39589  12.204  37.813   2.200
67275W        W39590  11.654  17.231   1.693
67276W        W39591   9.815  32.609  14.037
67277W        W39592  32.173  19.295   3.041
67278W        W39593   5.202  34.915   1.279
67279W        W39594  26.482  39.503   3.700
67280W        W39595  29.614  20.205   3.362
67281W        W39596  20.282  40.381   3.328
67282W        W39597   8.008  33.829   2.521
67283W        W39598  43.061   4.226   1.756
67284W        W39599  20.229  44.080  11.620
67285W        W39600  18.836  11.077  13.545
67286W        W39601   4.084   5.744  14.003
67287W        W39602  18.220  14.258   4.720
67288W        W39603  37.339  23.004   4.893
67289W        W39604   2.975   7.219  12.276
67290W        W39605  44.473  33.901  10.127
67291W        W39606  12.912  14.464  14.496
67292W        W39607  19.570  26.532   2.707
67293W        W39608  37.535   6.629  11.111
67294W        W39609  31.422  34.641  10.985
67295W        W39610   7.212   8.707  11.928
67296W        W39611  31.988  44.267   1.755
67297W        W39612   2.392   2.932   3.883
67298W        W39613  16.523  38.404  11.077
67299W        W39614  38.565   6.647  13.026
67300W        W39615  11.759   3.854   3.833
67301W        W39616  19.059   2.018   0.892
67302W        W39617  13.166   7.871  10.659
67303W        W39618  39.301  41.300  10.301
67304W        W39619  13.432   6.441  14.497
67305W        W39620  32.143   5.379   3.334
67306W        W39621  39.591   9.838  11.086
67307W        W39622  41.411  17.068   2.759
67308W        W39623  21.771   5.874  14.933
67309W        W39624  16.660  22.641  12.167
67310W        W39625  26.759  18.073  13.584
67311W        W39626   9.788   2.004  14.422
67312W        W39627   6.668  38.619   4.289
67313W        W39628  29.129  39.298  14.559
67314W        W39629  39.033  39.315   2.266
67315W        W39630  19.682  16.806   3.684
67316W        W39631  38.891  25.499  11.181
67317W        W39632   6.493  41.040  13.273
67318W        W39633  29.220  37.603   3.695
67319W        W39634  11.400  43.017  14.895
67320W        W39635  44.246  11.322   0.453
67321W        W39636   8.068  20.047   0.276
67322W        W39637   8.077  44.465  14.682
67323W        W39638  43.574  10.891   1.346
67324W        W39639   2.994  40.296  13.114
67325W        W39640  30.173  42.937   3.645
67326W        W39641  22.737  25.612  10.920
67327W        W39642   6.933  18.787  11.991
67328W        W39643  35.114  42.932  11.480
67329W        W39644  33.318  11.825   3.655
67330W        W39645   9.227   5.982  14.925
67331W        W39646   6.491  38.365   1.421
67332W        W39647  36.586  18.267   3.405
67333W        W39648  16.139  37.829  13.279
67334W        W39649   0.803   6.552   3.811
67335W        W39650  31.379  38.155  11.186
67336W        W39651   2.447  40.529   3.502
67337W        W39652  10.224  24.531   0.165
67338W        W39653  37.725  26.600   5.353
67339W        W39654  14.808  26.553  12.881
67340W        W39655   9.194   1.498  11.391
67341W        W39656   9.909   1.523   0.841
67342W        W39657  31.160  40.621  12.968
67343W        W39658   6.115  38.004   3.756
67344W        W39659  28.396  32.651  11.565
67345W        W39660   2.916  44.317  11.191
67346W        W39661  14.209  17.780   3.154
67347W        W39662  20.243   7.020   1.608
67348W        W39663   8.933   0.017  12.900
67349W        W39664   7.955   6.460   1.569
67350W        W39665   2.010  34.109   2.310
67351W        W39666   2.917  42.808   4.415
67352W        W39667  17.272  18.576  13.954
67353W        W39668  25.506   5.259  12.585
67354W        W39669  12.119  41.323  10.262
67355W        W39670  44.950  11.726   4.982
67356W        W39671  36.625  32.390  11.602
67357W        W39672  10.368  23.160  14.410
67358W        W39673  20.988  34.983   2.230
67359W        W39674  37.283  30.473   0.912
67360W        W39675  40.128  10.746   4.026
67361W        W39676  15.833  29.762   2.010
67362W        W39677   2.636  13.574  11.126
67363W        W39678   6.479   2.456   1.616
67364W        W39679  21.081   0.363  11.415
67365W        W39680   9.366  38.796   4.595
67366W        W39681  17.014  11.362   1.445
67367W        W39682  34.324  18.709   2.389
67368W        W39683  26.725  15.111  10.574
67369W        W39684  31.508   4.208   4.578
67370W        W39685  36.053  21.736   2.636
67371W        W39686  35.521  18.154  11.608
67372W        W39687   1.383  29.677  11.164
67373W        W39688  20.186  41.908  13.474
67374W        W39689   5.219   9.035   0.635
67375W        W39690  14.349  30.037   2.662
67376W        W39691  21.101  13.515   3.273
67377W        W39692   0.176  11.509  10.683
67378W        W39693  12.672   6.705   0.270
67379W        W39694  11.106  23.266  11.943
67380W        W39695  29.938  26.007   1.158
67381W        W39696  17.850  44.030   3.928
67382W        W39697   5.651   6.320  14.502
67383W        W39698  27.426  30.927  14.956
67384W        W39699  12.686  21.216   2.525
67385W        W39700  24.144  41.898  12.508
67386W        W39701  13.605  34.666   2.265
67387W        W39702  39.917  16.807  13.315
67388W        W39703  12.154  16.698  10.106
67389W        W39704  23.433  34.506   3.759
67390W        W39705  31.300  33.193  11.160
67391W        W39706  25.035  36.456  10.521
67392W        W39707  42.675  34.958   4.886
67393W        W39708  32.359  16.254   0.655
67394W        W39709  39.527  15.278  14.527
67395W        W39710   6.290   9.915   2.614
67396W        W39711  26.252   0.531  14.187
67397W        W39712  22.828  39.386  12.325
67398W        W39713   7.515   2.748   2.208
67399W        W39714  10.527  20.630  13.293
67400W        W39715  11.242   0.920   3.593
67401W        W39716   9.235  32.393   2.721
67402W        W39717  18.100   8.163   2.652
67403W        W39718  22.616   1.697  13.061
67404W        W39719  44.424  28.567   1.355
67405W        W39720  20.260  14.854  11.899
67406W        W39721  19.780  13.234   3.215
67407W        W39722   1.052  19.959  13.873
67408W        W39723  12.102  42.987   3.392
67409W        W39724   7.767   8.276   3.624
67410W        W39725  19.699   6.415  12.692
67411W        W39726  44.367  26.795  11.076
67412W        W39727  40.757   9.343  14.400
67413W        W39728  25.480  20.126   1.837
67414W        W39729   1.997  31.055   0.876
67415W        W39730  35.937  27.231  11.138
67416W        W39731   6.218   9.399  10.718
67417W        W39732  11.362   2.121   4.245
67418W        W39733  41.528  35.989  12.383
67419W        W39734  35.302   3.718  12.944
67420W        W39735  11.717  28.186   5.063
67421W        W39736  13.348  11.244  11.995
67422W        W39737  30.652   6.963   1.806
67423W        W39738  30.343  44.352  14.904
67424W        W39739  28.531  26.329  14.878
67425W        W39740  38.330  39.896   1.245
67426W        W39741  20.094  29.718   0.447
67427W        W39742  19.732  38.320   5.519
67428W        W39743  12.623  25.149   4.935
67429W        W39744  43.555  23.881   4.155
67430W        W39745  10.347  13.783  13.884
67431W        W39746   8.375  43.234  14.931
67432W        W39747  18.299  40.999  12.891
67433W        W39748   8.898  42.902   0.883
67434W        W39749   6.921   3.552   1.973
67435W        W39750  33.980  44.946  13.741
67436W        W39751  44.841   4.294  13.925
67437W        W39752  44.845  20.929  12.884
67438W        W39753  32.912   8.135   4.636
67439W        W39754   1.814  28.178   4.849
67440W        W39755  24.374  18.632  10.292
67441W        W39756  16.793  29.912   2.851
67442W        W39757  34.103  21.535  14.991
67443W        W39758  32.573  23.515  14.335
67444W        W39759  41.850  12.554  11.500
67445W        W39760  22.594  39.809  10.650
67446W        W39761  39.344  27.049  10.607
67447W        W39762  23.516  28.236   0.263
67448W        W39763  21.569  44.924  12.606
67449W        W39764   8.354  10.147   0.338
67450W        W39765  18.595   4.793   1.378
67451W        W39766  41.074  26.639  14.074
67452W        W39767  11.927   5.642  11.378
67453W        W39768  27.776  29.540   3.624
67454W        W39769  37.426   0.337  12.318
67455W        W39770   8.412  24.018  14.514
67456W        W39771  11.006  16.525   5.774
67457W        W39772  43.225   3.676  12.377
67458W        W39773  32.171  35.405   4.587
67459W        W39774  38.350  20.828  12.019
67460W        W39775  34.497  35.726   2.253
67461W        W39776   1.174   9.753   9.955
67462W        W39777  24.117  23.985  13.340
67463W        W39778  20.335  37.181  11.984
67464W        W39779  44.760  18.688   4.966
67465W        W39780  26.740  15.673   1.661
67466W        W39781  30.349   3.256  10.630
67467W        W39782  29.513  32.891  10.736
67468W        W39783   2.411  13.554  13.597
67469W        W39784   2.373  16.263  12.127
67470W        W39785  34.893  44.811  13.314
67471W        W39786  38.005  17.008   1.087
67472W        W39787  13.209  27.811  10.293
67473W        W39788  13.779  43.093  13.755
67474W        W39789  12.824  41.341   1.408
67475W        W39790  42.826  28.008  12.017
67476W        W39791  39.920  41.358  14.800
67477W        W39792  37.553   7.901  14.689
67478W        W39793   6.871  32.922   2.197
67479W        W39794   5.253  21.717   1.336
67480W        W39795   7.480  32.675  14.436
67481W        W39796  17.554   8.314   0.893
67482W        W39797  11.898  10.877   0.073
67483W        W39798  14.604  39.959  10.698
67484W        W39799  39.891  27.244  11.482
67485W        W39800   8.389  35.573   0.472
67486W        W39801   9.188  13.095   0.391
67487W        W39802  38.299  36.431  11.375
67488W        W39803  19.752   2.957  10.552
67489W        W39804  30.868  18.079   4.608
67490W        W39805  17.275  38.255  10.727
67491W        W39806  19.144   5.684   1.868
67492W        W39807  23.539   2.834   0.207
67493W        W39808   8.939  21.920   2.329
67494W        W39809  17.073   2.805  13.555
67495W        W39810  15.299  43.167   3.033
67496W        W39811  23.802  29.326   1.946
67497W        W39812  28.861  22.050   0.354
67498W        W39813  34.871  12.687   9.748
67499W        W39814  25.093  11.599  10.936
67500W        W39815   6.359  12.621   9.586
67501W        W39816  26.229   4.632   3.215
67502W        W39817   5.311   9.965  14.257
67503W        W39818   0.997  31.301  13.838
67504W        W39819  15.181   4.797   4.088
67505W        W39820   7.342  19.259   0.281
67506W        W39821  16.734   8.303   4.372
67507W        W39822   3.963   1.578  10.592
67508W        W39823  33.523  10.321   2.868
67509W        W39824  23.516   9.434   3.291
67510W        W39825  42.683   5.533  13.433
67511W        W39826  15.543   3.253  12.123
67512W        W39827  44.379   4.249   4.601
67513W        W39828  12.688  26.623  12.040
67514W        W39829  19.265  32.646   3.807
67515W        W39830  10.597   9.709   0.951
67516W        W39831  22.635  23.607  11.081
67517W        W39832  10.502  24.743   2.973
67518W        W39833  28.593   9.412   2.206
67519W        W39834   0.938   3.730   0.832
67520W        W39835  32.346  27.147  14.484
67521W        W39836  19.787   4.528   1.791
67522W        W39837  27.938  40.170  10.532
67523W        W39838   2.343  29.408  12.971
67524W        W39839  34.767  28.540  11.210
67525W        W39840  29.760  42.466   3.325
67526W        W39841   0.763  43.331   4.280
67527W        W39842  42.966  16.918  13.599
67528W        W39843   6.818   1.393   2.459
67529W        W39844  16.694  38.922  12.376
67530W        W39845  36.356   7.090  11.214
67531W        W39846   8.684   9.456   4.632
67532W        W39847  24.489   7.465   0.934
67533W        W39848  23.663   6.833   3.060
67534W        W39849  37.875  21.601   3.733
67535W        W39850   2.347   7.165   3.377
67536W        W39851  37.035  36.865  11.035
67537W        W39852  32.833  10.678   1.877
67538W        W39853  35.000  34.030  12.376
67539W        W39854  17.514  39.105  14.306
67540W        W39855  19.381  31.031   1.689
67541W        W39856   8.637  20.073  13.426
67542W        W39857  40.864   1.531  11.108
67543W        W39858  15.414  21.674   4.077
67544W        W39859  41.522  30.903  12.000
67545W        W39860   4.515  12.574   4.658
67546W        W39861  34.004   2.656  14.327
67547W        W39862  29.730  29.559  10.290
67548W        W39863  35.665  35.083  14.839
67549W        W39864  19.294  29.744   4.105
67550W        W39865   7.668  23.676   2.293
67551W        W39866  44.169  42.902  14.388
67552W        W39867   1.658   6.384  13.281
67553W        W39868  18.354   3.332  12.436
67554W        W39869  18.341   5.936  13.174
67555W        W39870  11.664  35.562  13.106
67556W        W39871  23.564  12.633   0.177
67557W        W39872  30.120  19.997   2.698
67558W        W39873  35.097  42.779  14.856
67559W        W39874  29.675  19.541  13.482
67560W        W39875  40.832  26.996   4.917
67561W        W39876  18.777   7.395  10.913
67562W        W39877   7.152  28.618  14.246
67563W        W39878  29.495  18.347  11.734
67564W        W39879  33.509  24.238  12.481
67565W        W39880  29.501   1.286   5.180
67566W        W39881   7.772  23.891  11.543
67567W        W39882   7.601   6.958  13.488
67568W        W39883  21.631  19.163   0.879
67569W        W39884   1.079  16.270  10.928
67570W        W39885   5.437  44.256   3.129
67571W        W39886  35.387  35.904   0.194
67572W        W39887   9.233  41.312   4.040
67573W        W39888   5.168  16.192   4.860
67574W        W39889   3.803  30.079   4.387
67575W        W39890   1.426  15.541  11.196
67576W        W39891  17.588  18.893  10.577
67577W        W39892  25.722  33.698  13.406
67578W        W39893  14.192  44.676  12.435
67579W        W39894  36.442  13.315  10.766
67580W        W39895  44.712  22.628   2.803
67581W        W39896  34.365  30.186  14.467
67582W        W39897  19.333  35.185  12.470
67583W        W39898  44.750  31.608  11.626
67584W        W39899   2.749  19.771   4.248
67585W        W39900  31.927   2.435   1.016
67586W        W39901  38.523  38.108   4.779
67587W        W39902   0.475  11.552   1.242
67588W        W39903  24.015  13.191   1.219
67589W        W39904  18.051   3.682  14.541
67590W        W39905  36.617  13.774  11.091
67591W        W39906  42.504   8.032  12.930
67592W        W39907  16.791  25.399   1.259
67593W        W39908  42.883  15.875  13.329
67594W        W39909   3.189  29.169   3.164
67595W        W39910   2.323   6.913   1.642
67596W        W39911  43.509  13.381   3.946
67597W        W39912   2.296  21.627   2.651
67598W        W39913  40.090  33.375  14.178
67599W        W39914  23.684  21.631   9.918
67600W        W39915  26.080  36.956  12.492
67601W        W39916   5.217   1.316  10.673
67602W        W39917  27.113   3.758  10.185
67603W        W39918  36.279  21.157  11.311
67604W        W39919   7.158  35.569  10.741
67605W        W39920  17.846  30.713   3.651
67606W        W39921  32.086  28.074   2.728
67607W        W39922  34.783  29.244  11.722
67608W        W39923  29.134  21.911   1.303
67609W        W39924  38.627  34.479   3.942
67610W        W39925  22.612   8.621   4.206
67611W        W39926  13.493  14.347  12.064
67612W        W39927  31.211   5.733   2.375
67613W        W39928   4.771  32.015   4.339
67614W        W39929  34.574  35.879   4.135
67615W        W39930  20.151  20.814   1.175
67616W        W39931   3.391  29.785  11.261
67617W        W39932   0.232  18.717   1.773
67618W        W39933  29.442  28.659  12.071
67619W        W39934  30.332  29.988  12.247
67620W        W39935  20.256  18.700   3.131
67621W        W39936  28.542  15.310   0.263
67622W        W39937  24.534  15.293   0.196
67623W        W39938  17.039   5.460   2.271
67624W        W39939  42.988   1.288   3.633
67625W        W39940  27.074  26.001  14.423
67626W        W39941  27.309  31.478  13.935
67627W        W39942   3.788  12.488   1.692
67628W        W39943  39.544  28.416   4.247
67629W        W39944   8.453  40.843   1.321
67630W        W39945  21.312  26.011  12.675
67631W        W39946  23.792  26.579  10.646
67632W        W39947   6.454   0.054   0.653
67633W        W39948  39.372  39.088   1.296
67634W        W39949  34.923  13.917  14.850
67635W        W39950  15.155  10.374   4.066
67636W        W39951  29.759  40.796  13.833
67637W        W39952   3.527   3.627  13.647
67638W        W39953  16.971   7.230  10.862
67639W        W39954   0.451  12.567   0.355
67640W        W39955   6.672  33.071  11.209
67641W        W39956  32.354  13.836   2.198
67642W        W39957  26.253   6.749  12.415
67643W        W39958  20.588   9.648   1.480
67644W        W39959  15.294  26.551  13.066
67645W        W39960   7.199  26.086  11.664
67646W        W39961   2.873  14.589   3.390
67647W        W39962  36.058  20.653   4.228
67648W        W39963   7.959  13.140   4.991
67649W        W39964  27.127  35.602  13.312
67650W        W39965  22.925  26.556   4.110
67651W        W39966  13.829  40.145   0.980
67652W        W39967  24.517  27.405  12.385
67653W        W39968  21.592   3.734  10.659
67654W        W39969  36.761  31.334  13.954
67655W        W39970   9.440  16.949   0.012
67656W        W39971   1.370  34.016   4.599
67657W        W39972  38.992  30.510   4.133
67658W        W39973  29.196  28.706  12.528
67659W        W39974   6.251  19.328  12.467
67660W        W39975  38.259  35.544   1.703
67661W        W39976  40.297  34.997   2.194
67662W        W39977  15.968  33.008  13.340
67663W        W39978  20.311  24.737  11.528
67664W        W39979  24.698  11.150  11.543
67665W        W39980   3.331  24.667   0.135
67666W        W39981  38.070  38.879   1.439
67667W        W39982  24.717   4.186   4.619
67668W        W39983  27.830  36.114  12.080
67669W        W39984  16.024  18.181  14.524
67670W        W39985  28.309  20.387  14.804
67671W        W39986  17.688   3.598  12.667
67672W        W39987  26.046  20.769  14.195
67673W        W39988  26.068  28.699  11.907
67674W        W39989  33.539   1.308   3.696
67675W        W39990  12.034  11.334  10.887
67676W        W39991  11.784  33.484   4.160
67677W        W39992   7.770  18.676   0.357
67678W        W39993  19.200  12.978   2.429
67679W        W39994   4.474  21.428   1.120
67680W        W39995  13.554  38.522  14.194
67681W        W39996  33.263   1.881  14.467
67682W        W39997  20.559  25.758   0.289
67683W        W39998  16.586  40.801  12.538
67684W        W39999  35.037  35.799   5.054
67685W        W40000  23.642  30.138  12.081
67686W        W40001  43.755   3.898   1.442
67687W        W40002  20.086  37.265   0.927
67688W        W40003  34.579  23.301  14.928
67689W        W40004  40.463  43.505  10.701
67690W        W40005  18.320   9.197   4.317
67691W        W40006  41.220  30.029  13.076
67692W        W40007  38.663   0.962  11.705
67693W        W40008  32.392  31.179  10.873
67694W        W40009  37.813  30.156  11.196
67695W        W40010  44.241   8.279  11.986
67696W        W40011  40.316  38.447   0.230
67697W        W40012  30.209  25.992   3.223
67698W        W40013  20.163  16.658   3.183
67699W        W40014  25.436  13.851   3.838
67700W        W40015   0.134   7.718  12.807
67701W        W40016  41.047   4.855  14.517
67702W        W40017   1.024  30.180  14.806
67703W        W40018   2.373   6.230   4.051
67704W        W40019  21.856  12.881   2.180
67705W        W40020  28.049  18.256   4.613
67706W        W40021  35.433  37.343   0.293
67707W        W40022   2.262  36.059  14.392
67708W        W40023  19.148  39.529   4.182
67709W        W40024  32.492   0.820  11.546
67710W        W40025   0.194  11.820  14.898
67711W        W40026  41.383  20.968   4.584
67712W        W40027  13.114   0.426   4.574
67713W        W40028  27.913   5.250   3.513
67714W        W40029   6.811  27.650   4.472
67715W        W40030   8.103  43.782   4.038
67716W        W40031  35.174   1.834  10.730
67717W        W40032  15.680   7.697   4.457
67718W        W40033  25.603  36.436   1.150
67719W        W40034  32.790   4.773   2.342
67720W        W40035  31.284  36.850  11.045
67721W        W40036   1.303  28.426   1.892
67722W        W40037  18.771  37.120  11.056
67723W        W40038  36.522  43.378   1.903
67724W        W40039   5.254  14.203   2.347
67725W        W40040  33.545  35.851   2.219
67726W        W40041   2.891   4.461   1.761
67727W        W40042  43.843  30.695  13.453
67728W        W40043   9.374  38.818   4.067
67729W        W40044  27.568  28.378   0.840
67730W        W40045  26.217  40.284   3.039
67731W        W40046   3.444  41.499   3.218
67732W        W40047  39.025  38.093  13.828
67733W        W40048  37.927  42.581   4.690
67734W        W40049  30.095  16.930  14.955
67735W        W40050   4.283  38.649  10.324
67736W        W40051   6.930   7.479  14.144
67737W        W40052   3.747  23.000   1.141
67738W        W40053  27.689   7.248   3.652
67739W        W40054  19.700  43.350  12.614
67740W        W40055   3.394   9.747   0.429
67741W        W40056   1.033  34.057   5.495
67742W        W40057  31.141   4.468   0.682
67743W        W40058  25.415  36.851   0.917
67744W        W40059   8.328  27.705   3.745
67745W        W40060  11.337  15.697  12.435
67746W        W40061  33.487   6.654  11.119
67747W        W40062   4.837  24.948   1.823
67748W        W40063  37.425  30.062   2.685
67749W        W40064  22.572  36.438   1.740
67750W        W40065  35.053  20.892  13.983
67751W        W40066  20.285   9.619   2.378
67752W        W40067  33.990  34.603   1.659
67753W        W40068  30.697  37.136   0.215
67754W        W40069  44.875  42.233  11.558
67755W        W40070  16.733  27.596   2.235
67756W        W40071   5.738   3.489   3.538
67757W        W40072  25.089  16.779  10.711
67758W        W40073  39.609  17.653   4.020
67759W        W40074  11.025  27.563  13.192
67760W        W40075  28.472  17.361  11.573
67761W        W40076  41.305  32.449  13.820
67762W        W40077  16.688  28.515   2.204
67763W        W40078  16.847  44.563   1.087
67764W        W40079  33.061   0.713  14.990
67765W        W40080  20.112  27.441   1.741
67766W        W40081  42.891  36.542   4.087
67767W        W40082  36.917  14.381  14.356
67768W        W40083  10.924   9.251   2.389
67769W        W40084  35.104  16.535  13.379
67770W        W40085  35.139  32.696   1.339
67771W        W40086   7.949  36.172   3.656
67772W        W40087   9.097  11.307   1.323
67773W        W40088   8.995  19.425   2.878
67774W        W40089  39.916  27.009   4.838
67775W        W40090  37.324  19.264  12.169
67776W        W40091  26.723  39.161   3.391
67777W        W40092   9.590  26.030  14.825
67778W        W40093  15.019  40.515  14.776
67779W        W40094  44.731  34.146   4.048
67780W        W40095  19.824  18.292  11.655
67781W        W40096  33.459  44.649   0.320
67782W        W40097   4.016  31.913  11.582
67783W        W40098  39.512  22.566  10.837
67784W        W40099  40.016  25.645  14.179
67785W        W40100   0.407  40.411   2.733
67786W        W40101   3.549  30.079  11.653
67787W        W40102  34.776  12.367   2.848
67788W        W40103  25.027  36.133   0.493
67789W        W40104  35.445   5.628   1.803
67790W        W40105   1.794   6.197   1.765
67791W        W40106  11.444  12.778   1.864
67792W        W40107  31.007  24.495   2.687
67793W        W40108  14.666  35.661   2.132
67794W        W40109  18.077  32.357  14.284
67795W        W40110  38.233  38.280  10.915
67796W        W40111  44.853   0.018  12.916
67797W        W40112  33.408  41.982   3.663
67798W        W40113   4.002  16.595   1.236
67799W        W40114  13.754  27.025  11.178
67800W        W40115  25.059  35.689   0.991
67801W        W40116  31.423   3.288  13.352
67802W        W40117   0.815  17.298   2.638
67803W        W40118   2.503  44.241  10.434
67804W        W40119  42.514  33.422   2.035
67805W        W40120  28.052  10.103   0.768
67806W        W40121  44.035   5.196  14.713
67807W        W40122  24.091  43.960   1.107
67808W        W40123  22.060  29.614  10.680
67809W        W40124  33.102   3.241   3.179
67810W        W40125  33.408  14.065   2.033
67811W        W40126  34.645  15.274  11.199
67812W        W40127   4.730  30.241  11.230
67813W        W40128   7.826  26.692  13.185
67814W        W40129  43.949  20.569  12.994
67815W        W40130  38.566  33.101   2.619
67816W        W40131   9.952   7.332  14.936
67817W        W40132   7.310  22.130  10.604
67818W        W40133  39.424  12.170   3.150
67819W        W40134  35.069  32.003   4.617
67820W        W40135  30.511   4.159   3.284
67821W        W40136  34.984  31.115   0.270
67822W        W40137   7.963  22.987  13.009
67823W        W40138   4.607  10.261  12.018
67824W        W40139  34.110  34.548   0.401
67825W        W40140  21.221  37.589   1.255
67826W        W40141  13.670  40.270   1.657
67827W        W40142  35.323   9.100  13.516
67828W        W40143  30.002  13.745   1.816
67829W        W40144   2.957  18.250   0.735
67830W        W40145  15.236  44.392  11.680
67831W        W40146  23.719  10.095   4.251
67832W        W40147  14.319  38.354  11.134
67833W        W40148  33.726   6.781   3.634
67834W        W40149   0.202  19.981  14.746
67835W        W40150  10.736  36.615   0.946
67836W        W40151   0.312  17.349  10.446
67837W        W40152  23.838  20.115  11.843
67838W        W40153  29.207  18.065  13.354
67839W        W40154  32.107   3.274   2.844
67840W        W40155  13.650  35.879  14.312
67841W        W40156  43.444  17.590   4.351
67842W        W40157   6.194   6.794  14.917
67843W        W40158  18.888  35.115  14.146
67844W        W40159   7.742  13.788   1.873
67845W        W40160  27.402  30.589  13.284
67846W        W40161  32.096  19.483  11.606
67847W        W40162  21.505  10.187   2.416
67848W        W40163  33.371  43.963  12.540
67849W        W40164  40.790  14.782  11.522
67850W        W40165  14.181  36.770   0.080
67851W        W40166  15.563  17.943  11.195
67852W        W40167   7.670  30.475  13.828
67853W        W40168   3.789  32.180   2.676
67854W        W40169   1.396  34.029  13.106
67855W        W40170  14.554  32.028  13.002
67856W        W40171  44.322  22.252   3.781
67857W        W40172  40.267  39.705  14.356
67858W        W40173  35.586  38.414   3.813
67859W        W40174  34.340   4.614   0.852
67860W        W40175  19.693  22.258   1.722
67861W        W40176  31.081  39.901  14.459
67862W        W40177  31.676   8.801   1.387
67863W        W40178  40.752  14.415   4.437
67864W        W40179   9.039  42.370   0.885
67865W        W40180   7.583  29.633   4.181
67866W        W40181  33.627   9.863  11.648
67867W        W40182  43.582   1.563   1.939
67868W        W40183  27.404  17.070   1.772
67869W        W40184  24.059  13.622   3.157
67870W        W40185  41.335   2.243  13.902
67871W        W40186   4.133  22.714   3.647
67872W        W40187  20.112  14.152  11.786
67873W        W40188  34.573   6.285   0.053
67874W        W40189  26.362  15.797   4.544
67875W        W40190  37.836  26.458  11.893
67876W        W40191   0.961  13.374   1.375
67877W        W40192   1.063  31.832  13.056
67878W        W40193   5.863  25.530  10.614
67879W        W40194  15.338   0.299  10.732
67880W        W40195   3.723  13.693  11.959
67881W        W40196  30.058  44.072  14.432
67882W        W40197  44.821   7.321  12.603
67883W        W40198  16.671  36.016   2.239
67884W        W40199  10.421   4.505   1.851
67885W        W40200  21.737  14.346  11.747
67886W        W40201  28.526  13.350  12.860
67887W        W40202  13.660  18.089   0.652
67888W        W40203  37.831  14.657   1.899
67889W        W40204  15.817  44.757   3.622
67890W        W40205  24.674   7.225   2.219
67891W        W40206  26.707  34.448  10.364
67892W        W40207  23.228  15.424   0.498
67893W        W40208  18.258  44.867  10.677
67894W        W40209  22.522  32.459   4.134
67895W        W40210  24.799  13.118  13.105
67896W        W40211  14.242  15.257  12.903
67897W        W40212  37.784  42.336  10.575
67898W        W40213  38.390  39.869  14.272
67899W        W40214  13.643   4.764   1.321
67900W        W40215   4.243  21.771  12.879
67901W        W40216   0.965  16.214   2.348
67902W        W40217   4.013  23.909  14.483
67903W        W40218  40.403   6.611   0.677
67904W        W40219  31.810  26.860   4.908
67905W        W40220   0.584  20.297   4.721
67906W        W40221  43.511  22.538   4.918
67907W        W40222   6.911  36.046   4.562
67908W        W40223  28.101  24.642   4.061
67909W        W40224  30.928  16.665   1.949
67910W        W40225  33.549  35.397   2.467
67911W        W40226  24.389  32.127   0.787
67912W        W40227   3.670  15.179   3.795
67913W        W40228  20.737  24.008  12.386
67914W        W40229  32.431   9.745  10.622
67915W        W40230   2.299  23.834   3.752
67916W        W40231  15.243   9.655  14.043
67917W        W40232   5.197  18.178   3.789
67918W        W40233  43.513  22.971  14.094
67919W        W40234  30.190  30.153   0.506
67920W        W40235  33.203  40.075  10.665
67921W        W40236  27.218  40.300  10.061
67922W        W40237  31.990   1.829  14.836
67923W        W40238  32.713  19.140   4.193
67924W        W40239  34.118  35.096  12.279
67925W        W40240  36.366  40.120  13.489
67926W        W40241   5.903  44.753  11.839
67927W        W40242   9.404   9.744   3.575
67928W        W40243   0.990   2.919  13.470
67929W        W40244   8.284   5.127   2.747
67930W        W40245  29.465  18.047   0.475
67931W        W40246  36.119  37.100  11.949
67932W        W40247  10.981  22.762   3.604
67933W        W40248  36.199  39.317  11.042
67934W        W40249   6.350   5.834   0.833
67935W        W40250  35.622   2.940   2.360
67936W        W40251   5.139  36.794   1.341
67937W        W40252  40.019  35.331  12.535
67938W        W40253  36.071  16.824  11.209
67939W        W40254  42.434  16.094   2.798
67940W        W40255   2.380  12.695  11.434
67941W        W40256   8.239  10.754   4.097
67942W        W40257   1.307  37.447   4.648
67943W        W40258   3.213  18.225   0.264
67944W        W40259  38.999  34.743  10.697
67945W        W40260  26.737  15.324  13.474
67946W        W40261  34.513  25.153  10.651
67947W        W40262  38.082  15.846   2.542
67948W        W40263  11.730  28.220   4.189
67949W        W40264  21.710  29.119   3.162
67950W        W40265  22.520  29.518  12.950
67951W        W40266  14.251  44.815   3.668
67952W        W40267   6.770   1.325   4.283
67953W        W40268  29.403  34.063  14.313
67954W        W40269  32.717  23.820  12.990
67955W        W40270  19.513  36.018   1.748
67956W        W40271  23.234  17.081  11.968
67957W        W40272   7.362  22.453  12.438
67958W        W40273  37.918  37.237  12.255
67959W        W40274  38.839   5.359   0.243
67960W        W40275   6.874   5.322  13.903
67961W        W40276  43.374   2.942  10.746
67962W        W40277  40.460  30.546   0.901
67963W        W40278  19.011  37.563  11.120
67964W        W40279   3.519  36.022   4.346
67965W        W40280  34.997  21.026  10.679
67966W        W40281  27.935  26.716   2.290
67967W        W40282   0.815  35.599  13.984
67968W        W40283   0.412  27.248  12.420
67969W        W40284  37.602  40.500   1.419
67970W        W40285   2.996  20.754  12.893
67971W        W40286   4.865   3.656  14.791
67972W        W40287   4.807  30.015  10.751
67973W        W40288  37.116   8.171   4.189
67974W        W40289  30.586  31.544   3.113
67975W        W40290  25.804  12.975   3.636
67976W        W40291  26.227   9.120  12.225
67977W        W40292  37.300   6.020  12.913
67978W        W40293  20.601  39.887   0.915
67979W        W40294  24.437   3.721  10.565
67980W        W40295  15.861  33.590  14.457
67981W        W40296  28.832  20.928  11.041
67982W        W40297   7.540   2.158   0.671
67983W        W40298  15.514  11.598   4.125
67984W        W40299  44.842  21.176  10.522
67985W        W40300   3.160  41.456  14.916
67986W        W40301   9.405  37.896  13.950
67987W        W40302  30.061  35.864   2.731
67988W        W40303   4.878  28.596   3.013
67989W        W40304  14.467  36.626   5.065
67990W        W40305  34.302  39.521  10.551
67991W        W40306   9.394   0.900  12.117
67992W        W40307  41.599  24.982   1.350
67993W        W40308   9.172   3.550   4.346
67994W        W40309  34.336  42.999   3.226
67995W        W40310  18.323   3.533  11.941
67996W        W40311   1.217  16.385   4.714
67997W        W40312  36.346  37.014   1.453
67998W        W40313  43.961  25.674  10.672
67999W        W40314  31.672  40.104   4.517
68000W        W40315   3.800  39.879   1.018
68001W        W40316  30.614   1.907   2.760
68002W        W40317  40.336  42.045   1.057
68003W        W40318  11.137   8.701  12.885
68004W        W40319  43.342   3.077  14.882
68005W        W40320  26.611  29.357   2.287
68006W        W40321  38.337  41.062  12.440
68007W        W40322  30.414  43.726  14.192
68008W        W40323  10.648  10.664  14.386
68009W        W40324  42.403  34.363   1.657
68010W        W40325  34.063  32.085  13.634
68011W        W40326  16.851  29.884  11.528
68012W        W40327   2.006  39.310  14.342
68013W        W40328   1.772  13.332   3.406
68014W        W40329  28.723   7.471  11.555
68015W        W40330  30.892  40.593   2.755
68016W        W40331  38.280  44.847  13.541
68017W        W40332  36.279  32.586   1.938
68018W        W40333  25.585  16.578   1.230
68019W        W40334  27.549  31.183   1.435
68020W        W40335   3.935   1.419   3.744
68021W        W40336  41.834  15.098  12.941
68022W        W40337  22.693  44.505  11.577
68023W        W40338  42.615   6.864   2.244
68024W        W40339  31.840  34.041  12.899
68025W        W40340  23.330  39.298   3.309
68026W        W40341  26.736  20.038   2.440
68027W        W40342  32.550   6.769   1.299
68028W        W40343  13.420   7.266  11.088
68029W        W40344  18.121  26.662  13.779
68030W        W40345  27.570  24.799  12.960
68031W        W40346  21.129  18.026   3.204
68032W        W40347  18.718  39.922  10.682
68033W        W40348  29.611  16.027  10.969
68034W        W40349  37.412  17.034  13.591
68035W        W40350  13.082  19.041   2.276
68036W        W40351   1.636   2.841   0.242
68037W        W40352   8.286  21.690   4.770
68038W        W40353  38.870  24.200   0.036
68039W        W40354  42.909  38.335   0.949
68040W        W40355  27.557  21.213   0.844
68041W        W40356   4.884  22.766   4.063
68042W        W40357  43.391  37.304   2.637
68043W        W40358   8.211   7.218  12.795
68044W        W40359   1.553  19.199  13.370
68045W        W40360  35.008   7.682  11.293
68046W        W40361  16.042  13.618  14.315
68047W        W40362  22.183   7.331  10.702
68048W        W40363  26.510  13.181   1.142
68049W        W40364  31.537   0.409  11.973
68050W        W40365  11.384   0.925  12.510
68051W        W40366  19.922   1.228  14.426
68052W        W40367  29.215  44.435   0.375
68053W        W40368   3.510  17.527  13.997
68054W        W40369   3.102  28.633  10.740
68055W        W40370  28.022  34.578   4.522
68056W        W40371  38.793  17.222   0.899
68057W        W40372   1.270  39.083   2.585
68058W        W40373  34.654  17.785   1.363
68059W        W40374  21.546  38.860  11.957
68060W        W40375   7.728  24.431  11.592
68061W        W40376  14.169  40.923   4.517
68062W        W40377   0.185  11.143  11.477
68063W        W40378  31.585  21.777   4.186
68064W        W40379  13.709  31.462  12.014
68065W        W40380  19.280  12.753  10.910
68066W        W40381   6.295   9.589   4.134
68067W        W40382  16.068  32.110   0.767
68068W        W40383  17.613  24.934   0.340
68069W        W40384  25.532  26.769  12.045
68070W        W40385  32.608  43.507  13.933
68071W        W40386  33.260  25.823   0.293
68072W        W40387  16.328  22.668   1.799
68073W        W40388   1.456  29.350   2.819
68074W        W40389  43.980  21.612  11.796
68075W        W40390  34.869  10.625   1.994
68076W        W40391  41.276  13.857  13.040
68077W        W40392   2.301  12.255   3.317
68078W        W40393  31.531  26.503  13.433
68079W        W40394  23.164  17.211   0.143
68080W        W40395  28.552  31.630   0.058
68081W        W40396   4.430   3.237  13.928
68082W        W40397  17.227  23.998  11.928
68083W        W40398  39.542  16.735   2.309
68084W        W40399  44.232  18.887  14.542
68085W        W40400  43.459  35.552  10.878
68086W        W40401  12.157   5.126  12.157
68087W        W40402  12.798  23.983   3.667
68088W        W40403   3.182  42.936   1.830
68089W        W40404  11.088  22.116   3.259
68090W        W40405  23.071  11.216   1.883
68091W        W40406   6.349   4.861   3.363
68092W        W40407   7.109  28.638   3.845
68093W        W40408  34.289  10.741   0.092
68094W        W40409  35.408  24.606   1.907
68095W        W40410  44.007  29.933  12.092
68096W        W40411  27.605  38.323   3.778
68097W        W40412   7.836   0.145   2.963
68098W        W40413  27.243   6.774   2.875
68099W        W40414   1.970  20.026  11.543
68100W        W40415  36.030  24.085  12.948
68101W        W40416   3.793  30.479   1.249
68102W        W40417  33.706  14.757   1.261
68103W        W40418  26.294  40.131  12.644
68104W        W40419  39.027   8.614   0.439
68105W        W40420  11.818  10.662  11.406
68106W        W40421   8.054   3.717  12.537
68107W        W40422  12.240  25.285   0.821
68108W        W40423  35.393   6.712   4.514
68109W        W40424   7.816   7.748   4.890
68110W        W40425  25.906  29.097   4.717
68111W        W40426  32.417   1.207  14.578
68112W        W40427  33.584  21.721  13.282
68113W        W40428  10.838   7.225   3.136
68114W        W40429  42.034  22.085  12.573
68115W        W40430  38.270  24.048  14.208
68116W        W40431   6.468   2.172  14.169
68117W        W40432  27.593  21.127  11.979
68118W        W40433  11.330  40.893   2.683
68119W        W40434   7.328  36.821   3.745
68120W        W40435  19.867  27.902   0.490
68121W        W40436  38.113  21.195   4.514
68122W        W40437  12.210   3.618  12.879
68123W        W40438  37.818  24.292   0.256
68124W        W40439  44.753  20.655   1.522
68125W        W40440  37.938   4.541   4.464
68126W        W40441  17.652   3.770  13.158
68127W        W40442  21.690  20.754  10.965
68128W        W40443  25.199   3.162  14.811
68129W        W40444  28.043  19.399   4.674
68130W        W40445  33.783  18.321   0.467
68131W        W40446  24.163  11.684  10.932
68132W        W40447  17.308   0.288   4.585
68133W        W40448  24.775  43.092  13.299
68134W        W40449   2.048   0.778  10.715
68135W        W40450  42.732  42.783   4.107
68136W        W40451  37.346  12.212   3.171
68137W        W40452  33.345  16.550  13.494
68138W        W40453  38.645  21.724  12.727
68139W        W40454  13.183   5.482   2.166
68140W        W40455  38.925  38.833   9.944
68141W        W40456   0.340   4.671  11.940
68142W        W40457  39.347  44.777   0.549
68143W        W40458  39.491  40.550  11.517
68144W        W40459   9.399  28.151  14.487
68145W        W40460   6.898   3.221  13.554
68146W        W40461   6.296   1.926  14.959
68147W        W40462  30.450  35.123   3.178
68148W        W40463  37.807  40.925   1.617
68149W        W40464  28.044   6.247   2.169
68150W        W40465  11.380  43.359   1.701
68151W        W40466  20.046  28.574  10.326
68152W        W40467   2.440  24.824   4.721
68153W        W40468  24.621  31.643  12.403
68154W        W40469   0.951  13.383  13.470
68155W        W40470   1.290  24.356   2.123
68156W        W40471   4.885  13.659   0.392
68157W        W40472  13.058  20.762  12.526
68158W        W40473  38.982  16.159   1.226
68159W        W40474   0.456   7.165  11.118
68160W        W40475  32.703   1.957   2.714
68161W        W40476   8.237   0.498   4.611
68162W        W40477   5.331   3.911  13.060
68163W        W40478  23.728  27.127  10.406
68164W        W40479  11.860   3.234   4.656
68165W        W40480  28.884  32.975   2.697
68166W        W40481  21.090   1.874   3.398
68167W        W40482  10.029   4.171  11.548
68168W        W40483  15.372  33.805   2.791
68169W        W40484  28.692  16.624   4.231
68170W        W40485   5.879   7.574   4.995
68171W        W40486  14.719  14.764  12.140
68172W        W40487  39.511   9.689   4.527
68173W        W40488  13.163  22.951   2.967
68174W        W40489  29.098  42.455  13.049
68175W        W40490   3.869   1.743  11.589
68176W        W40491   5.224  32.051   4.052
68177W        W40492   8.391  14.621   2.752
68178W        W40493  24.918  34.184  14.463
68179W        W40494   4.340  12.312  11.216
68180W        W40495  17.827  39.417   1.223
68181W        W40496  23.502   3.400   0.792
68182W        W40497  17.173  38.558   0.206
68183W        W40498  32.648  22.272   3.752
68184W        W40499  10.419  18.080  13.011
68185W        W40500   5.835  24.731   1.241
68186W        W40501   9.218  12.695  10.836
68187W        W40502   0.853  21.137   4.059
68188W        W40503  20.268  10.437   0.077
68189W        W40504  18.058  44.745   4.537
68190W        W40505  18.543  25.490   0.473
68191W        W40506  40.933  19.707   3.082
68192W        W40507  39.444   7.017   0.686
68193W        W40508   8.371  19.877  13.857
68194W        W40509  42.502   6.656   3.300
68195W        W40510  18.643   3.490  11.159
68196W        W40511  39.048  14.622   1.783
68197W        W40512  44.220  13.213  10.054
68198W        W40513   9.200  18.998  10.563
68199W        W40514  41.468  41.023  11.047
68200W        W40515  16.796  11.852  11.450
68201W        W40516  30.664  29.374  14.395
68202W        W40517   1.955  11.864  11.432
68203W        W40518   3.311  19.773  11.981
68204W        W40519  42.784  14.353  10.938
68205W        W40520  32.191   1.117  11.232
68206W        W40521  40.622  26.928  11.055
68207W        W40522  14.274  18.219   1.830
68208W        W40523  18.772   3.535  12.159
68209W        W40524  39.886   8.524  12.058
68210W        W40525  17.367  29.503  14.867
68211W        W40526   8.838  10.955  13.486
68212W        W40527  14.620  14.938   3.307
68213W        W40528  40.402  18.725  14.560
68214W        W40529   9.887  16.514   9.753
68215W        W40530  14.283   8.094  12.175
68216W        W40531   7.938  12.674   1.041
68217W        W40532  14.191  22.065   1.465
68218W        W40533  15.172   9.262   4.963
68219W        W40534  12.076  20.615  12.454
68220W        W40535  33.061  29.998  11.939
68221W        W40536   8.677   7.356  11.964
68222W        W40537  29.269  41.550  12.820
68223W        W40538  27.721  41.099   1.317
68224W        W40539   5.209  28.112  10.675
68225W        W40540  19.568  29.759  11.076
68226W        W40541  28.065   1.197   3.076
68227W        W40542  19.300  17.686  10.425
68228W        W40543  26.384  37.849   2.699
68229W        W40544  39.784  44.774   0.273
68230W        W40545  39.005  16.586   4.799
68231W        W40546  25.474  26.286  13.151
68232W        W40547  22.060  24.638   2.347
68233W        W40548   2.190  32.114   3.246
68234W        W40549  41.120  37.596  12.662
68235W        W40550  25.846   7.073   5.047
68236W        W40551  10.669  27.924  11.515
68237W        W40552   7.160  25.297  12.086
68238W        W40553  15.685  24.847  14.563
68239W        W40554  31.179  12.582  14.484
68240W        W40555  18.152   1.428   2.438
68241W        W40556  18.390  13.575  10.748
68242W        W40557  36.023  10.543   4.616
68243W        W40558  31.152  18.137  12.922
68244W        W40559  36.383   5.537   1.688
68245W        W40560  22.189  39.769  11.612
68246W        W40561  39.301  39.416   3.115
68247W        W40562  23.989  18.148  10.492
68248W        W40563   5.310  21.579   2.718
68249W        W40564  43.310  15.403  11.628
68250W        W40565  27.154  29.355   0.238
68251W        W40566  41.764   9.371   0.333
68252W        W40567  11.874  30.022  14.978
68253W        W40568  36.159   3.847   2.451
68254W        W40569  28.247  23.577   0.847
68255W        W40570   9.714  13.709   0.997
68256W        W40571   8.427  39.426   4.580
68257W        W40572  31.316  10.340  12.375
68258W        W40573   5.498  32.590  12.118
68259W        W40574  26.033  11.641  10.791
68260W        W40575  18.852  20.608   4.261
68261W        W40576   5.357  34.030  11.898
68262W        W40577   0.348   4.333   0.419
68263W        W40578  44.528  31.347  11.064
68264W        W40579  31.647  26.647  14.333
68265W        W40580  44.011  17.994  14.961
68266W        W40581  43.419  15.136  13.407
68267W        W40582  11.320  27.285   0.923
68268W        W40583  32.828   5.907   3.312
68269W        W40584  11.257   2.513   3.897
68270W        W40585  29.950  28.617  14.529
68271W        W40586   2.987  19.469  11.690
68272W        W40587  22.702  21.616   5.087
68273W        W40588  43.994  37.537  13.938
68274W        W40589  13.324   8.957  13.400
68275W        W40590  29.110  18.344  11.114
68276W        W40591  23.517  43.324  14.004
68277W        W40592  25.245  17.861  10.796
68278W        W40593  43.261  40.903  14.363
68279W        W40594   8.644  20.019  11.523
68280W        W40595  13.752   7.246   3.403
68281W        W40596   7.180   0.929   2.428
68282W        W40597  40.033  37.896   3.203
68283W        W40598   4.520  25.018  14.231
68284W        W40599  32.542  24.437  12.148
68285W        W40600  41.486   6.110   0.905
68286W        W40601  36.298  20.799   3.532
68287W        W40602  24.104  44.966   2.836
68288W        W40603  21.250  32.829  12.430
68289W        W40604  34.147  37.372   3.126
68290W        W40605  26.766  17.411  14.967
68291W        W40606  36.372  12.221   2.174
68292W        W40607  29.202   9.849   4.759
68293W        W40608  37.280  27.482  10.773
68294W        W40609  29.317  40.261   4.030
68295W        W40610  13.703  34.478   3.336
68296W        W40611  16.977  13.265  11.542
68297W        W40612  14.008  41.841  10.632
68298W        W40613   8.862   4.866  12.100
68299W        W40614  20.010  35.662   0.313
68300W        W40615  38.564  34.945   3.022
68301W        W40616  15.523  12.066  13.804
68302W        W40617   4.419   6.952   1.284
68303W        W40618   9.268  19.204  11.357
68304W        W40619   8.219  29.462   3.256
68305W        W40620   8.391  14.220  12.097
68306W        W40621  36.482  22.135   2.171
68307W        W40622   5.852   3.187  14.967
68308W        W40623  25.831  28.915   4.243
68309W        W40624  33.335  12.455   4.428
68310W        W40625  26.136   8.883  13.627
68311W        W40626  14.582  30.903   3.229
68312W        W40627  40.809   7.986   1.813
68313W        W40628   9.905  40.460   4.090
68314W        W40629   8.432  40.524  14.891
68315W        W40630  32.743  18.792   4.571
68316W        W40631  13.797  32.633   3.645
68317W        W40632   9.249  20.843   1.927
68318W        W40633   2.349  32.628   2.266
68319W        W40634  43.778  20.023   0.756
68320W        W40635  24.528  26.642  13.944
68321W        W40636  25.996  21.752   0.868
68322W        W40637  24.643  43.577   3.636
68323W        W40638  18.795  24.951   0.706
68324W        W40639  43.527  14.533  14.997
68325W        W40640  41.506   3.247   3.156
68326W        W40641   9.682   3.198  14.955
68327W        W40642  32.978  19.824   2.927
68328W        W40643  13.385   7.534   3.616
68329W        W40644  22.644  41.822  11.674
68330W        W40645  37.896  25.630  10.878
68331W        W40646  41.946   6.342   4.247
68332W        W40647  15.533  44.008   4.187
68333W        W40648   5.904   8.085   1.449
68334W        W40649  26.261  20.865  12.686
68335W        W40650  15.652  28.717  11.116
68336W        W40651  36.184  25.519  11.902
68337W        W40652  35.251  17.263  12.043
68338W        W40653   0.675  17.757   4.063
68339W        W40654   9.624   9.993  10.727
68340W        W40655  37.550  12.413   0.974
68341W        W40656   1.445   6.219  14.356
68342W        W40657  14.915  18.567   4.759
68343W        W40658  24.051  37.160   0.763
68344W        W40659  29.472  43.290   4.863
68345W        W40660   2.821  35.753   1.845
68346W        W40661   5.933  18.596  11.576
68347W        W40662  17.092  28.774  11.329
68348W        W40663  28.296   6.415  14.076
68349W        W40664  34.069  10.349   1.844
68350W        W40665   4.441  19.139   4.565
68351W        W40666  37.243  22.549  11.607
68352W        W40667  42.362  40.746  10.920
68353W        W40668  23.027  21.238  14.885
68354W        W40669  25.974  12.096  13.099
68355W        W40670  33.498   8.203   1.132
68356W        W40671  40.976  42.722  13.817
68357W        W40672   7.280  29.094   3.289
68358W        W40673   1.206  20.702  13.950
68359W        W40674  39.545  29.755  13.029
68360W        W40675  22.605  41.503  13.463
68361W        W40676  38.981  30.465  14.565
68362W        W40677   8.696  28.068  10.795
68363W        W40678  27.290  15.752   2.383
68364W        W40679  12.871  34.841   1.711
68365W        W40680  42.451   2.942   0.350
68366W        W40681   1.849  25.108  12.633
68367W        W40682  28.979  30.286  13.810
68368W        W40683   0.787  25.737  13.094
68369W        W40684  11.596  23.204  10.793
68370W        W40685  32.691  22.487   0.494
68371W        W40686   0.746  25.848  14.473
68372W        W40687   4.335   8.325  12.407
68373W        W40688  13.781  35.620  11.639
68374W        W40689   1.382  12.153  11.222
68375W        W40690  19.318   1.880  11.141
68376W        W40691  40.437  44.586  11.135
68377W        W40692   2.397  31.998  14.960
68378W        W40693   1.706  20.743  14.165
68379W        W40694  17.286  41.634   4.029
68380W        W40695  19.528  12.395   1.818
68381W        W40696   2.148  24.634   2.908
68382W        W40697   7.744  18.223   0.609
68383W        W40698  23.274   6.574   0.712
68384W        W40699  33.591  20.643  13.946
68385W        W40700  14.657  13.087  13.282
68386W        W40701  13.833  38.005  11.117
68387W        W40702  39.526  36.625   4.654
68388W        W40703  22.553  10.274  13.984
68389W        W40704   6.373  14.541  11.978
68390W        W40705  32.392   5.539   1.132
68391W        W40706   8.920   1.968   0.910
68392W        W40707  42.253  31.032   1.408
68393W        W40708  28.168  15.812  14.973
68394W        W40709  14.085  12.469  14.310
68395W        W40710  36.829  23.343  10.655
68396W        W40711  29.988   6.859  14.131
68397W        W40712   7.783  19.047  11.112
68398W        W40713  39.324  23.935  13.913
68399W        W40714   1.428  21.848  12.041
68400W        W40715  42.245  44.759   1.863
68401W        W40716  25.478   0.269   3.549
68402W        W40717  13.184  37.383  10.211
68403W        W40718  25.054  12.661   0.228
68404W        W40719  27.148  20.902  14.126
68405W        W40720  11.267  22.508  12.590
68406W        W40721   0.729  23.183  12.473
68407W        W40722  31.510  26.498  12.489
68408W        W40723  24.678  43.448   4.587
68409W        W40724  14.603  35.057   1.336
68410W        W40725  42.005  32.921   0.981
68411W        W40726  10.279  41.367  13.842
68412W        W40727   8.733  30.580  13.819
68413W        W40728  10.398   9.487   3.730
68414W        W40729  36.118   0.068  13.955
68415W        W40730  11.322  16.184   0.222
68416W        W40731  35.240  24.348  10.681
68417W        W40732   7.338   3.289  14.983
68418W        W40733  30.745   3.802  12.082
68419W        W40734  29.224  15.553  14.087
68420W        W40735  25.554  44.327  12.616
68421W        W40736  18.226  24.701  12.209
68422W        W40737   0.257  40.026  13.329
68423W        W40738  38.891  17.233   1.785
68424W        W40739   6.835  40.192  13.012
68425W        W40740  31.513  34.495   2.764
68426W        W40741   8.349   4.796   0.249
68427W        W40742   7.246  18.423   1.553
68428W        W40743  11.561  14.879  11.187
68429W        W40744  15.640  44.346   1.381
68430W        W40745  43.996  28.745  11.269
68431W        W40746  28.002  17.243   3.462
68432W        W40747  29.700  40.921   4.579
68433W        W40748  27.516  32.126   3.760
68434W        W40749  35.189  33.889   3.312
68435W        W40750  42.942  39.082   0.538
68436W        W40751  31.931  36.052   1.356
68437W        W40752   2.342  32.518   1.742
68438W        W40753  42.473  12.240   4.757
68439W        W40754   6.299  26.148  11.105
68440W        W40755  30.044   9.213   2.417
68441W        W40756  37.015   2.322   0.459
68442W        W40757   6.067  33.599   5.046
68443W        W40758   6.213  41.768   1.850
68444W        W40759   9.080  13.824   1.798
68445W        W40760  16.352   4.168  13.888
68446W        W40761  16.739   9.887   3.649
68447W        W40762  30.895   9.875  13.046
68448W        W40763  22.974  42.019  11.283
68449W        W40764   7.859  35.148   3.734
68450W        W40765   1.470  33.028   0.290
68451W        W40766  25.695  37.452   2.764
68452W        W40767  22.362  13.352   2.236
68453W        W40768  11.359  37.423  12.505
68454W        W40769  25.953  10.108  14.963
68455W        W40770   7.702  21.496   2.094
68456W        W40771   9.439  18.074   0.319
68457W        W40772  18.112  34.027  11.517
68458W        W40773  18.953  33.070   2.436
68459W        W40774  41.014  11.149   0.697
68460W        W40775  34.888  38.033   0.273
68461W        W40776  43.398  19.832   2.145
68462W        W40777  36.995  27.119   1.625
68463W        W40778  33.062   9.161  14.338
68464W        W40779  40.925  25.573   3.356
68465W        W40780  23.952   6.796   1.398
68466W        W40781  40.633  22.120   2.317
68467W        W40782  24.491  28.161   0.361
68468W        W40783  29.803  38.692  14.458
68469W        W40784  29.036  25.190   0.514
68470W        W40785  31.633  34.136   2.145
68471W        W40786  38.434  26.604   9.802
68472W        W40787  34.067   4.166   0.254
68473W        W40788  38.894  23.864  10.256
68474W        W40789  14.818   8.438   0.244
68475W        W40790  15.522  29.439   3.333
68476W        W40791  32.897   4.362  14.987
68477W        W40792  35.488  34.894  14.407
68478W        W40793  43.508  38.718   2.641
68479W        W40794  30.597  25.305   2.761
68480W        W40795  44.271  19.587  12.952
68481W        W40796  10.344  37.885   1.814
68482W        W40797   4.907  10.585   2.492
68483W        W40798  25.697  23.164  11.448
68484W        W40799  38.383  38.833  14.667
68485W        W40800   2.602  44.556   3.653
68486W        W40801   4.273  33.417  13.208
68487W        W40802  40.838  27.006   2.820
68488W        W40803  13.216  40.907   4.570
68489W        W40804  22.949   5.512   0.970
68490W        W40805  17.255  16.666  12.227
68491W        W40806  14.436  16.415  13.419
68492W        W40807  19.780   5.856   3.117
68493W        W40808  14.904  24.095   0.816
68494W        W40809  11.416   1.597   4.349
68495W        W40810   2.856  28.190   5.000
68496W        W40811  32.055  30.087  14.249
68497W        W40812  13.538  10.486  14.431
68498W        W40813  40.099  21.918  10.681
68499W        W40814  28.022  14.030  14.470
68500W        W40815  27.958  20.010   1.087
68501W        W40816  19.986  14.991   4.217
68502W        W40817  15.537  15.123  11.600
68503W        W40818  40.518  29.951  14.729
68504W        W40819  28.089  19.316   2.850
68505W        W40820  23.261  19.138  11.449
68506W        W40821  39.771   6.392  10.582
68507W        W40822  21.602  17.588   4.089
68508W        W40823  11.078   0.761  12.949
68509W        W40824  39.967   8.089   3.576
68510W        W40825  26.190  37.361  12.145
68511W        W40826  35.860   1.850  13.801
68512W        W40827  40.925  16.011  12.960
68513W        W40828  16.459  33.583  10.841
68514W        W40829  15.005   7.826  13.007
68515W        W40830  14.838  23.510   5.207
68516W        W40831  14.407  13.217  13.989
68517W        W40832  24.298  33.906   4.943
68518W        W40833  22.496  12.836  14.374
68519W        W40834  37.756   9.391   3.900
68520W        W40835  39.003  35.991   1.837
68521W        W40836  31.684   6.871   4.478
68522W        W40837  36.510   1.954   4.552
68523W        W40838  43.938   6.702  11.947
68524W        W40839  25.457   3.356   5.030
68525W        W40840  36.329   9.774  14.598
68526W        W40841  13.274   4.500   4.911
68527W        W40842   8.424  19.694   1.774
68528W        W40843  36.384  40.817  13.970
68529W        W40844  39.275  33.025  11.210
68530W        W40845  26.113   3.034  10.577
68531W        W40846  36.023  35.652   3.177
68532W        W40847  17.653   3.564   2.131
68533W        W40848   9.508  21.815   1.697
68534W        W40849  32.963  16.120  13.498
68535W        W40850  36.847  18.215  11.075
68536W        W40851  30.723  35.969  12.478
68537W        W40852  34.955  34.458  12.658
68538W        W40853  12.153   9.093  13.069
68539W        W40854  19.726  40.999  14.627
68540W        W40855  34.556   4.696  13.994
68541W        W40856  34.178  13.805   1.396
68542W        W40857  32.423   3.738  13.024
68543W        W40858   8.574  39.874  11.147
68544W        W40859   1.265   5.816  11.612
68545W        W40860  29.986  22.109  13.465
68546W        W40861  38.352  17.870   3.900
68547W        W40862  10.200   9.131   0.268
68548W        W40863  36.391  36.619  12.447
68549W        W40864  27.574  44.738  10.579
68550W        W40865  17.175  20.154  12.480
68551W        W40866  17.369  22.679  13.395
68552W        W40867  18.520  40.046  10.233
68553W        W40868  26.552  19.380   0.056
68554W        W40869  35.537  38.203   0.940
68555W        W40870  12.825  39.913  14.615
68556W        W40871  31.144  40.868  13.434
68557W        W40872   8.082  26.289  12.020
68558W        W40873  36.936  42.014  14.250
68559W        W40874  23.186  23.816   2.882
68560W        W40875   2.790  33.593   2.968
68561W        W40876  10.669  36.107   3.885
68562W        W40877  25.575  12.683  13.485
68563W        W40878  29.528  38.462  12.570
68564W        W40879   2.392  32.571   1.204
68565W        W40880  43.004  19.970   0.891
68566W        W40881  32.437  28.116   4.614
68567W        W40882   2.842   9.071  13.084
68568W        W40883  36.997  28.596   0.765
68569W        W40884  20.248   9.551  11.019
68570W        W40885   0.995   7.126  11.078
68571W        W40886  13.041  42.371  13.025
68572W        W40887  36.953  38.297  11.220
68573W        W40888  16.625  41.074   1.221
68574W        W40889   4.274   4.501   3.577
68575W        W40890   6.322   1.300   4.692
68576W        W40891  22.920  15.666  12.139
68577W        W40892  38.400  24.751   0.354
68578W        W40893  11.176  37.129   1.798
68579W        W40894   3.134  42.508   1.375
68580W        W40895  34.844  22.457   1.431
68581W        W40896  31.981  28.605  14.379
68582W        W40897  35.668  38.957   3.698
68583W        W40898  34.779  13.147   4.281
68584W        W40899  18.788  34.499  10.493
68585W        W40900   2.819  43.255  14.088
68586W        W40901  37.139  25.483  14.492
68587W        W40902  40.341  42.807   1.585
68588W        W40903  10.879  33.350   0.773
68589W        W40904  29.777  18.555  12.389
68590W        W40905  32.153  32.374  12.571
68591W        W40906   9.245  22.494  12.932
68592W        W40907  14.881  28.573  12.890
68593W        W40908   9.823   7.935  14.365
68594W        W40909  34.992   9.323   1.699
68595W        W40910  17.635  17.085   0.900
68596W        W40911   2.188  36.991  12.209
68597W        W40912  23.998  35.010  14.858
68598W        W40913  38.567   9.584  14.517
68599W        W40914   1.887   8.248   2.744
68600W        W40915  13.786  24.912  13.043
68601W        W40916  24.518  27.163  14.083
68602W        W40917  44.290  15.330  13.898
68603W        W40918   7.333  24.983  12.552
68604W        W40919  29.970  39.442   0.345
68605W        W40920  39.185  22.174   1.493
68606W        W40921  38.394  29.045   1.787
68607W        W40922  33.571  27.875  11.623
68608W        W40923  13.248  23.309   4.527
68609W        W40924  21.105   3.642   4.172
68610W        W40925  36.486  26.787   4.515
68611W        W40926  26.242  42.411   1.880
68612W        W40927   5.361  11.145  12.972
68613W        W40928  13.974   3.985   1.763
68614W        W40929   4.039  15.578   0.450
68615W        W40930  16.850  40.977   3.669
68616W        W40931  35.592  21.859   4.213
68617W        W40932   5.945  32.852  13.488
68618W        W40933  27.010   7.398   0.282
68619W        W40934   5.962  21.656   3.488
68620W        W40935   5.424  33.863   2.619
68621W        W40936  23.492  31.013   2.858
68622W        W40937  21.372  14.988  12.894
68623W        W40938  15.404  27.589  11.548
68624W        W40939  42.347  39.354   2.297
68625W        W40940  14.680  20.474   2.407
68626W        W40941   3.302  13.436   0.009
68627W        W40942  22.490   8.860  12.957
68628W        W40943   0.238  39.270   1.354
68629W        W40944  23.512  27.237   2.857
68630W        W40945  19.556  24.943   2.169
68631W        W40946  39.801  44.843  11.881
68632W        W40947  21.523  16.926   2.799
68633W        W40948  42.758   4.733   4.518
68634W        W40949  31.560  37.838   3.847
68635W        W40950  17.481  12.129   0.360
68636W        W40951  36.367  26.778  13.676
68637W        W40952  38.131  16.522  11.231
68638W        W40953  36.575   6.868  14.402
68639W        W40954  36.965  24.100   3.722
68640W        W40955  16.468   1.786  11.891
68641W        W40956  39.361   7.683   4.084
68642W        W40957  39.948  44.723  10.975
68643W        W40958  29.125   2.662   2.337
68644W        W40959  44.872  30.056   0.705
68645W        W40960  20.483  18.677  11.288
68646W        W40961  37.938  10.033   1.264
68647W        W40962  23.492  33.421   4.523
68648W        W40963  32.506  23.670  11.660
68649W        W40964  23.490  23.982   3.295
68650W        W40965  29.202  20.164  10.932
68651W        W40966   6.261  16.067   0.328
68652W        W40967  34.593  19.525  14.899
68653W        W40968  42.578  24.138   1.389
68654W        W40969  17.686  36.636  14.817
68655W        W40970  20.188  15.772  12.906
68656W        W40971   4.704   1.283  11.866
68657W        W40972  27.089  35.513  12.821
68658W        W40973  22.152  25.262  13.472
68659W        W40974  33.542  37.327   2.336
68660W        W40975  10.411  20.429   4.495
68661W        W40976  22.450  36.315   3.643
68662W        W40977   3.464  18.612  11.477
68663W        W40978  27.354   4.860   0.797
68664W        W40979  17.811  17.450   0.273
68665W        W40980  17.042  23.495  11.525
68666W        W40981  24.097  18.022   0.150
68667W        W40982   5.404   9.863   3.679
68668W        W40983  11.998  23.369  11.819
68669W        W40984  28.791  30.372   1.520
68670W        W40985  28.677   1.845   3.748
68671W        W40986  10.387  44.916  12.914
68672W        W40987  22.121  15.008  13.969
68673W        W40988  21.865  34.372  13.403
68674W        W40989  15.492   9.488  11.500
68675W        W40990  27.058  16.639   2.294
68676W        W40991   8.915   0.253  10.974
68677W        W40992  16.140   7.361  10.922
68678W        W40993  34.198  30.497  10.626
68679W        W40994  42.812   4.353   2.211
68680W        W40995  35.927  12.897   2.473
68681W        W40996  26.052  31.941  12.812
68682W        W40997   5.988  27.755   4.627
68683W        W40998  32.117  10.283   3.230
68684W        W40999  32.523  23.003  14.454
68685W        W41000  27.344  41.493  12.790
68686W        W41001   8.963  44.421   4.633
68687W        W41002   6.151  31.568   3.706
68688W        W41003  21.710  38.784   1.776
68689W        W41004  12.848  11.368   4.741
68690W        W41005   9.155  27.467   0.818
68691W        W41006  18.617  42.859   2.217
68692W        W41007  17.555  21.201  14.207
68693W        W41008  26.955   9.247   1.205
68694W        W41009  40.857  28.195   1.333
68695W        W41010  13.593   6.264  13.973
68696W        W41011  14.856  44.205  12.018
68697W        W41012  29.552  43.335   4.288
68698W        W41013   2.743  16.313   3.757
68699W        W41014   0.991  19.817   0.338
68700W        W41015  28.061  33.234  14.199
68701W        W41016  22.620  18.229   3.799
68702W        W41017  39.377  10.784  13.469
68703W        W41018  36.135  32.398   1.454
68704W        W41019  38.752   0.564   2.189
68705W        W41020  23.517   8.746   3.773
68706W        W41021   6.548  18.716   1.004
68707W        W41022  29.319  32.927  12.500
68708W        W41023  11.282   5.179  13.026
68709W        W41024   9.780  21.142  13.087
68710W        W41025  29.567  36.697   3.576
68711W        W41026   5.241  32.489   1.286
68712W        W41027  13.107   0.424  10.558
68713W        W41028   4.095  10.208  11.948
68714W        W41029   2.655  38.508   3.438
68715W        W41030  32.016   2.163   1.661
68716W        W41031  27.288   9.152   1.690
68717W        W41032  15.119  28.160   3.132
68718W        W41033  40.358   5.869   1.729
68719W        W41034  13.617  33.203  13.425
68720W        W41035  29.106   5.440   2.575
68721W        W41036  31.131  28.028   3.183
68722W        W41037  16.805   8.424   1.497
68723W        W41038   8.827  43.874  14.391
68724W        W41039  30.984  19.360   4.083
68725W        W41040  20.773  20.219  12.348
68726W        W41041  24.964  19.542  11.202
68727W        W41042  13.293  41.092  13.458
68728W        W41043  23.206  41.104   1.884
68729W        W41044   6.844   7.351   2.041
68730W        W41045  36.351  25.819  13.498
68731W        W41046  42.020   9.077  12.410
68732W        W41047  39.074   8.247   2.292
68733W        W41048  23.777   5.837  13.570
68734W        W41049  11.425  20.479  14.989
68735W        W41050  23.974  10.264  10.709
68736W        W41051  13.054   4.174   3.333
68737W        W41052  29.910  35.325   0.732
68738W        W41053  34.882   3.284   3.748
68739W        W41054  24.513  40.620  12.242
68740W        W41055  23.439  12.243  12.445
68741W        W41056  16.341  40.442  11.584
68742W        W41057  41.220  29.996   4.062
68743W        W41058  21.559  11.622  11.134
68744W        W41059  37.038  31.949  12.030
68745W        W41060  24.776  30.041  11.045
68746W        W41061  17.221  37.096  13.970
68747W        W41062   2.395  38.189   4.853
68748W        W41063   0.153  21.314  13.439
68749W        W41064  30.681  12.701   0.740
68750W        W41065  14.639   0.779  12.697
68751W        W41066  22.711  24.485  14.606
68752W        W41067   4.603  12.576  10.492
68753W        W41068  15.278  16.245  14.851
68754W        W41069  36.429  28.146  13.088
68755W        W41070   5.229   8.272  12.881
68756W        W41071  29.575   8.608   4.229
68757W        W41072  23.580  44.896   3.348
68758W        W41073  26.252  10.307  11.146
68759W        W41074  16.427  31.997  12.654
68760W        W41075  38.845  24.253   3.343
68761W        W41076   4.215   3.137   4.060
68762W        W41077   2.027  42.573  13.833
68763W        W41078   1.944  25.990  12.492
68764W        W41079  16.701  20.504  13.115
68765W        W41080  17.766  44.396  11.231
68766W        W41081   5.772   1.980   4.959
68767W        W41082   6.756  24.728  12.408
68768W        W41083  31.430   3.793   2.869
68769W        W41084  15.427  28.729   5.391
68770W        W41085  34.125  19.011   2.027
68771W        W41086  19.962  34.368   0.354
68772W        W41087  32.131  18.763   3.761
68773W        W41088  31.131  23.034  11.521
68774W        W41089   7.883   7.698  11.167
68775W        W41090  37.329  21.266  10.842
68776W        W41091  44.474  44.667  10.062
68777W        W41092  15.989  38.508   0.416
68778W        W41093  40.893   0.023   0.322
68779W        W41094  19.735  29.214  11.592
68780W        W41095  26.428  18.193   3.604
68781W        W41096  11.736  22.221   3.841
68782W        W41097  26.915  18.800   2.134
68783W        W41098  42.998  28.608   0.729
68784W        W41099   8.788   7.838  11.673
68785W        W41100   4.893  28.377  12.432
68786W        W41101  36.881  14.618  10.609
68787W        W41102  31.389   2.058  14.203
68788W        W41103  16.308  31.055   5.398
68789W        W41104  28.189  39.015   2.805
68790W        W41105  12.640  12.317   4.941
68791W        W41106  33.991   7.180  10.620
68792W        W41107  38.216  19.024   0.693
68793W        W41108  36.921  31.554  12.875
68794W        W41109  29.695  37.072   2.336
68795W        W41110   4.303   4.467   1.373
68796W        W41111   9.664   4.779  12.487
68797W        W41112  30.357  33.203  13.337
68798W        W41113  36.421   6.714  11.942
68799W        W41114  21.122  43.990   5.016
68800W        W41115   8.113  12.260  11.891
68801W        W41116  11.182  37.028  11.958
68802W        W41117  13.183  20.873   2.851
68803W        W41118  12.755  31.958  11.697
68804W        W41119  22.626   9.413   4.626
68805W        W41120  19.535  18.821   5.032
68806W        W41121   0.722  26.159   3.722
68807W        W41122  19.973  10.504  10.613
68808W        W41123  37.085  29.110  13.974
68809W        W41124  38.503  25.736  11.454
68810W        W41125   2.953  18.362   4.500
68811W        W41126  17.759  27.057  13.087
68812W        W41127  41.265  24.557  13.950
68813W        W41128  31.577  33.980   2.652
68814W        W41129  31.894  25.145   1.747
68815W        W41130   8.802  18.839  11.805
68816W        W41131  15.550  39.117   4.223
68817W        W41132  14.209  30.030   3.158
68818W        W41133  25.883  21.774  12.862
68819W        W41134  28.158  38.734  10.373
68820W        W41135  42.771  24.476   0.378
68821W        W41136  13.625  41.591  14.024
68822W        W41137  37.479  17.607  14.876
68823W        W41138  10.796  11.758  10.661
68824W        W41139  18.135  24.278  14.397
68825W        W41140  21.201   2.388   2.546
68826W        W41141  37.346  30.376  11.131
68827W        W41142  37.847  28.501  13.938
68828W        W41143  22.423  23.565  13.744
68829W        W41144  29.063  10.727  12.088
68830W        W41145   9.400  13.432   1.691
68831W        W41146   3.249  41.121   1.273
68832W        W41147   0.563  32.407   1.145
68833W        W41148  44.993  36.577   2.182
68834W        W41149  17.715  16.716  13.976
68835W        W41150  26.932  27.475  11.041
68836W        W41151  19.564  35.049  10.646
68837W        W41152  24.009  27.305   0.240
68838W        W41153  24.689   0.829   1.626
68839W        W41154  35.640  44.841   0.723
68840W        W41155  27.668   7.411   4.275
68841W        W41156  14.584  41.549  11.581
68842W        W41157  25.582   1.513   2.328
68843W        W41158   0.315  43.970   0.755
68844W        W41159  30.495  44.742  11.573
68845W        W41160   6.216  25.962   4.142
68846W        W41161   1.759  20.302   4.182
68847W        W41162  42.050  16.477  12.274
68848W        W41163  23.856  34.885   4.805
68849W        W41164  26.689  29.976   1.328
68850W        W41165  20.616  44.773   2.796
68851W        W41166  17.548  38.610   1.992
68852W        W41167   4.290  15.895  12.998
68853W        W41168  38.600  12.116  11.405
68854W        W41169   0.596   0.568  13.831
68855W        W41170  43.849  11.095   1.903
68856W        W41171   5.470   5.318  10.895
68857W        W41172   8.373  42.470   3.352
68858W        W41173  21.795  19.817   5.082
68859W        W41174  18.451  35.449   0.354
68860W        W41175  19.742  32.346   3.773
68861W        W41176   8.724  19.777   1.355
68862W        W41177  16.186  31.078   2.482
68863W        W41178  14.269  20.119   4.947
68864W        W41179  14.922  40.421   4.379
68865W        W41180   2.337  20.312   3.095
68866W        W41181  14.428  12.204   1.118
68867W        W41182  13.291  15.091  14.979
68868W        W41183   1.713  33.445   0.525
68869W        W41184   1.298  12.889   3.703
68870W        W41185  28.032   9.363   3.409
68871W        W41186   8.602   4.398  10.105
68872W        W41187   2.898  11.708   1.305
68873W        W41188  29.356  22.206   2.224
68874W        W41189  44.283  39.342  14.454
68875W        W41190  22.529  20.047  13.765
68876W        W41191  19.079  21.751   2.233
68877W        W41192  37.026   7.364  14.192
68878W        W41193  36.114  13.252  14.269
68879W        W41194  44.235   5.123   4.229
68880W        W41195  34.510   1.816   1.866
68881W        W41196  14.093   6.643  12.834
68882W        W41197  27.201  29.664  11.442
68883W        W41198  39.156  34.049  14.526
68884W        W41199  14.357   2.447   4.452
68885W        W41200   0.426  29.548   0.355
68886W        W41201  25.564  22.047  12.049
68887W        W41202  30.924  39.486   0.681
68888W        W41203  15.054  44.684  12.797
68889W        W41204   4.690  22.672  10.709
68890W        W41205   9.197  43.587   2.682
68891W        W41206  13.727  20.752   4.711
68892W        W41207  38.033  30.519   3.718
68893W        W41208   7.370  43.455  10.627
68894W        W41209  25.837  33.499   2.231
68895W        W41210  36.352  28.557   4.404
68896W        W41211  23.750  27.458   0.671
68897W        W41212  21.558  17.890   2.786
68898W        W41213   0.436  13.199   4.579
68899W        W41214   0.766  30.898  12.210
68900W        W41215  18.482  29.913  13.364
68901W        W41216   6.700  42.038   0.149
68902W        W41217   9.708  22.050   3.665
68903W        W41218  41.658  37.795   4.554
68904W        W41219   2.460  26.619  14.401
68905W        W41220  36.846  33.983  13.694
68906W        W41221  33.251  31.114  10.676
68907W        W41222  34.328   0.208   3.759
68908W        W41223  10.861   8.072   2.644
68909W        W41224  41.659   9.757  12.639
68910W        W41225  27.698  33.880   9.735
68911W        W41226   0.433  34.908  11.388
68912W        W41227  36.050  14.368  14.280
68913W        W41228  16.308  28.929   1.172
68914W        W41229   4.880   2.785   3.799
68915W        W41230  14.269  31.810  11.418
68916W        W41231  41.794   0.719  12.819
68917W        W41232  20.952  31.203  11.092
68918W        W41233   4.168  33.844   0.036
68919W        W41234   0.862  22.306   1.678
68920W        W41235  25.517  24.538   1.286
68921W        W41236   1.294   5.275  11.645
68922W        W41237  35.541  22.277   1.890
68923W        W41238  11.126  44.269   4.140
68924W        W41239  17.577  20.166   1.382
68925W        W41240  27.997  33.131  12.365
68926W        W41241   0.231   8.862  14.347
68927W        W41242  28.602  20.225   1.790
68928W        W41243   5.239   8.803   4.555
68929W        W41244  10.498  17.617   1.401
68930W        W41245  40.103   0.469   0.487
68931W        W41246  22.995  41.711   0.244
68932W        W41247  28.731  43.852   1.031
68933W        W41248  41.265  22.075   0.960
68934W        W41249  15.359  33.996  13.523
68935W        W41250  17.764  44.311   3.138
68936W        W41251   7.738   4.556   3.709
68937W        W41252  34.016  38.506  11.403
68938W        W41253  34.585   5.367   2.231
68939W        W41254  32.170  40.970   4.126
68940W        W41255  15.070  11.830  14.820
68941W        W41256  34.124   9.303   4.109
68942W        W41257  23.678  11.539  14.449
68943W        W41258  34.320  24.038  14.331
68944W        W41259  38.215  12.918   2.447
68945W        W41260  14.871  25.332   3.123
68946W        W41261  41.441  16.873   4.412
68947W        W41262  28.533  18.507   4.611
68948W        W41263   7.712  16.205   3.270
68949W        W41264  26.990  37.089  13.010
68950W        W41265  16.610  26.547   2.848
68951W        W41266  10.954  22.356  14.745
68952W        W41267  13.956   9.922  10.987
68953W        W41268  15.796   7.981   4.925
68954W        W41269  38.405   5.256   2.806
68955W        W41270   4.260  43.495   2.639
68956W        W41271  26.864  19.545  10.358
68957W        W41272   2.859  11.138   4.953
68958W        W41273  24.654  21.507   3.181
68959W        W41274  44.556  36.318   1.436
68960W        W41275  30.111  19.917  14.683
68961W        W41276  21.054  42.053   4.648
68962W        W41277   2.019  19.037  13.787
68963W        W41278  44.098  15.279   0.760
68964W        W41279  42.565  36.564  12.105
68965W        W41280  25.994  21.672  14.374
68966W        W41281  25.112  11.673  14.407
68967W        W41282   2.857  11.914  13.902
68968W        W41283  12.851  23.390   0.056
68969W        W41284  26.652  44.977  14.971
68970W        W41285  16.906   4.891  10.217
68971W        W41286  43.790  11.108  13.784
68972W        W41287  26.867  34.036  13.804
68973W        W41288  30.040  11.388  11.899
68974W        W41289  19.360   6.197  14.434
68975W        W41290   1.342   4.954   2.020
68976W        W41291  24.515  38.294  13.967
68977W        W41292   1.004  38.002   0.637
68978W        W41293  11.144  21.499  10.743
68979W        W41294  14.160   1.730   2.160
68980W        W41295   1.578   1.759  11.593
68981W        W41296  18.195   5.943   0.728
68982W        W41297  16.282  31.822   3.674
68983W        W41298  17.641  18.824   0.953
68984W        W41299   2.814  36.121  11.957
68985W        W41300   7.229  24.740  13.897
68986W        W41301  21.903   3.273  10.833
68987W        W41302  20.575  33.754   4.631
68988W        W41303   3.288  25.857  10.174
68989W        W41304   6.444   2.386  12.910
68990W        W41305  17.241  37.298  13.446
68991W        W41306  39.497   3.285  14.537
68992W        W41307  39.064  10.749   0.862
68993W        W41308   7.119   6.120   1.402
68994W        W41309  34.078  12.264   4.562
68995W        W41310  43.957   5.232   1.372
68996W        W41311  16.574  39.078   5.054
68997W        W41312   7.912  19.656   1.676
68998W        W41313  41.379  31.088   3.015
68999W        W41314  32.932   1.247   1.779
69000W        W41315  41.433   7.861   0.700
69001W        W41316  37.687  14.353   4.229
69002W        W41317  37.255   7.387  13.412
69003W        W41318  30.195  21.560  12.496
69004W        W41319  40.253  19.020  13.064
69005W        W41320  17.066   9.645   1.167
69006W        W41321  30.718  16.739   4.764
69007W        W41322   5.805   7.323  13.430
69008W        W41323  12.199  41.330  13.324
69009W        W41324   5.945   8.358  12.214
69010W        W41325   6.819  43.959   2.625
69011W        W41326  33.800  41.594   3.663
69012W        W41327  20.921  21.153  13.310
69013W        W41328  42.008  43.900  10.919
69014W        W41329   1.883   4.570  13.056
69015W        W41330  10.649  14.554   3.002
69016W        W41331   1.249  31.212   2.645
69017W        W41332  35.591  35.746  13.073
69018W        W41333  42.550  24.177  13.858
69019W        W41334  26.743   0.228  11.821
69020W        W41335   3.847  19.492   3.570
69021W        W41336  37.926  38.825   4.332
69022W        W41337  15.371  14.202   2.743
69023W        W41338   7.824  14.801  11.699
69024W        W41339   3.300  29.672   3.742
69025W        W41340   5.444  13.101   2.916
69026W        W41341  35.851  37.785   1.005
69027W        W41342  13.206  10.969   9.929
69028W        W41343  15.768   2.677   0.311
69029W        W41344  12.789  22.176  11.664
69030W        W41345   1.803  32.376  11.230
69031W        W41346  28.180   9.053  10.048
69032W        W41347  39.050  37.171  10.407
69033W        W41348  26.951  23.747   1.345
69034W        W41349  30.125  36.058  10.820
69035W        W41350  23.752  21.682   5.040
69036W        W41351   6.912   9.732   4.621
69037W        W41352   7.497  12.824  11.012
69038W        W41353  23.119  39.883   3.095
69039W        W41354   1.277  29.476   3.302
69040W        W41355  24.010  15.182   0.972
69041W        W41356  26.419  34.616  11.318
69042W        W41357  41.944  23.029   3.046
69043W        W41358  33.214  35.561   3.410
69044W        W41359  23.127  27.923  10.663
69045W        W41360  34.592  10.487  12.405
69046W        W41361  29.513  41.741   0.812
69047W        W41362  29.149  29.515   4.051
69048W        W41363  42.516   5.832   2.201
69049W        W41364  21.663  27.429   2.702
69050W        W41365  21.231  36.913  14.906
69051W        W41366  30.055  16.661  13.014
69052W        W41367  34.863   1.338   0.253
69053W        W41368  42.245   3.414   0.381
69054W        W41369   8.187  34.106   4.254
69055W        W41370   4.896  11.337  12.971
69056W        W41371  14.092  33.860  13.110
69057W        W41372  10.682  18.310  13.442
69058W        W41373  30.095  13.268  10.938
69059W        W41374  35.958   7.651   3.213
69060W        W41375  43.308  30.785   1.390
69061W        W41376  32.144   7.752  12.333
69062W        W41377   5.066  15.990   0.730
69063W        W41378  10.057  19.101  12.513
69064W        W41379  19.927  30.858  10.796
69065W        W41380   2.994  19.024   3.838
69066W        W41381  12.552  43.759   3.349
69067W        W41382  30.689  40.292  12.042
69068W        W41383  16.125   2.229  10.474
69069W        W41384  31.337  23.622  12.902
69070W        W41385   9.570  42.182  14.030
69071W        W41386  25.522  35.824   3.600
69072W        W41387  43.913  17.264   2.604
69073W        W41388  19.302  29.182   1.745
69074W        W41389  19.031  33.469  10.801
69075W        W41390  16.854  42.432   2.843
69076W        W41391  16.627  32.137   2.479
69077W        W41392  43.049  34.742  10.073
69078W        W41393  44.397   5.643   3.358
69079W        W41394   5.812   9.765   2.487
69080W        W41395  34.431  43.196   5.225
69081W        W41396  29.100   8.253   4.911
69082W        W41397  23.271   1.979   0.403
69083W        W41398  25.240  40.320   2.518
69084W        W41399  20.500  18.729   0.901
69085W        W41400  36.073  35.464  10.769
69086W        W41401  23.291  19.225   9.824
69087W        W41402  24.316  25.586  12.587
69088W        W41403   1.311   1.883  12.958
69089W        W41404  27.378  30.134   1.289
69090W        W41405   8.113  37.457   2.762
69091W        W41406  43.005   5.421  13.845
69092W        W41407   1.387  15.907   1.871
69093W        W41408  20.837  13.712  10.762
69094W        W41409  28.654  25.514  13.345
69095W        W41410  29.723  18.747  10.835
69096W        W41411  42.726  10.837  13.528
69097W        W41412  12.363  40.293   0.866
69098W        W41413  17.392  34.151   1.825
69099W        W41414   5.683   8.836   0.857
69100W        W41415   3.213  38.772  13.773
69101W        W41416  23.489  26.076  11.705
69102W        W41417  18.158  15.340  13.704
69103W        W41418  22.309  13.413  12.463
69104W        W41419  19.803  42.724  13.556
69105W        W41420   0.759   9.807  12.865
69106W        W41421  37.871  15.663  10.887
69107W        W41422  14.270  17.359  14.396
69108W        W41423   1.328   8.431   4.129
69109W        W41424  12.200  20.600  11.514
69110W        W41425   9.045  29.041  14.401
69111W        W41426  29.838  42.385   1.470
69112W        W41427  26.209  15.059  11.252
69113W        W41428  22.171  34.060  14.054
69114W        W41429  40.596  13.657  13.901
69115W        W41430  34.939  40.809  12.308
69116W        W41431  44.174  14.064   0.374
69117W        W41432   7.836  10.325  13.431
69118W        W41433   5.554  23.869  12.694
69119W        W41434  44.805  19.834   1.207
69120W        W41435  32.453   1.291   0.464
69121W        W41436  35.531  33.480   4.742
69122W        W41437  24.320  27.775  12.031
69123W        W41438  25.666  22.427  13.507
69124W        W41439  15.863  30.470   1.287
69125W        W41440  21.818   1.652   1.162
69126W        W41441   2.527  33.807   0.957
69127W        W41442  13.145   6.598   3.188
69128W        W41443  42.365   8.130  13.748
69129W        W41444  35.641  25.560   1.821
69130W        W41445  19.780  35.089   4.546
69131W        W41446   8.487  26.846  11.242
69132W        W41447  12.118  21.499  14.798
69133W        W41448  10.293   0.043   0.262
69134W        W41449  24.410  33.038   3.735
69135W        W41450   1.735  18.807  14.560
69136W        W41451  39.806   7.667  10.661
69137W        W41452  38.756  26.981   1.277
69138W        W41453  40.295   3.481  11.592
69139W        W41454  36.785  23.717  11.117
69140W        W41455  40.906   4.414   4.600
69141W        W41456  44.758   6.696  12.551
69142W        W41457  19.902  32.024   4.927
69143W        W41458  42.845  41.239  12.917
69144W        W41459   0.289  12.680   1.805
69145W        W41460  29.676  31.513  12.635
69146W        W41461  16.585  10.658   4.198
69147W        W41462  36.965  41.566   4.769
69148W        W41463  34.642  27.616   4.177
69149W        W41464  11.816  33.748  10.609
69150W        W41465   8.232   7.832  14.036
69151W        W41466  30.160  21.496  10.634
69152W        W41467  23.443   3.677  14.469
69153W        W41468   3.908  16.026  11.169
69154W        W41469  33.488  33.170   2.855
69155W        W41470  23.419  21.573  14.863
69156W        W41471  43.300  35.547   4.607
69157W        W41472  22.155  35.020   2.695
69158W        W41473  21.562  27.582  10.950
69159W        W41474  18.855   0.547   3.734
69160W        W41475  42.792  22.131  12.032
69161W        W41476  37.399  19.620   3.661
69162W        W41477  37.449  19.786   1.273
69163W        W41478  11.118  26.715  12.793
69164W        W41479  17.959  36.963   2.727
69165W        W41480   8.724  17.315  13.918
69166W        W41481   5.864   1.221  11.188
69167W        W41482  16.717  23.623  13.305
69168W        W41483  40.014  17.868   4.258
69169W        W41484  40.282  35.360   2.868
69170W        W41485  11.864  11.149  12.150
69171W        W41486  33.441  30.484  12.074
69172W        W41487  12.214  27.862  14.298
69173W        W41488   2.815   2.951   3.117
69174W        W41489  27.126  43.839  13.437
69175W        W41490   3.831  15.561   2.911
69176W        W41491   3.660  26.793  14.102
69177W        W41492  24.092  33.183  13.053
69178W        W41493  19.534  15.167   3.722
69179W        W41494  44.296  26.587  11.558
69180W        W41495   7.308  42.376  12.086
69181W        W41496   6.683  21.733   4.710
69182W        W41497   1.979  37.038  11.013
69183W        W41498  29.015  30.009   4.056
69184W        W41499  12.289  25.891  12.191
69185W        W41500   2.939  25.633   1.825
69186W        W41501  26.495  30.548  11.514
69187W        W41502  15.778  29.091  12.137
69188W        W41503  25.011  43.875   3.359
69189W        W41504  42.526   7.180  14.526
69190W        W41505   3.826  19.773   1.739
69191W        W41506  29.447  25.269   0.211
69192W        W41507  43.732  22.538  14.265
69193W        W41508  25.578   0.337   4.653
69194W        W41509  34.351  11.377  10.830
69195W        W41510  35.162  25.203  13.301
69196W        W41511  31.215   1.339   3.767
69197W        W41512   7.252   7.152   4.096
69198W        W41513   7.235  33.796   4.875
69199W        W41514   0.483  39.322   3.030
69200W        W41515  25.890  29.280  11.328
69201W        W41516  20.329  20.870   9.998
69202W        W41517  25.580  31.977   3.738
69203W        W41518  44.318   6.197  10.027
69204W        W41519  16.782  34.581  10.644
69205W        W41520   8.988  33.336   5.024
69206W        W41521  18.114  36.157  13.270
69207W        W41522  20.655  20.276  11.855
69208W        W41523  16.703  18.275   2.385
69209W        W41524  17.721   0.239  14.002
69210W        W41525   4.655  25.153   3.859
69211W        W41526   2.201  31.638  10.920
69212W        W41527  18.291   4.943  11.180
69213W        W41528   9.583  17.589  13.616
69214W        W41529  32.153  27.618  14.359
69215W        W41530  36.677  26.595   1.766
69216W        W41531  21.589  14.764   1.092
69217W        W41532  40.887  17.939  11.907
69218W        W41533  11.692  43.773  11.133
69219W        W41534  23.165  14.372  13.333
69220W        W41535  28.608   8.167  13.123
69221W        W41536  19.511  34.395  13.437
69222W        W41537   2.737  29.851   1.076
69223W        W41538  32.141  25.651   0.991
69224W        W41539  30.543  28.460  14.589
69225W        W41540  13.112  18.550  11.974
69226W        W41541  16.754  37.259  12.912
69227W        W41542  33.087  15.746   4.565
69228W        W41543  27.231  21.043   1.229
69229W        W41544  26.550  15.590  12.432
69230W        W41545   6.680   7.519   1.178
69231W        W41546  39.074  26.629   2.841
69232W        W41547  29.036  25.098  13.997
69233W        W41548  43.302  16.953  10.805
69234W        W41549  27.753   0.046  13.377
69235W        W41550   0.235   6.710  11.207
69236W        W41551  43.082  42.125   0.906
69237W        W41552  24.520  37.344  11.042
69238W        W41553  21.960  38.889  13.345
69239W        W41554  11.583   8.159  13.527
69240W        W41555  44.399   7.107   3.257
69241W        W41556   4.733  21.027   0.855
69242W        W41557   0.098   9.576   0.925
69243W        W41558  41.593  38.516  12.007
69244W        W41559   5.717  27.411   2.835
69245W        W41560  39.330  13.612  11.561
69246W        W41561  19.157  21.445  14.071
69247W        W41562  17.266   1.519   1.859
69248W        W41563  27.244  29.204   4.126
69249W        W41564  37.762  22.705   4.977
69250W        W41565  24.506  35.701   2.177
69251W        W41566  42.537   4.290   4.686
69252W        W41567  39.067   5.394  12.896
69253W        W41568  14.469   6.274   0.292
69254W        W41569  40.917  36.021  14.774
69255W        W41570  21.659  16.111  12.428
69256W        W41571  10.658  22.788  13.159
69257W        W41572  44.879  29.925   2.854
69258W        W41573   9.761  39.167   4.790
69259W        W41574   0.964   8.630   1.264
69260W        W41575  13.294  10.127   2.796
69261W        W41576  35.390  21.685  11.471
69262W        W41577  27.153   0.408  11.583
69263W        W41578  42.816  20.066   3.611
69264W        W41579  22.565   7.356  14.269
69265W        W41580   7.121  24.791   1.355
69266W        W41581  18.571  22.561   2.647
69267W        W41582   5.231   8.889  13.791
69268W        W41583  19.560  39.754  11.933
69269W        W41584   8.282  40.823   2.532
69270W        W41585   0.953  37.471  12.138
69271W        W41586  37.420  13.526  13.005
69272W        W41587  25.471  13.697   3.223
69273W        W41588  41.459  22.537   0.816
69274W        W41589  44.819  29.514   4.497
69275W        W41590  35.554  28.045  13.505
69276W        W41591   9.163  44.064   2.215
69277W        W41592   6.135  15.139  10.642
69278W        W41593   0.414  32.897   1.207
69279W        W41594   0.373  23.260   4.571
69280W        W41595  34.537  32.435   1.255
69281W        W41596  41.605  33.121   2.691
69282W        W41597   2.428  14.061  13.528
69283W        W41598   0.733  35.855  14.956
69284W        W41599  42.556  14.779   3.255
69285W        W41600  41.088  15.635  11.247
69286W        W41601  13.114  20.795   4.203
69287W        W41602  11.810  39.829   2.242
69288W        W41603   0.358  42.106   3.774
69289W        W41604  20.524  30.983   4.541
69290W        W41605  44.396   8.362  14.188
69291W        W41606  31.437  11.778  13.875
69292W        W41607  17.794  43.762  11.612
69293W        W41608  25.676  35.057  11.135
69294W        W41609  29.626  34.771  13.488
69295W        W41610  39.883  20.100  14.836
69296W        W41611  34.113   8.329   2.978
69297W        W41612   4.455  29.205   4.597
69298W        W41613  24.439  30.037  11.467
69299W        W41614  41.354  17.724   4.443
69300W        W41615   7.188  27.306   0.523
69301W        W41616   1.192   8.735   0.818
69302W        W41617   3.907  14.088   0.818
69303W        W41618  41.812  21.043   2.195
69304W        W41619  13.181  38.164  12.470
69305W        W41620  28.167   5.309  10.850
69306W        W41621  12.154  29.594   3.312
69307W        W41622  27.810  43.751  10.016
69308W        W41623  23.704  19.780  14.024
69309W        W41624  36.885  27.889   1.310
69310W        W41625  11.883  25.609   2.558
69311W        W41626   4.713  34.628  11.671
69312W        W41627  17.328  14.291   2.861
69313W        W41628   7.327  20.626   2.033
69314W        W41629  24.029   1.456  12.110
69315W        W41630   4.556  19.979   5.020
69316W        W41631   3.072  15.376   0.461
69317W        W41632  33.150  34.041   4.430
69318W        W41633  20.538   1.171   0.300
69319W        W41634  17.274   2.467   1.924
69320W        W41635  20.771   7.987  14.547
69321W        W41636   5.433  16.473   1.131
69322W        W41637   4.717  20.037  13.360
69323W        W41638  43.937   6.863   2.735
69324W        W41639  34.062  23.234  13.874
69325W        W41640  22.936  39.905  14.141
69326W        W41641  27.482  42.215  12.426
69327W        W41642  31.044  16.079   0.390
69328W        W41643  21.895   0.489  11.997
69329W        W41644  33.561  23.459  12.043
69330W        W41645  35.492   7.218  14.261
69331W        W41646  39.037  17.180  14.578
69332W        W41647  24.053  43.755   3.075
69333W        W41648   6.735  18.050   0.720
69334W        W41649  18.006  30.916   4.660
69335W        W41650  26.609  24.023   1.639
69336W        W41651  36.964   3.510   4.557
69337W        W41652  39.768  14.562  11.491
69338W        W41653  34.745  17.258   2.308
69339W        W41654  34.817  20.652   0.365
69340W        W41655  17.293  34.608  11.387
69341W        W41656  21.496  35.411  12.022
69342W        W41657  36.623  40.963   4.197
69343W        W41658  32.897  38.322   0.677
69344W        W41659  29.120  43.814  11.993
69345W        W41660  17.633   1.424  13.378
69346W        W41661  14.524  29.622   3.294
69347W        W41662  13.790  32.946   1.753
69348W        W41663  19.983  18.041   2.178
69349W        W41664  43.170   8.659   2.893
69350W        W41665  44.235  25.881   1.343
69351W        W41666  12.823  12.797  12.506
69352W        W41667  38.927  13.786  12.645
69353W        W41668  20.566   3.357  10.421
69354W        W41669  37.314   5.690   4.904
69355W        W41670   8.306  26.949  14.480
69356W        W41671  29.918   9.212  14.139
69357W        W41672  12.783  18.196   2.211
69358W        W41673  35.477  11.310  13.066
69359W        W41674   2.400  22.952  11.293
69360W        W41675  41.005  24.264  12.846
69361W        W41676  34.042  41.161   1.306
69362W        W41677  19.203  12.207   4.961
69363W        W41678  33.896   2.903  14.777
69364W        W41679  26.852   0.365   1.349
69365W        W41680  25.131  26.805   2.861
69366W        W41681  10.131  37.877   3.609
69367W        W41682  36.525  36.934   1.918
69368W        W41683  18.429  40.216   0.859
69369W        W41684  17.285  22.049   1.393
69370W        W41685   5.186  41.338  13.917
69371W        W41686  31.862  14.717   3.863
69372W        W41687  21.790  42.018   3.561
69373W        W41688   4.787  18.201  14.744
69374W        W41689  32.144  11.181  10.630
69375W        W41690   2.423  24.215   2.748
69376W        W41691  40.761  20.495   4.153
69377W        W41692  42.758  44.052  12.777
69378W        W41693  41.324  28.123   4.571
69379W        W41694  16.705  19.615   4.505
69380W        W41695   1.246  11.588   5.388
69381W        W41696  36.501  44.464  14.528
69382W        W41697   9.283  24.271  10.934
69383W        W41698  19.105  43.978  12.893
69384W        W41699  20.076  36.674   3.223
69385W        W41700  19.553  41.279  13.945
69386W        W41701  35.401   4.041   4.123
69387W        W41702  30.748  25.206  13.000
69388W        W41703  17.997   0.216  11.452
69389W        W41704  39.460  40.046   3.790
69390W        W41705  38.280  18.230  12.523
69391W        W41706  34.132   0.708  12.513
69392W        W41707  42.878  17.787   1.786
69393W        W41708  26.479   6.847   3.328
69394W        W41709  28.603   8.067   2.377
69395W        W41710  25.180  31.656  12.030
69396W        W41711   5.037  30.798   0.765
69397W        W41712   7.921   1.398   1.791
69398W        W41713  18.617   7.063  11.899
69399W        W41714  39.094   7.289   2.331
69400W        W41715   1.039  41.276  11.105
69401W        W41716  35.910  20.186   0.485
69402W        W41717  24.777  18.130  11.450
69403W        W41718  28.134   0.581  13.843
69404W        W41719   4.785  43.408  12.645
69405W        W41720  27.578  23.962   3.065
69406W        W41721  42.772  29.155  13.452
69407W        W41722  39.397  38.147   2.346
69408W        W41723  40.615  36.895   0.931
69409W        W41724  30.950  12.321   1.088
69410W        W41725  26.221  29.140  14.400
69411W        W41726  23.692   9.196  14.866
69412W        W41727  16.817   6.831  13.270
69413W        W41728  28.783  29.184   2.223
69414W        W41729  41.867  34.413  10.312
69415W        W41730   4.377  26.570   1.169
69416W        W41731  34.441  17.601  12.454
69417W        W41732  10.321  25.596   3.325
69418W        W41733   2.232  11.640   5.177
69419W        W41734  34.039   5.861  13.066
69420W        W41735   4.833  21.315  13.071
69421W        W41736  29.513  16.719   1.701
69422W        W41737  35.647  11.652  13.503
69423W        W41738  28.507  29.887   4.033
69424W        W41739   6.875  24.081   2.576
69425W        W41740  15.108  25.985  14.278
69426W        W41741  44.073  11.884   2.202
69427W        W41742  43.128  30.370   3.097
69428W        W41743  37.340  26.864  14.953
69429W        W41744  29.631  10.730   3.962
69430W        W41745  33.987  22.560  13.356
69431W        W41746  27.385  39.552  12.903
69432W        W41747   4.202  18.811  12.128
69433W        W41748  28.067   5.723   4.795
69434W        W41749   6.240  40.764  10.283
69435W        W41750  28.468  41.919  13.375
69436W        W41751   3.352  44.931  13.521
69437W        W41752  36.887  44.833   1.086
69438W        W41753  13.269  29.843  14.283
69439W        W41754  34.099  31.908  14.128
69440W        W41755  35.480  36.353   4.177
69441W        W41756  14.059  29.011   3.850
69442W        W41757  15.129  14.912  10.564
69443W        W41758  28.002  19.935   1.608
69444W        W41759  10.266  27.007  14.459
69445W        W41760  27.838  25.826   2.899
69446W        W41761   2.764  35.578  11.989
69447W        W41762  15.826  18.503  14.139
69448W        W41763  21.602  36.752   3.229
69449W        W41764  27.715  37.340  14.609
69450W        W41765   9.075  43.635   0.347
69451W        W41766  21.373  23.982  11.114
69452W        W41767  40.323  16.937   4.200
69453W        W41768  18.677   4.245  12.880
69454W        W41769   7.452   9.592   1.990
69455W        W41770   6.460  14.712   3.822
69456W        W41771  42.251  41.387   4.192
69457W        W41772   2.776  31.171  12.067
69458W        W41773  34.246   5.862   0.040
69459W        W41774  29.360  22.248   3.176
69460W        W41775   5.552  41.354   0.019
69461W        W41776  31.420  22.063   0.366
69462W        W41777  36.570   8.678  11.143
69463W        W41778  44.314  19.123   3.686
69464W        W41779   7.570  43.641   3.102
69465W        W41780  41.285  42.671  13.414
69466W        W41781   8.690  23.546   4.459
69467W        W41782  33.902   0.876  14.537
69468W        W41783  44.259  42.713  11.225
69469W        W41784  40.084   6.766   0.267
69470W        W41785  23.964  44.271  14.586
69471W        W41786  15.225   2.854  12.052
69472W        W41787   0.958   4.746  10.237
69473W        W41788  27.003  43.412   1.309
69474W        W41789  27.019   2.894   0.309
69475W        W41790  44.065   2.560  13.734
69476W        W41791  20.749  39.410   1.042
69477W        W41792  24.972  44.876  10.375
69478W        W41793  43.412  25.583  12.449
69479W        W41794  33.072  41.651  12.561
69480W        W41795  15.528  13.176   1.433
69481W        W41796  39.010   2.777  14.521
69482W        W41797  26.501  19.319   1.313
69483W        W41798  26.040  43.521   3.844
69484W        W41799   8.311   7.371  11.060
69485W        W41800  24.744  38.111  12.045
69486W        W41801   2.809  39.180   2.633
69487W        W41802  44.924   5.290   2.378
69488W        W41803  31.219  44.918  14.972
69489W        W41804  24.849  20.308  10.498
69490W        W41805  30.710  26.469   4.361
69491W        W41806  35.405  29.103  10.616
69492W        W41807   3.735  18.333   5.198
69493W        W41808  33.000   1.826  12.486
69494W        W41809  24.587  44.607   1.245
69495W        W41810  18.603  16.941   4.560
69496W        W41811  29.532   7.601   4.261
69497W        W41812  26.147  29.555   4.748
69498W        W41813   5.756  10.618  12.466
69499W        W41814  25.899  34.084   5.124
69500W        W41815  12.770   4.759  14.628
69501W        W41816  13.096   8.221   3.703
69502W        W41817   5.901  28.644  10.661
69503W        W41818   0.667  24.187  13.947
69504W        W41819  24.427  19.584  12.280
69505W        W41820  25.502  28.525  14.907
69506W        W41821  27.569  21.997  13.558
69507W        W41822   6.285  38.511  13.926
69508W        W41823  42.403  22.527   1.309
69509W        W41824  10.920  12.183  10.928
69510W        W41825  37.609  11.672  12.135
69511W        W41826   2.320  36.656  12.571
69512W        W41827   9.274   3.930  11.136
69513W        W41828  21.526  23.806  14.995
69514W        W41829  15.071  42.902  11.090
69515W        W41830  13.343   7.487   2.224
69516W        W41831  40.957  36.821  14.380
69517W        W41832  23.267   6.941  12.243
69518W        W41833  28.692  30.119   2.616
69519W        W41834  39.803  10.302  12.183
69520W        W41835   1.179  39.687  14.449
69521W        W41836  28.155  34.062  13.748
69522W        W41837   0.267  19.590  11.690
69523W        W41838  10.896  28.150   1.730
69524W        W41839   5.877   4.173  12.873
69525W        W41840  25.093  31.061   1.597
69526W        W41841  12.272  16.339   2.275
69527W        W41842   5.504  40.951   0.363
69528W        W41843  31.493  15.315   0.307
69529W        W41844  32.961  23.764  13.437
69530W        W41845  27.638  11.345   3.207
69531W        W41846  19.082  23.286  12.901
69532W        W41847  14.206  23.619  14.526
69533W        W41848   6.965  35.223  13.885
69534W        W41849   7.913  11.996   4.326
69535W        W41850  18.550  16.629  13.533
69536W        W41851  10.904  21.648   2.144
69537W        W41852  21.129  15.063  13.811
69538W        W41853  24.693  23.054  14.456
69539W        W41854   9.318  40.385   0.287
69540W        W41855  41.818  40.402   2.830
69541W        W41856   4.676  37.907   0.862
69542W        W41857  37.539   4.362  11.597
69543W        W41858  22.122  22.309   4.156
69544W        W41859  18.216   0.434  14.491
69545W        W41860  18.995  30.590   4.902
69546W        W41861   0.485   6.368  10.809
69547W        W41862  37.178  10.235   2.478
69548W        W41863  32.681  19.924   1.330
69549W        W41864  31.428  28.172   3.623
69550W        W41865  33.988   8.238   4.625
69551W        W41866  27.673  24.980   0.935
69552W        W41867   2.953  19.693   2.803
69553W        W41868  37.392  11.256  14.385
69554W        W41869   6.919  22.931  14.038
69555W        W41870  26.001  18.121   1.665
69556W        W41871  25.836  39.704   1.233
69557W        W41872  19.267  30.116  11.271
69558W        W41873   4.821  28.161   0.258
69559W        W41874   7.680   1.834   0.276
69560W        W41875   3.056  25.673   2.754
69561W        W41876  13.216  16.229  11.556
69562W        W41877  15.098  43.423  11.075
69563W        W41878  19.264  39.178   4.551
69564W        W41879  12.348  23.660  11.480
69565W        W41880  34.201  24.522  11.379
69566W        W41881  33.299  44.254   4.739
69567W        W41882  43.308  18.960  10.686
69568W        W41883  29.296  34.669  11.143
69569W        W41884  22.521   3.823  10.653
69570W        W41885  18.200  30.504  14.558
69571W        W41886  15.876  26.995  12.877
69572W        W41887  11.354   7.937   0.495
69573W        W41888  22.094  22.593   1.830
69574W        W41889  35.038  30.691  12.957
69575W        W41890   0.669  38.607   2.758
69576W        W41891  11.575  34.410   2.327
69577W        W41892  27.256  13.369   0.309
69578W        W41893  32.498  44.496  11.458
69579W        W41894   0.252  39.916  10.788
69580W        W41895  36.111  44.726   0.917
69581W        W41896  43.040   8.325   2.156
69582W        W41897  30.069  33.066  14.779
69583W        W41898   0.270  19.164   2.371
69584W        W41899  40.351  19.102   0.413
69585W        W41900  32.433  32.512   3.694
69586W        W41901  14.928  26.562   1.838
69587W        W41902   0.488  33.614  14.039
69588W        W41903  11.842  24.487   1.462
69589W        W41904  15.793  14.091   3.671
69590W        W41905   7.921  27.975   3.538
69591W        W41906  33.332   6.846  14.938
69592W        W41907  28.645  27.468   4.699
69593W        W41908  35.634   1.023   4.738
69594W        W41909  18.531   2.798   1.469
69595W        W41910   4.417  24.450  11.034
69596W        W41911  30.429   0.713   3.634
69597W        W41912  11.322  41.273  11.919
69598W        W41913  37.106   3.947   2.837
69599W        W41914  13.323   7.333   4.198
69600W        W41915  19.777  36.088   3.045
69601W        W41916   8.149  43.901  13.648
69602W        W41917   0.609   9.128   5.487
69603W        W41918  31.499   8.220  14.630
69604W        W41919  38.906  35.373   3.077
69605W        W41920   6.729  12.323  14.446
69606W        W41921   6.373  13.814   4.128
69607W        W41922  44.924  21.739  11.947
69608W        W41923  43.245  35.051  10.615
69609W        W41924  27.100  25.010  10.734
69610W        W41925   5.235  22.606  10.718
69611W        W41926   0.714  12.736   3.740
69612W        W41927   2.986  10.604   2.417
69613W        W41928  30.275   3.423  14.470
69614W        W41929   0.093  11.230  14.591
69615W        W41930   5.903  19.230  10.574
69616W        W41931  27.335  41.434   3.805
69617W        W41932  18.681   1.092  13.996
69618W        W41933  22.189  41.991   2.725
69619W        W41934  19.067  14.745  11.571
69620W        W41935   6.668  38.484   3.239
69621W        W41936  24.175  25.729   3.160
69622W        W41937   8.659  37.899  12.551
69623W        W41938  16.654  27.088  10.332
69624W        W41939  30.137  39.733   4.112
69625W        W41940  16.173   2.266   4.317
69626W        W41941  43.135  31.953  11.962
69627W        W41942   6.850   6.363   1.812
69628W        W41943   9.534  42.647  11.554
69629W        W41944  16.778   9.212   1.062
69630W        W41945  30.338  14.655   0.924
69631W        W41946  14.248  34.168  12.728
69632W        W41947  44.968  33.383  12.098
69633W        W41948  22.295  44.769  12.066
69634W        W41949  41.482   4.125  12.456
69635W        W41950  41.219  18.117  13.123
69636W        W41951  28.045   9.087   4.928
69637W        W41952  25.450  19.740  10.697
69638W        W41953  39.566   4.618  12.282
69639W        W41954  19.673  28.389   2.537
69640W        W41955  23.851  27.933   3.759
69641W        W41956  19.996  34.637  13.486
69642W        W41957  32.902  14.065  12.798
69643W        W41958  11.632  17.076  11.988
69644W        W41959  43.285  15.255   0.356
69645W        W41960  36.886   6.146   4.133
69646W        W41961  39.840  22.065  14.479
69647W        W41962  38.989   6.456  13.793
69648W        W41963  29.007  31.081  14.263
69649W        W41964  17.153   7.111   4.073
69650W        W41965   8.839  30.114   0.870
69651W        W41966   8.223  35.862  14.214
69652W        W41967  10.133  34.247  11.466
69653W        W41968  28.050  25.122   2.281
69654W        W41969  43.033  26.423  10.990
69655W        W41970  24.188  32.287   5.026
69656W        W41971   4.904  28.626   0.527
69657W        W41972  32.652  23.923  12.119
69658W        W41973   0.535   3.432  12.453
69659W        W41974  21.709  39.809   2.257
69660W        W41975  43.645   9.141  11.091
69661W        W41976  12.677  22.240  12.991
69662W        W41977  32.180  14.848   2.298
69663W        W41978  15.655  26.543   3.497
69664W        W41979  14.688  24.071  12.434
69665W        W41980  13.538  13.357   4.007
69666W        W41981   0.746  18.861  14.491
69667W        W41982   5.363   0.341  14.412
69668W        W41983  40.280  35.562  11.011
69669W        W41984   9.407  16.901   3.656
69670W        W41985  15.566  43.202  11.133
69671W        W41986  30.182   7.723   3.174
69672W        W41987  12.147   4.338   0.698
69673W        W41988  31.572  31.958  13.269
69674W        W41989  40.221  31.680  12.816
69675W        W41990  34.861  43.310  11.736
69676W        W41991  10.355  13.309   4.108
69677W        W41992  29.086  18.503   4.519
69678W        W41993   7.262  41.616   1.346
69679W        W41994   4.724  27.609  11.388
69680W        W41995  43.422  35.013   3.229
69681W        W41996   1.470  21.530   2.893
69682W        W41997   3.092  32.932  11.946
69683W        W41998  42.711  31.551  14.504
69684W        W41999  44.358  33.890  13.790
69685W        W42000  25.074  43.318   3.367
69686W        W42001  17.638  22.107   3.665
69687W        W42002  27.223  18.335  12.030
69688W        W42003  34.924  37.414   3.589
69689W        W42004  27.903   5.335  12.334
69690W        W42005   8.915   6.924  12.709
69691W        W42006   8.011   2.963   4.191
69692W        W42007   8.814  39.778   4.447
69693W        W42008   7.842  17.024   3.718
69694W        W42009  35.374  36.910  11.579
69695W        W42010  43.344  17.757   0.843
69696W        W42011  27.737  42.019  12.012
69697W        W42012  11.668   0.881  10.634
69698W        W42013  38.567  31.561   1.533
69699W        W42014  25.145  16.441   4.061
69700W        W42015  31.881  32.596   0.375
69701W        W42016   4.609   4.292   0.302
69702W        W42017  18.834  23.487   5.178
69703W        W42018  25.724  21.936   1.758
69704W        W42019  16.259  16.865   1.429
69705W        W42020  37.192  28.104   0.540
69706W        W42021  11.987  31.567  12.555
69707W        W42022  34.408  21.109  14.831
69708W        W42023   7.339  21.195   2.846
69709W        W42024   9.784  23.124   4.799
69710W        W42025  31.671  10.386   0.338
69711W        W42026  28.640   4.126   1.734
69712W        W42027  42.776   3.140   3.643
69713W        W42028  20.750  11.801  12.955
69714W        W42029  29.292  35.546  11.022
69715W        W42030  43.416  13.245  14.789
69716W        W42031  23.947   7.190   1.764
69717W        W42032  10.295   5.526   3.279
69718W        W42033  33.607  13.126   1.902
69719W        W42034   3.859  25.153   1.669
69720W        W42035  35.461  41.551   0.357
69721W        W42036  44.789  25.049  11.502
69722W        W42037  27.914  30.423  12.430
69723W        W42038  41.066  22.322  11.529
69724W        W42039   5.472  42.718   3.274
69725W        W42040  17.466   9.660   5.035
69726W        W42041  14.598  13.827  14.554
69727W        W42042  38.957  12.162  12.145
69728W        W42043  44.854   0.442  11.491
69729W        W42044  11.299  44.131  10.647
69730W        W42045   9.454  26.612  13.568
69731W        W42046   8.147   2.697   4.886
69732W        W42047  12.099  12.935   0.732
69733W        W42048  39.893   5.611   1.676
69734W        W42049   1.730  21.474  12.958
69735W        W42050  28.022  35.510   4.619
69736W        W42051  42.772  20.969  13.942
69737W        W42052   8.710  16.704   3.301
69738W        W42053  38.474   8.316   4.473
69739W        W42054   1.863  35.304  14.821
69740W        W42055  39.583  32.975  13.763
69741W        W42056  17.350   7.925   3.647
69742W        W42057  10.592  16.683  10.212
69743W        W42058   9.634   4.853  13.472
69744W        W42059  27.601   4.742  14.039
69745W        W42060  29.224  41.967  13.111
69746W        W42061   2.827   1.819  11.105
69747W        W42062  36.382  33.460  13.383
69748W        W42063  25.948   3.333  11.612
69749W        W42064  38.184  21.202   3.643
69750W        W42065  36.619  15.204   0.210
69751W        W42066  15.786   0.676  12.712
69752W        W42067  14.681  17.723  13.817
69753W        W42068  31.961  37.947  14.699
69754W        W42069   6.330  13.873   1.930
69755W        W42070  30.333   6.295   3.182
69756W        W42071  34.568  24.489  14.461
69757W        W42072  42.388  36.110  12.597
69758W        W42073  37.062  16.590   3.685
69759W        W42074  38.386  17.564   4.723
69760W        W42075  28.126  31.278  12.373
69761W        W42076  34.846  14.663   0.598
69762W        W42077   3.151  26.129   3.254
69763W        W42078  14.816  30.503   0.742
69764W        W42079  43.851  24.779   4.299
69765W        W42080  10.864  24.673   4.429
69766W        W42081  19.245  13.914   2.684
69767W        W42082  44.296  24.586  13.800
69768W        W42083  40.813  26.564   1.866
69769W        W42084  13.840  42.006  12.908
69770W        W42085  41.489  11.396  11.956
69771W        W42086  41.480  12.136  13.795
69772W        W42087  23.204  23.397   1.899
69773W        W42088  32.085   4.022   1.661
69774W        W42089  20.056  11.844  10.731
69775W        W42090  42.317  11.775   3.903
69776W        W42091  35.519  15.620   3.185
69777W        W42092  20.162  21.181  14.254
69778W        W42093  40.873   1.217   4.388
69779W        W42094  21.990  34.941   1.660
69780W        W42095  29.980   8.264   4.347
69781W        W42096   2.311  36.004   4.109
69782W        W42097  18.595  44.354   1.357
69783W        W42098   6.383   5.891  12.888
69784W        W42099   9.158   5.842   0.428
69785W        W42100  13.794  11.373  14.924
69786W        W42101  40.796  26.202  13.339
69787W        W42102   1.217  26.532  12.597
69788W        W42103   2.879   4.498   0.852
69789W        W42104  14.529  15.719  14.899
69790W        W42105  26.548  28.844   2.267
69791W        W42106  20.260  23.724   4.544
69792W        W42107  21.618  30.810   0.262
69793W        W42108   2.939  36.764  14.642
69794W        W42109  44.745  32.727   2.292
69795W        W42110  18.440  18.943   0.142
69796W        W42111  22.265  30.481   4.775
69797W        W42112   8.342  42.964   1.012
69798W        W42113  16.056   8.720  11.266
69799W        W42114  36.620  42.141  12.581
69800W        W42115  12.512  10.697  11.476
69801W        W42116   8.242  27.168   4.629
69802W        W42117  14.003  38.020   1.406
69803W        W42118  30.606  13.917  14.298
69804W        W42119  22.717  36.650  13.508
69805W        W42120  26.661  29.718  11.215
69806W        W42121  31.509  37.655   2.059
69807W        W42122  19.498   0.823  13.760
69808W        W42123  23.117  19.669   1.897
69809W        W42124  35.967   0.482   1.322
69810W        W42125  18.612  37.977  14.462
69811W        W42126  18.293  12.852   1.487
69812W        W42127  21.600   3.863  11.151
69813W        W42128  38.442  31.157  11.206
69814W        W42129  29.976   1.343  10.974
69815W        W42130  26.614  37.131   1.567
69816W        W42131  43.834  11.131   0.189
69817W        W42132  10.889  16.665   1.701
69818W        W42133  42.509   0.187   1.997
69819W        W42134  11.288  12.041  11.287
69820W        W42135  41.392  18.310  11.548
69821W        W42136  22.641  31.023   3.094
69822W        W42137  15.856  29.474  12.524
69823W        W42138  10.277  18.561   3.779
69824W        W42139  31.017  34.691   2.370
69825W        W42140  41.383  26.990   3.793
69826W        W42141  10.878  31.377   2.826
69827W        W42142  24.171  33.375  11.606
69828W        W42143  12.111  16.046  12.617
69829W        W42144  40.045   0.556  13.853
69830W        W42145  12.100   9.352   4.039
69831W        W42146   8.688  30.571   3.749
69832W        W42147  38.642  16.055  13.489
69833W        W42148  28.918  26.014   0.102
69834W        W42149  20.872   7.324   4.931
69835W        W42150  21.783  24.996  13.730
69836W        W42151  30.559   5.226   0.821
69837W        W42152  37.096  20.336  14.983
69838W        W42153  19.289  43.074   1.574
69839W        W42154   0.397   0.838  14.287
69840W        W42155  24.239  31.472  10.694
69841W        W42156   3.828  36.049   2.783
69842W        W42157  35.942   9.871  14.259
69843W        W42158   8.173   4.236  12.540
69844W        W42159  27.963   7.061   1.403
69845W        W42160   7.154  43.853   1.255
69846W        W42161  17.110   0.400   4.063
69847W        W42162  30.802  35.755   2.907
69848W        W42163  30.351  21.783  13.134
69849W        W42164  32.164  25.207   4.136
69850W        W42165   2.303  33.620   3.236
69851W        W42166  20.041  31.134   2.506
69852W        W42167  14.637  10.209  12.957
69853W        W42168  36.418  17.954   2.761
69854W        W42169   0.258  19.166  13.878
69855W        W42170   9.167  29.980  11.599
69856W        W42171  40.962  29.145   2.702
69857W        W42172  16.670  32.464   2.906
69858W        W42173  24.590  22.291  12.737
69859W        W42174  16.132  11.728  10.600
69860W        W42175   5.957  38.952  13.950
69861W        W42176  11.280  26.096   2.141
69862W        W42177   0.698  18.838  11.846
69863W        W42178  42.288  35.248   0.182
69864W        W42179   6.825   5.633   4.799
69865W        W42180  15.090  30.075   5.129
69866W        W42181  24.053  17.687   2.832
69867W        W42182  41.814  15.232   5.147
69868W        W42183  36.074  26.243   4.164
69869W        W42184  12.453  38.422  13.161
69870W        W42185  34.414  19.804  13.540
69871W        W42186  44.372  29.406  14.236
69872W        W42187   2.392   1.811   1.423
69873W        W42188  11.685  31.884  12.911
69874W        W42189   1.124   6.175  14.835
69875W        W42190  38.735  26.754   1.835
69876W        W42191   0.385   3.617  11.455
69877W        W42192   5.116  20.102   1.196
69878W        W42193  17.738  11.116  13.650
69879W        W42194  36.549  33.519   3.265
69880W        W42195   0.699  19.841   2.623
69881W        W42196  41.449   9.198  14.331
69882W        W42197  36.097  22.556   4.034
69883W        W42198   1.745   2.135  13.158
69884W        W42199  41.789  43.481   3.320
69885W        W42200  24.996  12.197   1.606
69886W        W42201  11.269  19.197  14.769
69887W        W42202  33.062  22.009  11.502
69888W        W42203  17.607  39.424  12.238
69889W        W42204  22.288   2.518   3.626
69890W        W42205  31.084  22.275   3.708
69891W        W42206  29.630  31.495   0.874
69892W        W42207  37.963  13.737  13.889
69893W        W42208  35.383  20.956  12.601
69894W        W42209  21.636  25.406  13.469
69895W        W42210   2.981   4.376  14.836
69896W        W42211   2.538  37.270   2.696
69897W        W42212  16.901  40.890   9.873
69898W        W42213  41.048  29.981   0.457
69899W        W42214  31.134  38.019  10.591
69900W        W42215  26.333   9.963   1.221
69901W        W42216  13.028  10.776  11.516
69902W        W42217  38.947  36.487  14.825
69903W        W42218   6.762  25.676  10.519
69904W        W42219  34.220  12.097   1.752
69905W        W42220  12.162  23.312  13.814
69906W        W42221   1.410  12.651  11.439
69907W        W42222   0.477  40.842  14.121
69908W        W42223  34.398  16.660  14.005
69909W        W42224  27.851  41.479   3.727
69910W        W42225   4.791  39.338  14.949
69911W        W42226  36.077  29.963  11.875
69912W        W42227  37.574  20.039   4.793
69913W        W42228  16.565  11.237   1.892
69914W        W42229  31.080   6.247  11.515
69915W        W42230  25.092  24.972  14.791
69916W        W42231  19.085  10.870   2.224
69917W        W42232  31.735  31.939  10.237
69918W        W42233  35.424  34.441   4.686
69919W        W42234  14.777  11.555   3.820
69920W        W42235   9.800  35.623  12.411
69921W        W42236  36.986  42.079   3.267
69922W        W42237  44.030  25.948   0.464
69923W        W42238  25.520  32.322   9.853
69924W        W42239  36.922  11.868  13.861
69925W        W42240  18.762   9.744   1.080
69926W        W42241   3.753  10.962   1.890
69927W        W42242  16.619  40.410  11.146
69928W        W42243  44.515   5.854   4.571
69929W        W42244   8.785   0.902   2.053
69930W        W42245   8.902  44.248   4.143
69931W        W42246  11.049   3.443  12.514
69932W        W42247  25.290  23.648   3.346
69933W        W42248  41.656  24.715   3.522
69934W        W42249  42.942  42.240  10.912
69935W        W42250  10.296  21.659  13.344
69936W        W42251  34.103  16.224   0.938
69937W        W42252   6.308  42.256   1.748
69938W        W42253   9.677   1.297   4.220
69939W        W42254  10.865   0.972  12.516
69940W        W42255  21.674  36.983   1.785
69941W        W42256  15.058  43.067   1.817
69942W        W42257  41.558  36.263  13.001
69943W        W42258  32.957  38.289   4.734
69944W        W42259  44.889  28.341   2.203
69945W        W42260  37.241  32.829  12.472
69946W        W42261  25.228  19.232   0.903
69947W        W42262   5.855  27.518  13.931
69948W        W42263   7.646  18.281  14.743
69949W        W42264  25.946  41.778   1.372
69950W        W42265  30.214  41.769   4.884
69951W        W42266  40.115   0.668   3.864
69952W        W42267   0.689  25.526  12.632
69953W        W42268  16.766  37.772   1.644
69954W        W42269  32.016  14.316   2.221
69955W        W42270  15.910  35.025   3.252
69956W        W42271  41.197  24.503  11.073
69957W        W42272  19.074  13.116   4.334
69958W        W42273  39.292  34.428  13.669
69959W        W42274  25.980   8.401   1.883
69960W        W42275  14.282  41.407   0.273
69961W        W42276  19.215  29.598  10.615
69962W        W42277   7.764  13.367  14.833
69963W        W42278  24.197   8.718  10.365
69964W        W42279  34.162  26.658  13.133
69965W        W42280   5.701   2.850   0.521
69966W        W42281   9.209  12.164   2.626
69967W        W42282  24.599  24.449   1.284
69968W        W42283  26.531  11.013  11.538
69969W        W42284  32.955  25.654   4.158
69970W        W42285   0.406  30.581  10.624
69971W        W42286   6.146  27.403  12.686
69972W        W42287  35.420   0.008  14.276
69973W        W42288   8.448  27.219  11.997
69974W        W42289  29.975   3.196  14.882
69975W        W42290  32.197  28.757  12.160
69976W        W42291   9.866   9.136   2.208
69977W        W42292  10.880  42.090   3.595
69978W        W42293   2.432  16.362  11.164
69979W        W42294  20.610  13.812  14.093
69980W        W42295  26.195  21.709   2.756
69981W        W42296   3.992  18.322   0.242
69982W        W42297   5.192  13.000   0.889
69983W        W42298  18.615   5.444  13.714
69984W        W42299  37.893  43.397   2.175
69985W        W42300  29.994  25.155   0.858
69986W        W42301  12.740  32.432   0.003
69987W        W42302  34.040  17.817  12.739
69988W        W42303  19.522  23.183   2.296
69989W        W42304  43.055   2.742   3.372
69990W        W42305   9.851   0.298   0.119
69991W        W42306  31.125   6.941  14.912
69992W        W42307  26.735  18.144   0.305
69993W        W42308  25.469  35.716  14.837
69994W        W42309  26.661   1.478   4.185
69995W        W42310  16.591  24.925   1.367
69996W        W42311   0.080  32.639   0.880
69997W        W42312   6.950   6.480  11.125
69998W        W42313   7.857  32.528  14.754
69999W        W42314  16.532  16.020   2.521
70000W        W42315  15.069  19.171  11.849
70001W        W42316  27.935   0.308   2.153
70002W        W42317  27.253   6.534   4.089
70003W        W42318   1.700  43.221   1.784
70004W        W42319   4.721   7.716  12.465
70005W        W42320   2.874  21.641  14.496
70006W        W42321  15.272   8.717  13.110
70007W        W42322  38.887  28.733  13.003
70008W        W42323  22.024   0.324  13.325
70009W        W42324   4.461  25.574  13.410
70010W        W42325   7.799  11.863   0.413
70011W        W42326  17.664  38.937  12.390
70012W        W42327  19.614   5.502  13.907
70013W        W42328  13.341  21.263   0.949
70014W        W42329  11.093  36.452  13.532
70015W        W42330  11.505  40.602  14.012
70016W        W42331  22.450  36.401  13.126
70017W        W42332   2.351   8.967  10.893
70018W        W42333  40.555  39.586  11.163
70019W        W42334  23.084  27.687  12.556
70020W        W42335  37.110  44.581   1.791
70021W        W42336  12.248   8.123   4.741
70022W        W42337  14.182  30.611   4.409
70023W        W42338  13.363  11.310  12.792
70024W        W42339  29.365  22.756  12.536
70025W        W42340   0.891  30.495   3.148
70026W        W42341  21.117  31.288   5.063
70027W        W42342  34.984  18.587  13.490
70028W        W42343  21.712   5.767  10.519
70029W        W42344  17.302  44.472   0.783
70030W        W42345  42.410  44.111  12.049
70031W        W42346  13.885  11.685  13.516
70032W        W42347  12.558  18.717   0.256
70033W        W42348  22.471  23.539   5.490
70034W        W42349  24.088  38.989  11.443
70035W        W42350  34.984  16.236  12.024
70036W        W42351  37.934  10.766   4.513
70037W        W42352  31.456  29.203  12.606
70038W        W42353   0.961  13.853  12.765
70039W        W42354  44.047   4.868   3.822
70040W        W42355   1.468   5.683   4.684
70041W        W42356  21.190  38.112  11.717
70042W        W42357  25.946   9.016  10.767
70043W        W42358  26.165  44.430  10.484
70044W        W42359  24.901  19.085  13.447
70045W        W42360  22.918  14.839   3.319
70046W        W42361  18.577   2.865   4.189
70047W        W42362  12.133  35.294   2.171
70048W        W42363   1.053  37.462  14.418
70049W        W42364   3.336  15.856  12.949
70050W        W42365   5.915  32.544  10.805
70051W        W42366  15.084  41.287  11.033
70052W        W42367  30.381  42.910   1.724
70053W        W42368   6.115  23.568   2.403
70054W        W42369  34.041  34.624  12.498
70055W        W42370  37.600   4.342  11.082
70056W        W42371  13.814  21.255   1.217
70057W        W42372  10.349  28.212  10.606
70058W        W42373  38.645  11.339  13.466
70059W        W42374  34.887  24.021  10.931
70060W        W42375  38.775  29.828   2.415
70061W        W42376  42.558  14.734  12.020
70062W        W42377  32.535   2.816  13.286
70063W        W42378  44.440  37.257  11.618
70064W        W42379  16.128  15.210  14.512
70065W        W42380  42.430  13.727  12.598
70066W        W42381  18.707  30.597   2.606
70067W        W42382  33.510  23.261  11.566
70068W        W42383  16.746  19.206  14.968
70069W        W42384   4.443  42.842  12.156
70070W        W42385  26.093  21.214   3.740
70071W        W42386  12.220  29.071  10.357
70072W        W42387   6.885   4.943   3.176
70073W        W42388  32.951  25.160  13.187
70074W        W42389  36.256  28.973   3.139
70075W        W42390  16.031  44.240   4.706
70076W        W42391   3.339  18.256   3.266
70077W        W42392  13.153  16.324   2.952
70078W        W42393   2.129  36.115  14.897
70079W        W42394  12.042   2.324   2.519
70080W        W42395  19.204   2.042  13.347
70081W        W42396  10.192  10.836   4.824
70082W        W42397  14.751  10.974   1.370
70083W        W42398   7.280  10.574   4.665
70084W        W42399   3.031  21.370   9.859
70085W        W42400  32.954  17.264  12.937
70086W        W42401  21.227  42.340   0.482
70087W        W42402  37.774  36.475  13.510
70088W        W42403  41.486   9.842   1.021
70089W        W42404  15.139  20.117  13.754
70090W        W42405  26.752  42.353   0.234
70091W        W42406  44.430  32.959   3.778
70092W        W42407  41.852  37.611   0.954
70093W        W42408  37.253  17.523  11.661
70094W        W42409  36.426  20.697  12.620
70095W        W42410  30.941  36.251  14.767
70096W        W42411  27.619   1.324  12.293
70097W        W42412  15.015  18.314   3.223
70098W        W42413  28.472  13.189  13.395
70099W        W42414  20.748  10.212   1.721
70100W        W42415  25.030  36.204  11.474
70101W        W42416  17.981  43.672  13.965
70102W        W42417   9.099  42.851  11.080
70103W        W42418   4.263   8.385  14.638
70104W        W42419   2.773   7.748  14.127
70105W        W42420  29.509  19.070  13.362
70106W        W42421  14.789  29.152  13.057
70107W        W42422  33.788  27.500   1.230
70108W        W42423  37.853  39.345  14.030
70109W        W42424  40.792  21.162  13.364
70110W        W42425  15.727  34.030  14.989
70111W        W42426   8.867  15.146  11.847
70112W        W42427   8.694  20.229   3.815
70113W        W42428  44.057  14.141  12.027
70114W        W42429   0.605   4.396   2.468
70115W        W42430  16.418  41.230  12.932
70116W        W42431  38.269   7.077  13.200
70117W        W42432   8.790  33.969  11.562
70118W        W42433  37.539   4.890   1.825
70119W        W42434  14.100  44.887   1.871
70120W        W42435  12.831  42.104  11.131
70121W        W42436  10.485  32.083   2.269
70122W        W42437  31.536  16.876  11.144
70123W        W42438   0.374  27.426   1.348
70124W        W42439   1.393  23.675  14.063
70125W        W42440  41.919  41.212   2.711
70126W        W42441  24.445  27.645  13.859
70127W        W42442  44.457  41.924  10.766
70128W        W42443   6.712   6.359  10.699
70129W        W42444   6.228   0.200  10.210
70130W        W42445  11.415   9.220   0.903
70131W        W42446  16.291  34.542   3.075
70132W        W42447  11.353  23.155  14.242
70133W        W42448  29.985  24.958   3.316
70134W        W42449   0.733  17.064   4.686
70135W        W42450  18.957   5.330   2.246
70136W        W42451  29.671   9.249   3.678
70137W        W42452  38.321   0.919   2.208
70138W        W42453  24.922   0.693  14.096
70139W        W42454   6.302  14.820   4.310
70140W        W42455  30.086  11.850   0.893
70141W        W42456  32.137   4.341  12.444
70142W        W42457   0.275  36.282   5.612
70143W        W42458  14.617  20.042   2.104
70144W        W42459  29.156  27.414   3.714
70145W        W42460   0.227  36.129   1.816
70146W        W42461  18.691  15.993   3.337
70147W        W42462   2.420  31.435  13.800
70148W        W42463  26.076  15.560  12.969
70149W        W42464  27.440  29.240   2.683
70150W        W42465  20.993  34.477   3.672
70151W        W42466  21.290  43.712   3.206
70152W        W42467  28.285  12.768  11.056
70153W        W42468  40.862  25.871  12.126
70154W        W42469   4.277  31.703   0.964
70155W        W42470  40.347  42.592  11.915
70156W        W42471  43.982  36.251  12.309
70157W        W42472  20.724  30.699  14.787
70158W        W42473  43.845   1.712   1.098
70159W        W42474  42.888   0.012  10.538
70160W        W42475  38.890   8.933  12.063
70161W        W42476  24.931  43.312   0.322
70162W        W42477   1.786   5.235   2.773
70163W        W42478  35.656  32.647   4.381
70164W        W42479  25.358  26.722   4.510
70165W        W42480   6.786   2.904   4.810
70166W        W42481   5.877  42.175   4.675
70167W        W42482  26.680  29.233  11.426
70168W        W42483   9.143   8.895   0.958
70169W        W42484  34.878  29.569   4.132
70170W        W42485  37.337  27.678  12.167
70171W        W42486  36.420   5.532  11.025
70172W        W42487   9.833   3.989   0.354
70173W        W42488   2.831  41.122  13.484
70174W        W42489  35.341   8.508   0.665
70175W        W42490  25.152  23.218  13.419
70176W        W42491  34.668  42.023   1.917
70177W        W42492   1.791  36.035   9.801
70178W        W42493   4.820  22.707  13.370
70179W        W42494   7.435   1.662   0.719
70180W        W42495  30.919  15.416  11.462
70181W        W42496  33.988  15.714  10.724
70182W        W42497  43.735  10.688  12.007
70183W        W42498  41.960  23.236   4.106
70184W        W42499  13.157  43.028  10.303
70185W        W42500  13.772  43.734  11.961
70186W        W42501  34.912   4.722   0.461
70187W        W42502   4.043  35.376   0.952
70188W        W42503   5.723  20.773  13.957
70189W        W42504  18.753  42.917   0.699
70190W        W42505   2.801  28.089   0.200
70191W        W42506  38.758  37.802   3.640
70192W        W42507   9.739  12.090  13.638
70193W        W42508   7.830  32.541   4.447
70194W        W42509   4.262  19.436   0.783
70195W        W42510  25.119  41.277   0.477
70196W        W42511  44.760  42.963   0.063
70197W        W42512   4.521  18.233   0.183
70198W        W42513  13.816  13.214  10.705
70199W        W42514  15.568  24.264   0.336
70200W        W42515  19.899  40.829  12.027
70201W        W42516  16.677  40.090   2.316
70202W        W42517   2.398   5.587  11.065
70203W        W42518   2.786  39.381   1.308
70204W        W42519   4.158  23.110   4.702
70205W        W42520  39.982  28.195  14.869
70206W        W42521  33.459  17.546   2.862
70207W        W42522   6.349  40.056   4.493
70208W        W42523  35.555  31.964   0.860
70209W        W42524  36.409  13.237   0.307
70210W        W42525   0.937  25.437   4.945
70211W        W42526  20.596  33.543  12.455
70212W        W42527  25.972  44.933  10.673
70213W        W42528  23.507  31.901   0.987
70214W        W42529  24.652  16.707   1.701
70215W        W42530   8.765  22.734  12.948
70216W        W42531  36.408  39.577  13.456
70217W        W42532  20.592  12.633  12.373
70218W        W42533  26.083   0.429   0.226
70219W        W42534   4.518  24.611  14.584
70220W        W42535  14.727  26.871   1.462
70221W        W42536  23.124   4.721  12.619
70222W        W42537  22.327  17.861   2.269
70223W        W42538  28.832  35.819  11.077
70224W        W42539  34.579  17.794  13.543
70225W        W42540  18.309  29.945  10.466
70226W        W42541  26.636  31.312  14.474
70227W        W42542  30.426  28.898  12.056
70228W        W42543  25.667  13.830   1.310
70229W        W42544  44.304  20.723   1.259
70230W        W42545  21.430  41.214  11.639
70231W        W42546  44.641  12.020   1.736
70232W        W42547  36.065  38.362  11.231
70233W        W42548  23.166   3.975   3.204
70234W        W42549  10.388   3.522  13.835
70235W        W42550  37.444  17.051   2.729
70236W        W42551  22.323  29.886   0.784
70237W        W42552  28.976  41.148   1.775
70238W        W42553  15.231  31.493  10.882
70239W        W42554  36.092  35.385  11.283
70240W        W42555  40.982  17.143   4.284
70241W        W42556   3.834  25.100   4.490
70242W        W42557  16.036  44.488  13.284
70243W        W42558  27.803   0.978   3.662
70244W        W42559  19.052   1.975   3.568
70245W        W42560  18.592  28.666   4.538
70246W        W42561  25.577   7.366   3.243
70247W        W42562  23.415  41.270  12.497
70248W        W42563  42.499  19.955   1.824
70249W        W42564  24.535  17.096  14.379
70250W        W42565  43.404   2.661   1.241
70251W        W42566  30.500   5.468   2.781
70252W        W42567  11.324  17.810   4.632
70253W        W42568  37.311  20.203   0.465
70254W        W42569   5.135  12.738   2.005
70255W        W42570  38.568  23.626  11.534
70256W        W42571  19.656   4.671  12.913
70257W        W42572  12.376   7.672   5.012
70258W        W42573  13.316   8.771   0.020
70259W        W42574  16.794   3.243  10.591
70260W        W42575   3.293  14.605   4.586
70261W        W42576  38.596  38.255  13.515
70262W        W42577  28.583  30.687  13.768
70263W        W42578   6.967  10.191   1.446
70264W        W42579  32.344  38.376  12.928
70265W        W42580  19.161  21.272  12.933
70266W        W42581  17.597  40.265   4.517
70267W        W42582  43.933  10.662   4.095
70268W        W42583  21.507   0.985  14.111
70269W        W42584  10.302  26.176   4.629
70270W        W42585  18.158  15.551   2.174
70271W        W42586  33.431   1.496  12.488
70272W        W42587  34.218  39.364   1.481
70273W        W42588  31.366   3.075  11.050
70274W        W42589  13.074  43.541  13.445
70275W        W42590  28.507  31.454  12.059
70276W        W42591  12.297  13.231  10.767
70277W        W42592  11.266  11.693  13.487
70278W        W42593  30.580  32.003   0.258
70279W        W42594   9.771   0.923  13.359
70280W        W42595  36.329  13.560  11.660
70281W        W42596  18.033  26.626  14.286
70282W        W42597  18.970  24.728   3.587
70283W        W42598   9.452  27.472  14.915
70284W        W42599  35.949  26.592   3.749
70285W        W42600  30.392  37.192   3.647
70286W        W42601  13.470  18.322   3.198
70287W        W42602  41.933   9.453   3.248
70288W        W42603  16.198  10.789   0.726
70289W        W42604  17.512  26.508   2.802
70290W        W42605  29.901  12.278  12.059
70291W        W42606  11.701  38.501   2.858
70292W        W42607  28.908   6.015  13.857
70293W        W42608   7.874  18.178  12.932
70294W        W42609  39.485   6.233  14.911
70295W        W42610  30.179  26.533  11.641
70296W        W42611  23.579  44.392   4.523
70297W        W42612  29.674  20.983   4.990
70298W        W42613  15.448  25.771   4.196
70299W        W42614   7.993  41.264  10.377
70300W        W42615  17.757  39.536  10.418
70301W        W42616  11.287  18.884   5.480
70302W        W42617  43.346  15.628  13.305
70303W        W42618  19.110  40.560  11.953
70304W        W42619   4.614  37.861   4.609
70305W        W42620  32.483  31.853  13.475
70306W        W42621   5.773  43.986   3.509
70307W        W42622  30.580  39.979   4.822
70308W        W42623  15.611  40.404   1.871
70309W        W42624  25.103  19.590   0.213
70310W        W42625  24.165  14.206  14.864
70311W        W42626  13.483  24.525   3.990
70312W        W42627  10.613   9.232   0.606
70313W        W42628  14.165   4.144  11.196
70314W        W42629  12.161  20.610  13.442
70315W        W42630   4.764  34.133   1.914
70316W        W42631  20.000  16.650   4.573
70317W        W42632  24.018  37.079   3.645
70318W        W42633  28.491  37.288   2.965
70319W        W42634  27.192   4.898  12.932
70320W        W42635   2.961  43.956  12.538
70321W        W42636  14.705   4.423  13.558
70322W        W42637  39.324  15.626   5.182
70323W        W42638  18.688  28.381  12.607
70324W        W42639  36.859  25.836  10.187
70325W        W42640  23.204   3.724  13.632
70326W        W42641  41.542   5.732  11.975
70327W        W42642  19.204  28.867   0.789
70328W        W42643  11.195   4.984  14.979
70329W        W42644  44.812  37.987  10.650
70330W        W42645  18.159   8.435   2.193
70331W        W42646  13.585   1.452   2.858
70332W        W42647  18.211  30.723   5.067
70333W        W42648  20.198  29.467  14.083
70334W        W42649  13.652  14.278  10.654
70335W        W42650  13.111  21.188  12.783
70336W        W42651  35.344  23.112   2.391
70337W        W42652  21.671  19.968   2.274
70338W        W42653  41.003  39.012   4.749
70339W        W42654   7.436   8.490   0.801
70340W        W42655   5.680  34.797  13.949
70341W        W42656   3.982  42.300  13.302
70342W        W42657   1.332  17.719  11.664
70343W        W42658  18.632  27.554   0.636
70344W        W42659  26.581  10.850   4.738
70345W        W42660  13.788   7.183   4.414
70346W        W42661   6.276   7.607   3.354
70347W        W42662  19.543  34.882   2.737
70348W        W42663  42.263  37.220  11.901
70349W        W42664   8.932  42.314  12.327
70350W        W42665  36.425  29.342  14.799
70351W        W42666  19.531  24.336   4.202
70352W        W42667   5.647  17.774  14.423
70353W        W42668  35.124   7.910   0.354
70354W        W42669  42.426  23.584   0.412
70355W        W42670  18.221   3.201  14.462
70356W        W42671  41.889  20.989   1.691
70357W        W42672  14.341  41.089   2.355
70358W        W42673  27.083  24.326   4.451
70359W        W42674  32.147  21.294  12.932
70360W        W42675  10.089  31.531   4.120
70361W        W42676   0.219  30.395   4.333
70362W        W42677  12.374  31.478   3.242
70363W        W42678  44.914  37.561   3.189
70364W        W42679   6.872  25.998   2.992
70365W        W42680   1.550   0.417  12.839
70366W        W42681  44.766  14.231   4.563
70367W        W42682   4.826   6.492   9.894
70368W        W42683  44.128  21.692  10.359
70369W        W42684  43.995   1.826  13.461
70370W        W42685  39.362  22.160   1.010
70371W        W42686  33.518  33.151  14.834
70372W        W42687  36.312  37.338  11.533
70373W        W42688  18.342   3.924  11.080
70374W        W42689   3.260   6.758   0.454
70375W        W42690   6.818  30.773  10.789
70376W        W42691  42.890  35.311   0.838
70377W        W42692   4.795  18.135   3.458
70378W        W42693  20.520  42.457   0.204
70379W        W42694  11.731  24.149   3.751
70380W        W42695  33.978   2.972   4.115
70381W        W42696  16.736  23.089  11.475
70382W        W42697  17.813  29.178  13.480
70383W        W42698  38.632  23.042   3.776
70384W        W42699  16.248  33.299   1.354
70385W        W42700  44.209  16.205  13.930
70386W        W42701   3.835  10.676  12.121
70387W        W42702   2.243  25.486  14.944
70388W        W42703  28.259   2.634   0.994
70389W        W42704  20.120  43.017  13.283
70390W        W42705  38.595  19.977   4.131
70391W        W42706  35.524  22.829   4.312
70392W        W42707   0.626  39.019  14.082
70393W        W42708  15.236   2.981   0.675
70394W        W42709  22.654   6.522   3.979
70395W        W42710  31.654  30.355  12.976
70396W        W42711   2.857  24.080  10.439
70397W        W42712  10.089  18.052   2.688
70398W        W42713  17.812  27.016  13.585
70399W        W42714  16.096  44.280   0.478
70400W        W42715  32.146  37.029  13.230
70401W        W42716  35.125  40.326   2.892
70402W        W42717  29.204   2.589   0.192
70403W        W42718  22.745  30.637   3.436
70404W        W42719  44.785  19.505  13.051
70405W        W42720  33.678  40.875   0.388
70406W        W42721  25.126  15.172   4.619
70407W        W42722  22.180   4.171   2.750
70408W        W42723   4.621  43.347   2.288
70409W        W42724  41.950  25.630   0.131
70410W        W42725  39.592   9.164   4.593
70411W        W42726  37.437  39.600  14.744
70412W        W42727  37.744  43.394  13.392
70413W        W42728  33.362  39.460  13.972
70414W        W42729  14.806  30.892  14.908
70415W        W42730  21.098   3.937  14.378
70416W        W42731   1.458  16.061   2.363
70417W        W42732  34.102  30.807   0.896
70418W        W42733  40.601  29.637  12.581
70419W        W42734  36.852  43.225   2.286
70420W        W42735  36.936  33.119   3.192
70421W        W42736  23.117  37.363   0.667
70422W        W42737  18.526   2.285   2.748
70423W        W42738  17.599  13.517   1.443
70424W        W42739  19.178  25.727  10.936
70425W        W42740   1.504  44.379  14.581
70426W        W42741   1.954  38.768  12.016
70427W        W42742  30.989  44.805   3.892
70428W        W42743  43.927  43.398   4.469
70429W        W42744   0.272   5.917  10.964
70430W        W42745  13.460  28.444  11.469
70431W        W42746  21.209  30.030   0.822
70432W        W42747   1.235  34.533  11.938
70433W        W42748  13.651  27.636   0.807
70434W        W42749  41.628  12.610  13.999
70435W        W42750  18.734  11.186   9.592
70436W        W42751   7.387  31.341  12.904
70437W        W42752  32.351   7.515  11.152
70438W        W42753  20.993  29.590   1.095
70439W        W42754  18.123   0.984  12.797
70440W        W42755  16.157  33.066   3.583
70441W        W42756   2.694  24.732   2.786
70442W        W42757  39.399   4.087  13.381
70443W        W42758   1.726  33.960   2.885
70444W        W42759  40.562   3.764   4.230
70445W        W42760   2.827  21.295  14.869
70446W        W42761  16.228  35.394   0.010
70447W        W42762  40.571  25.791   2.350
70448W        W42763  24.460   7.359  13.891
70449W        W42764  16.186  30.916  12.261
70450W        W42765  22.728  28.643  13.472
70451W        W42766   6.665  11.411  13.195
70452W        W42767   5.878  15.553  12.930
70453W        W42768   8.375   8.939   3.582
70454W        W42769  28.164  43.392   0.399
70455W        W42770  22.533   5.051  10.225
70456W        W42771  20.170  38.907   2.348
70457W        W42772   5.199  44.987   0.244
70458W        W42773  11.057   5.491  12.451
70459W        W42774  41.847  34.970   0.183
70460W        W42775   8.217  40.010  13.592
70461W        W42776  33.158  38.108  11.166
70462W        W42777   1.953  21.366  11.558
70463W        W42778  37.443  22.138  10.490
70464W        W42779   1.096   9.718   4.968
70465W        W42780   8.851  23.067   0.426
70466W        W42781  36.353   3.752   0.761
70467W        W42782  27.421  28.593   3.639
70468W        W42783  33.461  20.067  10.419
70469W        W42784   0.999  36.098   4.627
70470W        W42785  25.556  13.779  12.119
70471W        W42786   8.379  44.067  14.565
70472W        W42787  27.030  10.955   4.494
70473W        W42788  33.925  16.791  12.312
70474W        W42789  20.586  25.166  14.572
70475W        W42790  44.398   0.338  11.255
70476W        W42791  36.338   6.856  13.917
70477W        W42792  36.428  17.683   4.829
70478W        W42793  21.211   6.892  11.226
70479W        W42794  32.526  22.788   1.376
70480W        W42795  31.693   4.149  14.403
70481W        W42796  13.838  37.057   3.598
70482W        W42797  37.392  27.092   4.826
70483W        W42798  18.026  32.389  11.986
70484W        W42799  35.054  39.920  11.590
70485W        W42800  39.188  22.871  11.844
70486W        W42801  42.792  12.113  11.997
70487W        W42802  20.459  36.604   2.437
70488W        W42803  33.489  44.015   2.377
70489W        W42804  28.946  35.238   1.207
70490W        W42805   8.204  19.010   0.491
70491W        W42806  38.576  21.076  10.264
70492W        W42807   8.195  31.062   3.316
70493W        W42808   2.402  21.608  14.268
70494W        W42809   2.692  12.424  10.230
70495W        W42810  28.534  38.668   0.826
70496W        W42811  43.858   3.740  14.957
70497W        W42812  42.552  11.812   2.190
70498W        W42813  42.019  24.688  14.809
70499W        W42814  32.360  32.553  13.007
70500W        W42815  31.167  12.432   3.649
70501W        W42816   1.744  44.810   1.754
70502W        W42817  16.151  25.033   1.635
70503W        W42818  39.558  42.986  13.809
70504W        W42819  37.586  42.333  12.114
70505W        W42820  24.955  31.425  14.619
70506W        W42821  38.884  11.479  12.355
70507W        W42822  18.340  15.595  12.215
70508W        W42823  16.080  22.123  10.116
70509W        W42824  37.336  33.391  10.702
70510W        W42825  14.300  19.022   3.655
70511W        W42826  20.761  13.126   3.309
70512W        W42827  31.226  42.630  12.151
70513W        W42828   9.196  30.695  14.875
70514W        W42829  38.363  14.774  13.497
70515W        W42830   6.349  44.107   4.265
70516W        W42831  10.977  42.879   0.692
70517W        W42832   8.352  17.235  13.064
70518W        W42833  21.736  41.025   1.866
70519W        W42834  44.323  17.662  12.667
70520W        W42835  35.572  28.728  12.024
70521W        W42836  16.188  41.532   0.408
70522W        W42837  34.883  16.972   1.793
70523W        W42838  14.910  11.231  12.964
70524W        W42839  18.635  39.051  10.549
70525W        W42840  43.790   2.834  13.334
70526W        W42841  13.754  44.021  13.395
70527W        W42842  10.071  14.059   3.738
70528W        W42843  32.610  14.978   0.456
70529W        W42844  19.224  10.972  11.577
70530W        W42845  18.326  39.980   1.693
70531W        W42846  41.290   8.730  12.980
70532W        W42847  37.582   1.631   0.102
70533W        W42848  16.011  28.569   0.892
70534W        W42849  29.108  36.469   3.816
70535W        W42850   6.907  36.322   0.745
70536W        W42851  32.257  40.170   2.565
70537W        W42852   1.746   3.524  10.657
70538W        W42853   4.668  36.394  13.546
70539W        W42854  17.254   2.000   1.714
70540W        W42855  15.700  31.645   4.619
70541W        W42856  35.047  26.710  14.837
70542W        W42857   6.665  16.347   4.492
70543W        W42858  13.539   4.996  11.093
70544W        W42859  41.771   5.018  12.538
70545W        W42860  39.567  37.646  14.355
70546W        W42861  16.569  26.027  11.895
70547W        W42862   9.101   3.049  10.641
70548W        W42863  31.094  16.759   4.367
70549W        W42864  17.189   8.599  14.158
70550W        W42865   6.874  36.966   1.879
70551W        W42866   6.215  17.208   3.970
70552W        W42867  15.143  24.661  10.377
70553W        W42868  16.930  17.194   4.005
70554W        W42869  16.057  23.732   0.846
70555W        W42870  14.323  20.147   4.429
70556W        W42871  34.445   6.423   3.233
70557W        W42872  12.242  25.907  13.581
70558W        W42873  10.228  15.309  14.103
70559W        W42874   1.151  18.738   0.843
70560W        W42875  34.005  42.975   5.059
70561W        W42876  29.030  12.446   4.512
70562W        W42877  24.341  30.224  13.870
70563W        W42878  20.171  39.769   0.660
70564W        W42879  20.169   4.156   0.356
70565W        W42880  25.173   5.822   3.576
70566W        W42881   2.015  15.018   3.607
70567W        W42882   7.634   9.415  10.653
70568W        W42883   6.100  40.510   2.139
70569W        W42884  36.507  25.096   1.183
70570W        W42885  36.431   8.008  14.765
70571W        W42886  28.959   2.682   3.424
70572W        W42887   5.882   7.671   4.461
70573W        W42888  35.103  35.876   3.349
70574W        W42889  32.034   5.465  11.604
70575W        W42890  24.587  38.337  11.121
70576W        W42891  13.589  43.841   0.868
70577W        W42892   4.962   7.705   4.148
70578W        W42893  24.679  21.802   2.713
70579W        W42894   4.693   4.682  11.966
70580W        W42895  28.921  17.528  13.816
70581W        W42896   6.133   8.356  11.606
70582W        W42897   2.841  25.284  11.300
70583W        W42898   6.352  23.490  11.435
70584W        W42899  27.536   5.019   1.260
70585W        W42900  14.450   5.772  14.024
70586W        W42901  31.607  39.382   3.752
70587W        W42902  40.714   6.178  14.396
70588W        W42903  24.654  16.122  12.999
70589W        W42904   7.427  32.412  12.201
70590W        W42905  12.618   7.702   0.918
70591W        W42906  43.539  40.083  11.124
70592W        W42907  16.225   3.250  12.880
70593W        W42908  40.744  20.560   1.715
70594W        W42909  17.497  13.794   1.878
70595W        W42910  16.686  25.427   3.673
70596W        W42911  21.601  32.071  12.448
70597W        W42912  18.131  17.350   2.402
70598W        W42913  18.589   5.749   3.629
70599W        W42914  35.336   9.324  11.915
70600W        W42915   7.309  31.909  12.074
70601W        W42916  43.945  12.426   9.800
70602W        W42917  13.302   7.345  10.601
70603W        W42918   2.395  33.509  10.464
70604W        W42919  40.375  15.638   4.160
70605W        W42920   4.905   9.243  11.011
70606W        W42921  13.189  11.867   1.384
70607W        W42922  12.776  20.842  12.963
70608W        W42923  32.545  27.715   0.378
70609W        W42924  43.349  22.748   2.427
70610W        W42925  37.340   1.441  14.365
70611W        W42926  20.966  26.627  11.129
70612W        W42927  44.813  38.565   4.551
70613W        W42928  16.481  17.336  14.120
70614W        W42929  41.049  25.592   4.969
70615W        W42930   4.290   4.581   1.892
70616W        W42931   2.188   4.951  12.310
70617W        W42932  42.305   9.402   0.333
70618W        W42933  34.670  33.035   2.271
70619W        W42934   4.882  40.539   1.222
70620W        W42935   4.661  15.250   2.191
70621W        W42936  20.760  25.862   1.151
70622W        W42937  40.087  23.559   3.061
70623W        W42938  23.013  26.886  14.485
70624W        W42939  34.898  21.778  12.498
70625W        W42940   0.040   8.895   5.010
70626W        W42941  16.179  20.076  12.148
70627W        W42942  34.600  26.181   1.403
70628W        W42943  24.439  28.636   2.383
70629W        W42944  29.191   9.664  12.012
70630W        W42945  28.857  36.505  10.869
70631W        W42946  30.980  12.871  11.640
70632W        W42947  13.268  16.766  12.342
70633W        W42948  22.929  15.472  11.636
70634W        W42949  20.119  10.809   1.340
70635W        W42950  13.250  30.531   2.852
70636W        W42951  33.827  31.908   2.857
70637W        W42952   9.306  25.176   4.235
70638W        W42953  32.634  20.606  14.863
70639W        W42954  34.879  26.043   1.820
70640W        W42955  40.124  43.898  10.727
70641W        W42956  39.170  11.255  11.994
70642W        W42957   6.590  44.993   1.287
70643W        W42958   4.367  12.193   2.441
70644W        W42959  26.089   4.369   3.667
70645W        W42960  26.517  22.729   3.584
70646W        W42961  16.482   9.215  12.308
70647W        W42962  29.016  31.928   3.624
70648W        W42963  23.513  21.811   0.312
70649W        W42964  11.198  30.285  14.504
70650W        W42965   4.219   6.371  12.278
70651W        W42966   9.737  44.342   0.704
70652W        W42967   0.370   6.225   3.747
70653W        W42968  40.258  16.876   0.864
70654W        W42969   4.735  21.710  13.488
70655W        W42970   8.570  42.802   2.290
70656W        W42971  26.585  32.465   3.848
70657W        W42972   4.488   4.232   2.241
70658W        W42973  25.709  18.044   4.177
70659W        W42974  39.862  15.626  14.811
70660W        W42975  22.590   3.199   2.290
70661W        W42976  35.629  30.297   0.021
70662W        W42977  18.185   9.998   2.391
70663W        W42978  31.421  27.920   2.260
70664W        W42979  38.045   5.861   1.689
70665W        W42980   5.790  21.689   1.261
70666W        W42981   2.286   1.780   2.823
70667W        W42982  21.100   5.894   4.938
70668W        W42983  19.112  37.492  12.790
70669W        W42984  18.356  33.996  14.633
70670W        W42985  40.398  13.367   3.365
70671W        W42986  24.695  42.384  11.810
70672W        W42987  15.868   4.823   3.553
70673W        W42988  26.498  33.127   2.631
70674W        W42989  32.570   2.411  11.540
70675W        W42990   5.787   0.381  13.038
70676W        W42991  17.091   0.709   1.696
70677W        W42992  22.470   7.355   4.494
70678W        W42993  12.908  39.022  13.529
70679W        W42994  37.015  41.804  12.608
70680W        W42995  40.356  33.367   3.135
70681W        W42996   4.654  27.070   3.313
70682W        W42997  33.327  39.503   0.230
70683W        W42998   1.226   9.927   2.876
70684W        W42999  20.185  32.018  13.889
70685W        W43000   5.389  38.421  12.013
70686W        W43001  40.785   9.578  14.881
70687W        W43002  22.816  43.435  12.078
70688W        W43003  16.754   2.363  10.782
70689W        W43004  19.655  27.976  12.539
70690W        W43005  27.747  11.658  13.800
70691W        W43006  23.038  27.932  11.554
70692W        W43007  30.672  26.424  12.097
70693W        W43008  11.596  34.159  10.820
70694W        W43009   6.789   0.678   3.203
70695W        W43010  12.330  19.604  12.629
70696W        W43011  36.159   2.716   0.775
70697W        W43012  21.282   2.431  11.708
70698W        W43013  11.106  41.824   2.829
70699W        W43014  27.674  19.977   2.856
70700W        W43015  36.570  16.839   1.089
70701W        W43016   1.544   4.503   3.187
70702W        W43017  14.616   0.273   1.394
70703W        W43018  34.703  23.479  12.570
70704W        W43019  13.713   7.926   1.175
70705W        W43020  44.936  26.133   3.310
70706W        W43021   8.160  33.310   0.057
70707W        W43022   4.416  37.027  12.482
70708W        W43023  44.158  34.925   5.000
70709W        W43024   4.722  17.112  11.858
70710W        W43025  34.585   2.529   1.325
70711W        W43026  28.176   7.772   1.855
70712W        W43027  27.922  22.074  13.941
70713W        W43028   7.712  43.956  13.941
70714W        W43029  27.698  43.502  10.535
70715W        W43030  23.878  32.150   0.722
70716W        W43031  11.840  32.416  12.844
70717W        W43032   0.407  11.774   1.847
70718W        W43033  10.843  20.576   1.355
70719W        W43034  30.749  37.596  11.938
70720W        W43035   0.981  10.273  12.791
70721W        W43036   1.542   2.496  14.856
70722W        W43037  25.593  29.849  14.391
70723W        W43038  36.246   5.377  11.491
70724W        W43039   1.798  21.247   0.825
70725W        W43040  41.933   4.756  10.757
70726W        W43041  40.019  31.128  14.704
70727W        W43042  10.921  30.412  14.942
70728W        W43043   7.626  29.340  12.307
70729W        W43044  38.485  24.132  11.579
70730W        W43045   9.857  37.510  11.821
70731W        W43046  20.220  41.334   3.322
70732W        W43047  40.043  34.543   2.263
70733W        W43048  34.473  23.822   0.549
70734W        W43049  27.646  36.311  13.882
70735W        W43050  43.713  22.752   3.051
70736W        W43051  22.401   5.322  14.738
70737W        W43052  44.698  22.695   0.272
70738W        W43053  17.564  42.397  12.049
70739W        W43054   0.941  19.354  14.549
70740W        W43055  23.447  39.448   2.430
70741W        W43056  24.588  31.638   3.313
70742W        W43057  14.824  15.296  14.837
70743W        W43058  33.385  34.246  14.152
70744W        W43059  43.611  18.813   3.263
70745W        W43060   2.349  36.443  12.064
70746W        W43061  28.198  31.348  11.388
70747W        W43062  44.252   6.945   2.324
70748W        W43063   6.872  15.187  14.951
70749W        W43064  25.775  23.286   0.711
70750W        W43065  15.352  25.045   1.423
70751W        W43066  31.351  18.240   4.686
70752W        W43067  15.679  12.250  14.428
70753W        W43068  37.796  19.881  14.334
70754W        W43069   1.423  38.523   0.814
70755W        W43070  34.590  43.781  10.954
70756W        W43071  26.559  23.082  10.697
70757W        W43072  31.494  42.293  14.319
70758W        W43073   4.374  10.349   1.362
70759W        W43074  30.593  30.754   2.651
70760W        W43075  20.019  41.480   2.863
70761W        W43076  14.185  22.503   2.810
70762W        W43077   7.723   7.221   4.948
70763W        W43078  12.055  18.944   5.109
70764W        W43079  25.924  23.627  12.285
70765W        W43080  43.243  37.893   4.077
70766W        W43081  20.460  18.151   3.807
70767W        W43082  18.424  26.550  13.377
70768W        W43083  43.960  28.447  11.680
70769W        W43084  36.340  28.797   4.854
70770W        W43085  35.898  31.964  11.582
70771W        W43086  30.367  39.841  13.975
70772W        W43087  30.183  32.326   1.867
70773W        W43088   2.827  37.385  12.505
70774W        W43089  37.759  23.839  14.301
70775W        W43090  44.806   9.795   9.594
70776W        W43091  37.925   0.894  11.224
70777W        W43092  11.863   2.933  14.090
70778W        W43093  22.052  37.355  12.413
70779W        W43094  29.469  26.082   4.721
70780W        W43095   5.701  27.875   1.732
70781W        W43096  14.611   2.990   2.322
70782W        W43097   7.272   8.719   1.450
70783W        W43098  36.442   9.286  12.602
70784W        W43099   8.163   6.836  11.604
70785W        W43100  28.448  17.182   1.919
70786W        W43101  23.280  38.959   2.227
70787W        W43102  16.497  31.417  10.093
70788W        W43103  28.024  39.866   1.272
70789W        W43104  15.224  28.058  13.117
70790W        W43105  27.983  33.324   0.012
70791W        W43106  15.417   9.867  14.506
70792W        W43107  38.365  27.161  14.812
70793W        W43108  15.745   9.985   1.326
70794W        W43109   5.137   8.930   1.814
70795W        W43110  15.212  26.720  10.557
70796W        W43111  24.313  15.525   1.240
70797W        W43112  21.270  15.956   3.165
70798W        W43113  42.869  41.328   3.411
70799W        W43114  43.448  24.457   2.109
70800W        W43115   5.516  20.737   0.591
70801W        W43116  20.101  30.699  13.092
70802W        W43117  18.980  20.940   3.379
70803W        W43118  42.470  15.809  10.495
70804W        W43119   6.799  13.840   3.779
70805W        W43120   8.206  16.672  11.928
70806W        W43121   7.441   9.134   1.737
70807W        W43122   5.841  36.825   3.328
70808W        W43123  38.062  18.099  10.326
70809W        W43124   7.244   6.919  11.406
70810W        W43125  30.504  39.507  13.515
70811W        W43126  30.322   1.452   4.074
70812W        W43127  20.736  15.397  12.568
70813W        W43128  21.225  20.248  14.202
70814W        W43129  42.791  32.428   0.973
70815W        W43130  11.263  35.367  14.012
70816W        W43131  40.375  26.417   1.081
70817W        W43132  13.289  27.097   3.960
70818W        W43133  22.783  38.438  14.400
70819W        W43134  36.021  31.249   2.730
70820W        W43135  22.806  31.286  14.529
70821W        W43136  42.314  20.128  13.814
70822W        W43137  39.751  17.578  10.676
70823W        W43138   2.332  24.772   3.818
70824W        W43139  34.331  27.164   2.987
70825W        W43140  22.526  11.664  14.763
70826W        W43141  43.776  35.963   4.207
70827W        W43142  23.588  24.015   4.699
70828W        W43143  38.384   1.333  10.644
70829W        W43144  41.658  19.030   3.253
70830W        W43145  10.371   3.358   2.383
70831W        W43146  30.215  37.755  14.397
70832W        W43147  17.597  25.613   1.727
70833W        W43148  23.006   8.194   1.972
70834W        W43149  41.517  36.617  11.978
70835W        W43150  29.680  23.606  11.877
70836W        W43151  21.313  20.000   1.453
70837W        W43152  15.212   9.673   4.618
70838W        W43153  19.652  24.766  14.295
70839W        W43154   2.019  18.651  14.132
70840W        W43155  26.915  14.282   4.619
70841W        W43156   2.992  35.361   0.292
70842W        W43157   9.599  19.543  14.453
70843W        W43158  36.003   8.887   4.556
70844W        W43159  17.593  42.820  12.994
70845W        W43160  21.601  27.529  10.440
70846W        W43161   1.187  35.021   3.318
70847W        W43162   6.401  44.719  11.545
70848W        W43163  24.919  42.544  12.812
70849W        W43164  40.143  21.044  14.555
70850W        W43165  28.235   3.014  12.972
70851W        W43166   4.136  37.867  11.546
70852W        W43167   4.430  41.889  10.725
70853W        W43168  26.890   8.006  14.398
70854W        W43169  18.152  18.148  14.736
70855W        W43170  41.735   7.781  10.367
70856W        W43171   4.240  18.760   3.618
70857W        W43172  42.038  13.009   2.976
70858W        W43173   5.930  24.426  11.974
70859W        W43174  16.829  21.478   3.398
70860W        W43175   3.580   6.631  11.536
70861W        W43176  19.092  15.109  13.413
70862W        W43177  16.745  25.588  13.359
70863W        W43178   3.885  21.627   4.542
70864W        W43179  19.719  39.944   4.594
70865W        W43180  12.406  37.007   0.989
70866W        W43181  12.651  42.845   0.486
70867W        W43182  17.422  20.797   4.189
70868W        W43183  44.377  28.380   2.284
70869W        W43184  12.216   2.111   3.854
70870W        W43185  12.625   1.427  12.381
70871W        W43186  40.483  43.950   5.027
70872W        W43187   6.257   1.681   2.720
70873W        W43188   6.905  25.801  14.161
70874W        W43189  28.908  18.147   3.412
70875W        W43190  44.986   0.342   0.904
70876W        W43191  21.334   3.409  13.064
70877W        W43192  34.872   2.206   4.472
70878W        W43193  16.864  24.495   1.226
70879W        W43194  13.770  21.991   3.250
70880W        W43195  43.867  22.526   3.527
70881W        W43196   0.941  19.102  12.639
70882W        W43197  20.182  27.725   2.161
70883W        W43198  12.824  36.035   4.364
70884W        W43199  12.873  18.996  13.449
70885W        W43200  38.432  30.961  13.476
70886W        W43201  27.696  22.782   0.246
70887W        W43202  18.165  11.529  12.092
70888W        W43203  12.839  17.571  13.287
70889W        W43204  41.325  37.611  11.853
70890W        W43205  17.429   9.152  12.438
70891W        W43206  42.100   6.974   0.501
70892W        W43207  23.951  38.171   2.758
70893W        W43208  43.444   5.329   1.256
70894W        W43209  13.189  20.108  14.989
70895W        W43210   6.437   5.722   2.088
70896W        W43211  38.023  15.231   0.154
70897W        W43212  15.252   8.875   1.725
70898W        W43213  14.121   4.505   3.328
70899W        W43214  30.177  39.214   4.061
70900W        W43215  17.350  42.529   2.866
70901W        W43216  12.390  34.196   3.851
70902W        W43217  33.178  12.775  13.424
70903W        W43218  12.656  14.723  13.117
70904W        W43219  18.785  31.318  12.470
70905W        W43220  16.948   0.488  13.394
70906W        W43221  34.232  33.657   1.939
70907W        W43222   8.745  41.359  14.915
70908W        W43223  27.401  40.499  13.779
70909W        W43224   1.847  30.226  13.816
70910W        W43225  24.520  21.446  14.509
70911W        W43226  27.491  37.089   3.365
70912W        W43227  32.152  37.057  11.411
70913W        W43228   9.782  14.762  14.054
70914W        W43229  29.571  44.977   4.267
70915W        W43230  24.189   2.896  14.233
70916W        W43231  12.275  16.095   2.739
70917W        W43232  43.812  25.539  14.637
70918W        W43233  25.678   3.877  14.785
70919W        W43234  15.454  14.506   3.275
70920W        W43235  27.221  10.696  14.604
70921W        W43236  29.927   5.927   1.207
70922W        W43237  28.718   2.881  12.900
70923W        W43238  20.233  39.598   3.621
70924W        W43239  21.386  29.560   4.589
70925W        W43240   0.469  44.935   4.357
70926W        W43241  22.361  12.762  12.908
70927W        W43242  10.695   7.793   4.259
70928W        W43243  22.163  32.812  12.051
70929W        W43244  13.240   0.214  11.023
70930W        W43245  42.058  11.858   2.088
70931W        W43246   5.954  28.953  14.904
70932W        W43247  24.193  36.936  13.604
70933W        W43248  43.425   8.384  12.916
70934W        W43249  36.969  35.934  13.572
70935W        W43250   1.160   9.247   2.443
70936W        W43251  31.745   2.849  11.999
70937W        W43252  35.485   1.587  12.195
70938W        W43253  38.882   7.653   4.304
70939W        W43254   4.930  27.103   2.343
70940W        W43255  24.081  27.363   1.351
70941W        W43256   9.923  16.736  10.601
70942W        W43257   2.428  34.587   0.010
70943W        W43258  39.983   1.897  12.066
70944W        W43259  25.035  36.314   1.491
70945W        W43260  38.920  42.986   1.944
70946W        W43261  25.762  19.170   1.785
70947W        W43262  34.813  25.736  11.110
70948W        W43263  38.363  12.450   4.670
70949W        W43264  37.708  34.028   0.333
70950W        W43265   3.826  28.172   2.939
70951W        W43266  10.172  39.549  14.077
70952W        W43267  26.123  22.643  12.900
70953W        W43268  40.627   4.659  14.803
70954W        W43269  15.741   9.881   4.792
70955W        W43270  28.522  25.230  13.877
70956W        W43271  38.557  35.050  12.713
70957W        W43272  18.700  15.086   0.311
70958W        W43273  41.768   3.481   1.292
70959W        W43274  14.045  36.779  13.966
70960W        W43275  37.915  21.265   1.480
70961W        W43276  22.738   3.526   3.677
70962W        W43277   1.323  20.483  14.420
70963W        W43278  28.986   5.744   4.786
70964W        W43279  14.414  39.322   2.749
70965W        W43280  28.578  32.237  12.372
70966W        W43281   5.187  16.086   2.660
70967W        W43282  20.532   6.686   0.789
70968W        W43283   9.195  24.684   4.121
70969W        W43284  26.158  40.307  13.146
70970W        W43285   0.270  19.641   1.187
70971W        W43286   9.372   4.788   0.340
70972W        W43287  30.720  21.029  12.953
70973W        W43288  18.849  40.265  11.596
70974W        W43289  13.470  11.268   3.799
70975W        W43290   1.738   4.294  11.756
70976W        W43291  20.736  42.949   2.906
70977W        W43292  27.611   1.656  12.685
70978W        W43293  27.917  44.658  11.181
70979W        W43294   1.388  33.502   1.556
70980W        W43295  26.529  20.491   2.261
70981W        W43296  16.828  44.112  10.715
70982W        W43297   3.670  40.756   4.713
70983W        W43298   3.121   5.188  12.438
70984W        W43299  14.211  25.691   1.085
70985W        W43300  28.669   1.704  12.105
70986W        W43301  23.240  18.749  13.748
70987W        W43302  38.878  32.199   3.628
70988W        W43303  17.516  41.809   4.836
70989W        W43304  36.066   8.728   0.473
70990W        W43305  42.983  35.484  14.351
70991W        W43306  10.350   9.588  13.992
70992W        W43307  36.343   3.316  11.636
70993W        W43308   3.123   7.460   1.904
70994W        W43309  44.923  22.188  12.840
70995W        W43310   2.359  21.109   3.779
70996W        W43311  27.008  33.046   2.167
70997W        W43312   9.903  30.383   4.291
70998W        W43313  30.878  22.117   3.193
70999W        W43314  41.536   1.214   2.607
71000W        W43315   1.077   3.927   0.365
71001W        W43316   3.435  37.777   3.384
71002W        W43317  11.332   3.857  14.262
71003W        W43318  38.991  21.091  13.914
71004W        W43319  31.567  42.610  12.978
71005W        W43320   4.622   0.099  10.485
71006W        W43321   4.431  15.255  14.699
71007W        W43322  24.922  27.483  13.977
71008W        W43323  18.693  12.082   4.155
71009W        W43324  17.622  26.189  13.129
71010W        W43325   9.412   2.345  14.285
71011W        W43326  31.990  18.019   3.146
71012W        W43327   8.292   1.031   3.303
71013W        W43328  32.048  30.661   2.514
71014W        W43329   6.859  10.152  10.049
71015W        W43330  28.765  35.537  13.341
71016W        W43331  16.670  22.679  10.592
71017W        W43332  26.480  40.178  13.549
71018W        W43333  14.579  20.914   2.134
71019W        W43334  16.771  27.014   1.748
71020W        W43335  31.128  16.675  13.345
71021W        W43336  17.143  35.649   4.481
71022W        W43337  16.300   3.836   0.147
71023W        W43338  30.940  41.354   4.561
71024W        W43339  18.964  18.859   1.723
71025W        W43340  34.700  31.061   1.686
71026W        W43341  42.008   7.934   3.024
71027W        W43342  32.708  10.144  14.411
71028W        W43343  11.380  13.321   1.793
71029W        W43344   1.245  14.428   3.693
71030W        W43345  10.748  14.127  13.794
71031W        W43346   8.462   3.353  12.394
71032W        W43347  20.987  41.374   0.919
71033W        W43348   6.456  43.988  12.162
71034W        W43349  24.959  30.492  10.871
71035W        W43350  42.473  21.585  14.846
71036W        W43351   9.318   9.178  10.748
71037W        W43352   6.928  29.615   0.712
71038W        W43353  23.983   7.911   3.775
71039W        W43354   9.671  26.202   3.211
71040W        W43355  32.705  21.360  13.355
71041W        W43356   8.745  19.149  11.409
71042W        W43357  36.980  11.337  11.439
71043W        W43358  13.423  24.057   3.721
71044W        W43359  43.864  16.304   1.481
71045W        W43360  40.830  27.725  11.607
71046W        W43361  28.872  43.677  11.084
71047W        W43362   3.789  13.223  14.961
71048W        W43363   6.405  35.642   9.927
71049W        W43364  29.508  14.885   2.417
71050W        W43365  40.755  16.372   1.394
71051W        W43366  27.740   2.251  13.484
71052W        W43367  12.281   8.371   2.245
71053W        W43368  40.274  25.527   0.088
71054W        W43369  21.183  44.151  13.415
71055W        W43370  33.290  39.994   1.376
71056W        W43371  18.148   0.462  12.739
71057W        W43372  28.138  39.635  12.316
71058W        W43373  25.704  40.363  11.506
71059W        W43374  25.597  42.102  11.724
71060W        W43375  36.143   0.749  11.614
71061W        W43376  23.012  43.401  12.598
71062W        W43377   1.042   8.529   0.360
71063W        W43378  23.397  29.802  13.100
71064W        W43379  40.007  11.679  14.175
71065W        W43380  37.370  30.985  14.432
71066W        W43381  20.657  41.490   2.336
71067W        W43382  20.587  17.130   2.686
71068W        W43383  34.787  14.820   0.089
71069W        W43384  44.785   6.720  13.842
71070W        W43385   4.463  17.763   2.282
71071W        W43386  38.994  38.262   1.233
71072W        W43387  30.720   9.990   4.909
71073W        W43388   8.892   5.340  14.733
71074W        W43389  23.945  10.248   9.799
71075W        W43390  23.688   1.958  10.758
71076W        W43391  24.188  14.332   4.598
71077W        W43392  44.677  15.784   1.895
71078W        W43393  17.719  12.247   3.691
71079W        W43394  34.453  43.184   4.337
71080W        W43395  37.525   3.213  14.453
71081W        W43396   6.193   7.456  13.090
71082W        W43397  35.410   9.214   3.969
71083W        W43398  35.956   0.414   4.244
71084W        W43399  23.431  21.859   1.167
71085W        W43400  28.947  31.968   4.533
71086W        W43401  12.392  20.193   1.220
71087W        W43402  10.307  21.186  11.056
71088W        W43403  30.670  26.022   0.039
71089W        W43404  39.782  19.718  11.258
71090W        W43405  32.079  24.276  10.613
71091W        W43406   0.503   7.294   9.948
71092W        W43407  29.679   4.682  11.498
71093W        W43408  17.862   4.255  13.251
71094W        W43409  18.165   8.750  10.521
71095W        W43410  19.545  42.688   1.306
71096W        W43411  38.086   3.680  14.731
71097W        W43412  12.480  32.905   2.188
71098W        W43413  35.173  37.429  12.913
71099W        W43414   3.674  18.122  12.916
71100W        W43415   8.151  31.654  12.407
71101W        W43416  41.550  18.899   0.826
71102W        W43417  27.918   3.454   2.918
71103W        W43418  13.906  26.605   0.804
71104W        W43419  22.960  36.203   1.451
71105W        W43420  33.802   3.850   0.559
71106W        W43421   0.325   2.698  10.821
71107W        W43422  31.138   5.397   3.134
71108W        W43423  38.974   5.774  10.599
71109W        W43424  27.116  24.577   3.591
71110W        W43425  20.058  24.076  14.674
71111W        W43426  31.889  15.224  14.506
71112W        W43427  42.790  35.440   3.744
71113W        W43428  22.116  36.949   0.491
71114W        W43429  27.049  34.348  11.161
71115W        W43430  15.345  44.681   4.150
71116W        W43431  24.143   7.894  12.302
71117W        W43432  19.715  37.053   3.122
71118W        W43433  22.060  19.240   3.614
71119W        W43434  26.677  13.103   3.571
71120W        W43435  18.654   8.874   1.412
71121W        W43436  10.275  27.190   2.557
71122W        W43437   4.475  30.419   1.636
71123W        W43438   9.939  19.737  14.797
71124W        W43439  24.276   9.187  13.544
71125W        W43440  29.211   4.884  13.378
71126W        W43441  32.155  26.670  14.245
71127W        W43442   5.929  41.506  14.270
71128W        W43443   4.080   8.656  11.296
71129W        W43444   5.793  25.445   0.782
71130W        W43445  27.096   2.701  12.025
71131W        W43446  34.979  39.373   1.961
71132W        W43447  25.828   6.254   1.224
71133W        W43448  34.672  19.037  12.579
71134W        W43449  21.473  32.411   4.578
71135W        W43450  24.399   0.268  11.503
71136W        W43451  40.350  39.106   2.367
71137W        W43452  37.159   8.246   4.717
71138W        W43453  25.628  37.765   2.350
71139W        W43454  14.100  41.863   4.973
71140W        W43455  35.866   7.498   2.500
71141W        W43456  22.605  22.847   0.276
71142W        W43457   8.572  33.930  12.852
71143W        W43458  16.618  39.510  11.676
71144W        W43459  20.041   6.995  11.497
71145W        W43460  41.503  42.467   4.640
71146W        W43461  20.987  22.631   1.430
71147W        W43462  41.958  44.844  13.235
71148W        W43463   4.128  27.050  14.881
71149W        W43464  16.617   1.922  13.840
71150W        W43465  33.148  32.361   0.216
71151W        W43466  12.872  27.750   1.148
71152W        W43467  21.940  42.755   1.851
71153W        W43468  31.464  24.769  14.050
71154W        W43469  28.260  20.821   1.473
71155W        W43470  39.858  41.806  11.510
71156W        W43471  27.130   1.327  14.819
71157W        W43472  39.016  23.556   5.059
71158W        W43473  16.013  42.718   1.821
71159W        W43474  38.606  29.642   4.408
71160W        W43475  40.004  19.274  12.687
71161W        W43476  36.841   2.705  14.525
71162W        W43477  42.285  23.934   2.639
71163W        W43478  22.764  11.288  12.004
71164W        W43479   2.450   8.956   1.453
71165W        W43480  30.054  29.112  13.973
71166W        W43481  12.799  43.497   0.981
71167W        W43482  35.901  36.112   0.913
71168W        W43483  35.214  29.165   1.041
71169W        W43484   0.406  23.689  13.073
71170W        W43485  37.079  11.800  11.115
71171W        W43486   0.882  31.019   1.284
71172W        W43487  22.748  10.814  13.938
71173W        W43488  38.466  38.594   3.107
71174W        W43489  24.341   8.066   0.378
71175W        W43490   2.810  34.921  13.147
71176W        W43491  14.115  15.380   1.402
71177W        W43492  15.628  37.001  14.756
71178W        W43493  37.663  41.509  14.556
71179W        W43494  29.232  13.205   0.412
71180W        W43495  15.670  24.592   2.075
71181W        W43496  21.645  29.449   1.868
71182W        W43497  29.985  20.891   2.322
71183W        W43498  24.881  25.152  11.044
71184W        W43499  43.987   9.411   2.312
71185W        W43500  41.034  23.455   0.728
71186W        W43501  41.775  10.655  13.015
71187W        W43502  43.537  15.570   1.597
71188W        W43503   3.593  39.542   2.062
71189W        W43504   8.172  29.417   1.790
71190W        W43505  31.438  39.325  14.346
71191W        W43506  25.194   2.129  11.588
71192W        W43507  39.557  26.093   0.335
71193W        W43508  31.425  36.672   0.921
71194W        W43509   6.182  11.894   1.764
71195W        W43510  40.860   5.833   4.681
71196W        W43511  33.992  17.255   4.512
71197W        W43512  39.557  22.550  14.805
71198W        W43513   1.939  24.330   2.531
71199W        W43514  17.946   7.644   1.426
71200W        W43515  30.685  14.224   3.218
71201W        W43516  15.684  19.374  13.013
71202W        W43517  41.350  26.165  12.224
71203W        W43518   2.928  28.105  12.061
71204W        W43519   0.341  17.102  11.424
71205W        W43520   3.997  42.850   4.266
71206W        W43521  34.100  22.720   4.839
71207W        W43522  38.740  12.845  12.810
71208W        W43523   1.741   3.796  13.296
71209W        W43524  38.098   7.757   2.926
71210W        W43525  32.174  44.734   3.078
71211W        W43526   5.312  33.338   1.895
71212W        W43527  29.986  14.517  11.686
71213W        W43528  33.990  32.383   1.865
71214W        W43529   2.504  44.190  12.544
71215W        W43530  26.678  10.637   0.267
71216W        W43531  36.186  30.550  10.550
71217W        W43532  24.586   4.750  12.438
71218W        W43533  36.333   5.580  12.041
71219W        W43534   2.421   5.926   2.718
71220W        W43535  41.907  42.995   0.618
71221W        W43536  23.742  12.659   2.755
71222W        W43537  37.475  25.668  13.990
71223W        W43538  42.236  11.866   4.413
71224W        W43539   4.210  36.527   3.403
71225W        W43540   1.478  38.016   0.837
71226W        W43541   8.236  10.348   1.832
71227W        W43542  27.368  12.591  14.034
71228W        W43543   6.998  43.866   2.141
71229W        W43544  34.951  42.254  12.935
71230W        W43545  16.535  22.573   1.318
71231W        W43546  34.623  21.232   2.687
71232W        W43547   7.540  35.836   5.067
71233W        W43548  39.063  39.083   4.607
71234W        W43549   5.975  42.439  13.475
71235W        W43550   3.335  43.042   4.737
71236W        W43551  32.942  20.353   2.872
71237W        W43552  12.231  32.939  12.488
71238W        W43553  28.710  26.609  12.519
71239W        W43554  15.243  18.099   4.951
71240W        W43555   9.650  13.324   2.824
71241W        W43556  19.650   0.947   0.148
71242W        W43557  38.765   0.044   4.114
71243W        W43558  18.387  39.133  11.131
71244W        W43559  21.727  21.919   4.244
71245W        W43560  21.934  42.314   3.135
71246W        W43561  38.557  13.244   1.253
71247W        W43562  10.723   6.901   4.324
71248W        W43563  34.867  30.612   0.224
71249W        W43564   8.916   0.755  10.376
71250W        W43565   8.995  20.425  11.521
71251W        W43566  24.538   1.354   0.775
71252W        W43567  19.025  22.819   2.759
71253W        W43568  37.272  33.006   2.167
71254W        W43569  29.623  19.787  12.133
71255W        W43570  41.803  37.935   0.209
71256W        W43571  29.275   6.845   2.339
71257W        W43572   4.686  19.125   1.653
71258W        W43573  44.067  30.125  11.219
71259W        W43574   4.209  29.511  14.031
71260W        W43575  25.797   3.576  13.605
71261W        W43576   5.932  35.382  11.625
71262W        W43577  37.171   0.050  14.452
71263W        W43578  14.758   3.063  12.794
71264W        W43579   7.402  37.843  10.755
71265W        W43580   3.927  24.578   2.260
71266W        W43581  15.229  18.546  10.651
71267W        W43582   6.841  24.164  12.353
71268W        W43583  38.571   8.587  11.835
71269W        W43584  24.598  37.639   4.248
71270W        W43585   1.470  35.814  13.690
71271W        W43586   8.898  22.211   4.120
71272W        W43587   1.746  30.964  11.913
71273W        W43588  35.180   4.382   2.238
71274W        W43589  44.798  23.524   3.624
71275W        W43590  37.015  44.514   9.909
71276W        W43591  42.766   7.477   2.765
71277W        W43592  30.525   8.136   3.241
71278W        W43593   9.598  16.342  13.023
71279W        W43594   9.311  23.763  12.426
71280W        W43595  40.328  28.207  13.774
71281W        W43596  39.533   1.172  11.541
71282W        W43597  30.229  24.569  10.957
71283W        W43598  41.739  11.786   4.543
71284W        W43599  12.274   1.203  11.991
71285W        W43600  12.511  24.014  12.189
71286W        W43601  25.441  40.673   0.850
71287W        W43602  17.154  26.239   1.333
71288W        W43603  18.438   0.834   3.877
71289W        W43604  28.175  11.111   2.788
71290W        W43605  39.246  14.913   1.385
71291W        W43606  37.013  27.371   3.997
71292W        W43607   3.562  13.122   4.016
71293W        W43608  23.930  26.536  12.021
71294W        W43609  26.196   3.961   0.912
71295W        W43610  13.424  21.221  14.802
71296W        W43611  42.700  25.500  11.071
71297W        W43612  20.588  22.268   1.362
71298W        W43613  27.342  43.797   2.311
71299W        W43614  41.214  17.280   1.204
71300W        W43615  17.150  30.379   0.963
71301W        W43616  26.486  21.007   2.306
71302W        W43617  30.508  40.614   1.320
71303W        W43618  32.002  34.375   2.611
71304W        W43619   4.414  42.033   3.804
71305W        W43620  20.605  40.324   4.835
71306W        W43621  16.436  27.706  10.182
71307W        W43622  37.804  16.511   2.365
71308W        W43623  43.867  37.732  12.436
71309W        W43624  43.895  12.631   0.325
71310W        W43625  44.334  31.093   2.998
71311W        W43626  40.414  21.636   3.855
71312W        W43627   2.930  29.070   2.346
71313W        W43628  30.620  14.206   0.841
71314W        W43629   0.479   1.874   0.233
71315W        W43630  24.947  14.051   0.337
71316W        W43631  26.946  16.137   1.634
71317W        W43632  17.525  38.870   4.965
71318W        W43633   8.690  13.303   3.160
71319W        W43634  29.565  14.046  11.097
71320W        W43635  10.649  30.080  13.597
71321W        W43636  32.799  11.248   4.124
71322W        W43637  37.512  21.482   0.765
71323W        W43638  16.651  38.918  10.469
71324W        W43639  15.534  35.911  11.537
71325W        W43640  29.129   4.371  12.470
71326W        W43641   0.885  11.087  11.118
71327W        W43642  23.944  13.271   5.129
71328W        W43643  10.816  44.416  13.440
71329W        W43644  43.922  32.195   0.752
71330W        W43645   7.328  18.707  12.653
71331W        W43646  12.667  23.355  11.154
71332W        W43647  34.440  33.538   3.907
71333W        W43648   9.830  10.953  11.856
71334W        W43649  24.036  23.295  11.992
71335W        W43650  39.095  23.407   4.566
71336W        W43651  43.736  42.097  13.115
71337W        W43652  28.639  31.130  12.461
71338W        W43653  37.605  14.814  11.461
71339W        W43654  12.292   3.094  12.916
71340W        W43655   5.671  23.098  12.142
71341W        W43656  25.528   6.726   2.465
71342W        W43657   7.461   3.168  12.153
71343W        W43658  14.205  26.492   0.395
71344W        W43659   3.321  27.857   3.969
71345W        W43660   7.826   2.440   1.865
71346W        W43661  33.990  31.756  11.624
71347W        W43662  29.059  35.575   0.181
71348W        W43663   7.415  16.617  14.724
71349W        W43664  13.179  12.734  10.286
71350W        W43665  33.382   3.866  13.770
71351W        W43666  30.019  40.592   1.008
71352W        W43667  37.396  37.704  10.230
71353W        W43668  11.750  15.116  12.208
71354W        W43669  33.855  22.427   5.167
71355W        W43670  27.020  24.291   1.493
71356W        W43671   1.518  15.073  13.616
71357W        W43672  10.798  31.704  14.314
71358W        W43673   3.284  14.083   4.649
71359W        W43674  13.936   6.531  14.253
71360W        W43675  21.686   5.310  12.460
71361W        W43676  30.205  23.736   2.166
71362W        W43677  34.115  32.125   0.449
71363W        W43678  10.114   2.806   4.502
71364W        W43679  25.087   6.082  10.172
71365W        W43680  39.800  17.318  12.449
71366W        W43681  39.009   0.791   0.430
71367W        W43682  12.219  38.436  10.825
71368W        W43683  19.095   8.655  14.298
71369W        W43684  39.652  18.203  13.424
71370W        W43685  17.173  32.072  10.084
71371W        W43686  27.984  35.154  14.727
71372W        W43687  24.297  44.482   3.783
71373W        W43688  14.671  27.033  11.598
71374W        W43689   9.765  25.942  10.799
71375W        W43690  41.470  42.851  13.891
71376W        W43691  29.163  19.486  13.458
71377W        W43692   9.151  31.982   0.240
71378W        W43693   7.343  40.335  10.493
71379W        W43694  13.323  41.499   2.280
71380W        W43695  28.396  35.925   2.855
71381W        W43696   7.212  22.505  11.581
71382W        W43697  33.635  22.332   2.793
71383W        W43698  21.130  42.793   9.965
71384W        W43699  29.525  22.431   3.632
71385W        W43700  17.291  40.753   2.357
71386W        W43701   0.297  26.748  12.468
71387W        W43702   2.771  35.483   4.951
71388W        W43703  28.836  42.060   1.329
71389W        W43704  25.586  13.459   1.810
71390W        W43705   4.431  35.618  10.655
71391W        W43706  42.779  11.078   1.794
71392W        W43707  20.507  17.641  12.028
71393W        W43708  16.522   8.082   1.902
71394W        W43709  23.751  35.087   1.930
71395W        W43710   3.945  11.415  13.983
71396W        W43711  22.121  34.940   2.178
71397W        W43712  27.381  26.923   3.714
71398W        W43713   0.570  15.958  13.043
71399W        W43714  43.016  28.149  12.828
71400W        W43715  37.096  23.738   4.062
71401W        W43716  32.602  36.041   3.173
71402W        W43717  20.578  36.972   1.193
71403W        W43718  41.867  43.789  14.852
71404W        W43719  39.999  37.779  14.096
71405W        W43720  14.944  12.363  13.948
71406W        W43721   5.359  21.293  12.990
71407W        W43722  22.675  33.284  14.948
71408W        W43723  44.752  38.482   3.674
71409W        W43724  38.988  18.709  11.015
71410W        W43725   5.884  44.093  11.840
71411W        W43726  29.095  34.104   3.229
71412W        W43727  34.912  30.254  10.985
71413W        W43728  41.934  31.034   4.302
71414W        W43729  27.227  35.865   3.699
71415W        W43730  23.537  43.389   4.196
71416W        W43731  43.938  21.748   0.354
71417W        W43732  19.593   7.759  10.779
71418W        W43733  37.455   8.389   2.993
71419W        W43734  30.573  14.090   1.760
71420W        W43735  25.252  13.257  10.714
71421W        W43736  11.199  17.882  12.032
71422W        W43737  16.122  37.623   3.820
71423W        W43738  11.465  34.548  13.537
71424W        W43739  31.003  15.009  14.521
71425W        W43740  44.386  26.289  10.952
71426W        W43741  10.903  31.207   1.544
71427W        W43742  33.137   5.009   2.783
71428W        W43743   4.632  37.332   0.756
71429W        W43744  12.778  19.789  12.097
71430W        W43745  36.635   0.814  11.509
71431W        W43746  11.634  39.036   4.046
71432W        W43747  34.713  30.072  11.428
71433W        W43748  39.743  36.465   1.800
71434W        W43749  24.016  12.619  11.907
71435W        W43750  43.504  42.219  14.885
71436W        W43751  39.208  12.890   2.278
71437W        W43752   7.806  43.914  12.066
71438W        W43753  29.596  42.605   0.319
71439W        W43754   4.767   1.689   0.381
71440W        W43755  19.951  11.017  10.621
71441W        W43756  24.907  19.340  11.695
71442W        W43757  18.156  27.645   1.302
71443W        W43758  27.903   8.276   0.926
71444W        W43759  33.426   3.081   9.927
71445W        W43760  20.805   8.193   3.833
71446W        W43761  10.472  16.347   9.830
71447W        W43762  38.556   1.477   0.247
71448W        W43763   9.367  18.131   1.210
71449W        W43764  40.719  24.782   4.711
71450W        W43765  20.189   6.942   0.456
71451W        W43766   1.744   5.797   2.162
71452W        W43767  29.080   9.167   4.547
71453W        W43768  32.257  21.140  13.890
71454W        W43769  34.595  21.156  13.899
71455W        W43770   1.924  16.643  12.867
71456W        W43771  34.429  30.651   1.845
71457W        W43772  37.525   7.417  10.668
71458W        W43773  42.010   4.759   2.349
71459W        W43774  26.607  23.239  13.017
71460W        W43775  15.204  25.023  11.181
71461W        W43776  10.657   3.242   1.931
71462W        W43777  24.989   2.791  12.139
71463W        W43778  32.272  37.032   3.282
71464W        W43779  27.524  38.079  13.930
71465W        W43780  18.983  10.465  13.476
71466W        W43781  41.400  29.064   2.213
71467W        W43782   5.334  38.700  14.451
71468W        W43783  37.011   1.365  12.166
71469W        W43784  14.404  38.934  11.911
71470W        W43785  28.923  34.917  12.897
71471W        W43786  27.925  40.489   3.714
71472W        W43787   4.323  37.392   3.740
71473W        W43788  20.473   9.303   0.509
71474W        W43789  26.737  22.310  10.229
71475W        W43790  11.983  22.115  14.410
71476W        W43791  36.023   5.594  14.003
71477W        W43792   6.239  20.010  11.142
71478W        W43793  41.501  40.983  14.789
71479W        W43794  44.451  22.178   2.797
71480W        W43795   2.776  10.274   4.993
71481W        W43796  42.822  32.610   2.332
71482W        W43797  14.265   0.755  14.520
71483W        W43798  33.059  35.145  14.437
71484W        W43799   6.433   2.643  14.390
71485W        W43800  41.311  16.810   1.840
71486W        W43801  19.036  29.606  13.017
71487W        W43802  35.992   1.291   2.800
71488W        W43803   6.446  28.171  13.746
71489W        W43804   3.803  37.549   3.739
71490W        W43805  34.575  22.887   1.232
71491W        W43806  16.239  11.227  14.519
71492W        W43807  27.682  42.290   3.207
71493W        W43808  44.888  18.327   3.851
71494W        W43809  21.673   9.113   2.824
71495W        W43810  16.202  27.225   0.957
71496W        W43811  11.879  14.718  12.528
71497W        W43812  11.139  20.325   3.223
71498W        W43813   6.363  44.340  11.185
71499W        W43814  34.624  11.467  14.457
71500W        W43815  43.335  32.144  10.649
71501W        W43816   3.953   4.690  11.185
71502W        W43817  40.277  14.242   2.903
71503W        W43818   1.325   1.287  12.482
71504W        W43819   8.872  33.484  12.922
71505W        W43820   1.915  10.523   2.774
71506W        W43821  13.704  12.293   2.412
71507W        W43822  28.332   7.824  11.471
71508W        W43823   3.550  22.228  12.063
71509W        W43824  15.282  11.284   3.779
71510W        W43825   1.861  21.280   1.338
71511W        W43826  24.731   2.907  13.976
71512W        W43827   7.905  37.934  10.676
71513W        W43828  19.685   7.251   3.274
71514W        W43829  23.888  16.075  12.688
71515W        W43830  38.019  40.869   2.084
71516W        W43831  34.381   4.378  10.950
71517W        W43832  34.639  39.713  13.326
71518W        W43833  22.719   0.750  13.072
71519W        W43834  25.116  18.219  13.956
71520W        W43835   5.311  32.836  10.623
71521W        W43836  44.787  18.885  12.483
71522W        W43837  10.195  34.870  10.292
71523W        W43838  36.147  32.871  12.944
71524W        W43839  31.953  28.088  14.393
71525W        W43840  25.765   4.767   1.857
71526W        W43841  27.098  15.056   1.377
71527W        W43842  16.716  30.252   0.451
71528W        W43843  23.884  14.713  11.893
71529W        W43844  41.373  39.956   2.560
71530W        W43845  23.229   9.907   2.492
71531W        W43846  14.794  40.527   0.648
71532W        W43847  34.430   4.435  11.932
71533W        W43848  30.620   2.488  14.502
71534W        W43849  21.821  20.168   2.749
71535W        W43850   6.472  11.832  12.915
71536W        W43851  14.534  11.687  10.779
71537W        W43852  35.993   0.846  14.856
71538W        W43853  33.675  10.509   0.267
71539W        W43854  19.061   7.298   3.978
71540W        W43855   1.492  26.769  13.895
71541W        W43856  39.343  17.596  12.006
71542W        W43857  23.138  23.994   3.693
71543W        W43858  29.824  31.910   1.864
71544W        W43859  35.351   6.650  14.936
71545W        W43860  38.273  31.216   4.261
71546W        W43861  41.078  12.785   3.255
71547W        W43862  19.283  28.103  12.931
71548W        W43863  17.594  20.573  11.416
71549W        W43864  23.605  19.745  11.104
71550W        W43865  22.939  28.692  13.951
71551W        W43866  37.299   0.782   0.068
71552W        W43867  14.870   3.721   1.968
71553W        W43868  32.398  32.484   3.141
71554W        W43869  43.870  15.587   4.568
71555W        W43870   9.889  36.118  12.447
71556W        W43871  19.596  19.743   3.781
71557W        W43872  25.649  40.855   2.216
71558W        W43873  15.241  22.973   0.985
71559W        W43874  34.957  40.682   3.705
71560W        W43875  33.397   3.147  14.380
71561W        W43876  12.913   9.362  11.569
71562W        W43877  18.170  18.791   2.803
71563W        W43878  29.623  22.644   1.262
71564W        W43879  29.882  35.907  13.172
71565W        W43880  29.288  37.883  13.426
71566W        W43881  18.271   8.273  10.691
71567W        W43882  18.193   2.443   4.541
71568W        W43883  17.995   3.044   0.417
71569W        W43884  32.414  26.337   3.829
71570W        W43885   6.321  42.980   4.260
71571W        W43886  26.058  26.668  11.004
71572W        W43887  22.257  25.069   4.075
71573W        W43888  44.648  42.552  12.937
71574W        W43889  38.749  19.460  12.043
71575W        W43890  38.578  38.261  14.054
71576W        W43891  32.223  19.113  14.271
71577W        W43892   7.087  38.548   4.579
71578W        W43893  14.933   2.889   4.828
71579W        W43894   7.546  38.283  13.589
71580W        W43895  30.865  18.582   1.371
71581W        W43896   4.809  35.102   2.726
71582W        W43897  39.842   4.964   4.663
71583W        W43898  10.792  28.615   0.391
71584W        W43899  44.000  11.180   4.780
71585W        W43900  23.703  11.601  12.890
71586W        W43901  14.911  28.835   9.570
71587W        W43902  43.811  15.418   1.176
71588W        W43903  11.980   4.111   2.756
71589W        W43904  38.796  37.972   2.320
71590W        W43905  41.523  15.191  14.914
71591W        W43906  26.427   4.686  12.462
71592W        W43907  11.637  34.971   4.016
71593W        W43908  32.451  10.763  11.885
71594W        W43909  36.989  37.816  11.399
71595W        W43910  11.168  24.625   0.320
71596W        W43911  18.197  13.369  12.454
71597W        W43912  25.998  28.171   1.859
71598W        W43913  23.612  26.029   3.498
71599W        W43914  28.541  33.436  13.386
71600W        W43915  17.205  40.949   2.830
71601W        W43916  10.918  24.284  11.060
71602W        W43917   7.369  32.063  13.480
71603W        W43918  43.352   5.172  11.170
71604W        W43919   3.562  15.066   4.842
71605W        W43920  25.516  44.833   3.865
71606W        W43921  24.199  30.703   1.971
71607W        W43922  31.707  11.094   2.852
71608W        W43923  13.150  28.654  13.323
71609W        W43924  11.359  20.522  13.155
71610W        W43925   9.954  32.071  12.624
71611W        W43926   6.812  41.677  10.633
71612W        W43927  26.612   7.400   4.110
71613W        W43928   4.441  37.568  12.351
71614W        W43929  22.739  29.470  11.625
71615W        W43930  10.087  27.706   4.509
71616W        W43931   3.382  16.194   4.105
71617W        W43932  11.140  33.647   3.132
71618W        W43933   8.096  39.854  12.723
71619W        W43934  41.257   9.894   2.916
71620W        W43935   3.495  21.238  13.786
71621W        W43936  27.965  10.819  11.111
71622W        W43937  20.511   9.161   2.323
71623W        W43938  33.032  22.784  10.971
71624W        W43939  42.560  42.423   3.802
71625W        W43940  16.674   4.296   2.808
71626W        W43941  36.402  14.341  13.132
71627W        W43942  31.884  36.218   0.215
71628W        W43943  16.416  19.633  11.401
71629W        W43944  42.169  17.794  11.214
71630W        W43945  30.905  40.298   1.811
71631W        W43946  44.672  24.244  11.139
71632W        W43947  36.640   5.385   2.111
71633W        W43948  30.928  30.542   5.073
71634W        W43949   7.423  20.407   1.204
71635W        W43950   1.728  19.385  12.473
71636W        W43951   8.186   2.325  13.844
71637W        W43952   5.908   9.873   2.978
71638W        W43953  35.884  34.042  10.418
71639W        W43954  20.539   4.534  14.356
71640W        W43955  21.717  28.065  11.064
71641W        W43956  19.510  21.743  13.554
71642W        W43957  34.109  39.989   0.164
71643W        W43958  25.340  28.506  11.071
71644W        W43959  23.645   8.207  12.476
71645W        W43960   3.978  29.594  10.607
71646W        W43961  40.058  26.191   3.550
71647W        W43962  38.961  17.215  12.095
71648W        W43963  17.682   4.882   4.739
71649W        W43964  39.236  39.890   3.364
71650W        W43965  15.743   5.933   3.930
71651W        W43966   8.069  13.312  13.770
71652W        W43967  40.994   5.367   4.953
71653W        W43968  33.980   9.498   2.000
71654W        W43969  15.103   6.596   2.462
71655W        W43970  10.762   0.853  13.383
71656W        W43971  10.626  15.087   2.890
71657W        W43972  43.101  39.417   3.661
71658W        W43973   3.714   7.657  12.425
71659W        W43974  25.180  28.978  14.748
71660W        W43975  43.788   7.736   3.692
71661W        W43976  31.715   0.498   3.874
71662W        W43977  42.259  21.726   0.822
71663W        W43978  14.354   2.663   3.641
71664W        W43979  30.530  34.962   2.653
71665W        W43980  39.399  41.352  14.540
71666W        W43981  17.122  23.119  13.235
71667W        W43982  39.956  18.597  12.380
71668W        W43983  28.895  26.552   0.246
71669W        W43984  32.079  29.701  13.861
71670W        W43985   8.122  31.481   0.681
71671W        W43986   5.455  21.174  10.672
71672W        W43987  31.080   6.900   1.176
71673W        W43988  12.740  44.060   4.166
71674W        W43989  44.791  34.669   3.925
71675W        W43990  35.401  38.083  12.456
71676W        W43991  41.658  34.137   0.547
71677W        W43992  35.257  35.505   2.673
71678W        W43993  16.032  19.291   2.619
71679W        W43994  34.338  32.369  13.306
71680W        W43995  43.903  37.074  10.529
71681W        W43996  40.116   2.859   4.145
71682W        W43997  12.372  22.124  11.977
71683W        W43998  29.947  35.794   0.436
71684W        W43999  27.116  24.001  12.929
71685W        W44000  34.104   7.925   1.725
71686W        W44001  19.628   9.213   2.791
71687W        W44002   5.937   0.795   3.070
71688W        W44003  38.965  28.408  11.660
71689W        W44004   9.132  32.863  13.457
71690W        W44005  41.172  19.786  10.684
71691W        W44006  26.527  33.829  12.621
71692W        W44007  18.037  42.433   1.843
71693W        W44008   4.999  32.936   1.986
71694W        W44009   8.425  12.559  14.918
71695W        W44010  42.819  21.175  14.411
71696W        W44011   8.995  34.861   3.243
71697W        W44012  43.294  24.785   1.724
71698W        W44013  21.873  27.596  14.902
71699W        W44014   3.558  25.179   2.278
71700W        W44015  35.149  31.487  14.911
71701W        W44016   1.935   1.564   1.770
71702W        W44017  28.771   6.760   1.958
71703W        W44018  16.043   2.733   1.518
71704W        W44019  31.105   3.143   3.384
71705W        W44020  26.712  15.825  11.981
71706W        W44021  10.270  14.768  14.260
71707W        W44022  32.558  30.706  11.896
71708W        W44023  34.135   3.150   1.946
71709W        W44024  38.493  43.565   0.733
71710W        W44025   1.992  25.129   0.295
71711W        W44026  11.668   9.843  10.888
71712W        W44027  25.483  32.198  12.655
71713W        W44028  11.147   7.205  13.617
71714W        W44029  19.541  39.700   0.162
71715W        W44030  24.128   5.750   1.736
71716W        W44031  26.738  13.176  13.978
71717W        W44032   1.780  31.900   2.183
71718W        W44033  19.643  40.290  11.162
71719W        W44034  25.470  14.202   2.311
71720W        W44035  21.491   6.837  12.404
71721W        W44036  14.839   6.735   2.881
71722W        W44037  36.492  12.213   4.042
71723W        W44038  39.826  13.879   2.057
71724W        W44039  26.676   3.352  14.541
71725W        W44040  10.763  14.702   1.921
71726W        W44041  33.042   7.712   0.008
71727W        W44042  35.014   8.664  14.762
71728W        W44043  18.811  34.440  12.447
71729W        W44044  27.370  16.793  13.319
71730W        W44045  29.559  36.910   1.803
71731W        W44046  36.602  12.077   1.389
71732W        W44047  12.579  30.957   3.903
71733W        W44048  30.750  15.632   2.758
71734W        W44049  13.036  20.029  10.388
71735W        W44050  19.900  16.733   0.109
71736W        W44051  12.695  44.589   4.158
71737W        W44052   8.793  25.183  11.623
71738W        W44053  43.016  18.622  12.002
71739W        W44054   0.808  38.602  14.375
71740W        W44055  24.699  16.875   4.110
71741W        W44056  41.570  35.488   2.196
71742W        W44057  10.649   2.577   4.151
71743W        W44058   4.219  43.983  11.182
71744W        W44059   5.313   6.641   0.346
71745W        W44060  16.687  16.807  10.648
71746W        W44061  29.680  19.853   3.765
71747W        W44062  39.841  32.161   4.508
71748W        W44063   1.881  15.059   2.242
71749W        W44064  44.543   5.120  14.846
71750W        W44065  30.526  17.207   0.171
71751W        W44066  29.091  10.950  13.169
71752W        W44067   5.310   3.342  14.853
71753W        W44068  10.753  25.623   3.598
71754W        W44069  27.681  38.871   2.790
71755W        W44070  42.791  39.128  12.595
71756W        W44071  18.208  15.033   0.412
71757W        W44072  38.426  18.117  14.410
71758W        W44073  33.823  19.705  11.134
71759W        W44074  35.054  37.519  14.906
71760W        W44075  13.094   1.919  12.913
71761W        W44076  37.580  30.528   3.457
71762W        W44077   8.589  23.626  12.848
71763W        W44078  26.284  33.389  12.748
71764W        W44079  39.837   7.747   2.266
71765W        W44080  42.977  40.069  14.282
71766W        W44081   3.683  31.004   0.484
71767W        W44082  13.156   9.276   1.361
71768W        W44083  18.851  27.090   2.697
71769W        W44084  10.986  17.120   3.656
71770W        W44085  37.939  33.236   0.908
71771W        W44086   1.055  12.695  10.234
71772W        W44087  32.643  28.597   4.763
71773W        W44088  18.635  12.531  14.366
71774W        W44089   3.578   7.302   2.805
71775W        W44090  38.961  34.209   0.903
71776W        W44091  29.591   8.446  12.974
71777W        W44092  34.509  44.851  12.496
71778W        W44093  28.078  23.170  14.609
71779W        W44094  31.637  23.254  11.449
71780W        W44095   6.728  35.027  11.927
71781W        W44096  29.005   3.677   3.734
71782W        W44097   3.735   8.468   3.286
71783W        W44098   6.470  26.255  12.844
71784W        W44099  41.779  33.341  11.935
71785W        W44100  35.417   3.874   1.252
71786W        W44101  41.826  24.247   4.771
71787W        W44102  36.617   6.377   4.753
71788W        W44103  42.775  12.292   2.297
71789W        W44104  25.422  15.181  12.396
71790W        W44105  42.789   7.322  11.078
71791W        W44106  18.121  30.398  10.669
71792W        W44107  34.428  14.588   3.259
71793W        W44108   9.104  30.079   1.340
71794W        W44109  42.870  39.285   2.317
71795W        W44110  31.616  15.559  10.093
71796W        W44111  14.375  19.240   1.679
71797W        W44112  31.569  18.726   2.736
71798W        W44113  33.650  44.390   0.781
71799W        W44114  25.525  35.953  12.470
71800W        W44115  24.588  34.172  12.432
71801W        W44116   4.859  30.403  12.528
71802W        W44117  22.361  39.747  13.434
71803W        W44118   2.909  24.015   2.961
71804W        W44119  18.751  13.618  13.460
71805W        W44120  42.151  19.602  13.712
71806W        W44121   0.041   9.395   3.710
71807W        W44122  40.762   9.892  14.476
71808W        W44123  19.739  35.588  14.874
71809W        W44124  14.038  31.511   4.176
71810W        W44125  34.965  31.348  11.562
71811W        W44126  18.244   5.801  12.190
71812W        W44127  24.614   5.794  14.798
71813W        W44128  30.341  29.622  11.544
71814W        W44129  19.733  16.361   2.172
71815W        W44130   9.488   2.544  13.576
71816W        W44131  15.914  21.096  11.122
71817W        W44132  28.100  34.922  11.600
71818W        W44133   9.651   7.454   5.001
71819W        W44134  35.808  42.461  13.472
71820W        W44135  25.885  30.273  14.779
71821W        W44136  13.153   6.483   2.430
71822W        W44137  40.621  25.215  11.586
71823W        W44138   6.565   7.456  11.369
71824W        W44139  37.040  27.139  11.152
71825W        W44140  10.635   1.447  14.424
71826W        W44141   8.785  44.889   4.575
71827W        W44142  16.048   5.155   4.862
71828W        W44143   1.550  28.535  12.823
71829W        W44144  24.432  17.620  14.337
71830W        W44145   4.849  44.248  14.257
71831W        W44146  14.516  30.435  11.552
71832W        W44147  35.353  25.015  11.589
71833W        W44148  20.797  10.630  14.116
71834W        W44149  21.033  37.161  11.699
71835W        W44150   5.417   5.072  12.378
71836W        W44151   2.973  21.646  12.466
71837W        W44152  17.059  26.726   2.623
71838W        W44153   0.328  43.432  14.878
71839W        W44154  12.168  14.080  11.165
71840W        W44155  30.437  40.115   1.314
71841W        W44156  14.819  21.226  14.945
71842W        W44157  16.257  10.342  14.581
71843W        W44158  22.153  26.182  12.031
71844W        W44159   4.156   0.780   2.817
71845W        W44160  43.746  37.011  12.925
71846W        W44161  18.383   0.008  12.594
71847W        W44162  35.214  29.464  12.464
71848W        W44163  38.323  11.402  10.734
71849W        W44164  16.296  21.864   4.060
71850W        W44165  24.836  42.671   3.905
71851W        W44166   8.344  36.872   1.701
71852W        W44167  16.339  43.033   4.401
71853W        W44168  26.798  44.413  12.198
71854W        W44169  21.238  32.183   0.367
71855W        W44170  35.107  15.187  11.974
71856W        W44171  13.841  14.299   4.058
71857W        W44172   7.489  23.125   4.387
71858W        W44173  39.267  26.199  12.803
71859W        W44174   6.645  37.401  14.901
71860W        W44175   6.373  31.041   0.847
71861W        W44176   6.217  18.055   4.114
71862W        W44177  44.005  28.380   0.694
71863W        W44178   3.358   5.443  12.826
71864W        W44179  33.237   6.134   1.223
71865W        W44180  43.175  36.736   4.764
71866W        W44181  37.543  18.253   1.422
71867W        W44182  12.703  35.685   0.936
71868W        W44183  16.569  20.722   3.073
71869W        W44184  36.776  40.100  13.805
71870W        W44185  40.592  15.826  11.258
71871W        W44186  20.663  15.159   4.639
71872W        W44187  13.535  32.336   3.276
71873W        W44188  26.542   3.964   1.294
71874W        W44189   1.376  13.933  11.153
71875W        W44190   3.202  14.240  13.310
71876W        W44191   2.770  14.267   3.769
71877W        W44192  16.258   7.445  13.995
71878W        W44193  20.812  25.165   2.716
71879W        W44194  10.856  20.607   4.283
71880W        W44195  26.996  12.227  14.052
71881W        W44196  27.927   0.140  12.901
71882W        W44197  31.744  43.827   2.960
71883W        W44198   1.882  34.908   4.647
71884W        W44199  44.951  30.902  10.639
71885W        W44200   9.269  28.288   3.750
71886W        W44201  39.477  17.220   4.280
71887W        W44202  42.328   2.891   4.003
71888W        W44203  42.590  32.077   2.746
71889W        W44204  37.952  42.714  10.868
71890W        W44205   8.941  35.025   1.572
71891W        W44206  28.670  21.989  13.099
71892W        W44207  27.820  18.281  13.474
71893W        W44208  43.037  42.542  11.865
71894W        W44209  17.178  32.971   2.341
71895W        W44210  44.486   7.176  13.776
71896W        W44211  40.671  15.312   2.418
71897W        W44212  13.587  21.548   1.923
71898W        W44213  32.316   8.924  12.502
71899W        W44214  41.746  21.215   3.661
71900W        W44215  10.769  21.035   2.643
71901W        W44216   1.213   3.466  11.134
71902W        W44217   1.166   4.190   0.974
71903W        W44218  33.137   9.899  11.826
71904W        W44219  31.658  38.413   0.856
71905W        W44220   8.019  24.974   2.841
71906W        W44221  17.620   1.235  11.424
71907W        W44222   3.936  11.624  12.466
71908W        W44223  18.239  43.929  12.888
71909W        W44224  39.978  37.282  14.264
71910W        W44225   5.389   2.314  13.947
71911W        W44226  24.745  21.686  14.992
71912W        W44227  26.203  27.751   3.342
71913W        W44228  16.576  10.268  13.259
71914W        W44229  27.617   7.921   1.418
71915W        W44230  43.779  39.607   2.742
71916W        W44231  14.681  10.114   1.721
71917W        W44232   8.285  43.549  13.106
71918W        W44233  35.320  35.461  14.924
71919W        W44234  25.442  22.262   0.233
71920W        W44235   9.943  43.204   3.861
71921W        W44236  32.522  28.360   2.779
71922W        W44237   9.371  41.049  10.701
71923W        W44238   7.896   9.455   4.156
71924W        W44239   4.990  40.893  10.618
71925W        W44240  25.925  41.621  11.091
71926W        W44241  12.873  31.002   4.469
71927W        W44242  37.364  44.802   2.325
71928W        W44243  29.473  10.758   4.962
71929W        W44244   4.915  43.473   9.915
71930W        W44245   5.301  11.239  13.861
71931W        W44246  32.629  34.433  13.363
71932W        W44247   8.006   9.884   2.312
71933W        W44248  17.295  28.910   4.183
71934W        W44249  25.100  32.423   3.280
71935W        W44250  41.357  29.427  14.982
71936W        W44251  10.915  24.167   1.790
71937W        W44252  23.677  44.901  13.477
71938W        W44253  13.251  20.974   4.694
71939W        W44254  32.695  14.727   2.165
71940W        W44255   5.151  35.029  11.181
71941W        W44256  37.046  18.079   1.403
71942W        W44257  25.952  20.463   4.284
71943W        W44258  44.328  16.757   1.330
71944W        W44259  27.533   6.971   3.247
71945W        W44260   9.789  41.252  13.949
71946W        W44261  19.081  41.221  12.491
71947W        W44262  31.845  26.176  14.240
71948W        W44263  31.777   7.600  14.814
71949W        W44264   5.854  13.351  14.533
71950W        W44265  28.476  32.147   2.321
71951W        W44266  15.600  14.380  11.141
71952W        W44267  39.342  16.519   2.778
71953W        W44268  32.022   3.034  11.610
71954W        W44269  20.787  18.391  11.599
71955W        W44270  42.763  39.886  11.569
71956W        W44271  34.927  42.293  13.446
71957W        W44272  37.054  15.155  14.882
71958W        W44273  21.211   4.395  11.252
71959W        W44274   6.605  40.681  11.631
71960W        W44275   3.904  28.467   4.591
71961W        W44276   0.766   9.630   4.147
71962W        W44277  40.214  29.855  12.914
71963W        W44278  17.049  12.192  10.551
71964W        W44279  19.119  41.402  13.033
71965W        W44280  13.884   1.529  11.434
71966W        W44281  31.841   2.853  11.151
71967W        W44282  14.047   4.852   1.711
71968W        W44283  27.938  15.344   2.760
71969W        W44284  39.952  14.798  11.085
71970W        W44285  21.122  20.500  12.642
71971W        W44286  14.826   3.774   0.763
71972W        W44287   3.895  26.034  13.095
71973W        W44288  32.398  19.222  10.423
71974W        W44289  35.360  21.705  12.013
71975W        W44290   9.094   7.171   1.896
71976W        W44291  43.967  34.697   3.860
71977W        W44292   4.242  19.054  10.902
71978W        W44293   9.415  23.444  11.969
71979W        W44294  15.628  22.987  14.944
71980W        W44295  44.304  41.748  12.903
71981W        W44296  15.250  12.229   2.716
71982W        W44297   3.214  30.996   3.623
71983W        W44298  38.332   0.932  12.150
71984W        W44299  11.067  35.976   0.379
71985W        W44300  38.806  30.082   3.905
71986W        W44301   3.012  15.758   4.967
71987W        W44302  31.352   7.141   4.803
71988W        W44303  13.228   7.822   3.181
71989W        W44304   5.250  24.775  12.835
71990W        W44305  44.299  28.179  10.862
71991W        W44306  31.108  17.467  10.713
71992W        W44307  27.645  26.426   0.765
71993W        W44308  17.136   7.430  13.953
71994W        W44309  40.907   0.031   4.922
71995W        W44310   6.279  21.380   0.323
71996W        W44311  35.663  36.889  12.033
71997W        W44312  15.311  21.809   0.255
71998W        W44313   9.733  34.955   0.902
71999W        W44314  15.070   8.170  14.879
72000W        W44315  43.199  11.420  12.249
72001W        W44316  41.840  32.446   3.238
72002W        W44317  44.443  22.585  10.946
72003W        W44318  20.493  41.421   1.840
72004W        W44319   0.461   8.114  14.973
72005W        W44320  10.647  26.885   2.342
72006W        W44321  42.285  19.740   2.247
72007W        W44322  39.663   7.260   4.162
72008W        W44323  27.192  38.732   2.712
72009W        W44324  11.169  28.004   0.204
72010W        W44325  24.007   5.746  10.439
72011W        W44326   8.267  18.056  10.632
72012W        W44327  39.757  23.191   2.287
72013W        W44328  17.099  39.429   0.041
72014W        W44329  20.025  40.029  10.222
72015W        W44330  17.569   3.584   4.681
72016W        W44331  26.148   5.484   4.464
72017W        W44332  32.176  32.638  10.638
72018W        W44333  32.415  42.998  11.196
72019W        W44334  34.895  29.980   4.704
72020W        W44335   0.288  41.672  11.033
72021W        W44336   2.158   7.767   1.698
72022W        W44337  38.095  44.528  11.138
72023W        W44338  41.417  19.144  11.229
72024W        W44339  36.768   9.707  12.004
72025W        W44340  30.237  18.637  10.818
72026W        W44341  26.584   5.210  13.075
72027W        W44342  19.257   1.167   4.309
72028W        W44343  26.117  36.943   1.630
72029W        W44344  11.726  29.033  11.664
72030W        W44345  30.112  24.085  12.649
72031W        W44346  26.732  39.704  11.244
72032W        W44347  17.197  40.851  10.323
72033W        W44348  34.242  10.395   1.340
72034W        W44349  16.302  32.566  11.512
72035W        W44350  31.180  32.055   2.992
72036W        W44351  18.168  10.170  14.448
72037W        W44352  13.179  20.117  12.914
72038W        W44353  27.726  32.549   0.546
72039W        W44354  30.139  41.141   2.808
72040W        W44355  43.316  32.617  10.390
72041W        W44356  36.078  36.089  13.487
72042W        W44357  41.068  12.232   1.402
72043W        W44358  31.081  12.705  13.596
72044W        W44359  14.748  16.260   3.126
72045W        W44360  29.999  10.373  14.017
72046W        W44361  35.474  40.401   0.273
72047W        W44362  11.733  41.346  10.599
72048W        W44363  20.271  39.291   3.183
72049W        W44364  43.169  42.934   5.057
72050W        W44365  17.217   0.371  12.917
72051W        W44366  17.720   9.343   0.671
72052W        W44367  22.986  33.644   3.615
72053W        W44368  25.077   0.911  14.532
72054W        W44369   0.421  33.039   4.568
72055W        W44370   0.498  18.127   3.658
72056W        W44371  30.607  19.240  11.550
72057W        W44372  37.173   2.219  12.044
72058W        W44373  43.074  37.656   0.461
72059W        W44374   1.165  33.968   1.352
72060W        W44375   3.476   2.504  10.792
72061W        W44376  22.734  30.134   0.986
72062W        W44377  30.521   9.698  14.050
72063W        W44378  43.669  13.550   1.430
72064W        W44379  27.472  19.894   2.366
72065W        W44380   2.210  33.539   0.618
72066W        W44381  30.947   6.145   1.620
72067W        W44382   5.782  36.917  13.830
72068W        W44383   3.748  24.925   4.002
72069W        W44384  32.304   6.801  12.966
72070W        W44385  44.737  13.739  12.574
72071W        W44386   4.666  23.001  13.742
72072W        W44387   3.717   1.177  13.538
72073W        W44388  14.355  42.538  11.732
72074W        W44389  34.911  21.426   3.837
72075W        W44390  27.781   4.989   2.595
72076W        W44391  11.170  12.400   1.519
72077W        W44392  24.232  17.693  10.732
72078W        W44393  17.017  28.388   3.288
72079W        W44394   8.897  19.660   2.442
72080W        W44395  24.534  41.092  11.450
72081W        W44396  30.930   9.468   0.375
72082W        W44397  21.641  38.322   1.541
72083W        W44398  21.653   4.851   0.885
72084W        W44399  20.053  18.753  12.449
72085W        W44400   9.276   3.190  12.868
72086W        W44401   1.228  24.448  12.045
72087W        W44402  17.728   0.260  12.968
72088W        W44403   8.952  42.720  14.388
72089W        W44404  26.618  11.589   0.468
72090W        W44405  32.491  31.531   3.532
72091W        W44406  36.562   8.986  13.465
72092W        W44407  33.692  15.297  12.006
72093W        W44408  22.104  23.192  14.931
72094W        W44409   2.162  33.812  10.113
72095W        W44410   8.233  10.421   3.687
72096W        W44411  29.788   3.066  12.146
72097W        W44412  14.989  29.230   5.428
72098W        W44413   2.593  14.438  12.082
72099W        W44414   4.601  35.013  14.984
72100W        W44415   5.421  31.591  10.627
72101W        W44416  32.459  37.793   2.768
72102W        W44417  17.242  19.784  10.641
72103W        W44418  20.041  15.317  13.154
72104W        W44419   5.435  23.640  14.394
72105W        W44420  10.151  44.747  12.425
72106W        W44421  37.347   6.683  12.957
72107W        W44422   0.717  42.789  13.594
72108W        W44423  40.857  28.269  11.582
72109W        W44424  15.362  42.594   0.438
72110W        W44425  19.491  42.742   2.792
72111W        W44426   3.793  36.610  12.963
72112W        W44427  11.139  21.790   2.624
72113W        W44428  18.081   9.870  10.730
72114W        W44429  21.191  15.611  12.118
72115W        W44430  37.950   7.902  12.741
72116W        W44431  21.785  30.005   2.653
72117W        W44432  42.003   1.843   3.217
72118W        W44433  14.467  43.604  13.968
72119W        W44434   5.709  31.829   3.852
72120W        W44435  42.973  14.823   4.118
72121W        W44436  23.996  43.906   0.608
72122W        W44437  44.036  41.100  12.977
72123W        W44438   4.839  35.938  14.432
72124W        W44439  38.667  21.278  14.262
72125W        W44440  26.737  10.157  14.446
72126W        W44441  32.053   0.028   4.512
72127W        W44442  17.224   6.328   1.189
72128W        W44443  35.101  14.350  12.948
72129W        W44444  32.434  18.228  12.153
72130W        W44445  38.660   9.461   0.850
72131W        W44446  14.776  38.274   1.327
72132W        W44447  40.577  40.923  10.891
72133W        W44448  29.594  20.504  11.017
72134W        W44449  43.394  44.259  14.278
72135W        W44450   3.307  34.091  12.479
72136W        W44451  17.675  37.435   0.186
72137W        W44452  20.323  43.369  10.722
72138W        W44453  30.409   9.199  13.983
72139W        W44454  16.759  41.294  14.757
72140W        W44455  30.862   8.952  11.235
72141W        W44456  13.383  35.362  14.091
72142W        W44457  25.472  11.312   1.223
72143W        W44458  23.762   6.080   1.904
72144W        W44459  23.474  32.821  12.536
72145W        W44460  27.402  26.985  12.285
72146W        W44461  15.274  36.295   3.839
72147W        W44462  12.777   3.180  14.043
72148W        W44463  20.234   5.468  10.550
72149W        W44464  32.621  40.924   0.335
72150W        W44465  39.291   5.212  11.627
72151W        W44466  23.997  21.856  14.354
72152W        W44467   7.866  36.985  11.715
72153W        W44468  16.762  41.397   3.975
72154W        W44469   1.546  18.220  12.991
72155W        W44470   8.899  23.143   4.189
72156W        W44471  35.151   1.418  12.547
72157W        W44472  12.400  37.323   1.427
72158W        W44473  32.296   1.612  11.183
72159W        W44474  26.096   6.694  10.523
72160W        W44475   3.948  21.009   2.219
72161W        W44476  25.797  43.918  12.396
72162W        W44477   5.874   0.579  10.474
72163W        W44478  23.339  37.924   3.955
72164W        W44479  37.282  22.872   3.752
72165W        W44480  35.842  30.637  13.977
72166W        W44481   5.711  31.614   1.022
72167W        W44482  10.584  43.861   2.726
72168W        W44483  23.962   0.589  12.574
72169W        W44484  40.827  13.320   0.832
72170W        W44485   9.283  35.080   0.184
72171W        W44486   5.982  23.109  10.708
72172W        W44487  30.717  27.289  14.843
72173W        W44488  34.395  27.088  13.324
72174W        W44489   2.237  15.961  10.357
72175W        W44490   4.618  28.062   1.944
72176W        W44491   1.041  14.033   4.532
72177W        W44492  12.900  25.198   1.303
72178W        W44493  15.300  40.872  12.765
72179W        W44494  13.293  41.955  12.883
72180W        W44495   8.969  32.892   2.392
72181W        W44496  33.114  21.506  14.973
72182W        W44497  39.916  38.752   3.931
72183W        W44498  10.387  43.191   0.910
72184W        W44499  35.900  22.510   2.551
72185W        W44500  21.459  19.069  13.969
72186W        W44501  34.968  40.777   1.528
72187W        W44502   9.663  23.890  14.085
72188W        W44503   6.949  42.992   1.196
72189W        W44504  13.711  42.436   1.206
72190W        W44505  21.598   2.449   2.909
72191W        W44506  32.865   5.260   4.077
72192W        W44507   8.221  17.240  13.862
72193W        W44508  35.542   7.929  11.411
72194W        W44509  10.187   0.332   4.607
72195W        W44510  44.484  33.679   2.829
72196W        W44511  32.881  23.834   3.659
72197W        W44512  15.650  36.003  12.536
72198W        W44513  35.038   0.893   3.475
72199W        W44514  28.751  30.611   2.460
72200W        W44515  42.241  23.019  10.447
72201W        W44516  28.509  39.624  11.516
72202W        W44517  14.875  12.245  12.587
72203W        W44518  32.886   3.911  10.480
72204W        W44519  29.396  21.552  12.865
72205W        W44520   8.590  34.110  12.049
72206W        W44521  40.039  11.317  13.035
72207W        W44522  33.988  24.181  12.336
72208W        W44523  40.373   5.969   1.224
72209W        W44524  17.224  30.902  12.193
72210W        W44525   7.402  13.122   1.697
72211W        W44526  31.279   5.012  13.320
72212W        W44527  17.759   3.253  13.067
72213W        W44528  32.730  44.520   2.252
72214W        W44529  42.300  14.797  14.587
72215W        W44530  15.873  14.372  10.718
72216W        W44531  27.115  34.799  13.176
72217W        W44532  43.357  32.161  14.564
72218W        W44533  20.118  21.659   1.381
72219W        W44534  24.233  36.053  14.841
72220W        W44535  27.181  39.708   4.272
72221W        W44536  16.899  17.459  14.390
72222W        W44537  16.955  24.446  12.993
72223W        W44538  15.891   9.843  12.868
72224W        W44539   5.332  20.740  12.981
72225W        W44540   3.542  19.742   4.845
72226W        W44541  33.015  44.529   1.777
72227W        W44542  36.982  12.390  14.782
72228W        W44543  36.678   5.527  12.421
72229W        W44544   1.960  43.337  10.473
72230W        W44545  25.733  29.464   0.274
72231W        W44546   6.180  33.954   1.802
72232W        W44547  35.577   8.754   0.278
72233W        W44548  16.775  11.150   4.201
72234W        W44549  19.733  34.609  13.008
72235W        W44550  23.826  28.006  12.846
72236W        W44551   2.925   9.635  12.415
72237W        W44552  26.215  25.662  10.715
72238W        W44553  35.874  21.416   2.281
72239W        W44554  10.623  12.591  14.429
72240W        W44555  33.912  15.039   0.839
72241W        W44556  28.811  19.717   4.221
72242W        W44557   6.447   3.453  12.332
72243W        W44558  24.766  27.491   4.857
72244W        W44559   7.875  23.053   2.155
72245W        W44560  41.988  39.835  12.041
72246W        W44561  32.820   3.863  12.711
72247W        W44562   9.745  29.867  14.386
72248W        W44563  14.277  39.822   2.745
72249W        W44564   6.635  37.750  14.540
72250W        W44565  39.287   0.186  10.798
72251W        W44566  39.070  38.310  14.821
72252W        W44567  30.862  39.247  12.541
72253W        W44568  30.847   2.733   3.595
72254W        W44569   2.182  14.948   5.076
72255W        W44570  23.077  10.246   2.141
72256W        W44571  33.553   9.399  12.610
72257W        W44572  38.303  24.500  13.932
72258W        W44573  12.799  33.764   0.506
72259W        W44574  23.455  30.392  11.654
72260W        W44575  18.616  11.846  13.028
72261W        W44576   4.265  26.193  13.878
72262W        W44577   1.187   4.269  14.970
72263W        W44578  25.452  20.296  12.358
72264W        W44579  13.712  18.261   2.275
72265W        W44580   3.769   5.147  14.503
72266W        W44581  39.148  27.466   4.480
72267W        W44582  42.464  26.393   4.010
72268W        W44583   7.385   0.749   0.823
72269W        W44584   7.421  39.586  14.765
72270W        W44585  39.603  22.799  13.310
72271W        W44586   7.645  17.896   1.844
72272W        W44587   3.560  43.866   4.024
72273W        W44588  40.513  18.306  12.011
72274W        W44589  43.903   0.776   4.390
72275W        W44590  41.302   2.933  10.574
72276W        W44591   3.299  24.878  12.935
72277W        W44592  17.669  18.711   2.278
72278W        W44593   6.843   2.382   0.199
72279W        W44594  33.972  17.834  10.619
72280W        W44595  39.059  19.677   0.518
72281W        W44596  22.095  27.864   3.211
72282W        W44597  10.787  37.814   4.870
72283W        W44598   1.986  19.542   1.566
72284W        W44599  42.814  10.298   1.326
72285W        W44600  18.499   7.230   0.210
72286W        W44601  10.572  11.163   4.968
72287W        W44602   0.417  13.105   2.087
72288W        W44603  43.949  21.083  10.986
72289W        W44604  43.801  42.561   2.495
72290W        W44605  34.452  19.880   0.988
72291W        W44606  17.736  27.681  14.753
72292W        W44607  31.391  18.197  13.376
72293W        W44608  37.617   0.855  11.639
72294W        W44609  26.241  21.357  12.493
72295W        W44610   0.787   4.445  12.487
72296W        W44611  32.401  22.192  11.428
72297W        W44612  39.329   6.133  11.983
72298W        W44613  40.354  28.963   0.027
72299W        W44614   6.247   9.681  12.036
72300W        W44615   3.796  12.759  14.721
72301W        W44616  25.637  11.863  14.802
72302W        W44617  29.109  30.398  10.553
72303W        W44618  36.984  10.700  11.175
72304W        W44619  21.214  33.411   2.436
72305W        W44620  10.152  19.391   4.122
72306W        W44621   0.326  31.402   0.962
72307W        W44622   4.796  12.134  11.383
72308W        W44623  37.274  14.048   1.220
72309W        W44624  11.288  29.022  11.918
72310W        W44625   7.117  27.710   4.047
72311W        W44626  30.461  44.504  12.483
72312W        W44627  11.949  14.823  10.644
72313W        W44628  26.315  28.733   4.221
72314W        W44629   7.929  17.247   0.494
72315W        W44630  15.624  16.045   2.823
72316W        W44631  18.989   2.966  13.388
72317W        W44632  26.015  10.121   0.793
72318W        W44633  38.062  25.427  10.435
72319W        W44634   3.306  42.289   2.606
72320W        W44635   1.581  25.106   1.402
72321W        W44636  12.706  18.958   3.745
72322W        W44637   9.636  16.712  14.573
72323W        W44638  41.391   6.299  10.719
72324W        W44639  14.298  31.036   2.209
72325W        W44640   2.544  44.570  14.411
72326W        W44641  36.184  41.861   3.738
72327W        W44642  30.736  42.768  12.066
72328W        W44643  37.235  14.311   4.004
72329W        W44644  28.378  21.574  14.960
72330W        W44645   1.204  33.181  14.851
72331W        W44646  28.950  22.975  13.085
72332W        W44647   3.861   8.125   3.672
72333W        W44648  35.095  33.073  12.757
72334W        W44649  40.918  26.373  12.062
72335W        W44650  14.103   1.786   3.175
72336W        W44651  35.514  29.640   1.978
72337W        W44652  13.288  12.475   0.364
72338W        W44653   6.328  18.392  14.350
72339W        W44654   4.349  23.299  12.420
72340W        W44655  33.118  38.351  13.425
72341W        W44656  14.249  17.320  13.560
72342W        W44657   7.871  36.940  12.242
72343W        W44658  16.537  19.088   2.774
72344W        W44659   8.175  26.587  10.905
72345W        W44660   9.709  19.513  13.943
72346W        W44661  12.804  11.083  11.979
72347W        W44662   2.704  37.713   1.046
72348W        W44663  16.371  19.233   0.350
72349W        W44664   4.826  24.445   3.302
72350W        W44665  34.570   1.514   2.832
72351W        W44666  44.543   8.896  10.133
72352W        W44667  35.377  29.460   0.650
72353W        W44668  16.782  34.949  14.210
72354W        W44669  38.955   8.189   4.346
72355W        W44670   2.086  23.752   4.882
72356W        W44671  21.301  19.140   3.926
72357W        W44672  24.651  18.628  10.718
72358W        W44673   0.985  27.110  11.330
72359W        W44674   9.838  40.301   0.204
72360W        W44675  37.563   5.573   1.246
72361W        W44676  30.499  32.632  11.170
72362W        W44677  35.833   7.213   1.639
72363W        W44678  41.476  40.043   0.694
72364W        W44679  17.759  28.209  10.264
72365W        W44680  36.628  10.734  10.769
72366W        W44681  36.998  20.035  11.221
72367W        W44682  43.924  17.620   0.908
72368W        W44683  40.945  15.658   4.182
72369W        W44684  41.904  34.943  10.389
72370W        W44685  41.242  15.332   0.340
72371W        W44686  16.198  13.841   4.249
72372W        W44687   0.056  32.849   2.763
72373W        W44688   6.927  22.310  14.682
72374W        W44689  12.493  11.297   1.667
72375W        W44690  32.557  11.099   0.457
72376W        W44691  26.421   4.911  14.886
72377W        W44692  28.670   7.699  11.079
72378W        W44693   0.892  37.900  13.348
72379W        W44694  29.090   0.163   0.936
72380W        W44695   3.271   7.451  12.621
72381W        W44696  44.988  23.436  13.978
72382W        W44697  35.346  32.071   3.772
72383W        W44698  42.077   1.277  14.454
72384W        W44699  41.510   6.959  11.531
72385W        W44700  43.598  13.364  12.148
72386W        W44701  32.085  22.257  14.382
72387W        W44702  40.793  31.518   4.644
72388W        W44703  40.550  16.842   1.285
72389W        W44704  35.333  19.427   4.140
72390W        W44705  35.844  40.276  12.054
72391W        W44706  11.878  36.055   1.673
72392W        W44707  10.442  40.564   4.114
72393W        W44708   2.179  23.080   3.365
72394W        W44709  17.523   3.844  14.488
72395W        W44710  31.486  43.096  13.895
72396W        W44711  32.922  37.861   2.573
72397W        W44712  15.453   8.530  12.648
72398W        W44713  39.575  19.505   3.601
72399W        W44714  19.114  15.421  10.355
72400W        W44715  16.545  44.946  12.872
72401W        W44716  16.659   8.499  13.364
72402W        W44717  39.315  18.618  13.490
72403W        W44718   3.673   5.409  13.254
72404W        W44719  11.863  36.479  14.074
72405W        W44720  41.884   4.498  12.502
72406W        W44721  42.811  26.005  14.500
72407W        W44722  23.468  27.637  12.953
72408W        W44723  33.402  25.954  14.250
72409W        W44724   7.266  25.811  12.113
72410W        W44725  42.901   3.023  13.666
72411W        W44726  13.354  39.986   0.876
72412W        W44727   1.901  14.263  14.277
72413W        W44728  23.135   9.629   2.934
72414W        W44729  44.419  28.067  12.773
72415W        W44730  32.016  20.724  13.611
72416W        W44731   3.143  27.941   1.773
72417W        W44732   7.634  18.217   3.227
72418W        W44733   5.557  44.713  11.152
72419W        W44734  39.039   9.148   0.972
72420W        W44735  34.156  21.406  14.017
72421W        W44736  22.227  22.292   0.883
72422W        W44737  27.812   3.934  10.664
72423W        W44738   5.874  10.850   3.422
72424W        W44739  37.562  19.300   4.139
72425W        W44740  43.892  34.099  13.968
72426W        W44741  12.736   5.236  13.843
72427W        W44742   5.281  31.153   4.113
72428W        W44743  13.227  17.468   2.218
72429W        W44744  12.589  25.077   3.259
72430W        W44745  17.584  35.607   1.175
72431W        W44746  43.440  44.163   2.728
72432W        W44747  18.765  40.368   4.963
72433W        W44748  40.996  37.393  12.204
72434W        W44749  19.852  41.896   2.586
72435W        W44750  38.261  22.583   1.771
72436W        W44751  23.234   6.428  11.461
72437W        W44752   0.951  24.347   3.648
72438W        W44753  39.931  44.874   2.204
72439W        W44754  38.313   8.223  11.527
72440W        W44755   9.132   1.062   4.092
72441W        W44756   1.368  35.663   4.681
72442W        W44757   9.786  20.978   3.075
72443W        W44758  24.951   2.865   1.162
72444W        W44759  19.721  31.649   4.658
72445W        W44760  27.023  38.603  10.673
72446W        W44761  32.158  38.233  12.047
72447W        W44762  30.485  40.023  11.125
72448W        W44763   1.480  11.743  14.235
72449W        W44764  21.032   6.626   2.134
72450W        W44765  42.765  10.658   4.487
72451W        W44766  41.268   3.704  13.974
72452W        W44767   3.338  10.929   2.244
72453W        W44768  26.208  41.167  11.152
72454W        W44769  35.377   2.280  12.674
72455W        W44770  27.656  22.289   3.810
72456W        W44771   1.407  21.720  13.269
72457W        W44772  41.425  12.350  13.258
72458W        W44773  21.283  12.519   3.279
72459W        W44774   4.766   7.930   2.684
72460W        W44775  27.267   2.753   4.494
72461W        W44776  30.027  36.464  12.105
72462W        W44777  13.580  26.740  13.002
72463W        W44778  28.830  17.139  10.761
72464W        W44779   7.134  20.883  13.387
72465W        W44780   4.353  11.151  13.783
72466W        W44781   0.127  42.283   1.166
72467W        W44782  21.731  16.178   3.296
72468W        W44783   0.972   8.043  13.284
72469W        W44784  44.671  33.190   0.181
72470W        W44785  38.023  20.841   4.872
72471W        W44786  22.951  11.199   0.473
72472W        W44787   5.158  19.012  12.018
72473W        W44788  32.558   4.194  13.797
72474W        W44789  19.775  40.508   1.015
72475W        W44790  17.363  18.681   3.145
72476W        W44791  22.635   9.148   4.187
72477W        W44792  18.134  17.288  12.558
72478W        W44793  43.859  14.773   3.836
72479W        W44794  37.899  20.004   3.350
72480W        W44795  22.625  42.795  13.221
72481W        W44796   5.862  22.201  10.752
72482W        W44797  30.372  40.372  13.324
72483W        W44798   5.209  27.263  10.679
72484W        W44799  40.907  21.601   2.384
72485W        W44800  38.810  29.085   1.446
72486W        W44801  34.429   3.076  11.557
72487W        W44802  11.615  17.633  11.188
72488W        W44803  16.399  26.604  11.241
72489W        W44804  21.488   6.664   3.712
72490W        W44805   1.426   8.255  11.755
72491W        W44806  16.124  18.789   2.762
72492W        W44807   1.501  27.676  12.602
72493W        W44808  40.755  39.078  11.810
72494W        W44809  23.232   9.293  11.635
72495W        W44810  22.617  25.787   0.944
72496W        W44811  26.890  13.795   1.797
72497W        W44812   0.265  22.137  11.657
72498W        W44813   2.260  39.166  12.538
72499W        W44814  32.047  41.799   3.429
72500W        W44815  23.078   9.424  13.775
72501W        W44816   9.420  18.758  13.489
72502W        W44817  36.551  35.044   4.345
72503W        W44818  39.764  25.992   3.159
72504W        W44819   8.178   2.482  14.819
72505W        W44820   9.366   5.742  10.455
72506W        W44821   3.263  14.540  11.895
72507W        W44822  12.108  25.278   5.051
72508W        W44823   9.326  15.095  11.111
72509W        W44824  19.131   9.612   1.940
72510W        W44825   0.314  38.872   0.082
72511W        W44826  22.958  28.493  13.001
72512W        W44827   5.342  33.173   0.719
72513W        W44828  41.922  20.970   4.432
72514W        W44829   6.740  32.614   1.270
72515W        W44830   4.685  32.418   0.807
72516W        W44831  11.179  14.571  13.037
72517W        W44832  22.729  26.059   4.141
72518W        W44833  13.712  22.120   0.653
72519W        W44834  31.218  36.653   4.968
72520W        W44835   3.834  10.088   1.602
72521W        W44836  39.911  11.947   1.214
72522W        W44837   9.902  24.766  14.317
72523W        W44838   4.835  20.768  13.778
72524W        W44839  33.475   4.663  14.506
72525W        W44840   5.939  14.796   3.738
72526W        W44841  37.348  31.651  11.058
72527W        W44842  12.189   8.021  12.400
72528W        W44843  34.566  36.299  14.283
72529W        W44844  27.578  20.161   4.213
72530W        W44845  22.040  21.656   0.371
72531W        W44846  37.466  34.554  12.940
72532W        W44847  36.495   9.358   3.326
72533W        W44848  37.493  19.766   0.738
72534W        W44849  11.135  32.837   2.737
72535W        W44850   6.222  21.922   9.903
72536W        W44851  39.224  40.809   3.333
72537W        W44852  25.670  22.994  13.479
72538W        W44853  25.547   3.839   1.691
72539W        W44854   9.096  43.649  11.564
72540W        W44855   0.655  43.046  13.133
72541W        W44856   3.096  28.297   4.184
72542W        W44857  11.280  41.332  12.424
72543W        W44858   0.480   8.738   2.931
72544W        W44859  15.036  20.235  14.804
72545W        W44860  27.977  38.486  13.255
72546W        W44861  11.147  11.321   3.782
72547W        W44862  10.748   1.916  11.212
72548W        W44863  43.296   9.324  13.972
72549W        W44864  34.647  15.354  12.087
72550W        W44865  34.382   9.791  14.684
72551W        W44866  31.386  11.622  14.984
72552W        W44867  20.794   6.122  10.858
72553W        W44868  12.785   9.141  11.121
72554W        W44869  25.159   7.849   2.591
72555W        W44870  19.943  16.930  10.237
72556W        W44871  31.363  41.804   3.877
72557W        W44872  25.196  38.986  14.484
72558W        W44873  32.977  31.223   5.081
72559W        W44874   0.205  23.085  12.505
72560W        W44875  10.735  10.634   2.685
72561W        W44876  29.187  42.865  12.743
72562W        W44877  18.652  37.005  13.410
72563W        W44878  44.718  10.646   0.356
72564W        W44879  41.935  25.607  13.218
72565W        W44880  41.477  29.063   0.352
72566W        W44881  10.653  40.454  13.360
72567W        W44882   8.637  13.692   4.513
72568W        W44883  14.540  34.475  12.443
72569W        W44884  43.983  43.474  14.392
72570W        W44885  44.065  26.449   2.821
72571W        W44886   5.743  16.061  12.075
72572W        W44887  10.173  27.499  14.305
72573W        W44888  37.320  10.553  14.139
72574W        W44889  21.733  37.423   4.512
72575W        W44890   1.863  36.138   3.565
72576W        W44891   7.592  23.642  11.989
72577W        W44892   2.248  12.176   4.255
72578W        W44893   1.504  38.262  11.119
72579W        W44894   3.302  12.735  12.171
72580W        W44895  15.391  27.225  10.260
72581W        W44896  31.521  21.682  13.941
72582W        W44897  17.693  29.458  10.782
72583W        W44898  33.736  40.595   4.502
72584W        W44899  35.185   8.105  11.092
72585W        W44900  26.129  37.049   2.160
72586W        W44901  28.870  20.087  14.066
72587W        W44902  34.709   3.250  11.977
72588W        W44903  42.386  41.296  13.268
72589W        W44904  28.235  18.103   1.444
72590W        W44905  38.283  42.309  14.663
72591W        W44906  16.950   9.783   3.175
72592W        W44907  31.484  41.550  12.983
72593W        W44908  28.940   9.210   1.253
72594W        W44909   3.578  26.660   0.504
72595W        W44910  30.898  29.645  14.806
72596W        W44911  14.551  10.325   3.211
72597W        W44912  23.474  22.747   3.748
72598W        W44913   0.174  18.252  14.038
72599W        W44914   2.919  36.914  11.565
72600W        W44915   2.372  19.453  12.110
72601W        W44916  13.612  20.635   2.412
72602W        W44917  26.198  23.547  11.849
72603W        W44918  26.964   5.873   2.512
72604W        W44919   8.789   4.013  14.090
72605W        W44920  44.309  37.554  14.649
72606W        W44921   7.359  21.206   0.167
72607W        W44922  18.725  37.637  14.089
72608W        W44923  15.308  27.177  10.757
72609W        W44924  14.601  28.201   4.920
72610W        W44925  36.290  30.627   5.027
72611W        W44926  18.639  14.172   1.909
72612W        W44927  34.524  13.308  11.090
72613W        W44928   3.304  26.212   0.394
72614W        W44929  44.472  29.522   0.511
72615W        W44930  24.968   9.687  14.938
72616W        W44931   9.779   9.669  14.795
72617W        W44932  15.998  30.057  11.983
72618W        W44933  12.274  28.859  12.887
72619W        W44934  44.841  19.906  13.400
72620W        W44935  11.460  21.126   4.480
72621W        W44936  19.199  16.285  14.746
72622W        W44937  39.486  15.794   3.530
72623W        W44938  34.963  11.105  11.588
72624W        W44939  36.527   6.263   2.883
72625W        W44940  27.721  18.313   2.962
72626W        W44941  22.759  41.236   4.151
72627W        W44942   0.560  35.999  10.892
72628W        W44943  15.679  37.653   5.074
72629W        W44944  22.113  21.097   2.680
72630W        W44945  20.848  13.830  11.445
72631W        W44946  18.208  24.035   2.731
72632W        W44947   6.421  33.248   3.261
72633W        W44948   0.278  36.451   3.370
72634W        W44949   8.801  15.521   4.163
72635W        W44950  42.999  39.911   4.051
72636W        W44951   1.442  29.943  13.629
72637W        W44952  30.077   0.293   1.002
72638W        W44953  30.041  10.543   0.421
72639W        W44954  33.519   2.021  11.554
72640W        W44955   2.713  31.633  11.428
72641W        W44956  34.003   8.293   3.485
72642W        W44957  26.004  30.259  10.684
72643W        W44958  11.825  33.903  11.609
72644W        W44959  29.055   7.369  12.355
72645W        W44960  36.815  35.584   2.674
72646W        W44961  33.574   7.474  10.757
72647W        W44962  28.392  38.023  13.000
72648W        W44963  39.430  33.618  10.608
72649W        W44964  40.974  18.622   2.857
72650W        W44965   3.848  24.273  14.880
72651W        W44966   3.318   4.932  12.981
72652W        W44967   8.741  25.669  12.851
72653W        W44968  28.833  31.609  12.420
72654W        W44969  18.780  36.177   0.846
72655W        W44970   9.377  38.101   0.752
72656W        W44971  40.788  10.193  14.012
72657W        W44972  20.079  12.175   4.712
72658W        W44973  44.195  37.910   3.316
72659W        W44974   6.794  33.195   4.046
72660W        W44975   9.892  43.890  10.901
72661W        W44976  31.839  21.000  14.812
72662W        W44977  42.327  22.575  10.756
72663W        W44978  41.853  19.731   2.533
72664W        W44979   4.262  44.010   1.009
72665W        W44980   5.113   5.361   0.616
72666W        W44981  34.948  31.086  10.715
72667W        W44982  20.867  13.963   3.253
72668W        W44983  32.793  34.669  11.361
72669W        W44984  12.274   9.614   4.477
72670W        W44985  43.569  22.267  12.468
72671W        W44986  42.491  29.839  12.088
72672W        W44987  33.641  23.918   0.757
72673W        W44988  23.718  44.399  13.002
72674W        W44989  39.787  23.382  10.221
72675W        W44990   1.307  42.802   0.526
72676W        W44991  41.739  28.159  12.877
72677W        W44992  42.125  26.785   4.218
72678W        W44993  20.184  22.260   1.884
72679W        W44994   2.379  16.663  13.822
72680W        W44995   5.324  19.007   4.183
72681W        W44996   9.171  14.171  12.577
72682W        W44997  13.413  44.524   3.680
72683W        W44998   4.347  19.469   4.958
72684W        W44999  43.222  16.290  13.935
72685W        W45000  21.030  44.311  14.618
72686W        W45001  11.963  29.558   4.933
72687W        W45002  34.404   9.470   4.644
72688W        W45003  25.613  14.780   4.058
72689W        W45004  28.613  33.638  10.184
72690W        W45005   9.796  39.379  10.681
72691W        W45006  23.723  28.839  14.884
72692W        W45007  18.517  23.426   0.887
72693W        W45008   7.792  22.014   3.839
72694W        W45009   7.694   2.295  12.216
72695W        W45010  26.944   8.968   0.531
72696W        W45011  32.454  31.622  12.107
72697W        W45012   8.768  14.522   1.219
72698W        W45013  29.897  37.037   2.806
72699W        W45014  44.050  29.742   2.699
72700W        W45015  33.145   4.519  11.515
72701W        W45016   6.805  40.093   3.599
72702W        W45017  20.719  16.255   4.591
72703W        W45018  43.442  39.389   3.075
72704W        W45019  34.558   2.479  13.829
72705W        W45020  42.656  20.498   3.389
72706W        W45021  39.008  30.643   2.298
72707W        W45022   8.166  14.166  14.302
72708W        W45023  39.082  20.802  12.515
72709W        W45024  29.161  22.020   3.577
72710W        W45025  10.820  36.966  14.294
72711W        W45026   7.543  32.140   4.303
72712W        W45027  10.574  26.881  11.552
72713W        W45028   7.727  43.019   2.330
72714W        W45029  44.795  14.703   4.316
72715W        W45030  42.988  16.200  12.505
72716W        W45031   1.726  13.777  10.771
72717W        W45032   7.896  10.278   1.193
72718W        W45033   8.749  25.734   1.270
72719W        W45034   5.377  42.425  14.300
72720W        W45035  28.399  34.425  13.462
72721W        W45036  27.961  35.928   4.259
72722W        W45037  33.820  32.971   4.532
72723W        W45038  38.919  33.586   5.118
72724W        W45039  29.175  42.136   1.749
72725W        W45040  35.991   4.966   4.796
72726W        W45041  12.828  19.530  12.533
72727W        W45042  25.913  41.271   1.295
72728W        W45043  27.829  40.765  13.503
72729W        W45044  28.577  11.846  12.577
72730W        W45045  25.449  12.249   1.349
72731W        W45046  43.880  11.442  12.463
72732W        W45047  27.545  36.475  14.373
72733W        W45048  18.651   3.702  13.057
72734W        W45049  10.643  31.005  12.662
72735W        W45050  32.006  10.663   2.329
72736W        W45051   1.437   7.865   1.252
72737W        W45052   2.693  31.588   0.384
72738W        W45053  22.821  35.396   3.675
72739ION    NA+45054  15.622   3.291   4.645
72740ION    NA+45055   5.176  20.057   0.040
72741ION    NA+45056  14.139   9.049  11.816
72742ION    NA+45057  28.194  37.511  14.197
72743ION    NA+45058  15.461   5.857  14.903
72744ION    NA+45059  40.720  20.666  11.149
72745ION    NA+45060  28.038  30.409   0.297
72746ION    NA+45061  27.549   6.325   1.997
72747ION    NA+45062  42.025   1.296  10.767
72748ION    NA+45063  38.621  33.845  13.296
72749ION    NA+45064   1.430  11.590   4.548
72750ION    NA+45065  21.198  24.183  14.215
72751ION    NA+45066   0.348  36.080  12.378
72752ION    NA+45067  21.096  29.115   0.936
72753ION    NA+45068  11.791   3.340   2.337
72754ION    NA+45069  30.005  19.339   1.368
72755ION    NA+45070  27.728  10.894   1.777
72756ION    NA+45071   9.675  30.714   3.942
72757ION    NA+45072  28.399   5.184  13.426
72758ION    NA+45073   6.241  34.382  14.848
72759ION    NA+45074   3.718   3.419   3.195
72760ION    NA+45075  23.553  33.546  13.861
72761ION    NA+45076  26.699  15.339   3.234
72762ION    NA+45077  21.432  38.064  12.327
72763ION    NA+45078  29.694  44.831   4.836
72764ION    NA+45079  18.968   2.024  12.268
72765ION    NA+45080  33.504  25.042   3.651
72766ION    NA+45081  36.581  25.974   4.085
72767ION    NA+45082  11.512  37.798   2.742
72768ION    NA+45083  20.051   8.616   3.259
72769ION    NA+45084  29.843  44.798   3.155
72770ION    NA+45085   2.633  34.776  11.943
72771ION    NA+45086   0.188   2.737  11.312
72772ION    NA+45087   4.638  21.165  12.356
72773ION    NA+45088  19.903  31.346  10.574
72774ION    NA+45089  16.320  34.580   3.578
72775ION    NA+45090  34.798   8.980   2.053
72776ION    NA+45091  29.636  20.331  11.604
72777ION    NA+45092  42.808  24.985   3.105
72778ION    NA+45093  20.340  14.171   4.072
72779ION    NA+45094  27.177  40.225   4.390
72780ION    NA+45095   2.611  15.961   2.990
72781ION    NA+45096  33.413  41.737   0.913
72782ION    NA+45097  26.295   3.524   0.526
72783ION    NA+45098  43.569  10.014   0.111
72784ION    NA+45099  20.624  32.633  13.299
72785ION    NA+45100  42.478  12.923   0.796
72786ION    NA+45101  27.283  40.203   0.494
72787ION    NA+45102  38.522  38.752  14.185
72788ION    NA+45103  29.596  28.356  13.151
72789ION    NA+45104  17.697  34.437   1.416
72790ION    NA+45105   2.438  26.240  13.173
72791ION    NA+45106  22.199   6.832  13.338
72792ION    NA+45107   3.817  43.193   2.609
72793ION    NA+45108  24.757  31.025  14.340
72794ION    NA+45109   3.586  27.337  12.284
72795ION    NA+45110   4.266  37.418   1.295
72796ION    NA+45111   8.587  41.828   0.109
72797ION    NA+45112  22.826  18.245   1.711
72798ION    NA+45113  44.840  15.244  12.843
72799ION    NA+45114  23.455  30.724   0.148
72800ION    NA+45115  19.752  43.354   0.690
72801ION    NA+45116   0.927   6.749  10.711
72802ION    NA+45117   2.864   7.249  10.915
72803ION    NA+45118  18.944   3.285  14.097
72804ION    NA+45119  34.736  31.543  14.550
72805ION    NA+45120  16.102  31.595   2.775
72806ION    NA+45121  44.348  17.726  13.170
72807ION    NA+45122   9.290  13.712  10.598
72808ION    NA+45123  30.459  22.303   2.945
72809ION    NA+45124  39.588  27.070   1.861
72810ION    NA+45125   8.935   9.861  11.463
72811ION    NA+45126  28.086  19.500   9.832
72812ION    NA+45127   4.752  44.584  11.763
72813ION    NA+45128   2.448  39.823  13.742
72814ION    NA+45129  35.312   5.027  13.446
72815ION    NA+45130  25.770   4.522  12.907
72816ION    NA+45131  14.357  35.853   0.537
72817ION    NA+45132  16.688  16.160  11.846
72818ION    NA+45133  33.450   4.480   3.987
72819ION    NA+45134   6.831  30.366  13.519
72820ION    NA+45135   7.302  26.029   5.262
72821ION    NA+45136  34.468  20.726   3.275
72822ION    NA+45137   6.194  10.095   4.126
72823ION    NA+45138   1.373   4.728   0.180
72824ION    NA+45139   1.361   6.792   0.659
72825ION    NA+45140  35.875   7.568  14.269
72826ION    NA+45141  28.517  34.157  10.081
72827ION    NA+45142  34.072  12.248   3.657
72828ION    NA+45143  23.858   6.315  10.751
72829ION    NA+45144  41.566   6.003  11.125
72830ION    NA+45145  12.238  15.471  11.205
72831ION    NA+45146  39.784  13.704   2.552
72832ION    NA+45147   8.866   7.068  11.163
72833ION    NA+45148   9.268  16.686   4.883
72834ION    NA+45149  41.973  19.486   0.744
72835ION    NA+45150   5.325   0.059  12.502
72836ION    NA+45151  34.266  27.504  13.038
72837ION    NA+45152   8.557  30.577  13.317
72838ION    NA+45153   3.467   2.758  14.724
72839ION    NA+45154  27.437   9.294  10.651
72840ION    NA+45155  24.495  25.938  10.776
72841ION    NA+45156  37.435  10.727  12.056
72842ION    NA+45157   6.186  13.716   3.655
72843ION    NA+45158  16.555  42.640  12.848
72844ION    NA+45159  37.048  32.645   1.401
72845ION    NA+45160  21.051   9.180  10.866
72846ION    NA+45161  14.772  29.934   1.447
72847ION    NA+45162  14.729  44.548  12.399
72848ION    NA+45163  14.783  42.769  10.187
72849ION    NA+45164  27.092   0.790   4.508
72850ION    NA+45165  11.759  25.030   0.936
72851ION    NA+45166   6.134  18.630   3.248
72852ION    NA+45167  13.933   2.096   0.791
72853ION    NA+45168  13.910  39.022   3.055
72854ION    NA+45169  41.097  19.195  13.269
72855ION    NA+45170  36.331  35.843   5.192
72856ION    NA+45171  22.303  42.161  11.881
72857ION    NA+45172  20.516  31.056   3.598
72858ION    NA+45173  21.490   6.166  12.859
72859ION    NA+45174   7.449  11.605  13.392
72860ION    NA+45175  35.476  31.104  10.691
72861ION    NA+45176  37.069  15.155   4.175
72862ION    NA+45177  41.671  43.893  11.712
72863ION    NA+45178  29.123  18.379  12.960
72864ION    NA+45179  11.384  18.097  14.521
72865ION    NA+45180  21.553  41.319  12.522
72866ION    NA+45181  10.561  15.611   9.870
72867ION    NA+45182  19.663  33.492   0.925
72868ION    NA+45183   5.913  32.865  12.590
72869ION    NA+45184  19.620  15.368  10.440
72870ION    NA+45185  41.683  20.844  12.243
72871ION    NA+45186  38.621  14.319  13.418
72872ION    NA+45187  33.165  26.349  13.936
72873ION    NA+45188  42.318  39.608  12.388
72874ION    NA+45189  42.430   8.288   3.599
72875ION    NA+45190   4.704  16.112  14.811
72876ION    NA+45191  43.500  43.465  13.109
72877ION    NA+45192   9.460  16.446   0.042
72878ION    NA+45193  18.098  30.211   5.087
72879ION    NA+45194  19.785  39.571  12.369
72880ION    NA+45195  41.080  34.558   4.043
72881ION    NA+45196  16.492   2.152   0.101
72882ION    NA+45197  36.585  43.118   0.028
72883ION    NA+45198  37.596  24.977   4.690
72884ION    NA+45199  35.703  42.711   4.037
72885ION    NA+45200  32.391  32.347   0.855
72886ION    NA+45201   3.718   4.463  10.162
72887ION    NA+45202  23.222  44.977   0.774
72888ION    NA+45203   5.609  24.751   0.335
72889ION    NA+45204  30.848  13.818  10.699
72890ION    NA+45205  44.131  30.202   4.083
72891ION    NA+45206   7.655  10.906   4.270
72892ION    NA+45207  27.484  18.972   0.547
72893ION    NA+45208   1.998   5.390  14.091
72894ION    NA+45209  28.482  20.784  13.233
72895ION    NA+45210  38.087  43.380   3.632
72896ION    NA+45211  13.415  31.532  13.588
72897ION    NA+45212  15.423  13.111  10.726
72898ION    NA+45213  13.183  44.326   4.177
72899ION    NA+45214  26.696  34.021   2.251
72900ION    NA+45215  38.436  13.482  13.158
72901ION    NA+45216  13.771   6.817   2.629
72902ION    NA+45217  44.477  28.495  11.847
72903ION    NA+45218  29.501  42.747  12.125
72904ION    NA+45219  34.776   5.719  13.180
72905ION    NA+45220   5.586  17.029   3.374
72906ION    NA+45221  34.396   6.755   2.301
72907ION    NA+45222  33.352  36.559  14.872
72908ION    NA+45223  22.991  31.252  10.684
72909ION    NA+45224  28.612  17.472  14.227
72910ION    NA+45225  16.914   4.367  12.959
72911ION    NA+45226   0.215  38.318  10.614
72912ION    NA+45227   6.786  44.751   4.773
72913ION    NA+45228   1.848  36.010  14.019
72914ION    NA+45229  38.250  18.951  12.152
72915ION    NA+45230  34.695  17.003  12.540
72916ION    NA+45231  29.847  13.000   4.458
72917ION    NA+45232  10.379  29.104  10.822
72918ION    NA+45233  38.121  38.085   0.909
72919ION    NA+45234  24.900  19.992   2.689
72920ION    NA+45235  21.350   9.562   0.239
72921ION    NA+45236  10.382  11.881   1.925
72922ION    NA+45237  13.222   7.067   5.153
72923ION    NA+45238   3.133  20.783  11.306
72924ION    NA+45239  22.781  18.163  11.026
72925ION    NA+45240  11.970   5.590   2.904
72926ION    NA+45241  19.237  30.648  12.406
72927ION    NA+45242  13.655  25.199  11.292
72928ION    NA+45243  44.850  12.370   3.309
72929ION    NA+45244  41.351  38.010   4.171
72930ION    NA+45245   9.122  37.363  10.767
72931ION    NA+45246  22.692  37.610   2.397
72932ION    NA+45247   6.039   8.666   4.223
72933ION    NA+45248  39.294  28.308   4.672
72934ION    NA+45249   3.266  26.457  13.957
72935ION    NA+45250  25.035  41.603  13.492
72936ION    NA+45251  18.246  10.859  14.963
72937ION    NA+45252  22.269  17.240   1.218
72938ION    NA+45253  11.171  29.704   2.206
72939ION    NA+45254  21.094  10.283  13.530
72940ION    NA+45255   3.777  19.623   0.829
72941ION    NA+45256  43.315  21.103   0.030
72942ION    NA+45257  32.118  42.542  11.816
72943ION    NA+45258  17.074   7.178   1.858
72944ION    NA+45259  36.312  14.184  11.066
72945ION    NA+45260  24.026  22.667   0.515
72946ION    NA+45261  13.450   1.466   1.399
72947ION    NA+45262   8.082  12.132  11.198
72948ION    NA+45263  32.475  40.606   4.381
72949ION    NA+45264  32.757  16.507   3.564
72950ION    NA+45265   5.346  18.094  11.685
72951ION    NA+45266  36.272  19.169   2.600
72952ION    NA+45267  11.440  44.677  14.029
72953ION    NA+45268   1.490  43.478  10.707
72954ION    NA+45269  20.687  12.658   4.264
72955ION    NA+45270  14.826   0.319  10.931
72956ION    NA+45271  26.838  21.516   4.115
72957ION    NA+45272   9.434  18.530   3.230
72958ION    NA+45273  13.617   6.429  12.009
72959ION    NA+45274  16.742  34.138  13.079
72960ION    NA+45275  31.834  24.323  11.587
72961ION    NA+45276   9.399   6.253  12.770
72962ION    NA+45277  36.126   6.275  12.816
72963ION    NA+45278  24.507  19.563   4.124
72964ION    NA+45279  19.706  12.679  13.761
72965ION    NA+45280  33.525  28.976  11.440
72966ION    NA+45281  37.965  35.120   1.856
72967ION    NA+45282  25.540  13.605  12.605
72968ION    NA+45283   6.198  23.311   1.943
72969ION    NA+45284  39.450   6.724  13.826
72970ION    NA+45285   5.597   2.045  12.351
72971ION    NA+45286   1.172  11.677  11.955
72972ION    NA+45287  37.661  20.867  14.267
72973ION    NA+45288  31.389  33.784  13.098
72974ION    NA+45289  35.385   8.699  10.442
72975ION    NA+45290  11.467  24.420   3.116
72976ION    NA+45291  41.171  30.697   2.704
72977ION    NA+45292  18.889   4.504  11.128
72978ION    NA+45293   7.906  33.441  11.585
72979ION    NA+45294  28.049  38.422   1.627
72980ION    NA+45295   5.590  39.325  13.830
72981ION    NA+45296   1.610  42.516   2.629
72982ION    NA+45297  10.661  37.179   1.666
72983ION    NA+45298   3.502  33.140  12.229
72984ION    NA+45299  27.684  19.255  10.868
72985ION    NA+45300  30.883  28.931   3.404
72986ION    NA+45301  32.656  28.360  13.014
72987ION    NA+45302   1.344  16.614  12.816
72988ION    NA+45303  32.774  19.723  11.145
72989ION    NA+45304  11.169   2.417  13.519
72990ION    NA+45305   7.107  38.048  13.069
72991ION    NA+45306  14.540  16.182   0.655
72992ION    NA+45307  10.194  16.960  14.599
72993ION    NA+45308  30.177  37.807   2.545
72994ION    NA+45309  14.373  12.812  12.027
72995ION    NA+45310  10.780  44.893   0.317
72996ION    NA+45311  35.600  42.475   1.707
72997ION    NA+45312  41.300   6.604   0.808
72998ION    NA+45313  44.044  43.896   1.400
72999ION    NA+45314   8.917  24.534   2.571
73000ION    NA+45315  26.294  38.444   4.367
73001ION    NA+45316  34.100  32.155   2.317
73002ION    NA+45317  40.612  26.296   2.350
73003ION    NA+45318  34.365  17.414   1.157
73004ION    NA+45319  10.504  18.984   4.106
73005ION    NA+45320  20.075  32.140   1.651
73006ION    NA+45321  41.409  31.655  10.612
73007ION    NA+45322  42.364  28.294   3.213
73008ION    NA+45323  32.405  37.387   4.551
73009ION    NA+45324  31.308  10.033   4.168
73010ION    NA+45325  13.008  37.294   2.249
73011ION    NA+45326  12.999  32.139  14.618
73012ION    NA+45327  37.415  13.287  12.181
73013ION    NA+45328   3.140  28.128   3.157
73014ION    NA+45329   0.672   7.886  11.560
73015ION    NA+45330  37.606  18.761   1.465
73016ION    NA+45331  41.557  33.320   3.175
73017ION    NA+45332  12.684  13.759  13.730
73018ION    NA+45333   8.906  27.565  10.635
73019ION    NA+45334  16.227   7.735   0.347
73020ION    NA+45335  34.459  17.838  13.038
73021ION    NA+45336   3.347  24.278   4.657
73022ION    NA+45337   2.007  16.833   4.095
73023ION    NA+45338   8.891  38.719   4.835
73024ION    NA+45339  27.595  16.432  13.650
73025ION    NA+45340  43.606  44.896  11.239
73026ION    NA+45341  39.361  31.360   4.500
73027ION    NA+45342  19.610  38.089   2.284
73028ION    NA+45343  12.082  41.882   3.479
73029ION    NA+45344  18.031   5.455  14.318
73030ION    NA+45345  37.399  40.367   5.243
73031ION    NA+45346  44.608   2.602  11.955
73032ION    NA+45347  17.320  17.554   0.205
73033ION    NA+45348   4.472  29.269  12.990
73034ION    NA+45349  41.978  17.328  11.360
73035ION    NA+45350  15.860  43.316  11.543
73036ION    NA+45351  20.976  12.106   0.324
73037ION    NA+45352  30.207  10.307   1.247
73038ION    NA+45353  40.590  43.407  12.594
73039ION    NA+45354   9.450  43.612  10.845
73040ION    NA+45355  10.913   3.389  11.184
73041ION    NA+45356  29.288  13.812   4.626
73042ION    NA+45357   4.946  21.234   1.292
73043ION    NA+45358  25.104  22.474  14.817
73044ION    NA+45359  44.589  42.475   3.410
73045ION    NA+45360  34.530  34.061  14.019
73046ION    NA+45361  27.840  32.104   0.271
73047ION    NA+45362  13.268  25.134   0.888
73048ION    NA+45363  42.364  13.304   1.925
73049ION    NA+45364  25.743  10.060   1.240
73050ION    NA+45365  38.848  41.778   4.606
73051ION    NA+45366   3.863  18.047  11.295
73052ION    NA+45367   7.941  14.656   1.780
73053ION    NA+45368  29.088  38.152  12.546
73054ION    NA+45369  16.236  21.558   2.294
73055ION    NA+45370  43.528  38.507   0.281
73056ION    NA+45371  32.043  30.400   0.557
73057ION    NA+45372  41.041  16.245  12.501
73058ION    NA+45373  22.766  28.997  14.738
73059ION    NA+45374  33.861  16.405  11.391
73060ION    NA+45375  14.874  42.475  14.310
73061ION    NA+45376  41.867  42.533  12.539
73062ION    NA+45377  43.130  25.886   1.039
73063ION    NA+45378  43.976  32.026  12.481
73064ION    NA+45379  22.559  18.037  11.993
73065ION    NA+45380  29.173  22.023  12.933
73066ION    NA+45381  21.564  27.112   1.037
73067ION    NA+45382  37.893  14.716   2.880
73068ION    NA+45383  24.334  13.103   0.271
73069ION    NA+45384  31.565  43.806   2.460
73070ION    NA+45385   9.300  34.401  10.993
73071ION    NA+45386  23.628  33.891   0.714
73072ION    NA+45387   3.644  31.394  14.233
73073ION    NA+45388  31.533  23.486   2.323
73074ION    NA+45389  24.940  18.621  11.155
73075ION    NA+45390  13.939  41.534  11.822
73076ION    NA+45391  18.833  30.457  14.890
73077ION    NA+45392  33.915  19.037  11.583
73078ION    NA+45393   0.679  18.302   1.323
73079ION    NA+45394   6.904  15.153  13.585
73080ION    NA+45395  35.829   3.770   2.831
73081ION    NA+45396  15.610  12.183  13.289
73082ION    NA+45397  21.065  11.825  14.369
73083ION    NA+45398  17.771  11.286   3.157
73084ION    NA+45399  11.605  36.595   3.429
73085ION    NA+45400  28.926  34.262   2.434
73086ION    NA+45401   5.938   9.903  13.009
73087ION    NA+45402  18.627   4.859  13.515
73088ION    NA+45403  27.603   3.186  12.646
73089ION    NA+45404   7.075  32.476   3.160
73090ION    NA+45405   2.774  21.170  13.111
73091ION    NA+45406  10.747  11.253  10.825
73092ION    NA+45407  19.891   3.733  14.029
73093ION    NA+45408   0.545  33.280  11.314
73094ION    NA+45409  38.735   4.462  14.334
73095ION    NA+45410   6.674  41.241  12.820
73096ION    NA+45411  15.723  38.336   0.910
73097ION    NA+45412  31.065  38.565   1.909
73098ION    NA+45413  22.280  28.249   1.926
73099ION    NA+45414  43.815  30.422   1.191
73100ION    NA+45415  38.991  15.714   4.830
73101ION    NA+45416  17.259  39.983   2.702
73102ION    NA+45417   5.080  11.723   3.676
73103ION    NA+45418  19.371  12.331  12.689
73104ION    NA+45419   5.819   2.336   0.480
73105ION    NA+45420   6.038  24.900   9.839
73106ION    NA+45421  40.942  25.696  13.030
73107ION    NA+45422   6.449  37.799  10.535
73108ION    NA+45423  37.147  24.353   5.331
73109ION    NA+45424  35.558  37.554  13.853
73110ION    NA+45425  18.508  38.109   4.654
73111ION    NA+45426  26.511  42.896  12.274
73112ION    NA+45427   3.196  40.367   3.821
73113ION    NA+45428  14.990   8.567  12.446
73114ION    NA+45429  39.771  23.493   0.600
73115ION    NA+45430   0.301  39.112  11.216
73116ION    NA+45431  22.923  22.198  12.467
73117ION    NA+45432   8.731   5.883   3.402
73118ION    NA+45433   2.061  44.938  11.491
73119ION    NA+45434  33.496  29.105   0.731
73120ION    NA+45435   0.450  35.987   3.578
73121ION    NA+45436  36.708  15.843  13.401
73122ION    NA+45437  19.845  31.263   1.735
73123ION    NA+45438  15.691  18.392  11.437
73124ION    NA+45439  12.278  44.823   2.823
73125ION    NA+45440  42.660  30.221  13.124
73126ION    NA+45441  28.941  20.890   4.236
73127ION    NA+45442  35.053   4.323   3.664
73128ION    NA+45443  16.577  44.108   1.117
73129ION    NA+45444   1.320  25.711   0.284
73130ION    NA+45445  17.573   8.584   4.131
73131ION    NA+45446  25.850  37.110  11.290
73132ION    NA+45447   6.089   5.176  12.799
73133ION    NA+45448  14.217  43.834   2.751
73134ION    NA+45449   7.262   6.422  10.705
73135ION    NA+45450  34.007  41.428  11.369
73136ION    NA+45451  10.333  17.031  13.222
73137ION    NA+45452  33.542  29.945  12.112
73138ION    NA+45453  15.629  37.977  13.339
73139ION    NA+45454  29.651  11.330  14.118
73140ION    NA+45455   5.663  24.974   1.669
73141ION    NA+45456  22.162  16.943   3.319
73142ION    NA+45457  37.177  19.100  10.417
73143ION    NA+45458  43.049  29.939  10.814
73144ION    NA+45459   1.480  43.516  12.806
73145ION    NA+45460  15.658  24.675  11.536
73146ION    NA+45461  34.204  29.911  14.919
73147ION    NA+45462  36.836   3.385  11.759
73148ION    NA+45463  43.369   6.413  10.656
73149ION    NA+45464   2.953  13.488   1.621
73150ION    NA+45465  35.059  12.708   4.293
73151ION    NA+45466  20.327  37.973  13.253
73152ION    NA+45467  27.984  33.550   1.378
73153ION    NA+45468  13.764  17.242   2.360
73154ION    NA+45469  30.003  11.839  14.965
73155ION    NA+45470  20.770  38.307   1.713
73156ION    NA+45471  32.137  23.227   0.586
73157ION    NA+45472   5.283  12.602   2.863
73158ION    NA+45473  33.083  44.274   0.359
73159ION    NA+45474  10.261  44.069   4.033
73160ION    NA+45475  15.277  22.570   2.722
73161ION    NA+45476  39.266  14.753   4.850
73162ION    NA+45477   1.614  42.608  12.667
73163ION    NA+45478  22.138  10.186  10.702
73164ION    NA+45479  25.599  17.257   1.206
73165ION    NA+45480  16.767  21.235   0.295
73166ION    NA+45481  41.260  44.251  14.919
73167ION    NA+45482  38.773   5.136  11.565
73168ION    NA+45483  22.300   6.411   0.936
73169ION    NA+45484  14.753  30.582  13.965
73170ION    NA+45485  43.295  12.944   1.853
73171ION    NA+45486  36.375  42.131  11.059
73172ION    NA+45487  40.842  44.441  12.448
73173ION    NA+45488  31.184  17.699  12.017
73174ION    NA+45489   8.770  10.362  10.322
73175ION    NA+45490  42.045  43.410  10.667
73176ION    NA+45491  17.536  35.530  12.787
73177ION    NA+45492  10.067   8.649   2.380
73178ION    NA+45493  18.437  24.694   2.668
73179ION    NA+45494   4.186  14.668   3.660
73180ION    NA+45495  19.915  15.763   3.635
73181ION    NA+45496   3.736  15.601   0.875
73182ION    NA+45497  36.262  21.870   1.280
73183ION    NA+45498   4.008   6.176  10.957
73184ION    NA+45499  37.841  22.141   1.033
73185ION    NA+45500  22.563  43.300  13.666
73186ION    NA+45501  42.252  44.177   0.026
73187ION    NA+45502   1.005   5.775   4.423
73188ION    NA+45503  38.725  12.961   3.205
73189ION    NA+45504   2.450  22.639   4.851
73190ION    NA+45505  38.744   4.518   4.123
73191ION    NA+45506  33.464  43.498  14.233
73192ION    NA+45507  30.945  29.979  12.987
73193ION    NA+45508  27.469  35.777   4.190
73194ION    NA+45509  21.435  26.237   1.191
73195ION    NA+45510  21.128  25.728  10.694
73196ION    NA+45511  25.486   8.143  11.272
73197ION    NA+45512  34.425  23.330   1.451
73198ION    NA+45513  21.619  13.333   0.736
73199ION    NA+45514  19.235   0.707   0.391
73200ION    NA+45515  12.664   2.462   1.195
73201ION    NA+45516   5.848  29.446   4.575
73202ION    NA+45517   3.025  12.883  13.464
73203ION    NA+45518  40.914   4.359  14.401
73204ION    NA+45519  15.314  37.169   3.597
73205ION    NA+45520  29.584  31.117   3.497
73206ION    NA+45521  22.109   3.366   3.120
73207ION    NA+45522  30.582  13.837   3.604
73208ION    NA+45523  11.082   5.165   2.716
73209ION    NA+45524   0.310  17.026   2.861
73210ION    NA+45525  14.130  26.737   2.140
73211ION    NA+45526  15.359   2.153  12.299
73212ION    NA+45527  32.351  17.054   0.102
73213ION    NA+45528  30.547   6.164   1.253
73214ION    NA+45529  20.255   5.704   3.304
73215ION    NA+45530  14.675   2.044  13.154
73216ION    NA+45531  31.968  13.668  14.397
73217ION    NA+45532   5.374  39.108  12.539
73218ION    NA+45533  26.162   9.157  11.695
73219ION    NA+45534  11.653  43.015  12.242
73220ION    NA+45535   8.309  19.037  11.718
73221ION    NA+45536   8.397  14.136  12.954
73222ION    NA+45537  12.941  39.223   2.688
73223ION    NA+45538  28.488  40.686  12.779
73224ION    NA+45539  38.942  14.744   3.970
73225ION    NA+45540  18.311  25.667  14.466
73226ION    NA+45541  14.906  37.717   3.180
73227ION    NA+45542   5.831   3.339   2.175
73228ION    NA+45543  18.673  40.576  10.290
73229ION    NA+45544   7.459  17.830   4.419
73230ION    NA+45545  10.832  42.985   4.097
73231ION    NA+45546  37.505  44.243  11.758
73232ION    NA+45547  21.992   2.323   3.247
73233ION    NA+45548  34.757  28.681  13.374
73234ION    NA+45549  30.372  10.381   4.234
73235ION    NA+45550   4.403   2.896  12.143
73236ION    NA+45551  26.933  13.470  11.685
73237ION    NA+45552  17.645  31.816  11.608
73238ION    NA+45553  39.820  40.571   4.180
73239ION    NA+45554  24.982  10.225  11.528
73240ION    NA+45555  27.555  22.979   0.959
73241ION    NA+45556  36.347  19.042  13.589
73242ION    NA+45557  15.946  25.883   2.343
73243ION    NA+45558  43.435  28.454   1.677
73244ION    NA+45559  26.215  30.387  13.909
73245ION    NA+45560  41.720  22.363   5.001
73246ION    NA+45561  44.419  43.071  13.529
73247ION    NA+45562  14.569   3.946   3.098
73248ION    NA+45563  24.766  26.440   4.967
73249ION    NA+45564  40.334  21.287   1.214
73250ION    NA+45565  38.556  25.325   3.081
73251ION    NA+45566   6.523  38.733  12.979
73252ION    NA+45567  22.703  13.807   3.525
73253ION    NA+45568  12.202   0.743  14.350
73254ION    NA+45569  18.539  33.587   4.160
73255ION    NA+45570  12.413  12.856   1.194
73256ION    NA+45571  12.906  38.372  12.891
73257ION    NA+45572  11.874  31.039  12.008
73258ION    NA+45573  25.875  32.735  11.296
73259ION    NA+45574  25.906  35.790  14.081
73260ION    NA+45575   3.787   6.209   1.532
73261ION    NA+45576  11.713   1.163  13.392
73262ION    NA+45577   0.604  11.851   2.354
73263ION    NA+45578  20.922  34.959  12.690
73264ION    NA+45579  21.152  34.059  10.791
73265ION    NA+45580   4.439   9.834   3.319
73266ION    NA+45581  33.851  40.761  13.849
73267ION    NA+45582   8.099  30.603  12.428
73268ION    NA+45583  41.773  15.306   0.352
73269ION    NA+45584  44.782  19.120  14.073
73270ION    NA+45585  41.813   8.448  14.572
73271ION    NA+45586   6.923  29.060  12.086
73272ION    NA+45587  12.395  16.622  12.581
73273ION    NA+45588   0.695  37.417  13.131
73274ION    NA+45589  19.911   9.060  12.265
73275ION    NA+45590  24.368  36.550  14.912
73276ION    NA+45591  11.328  38.250   0.735
73277ION    NA+45592  18.803   6.217  10.488
73278ION    NA+45593  20.273   7.873  13.525
73279ION    NA+45594  30.243  35.883  12.794
73280ION    NA+45595  42.002  40.873   0.765
73281ION    NA+45596   9.212  18.021  10.688
73282ION    NA+45597   6.920   0.173   3.569
73283ION    NA+45598  35.685  36.532   1.304
73284ION    NA+45599  30.405  43.923   3.194
73285ION    NA+45600  33.338  24.498   3.947
73286ION    NA+45601   9.018  12.957   2.132
73287ION    NA+45602  35.296  39.396  10.875
73288ION    NA+45603  34.083  18.116   1.813
73289ION    NA+45604  27.677  14.030   3.160
73290ION    NA+45605  22.217   8.204  14.814
73291ION    NA+45606  11.517  30.853  11.038
73292ION    NA+45607  23.965   4.281  12.608
73293ION    NA+45608  43.738  31.096  13.084
73294ION    NA+45609  14.663   9.936  11.548
73295ION    NA+45610  20.830  19.188  10.987
73296ION    NA+45611  19.573   4.654  14.371
73297ION    NA+45612  42.713  15.683   3.230
73298ION    NA+45613   2.442  43.942   2.431
73299ION    NA+45614  29.904  33.851   3.272
73300ION    NA+45615  17.718  38.726   4.519
73301ION    NA+45616  16.921   2.382  11.302
73302ION    NA+45617  43.303  13.373  13.374
73303ION    NA+45618   1.350  19.829   4.756
73304ION    NA+45619   5.189  17.294  11.096
73305ION    NA+45620  34.944  22.677  12.157
73306ION    NA+45621  19.708  24.039  11.696
73307ION    NA+45622  10.491  23.625   4.466
73308ION    NA+45623   6.029  23.713  12.476
73309ION    NA+45624  18.642   1.943   3.178
73310ION    NA+45625  20.276  30.388  10.958
73311ION    NA+45626  34.439   0.510   2.758
73312ION    NA+45627  16.524  19.195  11.999
73313ION    NA+45628  37.347  28.559  13.013
73314ION    NA+45629  26.889  20.032   3.250
73315ION    NA+45630  41.390  43.995   1.133
73316ION    NA+45631  17.584  19.848  14.971
73317ION    NA+45632  13.160  27.245  10.620
73318ION    NA+45633   0.442  36.453  14.870
73319ION    NA+45634  17.523  40.383  14.838
73320ION    NA+45635   6.546   9.602   0.935
73321ION    NA+45636  18.510  20.715   3.403
73322ION    NA+45637  36.185  37.443   0.788
73323ION    NA+45638  30.907   7.721   0.714
73324ION    NA+45639  10.995   7.250  12.918
73325ION    NA+45640  31.402  17.865   1.230
73326ION    NA+45641  39.338  12.848   1.033
73327ION    NA+45642  13.835  31.110  12.710
73328ION    NA+45643  42.797  35.292  12.761
73329ION    NA+45644  29.589  40.355   2.700
73330ION    NA+45645  40.671  31.274  10.933
73331ION    NA+45646  26.346  26.509  13.408
73332ION    NA+45647  21.570  43.277  14.311
73333ION    NA+45648  13.372  19.606  14.676
73334ION    NA+45649  14.240  17.770  12.297
73335ION    NA+45650   6.875  10.979  11.833
73336ION    NA+45651  32.420  12.456   2.417
73337ION    NA+45652   0.909  33.199   4.586
73338ION    NA+45653   5.271  20.600   1.994
73339ION    NA+45654  35.309  19.286  11.568
73340ION    NA+45655  19.872   1.063  10.987
73341ION    NA+45656  41.959  40.828  12.107
73342ION    NA+45657  11.869  43.390   2.019
73343ION    NA+45658   7.987  22.548  12.211
73344ION    NA+45659   7.296  39.831  11.819
73345ION    NA+45660  40.052  37.634   0.043
73346ION    NA+45661  22.048  43.086  10.726
73347ION    NA+45662  44.434  32.024   2.033
73348ION    NA+45663   6.762  22.101   3.276
73349ION    NA+45664  35.323   5.984   3.256
73350ION    NA+45665  18.895   7.015   2.658
73351ION    NA+45666   5.555  12.748   4.471
73352ION    NA+45667  39.772  43.784  11.095
73353ION    NA+45668  29.841  40.083  11.976
73354ION    NA+45669  34.654  16.496   1.774
73355ION    NA+45670   8.914  43.142   0.412
73356ION    NA+45671  37.941  27.376   4.454
73357ION    NA+45672  28.663  19.221   4.028
73358ION    NA+45673  42.464  43.920   4.454
73359ION    NA+45674  14.576   3.424   9.720
73360ION    NA+45675  21.850  12.733   2.664
73361ION    NA+45676  28.133  15.641   4.695
73362ION    NA+45677  25.294   9.278   1.737
73363ION    NA+45678   1.016  39.069   4.018
73364ION    NA+45679   4.851  43.767   0.663
73365ION    NA+45680  19.114  28.554  10.084
73366ION    NA+45681  23.017   2.305  13.575
73367ION    NA+45682   5.341  34.143   0.309
73368ION    NA+45683  22.427  15.306  12.794
73369ION    NA+45684   3.236  26.436   4.532
73370ION    NA+45685  10.541  12.161   4.456
73371ION    NA+45686  18.030   6.492   4.114
73372ION    NA+45687  32.590  44.546  14.684
73373ION    NA+45688  34.472  34.071  12.133
73374ION    NA+45689  22.793  22.758   3.182
73375ION    NA+45690  17.028   3.999  10.300
73376ION    NA+45691   1.733  18.343   4.565
73377ION    NA+45692  37.963  36.092   0.798
73378ION    NA+45693  39.647  24.566  12.420
73379ION    NA+45694   6.603  12.087   1.554
73380ION    NA+45695  16.191  39.589  11.370
73381ION    NA+45696   7.258  37.834   2.860
73382ION    NA+45697   4.449  29.546   0.406
73383ION    NA+45698   0.449  29.562  11.959
73384ION    NA+45699  31.959  17.671  11.385
73385ION    NA+45700  37.680  40.220  13.716
73386ION    NA+45701   4.838  25.038   1.310
73387ION    NA+45702  19.171  25.404  13.916
73388ION    NA+45703  23.759  29.217  14.526
73389ION    NA+45704  11.780   5.559   4.790
73390ION    NA+45705   4.163  24.902   3.121
73391ION    NA+45706  26.715  16.822  11.918
73392ION    NA+45707  25.597   1.359   5.016
73393ION    NA+45708  28.253  33.769   2.800
73394ION    NA+45709   2.883  42.662  12.893
73395ION    NA+45710  24.674  29.354   1.797
73396ION    NA+45711  29.754  38.704   2.667
73397ION    NA+45712   2.239  22.562   3.953
73398ION    NA+45713  13.587  44.471  12.533
73399ION    NA+45714  10.699  18.910   3.107
73400ION    NA+45715   1.386  22.535   2.578
73401ION    NA+45716  19.638   6.643  11.525
73402ION    NA+45717  32.593  16.071  12.264
73403ION    NA+45718  25.329  18.488   3.453
73404ION    NA+45719  44.745   2.283   1.237
73405ION    NA+45720  28.104  44.258  11.676
73406ION    NA+45721  15.679  14.154   1.222
73407ION    NA+45722  36.410  37.172   4.424
73408ION    NA+45723  27.896  40.333  11.424
73409ION    NA+45724   0.605  19.685  13.953
73410ION    NA+45725  36.316  40.478  12.214
73411ION    NA+45726  31.441  41.452   4.527
73412ION    NA+45727  14.102   9.906   9.823
73413ION    NA+45728  19.335   1.377  11.770
73414ION    NA+45729   8.794   3.824  12.007
73415ION    NA+45730   0.980  34.040   3.672
73416ION    NA+45731   5.725  12.390   1.182
73417ION    NA+45732  29.903  20.607   0.916
73418ION    NA+45733  11.994  10.214  12.550
73419ION    NA+45734  22.988  19.247   3.730
73420ION    NA+45735  39.919  44.417  13.087
73421ION    NA+45736   5.492   9.450  14.248
73422ION    NA+45737  11.108  33.361   2.688
73423ION    NA+45738  18.216  18.605   3.713
73424ION    NA+45739   2.737   6.789  14.416
73425ION    NA+45740  24.714  37.862   0.520
73426ION    NA+45741  33.636  27.996   5.361
73427ION    NA+45742  15.472  15.329   4.930
73428ION    NA+45743  38.242  19.625   3.237
73429ION    NA+45744  12.381  41.275   0.148
73430ION    NA+45745  37.968  35.461  14.380
73431ION    NA+45746  25.515   9.756   2.966
73432ION    NA+45747  28.200  14.681   3.711
73433ION    NA+45748  32.953  40.081   2.762
73434ION    NA+45749  13.234   3.879  14.588
73435ION    NA+45750  11.169  19.204   5.110
73436ION    NA+45751   3.453   4.380   3.121
73437ION    NA+45752  37.103  27.570   0.679
73438ION    NA+45753  41.972  23.236  11.945
73439ION    NA+45754   7.778   7.863   1.913
73440ION    NA+45755  21.358  34.139  13.484
73441ION    NA+45756  11.716   8.788  14.075
73442ION    NA+45757  28.230  13.136  10.691
73443ION    NA+45758  10.065  26.184   2.732
73444ION    NA+45759   4.694  24.135  12.876
73445ION    NA+45760  42.962   8.189  10.607
73446ION    NA+45761   9.192  35.024  11.851
73447ION    NA+45762  37.911  31.623  12.861
73448ION    NA+45763  39.656   4.336  14.704
73449ION    NA+45764  24.743  33.423   3.843
73450ION    NA+45765   6.937  33.280   2.582
73451ION    NA+45766  15.385  21.534  13.278
73452ION    NA+45767  36.911  26.430  10.789
73453ION    NA+45768  14.080   0.266   1.490
73454ION    NA+45769  28.887  32.694  13.741
73455ION    NA+45770   4.677  10.157  11.229
73456ION    NA+45771  33.165  43.730  13.012
73457ION    NA+45772  10.765   8.260   3.113
73458ION    NA+45773   3.815  13.867   1.285
73459ION    NA+45774  22.732  41.293   0.474
73460ION    NA+45775  28.873  39.789   2.849
73461ION    NA+45776  10.163  23.897  13.520
73462ION    NA+45777  42.527   9.380   5.115
73463ION    NA+45778  25.616  42.041   3.885
73464ION    NA+45779   8.956   6.383   4.954
73465ION    NA+45780   5.353  26.755  13.789
73466ION    NA+45781  32.406  31.157  10.353
73467ION    NA+45782  39.218   7.199  14.768
73468ION    NA+45783   6.115  20.969   2.383
73469ION    NA+45784  43.242  18.385   0.329
73470ION    NA+45785  38.232   7.181   1.896
73471ION    NA+45786  26.398  23.056  13.690
73472ION    NA+45787  26.239  33.291  13.845
73473ION    NA+45788  42.428   6.727  11.902
73474ION    NA+45789  36.798  34.009  12.915
73475ION    NA+45790  39.401  24.026  10.290
73476ION    NA+45791  27.739  43.013  10.777
73477ION    NA+45792  11.285  24.144  14.489
73478ION    NA+45793  33.307  22.765   3.188
73479ION    NA+45794   1.950  20.076  13.840
73480ION    NA+45795  39.085  35.029  14.907
73481ION    NA+45796  20.131  30.413   2.201
73482ION    NA+45797   8.905  38.570   2.274
73483ION    NA+45798  37.242  42.354   1.274
73484ION    NA+45799  39.266  17.434   3.613
73485ION    NA+45800  13.668  30.011  14.558
73486ION    NA+45801  34.430  32.352  14.664
73487ION    NA+45802  26.994  33.179  10.056
73488ION    NA+45803  14.465  22.341   4.512
73489ION    NA+45804  22.139  39.156   4.915
73490ION    NA+45805  14.453  26.466  14.260
73491ION    NA+45806  30.440  42.586  11.009
73492ION    NA+45807  35.530  15.949  14.343
73493ION    NA+45808  15.562  24.368   4.422
73494ION    NA+45809  29.084  17.879  12.070
73495ION    NA+45810  18.878  16.101  12.533
73496ION    NA+45811  20.026   9.987  11.244
73497ION    NA+45812  21.308  11.125   0.441
73498ION    NA+45813  13.416   7.120   0.529
73499ION    NA+45814  39.189  43.894  12.964
73500ION    NA+45815  14.095  27.291  13.519
73501ION    NA+45816  36.058  23.348   1.903
73502ION    NA+45817   2.757   2.013   1.922
73503ION    NA+45818   3.471  30.499  10.774
73504ION    NA+45819   0.615  23.125  11.551
73505ION    NA+45820  34.163  42.134  13.623
73506ION    NA+45821  23.223  39.833  11.728
73507ION    NA+45822  39.719  33.447  12.877
73508ION    NA+45823  17.079  26.935  11.990
73509ION    NA+45824  13.809  16.484  11.573
73510ION    NA+45825  21.850  18.781  13.114
73511ION    NA+45826  44.265  24.060  12.073
73512ION    NA+45827  23.907  36.014   3.214
73513ION    NA+45828   1.590  27.323   0.002
73514ION    NA+45829  34.709  10.324   2.663
73515ION    NA+45830  28.688  29.170  14.562
73516ION    NA+45831  12.998  33.500   2.846
73517ION    NA+45832  22.458   1.933  11.166
73518ION    NA+45833   7.176  22.647   0.005
73519ION    NA+45834  26.143  36.011  12.580
73520ION    NA+45835  35.744  33.538   2.815
73521ION    NA+45836  22.209  24.819   1.859
73522ION    NA+45837  22.452  26.664   0.928
73523ION    NA+45838  24.084  35.294   3.949
73524ION    NA+45839  40.587  39.812   4.659
73525ION    NA+45840  21.804  14.177   3.234
73526ION    NA+45841  38.534  26.851   4.844
73527ION    NA+45842   6.034  38.869   1.737
73528ION    NA+45843   1.550  22.275   5.088
73529ION    NA+45844   0.345   2.811  14.997
73530ION    NA+45845  12.150  20.475   4.098
73531ION    NA+45846  33.959  37.833   3.220
73532ION    NA+45847  27.786  23.774   2.623
73533ION    NA+45848  31.831  17.005   0.955
73534ION    NA+45849   9.584   1.784  12.735
73535ION    NA+45850  17.824  23.657   1.675
73536ION    NA+45851  11.843  38.933  14.089
73537ION    NA+45852  19.018  28.772   2.532
73538ION    NA+45853  26.388   1.331   3.288
73539ION    NA+45854  24.470  25.120  11.434
73540ION    NA+45855  40.465  33.110   1.635
73541ION    NA+45856  24.435  23.762   1.664
73542ION    NA+45857  38.129  19.283   1.939
73543ION    NA+45858  41.500  18.979   1.333
73544ION    NA+45859  40.422  18.195   0.232
73545ION    NA+45860  13.644  21.410   3.950
73546ION    NA+45861   5.120  13.580  13.907
73547ION    NA+45862  32.322  39.886   3.379
73548ION    NA+45863  40.781  25.722  10.676
73549ION    NA+45864   1.861  36.886   4.694
73550ION    NA+45865  15.747  44.635   4.923
73551ION    NA+45866  13.386  13.206   4.468
73552ION    NA+45867  34.801   9.655  10.358
73553ION    NA+45868  23.533  13.693   1.672
73554ION    NA+45869   8.770  44.728  13.726
73555ION    NA+45870  34.242  36.275   0.834
73556ION    NA+45871   3.672  13.771  14.881
73557ION    NA+45872  36.634   6.862   1.374
73558ION    NA+45873  22.199  23.471   1.652
73559ION    NA+45874   2.860  29.595  12.003
73560ION    NA+45875   7.261  14.792   4.115
73561ION    NA+45876  32.531  14.076  11.943
73562ION    NA+45877  36.114  42.156   4.661
73563ION    NA+45878  17.758   9.236   1.493
73564ION    NA+45879  20.279  37.401   1.813
73565ION    NA+45880  42.561  35.740   2.868
73566ION    NA+45881  19.001   3.085   4.639
73567ION    NA+45882  13.149  44.222  11.085
73568ION    NA+45883  15.634   5.473   2.450
73569ION    NA+45884  21.681  38.011   0.072
73570ION    NA+45885  25.173  20.220   3.770
73571ION    NA+45886   1.257  23.305   3.044
73572ION    NA+45887  25.687  19.805  12.398
73573ION    NA+45888  11.503   5.267   4.044
73574ION    NA+45889  38.378   2.182   2.913
73575ION    NA+45890  43.822  13.589  10.917
73576ION    NA+45891  15.721  43.845   1.564
73577ION    NA+45892  24.435  28.052   1.729
73578ION    NA+45893  24.420  31.836  11.088
73579ION    NA+45894  15.344   0.829   2.327
73580ION    NA+45895   4.650  23.355  13.341
73581ION    NA+45896  37.582  30.510   2.411
73582ION    NA+45897  23.857  18.601  10.258
73583ION    NA+45898   6.028  25.311  11.040
73584ION    NA+45899  39.273   4.690   2.658
73585ION    NA+45900  37.902  16.199  14.727
73586ION    NA+45901  32.497   2.311   2.382
73587ION    NA+45902   1.846  43.042   0.386
73588ION    NA+45903  17.812  16.321  11.127
73589ION    NA+45904  33.085  24.948   1.414
73590ION    NA+45905  21.750   3.038  11.277
73591ION    NA+45906  17.866  33.786  13.304
73592ION    NA+45907  23.399  27.876   4.036
73593ION    NA+45908  30.021  42.914  12.858
73594ION    NA+45909  25.225   4.216  12.125
73595ION    NA+45910  16.784   3.932  11.267
73596ION    NA+45911  43.337   0.808  12.534
73597ION    NA+45912  27.704  21.292   3.668
73598ION    NA+45913   3.016   0.008  12.498
73599ION    NA+45914   3.408  22.649   3.133
73600ION    NA+45915   7.755  39.787  13.706
73601ION    NA+45916  22.579  33.308   3.757
73602ION    NA+45917  21.013  15.542  11.641
73603ION    NA+45918  27.945  25.136  11.311
73604ION    NA+45919  11.452  30.526   1.116
73605ION    NA+45920  10.859  26.968   3.729
73606ION    NA+45921   5.363  29.909   0.923
73607ION    NA+45922  33.387  29.994  10.141
73608ION    NA+45923   8.316   6.102   0.388
73609ION    NA+45924  36.756  30.823   3.924
73610ION    NA+45925  35.698  26.990  10.747
73611ION    NA+45926  18.989  21.236  14.525
73612ION    NA+45927  27.773  24.640   0.038
73613ION    NA+45928  10.841   1.187   1.809
73614ION    NA+45929  21.450   3.122  13.492
73615ION    NA+45930  20.675   9.837  14.555
73616ION    NA+45931   8.408  37.836   3.240
73617ION    NA+45932  10.700  38.023   2.203
73618ION    NA+45933  14.829  10.657  13.584
73619ION    NA+45934  15.541  41.319  11.302
73620ION    NA+45935  26.160   0.484   9.759
73621ION    NA+45936   6.904  11.380   2.211
73622ION    NA+45937  38.238  39.071   0.790
73623ION    NA+45938  29.584  11.748   2.238
73624ION    NA+45939  33.868  17.777  13.843
73625ION    NA+45940   3.156  18.599   1.979
73626ION    NA+45941  29.438  29.673  13.043
73627ION    NA+45942   5.009  10.333   0.544
73628ION    NA+45943  44.311  31.388   4.882
73629ION    NA+45944  11.370  20.014   0.915
73630ION    NA+45945  37.166   4.632   3.358
73631ION    NA+45946  16.814  28.969   2.457
73632ION    NA+45947  31.396  40.773  10.676
73633ION    NA+45948  40.914  28.450  10.755
73634ION    NA+45949  24.188   3.188  11.701
73635ION    NA+45950  21.457  33.559   4.073
73636ION    NA+45951   7.187  38.414   3.672
73637ION    NA+45952  25.969  39.957  13.477
73638ION    NA+45953  19.504  35.546   3.585
73639ION    NA+45954  25.397   6.628  11.503
73640ION    NA+45955  36.610  10.354  11.605
73641ION    NA+45956  37.817  25.440  13.631
73642ION    NA+45957  22.949  29.242  10.745
73643ION    NA+45958  40.017  42.349   2.174
73644ION    NA+45959  41.796   5.808  13.120
73645ION    NA+45960  14.204   1.692  13.835
73646ION    NA+45961  23.127  14.681  11.467
73647ION    NA+45962   9.674  15.715   3.185
73648ION    NA+45963  30.474  17.992   2.110
73649ION    NA+45964  26.213  26.607   2.790
73650ION    NA+45965  22.466  13.355   2.796
73651ION    NA+45966  34.107   4.868   2.723
73652ION    NA+45967  30.169   6.545  11.992
73653ION    NA+45968  10.318  14.453  13.453
73654ION    NA+45969  33.323  27.664  12.746
73655ION    NA+45970   2.751  32.327  12.934
73656ION    NA+45971  35.102  29.711  13.262
73657ION    NA+45972   0.663  14.729  11.826
73658ION    NA+45973  28.181   5.436   1.695
73659ION    NA+45974  29.026  38.085   1.373
73660ION    NA+45975  18.228  30.430  14.033
73661ION    NA+45976  23.600  35.656   4.595
73662ION    NA+45977  29.858   4.083   4.651
73663ION    NA+45978  40.565  24.324   3.614
73664ION    NA+45979   9.746  21.134   2.583
73665ION    NA+45980   5.404  22.537   0.298
73666ION    NA+45981  43.480  14.914   4.186
73667ION    NA+45982  38.302   9.492   1.729
73668ION    NA+45983   5.070   9.386   4.465
73669ION    NA+45984  36.817  43.438  12.640
73670ION    NA+45985  25.684  26.917   4.150
73671ION    NA+45986  35.727  30.888   2.923
73672ION    NA+45987   5.544  40.045   1.247
73673ION    NA+45988   4.977  26.096   3.231
73674ION    NA+45989  39.082   8.441   3.241
73675ION    NA+45990   0.937  10.293   0.768
73676ION    NA+45991  42.480  19.585   0.014
73677ION    NA+45992  38.816  23.721   3.000
73678ION    NA+45993   7.322  33.139   0.341
73679ION    NA+45994   6.834  10.761   3.595
73680ION    NA+45995  44.173  23.833   2.820
73681ION    NA+45996   2.364  22.347   2.714
73682ION    NA+45997  30.968  21.259  13.363
73683ION    NA+45998   8.831  11.614  11.611
73684ION    NA+45999  37.035  20.026  11.736
73685ION    NA+46000  37.336   1.185   0.917
73686ION    NA+46001  24.916   1.800  13.527
73687ION    NA+46002  31.373   1.757   1.246
73688ION    NA+46003   1.018   0.798  12.468
73689ION    NA+46004   8.601  40.306   0.859
73690ION    NA+46005  28.954   6.609  14.667
73691ION    NA+46006   8.417  16.177  14.087
73692ION    NA+46007  43.461  20.780  11.345
73693ION    NA+46008  22.222  33.119  14.738
73694ION    NA+46009   5.437  19.742   2.702
73695ION    NA+46010  13.487  20.637   3.336
73696ION    NA+46011  18.618   5.460  12.020
73697ION    NA+46012  29.576  11.107  13.146
73698ION    NA+46013  12.546  27.934  12.749
73699ION    NA+46014   1.741   4.409  11.244
73700ION    NA+46015  31.876  41.411   3.093
73701ION    NA+46016  32.458  41.539   1.703
73702ION    NA+46017  25.940  25.136   0.787
73703ION    NA+46018   2.311  19.594   0.674
73704ION    NA+46019  37.619  43.290  11.479
73705ION    NA+46020  43.617  40.760   0.272
73706ION    NA+46021  13.214  37.774   3.798
73707ION    NA+46022  24.962  21.383   2.716
73708ION    NA+46023  39.360   0.470  12.888
73709ION    NA+46024  15.937  27.990  14.924
73710ION    NA+46025  34.390   2.166   2.248
73711ION    NA+46026  34.829  42.918   3.489
73712ION    NA+46027   6.463  24.647  10.709
73713ION    NA+46028  13.623   9.439   3.958
73714ION    NA+46029  22.879  16.664   1.513
73715ION    NA+46030   8.102  42.757   2.574
73716ION    NA+46031  10.179  39.412   0.463
73717ION    NA+46032  40.761  36.373  12.662
73718ION    NA+46033   3.236  34.091  10.505
73719ION    NA+46034  20.592   8.873  14.229
73720ION    NA+46035  39.378  17.005  12.855
73721ION    NA+46036  17.223   1.042   4.052
73722ION    NA+46037  19.417  28.171   4.400
73723ION    NA+46038  23.620  16.050  11.176
73724ION    NA+46039  33.780  42.616  12.279
73725ION    NA+46040  22.988  27.451  11.863
73726ION    NA+46041  33.557  38.875   4.350
73727ION    NA+46042  42.539  22.725  11.202
73728ION    NA+46043  39.497  22.555  10.322
73729ION    NA+46044  23.049  35.581  14.092
73730ION    NA+46045  17.518  41.079   5.561
73731ION    NA+46046  40.475  30.423   1.872
73732ION    NA+46047  13.487  28.334  13.024
73733ION    NA+46048  15.080   8.646  11.453
73734ION    NA+46049  25.003   6.235   5.043
73735ION    NA+46050   7.425   2.667  11.940
73736ION    NA+46051   5.094  21.731  11.131
73737ION    NA+46052  26.329  26.482   1.760
73738ION    NA+46053  19.224  30.615   2.572
73739ION    NA+46054  35.841  17.115   4.328
73740ION    NA+46055  19.260  31.545  12.420
73741ION    NA+46056  41.700  25.362  10.851
73742ION    NA+46057   2.930  33.471   4.386
73743ION    NA+46058  35.591  26.395  13.012
73744ION    NA+46059  31.626  21.144   1.743
73745ION    NA+46060  38.044  10.817   4.012
73746ION    NA+46061  35.615  39.388  14.349
73747ION    NA+46062  26.098  44.517  11.944
73748ION    NA+46063  18.161   1.483   3.925
73749ION    NA+46064  20.598  24.341  13.994
73750ION    NA+46065  29.478   8.491   2.472
73751ION    NA+46066  16.750   5.747  13.444
73752ION    NA+46067  33.214  26.633  13.034
73753ION    NA+46068  27.694   8.873   0.038
73754ION    NA+46069   3.842  42.502  14.488
73755ION    NA+46070  11.355  22.266  10.883
73756ION    NA+46071  21.619  42.561  12.803
73757ION    NA+46072  23.339  32.187  10.760
73758ION    NA+46073  10.133  38.174   3.138
73759ION    NA+46074  34.179  40.298  11.025
73760ION    NA+46075  26.148  38.492   0.802
73761ION    NA+46076  20.504  18.697   3.948
73762ION    NA+46077  22.240   3.695  13.270
73763ION    NA+46078   8.117  24.888  14.879
73764ION    NA+46079  34.283  14.580  12.417
73765ION    NA+46080  21.277  37.417   1.745
73766ION    NA+46081  13.407   2.977  12.303
73767ION    NA+46082   6.652  32.377   2.260
73768ION    NA+46083  36.385  17.453  12.063
73769ION    NA+46084  33.459   7.686   2.395
73770ION    NA+46085  14.595  35.927  13.891
73771ION    NA+46086  31.034  31.902   0.040
73772ION    NA+46087  21.359   1.517   0.422
73773ION    NA+46088   1.941  16.203   2.288
73774ION    NA+46089  39.657  16.427  12.088
73775ION    NA+46090   4.189  24.668   4.093
73776ION    NA+46091  16.097  22.195  13.644
73777ION    NA+46092  38.033  32.538   4.731
73778ION    NA+46093  23.539   4.864  13.423
73779ION    NA+46094  37.575  19.297  11.314
73780ION    NA+46095   9.426  40.866   2.385
73781ION    NA+46096  19.250  24.833  11.297
73782ION    NA+46097  26.792  29.812  14.981
73783ION    NA+46098  29.998  32.363   0.065
73784ION    NA+46099  19.426  23.080  12.538
73785ION    NA+46100  34.387   5.680   1.717
73786ION    NA+46101  10.046  11.298   9.526
73787ION    NA+46102  16.253  22.851   4.317
73788ION    NA+46103  23.158   0.738   3.610
73789ION    NA+46104  19.973  42.220   3.880
73790ION    NA+46105  22.752  43.544   0.475
73791ION    NA+46106  27.563   1.099   3.173
73792ION    NA+46107  37.024   9.049  14.358
73793ION    NA+46108  34.968  21.544   1.995
73794ION    NA+46109  31.667  34.306  10.700
73795ION    NA+46110  20.233  21.330   0.549
73796ION    NA+46111   7.741  10.430   1.642
73797ION    NA+46112   9.787   7.387  13.072
73798ION    NA+46113  26.235  35.648  14.885
73799ION    NA+46114  14.335   7.553   5.085
73800ION    NA+46115   1.699  35.124   3.193
73801ION    NA+46116  30.910   7.957   2.803
73802ION    NA+46117  34.155   7.291   0.784
73803ION    NA+46118  36.802  15.515  12.461
73804ION    NA+46119  39.491  29.969   4.561
73805ION    NA+46120  32.668  13.424   2.366
73806ION    NA+46121  19.054  13.426   0.517
73807ION    NA+46122  35.715  21.219   0.951
73808ION    NA+46123  15.861  36.003   1.183
73809ION    NA+46124  44.982  39.490  12.087
73810ION    NA+46125  43.966  17.819  14.090
73811ION    NA+46126   1.825  33.816   4.654
73812ION    NA+46127   9.314  19.657   0.327
73813ION    NA+46128  26.728  30.748  11.086
73814ION    NA+46129  33.865  19.668   3.373
73815ION    NA+46130  42.064  36.900   4.699
73816ION    NA+46131  15.722  29.115  14.088
73817ION    NA+46132  18.380  29.620  11.612
73818ION    NA+46133   1.963  29.013   3.642
73819ION    NA+46134  28.032  14.431  13.023
73820ION    NA+46135  28.632  13.136   4.119
73821ION    NA+46136   8.855  26.002   3.617
73822ION    NA+46137   8.304  10.922   2.704
73823ION    NA+46138   3.509  38.732   2.929
73824ION    NA+46139   8.648  17.155  12.646
73825ION    NA+46140   9.910  37.195   2.960
73826ION    NA+46141   9.361  26.236   4.503
73827ION    NA+46142  38.749  18.412   0.954
73828ION    NA+46143  17.285  15.151  13.421
73829ION    NA+46144  42.884   4.252   0.417
73830ION    NA+46145  25.353  23.495   1.958
73831ION    NA+46146  25.446  13.326   0.006
73832ION    NA+46147  31.556  42.750  10.728
73833ION    NA+46148  40.500   7.883   1.270
73834ION    NA+46149  26.387  41.662  13.577
73835ION    NA+46150  11.224  28.031   1.346
73836ION    NA+46151  26.405  17.709  13.465
73837ION    NA+46152  36.231  27.131  13.331
73838ION    NA+46153  28.109  15.848  13.659
73839ION    NA+46154  37.093  32.755  14.852
73840ION    NA+46155   2.203  13.704   2.248
73841ION    NA+46156  37.979  13.823  10.396
73842ION    NA+46157  16.070  33.361   0.501
73843ION    NA+46158  35.033  27.116   3.751
73844ION    NA+46159  28.436  25.863   0.087
73845ION    NA+46160   6.709  30.664   1.923
73846ION    NA+46161  10.770  39.539   3.046
73847ION    NA+46162  28.993  38.329   3.254
73848ION    NA+46163  16.750  42.600  13.724
73849ION    NA+46164  33.592  14.406  13.895
73850ION    NA+46165  35.197  22.284  11.198
73851ION    NA+46166   4.338  20.418   1.684
73852ION    NA+46167  12.457  34.591  12.112
73853ION    NA+46168   3.984  12.179   3.966
73854ION    NA+46169  18.233   5.070   1.880
73855ION    NA+46170  14.323  34.592   1.861
73856ION    NA+46171  34.846  42.397   2.366
73857ION    NA+46172  21.979  11.418   2.771
73858ION    NA+46173  21.975  15.648   0.465
73859ION    NA+46174   3.822  39.400  13.695
73860ION    NA+46175  17.327  20.151  10.160
73861ION    NA+46176  39.439   3.042  10.794
73862ION    NA+46177  30.647  39.318  12.050
73863ION    NA+46178  32.470  11.037  14.595
73864ION    NA+46179  22.582  19.033  12.081
73865ION    NA+46180  24.004   6.786   0.065
73866ION    NA+46181  30.780   3.504  14.455
73867ION    NA+46182   2.693   0.529   0.389
73868ION    NA+46183  31.997  22.806   1.349
73869ION    NA+46184  36.031  25.849   0.635
73870ION    NA+46185   0.075  24.122   0.774
73871ION    NA+46186  26.969  15.248  14.946
73872ION    NA+46187  21.323  33.236  13.345
73873ION    NA+46188   6.436  37.015   4.581
73874ION    NA+46189  37.801   2.859  14.087
73875ION    NA+46190  32.199  29.941   4.675
73876ION    NA+46191  21.574  15.458  12.998
73877ION    NA+46192  31.567  31.202  14.215
73878ION    NA+46193  12.786  15.555   0.364
73879ION    NA+46194  35.952  26.887  12.085
73880ION    NA+46195   2.771   2.448  12.344
73881ION    NA+46196  35.459  24.923   3.105
73882ION    NA+46197  41.625  29.680   3.911
73883ION    NA+46198  23.920  22.330   2.344
73884ION    NA+46199  42.182  37.635  14.395
73885ION    NA+46200  11.674  13.222   0.966
73886ION    NA+46201  15.624  30.845  11.334
73887ION    NA+46202  15.735  32.441  12.520
73888ION    NA+46203   6.342  34.972  10.680
73889ION    NA+46204  16.710   4.532   1.940
73890ION    NA+46205  19.560  17.996   3.358
73891ION    NA+46206  30.707  16.211   4.041
73892ION    NA+46207   2.217  10.329  11.247
73893ION    NA+46208  38.433  39.840  11.889
73894ION    NA+46209   5.603  15.072  12.836
73895ION    NA+46210  12.668  40.493   4.877
73896ION    NA+46211  33.610  25.234  10.599
73897ION    NA+46212  17.842  28.013  12.094
73898ION    NA+46213  13.308   2.518   2.242
73899ION    NA+46214   8.831  35.011   0.783
73900ION    NA+46215   8.524   9.517  10.619
73901ION    NA+46216  41.562  24.244  14.777
73902ION    NA+46217  12.498   8.636  11.959
73903ION    NA+46218  34.851  20.661   1.237
73904ION    NA+46219  19.703  16.250   0.018
73905ION    NA+46220   4.280  28.046  14.197
73906ION    NA+46221  21.759  25.355   4.012
73907ION    NA+46222  25.931  15.596  10.770
73908ION    NA+46223  17.552  29.796   0.428
73909ION    NA+46224  39.051  33.924   0.046
73910ION    NA+46225  23.835   4.968   9.809
73911ION    NA+46226  42.537   5.313   3.891
73912ION    NA+46227  22.883  37.875   4.347
73913ION    NA+46228  15.348  18.381  13.964
73914ION    NA+46229  24.745  32.586   4.147
73915ION    NA+46230  12.545   7.500  11.276
73916ION    NA+46231  21.224  41.261  10.865
73917ION    NA+46232  14.939  12.925   0.861
73918ION    NA+46233   5.272  22.176   3.386
73919ION    NA+46234  29.487  37.373  14.010
73920ION    NA+46235   1.003  27.984   2.615
73921ION    NA+46236   1.794  19.763   4.097
73922ION    NA+46237  39.377  25.635   0.061
73923ION    NA+46238   7.919  39.675   3.725
73924ION    NA+46239  29.366  34.480   0.623
73925ION    NA+46240  32.112   7.514   2.399
73926ION    NA+46241   9.680  17.262   1.324
73927ION    NA+46242   8.298  20.258  12.268
73928ION    NA+46243  35.413  23.477   3.206
73929ION    NA+46244   2.005  15.253  14.516
73930ION    NA+46245  27.205  26.783   1.382
73931ION    NA+46246   0.396  26.017  11.946
73932ION    NA+46247  11.121  36.028   4.096
73933ION    NA+46248  12.061  14.995  13.924
73934ION    NA+46249  27.539  17.144   0.844
73935ION    NA+46250  15.064  19.138   2.967
73936ION    NA+46251  23.168  37.557   1.155
73937ION    NA+46252  37.862   4.636   3.943
73938ION    NA+46253  13.159   8.293  13.754
73939ION    NA+46254   1.583  28.324  13.629
73940ION    NA+46255  13.138  14.404   9.843
73941ION    NA+46256  34.552   8.701  14.534
73942ION    NA+46257  13.104  40.940  11.284
73943ION    NA+46258   2.045  20.491  11.749
73944ION    NA+46259  21.712  43.850   1.148
73945ION    NA+46260  38.385  27.842  10.740
73946ION    NA+46261   9.590  39.047  11.155
73947ION    NA+46262   5.980  22.145   2.146
73948ION    NA+46263  18.852  19.898   3.466
73949ION    NA+46264   1.553   0.163   3.402
73950ION    NA+46265  11.961   5.906   4.048
73951ION    NA+46266  21.764  35.864  11.891
73952ION    NA+46267  25.647  20.974  12.913
73953ION    NA+46268  20.245  25.606  14.614
73954ION    NA+46269  24.054  38.194  13.030
73955ION    NA+46270   6.266   0.667  10.795
73956ION    NA+46271   2.519  38.217   1.904
73957ION    NA+46272  34.491  41.855   4.666
73958ION    NA+46273   7.052  34.794   3.440
73959ION    NA+46274  32.437  34.922  11.690
73960ION    NA+46275   5.943  26.554  11.201
73961ION    NA+46276  32.469  34.903  10.690
73962ION    NA+46277  27.626  32.160  13.515
73963ION    NA+46278  38.622  16.602   3.344
73964ION    NA+46279  13.588  18.634   4.154
73965ION    NA+46280  15.679  31.601   1.028
73966ION    NA+46281  34.044   3.450  14.742
73967ION    NA+46282  22.146   4.347  10.709
73968ION    NA+46283  20.771  17.699   2.305
73969ION    NA+46284  11.312  33.857  11.561
73970ION    NA+46285  20.767  11.315  10.826
73971ION    NA+46286   8.966  21.280   2.111
73972ION    NA+46287  21.660  19.743  12.600
73973ION    NA+46288  26.169  21.944  14.966
73974ION    NA+46289  26.948  17.876  11.937
73975ION    NA+46290  16.070  30.661   0.490
73976ION    NA+46291  41.938   0.760  13.774
73977ION    NA+46292  41.367  25.400   4.613
73978ION    NA+46293  23.399   2.704  12.080
73979ION    NA+46294  10.600   5.941   0.839
73980ION    NA+46295   4.243  43.242   1.107
73981ION    NA+46296  17.780  41.307   0.588
73982ION    NA+46297  37.423  23.530  11.314
73983ION    NA+46298  22.897  33.419   1.736
73984ION    NA+46299  34.274   8.255   2.501
73985ION    NA+46300   9.322  25.521   0.615
73986ION    NA+46301  35.996  20.729  11.569
73987ION    NA+46302  23.395   9.484   1.528
73988ION    NA+46303  12.736  39.010   4.417
73989ION    NA+46304  19.004  40.353   4.017
73990ION    NA+46305  16.553  41.352   3.495
73991ION    NA+46306  36.183  42.766  13.325
73992ION    NA+46307   8.250  29.383   2.752
73993ION    NA+46308  28.364  38.503  13.862
73994ION    NA+46309   1.508   6.385   2.785
73995ION    NA+46310  35.054   9.671  12.557
73996ION    NA+46311  11.023  39.202  13.914
73997ION    NA+46312   8.149  34.610  12.561
73998ION    NA+46313  35.772  29.537   4.459
73999ION    NA+46314  23.750  31.398   2.626
74000ION    NA+46315  37.991   3.522  11.386
74001ION    NA+46316  18.236  31.101   4.243
74002ION    NA+46317   5.766  41.302  10.742
74003ION    NA+46318   0.539   2.534   3.971
74004ION    NA+46319  25.439  32.307  14.822
74005ION    NA+46320  19.107   3.016  14.807
74006ION    NA+46321  21.118   4.430   3.706
74007ION    NA+46322  21.746   9.089  13.444
74008ION    NA+46323  13.905  23.000   0.701
74009ION    NA+46324  17.831   3.243   1.747
74010ION    NA+46325  18.972  15.185   2.190
74011ION    NA+46326   3.503  26.991   0.934
74012ION    NA+46327   8.788  24.929   3.481
74013ION    NA+46328  44.827   6.923  14.950
74014ION    NA+46329  28.153  27.674   4.682
74015ION    NA+46330  32.488  29.590   0.177
74016ION    NA+46331   1.779  24.216   0.427
74017ION    NA+46332   1.417   0.696   0.409
74018ION    NA+46333   2.479  33.053   1.399
74019ION    NA+46334  11.069  25.499   0.384
74020ION    NA+46335  32.888  19.719   4.801
74021ION    NA+46336  26.743  21.662   2.704
74022ION    NA+46337  23.038  29.835   3.874
74023ION    NA+46338  14.818  26.439  10.767
74024ION    NA+46339   7.135  37.537  14.948
74025ION    NA+46340  16.356   2.467  12.424
74026ION    NA+46341  25.661   4.288   1.422
74027ION    NA+46342  14.978  36.516   3.064
74028ION    NA+46343   8.103  41.516   3.776
74029ION    NA+46344  42.968  36.668   0.175
74030ION    NA+46345  26.022  15.393   0.888
74031ION    NA+46346  15.275  12.569  12.430
74032ION    NA+46347  14.769  19.120   0.332
74033ION    NA+46348   5.302   1.447   3.189
74034ION    NA+46349  16.475  30.565   5.499
74035ION    NA+46350  20.776  38.244  13.992
74036ION    NA+46351  11.824  42.580   4.199
74037ION    NA+46352   4.781  30.753  14.220
74038ION    NA+46353   5.719  31.840  13.436
74039ION    NA+46354  24.529   9.729   4.506
74040ION    NA+46355  13.645   8.488  11.102
74041ION    NA+46356  28.109   4.397   0.881
74042ION    NA+46357   3.859  30.334   0.748
74043ION    NA+46358   3.466  31.242   0.892
74044ION    NA+46359  42.540   5.222   2.569
74045ION    NA+46360  44.977  37.355  11.904
74046ION    NA+46361  37.857  34.769  13.338
74047ION    NA+46362   8.919  39.784  10.763
74048ION    NA+46363  19.484  35.276  11.973
74049ION    NA+46364  44.119  19.077   1.026
74050ION    NA+46365  37.630  20.469   3.520
74051ION    NA+46366   0.726   8.816  14.145
74052ION    NA+46367   3.704  23.773  12.020
74053ION    NA+46368  15.377  26.672  14.582
74054ION    NA+46369  26.271   8.476   4.947
74055ION    NA+46370  38.100  35.876  11.928
74056ION    NA+46371  42.910  39.661   1.392
74057ION    NA+46372   4.809  23.389   2.808
74058ION    NA+46373  28.515  39.312  12.486
74059ION    NA+46374  20.928  32.394  12.375
74060ION    NA+46375  40.711   8.683  12.138
74061ION    NA+46376   7.864   2.951   1.722
74062ION    NA+46377  24.655  17.631   4.037
74063ION    NA+46378  33.092  39.406  13.541
74064ION    NA+46379  40.522  15.551   1.327
74065ION    NA+46380  21.686   2.883  14.944
74066ION    NA+46381  29.338  16.597  12.507
74067ION    NA+46382  32.644   8.630   4.870
74068ION    NA+46383  36.820   1.286  11.231
74069ION    NA+46384  24.746  27.808   2.864
74070ION    NA+46385  28.204  34.953  13.421
74071ION    NA+46386   9.230  15.682  14.439
74072ION    NA+46387  28.949  22.079  13.906
74073ION    NA+46388  29.865   4.273   2.393
74074ION    NA+46389  17.818   2.077  11.624
74075ION    NA+46390  13.543  26.238   4.649
74076ION    NA+46391  18.835  15.089   3.176
74077ION    NA+46392  37.088  11.670  14.340
74078ION    NA+46393  32.983  32.647  14.289
74079ION    NA+46394   3.171   1.203   2.000
74080ION    NA+46395  36.796  16.388  12.568
74081ION    NA+46396  38.747  14.907   1.029
74082ION    NA+46397  14.207  25.250   3.996
74083ION    NA+46398  19.196  30.106  10.778
74084ION    NA+46399   6.343   7.727  14.552
74085ION    NA+46400  41.865   8.975  13.563
74086ION    NA+46401  30.523  11.109  12.825
74087ION    NA+46402  28.310  11.225  12.824
74088ION    NA+46403   1.226   1.097   3.256
74089ION    NA+46404  35.777  31.734   4.490
74090ION    NA+46405  36.112   0.217  12.052
74091ION    NA+46406  15.657  31.731  14.491
74092ION    NA+46407  26.031  40.140   2.581
74093ION    NA+46408  42.869  35.049   0.372
74094ION    NA+46409  22.247  15.506  13.894
74095ION    NA+46410  27.943   3.896   2.645
74096ION    NA+46411  22.700  37.326  12.614
74097ION    NA+46412   9.896   2.727   1.576
74098ION    NA+46413   1.044  20.173   4.085
74099ION    NA+46414  18.215  28.614  14.336
74100ION    NA+46415   0.454  33.744   0.937
74101ION    NA+46416  29.688  25.098  14.782
74102ION    NA+46417  19.605  40.859   3.398
74103ION    NA+46418  27.287  24.191  14.424
74104ION    NA+46419  14.661  37.021   1.835
74105ION    NA+46420  34.777   2.947  14.953
74106ION    NA+46421  28.089  33.604  14.552
74107ION    NA+46422  40.090  13.535   1.615
74108ION    NA+46423  28.089  17.591   5.068
74109ION    NA+46424  19.599  10.775  14.026
74110ION    NA+46425  19.117  42.527   4.628
74111ION    NA+46426  15.458  44.169  12.088
74112ION    NA+46427  33.586  43.082   2.391
74113ION    NA+46428  22.235   0.441  10.745
74114ION    NA+46429  24.777  27.431   3.790
74115ION    NA+46430  24.833  10.940  13.727
74116ION    NA+46431  33.227   6.790   3.618
74117ION    NA+46432  19.222   2.169   0.424
74118ION    NA+46433   6.482  17.375   3.092
74119ION    NA+46434  27.192  39.235   0.193
74120ION    NA+46435  40.414  44.731   2.706
74121ION    NA+46436  18.517  43.820   1.268
74122ION    NA+46437  13.548  39.358  11.933
74123ION    NA+46438  38.105  44.823   1.843
74124ION    NA+46439   6.166  34.429  13.852
74125ION    NA+46440  35.613  27.241  14.110
74126ION    NA+46441  41.532  28.527  12.061
74127ION    NA+46442   9.846  14.920   3.768
74128ION    NA+46443  12.325  16.877  14.881
74129ION    NA+46444   6.774  23.972  11.860
74130ION    NA+46445  39.673  17.985   0.860
74131ION    NA+46446  23.793   0.416   4.180
74132ION    NA+46447  31.275  30.936   0.134
74133ION    NA+46448  42.322  18.192  12.386
74134ION    NA+46449  23.434   3.667   2.329
74135ION    NA+46450   0.573  41.647   0.205
74136ION    NA+46451  28.905  10.075  10.119
74137ION    NA+46452   9.271  40.798  12.851
74138ION    NA+46453  34.932   5.699   0.878
74139ION    NA+46454   9.239   6.213  14.332
74140ION    NA+46455  19.186  30.202   9.591
74141ION    NA+46456  32.844  40.687  10.872
74142ION    NA+46457  31.658   8.473   4.816
74143ION    NA+46458  26.134  40.560   4.373
74144ION    NA+46459  13.266   8.994   5.293
74145ION    NA+46460   2.017  42.393  11.344
74146ION    NA+46461  19.745  36.005  12.607
74147ION    NA+46462   6.478  26.905  11.798
74148ION    NA+46463  12.936  35.098  10.736
74149ION    NA+46464  43.691  26.928  14.746
74150ION    NA+46465  40.124  41.269  13.698
74151ION    NA+46466  26.764   1.066  13.546
74152ION    NA+46467  17.054  23.831   2.289
74153ION    NA+46468  36.778  27.325  10.754
74154ION    NA+46469  43.288  18.545   1.768
74155ION    NA+46470  17.291  29.251  13.491
74156ION    NA+46471   5.773  10.025   0.966
74157ION    NA+46472  29.542  31.430  14.950
74158ION    NA+46473  20.861  32.768  13.874
74159ION    NA+46474  23.622  20.756   3.740
74160ION    NA+46475  28.726  30.345   1.020
74161ION    NA+46476  12.683  42.075   4.439
74162ION    NA+46477   2.170  16.290  14.511
74163ION    NA+46478   9.404  13.897  14.765
74164ION    NA+46479  37.432  17.358   3.161
74165ION    NA+46480  43.655  39.936   2.359
74166ION    NA+46481  22.551  11.135  12.606
74167ION    NA+46482   2.444  34.923  10.954
74168ION    NA+46483  25.581  32.404  12.193
74169ION    NA+46484   8.330  23.189  13.857
74170ION    NA+46485  36.862   6.678   4.133
74171ION    NA+46486   6.915  43.385   1.901
74172ION    NA+46487  37.551  42.951   2.211
74173ION    NA+46488   8.650   0.165   2.859
74174ION    NA+46489  12.514   1.623   1.717
74175ION    NA+46490  42.309  40.889   2.136
74176ION    NA+46491  29.302  18.070   3.755
74177ION    NA+46492  34.724  41.712  11.836
74178ION    NA+46493  19.948  19.903  11.138
74179ION    NA+46494  42.817  22.292   1.121
74180ION    NA+46495  15.130  30.346  10.605
74181ION    NA+46496   7.354  25.590  14.127
74182ION    NA+46497   4.957  42.930   2.397
74183ION    NA+46498   1.825  11.606   1.635
74184ION    NA+46499   1.521   0.417  14.064
74185ION    NA+46500  27.568  11.108   4.688
74186ION    NA+46501   0.127  20.972   1.332
74187ION    NA+46502   5.909   6.316  14.060
74188ION    NA+46503  13.004  26.514  14.995
74189ION    NA+46504   7.956   7.756   4.367
74190ION    NA+46505  22.566  14.331   2.605
74191ION    NA+46506  26.834   0.804   2.555
74192ION    NA+46507   9.839  10.527   2.361
74193ION    NA+46508  38.630  31.052  12.159
74194ION    NA+46509  23.312   9.390   2.520
74195ION    NA+46510   4.403   5.805   0.047
74196ION    NA+46511   8.589   2.161  12.480
74197ION    NA+46512  21.179  29.921  12.896
74198ION    NA+46513  27.644  44.524  12.632
74199ION    NA+46514  37.349  37.816   0.333
74200ION    NA+46515  14.370  17.986   4.446
74201ION    NA+46516  29.343  37.307  11.860
74202ION    NA+46517  11.646  33.380  14.503
74203ION    NA+46518   1.699  24.206  12.494
74204ION    NA+46519  36.369  40.948   1.420
74205ION    NA+46520  38.353   8.087   3.643
74206ION    NA+46521  18.205   0.602  11.718
74207ION    NA+46522  40.259  23.129   2.246
74208ION    NA+46523  35.142  35.902  14.728
74209ION    NA+46524  11.146   6.169   2.580
74210ION    NA+46525  29.169  24.073   1.619
74211ION    NA+46526  36.813  31.449   0.223
74212ION    NA+46527   7.151  22.903   2.814
74213ION    NA+46528  16.874  16.263  13.831
74214ION    NA+46529  38.711   4.876  10.580
74215ION    NA+46530  26.259   1.363   0.852
74216ION    NA+46531  26.116  21.619   1.900
74217ION    NA+46532  33.314  26.287  14.638
74218ION    NA+46533  42.212  38.792  11.566
74219ION    NA+46534  18.680  26.251  10.642
74220ION    NA+46535  12.345   5.562  12.899
74221ION    NA+46536  33.570   5.196  14.530
74222ION    NA+46537  14.745   3.766  14.357
74223ION    NA+46538  28.585  31.237   0.424
74224ION    NA+46539   7.256  13.776  12.544
74225ION    NA+46540  26.718  41.590   5.034
74226ION    NA+46541  40.157  30.217  14.996
74227ION    NA+46542  31.190  34.226   2.416
74228ION    NA+46543  28.725  15.524  11.251
74229ION    NA+46544  32.491   4.365  11.016
74230ION    NA+46545  38.624  25.881   4.515
74231ION    NA+46546   2.318   4.614   3.830
74232ION    NA+46547   8.832  32.089   4.457
74233ION    NA+46548  42.493  39.084  14.664
74234ION    NA+46549  25.921  29.772  12.194
74235ION    NA+46550   1.390  32.712  11.240
74236ION    NA+46551  21.964  29.180   2.163
74237ION    NA+46552   6.439   1.762  14.483
74238ION    NA+46553  40.821  36.521   3.507
74239ION    NA+46554  29.490  35.552  11.506
74240ION    NA+46555   7.397  29.510   3.020
74241ION    NA+46556  25.574   5.982  14.826
74242ION    NA+46557   2.971  41.958   1.152
74243ION    NA+46558  42.003   4.505  11.210
74244ION    NA+46559  20.788  42.600   3.851
74245ION    NA+46560   3.313   1.188  12.618
74246ION    NA+46561  33.431  18.361   4.120
74247ION    NA+46562  19.535  17.703   2.402
74248ION    NA+46563  27.946  38.352  11.582
74249ION    NA+46564  31.589  17.802  14.266
74250ION    NA+46565  36.005  15.119  13.023
74251ION    NA+46566  41.468   0.335  14.834
74252ION    NA+46567  13.263  19.805   2.829
74253ION    NA+46568   0.739  11.349  12.652
74254ION    NA+46569  15.195  24.005   3.101
74255ION    NA+46570  42.191  12.643   2.655
74256ION    NA+46571  19.484  41.781   0.375
74257ION    NA+46572  34.534  34.051   2.102
74258ION    NA+46573  29.836  17.418   4.090
74259ION    NA+46574   9.475  21.160  12.591
74260ION    NA+46575   0.279  28.131  14.876
74261ION    NA+46576  12.089  33.306   2.890
74262ION    NA+46577  24.306   8.132  14.652
74263ION    NA+46578  33.928  37.801   1.651
74264ION    NA+46579   9.044  24.070   1.694
74265ION    NA+46580  43.424  17.935   3.909
74266ION    NA+46581  30.218  34.521   2.599
74267ION    NA+46582  10.173  15.016  11.574
74268ION    NA+46583  26.355  29.818   0.772
74269ION    NA+46584  43.305  44.280   1.273
74270ION    NA+46585  39.795   0.605  14.307
74271ION    NA+46586  35.412  36.173   2.204
74272ION    NA+46587  41.859  36.809   2.195
74273ION    NA+46588  33.228  39.527   3.601
74274ION    NA+46589  30.737  40.174  11.541
74275ION    NA+46590  20.537  14.320  13.118
74276ION    NA+46591  17.039  17.022  11.478
74277ION    NA+46592   3.494  23.258  13.651
74278ION    NA+46593  12.812  28.009   1.610
74279ION    NA+46594  31.541  43.790   0.709
74280ION    NA+46595  30.452  17.937  12.657
74281ION    NA+46596  13.544   5.703   1.870
74282ION    NA+46597  27.227  17.262  13.111
74283ION    NA+46598  22.337  36.133   4.098
74284ION    NA+46599  38.653  11.501  11.435
74285ION    NA+46600  42.476  20.356  14.641
74286ION    NA+46601   2.721  36.519   2.066
74287ION    NA+46602  35.932  14.226  14.753
74288ION    NA+46603   3.703   5.682  12.485
74289ION    NA+46604  17.693  22.290   4.674
74290ION    NA+46605  20.622  13.606   1.357
74291ION    NA+46606  20.811  36.752  13.910
74292ION    NA+46607   5.034   4.247  12.086
74293ION    NA+46608  16.441  31.130  11.836
74294ION    NA+46609  16.076  23.279  11.003
74295ION    NA+46610  38.020   5.795  10.674
74296ION    NA+46611   7.591  25.766  11.232
74297ION    NA+46612   4.990  13.412   4.234
74298ION    NA+46613  40.451  38.944   3.237
74299ION    NA+46614  38.373  42.178   3.156
74300ION    NA+46615  21.101  34.842   0.785
74301ION    NA+46616  24.890  29.823   0.553
74302ION    NA+46617  33.509  28.246   3.159
74303ION    NA+46618  25.564   6.322   3.297
74304ION    NA+46619  10.944  30.660  12.903
74305ION    NA+46620  14.963  27.945   4.616
74306ION    NA+46621   1.654  41.722  10.962
74307ION    NA+46622  42.592  36.307  13.997
74308ION    NA+46623   9.472  20.059   3.202
74309ION    NA+46624  27.577  44.090  13.531
74310ION    NA+46625  26.142   6.948   1.033
74311ION    NA+46626  10.007  30.502  13.213
74312ION    NA+46627   1.995  26.335   2.313
74313ION    NA+46628  40.519   2.561  13.045
74314ION    NA+46629   7.691  34.913  13.397
74315ION    NA+46630  10.502  21.042   0.029
74316ION    NA+46631   2.804  37.931  12.538
74317ION    NA+46632  25.281  38.442  12.366
74318ION    NA+46633  25.224  41.572   2.480
74319ION    NA+46634  12.210  26.395  12.096
74320ION    NA+46635  16.704  28.030  11.709
74321ION    NA+46636  44.225  31.382   1.423
74322ION    NA+46637   8.052   5.852   1.242
74323ION    NA+46638  24.215   8.090   3.339
74324ION    NA+46639   1.538  14.277  11.999
74325ION    NA+46640  43.325  43.692   2.064
74326ION    NA+46641  12.103  36.095  14.716
74327ION    NA+46642  18.666  33.514   5.223
74328ION    NA+46643  44.874  37.405  10.840
74329ION    NA+46644  29.472  24.167   3.312
74330ION    NA+46645  17.606  31.185  14.308
74331ION    NA+46646  14.234   7.145  14.833
74332ION    NA+46647   5.937  31.601  10.609
74333ION    NA+46648   1.418  13.102   0.222
74334ION    NA+46649  23.619  27.447  12.509
74335ION    NA+46650   9.096  27.802   2.216
74336ION    NA+46651  30.617  24.911  12.154
74337ION    NA+46652  23.458   0.738   0.334
74338ION    NA+46653  23.981  37.885   3.234
74339ION    NA+46654  16.023   3.138   1.170
74340ION    NA+46655  40.891  44.568  13.594
74341ION    NA+46656  42.308  41.824   1.553
74342ION    NA+46657  35.969   9.711  13.330
74343ION    NA+46658   3.177  12.179   1.363
74344ION    NA+46659  30.048  27.143   2.892
74345ION    NA+46660   0.570  43.501   0.762
74346ION    NA+46661   0.010   5.556  10.693
74347ION    NA+46662  12.534  43.616  12.128
74348ION    NA+46663  32.987   8.739   0.271
74349ION    NA+46664   5.065  17.110   1.702
74350ION    NA+46665  28.026  39.965  13.296
74351ION    NA+46666  20.917  30.605  10.180
74352ION    NA+46667  34.365  38.147   2.482
74353ION    NA+46668   9.323  14.166   4.168
74354ION    NA+46669  38.932  31.469   1.160
74355ION    NA+46670   6.614   7.220   0.372
74356ION    NA+46671  18.170  36.133  11.985
74357ION    NA+46672  18.887   5.936  14.510
74358ION    NA+46673   4.367  13.220   1.811
74359ION    NA+46674  10.628  44.205   2.339
74360ION    NA+46675  37.252  10.827   1.453
74361ION    NA+46676  28.865  32.481   1.733
74362ION    NA+46677  36.677  37.972   3.006
74363ION    NA+46678  22.738  37.320  11.700
74364ION    NA+46679  37.367  23.348   3.905
74365ION    NA+46680  12.901  27.864   2.502
74366ION    NA+46681  15.036  30.958   0.995
74367ION    NA+46682  21.026  18.689  14.450
74368ION    NA+46683  13.498  20.449   4.318
74369ION    NA+46684  11.552  19.409   3.257
74370ION    NA+46685   1.248   6.712  13.327
74371ION    NA+46686  15.565  44.677  12.931
74372ION    NA+46687  28.018   3.356   4.625
74373ION    NA+46688   5.664  27.066  11.493
74374ION    NA+46689   9.458  21.972  10.950
74375ION    NA+46690   9.281  30.349  12.665
74376ION    NA+46691   6.654  24.832   0.484
74377ION    NA+46692  22.749  18.483  13.635
74378ION    NA+46693  17.813  42.884  14.883
74379ION    NA+46694  31.969  37.087   0.213
74380ION    NA+46695  30.053  38.397   4.385
74381ION    NA+46696   7.017  25.455  14.985
74382ION    NA+46697   7.764  34.342  10.951
74383ION    NA+46698  10.281  23.550   2.782
74384ION    NA+46699   5.579  19.347  12.012
74385ION    NA+46700  42.353  31.472   0.925
74386ION    NA+46701  20.869   9.977  10.013
74387ION    NA+46702  17.753   8.859   9.799
74388ION    NA+46703  19.319  11.973  10.686
74389ION    NA+46704  37.894   5.485   2.667
74390ION    NA+46705  31.430  27.825  11.510
74391ION    NA+46706  12.864  21.989   1.276
74392ION    NA+46707  15.670  39.808  13.893
74393ION    NA+46708   0.725   2.596   2.077
74394ION    NA+46709  24.679  26.118   2.572
74395ION    NA+46710  10.742   5.127  14.738
74396ION    NA+46711  26.145  26.137   0.773
74397ION    NA+46712  25.421  21.941  13.085
74398ION    NA+46713   7.194  23.543   1.205
74399ION    NA+46714  44.301   8.794   5.569
74400ION    NA+46715  20.688   4.454   2.803
74401ION    NA+46716  28.656  39.357  13.786
74402ION    NA+46717  18.426  12.027  12.568
74403ION    NA+46718  19.253  16.805  11.029
74404ION    NA+46719  30.654  19.506   3.726
74405ION    NA+46720  23.614  32.003   4.403
74406ION    NA+46721  25.428  25.040   3.357
74407ION    NA+46722  22.676   5.833  12.847
74408ION    NA+46723   8.758  22.459  11.253
74409ION    NA+46724  27.290  23.833   1.756
74410ION    NA+46725  13.355  10.916   4.846
74411ION    NA+46726  18.635   7.012   3.510
74412ION    NA+46727  44.461  39.273   3.836
74413ION    NA+46728  11.067   7.314   3.606
74414ION    NA+46729  25.322  27.390   2.299
74415ION    NA+46730  40.037   0.293   4.467
74416ION    NA+46731  12.852  17.560   3.672
74417ION    NA+46732  39.817  38.002   1.783
74418ION    NA+46733  34.946  24.512  12.147
74419ION    NA+46734  18.471  13.305  14.714
74420ION    NA+46735  24.443   8.078   4.557
74421ION    NA+46736  29.512   8.652  11.656
74422ION    NA+46737   2.133  25.919  14.069
74423ION    NA+46738  15.744   7.045  11.704
74424ION    NA+46739  18.829  30.096   0.879
74425ION    NA+46740  37.041  44.990  10.963
74426ION    NA+46741  44.293  11.175  14.503
74427ION    NA+46742  42.451  15.593  13.392
74428ION    NA+46743  29.871  19.465  14.962
74429ION    NA+46744  15.234  20.039   3.396
74430ION    NA+46745  10.612   8.394  10.708
74431ION    NA+46746  35.892   7.607  11.230
74432ION    NA+46747  38.912  43.195  10.910
74433ION    NA+46748  10.276  36.942  11.358
74434ION    NA+46749  28.210   7.348  11.713
74435ION    NA+46750  42.257  29.141   0.760
74436ION    NA+46751  29.110  18.058   2.179
74437ION    NA+46752  29.700  32.017   3.075
74438ION    NA+46753  27.503  32.988   2.394
74439ION    NA+46754  33.241  17.311  14.673
74440ION    NA+46755   3.268  25.073  14.823
74441ION    NA+46756  30.547  34.521  12.429
74442ION    NA+46757  38.136  32.473   3.233
74443ION    NA+46758  23.103  20.125   1.462
74444ION    NA+46759   2.015   9.784  12.405
74445ION    NA+46760  44.036   8.358  10.692
74446ION    NA+46761  14.950  28.217  14.835
74447ION    NA+46762  27.273  41.005  12.636
74448ION    NA+46763  20.282  28.213  13.917
74449ION    NA+46764  39.537  26.463   3.008
74450ION    NA+46765  15.483  27.572   3.031
74451ION    NA+46766  35.163   5.216   1.527
74452ION    NA+46767  39.785   1.980   3.622
74453ION    NA+46768   2.755  15.990  12.335
74454ION    NA+46769  35.351  29.633   1.161
74455ION    NA+46770  30.598  22.346  11.258
74456ION    NA+46771  44.256  17.530   0.004
74457ION    NA+46772   3.882  32.506   4.312
74458ION    NA+46773  44.229  35.091  10.695
74459ION    NA+46774  13.833  12.070   1.758
74460ION    NA+46775  16.300  21.636  14.448
74461ION    NA+46776   8.589  43.398  12.252
74462ION    NA+46777  11.181   2.874   0.862
74463ION    NA+46778   8.684  13.275  12.440
74464ION    NA+46779   7.975   6.389   4.386
74465ION    NA+46780  44.068  20.688   0.378
74466ION    NA+46781   5.229   5.360   2.734
74467ION    NA+46782  12.117  20.676   0.833
74468ION    NA+46783  29.326   5.251  11.820
74469ION    NA+46784  40.266   0.239   0.030
74470ION    NA+46785   4.465  34.357  13.420
74471ION    NA+46786  32.227   5.168  13.196
74472ION    NA+46787  19.246   6.646   1.726
74473ION    NA+46788  33.418  37.112   1.001
74474ION    NA+46789   6.699  17.097   4.083
74475ION    NA+46790   5.300  30.355  14.977
74476ION    NA+46791   1.283  16.073  11.360
74477ION    NA+46792  41.436   7.631  14.677
74478ION    NA+46793  34.823  28.735  11.704
74479ION    NA+46794  15.116  11.115   0.059
74480ION    NA+46795  22.672  11.618   0.669
74481ION    NA+46796  44.472   0.360  14.679
74482ION    NA+46797   2.895  32.637  10.720
74483ION    NA+46798  18.800   0.986  14.691
74484ION    NA+46799   8.528   9.173  11.876
74485ION    NA+46800  23.038   3.121   3.580
74486ION    NA+46801  36.353  13.306  12.975
74487ION    NA+46802   1.172   7.297   2.382
74488ION    NA+46803  14.071  17.163  13.101
74489ION    NA+46804  38.876  31.454  13.888
74490ION    NA+46805   0.599  10.852   2.316
74491ION    NA+46806  29.639  24.982  11.923
74492ION    NA+46807  17.947  44.831  12.300
74493ION    NA+46808  44.423  40.312  11.975
74494ION    NA+46809   3.893  41.772   3.149
74495ION    NA+46810   4.185   8.305   0.156
74496ION    NA+46811  43.199  31.888   4.549
74497ION    NA+46812  24.805  24.461   2.829
74498ION    NA+46813   7.635  27.192   4.093
74499ION    NA+46814  37.014  44.338   4.620
74500ION    NA+46815  25.264  24.123  11.919
74501ION    NA+46816  37.670   4.499  14.933
74502ION    NA+46817  18.825  13.925  11.514
74503ION    NA+46818  43.489  10.711  13.922
74504ION    NA+46819   5.707  28.628   0.941
74505ION    NA+46820  28.535   7.154   4.137
74506ION    NA+46821  27.357   9.458  14.410
74507ION    NA+46822  25.707  18.061  12.053
74508ION    NA+46823  21.713   7.482   3.220
74509ION    NA+46824  44.782  30.148   1.211
74510ION    NA+46825  11.948   5.629  12.216
74511ION    NA+46826  40.532  38.133  12.076
74512ION    NA+46827   8.750  16.507   4.214
74513ION    NA+46828  20.546   5.799  13.606
74514ION    NA+46829   3.308  20.493  12.561
74515ION    NA+46830  42.953  42.587   2.829
74516ION    NA+46831   7.669  21.594  11.704
74517ION    NA+46832  40.835  43.189   3.575
74518ION    NA+46833   1.029  17.679   2.322
74519ION    NA+46834  19.800  28.132  13.007
74520ION    NA+46835   2.248  11.732  14.698
74521ION    NA+46836   2.414  14.185  14.420
74522ION    NA+46837   2.870   5.307   0.374
74523ION    NA+46838  11.095  21.391  13.618
74524ION    NA+46839  23.656  10.680   5.110
74525ION    NA+46840  20.346  43.469   1.486
74526ION    NA+46841  15.410  19.934   1.508
74527ION    NA+46842  40.889  44.161   3.802
74528ION    NA+46843   1.567   7.652  11.181
74529ION    NA+46844  24.218  28.246  12.570
74530ION    NA+46845   0.405  38.376   2.280
74531ION    NA+46846  42.781  18.831  11.603
74532ION    NA+46847  31.011   8.911  12.074
74533ION    NA+46848  41.881  42.413  11.082
74534ION    NA+46849  32.548   7.980   3.169
74535ION    NA+46850  12.298   2.375  14.340
74536ION    NA+46851  43.182  30.965   3.710
74537ION    NA+46852  21.079  39.134  11.899
74538ION    NA+46853  36.496   1.484   5.362
74539ION    NA+46854  18.059  14.961  14.629
74540ION    NA+46855  26.609  16.387   2.413
74541ION    NA+46856  13.965  26.594  10.950
74542ION    NA+46857  27.394  22.142   4.662
74543ION    NA+46858  21.543  36.204  10.369
74544ION    NA+46859   6.973   0.165   1.876
74545ION    NA+46860  31.894   7.947   1.510
74546ION    NA+46861  36.326  15.900   4.126
74547ION    NA+46862   5.174  30.873  11.213
74548ION    NA+46863  21.929   2.446  10.491
74549ION    NA+46864  32.271   4.054   4.927
74550ION    NA+46865  18.028   6.315  14.854
74551ION    NA+46866  25.138  18.675   1.886
74552ION    NA+46867  10.272   7.798   1.797
74553ION    NA+46868  26.639   5.665  12.625
74554ION    NA+46869   3.049  21.941   2.416
74555ION    NA+46870  39.996  44.775   3.613
74556ION    NA+46871  33.184   1.763   1.061
74557ION    NA+46872  43.087  19.590  12.390
74558ION    NA+46873  41.860   9.497  14.416
74559ION    NA+46874   4.969  35.534   1.423
74560ION    NA+46875  23.161   2.478   4.622
74561ION    NA+46876  10.483  15.691   3.772
74562ION    NA+46877  26.371  19.282  14.046
74563ION    NA+46878  41.804   1.697   2.718
74564ION    NA+46879  20.352  38.754  12.471
74565ION    NA+46880  14.541  35.679   3.394
74566ION    NA+46881   2.408  17.084  14.136
74567ION    NA+46882  26.949  11.653  11.315
74568ION    NA+46883  13.169  38.053  14.771
74569ION    NA+46884  39.884  41.358   2.195
74570ION    NA+46885  13.855   9.423   3.076
74571ION    NA+46886  14.721  12.180   2.825
74572ION    CL-46887  18.785   2.874  13.999
74573ION    CL-46888  39.470  31.716  11.193
74574ION    CL-46889  21.683  26.453   2.747
74575ION    CL-46890  10.633  13.171  13.413
74576ION    CL-46891  19.607   0.508   2.488
74577ION    CL-46892  21.463   1.401   0.852
74578ION    CL-46893  34.265  22.977   1.676
74579ION    CL-46894  17.656  38.561   1.484
74580ION    CL-46895  34.011  23.939  14.742
74581ION    CL-46896  26.337  39.695  13.430
74582ION    CL-46897   6.130  24.888  10.905
74583ION    CL-46898  42.240   5.006   3.738
74584ION    CL-46899  38.656  33.772   0.194
74585ION    CL-46900  28.160  41.530   4.135
74586ION    CL-46901  11.680  30.104  14.496
74587ION    CL-46902  43.714  20.903   0.187
74588ION    CL-46903  12.036   5.407  12.610
74589ION    CL-46904  26.001  40.232   4.648
74590ION    CL-46905  16.479  44.778  11.917
74591ION    CL-46906  23.421  19.823   1.344
74592ION    CL-46907  40.168  30.604  14.752
74593ION    CL-46908  26.917  37.325   4.572
74594ION    CL-46909   0.811  23.352   1.639
74595ION    CL-46910   2.445   9.300  14.443
74596ION    CL-46911   7.070  14.110  10.327
74597ION    CL-46912   7.682  15.151  12.623
74598ION    CL-46913  35.117  34.523   5.090
74599ION    CL-46914  36.067  43.584   2.167
74600ION    CL-46915  35.838  23.630   1.633
74601ION    CL-46916  22.188  18.009   4.037
74602ION    CL-46917   5.247  11.315   3.609
74603ION    CL-46918  34.197  37.693   1.311
74604ION    CL-46919  31.440  28.615   1.208
74605ION    CL-46920  37.941  19.034   1.605
74606ION    CL-46921  16.243  11.594   3.206
74607ION    CL-46922  44.664  24.290  14.498
74608ION    CL-46923  14.222  38.838   2.793
74609ION    CL-46924  42.008  23.044   0.989
74610ION    CL-46925  32.079  44.755  12.828
74611ION    CL-46926   1.748  31.832  11.962
74612ION    CL-46927  23.198  11.907   3.293
74613ION    CL-46928   1.908   6.167   2.774
74614ION    CL-46929  19.355  25.078  11.654
74615ION    CL-46930  31.670  13.335  14.423
74616ION    CL-46931  29.127  22.487  13.977
74617ION    CL-46932  19.882  36.081   1.359
74618ION    CL-46933  11.435  14.840   0.231
74619ION    CL-46934  16.389  12.652   0.486
74620ION    CL-46935  15.830  17.781  12.961
74621ION    CL-46936  35.116  19.124  11.178
74622ION    CL-46937  41.293  15.231   3.294
74623ION    CL-46938  24.254  23.346  14.440
74624ION    CL-46939  27.886  36.960   4.355
74625ION    CL-46940  25.656  32.548   0.131
74626ION    CL-46941  28.779  29.953   1.234
74627ION    CL-46942  43.131  42.327   4.695
74628ION    CL-46943   0.922  38.499   0.497
74629ION    CL-46944  34.819   8.971  13.346
74630ION    CL-46945  21.825  13.191   0.366
74631ION    CL-46946  34.064  39.414  14.487
74632ION    CL-46947  44.435  26.214  14.422
74633ION    CL-46948   5.069  32.571   0.468
74634ION    CL-46949  18.769  10.025   4.740
74635ION    CL-46950  20.553  36.130   2.727
74636ION    CL-46951  30.364  22.651  11.014
74637ION    CL-46952  43.416  33.619  10.675
74638ION    CL-46953  12.600   7.059  13.927
74639ION    CL-46954  21.712   0.010  13.633
74640ION    CL-46955  33.349  43.399  12.777
74641ION    CL-46956  31.287  28.206  11.314
74642ION    CL-46957   0.319  18.030  14.496
74643ION    CL-46958   2.004  42.028  11.071
74644ION    CL-46959  23.779  31.561   1.260
74645ION    CL-46960  34.278  24.906  14.445
74646ION    CL-46961  27.128  43.900   0.747
74647ION    CL-46962  28.412  42.047   2.785
74648ION    CL-46963  29.177  11.584   2.149
74649ION    CL-46964  39.469  16.195   1.431
74650ION    CL-46965  30.238  21.917   2.358
74651ION    CL-46966  39.326  20.568  13.839
74652ION    CL-46967  17.555  28.483   3.347
74653ION    CL-46968  11.024  21.959  10.967
74654ION    CL-46969  12.878  30.915  12.015
74655ION    CL-46970  32.653  24.154  14.431
74656ION    CL-46971  17.631   6.845  12.371
74657ION    CL-46972  23.740   6.595   2.028
74658ION    CL-46973   8.927  15.783  12.645
74659ION    CL-46974   8.787   7.808  12.175
74660ION    CL-46975  24.687  19.759   2.370
74661ION    CL-46976   4.750  12.869  11.659
74662ION    CL-46977   0.744   3.191  13.827
74663ION    CL-46978  15.015   8.240   4.638
74664ION    CL-46979  27.203  13.336   2.342
74665ION    CL-46980  18.603  33.858   0.466
74666ION    CL-46981  29.751  42.817  12.501
74667ION    CL-46982  19.735  20.738  12.563
74668ION    CL-46983  22.185   4.764   1.899
74669ION    CL-46984  30.900  42.178  13.566
74670ION    CL-46985  18.818   2.212   2.220
74671ION    CL-46986  11.817  19.062  13.521
74672ION    CL-46987  26.489  38.906  11.024
74673ION    CL-46988  31.148   7.478   0.411
74674ION    CL-46989  19.476   2.972   3.522
74675ION    CL-46990  19.843  10.792  13.639
74676ION    CL-46991  17.643  43.624  14.847
74677ION    CL-46992  40.217   1.019   2.594
74678ION    CL-46993  16.425  24.487  12.979
74679ION    CL-46994   5.873  41.607   2.748
74680ION    CL-46995  42.550  31.072   0.961
74681ION    CL-46996  41.927  20.495   1.461
74682ION    CL-46997  32.477  20.940   1.229
74683ION    CL-46998  43.402  33.076  12.083
74684ION    CL-46999  27.324   8.180  14.160
74685ION    CL-47000  16.050  43.056  11.233
74686ION    CL-47001  22.236  16.151  10.594
74687ION    CL-47002   3.968  20.555  13.358
74688ION    CL-47003  44.504   5.848  13.005
74689ION    CL-47004  21.542  40.293  11.911
74690ION    CL-47005  17.651  15.917  11.026
74691ION    CL-47006  32.119  43.878   3.871
74692ION    CL-47007  23.670   0.749  11.677
74693ION    CL-47008  41.527   7.365   1.834
74694ION    CL-47009  20.378  42.424   3.949
74695ION    CL-47010  10.690  15.699  13.582
74696ION    CL-47011  43.557  44.953   3.861
74697ION    CL-47012  44.272  22.542   2.442
74698ION    CL-47013  30.975  23.571  14.773
74699ION    CL-47014  13.769  42.595   4.627
74700ION    CL-47015  35.091  32.345  11.574
74701ION    CL-47016  44.307  13.259   2.198
74702ION    CL-47017  32.126  14.663   0.772
74703ION    CL-47018  23.392  28.269   3.812
74704ION    CL-47019  31.952  42.349   1.146
74705ION    CL-47020  32.678  39.980   3.113
74706ION    CL-47021  34.238  37.912   2.868
74707ION    CL-47022  42.241  18.166   4.086
74708ION    CL-47023   5.643   9.052  14.100
74709ION    CL-47024  12.115  28.977  14.603
74710ION    CL-47025   3.826  33.318  11.976
74711ION    CL-47026  22.719   7.746   3.248
74712ION    CL-47027  10.177   1.444  11.666
74713ION    CL-47028  15.614  41.173  12.502
74714ION    CL-47029  14.492  16.604   4.430
74715ION    CL-47030  44.264  19.403   2.413
74716ION    CL-47031   6.770  36.760  12.891
74717ION    CL-47032  29.735   0.205   3.006
74718ION    CL-47033   8.525  39.951   1.121
74719ION    CL-47034  30.602  28.709   3.688
74720ION    CL-47035  42.201  10.863  13.531
74721ION    CL-47036   3.975  14.826   4.022
74722ION    CL-47037  16.841   4.948   2.036
74723ION    CL-47038  35.966  17.740   2.924
74724ION    CL-47039  35.420  39.294  13.956
74725ION    CL-47040  16.824  12.473  10.922
74726ION    CL-47041  22.753  20.413   1.502
74727ION    CL-47042  35.705   5.740   3.307
74728ION    CL-47043  28.560  28.989  14.960
74729ION    CL-47044  16.698  31.315  11.520
74730ION    CL-47045  20.810  30.923  14.326
74731ION    CL-47046   9.741  41.750  11.788
74732ION    CL-47047  17.236  12.332  14.849
74733ION    CL-47048  19.802  34.208   1.880
74734ION    CL-47049  22.179  36.947  14.616
74735ION    CL-47050  25.957   5.835   1.577
74736ION    CL-47051  44.341  23.662   4.831
74737ION    CL-47052  36.354  11.354   2.062
74738ION    CL-47053  27.967  11.472  12.974
74739ION    CL-47054  18.333  41.812   1.406
74740ION    CL-47055  24.336  37.646   0.658
74741ION    CL-47056  22.309  44.447  11.188
74742ION    CL-47057  12.884  27.884   2.051
74743ION    CL-47058  34.266  38.532   2.262
74744ION    CL-47059  19.033   3.373  14.539
74745ION    CL-47060  36.775  15.938  12.639
74746ION    CL-47061  13.269  32.227   5.185
74747ION    CL-47062   0.024  25.493   0.259
74748ION    CL-47063  36.241  35.503  13.652
74749ION    CL-47064  15.361  27.474   3.461
74750ION    CL-47065  20.720   7.734   0.025
74751ION    CL-47066  44.332  31.713   1.719
74752ION    CL-47067  19.628  15.876   3.312
74753ION    CL-47068  37.475   1.593   1.063
74754ION    CL-47069  36.133  37.394   4.698
74755ION    CL-47070  33.388   6.707   3.211
74756ION    CL-47071  17.424  42.660  14.998
74757ION    CL-47072  43.645  24.105  13.496
74758ION    CL-47073   7.277  35.255  11.696
74759ION    CL-47074  40.803   4.796  11.237
74760ION    CL-47075  42.719  38.705  14.548
74761ION    CL-47076  11.270  43.767  11.479
74762ION    CL-47077  28.629  25.669  14.734
74763ION    CL-47078   4.497  43.558   0.897
74764ION    CL-47079  15.597  27.432   2.615
74765ION    CL-47080  35.478   7.439  11.316
74766ION    CL-47081  22.420  43.723  13.760
74767ION    CL-47082  17.981  37.556  11.077
74768ION    CL-47083   5.417  28.425  12.585
74769ION    CL-47084  40.788   2.205  13.068
74770ION    CL-47085  40.767  33.147   1.273
74771ION    CL-47086  32.228  24.533  11.622
74772ION    CL-47087  39.825  35.295  13.517
74773ION    CL-47088  36.049  44.352   2.959
74774ION    CL-47089  33.500  26.467  14.249
74775ION    CL-47090  13.355  15.498   3.994
74776ION    CL-47091  19.786  20.074   1.002
74777ION    CL-47092   3.341  20.152  14.404
74778ION    CL-47093  25.109  37.977   0.319
74779ION    CL-47094  35.924  42.277   1.943
74780ION    CL-47095   4.554  12.933  10.095
74781ION    CL-47096  10.720  37.894  12.060
74782ION    CL-47097   3.636  10.424   4.694
74783ION    CL-47098   9.281  36.963   0.008
74784ION    CL-47099  15.586   5.457   4.111
74785ION    CL-47100  40.072   0.433  14.643
74786ION    CL-47101   5.262  15.051  12.531
74787ION    CL-47102  23.194  16.617   1.836
74788ION    CL-47103  37.075  21.491  12.542
74789ION    CL-47104  39.348   4.687   1.290
74790ION    CL-47105  15.690   5.713   2.076
74791ION    CL-47106  15.827  31.795   2.476
74792ION    CL-47107  35.562  33.392  10.929
74793ION    CL-47108   7.848   2.854  10.835
74794ION    CL-47109  18.152  41.512  12.006
74795ION    CL-47110  23.228   3.717  11.941
74796ION    CL-47111  42.255   5.568   2.554
74797ION    CL-47112  29.258  40.051   2.770
74798ION    CL-47113  35.685  19.669   3.870
74799ION    CL-47114  37.824   8.440  11.130
74800ION    CL-47115  27.754  23.598   4.661
74801ION    CL-47116   7.414   0.429   0.412
74802ION    CL-47117  14.440  18.164   4.853
74803ION    CL-47118  10.929  33.745  11.772
74804ION    CL-47119  24.490  14.697   3.359
74805ION    CL-47120  43.224   0.012  11.460
74806ION    CL-47121  21.219   1.619  14.998
74807ION    CL-47122  11.904  35.480   1.308
74808ION    CL-47123  13.273  30.336   5.120
74809ION    CL-47124  33.485   9.177  13.996
74810ION    CL-47125  14.044   2.530   0.789
74811ION    CL-47126  35.971  41.580  13.859
74812ION    CL-47127  27.596  24.394  14.696
74813ION    CL-47128  37.891  39.569  10.670
74814ION    CL-47129  43.369  12.880   3.962
74815ION    CL-47130   3.699  24.486   0.839
74816ION    CL-47131   1.697  39.164  13.941
74817ION    CL-47132  34.598  43.175  10.126
74818ION    CL-47133   5.547  26.774  11.162
74819ION    CL-47134  43.311  41.249   2.757
74820ION    CL-47135  36.970  40.947  10.781
74821ION    CL-47136  30.514   6.358  12.204
74822ION    CL-47137  11.849  21.625  12.459
74823ION    CL-47138  38.991   3.208  13.243
74824ION    CL-47139   0.940  11.401  12.239
74825ION    CL-47140   7.516  38.464  12.018
74826ION    CL-47141  10.613   8.821  10.900
74827ION    CL-47142  18.567  14.898  13.104
74828ION    CL-47143  20.781  18.990   3.753
74829ION    CL-47144  34.354  41.624  11.589
74830ION    CL-47145  12.273  33.387   4.902
74831ION    CL-47146  32.097   5.441   0.183
74832ION    CL-47147  36.048  23.533  11.174
74833ION    CL-47148  44.716  16.296  11.229
74834ION    CL-47149   2.818  42.137   3.927
74835ION    CL-47150  38.085   1.684   0.276
74836ION    CL-47151  25.291  22.228   3.827
74837ION    CL-47152  26.208   9.328   3.766
74838ION    CL-47153  32.408  22.034   3.369
74839ION    CL-47154  36.386  42.534  10.844
74840ION    CL-47155   4.679  13.593   4.525
74841ION    CL-47156  14.040  24.848   3.881
74842ION    CL-47157  39.766  28.099   3.199
74843ION    CL-47158   1.235  39.992   2.772
74844ION    CL-47159  37.599  23.869  11.558
74845ION    CL-47160  26.438  30.757  14.031
74846ION    CL-47161   3.115  29.517  11.642
74847ION    CL-47162  41.484   8.421   1.328
74848ION    CL-47163  29.789  28.924   1.147
74849ION    CL-47164  37.979  17.457   1.502
74850ION    CL-47165  26.722  30.912  10.671
74851ION    CL-47166  33.491  26.213   0.063
74852ION    CL-47167   8.367   3.840   3.095
74853ION    CL-47168  33.894   5.020   9.921
74854ION    CL-47169   9.367  21.173   2.333
74855ION    CL-47170  36.305  38.228   2.992
74856ION    CL-47171  15.111  18.759   2.740
74857ION    CL-47172  20.709   4.503   1.176
74858ION    CL-47173  22.370   3.560  12.862
74859ION    CL-47174   0.225   6.514   2.362
74860ION    CL-47175  39.007  33.975   4.804
74861ION    CL-47176  27.431  27.504  10.359
74862ION    CL-47177   4.030  28.029  13.827
74863ION    CL-47178   8.302   2.821   3.754
74864ION    CL-47179  19.772   3.647   4.248
74865ION    CL-47180  13.110  21.339  14.401
74866ION    CL-47181  38.358  41.375   1.325
74867ION    CL-47182  17.886   1.635  11.628
74868ION    CL-47183  33.774  42.792  11.866
74869ION    CL-47184   1.681   1.916   2.799
74870ION    CL-47185  27.794   3.543   4.972
74871ION    CL-47186  12.066   8.638  11.829
74872ION    CL-47187  30.705  18.289   2.364
74873ION    CL-47188   8.737   9.177  13.754
74874ION    CL-47189   8.885  38.847   4.392
74875ION    CL-47190   6.629  19.021   1.408
74876ION    CL-47191  28.241  16.113   2.274
74877ION    CL-47192  16.007  36.603  14.555
74878ION    CL-47193   0.815   7.376   2.099
74879ION    CL-47194  28.533  30.797   5.220
74880ION    CL-47195  36.199  18.781   2.826
74881ION    CL-47196  23.414   4.744  14.638
74882ION    CL-47197  41.611  37.399  11.018
74883ION    CL-47198  22.996  24.221  11.462
74884ION    CL-47199  29.052   6.142  12.881
74885ION    CL-47200  34.683   4.862  12.255
74886ION    CL-47201  35.477  43.875   3.668
74887ION    CL-47202  12.149  38.596  14.105
74888ION    CL-47203  23.464  27.500   4.279
74889ION    CL-47204  11.267   7.466  13.205
74890ION    CL-47205  15.139  37.588   3.545
74891ION    CL-47206   2.335  44.369   2.355
74892ION    CL-47207  28.516  22.316   1.806
74893ION    CL-47208  31.889  21.214   2.106
74894ION    CL-47209  12.324   2.025   3.345
74895ION    CL-47210  41.360  32.498  14.328
74896ION    CL-47211  30.476  10.555   3.838
74897ION    CL-47212  32.379  42.545  13.932
74898ION    CL-47213   0.028  10.804   4.077
74899ION    CL-47214  20.998   7.310   1.351
74900ION    CL-47215  29.756   4.316   2.825
74901ION    CL-47216  24.212  32.317   2.323
74902ION    CL-47217  22.988  40.928   0.524
74903ION    CL-47218   6.003  15.069  13.058
74904ION    CL-47219  41.677  17.592  11.158
74905ION    CL-47220  14.611  31.998   3.691
74906ION    CL-47221  19.107  24.195   0.025
74907ION    CL-47222   7.386  10.204   1.797
74908ION    CL-47223  35.504  12.947  11.156
74909ION    CL-47224   8.366   9.695   4.324
74910ION    CL-47225  40.037  40.878  13.911
74911ION    CL-47226  27.913  28.125  12.905
74912ION    CL-47227  42.513  19.902  14.670
74913ION    CL-47228   2.567  32.948  10.676
74914ION    CL-47229  30.840  34.840  12.526
74915ION    CL-47230  12.074  13.178   1.199
74916ION    CL-47231   2.493  11.059   4.070
74917ION    CL-47232   0.708   5.169  10.065
74918ION    CL-47233   7.509  40.060  12.140
74919ION    CL-47234  25.751  42.577  14.482
74920ION    CL-47235  29.293   5.540  10.080
74921ION    CL-47236   7.594  40.140  14.876
74922ION    CL-47237   4.602   6.329   3.652
74923ION    CL-47238  11.848  24.661   3.192
74924ION    CL-47239  17.632   4.286  11.928
74925ION    CL-47240  39.898  17.845   1.221
74926ION    CL-47241  42.777  21.102   3.730
74927ION    CL-47242  14.396  43.826   1.280
74928ION    CL-47243  36.319  41.856  11.419
74929ION    CL-47244  30.756   5.275   5.043
74930ION    CL-47245  25.927  35.682  14.523
74931ION    CL-47246   8.934  29.093   4.090
74932ION    CL-47247  43.247  10.344  13.839
74933ION    CL-47248   9.985  40.299   4.996
74934ION    CL-47249  12.622  34.993  11.067
74935ION    CL-47250  16.806  42.616  14.176
74936ION    CL-47251  16.820  10.387  12.842
74937ION    CL-47252   7.726   1.448   2.280
74938ION    CL-47253  40.020  37.686  14.603
74939ION    CL-47254  10.100   1.992   0.356
74940ION    CL-47255  43.215  32.197   1.198
74941ION    CL-47256  12.032  34.715  12.068
74942ION    CL-47257  19.047  40.557   0.010
74943ION    CL-47258   3.637   7.418   4.164
74944ION    CL-47259  22.259   0.809   0.991
74945ION    CL-47260  42.419  37.020   3.431
74946ION    CL-47261  25.032  38.929   3.074
74947ION    CL-47262  22.570  38.917  14.530
74948ION    CL-47263  36.513  10.005   4.952
74949ION    CL-47264  15.341  38.961  10.920
74950ION    CL-47265   6.244  23.462  12.788
74951ION    CL-47266   9.646  36.594  12.449
74952ION    CL-47267  21.360  34.576  13.338
74953ION    CL-47268  30.464   7.892   2.785
74954ION    CL-47269  27.298   5.223   2.673
74955ION    CL-47270   7.450   5.621  12.968
74956ION    CL-47271   0.531  33.709  11.179
74957ION    CL-47272  10.338   8.223  10.265
74958ION    CL-47273  18.349  13.888   2.865
74959ION    CL-47274   3.958  14.063  14.700
74960ION    CL-47275  40.928  10.658  12.005
74961ION    CL-47276  29.564  41.180  14.109
74962ION    CL-47277   1.630  44.935  11.616
74963ION    CL-47278  12.260  32.076   1.939
74964ION    CL-47279  20.725  32.129   0.464
74965ION    CL-47280  15.039  12.571   0.577
74966ION    CL-47281  43.497  17.465  12.467
74967ION    CL-47282   5.513   6.680   4.184
74968ION    CL-47283  26.134  17.746  10.645
74969ION    CL-47284  44.456  43.716   1.313
74970ION    CL-47285  10.497  40.856  14.262
74971ION    CL-47286  26.723  14.899   3.308
74972ION    CL-47287   1.432  35.912  14.180
74973ION    CL-47288  33.587  26.617   1.976
74974ION    CL-47289  27.505   8.772   2.773
74975ION    CL-47290  15.026  27.578   4.881
74976ION    CL-47291  39.614  44.561   3.512
74977ION    CL-47292  28.584  34.024   2.619
74978ION    CL-47293  21.029  32.851  13.436
74979ION    CL-47294  21.198  41.615   1.320
74980ION    CL-47295   4.221  29.108   1.657
74981ION    CL-47296   9.622  18.185  10.756
74982ION    CL-47297   8.304  37.010  14.797
74983ION    CL-47298  19.326  25.941   5.165
74984ION    CL-47299   9.397  18.152  12.956
74985ION    CL-47300  15.552  40.179  12.342
74986ION    CL-47301  35.502   2.296   4.145
74987ION    CL-47302   6.742  42.905  13.430
74988ION    CL-47303  38.308   4.641   4.080
74989ION    CL-47304  18.070  34.182  13.260
74990ION    CL-47305  21.000  24.237  13.803
74991ION    CL-47306  19.288  30.228  12.238
74992ION    CL-47307   0.528  10.347   0.593
74993ION    CL-47308  34.619  22.236   0.530
74994ION    CL-47309  43.088  13.866   3.210
74995ION    CL-47310  20.916  34.569   5.123
74996ION    CL-47311  29.986  10.311   1.643
74997ION    CL-47312  24.863  15.616  14.890
74998ION    CL-47313  19.976  31.701   1.717
74999ION    CL-47314  16.398  10.266   4.531
75000ION    CL-47315  12.674  30.925   4.927
75001ION    CL-47316  12.861   8.717   1.828
75002ION    CL-47317  39.277  16.073   4.882
75003ION    CL-47318  35.580  31.378   4.309
75004ION    CL-47319  30.848  22.076  11.527
75005ION    CL-47320  19.382  35.959   3.458
75006ION    CL-47321  22.034  20.810  11.668
75007ION    CL-47322  42.469  25.940  12.967
75008ION    CL-47323  39.039   5.769   3.304
75009ION    CL-47324  43.100  33.209   1.347
75010ION    CL-47325  38.225   9.388  13.944
75011ION    CL-47326   8.601  38.469   0.502
75012ION    CL-47327  18.628  23.699  12.630
75013ION    CL-47328  22.072  33.459  14.489
75014ION    CL-47329  38.530   3.052   3.552
75015ION    CL-47330   3.823  40.851  14.993
75016ION    CL-47331  41.452  20.903  11.852
75017ION    CL-47332  24.377  27.764   3.144
75018ION    CL-47333  43.888  37.823  13.373
75019ION    CL-47334   6.042  13.988   3.329
75020ION    CL-47335  26.052  41.614  13.865
75021ION    CL-47336  19.434  39.831  12.466
75022ION    CL-47337  21.736  10.818  11.595
75023ION    CL-47338  22.877   0.503   3.332
75024ION    CL-47339   1.152   6.657   2.707
75025ION    CL-47340  44.361   9.345   9.752
75026ION    CL-47341  33.100  28.414   3.217
75027ION    CL-47342  18.155   8.778  14.521
75028ION    CL-47343   1.613  43.087  12.698
75029ION    CL-47344  44.771   9.683   0.522
75030ION    CL-47345   3.422   8.797  13.481
75031ION    CL-47346  32.193   0.710   3.806
75032ION    CL-47347  26.155  17.406   2.883
75033ION    CL-47348  17.863  15.035   0.026
75034ION    CL-47349  37.823  20.454  14.320
75035ION    CL-47350   0.903   8.040   2.841
75036ION    CL-47351  44.465  21.656  13.527
75037ION    CL-47352  33.105  38.842  10.535
75038ION    CL-47353   0.398  36.522  12.397
75039ION    CL-47354  39.992  17.617  13.733
75040ION    CL-47355  41.081  44.247   0.932
75041ION    CL-47356  19.257  34.991   1.209
75042ION    CL-47357  43.399  22.531  12.061
75043ION    CL-47358   8.168   5.971   0.800
75044ION    CL-47359  34.256  43.527  12.343
75045ION    CL-47360  13.138   7.132   1.868
75046ION    CL-47361   0.095  40.881  10.886
75047ION    CL-47362   9.777   9.406  12.673
75048ION    CL-47363  37.144  40.094   2.893
75049ION    CL-47364  24.965  33.870  14.024
75050ION    CL-47365  41.383  18.539   1.366
75051ION    CL-47366  11.283  22.272   0.345
75052ION    CL-47367  20.725  14.418   4.043
75053ION    CL-47368   1.582  42.150  12.642
75054ION    CL-47369  12.248  15.582   2.752
75055ION    CL-47370  36.325  40.246  11.823
75056ION    CL-47371  40.266  35.632   3.340
75057ION    CL-47372  44.289  39.855  14.387
75058ION    CL-47373  35.571  43.282  14.771
75059ION    CL-47374   9.196  22.276  11.195
75060ION    CL-47375  15.885  14.708  14.507
75061ION    CL-47376  15.803  38.220   9.905
75062ION    CL-47377   9.898   2.102  12.713
75063ION    CL-47378  22.150  36.300   4.468
75064ION    CL-47379  39.045  31.442   4.195
75065ION    CL-47380  38.922  12.831   2.787
75066ION    CL-47381  21.308   2.970  11.303
75067ION    CL-47382  19.134   3.460   4.995
75068ION    CL-47383  44.037  26.192  11.914
75069ION    CL-47384  42.826  42.981   0.958
75070ION    CL-47385   1.243  18.065   2.242
75071ION    CL-47386   4.189  31.121   3.639
75072ION    CL-47387   6.860  35.390   0.216
75073ION    CL-47388  20.064  40.541   9.546
75074ION    CL-47389  26.359  42.173   0.505
75075ION    CL-47390  27.614  18.176  14.835
75076ION    CL-47391  22.505  22.041  12.550
75077ION    CL-47392  13.837   4.791   2.194
75078ION    CL-47393  18.027  20.715   1.735
75079ION    CL-47394   0.281   3.224  12.941
75080ION    CL-47395   4.109   0.172  10.504
75081ION    CL-47396  22.111  25.902  11.572
75082ION    CL-47397  36.083  19.573   2.510
75083ION    CL-47398   1.669  43.785  10.420
75084ION    CL-47399  36.803  42.286   1.316
75085ION    CL-47400  28.200   3.089   4.974
75086ION    CL-47401  41.225  39.993   3.471
75087ION    CL-47402  22.766  11.514  12.465
75088ION    CL-47403   4.759  10.975   2.189
75089ION    CL-47404  17.792  34.208   1.042
75090ION    CL-47405   3.460   4.445  14.045
75091ION    CL-47406  28.978  34.988  14.852
75092ION    CL-47407   6.092  26.852  11.542
75093ION    CL-47408  28.952  34.300  10.071
75094ION    CL-47409  17.766  18.604  13.845
75095ION    CL-47410  23.181  39.820  11.284
75096ION    CL-47411  10.822  43.882  10.593
75097ION    CL-47412  37.345  29.570  13.866
75098ION    CL-47413  15.266  38.534  12.534
75099ION    CL-47414   5.320  13.094   4.295
75100ION    CL-47415  24.338  32.331  13.484
75101ION    CL-47416  38.748   8.243   3.480
75102ION    CL-47417  11.569  37.366  12.034
75103ION    CL-47418  10.920   8.083  10.857
75104ION    CL-47419  14.443   3.992   2.046
75105ION    CL-47420  33.902  29.025  11.207
75106ION    CL-47421  43.172  33.091   4.082
75107ION    CL-47422  43.272  14.690   1.974
75108ION    CL-47423   4.155   2.848  11.772
75109ION    CL-47424   5.395  10.197   0.743
75110ION    CL-47425   5.683   2.471   0.884
75111ION    CL-47426  28.269  42.854  14.174
75112ION    CL-47427  32.468  21.814   5.053
75113ION    CL-47428   6.774   5.051  10.333
75114ION    CL-47429  20.453  32.618  13.721
75115ION    CL-47430  32.904  32.505  11.264
75116ION    CL-47431  26.727  41.202  10.448
75117ION    CL-47432  24.761  21.479   2.324
75118ION    CL-47433  34.119  13.473   3.157
75119ION    CL-47434   9.025   0.584  11.350
75120ION    CL-47435  18.680  19.963   1.824
75121ION    CL-47436   4.636   6.923  11.375
75122ION    CL-47437  36.166   4.634  10.131
75123ION    CL-47438  40.581  27.480  13.038
75124ION    CL-47439   1.668  36.916  10.052
75125ION    CL-47440  11.765  36.370  14.605
75126ION    CL-47441   5.977   4.301   3.201
75127ION    CL-47442  18.989   0.723   0.011
75128ION    CL-47443  17.641  23.915  14.509
75129ION    CL-47444  23.315  41.599  11.215
75130ION    CL-47445  18.794  12.470   2.676
75131ION    CL-47446  33.333  42.041   1.245
75132ION    CL-47447  21.031   9.155   2.211
75133ION    CL-47448   8.251   0.748   4.158
75134ION    CL-47449  40.157  23.018   2.666
75135ION    CL-47450  29.515  15.909  14.318
75136ION    CL-47451  27.506  35.475   0.606
75137ION    CL-47452  12.887  17.649   3.239
75138ION    CL-47453  16.594  39.552  11.181
75139ION    CL-47454  26.417  43.182   4.075
75140ION    CL-47455  10.084  18.882   4.216
75141ION    CL-47456  24.501  18.547  11.193
75142ION    CL-47457  25.296  28.608   0.385
75143ION    CL-47458   6.789  15.105   3.216
75144ION    CL-47459  23.493  38.097   0.364
75145ION    CL-47460  38.730   0.832   1.262
75146ION    CL-47461  20.545  20.760  13.492
75147ION    CL-47462   7.129  25.515  14.538
75148ION    CL-47463  25.949  20.134  12.243
75149ION    CL-47464  24.667  20.754  12.454
75150ION    CL-47465  14.887  22.765   2.585
75151ION    CL-47466  29.551  41.586   0.092
75152ION    CL-47467  44.757  25.253  14.237
75153ION    CL-47468   0.505  44.420  13.178
75154ION    CL-47469  12.287  41.165  14.724
75155ION    CL-47470  17.808   9.460   1.879
75156ION    CL-47471   4.689   5.887  13.486
75157ION    CL-47472  26.003  37.190  11.700
75158ION    CL-47473  12.304  34.782  14.619
75159ION    CL-47474  36.710  10.776   4.263
75160ION    CL-47475   2.353  19.151  14.610
75161ION    CL-47476  37.857  16.093  11.184
75162ION    CL-47477  11.641  41.820   3.419
75163ION    CL-47478  34.701  25.818  14.392
75164ION    CL-47479   4.752  21.537   0.123
75165ION    CL-47480  35.743  22.738  14.785
75166ION    CL-47481  40.690   1.631   4.783
75167ION    CL-47482   0.774  36.955   2.231
75168ION    CL-47483  31.227   2.861  12.853
75169ION    CL-47484   7.884  27.638  12.835
75170ION    CL-47485  44.896  22.626   5.019
75171ION    CL-47486  27.260  11.440   4.641
75172ION    CL-47487  11.092  19.750  13.479
75173ION    CL-47488  24.784   1.412  13.350
75174ION    CL-47489  31.909  29.862   4.334
75175ION    CL-47490  44.218  18.670   1.178
75176ION    CL-47491  34.424  31.879  14.574
75177ION    CL-47492  42.868  16.858  11.446
75178ION    CL-47493  21.068  21.304  12.836
75179ION    CL-47494  37.023  38.741   4.104
75180ION    CL-47495  15.884  29.249   1.926
75181ION    CL-47496  32.870  28.553  13.355
75182ION    CL-47497  36.609  31.304  14.854
75183ION    CL-47498  24.039  25.004   2.774
75184ION    CL-47499  35.279   5.412   0.952
75185ION    CL-47500  14.656   6.261   1.170
75186ION    CL-47501   7.437   6.382   3.222
75187ION    CL-47502  24.245  17.722   3.882
75188ION    CL-47503   0.013  15.878   1.503
75189ION    CL-47504  18.528  13.763  11.221
75190ION    CL-47505   4.776   2.033   0.766
75191ION    CL-47506  38.046  40.996   3.620
75192ION    CL-47507  43.051  12.288  14.158
75193ION    CL-47508   5.500  23.775  10.404
75194ION    CL-47509  35.730   5.050  13.632
75195ION    CL-47510   8.279   2.049  10.427
75196ION    CL-47511  21.728  26.927   4.527
75197ION    CL-47512  18.570  28.045   0.822
75198ION    CL-47513  14.309  40.046   3.209
75199ION    CL-47514  39.042  11.981  10.389
75200ION    CL-47515  39.519  22.029   3.775
75201ION    CL-47516   0.479  30.079   2.092
75202ION    CL-47517   5.654  20.671   3.696
75203ION    CL-47518  38.479  40.828   2.734
75204ION    CL-47519  28.466   6.934   5.329
75205ION    CL-47520  15.577  34.681  13.401
75206ION    CL-47521  43.536   1.145  12.765
75207ION    CL-47522  23.966  27.859  10.025
75208ION    CL-47523  21.948   5.356   0.021
75209ION    CL-47524   2.658  22.007   2.648
75210ION    CL-47525  34.205  19.589  13.127
75211ION    CL-47526   8.170   5.451  10.959
75212ION    CL-47527  24.177  28.168   1.384
75213ION    CL-47528  42.775  36.773   0.564
75214ION    CL-47529  36.388  40.922  12.275
75215ION    CL-47530  13.442  33.547   2.945
75216ION    CL-47531  25.519   3.938   9.922
75217ION    CL-47532  39.305  33.520   2.815
75218ION    CL-47533  18.503  37.512   5.037
75219ION    CL-47534  21.782  18.911   3.891
75220ION    CL-47535  15.162  42.946  12.862
75221ION    CL-47536   3.949  27.082  12.194
75222ION    CL-47537  15.402  22.270   3.042
75223ION    CL-47538  26.758  37.610   1.755
75224ION    CL-47539   3.527  17.602  14.884
75225ION    CL-47540  30.609  28.507  10.613
75226ION    CL-47541  44.685  14.107   0.477
75227ION    CL-47542  34.647  30.008  14.947
75228ION    CL-47543  16.074  34.592   0.911
75229ION    CL-47544  19.755  10.278  11.042
75230ION    CL-47545  43.005  39.855   1.001
75231ION    CL-47546  18.005  25.529   4.001
75232ION    CL-47547  15.103  44.954   0.857
75233ION    CL-47548   3.558   6.193   5.060
75234ION    CL-47549  26.884  13.405   4.900
75235ION    CL-47550  28.855  39.553  12.324
75236ION    CL-47551  13.144  30.104   3.153
75237ION    CL-47552  11.505  34.186  11.319
75238ION    CL-47553  40.025  33.275   1.658
75239ION    CL-47554   1.544  41.286  11.033
75240ION    CL-47555  12.107  16.773  12.259
75241ION    CL-47556   4.971  40.348  12.036
75242ION    CL-47557  23.440  21.770   4.595
75243ION    CL-47558  36.511  22.251   1.285
75244ION    CL-47559  13.452  13.782  12.052
75245ION    CL-47560   3.232  27.619  12.225
75246ION    CL-47561  37.590  40.189  14.164
75247ION    CL-47562   7.545  34.713  10.826
75248ION    CL-47563  12.744  28.244   1.228
75249ION    CL-47564  30.403  40.375   1.779
75250ION    CL-47565  38.515  39.976   2.211
75251ION    CL-47566  34.878   7.132   3.969
75252ION    CL-47567  38.295  17.628  14.333
75253ION    CL-47568  41.551  23.872  14.526
75254ION    CL-47569   1.938  10.192  14.390
75255ION    CL-47570  14.211  23.949   0.395
75256ION    CL-47571  29.266  28.327  12.852
75257ION    CL-47572  19.112  32.885   1.918
75258ION    CL-47573  40.230   2.048   3.647
75259ION    CL-47574  30.081  42.428  14.083
75260ION    CL-47575   9.348   0.294  14.808
75261ION    CL-47576  40.437  28.473   3.945
75262ION    CL-47577   1.217  25.320   0.093
75263ION    CL-47578  23.337   0.341   0.524
75264ION    CL-47579   9.616  30.333  12.972
75265ION    CL-47580  34.332  10.096   2.748
75266ION    CL-47581   8.599   9.939  10.464
75267ION    CL-47582  44.852   2.567  11.568
75268ION    CL-47583  11.473  44.966  13.694
75269ION    CL-47584   4.428  41.584   2.197
75270ION    CL-47585  10.901  35.981  12.571
75271ION    CL-47586   8.987  25.527  10.875
75272ION    CL-47587  15.742  22.604  12.666
75273ION    CL-47588  26.482  13.415   1.608
75274ION    CL-47589  11.732   5.583   4.310
75275ION    CL-47590   5.639  28.703  14.459
75276ION    CL-47591  20.798  22.969  13.829
75277ION    CL-47592   6.855  38.424  13.040
75278ION    CL-47593  27.669  15.991  13.586
75279ION    CL-47594  12.515   7.581  10.830
75280ION    CL-47595  17.330  32.475   3.779
75281ION    CL-47596  44.068  33.028   4.522
75282ION    CL-47597   7.016   0.576   2.072
75283ION    CL-47598  35.413  19.745  11.636
75284ION    CL-47599  18.524  25.149  12.206
75285ION    CL-47600   7.529  30.885   4.281
75286ION    CL-47601  14.255  42.360   1.197
75287ION    CL-47602  16.574  42.525  13.291
75288ION    CL-47603  34.726  35.876  14.564
75289ION    CL-47604  19.247  16.357  12.541
75290ION    CL-47605   5.476  20.607  13.499
75291ION    CL-47606  21.047  23.438  11.597
75292ION    CL-47607   1.935  40.454   3.330
75293ION    CL-47608  22.756  37.355  12.150
75294ION    CL-47609  39.476  27.436   2.093
75295ION    CL-47610  18.901  19.446   3.421
75296ION    CL-47611   0.542  20.818   1.397
75297ION    CL-47612  25.152  22.192   1.194
75298ION    CL-47613   7.733  39.015   0.058
75299ION    CL-47614  23.369  37.296  14.778
75300ION    CL-47615  24.458  15.154  11.530
75301ION    CL-47616  25.728  44.475   1.639
75302ION    CL-47617  12.147   9.797  12.582
75303ION    CL-47618  20.663  13.233   1.601
75304ION    CL-47619   4.777  20.789   9.678
75305ION    CL-47620  20.573   6.477   4.314
75306ION    CL-47621  18.153  20.990   3.380
75307ION    CL-47622  15.204  26.447  10.999
75308ION    CL-47623  42.664  14.250   0.200
75309ION    CL-47624   4.988  26.572  13.602
75310ION    CL-47625  38.279  13.115   3.222
75311ION    CL-47626  28.188  33.075  10.922
75312ION    CL-47627  37.464   4.242  13.257
75313ION    CL-47628   7.667   7.833  13.658
75314ION    CL-47629  30.464   2.889  13.570
75315ION    CL-47630  23.718  13.074  11.829
75316ION    CL-47631  22.798  42.919  13.741
75317ION    CL-47632  28.499  39.566   2.975
75318ION    CL-47633  27.994  31.349   2.641
75319ION    CL-47634   1.678  30.563  12.512
75320ION    CL-47635  12.506  16.126   4.131
75321ION    CL-47636  42.780   3.408   4.589
75322ION    CL-47637   7.592  22.805   0.038
75323ION    CL-47638  38.587  23.468  12.835
75324ION    CL-47639  14.451  24.066  14.431
75325ION    CL-47640   3.257   0.147   5.006
75326ION    CL-47641   8.182  38.072  12.653
75327ION    CL-47642  35.962  21.521   1.210
75328ION    CL-47643  29.379  26.886   0.866
75329ION    CL-47644  26.624   3.740   0.736
75330ION    CL-47645  25.266  40.504   2.012
75331ION    CL-47646  43.638  11.504  12.014
75332ION    CL-47647  18.257  42.840  14.757
75333ION    CL-47648  29.417  28.664   2.834
75334ION    CL-47649  29.845   7.150  10.325
75335ION    CL-47650  26.486  13.392  11.708
75336ION    CL-47651  37.048  37.769   2.840
75337ION    CL-47652  30.061   9.782  14.778
75338ION    CL-47653  32.017   8.927  14.399
75339ION    CL-47654  27.520   9.101  14.682
75340ION    CL-47655  25.990  19.444  13.882
75341ION    CL-47656  10.362  24.077  10.895
75342ION    CL-47657  10.028  36.814   3.167
75343ION    CL-47658  42.248  39.334  14.955
75344ION    CL-47659  34.990   5.333  13.296
75345ION    CL-47660   5.224  43.866   0.419
75346ION    CL-47661  35.839   0.328   2.901
75347ION    CL-47662  27.731  40.259  13.455
75348ION    CL-47663  28.914  43.284   2.689
75349ION    CL-47664  32.776  41.125  10.927
75350ION    CL-47665  27.088  18.677   2.626
75351ION    CL-47666  19.529  44.303  12.899
75352ION    CL-47667   7.780  39.554  14.088
75353ION    CL-47668  13.119   4.089  14.211
75354ION    CL-47669  30.373  22.094   3.333
75355ION    CL-47670  41.116  31.405  10.862
75356ION    CL-47671  43.455   4.719  12.964
75357ION    CL-47672   4.295   3.324  13.052
75358ION    CL-47673  42.868  24.524  13.025
75359ION    CL-47674  36.071  11.289  14.863
75360ION    CL-47675  13.815  29.645  14.352
75361ION    CL-47676  34.447  32.191   2.598
75362ION    CL-47677   2.160  44.454   4.561
75363ION    CL-47678  21.730  40.530   3.329
75364ION    CL-47679  39.908   9.122  13.524
75365ION    CL-47680   5.633  43.076  11.632
75366ION    CL-47681   5.524   2.471  12.228
75367ION    CL-47682  13.279  36.308  14.963
75368ION    CL-47683  26.694  10.856  14.782
75369ION    CL-47684  40.236  31.152  10.884
75370ION    CL-47685  35.960  34.422   3.342
75371ION    CL-47686  38.851  21.992  11.887
75372ION    CL-47687  26.411  23.027  14.139
75373ION    CL-47688  23.807   5.055  13.728
75374ION    CL-47689  13.504  34.555  12.580
75375ION    CL-47690  13.588  28.605  12.681
75376ION    CL-47691  32.020  21.957  11.150
75377ION    CL-47692  30.210  17.623   2.118
75378ION    CL-47693  14.685  42.789  14.054
75379ION    CL-47694  41.845   2.841   3.242
75380ION    CL-47695  20.451  22.778   1.426
75381ION    CL-47696  34.993  27.941   0.288
75382ION    CL-47697  33.123  24.146  12.813
75383ION    CL-47698   5.178   4.462   1.726
75384ION    CL-47699   0.576  38.999   3.977
75385ION    CL-47700  32.281   1.776   4.570
75386ION    CL-47701  28.573  27.989  14.953
75387ION    CL-47702  42.954  21.352  14.899
75388ION    CL-47703  21.476  31.558  13.441
75389ION    CL-47704  29.888  18.895   1.340
75390ION    CL-47705   8.159  21.333   0.692
75391ION    CL-47706  40.506   8.445  14.373
75392ION    CL-47707  37.775   3.584  12.538
75393ION    CL-47708  17.167   6.773   0.924
75394ION    CL-47709  41.440  30.689   0.007
75395ION    CL-47710  23.970  40.101  14.427
75396ION    CL-47711  42.934  42.059  12.059
75397ION    CL-47712  37.507   4.684   0.306
75398ION    CL-47713   3.443  22.968  13.301
75399ION    CL-47714  32.061  42.248  11.467
75400ION    CL-47715  34.541  14.791  12.121
75401ION    CL-47716  39.438  30.180   2.650
75402ION    CL-47717  15.634  23.277  10.909
75403ION    CL-47718  12.625  20.057  11.155
75404ION    CL-47719  10.845  35.099   2.067
75405ION    CL-47720  28.840  19.470   0.299
75406ION    CL-47721   1.463  34.873  12.849
75407ION    CL-47722   7.520  13.523   2.670
75408ION    CL-47723  25.254  11.013  13.589
75409ION    CL-47724  10.858  26.697   4.087
75410ION    CL-47725   6.416  35.067   5.144
75411ION    CL-47726   2.370  22.564   4.387
75412ION    CL-47727   8.258  26.786  10.413
75413ION    CL-47728  43.938  38.805   1.455
75414ION    CL-47729  28.898  21.666  14.077
75415ION    CL-47730   3.491  38.323   3.110
75416ION    CL-47731  13.106  16.387  10.100
75417ION    CL-47732  27.155  40.331   4.854
75418ION    CL-47733  32.054  37.268  12.064
75419ION    CL-47734  29.596  17.781   3.952
75420ION    CL-47735   7.236  22.296  11.087
75421ION    CL-47736  13.378  22.836  11.961
75422ION    CL-47737  36.185   7.828  10.959
75423ION    CL-47738  28.968  19.259  10.929
75424ION    CL-47739  42.738   5.609   4.170
75425ION    CL-47740  32.973  30.132  14.416
75426ION    CL-47741   6.327   1.964   1.456
75427ION    CL-47742   3.255  42.989  10.740
75428ION    CL-47743  17.377  43.793   2.873
75429ION    CL-47744  28.972  17.324  14.445
75430ION    CL-47745  19.227  22.279   0.463
75431ION    CL-47746   6.262  41.743   4.045
75432ION    CL-47747  29.461  44.405  13.633
75433ION    CL-47748   3.144  36.544   1.927
75434ION    CL-47749   2.942  26.269  14.997
75435ION    CL-47750  20.050  21.281   0.955
75436ION    CL-47751  22.679  42.512   3.406
75437ION    CL-47752   7.816  37.134   3.722
75438ION    CL-47753   3.167  32.302  10.860
75439ION    CL-47754  43.065   0.526  12.302
75440ION    CL-47755   2.500  38.970   3.208
75441ION    CL-47756  34.131   5.315   2.729
75442ION    CL-47757   4.289  40.160   1.976
75443ION    CL-47758  42.741   0.938  11.450
75444ION    CL-47759  24.268  21.268   4.345
75445ION    CL-47760  38.285  41.777   2.981
75446ION    CL-47761  27.981  44.275   9.813
75447ION    CL-47762  43.986  30.083   4.500
75448ION    CL-47763  26.891  34.922   3.769
75449ION    CL-47764  11.535   2.700   2.634
75450ION    CL-47765   8.537  41.375   3.771
75451ION    CL-47766  28.467  43.256   1.795
75452ION    CL-47767   7.241   0.912  14.397
75453ION    CL-47768  28.400   7.632  11.998
75454ION    CL-47769  25.033  35.317   3.350
75455ION    CL-47770   3.779  12.811  11.986
75456ION    CL-47771  21.626  30.084  11.262
75457ION    CL-47772   2.254  36.111  13.837
75458ION    CL-47773   2.260  38.098   2.246
75459ION    CL-47774   4.383  11.369  12.482
75460ION    CL-47775   1.605  16.050  11.052
75461ION    CL-47776   6.183   9.843   1.121
75462ION    CL-47777  35.414   2.424  12.168
75463ION    CL-47778   6.362  37.858   1.616
75464ION    CL-47779  17.960  37.253   4.714
75465ION    CL-47780  22.134  13.081   2.612
75466ION    CL-47781  15.563  24.352  11.221
75467ION    CL-47782  13.299  40.909   1.052
75468ION    CL-47783  42.513   6.013  14.411
75469ION    CL-47784   6.340   7.289  13.555
75470ION    CL-47785  12.135  13.571  11.140
75471ION    CL-47786  22.705  13.592   3.122
75472ION    CL-47787  12.192  17.711   1.571
75473ION    CL-47788  44.843  42.753   3.171
75474ION    CL-47789   5.324   2.788  13.578
75475ION    CL-47790  37.043  18.344   4.026
75476ION    CL-47791  19.688   8.705  12.075
75477ION    CL-47792  11.069  18.679   3.206
75478ION    CL-47793  33.406  28.598   1.919
75479ION    CL-47794  21.190  12.914  11.154
75480ION    CL-47795  15.442  43.464   4.847
75481ION    CL-47796  18.282  36.309  10.434
75482ION    CL-47797  32.700  19.230   1.976
75483ION    CL-47798  18.843   3.274   4.236
75484ION    CL-47799  27.891  43.065   0.075
75485ION    CL-47800  35.028  18.962   1.859
75486ION    CL-47801  43.571  43.972   1.491
75487ION    CL-47802  28.177  35.306  10.052
75488ION    CL-47803  27.038   0.440   2.394
75489ION    CL-47804  17.774  36.395   0.282
75490ION    CL-47805  31.159   0.724  11.709
75491ION    CL-47806  30.024  27.658   4.715
75492ION    CL-47807   7.138  27.490  13.529
75493ION    CL-47808  12.569  41.065  12.467
75494ION    CL-47809   9.661  43.732  10.455
75495ION    CL-47810   7.847  27.778  11.337
75496ION    CL-47811  12.712  18.793  12.990
75497ION    CL-47812  28.514  17.166  12.908
75498ION    CL-47813   7.383  25.769  13.707
75499ION    CL-47814  13.604  26.694   4.644
75500ION    CL-47815  15.161  27.709  10.163
75501ION    CL-47816   9.781  28.988   0.562
75502ION    CL-47817  44.795  35.224   3.693
75503ION    CL-47818   0.924  44.676   4.210
75504ION    CL-47819   3.991  12.407   4.353
75505ION    CL-47820  36.880  13.121   2.596
75506ION    CL-47821  30.048  14.916  11.358
75507ION    CL-47822  12.301  13.735  13.498
75508ION    CL-47823  39.455   0.784  14.061
75509ION    CL-47824  25.359  34.653   0.078
75510ION    CL-47825  26.660   8.147   3.695
75511ION    CL-47826  18.532  11.555   4.851
75512ION    CL-47827  42.209  40.706   5.038
75513ION    CL-47828  30.835  32.391  13.033
75514ION    CL-47829  27.772  22.037   2.414
75515ION    CL-47830  24.546  29.581   0.703
75516ION    CL-47831  27.955  30.876  12.684
75517ION    CL-47832  34.933  16.792   2.777
75518ION    CL-47833  35.523   9.827   1.316
75519ION    CL-47834   3.040  28.468  13.042
75520ION    CL-47835  30.613   7.969   0.961
75521ION    CL-47836  17.161  38.785  11.578
75522ION    CL-47837  26.658  25.346  10.742
75523ION    CL-47838   0.940  40.426   4.085
75524ION    CL-47839   0.684   2.995   1.876
75525ION    CL-47840  23.906  29.345  14.926
75526ION    CL-47841  41.574  34.646  10.683
75527ION    CL-47842   9.991  30.632  13.665
75528ION    CL-47843  43.821   6.280   4.338
75529ION    CL-47844  20.822  26.939   2.905
75530ION    CL-47845   7.293  19.763   1.322
75531ION    CL-47846  20.150  22.117   3.332
75532ION    CL-47847  29.825  35.928  12.637
75533ION    CL-47848  41.708   8.004  14.594
75534ION    CL-47849   3.971   5.450  12.761
75535ION    CL-47850  27.047  42.402   3.415
75536ION    CL-47851  38.238  19.403  12.162
75537ION    CL-47852  44.243  25.656   0.861
75538ION    CL-47853  44.187  12.783  14.857
75539ION    CL-47854  36.809  26.871  10.767
75540ION    CL-47855  15.779   6.629  11.865
75541ION    CL-47856  41.635  44.318   2.574
75542ION    CL-47857   1.995   3.012   2.218
75543ION    CL-47858  33.967  14.590  14.050
75544ION    CL-47859   5.209  15.255   4.876
75545ION    CL-47860  19.473  26.132  12.508
75546ION    CL-47861  37.477  24.201   1.106
75547ION    CL-47862  27.207   9.880  14.318
75548ION    CL-47863  34.551  21.263   0.308
75549ION    CL-47864  41.363   1.692   2.649
75550ION    CL-47865  26.843   0.625  13.540
75551ION    CL-47866   6.475  37.464  13.891
75552ION    CL-47867   1.093   2.254   4.946
75553ION    CL-47868   2.571  37.551  14.777
75554ION    CL-47869  19.407  28.030   4.835
75555ION    CL-47870   6.564  21.176  13.476
75556ION    CL-47871  12.626   3.885   3.895
75557ION    CL-47872  18.736   6.614  12.476
75558ION    CL-47873  34.522  43.466  11.381
75559ION    CL-47874   7.801  11.874   3.148
75560ION    CL-47875   3.379   8.802   1.364
75561ION    CL-47876  22.613   0.763   2.403
75562ION    CL-47877  20.313  12.865   3.040
75563ION    CL-47878  28.176  21.107  13.208
75564ION    CL-47879  18.810  23.187   0.504
75565ION    CL-47880  11.018  41.015  12.804
75566ION    CL-47881  39.002  12.332  13.400
75567ION    CL-47882  21.331  33.422   4.488
75568ION    CL-47883  12.556  11.604   2.504
75569ION    CL-47884  42.723  26.642   2.368
75570ION    CL-47885  26.304  29.650  11.982
75571ION    CL-47886  28.027  44.131  11.255
75572ION    CL-47887  37.085   7.991  12.941
75573ION    CL-47888  37.232   1.426  11.341
75574ION    CL-47889  30.342  14.035  14.987
75575ION    CL-47890  33.815  31.660   4.173
75576ION    CL-47891  20.309   5.431  13.514
75577ION    CL-47892  32.512  22.026   0.588
75578ION    CL-47893  43.254  42.762   2.548
75579ION    CL-47894  33.329  24.727   1.714
75580ION    CL-47895  14.053  16.286   2.834
75581ION    CL-47896  44.582  40.474   0.466
75582ION    CL-47897  29.517   1.268  14.257
75583ION    CL-47898   1.396  19.934   4.287
75584ION    CL-47899  41.097  25.310  12.868
75585ION    CL-47900  36.853  13.786   1.389
75586ION    CL-47901  34.758  32.648  14.544
75587ION    CL-47902  17.584  40.068  14.527
75588ION    CL-47903  18.633  36.503  13.218
75589ION    CL-47904  17.665   7.312  14.576
75590ION    CL-47905  10.989  21.425  14.061
75591ION    CL-47906  25.473  43.937  10.929
75592ION    CL-47907  36.719  30.073  10.425
75593ION    CL-47908  21.998  15.455  12.831
75594ION    CL-47909  13.942  10.746   1.736
75595ION    CL-47910   2.985   1.622   1.987
75596ION    CL-47911  39.081  14.728   4.402
75597ION    CL-47912  37.518   4.572   3.636
75598ION    CL-47913   5.420  12.265  13.569
75599ION    CL-47914  33.753  40.325  13.851
75600ION    CL-47915   4.156  23.318   1.176
75601ION    CL-47916  35.889  26.199   1.901
75602ION    CL-47917  23.331  20.912   4.056
75603ION    CL-47918  43.436  26.208   1.126
75604ION    CL-47919  29.154  15.049   0.483
75605ION    CL-47920  30.185  18.291  12.609
75606ION    CL-47921  44.927  34.239   3.582
75607ION    CL-47922  16.539  20.268   2.744
75608ION    CL-47923  11.728  42.712  14.612
75609ION    CL-47924   1.132   1.259   5.042
75610ION    CL-47925  16.326  28.152   0.073
75611ION    CL-47926   8.711  43.249  12.655
75612ION    CL-47927  28.530  32.797  13.494
75613ION    CL-47928  31.680   7.610  13.372
75614ION    CL-47929  16.062  18.253   3.275
75615ION    CL-47930  44.284  40.888   2.395
75616ION    CL-47931   4.680   7.232   4.144
75617ION    CL-47932  15.697  24.514   4.832
75618ION    CL-47933  12.166  43.731  10.922
75619ION    CL-47934  26.969  29.079  10.636
75620ION    CL-47935  23.251  22.102  14.929
75621ION    CL-47936   9.460  28.003   2.382
75622ION    CL-47937  41.280   4.272   2.179
75623ION    CL-47938  41.755  42.890   1.341
75624ION    CL-47939   3.608  41.430  11.568
75625ION    CL-47940  40.832   4.957   2.878
75626ION    CL-47941   0.984  30.954   4.265
75627ION    CL-47942  16.958  25.611  14.602
75628ION    CL-47943  17.864   5.674  13.968
75629ION    CL-47944  15.162  20.308   1.524
75630ION    CL-47945  14.297  22.071  13.038
75631ION    CL-47946   2.699  39.346   4.123
75632ION    CL-47947  36.342   8.912   0.962
75633ION    CL-47948  37.905   8.039   1.331
75634ION    CL-47949  40.360  15.748  10.814
75635ION    CL-47950  17.895  16.963   4.985
75636ION    CL-47951   2.924  33.537   3.945
75637ION    CL-47952  20.090   9.408  12.510
75638ION    CL-47953  30.369  11.012   2.955
75639ION    CL-47954  33.522  16.412  11.101
75640ION    CL-47955   3.145   5.315  13.309
75641ION    CL-47956  20.525  25.952  14.656
75642ION    CL-47957  24.242   8.528   3.258
75643ION    CL-47958  43.077  35.926   4.876
75644ION    CL-47959  35.616  27.102   0.494
75645ION    CL-47960  12.839  18.077   5.382
75646ION    CL-47961  27.704  38.606   1.842
75647ION    CL-47962  41.049  26.303   2.260
75648ION    CL-47963  17.301  10.776   5.231
75649ION    CL-47964   3.756  12.068  10.641
75650ION    CL-47965  23.734  20.879   0.467
75651ION    CL-47966  44.254   6.733  13.883
75652ION    CL-47967  41.028   7.430  14.660
75653ION    CL-47968  27.142  40.118   3.948
75654ION    CL-47969  38.353  30.112   3.673
75655ION    CL-47970  21.218  10.526   5.019
75656ION    CL-47971  28.644  15.622  14.841
75657ION    CL-47972  15.535  14.530   1.023
75658ION    CL-47973   4.533  27.531   4.551
75659ION    CL-47974   8.605  21.417   1.864
75660ION    CL-47975  30.577  41.295   2.287
75661ION    CL-47976   1.195  16.485  12.403
75662ION    CL-47977  14.608  44.029  13.517
75663ION    CL-47978  32.891  27.477   4.158
75664ION    CL-47979  37.617  22.640  13.405
75665ION    CL-47980  39.529   6.883   1.185
75666ION    CL-47981  26.108   3.130   1.822
75667ION    CL-47982  42.714   8.258   3.947
75668ION    CL-47983  23.302   9.876   1.332
75669ION    CL-47984  24.230   7.838   4.901
75670ION    CL-47985   0.678  21.212   3.059
75671ION    CL-47986  44.031   7.336   0.555
75672ION    CL-47987  32.845  44.521   0.060
75673ION    CL-47988   8.699  29.331   2.697
75674ION    CL-47989  18.917  24.015   5.109
75675ION    CL-47990   6.872  44.771   1.669
75676ION    CL-47991   7.550   6.527   4.354
75677ION    CL-47992  22.394  29.258   2.066
75678ION    CL-47993   0.019  33.383  13.115
75679ION    CL-47994  17.177   4.763   4.929
75680ION    CL-47995  17.742  22.015   3.176
75681ION    CL-47996  19.233  31.099  12.514
75682ION    CL-47997  37.124  30.712   4.151
75683ION    CL-47998  29.427  17.802  11.793
75684ION    CL-47999  23.902  21.485  12.522
75685ION    CL-48000  25.138  43.178   3.874
75686ION    CL-48001  27.095  12.543   1.741
75687ION    CL-48002  43.755  44.548  10.991
75688ION    CL-48003   5.290  31.530   1.412
75689ION    CL-48004  40.717  16.224   2.759
75690ION    CL-48005  30.400  17.667   3.296
75691ION    CL-48006   5.166  35.894   1.600
75692ION    CL-48007   0.700  15.592   3.452
75693ION    CL-48008  18.699   6.952   3.064
75694ION    CL-48009  33.066   8.414  10.480
75695ION    CL-48010   7.331  29.897   0.915
75696ION    CL-48011   8.265  33.615   0.944
75697ION    CL-48012  18.187  36.927   3.735
75698ION    CL-48013  16.702  16.563  13.546
75699ION    CL-48014  30.419   3.463   3.855
75700ION    CL-48015  29.025   0.305   1.424
75701ION    CL-48016  24.971  19.848   5.219
75702ION    CL-48017  32.599  18.532   2.740
75703ION    CL-48018   7.419  35.937  12.983
75704ION    CL-48019  23.359  22.322  12.457
75705ION    CL-48020  43.071   8.202   1.234
75706ION    CL-48021  10.122  14.245   9.823
75707ION    CL-48022   6.359  36.296  14.456
75708ION    CL-48023  31.416   5.136  11.873
75709ION    CL-48024  24.975  21.974  13.065
75710ION    CL-48025  23.442  14.116   1.561
75711ION    CL-48026  15.174  13.277   1.055
75712ION    CL-48027  28.951  31.958  10.693
75713ION    CL-48028   5.540  37.643  11.082
75714ION    CL-48029  33.350  15.559  11.674
75715ION    CL-48030  11.926  19.292  12.554
75716ION    CL-48031  40.387   4.208  12.016
75717ION    CL-48032  14.067  22.926   1.111
75718ION    CL-48033  18.725   0.407   1.253
75719ION    CL-48034  22.202  34.055  11.612
75720ION    CL-48035  33.395  18.795  14.799
75721ION    CL-48036  14.752  38.624  11.682
75722ION    CL-48037  31.400  20.988   1.381
75723ION    CL-48038  11.447  40.453   0.793
75724ION    CL-48039  23.071  25.518   0.228
75725ION    CL-48040  42.323  16.193   1.284
75726ION    CL-48041   1.366  20.098   0.711
75727ION    CL-48042  24.130  27.173  11.208
75728ION    CL-48043  34.117  33.150   3.193
75729ION    CL-48044  32.386  17.887   3.473
75730ION    CL-48045  11.478  39.194  13.955
75731ION    CL-48046   2.866  11.149   9.940
75732ION    CL-48047  26.678  19.038  11.638
75733ION    CL-48048   5.878   2.893   2.163
75734ION    CL-48049  12.735   7.391  11.673
75735ION    CL-48050  37.287  11.165   1.756
75736ION    CL-48051   1.725  36.402  11.316
75737ION    CL-48052  31.053  28.975   2.981
75738ION    CL-48053  12.257   5.928  12.073
75739ION    CL-48054  12.025  21.819   2.840
75740ION    CL-48055  38.444  21.220   2.159
75741ION    CL-48056  25.785  16.123  14.926
75742ION    CL-48057  31.781   5.159  13.261
75743ION    CL-48058  41.509  28.457   1.749
75744ION    CL-48059  33.722  24.650   3.750
75745ION    CL-48060  14.187   9.867  13.836
75746ION    CL-48061  36.828  12.283  11.134
75747ION    CL-48062  10.530  39.495   2.670
75748ION    CL-48063  43.231  12.060  10.452
75749ION    CL-48064  22.423   4.860  14.294
75750ION    CL-48065  30.709  42.119   2.839
75751ION    CL-48066  16.272   1.938   0.425
75752ION    CL-48067  25.554  40.142  13.456
75753ION    CL-48068   2.316  12.612   1.833
75754ION    CL-48069  17.022  25.771   1.555
75755ION    CL-48070  22.137  44.949  14.537
75756ION    CL-48071  19.613  12.015   3.181
75757ION    CL-48072  38.284  36.296   5.094
75758ION    CL-48073  37.017   3.390   0.261
75759ION    CL-48074  33.571  26.330   4.841
75760ION    CL-48075  14.732  43.589   3.689
75761ION    CL-48076  30.678  36.416   1.235
75762ION    CL-48077  43.898  21.677   2.109
75763ION    CL-48078   0.988  40.892  12.854
75764ION    CL-48079  38.666  12.513   5.109
75765ION    CL-48080   7.800  29.337   2.899
75766ION    CL-48081  34.761   5.437   1.618
75767ION    CL-48082   5.865  24.123  12.369
75768ION    CL-48083  17.170   3.204   3.181
75769ION    CL-48084   7.161  35.224   3.381
75770ION    CL-48085  25.486  29.895  12.239
75771ION    CL-48086  19.266   7.362  12.964
75772ION    CL-48087  37.575  20.612  12.382
75773ION    CL-48088  42.644  19.557  12.389
75774ION    CL-48089  14.231  41.128   1.469
75775ION    CL-48090  19.167  39.065  11.881
75776ION    CL-48091  22.358  16.581  14.836
75777ION    CL-48092  23.224   9.966  11.908
75778ION    CL-48093  29.921   1.879   4.374
75779ION    CL-48094  41.027  24.374   4.832
75780ION    CL-48095  15.598  42.357   3.354
75781ION    CL-48096  37.464  34.422   3.187
75782ION    CL-48097  25.741  44.365   2.633
75783ION    CL-48098   7.345  26.132  11.162
75784ION    CL-48099  39.370   1.793   3.629
75785ION    CL-48100   6.336  28.936   2.375
75786ION    CL-48101  29.209  37.769   1.114
75787ION    CL-48102   5.942  14.515  11.234
75788ION    CL-48103  38.951  13.036   3.619
75789ION    CL-48104  23.761  35.500   4.194
75790ION    CL-48105  33.538  44.524   4.097
75791ION    CL-48106  28.399  37.060   3.455
75792ION    CL-48107  35.431  40.137   3.309
75793ION    CL-48108   0.792  44.257  11.158
75794ION    CL-48109  35.955  17.576  12.035
75795ION    CL-48110  15.902  34.495   3.441
75796ION    CL-48111  42.677  12.897  11.337
75797ION    CL-48112  43.485  42.267  14.120
75798ION    CL-48113  44.977   7.020   0.361
75799ION    CL-48114  35.526  23.229   2.856
75800ION    CL-48115  22.236  42.468   2.177
75801ION    CL-48116  36.900  43.575   3.164
75802ION    CL-48117   7.945  31.952   5.106
75803ION    CL-48118   0.869   8.514  13.833
75804ION    CL-48119  18.797  20.361   3.483
75805ION    CL-48120  34.318  12.607  11.555
75806ION    CL-48121  27.147  18.075  11.590
75807ION    CL-48122  39.740  28.091  12.930
75808ION    CL-48123  23.340  27.466  12.149
75809ION    CL-48124  33.232  29.125   3.909
75810ION    CL-48125  18.373  43.870  11.094
75811ION    CL-48126  17.566  36.082   3.701
75812ION    CL-48127   8.254  38.292  14.510
75813ION    CL-48128  36.454  43.902   1.006
75814ION    CL-48129   8.418  18.612   4.108
75815ION    CL-48130  40.512  40.382  10.193
75816ION    CL-48131  41.445  13.964   4.516
75817ION    CL-48132  36.558  43.091  11.656
75818ION    CL-48133  42.758  28.316   3.425
75819ION    CL-48134  42.494  25.197  12.299
75820ION    CL-48135  29.334  14.244  14.744
75821ION    CL-48136  31.649  36.958  14.932
75822ION    CL-48137  24.274  21.725   3.456
75823ION    CL-48138  24.120  39.323  12.075
75824ION    CL-48139   3.231  38.272  14.985
75825ION    CL-48140  30.291  19.601   1.609
75826ION    CL-48141  38.452  28.707   4.678
75827ION    CL-48142  22.685  27.126  14.175
75828ION    CL-48143   4.681  41.472   4.908
75829ION    CL-48144   1.374  22.921   2.820
75830ION    CL-48145  21.735  37.576   4.997
75831ION    CL-48146  35.621  15.281  13.189
75832ION    CL-48147  30.202  44.333   0.447
75833ION    CL-48148  38.579  32.423   3.245
75834ION    CL-48149  29.392  28.298   1.832
75835ION    CL-48150  31.419   0.254  13.391
75836ION    CL-48151  44.831  16.806   1.130
75837ION    CL-48152  34.365  30.776   4.263
75838ION    CL-48153  17.562   5.463  11.757
75839ION    CL-48154  18.647  26.696  11.606
75840ION    CL-48155  25.155   6.371  11.225
75841ION    CL-48156  41.457   0.708   0.080
75842ION    CL-48157  10.101  14.460   5.337
75843ION    CL-48158  15.973  31.793  14.801
75844ION    CL-48159  21.500  30.073   4.590
75845ION    CL-48160   4.849  44.464   2.860
75846ION    CL-48161  25.478  39.474   3.783
75847ION    CL-48162  11.170  21.444  13.171
75848ION    CL-48163   2.660  34.101   1.385
75849ION    CL-48164  23.891  21.936   2.137
75850ION    CL-48165  34.570  26.626   1.793
75851ION    CL-48166  37.775  23.235   4.050
75852ION    CL-48167   2.437   5.358  14.020
75853ION    CL-48168  33.559  21.316   1.081
75854ION    CL-48169  28.253  41.853  12.070
75855ION    CL-48170  38.715  44.969   2.679
75856ION    CL-48171   2.347   1.760   9.901
75857ION    CL-48172  24.290  43.134   1.728
75858ION    CL-48173  39.582  33.167  12.551
75859ION    CL-48174  33.497  41.382   0.640
75860ION    CL-48175  44.686  11.050  14.309
75861ION    CL-48176  25.926  10.873  12.199
75862ION    CL-48177  38.673  18.840   0.843
75863ION    CL-48178  12.996  23.740  13.488
75864ION    CL-48179  30.542   0.262   0.302
75865ION    CL-48180   3.371  23.609  13.918
75866ION    CL-48181   2.364  19.744   3.266
75867ION    CL-48182  43.245  12.465  12.057
75868ION    CL-48183  18.177  12.375   4.997
75869ION    CL-48184  15.106  22.468  14.495
75870ION    CL-48185  31.419  44.714  11.656
75871ION    CL-48186  33.627  33.911   4.620
75872ION    CL-48187  44.173   1.665  12.139
75873ION    CL-48188   7.506  16.549   1.206
75874ION    CL-48189  12.825   8.077  13.552
75875ION    CL-48190  33.776  29.767  14.886
75876ION    CL-48191  18.555  10.675   1.318
75877ION    CL-48192  18.659   5.946  10.137
75878ION    CL-48193  39.823   4.793  11.434
75879ION    CL-48194  24.273  33.893  11.605
75880ION    CL-48195  18.816  21.635  14.421
75881ION    CL-48196  41.985  14.013  13.767
75882ION    CL-48197  17.418  44.026  11.345
75883ION    CL-48198  33.837   6.882  11.973
75884ION    CL-48199  38.211  34.580   4.833
75885ION    CL-48200  29.067  26.696   3.171
75886ION    CL-48201  34.677  28.464  12.030
75887ION    CL-48202  19.347  10.758  14.406
75888ION    CL-48203  24.021  20.760   3.520
75889ION    CL-48204  35.305  20.187   2.344
75890ION    CL-48205  14.716  27.203  12.082
75891ION    CL-48206  28.655   8.891  13.841
75892ION    CL-48207   5.212  16.101  12.082
75893ION    CL-48208  15.387  31.249   1.044
75894ION    CL-48209  16.224  31.382   3.341
75895ION    CL-48210  28.359  16.165  13.869
75896ION    CL-48211   4.657  23.765  13.135
75897ION    CL-48212  13.919  28.653   5.125
75898ION    CL-48213  11.271  13.154   0.773
75899ION    CL-48214  10.134  24.827  13.262
75900ION    CL-48215  23.480  21.426   2.924
75901ION    CL-48216  27.404  18.570   0.730
75902ION    CL-48217  29.194   2.648  12.897
75903ION    CL-48218  36.476  37.368   1.116
75904ION    CL-48219  19.424  18.422   3.334
75905ION    CL-48220  38.401  18.526  12.130
75906ION    CL-48221  13.841   8.855   1.685
75907ION    CL-48222   2.882  16.399  12.200
75908ION    CL-48223  35.808  24.761   2.877
75909ION    CL-48224  37.162  30.496   2.260
75910ION    CL-48225   0.321   9.369   4.167
75911ION    CL-48226  24.419   3.175   2.310
75912ION    CL-48227  40.212  29.849   0.263
75913ION    CL-48228  37.377  24.726  10.989
75914ION    CL-48229  41.578  34.655   1.486
75915ION    CL-48230  19.922  13.985   4.086
75916ION    CL-48231  29.352  27.369  12.308
75917ION    CL-48232   3.416  37.061  12.388
75918ION    CL-48233   3.838  10.451   1.955
75919ION    CL-48234  12.142  17.134  10.659
75920ION    CL-48235  19.011   6.561  10.709
75921ION    CL-48236  35.417   0.278  14.818
75922ION    CL-48237  10.325  36.310  14.069
75923ION    CL-48238  28.033  11.199   1.656
75924ION    CL-48239  10.223  21.388  14.961
75925ION    CL-48240  13.075  34.726  10.436
75926ION    CL-48241  18.966  18.236   4.512
75927ION    CL-48242  29.908  43.881  11.627
75928ION    CL-48243  31.092   8.320  12.983
75929ION    CL-48244  32.271  23.472   9.969
75930ION    CL-48245  40.360  44.979   0.394
75931ION    CL-48246   6.900  27.835  12.587
75932ION    CL-48247  11.736   9.476   1.506
75933ION    CL-48248  36.898  33.664  12.633
75934ION    CL-48249  13.657  30.795   4.796
75935ION    CL-48250   1.874  31.567   0.781
75936ION    CL-48251  39.341  21.155  12.159
75937ION    CL-48252  42.295  37.159   4.413
75938ION    CL-48253  13.087  22.122  12.613
75939ION    CL-48254  35.300  44.908   2.171
75940ION    CL-48255  24.209  43.617  11.143
75941ION    CL-48256  32.196  42.534  12.270
75942ION    CL-48257   5.390  17.512  14.814
75943ION    CL-48258  33.442  25.526  10.892
75944ION    CL-48259  36.888  34.436  13.046
75945ION    CL-48260  35.912  42.416   4.320
75946ION    CL-48261  41.566   0.176  11.545
75947ION    CL-48262  39.805  23.415   0.163
75948ION    CL-48263   6.242  19.308  13.350
75949ION    CL-48264   8.368  34.146   2.260
75950ION    CL-48265   2.619   6.221   4.970
75951ION    CL-48266  43.321  28.069   4.520
75952ION    CL-48267  10.463  14.610   0.284
75953ION    CL-48268  33.467   0.979  14.792
75954ION    CL-48269   6.863   9.377   0.694
75955ION    CL-48270  31.568   3.663   4.224
75956ION    CL-48271  37.477   4.032   2.289
75957ION    CL-48272  28.083   3.050   0.696
75958ION    CL-48273  16.785   1.046  11.411
75959ION    CL-48274  25.090  27.659   2.583
75960ION    CL-48275  44.484  20.452   3.201
75961ION    CL-48276  41.930   9.657   2.145
75962ION    CL-48277  26.531  21.737   0.131
75963ION    CL-48278  36.863  43.276   0.341
75964ION    CL-48279   3.766  27.069   1.290
75965ION    CL-48280   2.410  15.561   2.995
75966ION    CL-48281  19.044  11.545   9.801
75967ION    CL-48282   0.008  33.728   2.171
75968ION    CL-48283  12.669  16.707  12.934
75969ION    CL-48284  23.648  43.373  12.993
75970ION    CL-48285   7.507  32.585   3.187
75971ION    CL-48286  32.560   3.155  14.242
75972ION    CL-48287   4.040  32.096   9.980
75973ION    CL-48288  18.523  16.477   3.279
75974ION    CL-48289   5.978  19.154  12.066
75975ION    CL-48290  24.181  35.218  11.440
75976ION    CL-48291  34.909   6.173   3.258
75977ION    CL-48292  29.848   4.867  10.568
75978ION    CL-48293  29.749   5.228  11.672
75979ION    CL-48294  12.660  12.505   1.042
75980ION    CL-48295  29.177  21.648   0.405
75981ION    CL-48296   7.499  39.081   1.380
75982ION    CL-48297  10.274   4.268  10.635
75983ION    CL-48298  42.577  30.659  13.194
75984ION    CL-48299  27.422  27.253  13.154
75985ION    CL-48300  44.204  35.996   3.456
75986ION    CL-48301  18.202  44.614   3.181
75987ION    CL-48302   5.778  17.691   0.955
75988ION    CL-48303   3.760  40.899   2.490
75989ION    CL-48304  22.822  31.197  13.371
75990ION    CL-48305   1.563  28.538  14.022
75991ION    CL-48306  10.196  36.561   0.028
75992ION    CL-48307  29.919  24.137   0.747
75993ION    CL-48308   5.342  24.088  14.157
75994ION    CL-48309  43.675  14.189   0.354
75995ION    CL-48310   7.060  33.554   2.250
75996ION    CL-48311  18.812  28.772   2.928
75997ION    CL-48312  19.232  16.482  11.334
75998ION    CL-48313  32.550  43.083   3.029
75999ION    CL-48314   9.676  29.568   2.835
76000ION    CL-48315  27.865  23.336   2.624
76001ION    CL-48316  36.345  42.357  13.243
76002ION    CL-48317  14.105  22.223   4.774
76003ION    CL-48318  22.565  11.914  11.189
76004ION    CL-48319  38.325  11.358  13.866
76005ION    CL-48320  14.472   1.798  13.481
76006ION    CL-48321  41.138   7.870  11.181
76007ION    CL-48322  33.126  26.446  13.440
76008ION    CL-48323  24.140  29.405  13.402
76009ION    CL-48324  23.755  33.175   2.689
76010ION    CL-48325  38.497  25.316   2.636
76011ION    CL-48326  13.010  35.546  10.605
76012ION    CL-48327  10.820  33.635   2.483
76013ION    CL-48328  21.037   9.014   3.555
76014ION    CL-48329  14.022  21.286   1.695
76015ION    CL-48330   5.260  44.883   1.324
76016ION    CL-48331  12.467  26.224   0.996
76017ION    CL-48332  22.317  10.881  12.905
76018ION    CL-48333  38.624   2.277   4.177
76019ION    CL-48334  38.582  13.899  13.255
76020ION    CL-48335  24.890  43.974   1.957
76021ION    CL-48336  28.990  40.930   0.821
76022ION    CL-48337  15.060   7.551  12.564
76023ION    CL-48338   8.505  25.961  12.031
76024ION    CL-48339  22.995  17.867  14.489
76025ION    CL-48340  16.692  35.321   5.059
76026ION    CL-48341  23.309  17.235  12.879
76027ION    CL-48342  30.398  10.449   0.856
76028ION    CL-48343  39.522  44.222  12.977
76029ION    CL-48344  27.832  44.768   2.377
76030ION    CL-48345  34.426   3.209  14.788
76031ION    CL-48346  14.858  20.255   3.287
76032ION    CL-48347  31.483  33.900  10.652
76033ION    CL-48348   9.070  16.463   4.535
76034ION    CL-48349   2.646   6.820   3.849
76035ION    CL-48350  32.653  16.922   3.699
76036ION    CL-48351  15.019  33.548   3.078
76037ION    CL-48352  40.583  32.799   1.961
76038ION    CL-48353  20.798  24.301  14.409
76039ION    CL-48354  38.949  35.456   3.622
76040ION    CL-48355  39.289   3.264   0.546
76041ION    CL-48356  39.050  30.998  10.637
76042ION    CL-48357  32.181  23.022   0.992
76043ION    CL-48358  17.624  18.350   1.844
76044ION    CL-48359  23.949  37.646   2.860
76045ION    CL-48360  21.222  41.005  11.230
76046ION    CL-48361  32.953  26.198  14.336
76047ION    CL-48362  13.764   9.472   3.522
76048ION    CL-48363  40.461  23.675  14.455
76049ION    CL-48364  12.461  13.730  12.398
76050ION    CL-48365  20.084  39.847   2.374
76051ION    CL-48366  27.548  35.868  10.469
76052ION    CL-48367  23.754  34.373  12.408
76053ION    CL-48368  35.658  21.045   0.534
76054ION    CL-48369  18.040  32.169  10.703
76055ION    CL-48370   7.872  18.587   2.635
76056ION    CL-48371  21.896  22.217  13.323
76057ION    CL-48372  22.400  12.813  11.595
76058ION    CL-48373  17.024  31.345   1.761
76059ION    CL-48374  35.077   2.699   0.190
76060ION    CL-48375  16.219  29.232  11.474
76061ION    CL-48376  43.704  15.736  12.919
76062ION    CL-48377  36.870  33.136  14.916
76063ION    CL-48378  41.261  40.474   5.254
76064ION    CL-48379  41.316  35.413   2.643
76065ION    CL-48380  35.442   7.514   1.786
76066ION    CL-48381  41.855  20.828  12.664
76067ION    CL-48382  36.138  30.764   2.785
76068ION    CL-48383  38.129  15.809  13.478
76069ION    CL-48384  41.474  35.959   0.994
76070ION    CL-48385   1.935  42.247   2.446
76071ION    CL-48386  40.452  36.594   2.300
76072ION    CL-48387  33.108  24.860   3.789
76073ION    CL-48388  31.311  11.394   3.026
76074ION    CL-48389  29.649  23.914   3.636
76075ION    CL-48390  39.811  40.768   4.582
76076ION    CL-48391  27.451   0.936  14.873
76077ION    CL-48392  20.812  12.514   0.247
76078ION    CL-48393   5.351  31.489   4.837
76079ION    CL-48394  42.898   9.865   2.285
76080ION    CL-48395  27.089  31.591  14.393
76081ION    CL-48396   9.122   1.500  10.854
76082ION    CL-48397  24.716  44.297   2.888
76083ION    CL-48398   6.050  35.425   1.601
76084ION    CL-48399   8.329  22.579  11.145
76085ION    CL-48400   9.460  32.076   1.253
76086ION    CL-48401  32.023   1.975  12.212
76087ION    CL-48402  15.174  44.453  12.322
76088ION    CL-48403   6.323  33.876  11.458
76089ION    CL-48404  28.799  29.317  14.147
76090ION    CL-48405  24.849  41.528   2.719
76091ION    CL-48406  31.136  16.139   3.938
76092ION    CL-48407  18.914   9.556  10.557
76093ION    CL-48408   4.761  23.776   3.025
76094ION    CL-48409  38.029  35.446   2.154
76095ION    CL-48410  10.231  12.320  12.010
76096ION    CL-48411  26.790   5.792   3.357
76097ION    CL-48412  23.061   3.421   2.330
76098ION    CL-48413  24.646  11.388  10.699
76099ION    CL-48414  37.137  23.288  11.062
76100ION    CL-48415  44.047  35.490   2.600
76101ION    CL-48416  30.222  14.011   3.800
76102ION    CL-48417   1.595   7.479   2.387
76103ION    CL-48418  43.941  25.654   3.301
76104ION    CL-48419  24.074   8.244  14.278
76105ION    CL-48420   1.433  12.593   2.304
76106ION    CL-48421  39.824  32.014  12.926
76107ION    CL-48422   5.735  35.188   4.500
76108ION    CL-48423   2.878  26.490   4.270
76109ION    CL-48424  15.735  38.230   2.315
76110ION    CL-48425  21.454  26.693   1.180
76111ION    CL-48426  14.871   6.155   4.145
76112ION    CL-48427  36.000  26.865   3.298
76113ION    CL-48428  21.959  27.880  10.649
76114ION    CL-48429   3.454  29.609   3.210
76115ION    CL-48430   7.742  16.371   9.890
76116ION    CL-48431   1.504  16.828  13.187
76117ION    CL-48432  29.694  19.877  14.975
76118ION    CL-48433  23.478   0.635   3.934
76119ION    CL-48434   0.469  20.837  12.962
76120ION    CL-48435  42.281  19.407   0.397
76121ION    CL-48436  29.229  38.425  14.883
76122ION    CL-48437  36.493   7.008  14.895
76123ION    CL-48438   9.679   0.322   0.751
76124ION    CL-48439  43.069  29.794   3.163
76125ION    CL-48440   0.023   1.015   2.789
76126ION    CL-48441   6.736   8.208  10.355
76127ION    CL-48442  27.332  44.129   3.631
76128ION    CL-48443  24.843  33.003   3.986
76129ION    CL-48444  26.592  38.562  12.101
76130ION    CL-48445  20.159   3.517   1.797
76131ION    CL-48446  20.335   2.419   4.360
76132ION    CL-48447  10.204  24.078  14.895
76133ION    CL-48448  11.762  22.340  10.693
76134ION    CL-48449   4.531  28.725  12.960
76135ION    CL-48450   9.925  26.270  10.416
76136ION    CL-48451  20.053   1.276  10.641
76137ION    CL-48452  25.566  30.638  11.575
76138ION    CL-48453  15.647  29.053   0.958
76139ION    CL-48454   0.472  36.462   1.371
76140ION    CL-48455  27.937  15.295   9.907
76141ION    CL-48456  37.451  10.702   1.065
76142ION    CL-48457  36.610  20.120  14.981
76143ION    CL-48458  30.309  29.291  11.156
76144ION    CL-48459  25.612  29.912  10.792
76145ION    CL-48460  29.547   6.649   2.904
76146ION    CL-48461  42.078  38.424  11.784
76147ION    CL-48462  30.537   6.869  13.084
76148ION    CL-48463   2.451  10.549  11.557
76149ION    CL-48464  15.624  26.168   3.880
76150ION    CL-48465  17.871   3.308   5.134
76151ION    CL-48466  23.258  19.693  14.311
76152ION    CL-48467   0.924  41.846   0.011
76153ION    CL-48468  26.740   0.569   4.683
76154ION    CL-48469  19.223   1.711  12.055
76155ION    CL-48470   2.699  44.413   1.236
76156ION    CL-48471  33.669  10.793  11.472
76157ION    CL-48472   1.719  42.193   5.106
76158ION    CL-48473  27.494  24.527  12.504
76159ION    CL-48474   1.172  42.499   2.766
76160ION    CL-48475  28.510  22.593   2.804
76161ION    CL-48476   8.680   0.965  14.397
76162ION    CL-48477  28.395   2.115   0.865
76163ION    CL-48478  44.075  18.249  11.857
76164ION    CL-48479  10.506  30.558  12.934
76165ION    CL-48480  37.616  43.221   2.562
76166ION    CL-48481  29.120   0.837   0.568
76167ION    CL-48482  27.661  12.887  12.135
76168ION    CL-48483   7.706  13.623   5.025
76169ION    CL-48484   7.769  41.672   4.042
76170ION    CL-48485   6.466  38.853   1.619
76171ION    CL-48486  39.576  29.378  12.652
76172ION    CL-48487   5.308  23.637   5.189
76173ION    CL-48488  15.385  15.322  12.070
76174ION    CL-48489  14.576  16.215   1.101
76175ION    CL-48490   9.439  23.861   1.730
76176ION    CL-48491  34.993  35.186   4.495
76177ION    CL-48492  34.408  26.191   0.907
76178ION    CL-48493   0.690   8.962  14.575
76179ION    CL-48494  17.494  29.429  13.135
76180ION    CL-48495   2.982  12.482   1.099
76181ION    CL-48496  40.464  34.668  14.892
76182ION    CL-48497   9.166  32.457   2.190
76183ION    CL-48498  43.552   9.820  14.705
76184ION    CL-48499  14.658  25.833   1.353
76185ION    CL-48500  10.346  12.591  14.899
76186ION    CL-48501   5.516  32.543   2.788
76187ION    CL-48502  22.638  37.267  13.060
76188ION    CL-48503  15.012  42.048  12.377
76189ION    CL-48504   9.267  25.155   0.864
76190ION    CL-48505   9.735  32.126  11.194
76191ION    CL-48506  19.557  38.847  14.758
76192ION    CL-48507   5.246  24.927   1.489
76193ION    CL-48508  44.322  29.950  11.659
76194ION    CL-48509   3.593  15.310   0.565
76195ION    CL-48510   4.029   4.433   4.028
76196ION    CL-48511  40.067   6.725  11.871
76197ION    CL-48512   7.353   9.919  12.816
76198ION    CL-48513  10.198  36.807   4.979
76199ION    CL-48514  28.505  35.746   3.768
76200ION    CL-48515  30.017   0.297   1.545
76201ION    CL-48516  10.311   4.235   0.351
76202ION    CL-48517  28.168  15.855   3.238
76203ION    CL-48518  31.206   8.265   2.656
76204ION    CL-48519  38.223  27.215   4.788
76205ION    CL-48520  35.609  22.111  11.219
76206ION    CL-48521  15.092  36.862   3.335
76207ION    CL-48522  22.532  40.337  12.900
76208ION    CL-48523  20.118  16.321  14.862
76209ION    CL-48524  34.600  40.365   2.802
76210ION    CL-48525  19.578  42.292   1.660
76211ION    CL-48526  33.628  22.203   0.359
76212ION    CL-48527  15.890  24.875  11.878
76213ION    CL-48528   2.739   4.685   3.989
76214ION    CL-48529   1.432  38.870  10.395
76215ION    CL-48530  39.781   7.258  11.074
76216ION    CL-48531  24.544  22.693  12.383
76217ION    CL-48532  24.635   8.020  14.947
76218ION    CL-48533   8.580   7.679   0.013
76219ION    CL-48534   9.389   8.239  14.607
76220ION    CL-48535  31.016  28.221   2.215
76221ION    CL-48536   5.736  35.380  12.537
76222ION    CL-48537  42.873  25.548   1.202
76223ION    CL-48538  43.262  27.040  14.684
76224ION    CL-48539   2.137  28.396  12.275
76225ION    CL-48540  42.998  29.191   3.957
76226ION    CL-48541  17.670  44.496  12.191
76227ION    CL-48542  32.727  16.730  10.585
76228ION    CL-48543   6.377  22.550  13.394
76229ION    CL-48544  12.414  25.745   5.067
76230ION    CL-48545  34.247   4.243  13.774
76231ION    CL-48546  13.287  39.469  13.018
76232ION    CL-48547  11.197  24.312   2.765
76233ION    CL-48548   6.425   5.389  13.003
76234ION    CL-48549  22.548  16.889   1.275
76235ION    CL-48550  10.663  12.160   4.895
76236ION    CL-48551   4.298  36.676  10.775
76237ION    CL-48552  13.290  44.804  12.536
76238ION    CL-48553  11.984  15.415  14.059
76239ION    CL-48554  20.298   0.987  13.057
76240ION    CL-48555  13.415  28.907  14.896
76241ION    CL-48556  36.052   3.314   1.456
76242ION    CL-48557  32.626  42.535   3.887
76243ION    CL-48558   7.699  40.060   3.789
76244ION    CL-48559  44.529   9.293  13.971
76245ION    CL-48560  11.133  42.320  13.813
76246ION    CL-48561  32.474   1.327  11.599
76247ION    CL-48562  22.512  37.827   4.612
76248ION    CL-48563  28.233  21.312   1.359
76249ION    CL-48564  36.992  37.113   2.018
76250ION    CL-48565  29.523   3.190   4.204
76251ION    CL-48566  22.369  36.792   3.624
76252ION    CL-48567  24.589  28.146  10.589
76253ION    CL-48568  24.380  34.660   2.073
76254ION    CL-48569  37.839  40.145  13.293
76255ION    CL-48570  42.732  31.918  12.720
76256ION    CL-48571  22.438   6.592   1.323
76257ION    CL-48572  11.110  29.639   4.978
76258ION    CL-48573  17.584  17.749  14.900
76259ION    CL-48574  18.080  32.770   2.389
76260ION    CL-48575  38.898  43.544  12.984
76261ION    CL-48576   3.009  43.084   3.671
76262ION    CL-48577  38.019  25.681  13.309
76263ION    CL-48578   7.119   4.684  12.851
76264ION    CL-48579   3.274  38.314  13.987
76265ION    CL-48580  29.693  23.170  13.516
76266ION    CL-48581  14.357  26.470  10.759
76267ION    CL-48582   8.048  36.847   5.061
76268ION    CL-48583  16.891  22.534  14.336
76269ION    CL-48584  40.911   4.785  12.643
76270ION    CL-48585  19.981  36.861   3.729
76271ION    CL-48586  30.672  42.053   1.640
76272ION    CL-48587  15.088  17.962   0.517
76273ION    CL-48588  21.378  33.666  13.532
76274ION    CL-48589  41.827  23.631   1.779
76275ION    CL-48590  39.646  12.059   2.660
76276ION    CL-48591  38.418   5.922   4.659
76277ION    CL-48592  27.646   1.495   2.983
76278ION    CL-48593   7.892  24.557   2.559
76279ION    CL-48594  41.838  29.704   3.516
76280ION    CL-48595  41.775  32.936   3.154
76281ION    CL-48596  32.225  19.050   1.114
76282ION    CL-48597  20.145  20.179   3.272
76283ION    CL-48598  13.896  18.258  11.095
76284ION    CL-48599   6.736  35.365  13.436
76285ION    CL-48600  27.321  13.665  11.551
76286ION    CL-48601  43.959  19.048  11.265
76287ION    CL-48602  27.662  14.897  12.088
76288ION    CL-48603   9.063  26.601  12.561
76289ION    CL-48604  14.974   3.834   2.942
76290ION    CL-48605  10.843  41.337  10.239
76291ION    CL-48606  21.752  24.944   3.839
76292ION    CL-48607  40.832  18.319   4.270
76293ION    CL-48608  11.112  16.856  12.203
76294ION    CL-48609  38.415  24.040  13.695
76295ION    CL-48610  33.615   3.367  10.881
76296ION    CL-48611  38.795  28.221   1.536
76297ION    CL-48612   1.885   4.536   3.946
76298ION    CL-48613  36.840  35.405  12.802
76299ION    CL-48614   0.062  32.568   1.418
76300ION    CL-48615   3.895   0.273   2.776
76301ION    CL-48616  35.943  19.219   1.546
76302ION    CL-48617  39.404  43.078   3.122
76303ION    CL-48618  42.990   5.375  12.004
76304ION    CL-48619   5.468  16.947   1.597
76305ION    CL-48620  17.326   2.020   2.753
76306ION    CL-48621  14.274  12.599  11.647
76307ION    CL-48622  21.210  23.777   0.394
76308ION    CL-48623   3.802  40.392   1.134
76309ION    CL-48624  24.068  25.522   0.919
76310ION    CL-48625   3.859  20.806   0.065
76311ION    CL-48626  30.072  15.212   3.131
76312ION    CL-48627  22.576  11.589   9.997
76313ION    CL-48628  24.972   4.103   3.282
76314ION    CL-48629  12.528  33.429   2.863
76315ION    CL-48630  17.836  35.773  13.013
76316ION    CL-48631  11.735  37.688   2.371
76317ION    CL-48632  22.679  21.731  10.899
76318ION    CL-48633  29.978  28.044   0.712
76319ION    CL-48634  17.675   6.845  10.855
76320ION    CL-48635   0.662  29.334  13.829
76321ION    CL-48636  21.404  16.876  14.884
76322ION    CL-48637  39.843  42.077   4.198
76323ION    CL-48638  31.225  21.216   2.854
76324ION    CL-48639  39.749  39.482  12.406
76325ION    CL-48640  18.467  36.357  12.232
76326ION    CL-48641   9.484  21.703  10.553
76327ION    CL-48642  37.217   0.766   0.781
76328ION    CL-48643  12.809  22.416   1.397
76329ION    CL-48644  29.566   2.903  10.766
76330ION    CL-48645  26.993  42.660  14.903
76331ION    CL-48646  10.067  40.957   4.012
76332ION    CL-48647  25.037   7.359   1.711
76333ION    CL-48648  34.491  28.587   4.110
76334ION    CL-48649  43.913  23.732   3.170
76335ION    CL-48650  24.663  40.609   4.929
76336ION    CL-48651  18.304  11.724   1.656
76337ION    CL-48652  30.569  40.544   4.057
76338ION    CL-48653  41.294  42.293   5.097
76339ION    CL-48654   9.090  13.407   2.171
76340ION    CL-48655  12.906  31.738  14.447
76341ION    CL-48656  30.173  32.877   1.122
76342ION    CL-48657  10.691  18.365  11.594
76343ION    CL-48658  29.887  24.073  13.130
76344ION    CL-48659  15.548  17.175   3.163
76345ION    CL-48660  11.705  26.539   2.758
76346ION    CL-48661  43.096  27.557  11.996
76347ION    CL-48662  33.072  17.299   2.656
76348ION    CL-48663   6.789  25.236   0.326
76349ION    CL-48664   2.404  39.043  12.018
76350ION    CL-48665   8.085   5.560   1.592
76351ION    CL-48666  24.977  24.584   2.437
76352ION    CL-48667  43.365  33.716   5.078
76353ION    CL-48668  43.035  11.477   5.039
76354ION    CL-48669  12.984  37.012   2.598
76355ION    CL-48670  41.686  19.327   1.079
76356ION    CL-48671  32.514   0.448   2.651
76357ION    CL-48672  36.997  41.787   2.255
76358ION    CL-48673  38.827  16.347  13.953
76359ION    CL-48674  28.177   4.972   3.883
76360ION    CL-48675  24.198  44.878   1.714
76361ION    CL-48676   2.287  16.699  14.348
76362ION    CL-48677  22.647  22.343   3.255
76363ION    CL-48678   6.702  25.540   3.195
76364ION    CL-48679  13.252  35.900   2.191
76365ION    CL-48680  42.480  21.446   2.839
76366ION    CL-48681  27.214  44.888   0.882
76367ION    CL-48682  21.231  18.032   0.230
76368ION    CL-48683  14.209  39.815   0.917
76369ION    CL-48684  18.347  12.093  14.359
76370ION    CL-48685  35.118  31.405   1.790
76371ION    CL-48686   5.988  14.297   1.810
76372ION    CL-48687   5.100  40.035   1.171
76373ION    CL-48688   3.196  26.897  13.932
76374ION    CL-48689   8.172  32.676   0.611
76375ION    CL-48690  26.529  29.794   0.352
76376ION    CL-48691  37.936  17.204  12.091
76377ION    CL-48692  28.507  38.933  13.839
76378ION    CL-48693   3.850  20.017   3.470
76379ION    CL-48694  21.166   4.550   0.268
76380ION    CL-48695  36.469  30.607   9.787
76381ION    CL-48696   8.759   9.542  11.741
76382ION    CL-48697  19.190  12.278   0.827
76383ION    CL-48698  26.404  32.976  13.572
76384ION    CL-48699  22.302  32.235  12.924
76385ION    CL-48700   5.927  29.953   2.849
76386ION    CL-48701  26.594  35.577   0.156
76387ION    CL-48702  43.731  20.906   2.724
76388ION    CL-48703  40.104  41.706  13.580
76389ION    CL-48704  33.557   9.120   3.431
76390ION    CL-48705  38.328   2.779   1.724
76391ION    CL-48706  40.565   9.680  12.109
76392ION    CL-48707  44.093  21.759  14.836
76393ION    CL-48708  36.066  25.973   0.206
76394ION    CL-48709  43.922  11.333  14.712
76395ION    CL-48710  20.489  38.111  13.662
76396ION    CL-48711  15.871  32.023  12.611
76397ION    CL-48712  12.164  12.668  13.101
76398ION    CL-48713   6.634  28.631  14.323
76399ION    CL-48714  20.539  13.872  13.127
76400ION    CL-48715  13.176  23.148   2.484
76401ION    CL-48716  14.224  13.051   0.839
76402ION    CL-48717  35.329  18.987  11.928
76403ION    CL-48718   7.803  40.025  10.781
76404ION    CL-48719   9.090  12.527   2.264
  45.00000  45.00000  15.00000
